<event>
 5    1  0.2354746E-004  0.6472864E+03  0.7818608E-02  0.9811885E-01
         13   -1    0    0    0    0  0.00000000000E+00  0.00000000000E+00  0.10000000000E+04  0.10000000000E+04  0.00000000000E+00 0. -1.
          2   -1    0    0  501    0 -0.00000000000E+00 -0.00000000000E+00 -0.10474490605E+03  0.10474490605E+03  0.00000000000E+00 0. -1.
    9000006    2    1    2  501    0  0.00000000000E+00  0.00000000000E+00  0.89525509395E+03  0.11047449061E+04  0.64728635410E+03 0.  0.
         13    1    3    3    0    0 -0.10372309590E+03  0.30184602317E+03  0.53914732784E+03  0.62653758343E+03  0.00000000000E+00 0. -1.
          2    1    3    3  501    0  0.10372309590E+03 -0.30184602317E+03  0.35610776611E+03  0.47820732262E+03  0.00000000000E+00 0. -1.
<mgrwt>
<rscale>  0 0.64728635E+03</rscale>
<asrwt>0</asrwt>
<pdfrwt beam="1">0</pdfrwt>
<pdfrwt beam="2">  1        2 0.38089137E+00 0.64728635E+03</pdfrwt>
<totfact> 0.46923451E+00</totfact>
</mgrwt>
</event>
<event>
 5    1  0.2354746E-004  0.6969883E+03  0.7818608E-02  0.9722397E-01
         13   -1    0    0    0    0  0.00000000000E+00  0.00000000000E+00  0.10000000000E+04  0.10000000000E+04  0.00000000000E+00 0. -1.
          2   -1    0    0  501    0 -0.00000000000E+00 -0.00000000000E+00 -0.12144817051E+03  0.12144817051E+03  0.00000000000E+00 0. -1.
    9000006    2    1    2  501    0  0.00000000000E+00  0.00000000000E+00  0.87855182949E+03  0.11214481705E+04  0.69698829406E+03 0.  0.
         13    1    3    3    0    0  0.29774789193E+03  0.11299856571E+03  0.21158408867E+03  0.38234841386E+03  0.00000000000E+00 0. -1.
          2    1    3    3  501    0 -0.29774789193E+03 -0.11299856571E+03  0.66696774081E+03  0.73909975665E+03  0.00000000000E+00 0. -1.
<mgrwt>
<rscale>  0 0.69698829E+03</rscale>
<asrwt>0</asrwt>
<pdfrwt beam="1">0</pdfrwt>
<pdfrwt beam="2">  1        2 0.44163064E+00 0.69698829E+03</pdfrwt>
<totfact> 0.27489699E+00</totfact>
</mgrwt>
</event>
<event>
 5    1  0.2354746E-004  0.6386151E+03  0.7818608E-02  0.9828380E-01
         13   -1    0    0    0    0  0.00000000000E+00  0.00000000000E+00  0.10000000000E+04  0.10000000000E+04  0.00000000000E+00 0. -1.
          2   -1    0    0  501    0 -0.00000000000E+00 -0.00000000000E+00 -0.10195731172E+03  0.10195731172E+03  0.00000000000E+00 0. -1.
    9000006    2    1    2  501    0  0.00000000000E+00  0.00000000000E+00  0.89804268828E+03  0.11019573117E+04  0.63861510072E+03 0.  0.
         13    1    3    3    0    0 -0.51301070945E+02  0.26148722332E+03  0.75258901615E+03  0.79837184010E+03  0.00000000000E+00 0. -1.
          4    1    3    3  501    0  0.51301070945E+02 -0.26148722332E+03  0.14545367213E+03  0.30358547161E+03  0.00000000000E+00 0. -1.
<mgrwt>
<rscale>  0 0.63861510E+03</rscale>
<asrwt>0</asrwt>
<pdfrwt beam="1">0</pdfrwt>
<pdfrwt beam="2">  1        2 0.37075464E+00 0.63861510E+03</pdfrwt>
<totfact> 0.51163996E+00</totfact>
</mgrwt>
</event>
<event>
 5    1  0.2354746E-004  0.6510348E+03  0.7818608E-02  0.9804839E-01
         13   -1    0    0    0    0  0.00000000000E+00  0.00000000000E+00  0.10000000000E+04  0.10000000000E+04  0.00000000000E+00 0. -1.
          2   -1    0    0  501    0 -0.00000000000E+00 -0.00000000000E+00 -0.10596157330E+03  0.10596157330E+03  0.00000000000E+00 0. -1.
    9000006    2    1    2  501    0  0.00000000000E+00  0.00000000000E+00  0.89403842670E+03  0.11059615733E+04  0.65103478649E+03 0.  0.
         13    1    3    3    0    0  0.13177114484E+03  0.47383909733E+02 -0.52179908990E+02  0.14943765395E+03  0.00000000000E+00 0. -1.
          2    1    3    3  501    0 -0.13177114484E+03 -0.47383909733E+02  0.94621833569E+03  0.95652391936E+03  0.00000000000E+00 0. -1.
<mgrwt>
<rscale>  0 0.65103479E+03</rscale>
<asrwt>0</asrwt>
<pdfrwt beam="1">0</pdfrwt>
<pdfrwt beam="2">  1        2 0.38531562E+00 0.65103479E+03</pdfrwt>
<totfact> 0.45175144E+00</totfact>
</mgrwt>
</event>
<event>
 5    1  0.2354746E-004  0.6525468E+03  0.7818608E-02  0.9802012E-01
         13   -1    0    0    0    0  0.00000000000E+00  0.00000000000E+00  0.10000000000E+04  0.10000000000E+04  0.00000000000E+00 0. -1.
          2   -1    0    0  501    0 -0.00000000000E+00 -0.00000000000E+00 -0.10645433539E+03  0.10645433539E+03  0.00000000000E+00 0. -1.
    9000006    2    1    2  501    0  0.00000000000E+00  0.00000000000E+00  0.89354566461E+03  0.11064543354E+04  0.65254681178E+03 0.  0.
         13    1    3    3    0    0 -0.19903584580E+03  0.15315024644E+03  0.79994540275E+03  0.83844076313E+03  0.00000000000E+00 0. -1.
          2    1    3    3  501    0  0.19903584580E+03 -0.15315024644E+03  0.93600261864E+02  0.26801357226E+03  0.00000000000E+00 0. -1.
<mgrwt>
<rscale>  0 0.65254681E+03</rscale>
<asrwt>0</asrwt>
<pdfrwt beam="1">0</pdfrwt>
<pdfrwt beam="2">  1        2 0.38710749E+00 0.65254681E+03</pdfrwt>
<totfact> 0.44484036E+00</totfact>
</mgrwt>
</event>
<event>
 5    1  0.2354746E-004  0.6806948E+03  0.7818608E-02  0.9750828E-01
         13   -1    0    0    0    0  0.00000000000E+00  0.00000000000E+00  0.10000000000E+04  0.10000000000E+04  0.00000000000E+00 0. -1.
          2   -1    0    0  501    0 -0.00000000000E+00 -0.00000000000E+00 -0.11583636632E+03  0.11583636632E+03  0.00000000000E+00 0. -1.
    9000006    2    1    2  501    0  0.00000000000E+00  0.00000000000E+00  0.88416363368E+03  0.11158363663E+04  0.68069484007E+03 0.  0.
         13    1    3    3    0    0  0.33385029162E+02  0.32369175900E+03  0.27860344613E+03  0.42838159999E+03  0.00000000000E+00 0. -1.
          2    1    3    3  501    0 -0.33385029162E+02 -0.32369175900E+03  0.60556018755E+03  0.68745476633E+03  0.00000000000E+00 0. -1.
<mgrwt>
<rscale>  0 0.68069484E+03</rscale>
<asrwt>0</asrwt>
<pdfrwt beam="1">0</pdfrwt>
<pdfrwt beam="2">  1        2 0.42122404E+00 0.68069484E+03</pdfrwt>
<totfact> 0.33015144E+00</totfact>
</mgrwt>
</event>
<event>
 5    1  0.2354746E-004  0.6508153E+03  0.7818608E-02  0.9805251E-01
         13   -1    0    0    0    0  0.00000000000E+00  0.00000000000E+00  0.10000000000E+04  0.10000000000E+04  0.00000000000E+00 0. -1.
          2   -1    0    0  501    0 -0.00000000000E+00 -0.00000000000E+00 -0.10589013262E+03  0.10589013262E+03  0.00000000000E+00 0. -1.
    9000006    2    1    2  501    0  0.00000000000E+00  0.00000000000E+00  0.89410986738E+03  0.11058901326E+04  0.65081528139E+03 0.  0.
         13    1    3    3    0    0 -0.19066161663E+03 -0.43834569506E+02  0.51980922663E+01  0.19570473092E+03  0.00000000000E+00 0. -1.
          4    1    3    3  501    0  0.19066161663E+03  0.43834569506E+02  0.88891177511E+03  0.91018540170E+03  0.00000000000E+00 0. -1.
<mgrwt>
<rscale>  0 0.65081528E+03</rscale>
<asrwt>0</asrwt>
<pdfrwt beam="1">0</pdfrwt>
<pdfrwt beam="2">  1        2 0.38505584E+00 0.65081528E+03</pdfrwt>
<totfact> 0.45276144E+00</totfact>
</mgrwt>
</event>
<event>
 5    1  0.2354746E-004  0.5943468E+03  0.7818608E-02  0.9917205E-01
         13   -1    0    0    0    0  0.00000000000E+00  0.00000000000E+00  0.10000000000E+04  0.10000000000E+04  0.00000000000E+00 0. -1.
          2   -1    0    0  501    0 -0.00000000000E+00 -0.00000000000E+00 -0.88312023011E+02  0.88312023011E+02  0.00000000000E+00 0. -1.
    9000006    2    1    2  501    0  0.00000000000E+00  0.00000000000E+00  0.91168797699E+03  0.10883120230E+04  0.59434677760E+03 0.  0.
         13    1    3    3    0    0  0.12599201073E+03  0.26462519111E+03  0.54576499353E+03  0.61948358066E+03  0.00000000000E+00 0. -1.
          4    1    3    3  501    0 -0.12599201073E+03 -0.26462519111E+03  0.36592298345E+03  0.46882844235E+03  0.00000000000E+00 0. -1.
<mgrwt>
<rscale>  0 0.59434678E+03</rscale>
<asrwt>0</asrwt>
<pdfrwt beam="1">0</pdfrwt>
<pdfrwt beam="2">  1        2 0.32113531E+00 0.59434678E+03</pdfrwt>
<totfact> 0.77540163E+00</totfact>
</mgrwt>
</event>
<event>
 5    1  0.2354746E-004  0.6682961E+03  0.7818608E-02  0.9773041E-01
         13   -1    0    0    0    0  0.00000000000E+00  0.00000000000E+00  0.10000000000E+04  0.10000000000E+04  0.00000000000E+00 0. -1.
          2   -1    0    0  501    0 -0.00000000000E+00 -0.00000000000E+00 -0.11165492905E+03  0.11165492905E+03  0.00000000000E+00 0. -1.
    9000006    2    1    2  501    0  0.00000000000E+00  0.00000000000E+00  0.88834507095E+03  0.11116549290E+04  0.66829612911E+03 0.  0.
         13    1    3    3    0    0 -0.23640726190E+03  0.22633781856E+03  0.33212036941E+03  0.46628439966E+03  0.00000000000E+00 0. -1.
          4    1    3    3  501    0  0.23640726190E+03 -0.22633781856E+03  0.55622470154E+03  0.64537052938E+03  0.00000000000E+00 0. -1.
<mgrwt>
<rscale>  0 0.66829613E+03</rscale>
<asrwt>0</asrwt>
<pdfrwt beam="1">0</pdfrwt>
<pdfrwt beam="2">  1        2 0.40601878E+00 0.66829613E+03</pdfrwt>
<totfact> 0.37750506E+00</totfact>
</mgrwt>
</event>
<event>
 5    1  0.2354746E-004  0.6527426E+03  0.7818608E-02  0.9801646E-01
         13   -1    0    0    0    0  0.00000000000E+00  0.00000000000E+00  0.10000000000E+04  0.10000000000E+04  0.00000000000E+00 0. -1.
          2   -1    0    0  501    0 -0.00000000000E+00 -0.00000000000E+00 -0.10651823734E+03  0.10651823734E+03  0.00000000000E+00 0. -1.
    9000006    2    1    2  501    0  0.00000000000E+00  0.00000000000E+00  0.89348176266E+03  0.11065182373E+04  0.65274263640E+03 0.  0.
         13    1    3    3    0    0 -0.23105902202E+03 -0.19949816432E+02  0.57468496920E+02  0.23893282523E+03  0.00000000000E+00 0. -1.
          2    1    3    3  501    0  0.23105902202E+03  0.19949816432E+02  0.83601326574E+03  0.86758541212E+03  0.00000000000E+00 0. -1.
<mgrwt>
<rscale>  0 0.65274264E+03</rscale>
<asrwt>0</asrwt>
<pdfrwt beam="1">0</pdfrwt>
<pdfrwt beam="2">  1        2 0.38733986E+00 0.65274264E+03</pdfrwt>
<totfact> 0.44395118E+00</totfact>
</mgrwt>
</event>
<event>
 5    1  0.2354746E-004  0.6481668E+03  0.7818608E-02  0.9810225E-01
         13   -1    0    0    0    0  0.00000000000E+00  0.00000000000E+00  0.10000000000E+04  0.10000000000E+04  0.00000000000E+00 0. -1.
          2   -1    0    0  501    0 -0.00000000000E+00 -0.00000000000E+00 -0.10503006331E+03  0.10503006331E+03  0.00000000000E+00 0. -1.
    9000006    2    1    2  501    0  0.00000000000E+00  0.00000000000E+00  0.89496993669E+03  0.11050300633E+04  0.64816684059E+03 0.  0.
         13    1    3    3    0    0  0.20701308856E+03  0.37193631664E+02  0.86783539626E+03  0.89295915924E+03  0.00000000000E+00 0. -1.
          4    1    3    3  501    0 -0.20701308856E+03 -0.37193631664E+02  0.27134540433E+02  0.21207090408E+03  0.00000000000E+00 0. -1.
<mgrwt>
<rscale>  0 0.64816684E+03</rscale>
<asrwt>0</asrwt>
<pdfrwt beam="1">0</pdfrwt>
<pdfrwt beam="2">  1        2 0.38192831E+00 0.64816684E+03</pdfrwt>
<totfact> 0.46508266E+00</totfact>
</mgrwt>
</event>
<event>
 5    1  0.2354746E-004  0.6510249E+03  0.7818608E-02  0.9804858E-01
         13   -1    0    0    0    0  0.00000000000E+00  0.00000000000E+00  0.10000000000E+04  0.10000000000E+04  0.00000000000E+00 0. -1.
          2   -1    0    0  501    0 -0.00000000000E+00 -0.00000000000E+00 -0.10595835101E+03  0.10595835101E+03  0.00000000000E+00 0. -1.
    9000006    2    1    2  501    0  0.00000000000E+00  0.00000000000E+00  0.89404164899E+03  0.11059583510E+04  0.65102488742E+03 0.  0.
         13    1    3    3    0    0  0.23280988462E+03 -0.13614543666E+03  0.13738142491E+03  0.30267090744E+03  0.00000000000E+00 0. -1.
          4    1    3    3  501    0 -0.23280988462E+03  0.13614543666E+03  0.75666022408E+03  0.80328744357E+03  0.00000000000E+00 0. -1.
<mgrwt>
<rscale>  0 0.65102489E+03</rscale>
<asrwt>0</asrwt>
<pdfrwt beam="1">0</pdfrwt>
<pdfrwt beam="2">  1        2 0.38530391E+00 0.65102489E+03</pdfrwt>
<totfact> 0.45179695E+00</totfact>
</mgrwt>
</event>
<event>
 5    1  0.2354746E-004  0.6480188E+03  0.7818608E-02  0.9810504E-01
         13   -1    0    0    0    0  0.00000000000E+00  0.00000000000E+00  0.10000000000E+04  0.10000000000E+04  0.00000000000E+00 0. -1.
          2   -1    0    0  501    0 -0.00000000000E+00 -0.00000000000E+00 -0.10498210667E+03  0.10498210667E+03  0.00000000000E+00 0. -1.
    9000006    2    1    2  501    0  0.00000000000E+00  0.00000000000E+00  0.89501789333E+03  0.11049821067E+04  0.64801884746E+03 0.  0.
         13    1    3    3    0    0  0.31850028074E+03 -0.10132783705E+02  0.54747617707E+03  0.63346291651E+03  0.00000000000E+00 0. -1.
          2    1    3    3  501    0 -0.31850028074E+03  0.10132783705E+02  0.34754171626E+03  0.47151919015E+03  0.00000000000E+00 0. -1.
<mgrwt>
<rscale>  0 0.64801885E+03</rscale>
<asrwt>0</asrwt>
<pdfrwt beam="1">0</pdfrwt>
<pdfrwt beam="2">  1        2 0.38175392E+00 0.64801885E+03</pdfrwt>
<totfact> 0.46577856E+00</totfact>
</mgrwt>
</event>
<event>
 5    1  0.2354746E-004  0.6528043E+03  0.7818608E-02  0.9801531E-01
         13   -1    0    0    0    0  0.00000000000E+00  0.00000000000E+00  0.10000000000E+04  0.10000000000E+04  0.00000000000E+00 0. -1.
          2   -1    0    0  501    0 -0.00000000000E+00 -0.00000000000E+00 -0.10653835845E+03  0.10653835845E+03  0.00000000000E+00 0. -1.
    9000006    2    1    2  501    0  0.00000000000E+00  0.00000000000E+00  0.89346164155E+03  0.11065383584E+04  0.65280428444E+03 0.  0.
         13    1    3    3    0    0  0.31988060701E+03  0.12132524561E+02  0.55483695328E+03  0.64055822969E+03  0.00000000000E+00 0. -1.
          4    1    3    3  501    0 -0.31988060701E+03 -0.12132524561E+02  0.33862468827E+03  0.46598012876E+03  0.00000000000E+00 0. -1.
<mgrwt>
<rscale>  0 0.65280428E+03</rscale>
<asrwt>0</asrwt>
<pdfrwt beam="1">0</pdfrwt>
<pdfrwt beam="2">  1        2 0.38741303E+00 0.65280428E+03</pdfrwt>
<totfact> 0.44367153E+00</totfact>
</mgrwt>
</event>
<event>
 5    1  0.2354746E-004  0.6486077E+03  0.7818608E-02  0.9809395E-01
         13   -1    0    0    0    0  0.00000000000E+00  0.00000000000E+00  0.10000000000E+04  0.10000000000E+04  0.00000000000E+00 0. -1.
          2   -1    0    0  501    0 -0.00000000000E+00 -0.00000000000E+00 -0.10517299370E+03  0.10517299370E+03  0.00000000000E+00 0. -1.
    9000006    2    1    2  501    0  0.00000000000E+00  0.00000000000E+00  0.89482700630E+03  0.11051729937E+04  0.64860772027E+03 0.  0.
         13    1    3    3    0    0  0.79305929920E+02  0.24340262577E+03  0.78665423247E+03  0.82726002575E+03  0.00000000000E+00 0. -1.
          4    1    3    3  501    0 -0.79305929920E+02 -0.24340262577E+03  0.10817277383E+03  0.27791296794E+03  0.00000000000E+00 0. -1.
<mgrwt>
<rscale>  0 0.64860772E+03</rscale>
<asrwt>0</asrwt>
<pdfrwt beam="1">0</pdfrwt>
<pdfrwt beam="2">  1        2 0.38244806E+00 0.64860772E+03</pdfrwt>
<totfact> 0.46301420E+00</totfact>
</mgrwt>
</event>
<event>
 5    1  0.2354746E-004  0.6495947E+03  0.7818608E-02  0.9807540E-01
         13   -1    0    0    0    0  0.00000000000E+00  0.00000000000E+00  0.10000000000E+04  0.10000000000E+04  0.00000000000E+00 0. -1.
          2   -1    0    0  501    0 -0.00000000000E+00 -0.00000000000E+00 -0.10549332813E+03  0.10549332813E+03  0.00000000000E+00 0. -1.
    9000006    2    1    2  501    0  0.00000000000E+00  0.00000000000E+00  0.89450667187E+03  0.11054933281E+04  0.64959472945E+03 0.  0.
         13    1    3    3    0    0 -0.20712610928E+03 -0.25018150530E+03  0.44920664606E+03  0.55432717920E+03  0.00000000000E+00 0. -1.
          4    1    3    3  501    0  0.20712610928E+03  0.25018150530E+03  0.44530002581E+03  0.55116614893E+03  0.00000000000E+00 0. -1.
<mgrwt>
<rscale>  0 0.64959473E+03</rscale>
<asrwt>0</asrwt>
<pdfrwt beam="1">0</pdfrwt>
<pdfrwt beam="2">  1        2 0.38361291E+00 0.64959473E+03</pdfrwt>
<totfact> 0.45840870E+00</totfact>
</mgrwt>
</event>
<event>
 5    1  0.2354746E-004  0.6630275E+03  0.7818608E-02  0.9782636E-01
         13   -1    0    0    0    0  0.00000000000E+00  0.00000000000E+00  0.10000000000E+04  0.10000000000E+04  0.00000000000E+00 0. -1.
          2   -1    0    0  501    0 -0.00000000000E+00 -0.00000000000E+00 -0.10990136373E+03  0.10990136373E+03  0.00000000000E+00 0. -1.
    9000006    2    1    2  501    0  0.00000000000E+00  0.00000000000E+00  0.89009863627E+03  0.11099013637E+04  0.66302749182E+03 0.  0.
         13    1    3    3    0    0 -0.32471078464E+03  0.82519853139E+01  0.33405766372E+03  0.46593960082E+03  0.00000000000E+00 0. -1.
          4    1    3    3  501    0  0.32471078464E+03 -0.82519853139E+01  0.55604097255E+03  0.64396176290E+03  0.00000000000E+00 0. -1.
<mgrwt>
<rscale>  0 0.66302749E+03</rscale>
<asrwt>0</asrwt>
<pdfrwt beam="1">0</pdfrwt>
<pdfrwt beam="2">  1        2 0.39964217E+00 0.66302749E+03</pdfrwt>
<totfact> 0.39910662E+00</totfact>
</mgrwt>
</event>
<event>
 5    1  0.2354746E-004  0.6960845E+03  0.7818608E-02  0.9723952E-01
         13   -1    0    0    0    0  0.00000000000E+00  0.00000000000E+00  0.10000000000E+04  0.10000000000E+04  0.00000000000E+00 0. -1.
          2   -1    0    0  501    0 -0.00000000000E+00 -0.00000000000E+00 -0.12113342509E+03  0.12113342509E+03  0.00000000000E+00 0. -1.
    9000006    2    1    2  501    0  0.00000000000E+00  0.00000000000E+00  0.87886657491E+03  0.11211334251E+04  0.69608454971E+03 0.  0.
         13    1    3    3    0    0  0.88872703565E+02 -0.30640093937E+03  0.21536756473E+03  0.38491957735E+03  0.00000000000E+00 0. -1.
          4    1    3    3  501    0 -0.88872703565E+02  0.30640093937E+03  0.66349901019E+03  0.73621384774E+03  0.00000000000E+00 0. -1.
<mgrwt>
<rscale>  0 0.69608455E+03</rscale>
<asrwt>0</asrwt>
<pdfrwt beam="1">0</pdfrwt>
<pdfrwt beam="2">  1        2 0.44048611E+00 0.69608455E+03</pdfrwt>
<totfact> 0.27776506E+00</totfact>
</mgrwt>
</event>
<event>
 5    1  0.2354746E-004  0.6508087E+03  0.7818608E-02  0.9805263E-01
         13   -1    0    0    0    0  0.00000000000E+00  0.00000000000E+00  0.10000000000E+04  0.10000000000E+04  0.00000000000E+00 0. -1.
          2   -1    0    0  501    0 -0.00000000000E+00 -0.00000000000E+00 -0.10588799014E+03  0.10588799014E+03  0.00000000000E+00 0. -1.
    9000006    2    1    2  501    0  0.00000000000E+00  0.00000000000E+00  0.89411200986E+03  0.11058879901E+04  0.65080869736E+03 0.  0.
         13    1    3    3    0    0 -0.27172327795E+03  0.17316582094E+03  0.52433085775E+03  0.61542082327E+03  0.00000000000E+00 0. -1.
          4    1    3    3  501    0  0.27172327795E+03 -0.17316582094E+03  0.36978115211E+03  0.49046716687E+03  0.00000000000E+00 0. -1.
<mgrwt>
<rscale>  0 0.65080870E+03</rscale>
<asrwt>0</asrwt>
<pdfrwt beam="1">0</pdfrwt>
<pdfrwt beam="2">  1        2 0.38504805E+00 0.65080870E+03</pdfrwt>
<totfact> 0.45279176E+00</totfact>
</mgrwt>
</event>
<event>
 5    1  0.2354746E-004  0.6536815E+03  0.7818608E-02  0.9799895E-01
         13   -1    0    0    0    0  0.00000000000E+00  0.00000000000E+00  0.10000000000E+04  0.10000000000E+04  0.00000000000E+00 0. -1.
          2   -1    0    0  501    0 -0.00000000000E+00 -0.00000000000E+00 -0.10682488782E+03  0.10682488782E+03  0.00000000000E+00 0. -1.
    9000006    2    1    2  501    0  0.00000000000E+00  0.00000000000E+00  0.89317511218E+03  0.11068248878E+04  0.65368153659E+03 0.  0.
         13    1    3    3    0    0  0.69570471723E+02 -0.30771616211E+02 -0.91626393521E+02  0.11908962545E+03  0.00000000000E+00 0. -1.
          4    1    3    3  501    0 -0.69570471723E+02  0.30771616211E+02  0.98480150570E+03  0.98773526237E+03  0.00000000000E+00 0. -1.
<mgrwt>
<rscale>  0 0.65368154E+03</rscale>
<asrwt>0</asrwt>
<pdfrwt beam="1">0</pdfrwt>
<pdfrwt beam="2">  1        2 0.38845496E+00 0.65368154E+03</pdfrwt>
<totfact> 0.43970653E+00</totfact>
</mgrwt>
</event>
<event>
 5    1  0.2354746E-004  0.6508369E+03  0.7818608E-02  0.9805210E-01
         13   -1    0    0    0    0  0.00000000000E+00  0.00000000000E+00  0.10000000000E+04  0.10000000000E+04  0.00000000000E+00 0. -1.
          2   -1    0    0  501    0 -0.00000000000E+00 -0.00000000000E+00 -0.10589715789E+03  0.10589715789E+03  0.00000000000E+00 0. -1.
    9000006    2    1    2  501    0  0.00000000000E+00  0.00000000000E+00  0.89410284211E+03  0.11058971579E+04  0.65083687017E+03 0.  0.
         13    1    3    3    0    0  0.26340865665E+03 -0.17033671475E+03  0.29991232408E+03  0.43398861612E+03  0.00000000000E+00 0. -1.
          4    1    3    3  501    0 -0.26340865665E+03  0.17033671475E+03  0.59419051803E+03  0.67190854177E+03  0.00000000000E+00 0. -1.
<mgrwt>
<rscale>  0 0.65083687E+03</rscale>
<asrwt>0</asrwt>
<pdfrwt beam="1">0</pdfrwt>
<pdfrwt beam="2">  1        2 0.38508139E+00 0.65083687E+03</pdfrwt>
<totfact> 0.45266203E+00</totfact>
</mgrwt>
</event>
<event>
 5    1  0.2354746E-004  0.7091651E+03  0.7818608E-02  0.9701686E-01
         13   -1    0    0    0    0  0.00000000000E+00  0.00000000000E+00  0.10000000000E+04  0.10000000000E+04  0.00000000000E+00 0. -1.
          2   -1    0    0  501    0 -0.00000000000E+00 -0.00000000000E+00 -0.12572879181E+03  0.12572879181E+03  0.00000000000E+00 0. -1.
    9000006    2    1    2  501    0  0.00000000000E+00  0.00000000000E+00  0.87427120819E+03  0.11257287918E+04  0.70916511987E+03 0.  0.
         13    1    3    3    0    0  0.12531825499E+03  0.27934235672E+03  0.15320844983E+03  0.34235894379E+03  0.00000000000E+00 0. -1.
          2    1    3    3  501    0 -0.12531825499E+03 -0.27934235672E+03  0.72106275836E+03  0.78336984802E+03  0.00000000000E+00 0. -1.
<mgrwt>
<rscale>  0 0.70916512E+03</rscale>
<asrwt>0</asrwt>
<pdfrwt beam="1">0</pdfrwt>
<pdfrwt beam="2">  1        2 0.45719657E+00 0.70916512E+03</pdfrwt>
<totfact> 0.23838459E+00</totfact>
</mgrwt>
</event>
<event>
 5    1  0.2354746E-004  0.6513886E+03  0.7818608E-02  0.9804177E-01
         13   -1    0    0    0    0  0.00000000000E+00  0.00000000000E+00  0.10000000000E+04  0.10000000000E+04  0.00000000000E+00 0. -1.
          2   -1    0    0  501    0 -0.00000000000E+00 -0.00000000000E+00 -0.10607676582E+03  0.10607676582E+03  0.00000000000E+00 0. -1.
    9000006    2    1    2  501    0  0.00000000000E+00  0.00000000000E+00  0.89392323418E+03  0.11060767658E+04  0.65138856552E+03 0.  0.
         13    1    3    3    0    0 -0.30940536175E+03 -0.36889235483E+02  0.28601324405E+03  0.42296107308E+03  0.00000000000E+00 0. -1.
          4    1    3    3  501    0  0.30940536175E+03  0.36889235483E+02  0.60790999013E+03  0.68311569274E+03  0.00000000000E+00 0. -1.
<mgrwt>
<rscale>  0 0.65138857E+03</rscale>
<asrwt>0</asrwt>
<pdfrwt beam="1">0</pdfrwt>
<pdfrwt beam="2">  1        2 0.38573451E+00 0.65138857E+03</pdfrwt>
<totfact> 0.45012719E+00</totfact>
</mgrwt>
</event>
<event>
 5    1  0.2354746E-004  0.6507362E+03  0.7818608E-02  0.9805399E-01
         13   -1    0    0    0    0  0.00000000000E+00  0.00000000000E+00  0.10000000000E+04  0.10000000000E+04  0.00000000000E+00 0. -1.
          2   -1    0    0  501    0 -0.00000000000E+00 -0.00000000000E+00 -0.10586440299E+03  0.10586440299E+03  0.00000000000E+00 0. -1.
    9000006    2    1    2  501    0  0.00000000000E+00  0.00000000000E+00  0.89413559701E+03  0.11058644030E+04  0.65073620766E+03 0.  0.
         13    1    3    3    0    0 -0.25902721834E+03  0.17990994885E+03  0.31109719599E+03  0.44299453145E+03  0.00000000000E+00 0. -1.
          2    1    3    3  501    0  0.25902721834E+03 -0.17990994885E+03  0.58303840102E+03  0.66286987154E+03  0.00000000000E+00 0. -1.
<mgrwt>
<rscale>  0 0.65073621E+03</rscale>
<asrwt>0</asrwt>
<pdfrwt beam="1">0</pdfrwt>
<pdfrwt beam="2">  1        2 0.38496228E+00 0.65073621E+03</pdfrwt>
<totfact> 0.45312570E+00</totfact>
</mgrwt>
</event>
<event>
 5    1  0.2354746E-004  0.6584790E+03  0.7818608E-02  0.9790998E-01
         13   -1    0    0    0    0  0.00000000000E+00  0.00000000000E+00  0.10000000000E+04  0.10000000000E+04  0.00000000000E+00 0. -1.
          2   -1    0    0  501    0 -0.00000000000E+00 -0.00000000000E+00 -0.10839865350E+03  0.10839865350E+03  0.00000000000E+00 0. -1.
    9000006    2    1    2  501    0  0.00000000000E+00  0.00000000000E+00  0.89160134650E+03  0.11083986535E+04  0.65847901561E+03 0.  0.
         13    1    3    3    0    0  0.18886434451E+03  0.25335639053E+03  0.60135033009E+03  0.67932423830E+03  0.00000000000E+00 0. -1.
          4    1    3    3  501    0 -0.18886434451E+03 -0.25335639053E+03  0.29025101641E+03  0.42907441520E+03  0.00000000000E+00 0. -1.
<mgrwt>
<rscale>  0 0.65847902E+03</rscale>
<asrwt>0</asrwt>
<pdfrwt beam="1">0</pdfrwt>
<pdfrwt beam="2">  1        2 0.39417775E+00 0.65847902E+03</pdfrwt>
<totfact> 0.41849413E+00</totfact>
</mgrwt>
</event>
<event>
 5    1  0.2354746E-004  0.6569226E+03  0.7818608E-02  0.9793875E-01
         13   -1    0    0    0    0  0.00000000000E+00  0.00000000000E+00  0.10000000000E+04  0.10000000000E+04  0.00000000000E+00 0. -1.
          2   -1    0    0  501    0 -0.00000000000E+00 -0.00000000000E+00 -0.10788681744E+03  0.10788681744E+03  0.00000000000E+00 0. -1.
    9000006    2    1    2  501    0  0.00000000000E+00  0.00000000000E+00  0.89211318256E+03  0.11078868174E+04  0.65692257516E+03 0.  0.
         13    1    3    3    0    0 -0.28752556113E+03 -0.14653599875E+03  0.34287666943E+03  0.47085895731E+03  0.00000000000E+00 0. -1.
          4    1    3    3  501    0  0.28752556113E+03  0.14653599875E+03  0.54923651313E+03  0.63702786013E+03  0.00000000000E+00 0. -1.
<mgrwt>
<rscale>  0 0.65692258E+03</rscale>
<asrwt>0</asrwt>
<pdfrwt beam="1">0</pdfrwt>
<pdfrwt beam="2">  1        2 0.39231653E+00 0.65692258E+03</pdfrwt>
<totfact> 0.42528932E+00</totfact>
</mgrwt>
</event>
<event>
 5    1  0.2354746E-004  0.6553639E+03  0.7818608E-02  0.9796766E-01
         13   -1    0    0    0    0  0.00000000000E+00  0.00000000000E+00  0.10000000000E+04  0.10000000000E+04  0.00000000000E+00 0. -1.
          2   -1    0    0  501    0 -0.00000000000E+00 -0.00000000000E+00 -0.10737546870E+03  0.10737546870E+03  0.00000000000E+00 0. -1.
    9000006    2    1    2  501    0  0.00000000000E+00  0.00000000000E+00  0.89262453130E+03  0.11073754687E+04  0.65536392547E+03 0.  0.
         13    1    3    3    0    0 -0.47942691088E+02 -0.30365119208E+03  0.25459955303E+03  0.39915345481E+03  0.00000000000E+00 0. -1.
          2    1    3    3  501    0  0.47942691088E+02  0.30365119208E+03  0.63802497826E+03  0.70822201390E+03  0.00000000000E+00 0. -1.
<mgrwt>
<rscale>  0 0.65536393E+03</rscale>
<asrwt>0</asrwt>
<pdfrwt beam="1">0</pdfrwt>
<pdfrwt beam="2">  1        2 0.39045707E+00 0.65536393E+03</pdfrwt>
<totfact> 0.43217740E+00</totfact>
</mgrwt>
</event>
<event>
 5    1  0.2354746E-004  0.6730839E+03  0.7818608E-02  0.9764403E-01
         13   -1    0    0    0    0  0.00000000000E+00  0.00000000000E+00  0.10000000000E+04  0.10000000000E+04  0.00000000000E+00 0. -1.
          2   -1    0    0  501    0 -0.00000000000E+00 -0.00000000000E+00 -0.11326047132E+03  0.11326047132E+03  0.00000000000E+00 0. -1.
    9000006    2    1    2  501    0  0.00000000000E+00  0.00000000000E+00  0.88673952868E+03  0.11132604713E+04  0.67308386198E+03 0.  0.
         13    1    3    3    0    0 -0.29111392710E+03 -0.12357381029E+03  0.63370330498E+03  0.70823561325E+03  0.00000000000E+00 0. -1.
          4    1    3    3  501    0  0.29111392710E+03  0.12357381029E+03  0.25303622371E+03  0.40502485806E+03  0.00000000000E+00 0. -1.
<mgrwt>
<rscale>  0 0.67308386E+03</rscale>
<asrwt>0</asrwt>
<pdfrwt beam="1">0</pdfrwt>
<pdfrwt beam="2">  1        2 0.41185713E+00 0.67308386E+03</pdfrwt>
<totfact> 0.35865062E+00</totfact>
</mgrwt>
</event>
<event>
 5    1  0.2354746E-004  0.6571520E+03  0.7818608E-02  0.9793451E-01
         13   -1    0    0    0    0  0.00000000000E+00  0.00000000000E+00  0.10000000000E+04  0.10000000000E+04  0.00000000000E+00 0. -1.
          2   -1    0    0  501    0 -0.00000000000E+00 -0.00000000000E+00 -0.10796217839E+03  0.10796217839E+03  0.00000000000E+00 0. -1.
    9000006    2    1    2  501    0  0.00000000000E+00  0.00000000000E+00  0.89203782161E+03  0.11079621784E+04  0.65715197142E+03 0.  0.
         13    1    3    3    0    0  0.30670109565E+03  0.89950923281E+02  0.57448159120E+03  0.65740841894E+03  0.00000000000E+00 0. -1.
          2    1    3    3  501    0 -0.30670109565E+03 -0.89950923281E+02  0.31755623042E+03  0.45055375944E+03  0.00000000000E+00 0. -1.
<mgrwt>
<rscale>  0 0.65715197E+03</rscale>
<asrwt>0</asrwt>
<pdfrwt beam="1">0</pdfrwt>
<pdfrwt beam="2">  1        2 0.39259057E+00 0.65715197E+03</pdfrwt>
<totfact> 0.42428260E+00</totfact>
</mgrwt>
</event>
<event>
 5    1  0.2354746E-004  0.6584718E+03  0.7818608E-02  0.9791011E-01
         13   -1    0    0    0    0  0.00000000000E+00  0.00000000000E+00  0.10000000000E+04  0.10000000000E+04  0.00000000000E+00 0. -1.
          2   -1    0    0  501    0 -0.00000000000E+00 -0.00000000000E+00 -0.10839626792E+03  0.10839626792E+03  0.00000000000E+00 0. -1.
    9000006    2    1    2  501    0  0.00000000000E+00  0.00000000000E+00  0.89160373208E+03  0.11083962679E+04  0.65847176984E+03 0.  0.
         13    1    3    3    0    0  0.25309293549E+03  0.11805938200E+03  0.15230023696E+03  0.31810283534E+03  0.00000000000E+00 0. -1.
          4    1    3    3  501    0 -0.25309293549E+03 -0.11805938200E+03  0.73930349512E+03  0.79029343258E+03  0.00000000000E+00 0. -1.
<mgrwt>
<rscale>  0 0.65847177E+03</rscale>
<asrwt>0</asrwt>
<pdfrwt beam="1">0</pdfrwt>
<pdfrwt beam="2">  1        2 0.39416908E+00 0.65847177E+03</pdfrwt>
<totfact> 0.41852557E+00</totfact>
</mgrwt>
</event>
<event>
 5    1  0.2354746E-004  0.6586750E+03  0.7818608E-02  0.9790636E-01
         13   -1    0    0    0    0  0.00000000000E+00  0.00000000000E+00  0.10000000000E+04  0.10000000000E+04  0.00000000000E+00 0. -1.
          2   -1    0    0  501    0 -0.00000000000E+00 -0.00000000000E+00 -0.10846318990E+03  0.10846318990E+03  0.00000000000E+00 0. -1.
    9000006    2    1    2  501    0  0.00000000000E+00  0.00000000000E+00  0.89153681010E+03  0.11084631899E+04  0.65867500302E+03 0.  0.
         13    1    3    3    0    0 -0.31803504333E+03 -0.77671900110E+01  0.58912439494E+03  0.66953280035E+03  0.00000000000E+00 0. -1.
          2    1    3    3  501    0  0.31803504333E+03  0.77671900110E+01  0.30241241516E+03  0.43893038955E+03  0.00000000000E+00 0. -1.
<mgrwt>
<rscale>  0 0.65867500E+03</rscale>
<asrwt>0</asrwt>
<pdfrwt beam="1">0</pdfrwt>
<pdfrwt beam="2">  1        2 0.39441243E+00 0.65867500E+03</pdfrwt>
<totfact> 0.41764439E+00</totfact>
</mgrwt>
</event>
<event>
 5    1  0.2354746E-004  0.6456443E+03  0.7818608E-02  0.9814987E-01
         13   -1    0    0    0    0  0.00000000000E+00  0.00000000000E+00  0.10000000000E+04  0.10000000000E+04  0.00000000000E+00 0. -1.
          2   -1    0    0  501    0 -0.00000000000E+00 -0.00000000000E+00 -0.10421415638E+03  0.10421415638E+03  0.00000000000E+00 0. -1.
    9000006    2    1    2  501    0  0.00000000000E+00  0.00000000000E+00  0.89578584362E+03  0.11042141564E+04  0.64564434911E+03 0.  0.
         13    1    3    3    0    0  0.11294103140E+03 -0.26225162300E+03  0.19031653404E+03  0.34315007427E+03  0.00000000000E+00 0. -1.
          2    1    3    3  501    0 -0.11294103140E+03  0.26225162300E+03  0.70546930957E+03  0.76106408212E+03  0.00000000000E+00 0. -1.
<mgrwt>
<rscale>  0 0.64564435E+03</rscale>
<asrwt>0</asrwt>
<pdfrwt beam="1">0</pdfrwt>
<pdfrwt beam="2">  1        2 0.37896137E+00 0.64564435E+03</pdfrwt>
<totfact> 0.47705204E+00</totfact>
</mgrwt>
</event>
<event>
 5    1  0.2354746E-004  0.6990360E+03  0.7818608E-02  0.9718882E-01
         13   -1    0    0    0    0  0.00000000000E+00  0.00000000000E+00  0.10000000000E+04  0.10000000000E+04  0.00000000000E+00 0. -1.
          2   -1    0    0  501    0 -0.00000000000E+00 -0.00000000000E+00 -0.12216283539E+03  0.12216283539E+03  0.00000000000E+00 0. -1.
    9000006    2    1    2  501    0  0.00000000000E+00  0.00000000000E+00  0.87783716461E+03  0.11221628354E+04  0.69903600877E+03 0.  0.
         13    1    3    3    0    0  0.55235618189E+02  0.16153970706E+03  0.92851360689E+03  0.94407815813E+03  0.00000000000E+00 0. -1.
          2    1    3    3  501    0 -0.55235618189E+02 -0.16153970706E+03 -0.50676442279E+02  0.17808467726E+03  0.00000000000E+00 0. -1.
<mgrwt>
<rscale>  0 0.69903601E+03</rscale>
<asrwt>0</asrwt>
<pdfrwt beam="1">0</pdfrwt>
<pdfrwt beam="2">  1        2 0.44422943E+00 0.69903601E+03</pdfrwt>
<totfact> 0.26848090E+00</totfact>
</mgrwt>
</event>
<event>
 5    1  0.2354746E-004  0.6498816E+03  0.7818608E-02  0.9807001E-01
         13   -1    0    0    0    0  0.00000000000E+00  0.00000000000E+00  0.10000000000E+04  0.10000000000E+04  0.00000000000E+00 0. -1.
          2   -1    0    0  501    0 -0.00000000000E+00 -0.00000000000E+00 -0.10558653759E+03  0.10558653759E+03  0.00000000000E+00 0. -1.
    9000006    2    1    2  501    0  0.00000000000E+00  0.00000000000E+00  0.89441346241E+03  0.11055865376E+04  0.64988164333E+03 0.  0.
         13    1    3    3    0    0  0.11695559798E+03 -0.11888531197E+03  0.92164124062E+03  0.93660819221E+03  0.00000000000E+00 0. -1.
          4    1    3    3  501    0 -0.11695559798E+03  0.11888531197E+03 -0.27227778203E+02  0.16897834538E+03  0.00000000000E+00 0. -1.
<mgrwt>
<rscale>  0 0.64988164E+03</rscale>
<asrwt>0</asrwt>
<pdfrwt beam="1">0</pdfrwt>
<pdfrwt beam="2">  1        2 0.38395186E+00 0.64988164E+03</pdfrwt>
<totfact> 0.45707645E+00</totfact>
</mgrwt>
</event>
<event>
 5    1  0.2354746E-004  0.6513934E+03  0.7818608E-02  0.9804168E-01
         13   -1    0    0    0    0  0.00000000000E+00  0.00000000000E+00  0.10000000000E+04  0.10000000000E+04  0.00000000000E+00 0. -1.
          2   -1    0    0  501    0 -0.00000000000E+00 -0.00000000000E+00 -0.10607832945E+03  0.10607832945E+03  0.00000000000E+00 0. -1.
    9000006    2    1    2  501    0  0.00000000000E+00  0.00000000000E+00  0.89392167055E+03  0.11060783294E+04  0.65139336640E+03 0.  0.
         13    1    3    3    0    0 -0.10735174958E+03  0.24305702310E+03  0.12713222497E+03  0.29455681496E+03  0.00000000000E+00 0. -1.
          4    1    3    3  501    0  0.10735174958E+03 -0.24305702310E+03  0.76678944558E+03  0.81152151448E+03  0.00000000000E+00 0. -1.
<mgrwt>
<rscale>  0 0.65139337E+03</rscale>
<asrwt>0</asrwt>
<pdfrwt beam="1">0</pdfrwt>
<pdfrwt beam="2">  1        2 0.38574019E+00 0.65139337E+03</pdfrwt>
<totfact> 0.45010518E+00</totfact>
</mgrwt>
</event>
<event>
 5    1  0.2354746E-004  0.6498237E+03  0.7818608E-02  0.9807110E-01
         13   -1    0    0    0    0  0.00000000000E+00  0.00000000000E+00  0.10000000000E+04  0.10000000000E+04  0.00000000000E+00 0. -1.
          2   -1    0    0  501    0 -0.00000000000E+00 -0.00000000000E+00 -0.10556770330E+03  0.10556770330E+03  0.00000000000E+00 0. -1.
    9000006    2    1    2  501    0  0.00000000000E+00  0.00000000000E+00  0.89443229670E+03  0.11055677033E+04  0.64982367854E+03 0.  0.
         13    1    3    3    0    0  0.51933683335E+02  0.51102455083E+02  0.98592211711E+03  0.98861063588E+03  0.00000000000E+00 0. -1.
          4    1    3    3  501    0 -0.51933683335E+02 -0.51102455083E+02 -0.91489820404E+02  0.11695706741E+03  0.00000000000E+00 0. -1.
<mgrwt>
<rscale>  0 0.64982368E+03</rscale>
<asrwt>0</asrwt>
<pdfrwt beam="1">0</pdfrwt>
<pdfrwt beam="2">  1        2 0.38388337E+00 0.64982368E+03</pdfrwt>
<totfact> 0.45734537E+00</totfact>
</mgrwt>
</event>
<event>
 5    1  0.2354746E-004  0.6509410E+03  0.7818608E-02  0.9805015E-01
         13   -1    0    0    0    0  0.00000000000E+00  0.00000000000E+00  0.10000000000E+04  0.10000000000E+04  0.00000000000E+00 0. -1.
          2   -1    0    0  501    0 -0.00000000000E+00 -0.00000000000E+00 -0.10593103231E+03  0.10593103231E+03  0.00000000000E+00 0. -1.
    9000006    2    1    2  501    0  0.00000000000E+00  0.00000000000E+00  0.89406896769E+03  0.11059310323E+04  0.65094095679E+03 0.  0.
         13    1    3    3    0    0 -0.21035459273E+03  0.82857018671E+02  0.49254561380E+02  0.23138788223E+03  0.00000000000E+00 0. -1.
          4    1    3    3  501    0  0.21035459273E+03 -0.82857018671E+02  0.84481440631E+03  0.87454315007E+03  0.00000000000E+00 0. -1.
<mgrwt>
<rscale>  0 0.65094096E+03</rscale>
<asrwt>0</asrwt>
<pdfrwt beam="1">0</pdfrwt>
<pdfrwt beam="2">  1        2 0.38520457E+00 0.65094096E+03</pdfrwt>
<totfact> 0.45218297E+00</totfact>
</mgrwt>
</event>
<event>
 5    1  0.2354746E-004  0.6597731E+03  0.7818608E-02  0.9788612E-01
         13   -1    0    0    0    0  0.00000000000E+00  0.00000000000E+00  0.10000000000E+04  0.10000000000E+04  0.00000000000E+00 0. -1.
          2   -1    0    0  501    0 -0.00000000000E+00 -0.00000000000E+00 -0.10882513171E+03  0.10882513171E+03  0.00000000000E+00 0. -1.
    9000006    2    1    2  501    0  0.00000000000E+00  0.00000000000E+00  0.89117486829E+03  0.11088251317E+04  0.65977308738E+03 0.  0.
         13    1    3    3    0    0  0.20914301986E+03 -0.18913145903E+03  0.15784547757E+03  0.32315121280E+03  0.00000000000E+00 0. -1.
          4    1    3    3  501    0 -0.20914301986E+03  0.18913145903E+03  0.73332939072E+03  0.78567391890E+03  0.00000000000E+00 0. -1.
<mgrwt>
<rscale>  0 0.65977309E+03</rscale>
<asrwt>0</asrwt>
<pdfrwt beam="1">0</pdfrwt>
<pdfrwt beam="2">  1        2 0.39572859E+00 0.65977309E+03</pdfrwt>
<totfact> 0.41290749E+00</totfact>
</mgrwt>
</event>
<event>
 5    1  0.2354746E-004  0.6543272E+03  0.7818608E-02  0.9798693E-01
         13   -1    0    0    0    0  0.00000000000E+00  0.00000000000E+00  0.10000000000E+04  0.10000000000E+04  0.00000000000E+00 0. -1.
          2   -1    0    0  501    0 -0.00000000000E+00 -0.00000000000E+00 -0.10703602705E+03  0.10703602705E+03  0.00000000000E+00 0. -1.
    9000006    2    1    2  501    0  0.00000000000E+00  0.00000000000E+00  0.89296397295E+03  0.11070360271E+04  0.65432721800E+03 0.  0.
         13    1    3    3    0    0 -0.99129249150E+02  0.27168235728E+03  0.70527777897E+03  0.76226941222E+03  0.00000000000E+00 0. -1.
          2    1    3    3  501    0  0.99129249150E+02 -0.27168235728E+03  0.18768619398E+03  0.34476661483E+03  0.00000000000E+00 0. -1.
<mgrwt>
<rscale>  0 0.65432722E+03</rscale>
<asrwt>0</asrwt>
<pdfrwt beam="1">0</pdfrwt>
<pdfrwt beam="2">  1        2 0.38922274E+00 0.65432722E+03</pdfrwt>
<totfact> 0.43680532E+00</totfact>
</mgrwt>
</event>
<event>
 5    1  0.2354746E-004  0.6419705E+03  0.7818608E-02  0.9821964E-01
         13   -1    0    0    0    0  0.00000000000E+00  0.00000000000E+00  0.10000000000E+04  0.10000000000E+04  0.00000000000E+00 0. -1.
          2   -1    0    0  501    0 -0.00000000000E+00 -0.00000000000E+00 -0.10303152270E+03  0.10303152270E+03  0.00000000000E+00 0. -1.
    9000006    2    1    2  501    0  0.00000000000E+00  0.00000000000E+00  0.89696847730E+03  0.11030315227E+04  0.64197047502E+03 0.  0.
         13    1    3    3    0    0  0.27288713863E+03 -0.16681173385E+03  0.40180814593E+03  0.51355947184E+03  0.00000000000E+00 0. -1.
          2    1    3    3  501    0 -0.27288713863E+03  0.16681173385E+03  0.49516033137E+03  0.58947205086E+03  0.00000000000E+00 0. -1.
<mgrwt>
<rscale>  0 0.64197048E+03</rscale>
<asrwt>0</asrwt>
<pdfrwt beam="1">0</pdfrwt>
<pdfrwt beam="2">  1        2 0.37466087E+00 0.64197048E+03</pdfrwt>
<totfact> 0.49490028E+00</totfact>
</mgrwt>
</event>
<event>
 5    1  0.2354746E-004  0.6450900E+03  0.7818608E-02  0.9816036E-01
         13   -1    0    0    0    0  0.00000000000E+00  0.00000000000E+00  0.10000000000E+04  0.10000000000E+04  0.00000000000E+00 0. -1.
          2   -1    0    0  501    0 -0.00000000000E+00 -0.00000000000E+00 -0.10403529252E+03  0.10403529252E+03  0.00000000000E+00 0. -1.
    9000006    2    1    2  501    0  0.00000000000E+00  0.00000000000E+00  0.89596470748E+03  0.11040352925E+04  0.64509004804E+03 0.  0.
         13    1    3    3    0    0  0.96929005577E+02 -0.24230521545E+03  0.77238217342E+03  0.81527987304E+03  0.00000000000E+00 0. -1.
          2    1    3    3  501    0 -0.96929005577E+02  0.24230521545E+03  0.12358253406E+03  0.28875541948E+03  0.00000000000E+00 0. -1.
<mgrwt>
<rscale>  0 0.64509005E+03</rscale>
<asrwt>0</asrwt>
<pdfrwt beam="1">0</pdfrwt>
<pdfrwt beam="2">  1        2 0.37831095E+00 0.64509005E+03</pdfrwt>
<totfact> 0.47971316E+00</totfact>
</mgrwt>
</event>
<event>
 5    1  0.2354746E-004  0.6156953E+03  0.7818608E-02  0.9873368E-01
         13   -1    0    0    0    0  0.00000000000E+00  0.00000000000E+00  0.10000000000E+04  0.10000000000E+04  0.00000000000E+00 0. -1.
          2   -1    0    0  501    0 -0.00000000000E+00 -0.00000000000E+00 -0.94770178741E+02  0.94770178741E+02  0.00000000000E+00 0. -1.
    9000006    2    1    2  501    0  0.00000000000E+00  0.00000000000E+00  0.90522982126E+03  0.10947701787E+04  0.61569531017E+03 0.  0.
         13    1    3    3    0    0 -0.29194134198E+03 -0.12410468398E+02  0.62488382485E+03  0.68982864643E+03  0.00000000000E+00 0. -1.
          2    1    3    3  501    0  0.29194134198E+03  0.12410468398E+02  0.28034599641E+03  0.40494153231E+03  0.00000000000E+00 0. -1.
<mgrwt>
<rscale>  0 0.61569531E+03</rscale>
<asrwt>0</asrwt>
<pdfrwt beam="1">0</pdfrwt>
<pdfrwt beam="2">  1        2 0.34461956E+00 0.61569531E+03</pdfrwt>
<totfact> 0.63777358E+00</totfact>
</mgrwt>
</event>
<event>
 5    1  0.2354746E-004  0.6534152E+03  0.7818608E-02  0.9800392E-01
         13   -1    0    0    0    0  0.00000000000E+00  0.00000000000E+00  0.10000000000E+04  0.10000000000E+04  0.00000000000E+00 0. -1.
          2   -1    0    0  501    0 -0.00000000000E+00 -0.00000000000E+00 -0.10673785212E+03  0.10673785212E+03  0.00000000000E+00 0. -1.
    9000006    2    1    2  501    0  0.00000000000E+00  0.00000000000E+00  0.89326214788E+03  0.11067378521E+04  0.65341518845E+03 0.  0.
         13    1    3    3    0    0  0.31795442810E+03  0.64859902328E+02  0.38244559040E+03  0.50156400877E+03  0.00000000000E+00 0. -1.
          2    1    3    3  501    0 -0.31795442810E+03 -0.64859902328E+02  0.51081655748E+03  0.60517384335E+03  0.00000000000E+00 0. -1.
<mgrwt>
<rscale>  0 0.65341519E+03</rscale>
<asrwt>0</asrwt>
<pdfrwt beam="1">0</pdfrwt>
<pdfrwt beam="2">  1        2 0.38813846E+00 0.65341519E+03</pdfrwt>
<totfact> 0.44090752E+00</totfact>
</mgrwt>
</event>
<event>
 5    1  0.2354746E-004  0.6352692E+03  0.7818608E-02  0.9834820E-01
         13   -1    0    0    0    0  0.00000000000E+00  0.00000000000E+00  0.10000000000E+04  0.10000000000E+04  0.00000000000E+00 0. -1.
          2   -1    0    0  501    0 -0.00000000000E+00 -0.00000000000E+00 -0.10089174773E+03  0.10089174773E+03  0.00000000000E+00 0. -1.
    9000006    2    1    2  501    0  0.00000000000E+00  0.00000000000E+00  0.89910825227E+03  0.11008917477E+04  0.63526922712E+03 0.  0.
         13    1    3    3    0    0  0.71182652287E+02 -0.25333831391E+01  0.98598178680E+03  0.98855119843E+03  0.00000000000E+00 0. -1.
          4    1    3    3  501    0 -0.71182652287E+02  0.25333831391E+01 -0.86873534527E+02  0.11234054930E+03  0.00000000000E+00 0. -1.
<mgrwt>
<rscale>  0 0.63526923E+03</rscale>
<asrwt>0</asrwt>
<pdfrwt beam="1">0</pdfrwt>
<pdfrwt beam="2">  1        2 0.36687986E+00 0.63526923E+03</pdfrwt>
<totfact> 0.52875586E+00</totfact>
</mgrwt>
</event>
<event>
 5    1  0.2354746E-004  0.6580816E+03  0.7818608E-02  0.9791732E-01
         13   -1    0    0    0    0  0.00000000000E+00  0.00000000000E+00  0.10000000000E+04  0.10000000000E+04  0.00000000000E+00 0. -1.
          2   -1    0    0  501    0 -0.00000000000E+00 -0.00000000000E+00 -0.10826784775E+03  0.10826784775E+03  0.00000000000E+00 0. -1.
    9000006    2    1    2  501    0  0.00000000000E+00  0.00000000000E+00  0.89173215225E+03  0.11082678477E+04  0.65808159903E+03 0.  0.
         13    1    3    3    0    0 -0.22151923724E+03 -0.10951037000E+02  0.36534964637E+02  0.22477878308E+03  0.00000000000E+00 0. -1.
          2    1    3    3  501    0  0.22151923724E+03  0.10951037000E+02  0.85519718762E+03  0.88348906467E+03  0.00000000000E+00 0. -1.
<mgrwt>
<rscale>  0 0.65808160E+03</rscale>
<asrwt>0</asrwt>
<pdfrwt beam="1">0</pdfrwt>
<pdfrwt beam="2">  1        2 0.39370209E+00 0.65808160E+03</pdfrwt>
<totfact> 0.42022127E+00</totfact>
</mgrwt>
</event>
<event>
 5    1  0.2354746E-004  0.6416217E+03  0.7818608E-02  0.9822629E-01
         13   -1    0    0    0    0  0.00000000000E+00  0.00000000000E+00  0.10000000000E+04  0.10000000000E+04  0.00000000000E+00 0. -1.
          2   -1    0    0  501    0 -0.00000000000E+00 -0.00000000000E+00 -0.10291959285E+03  0.10291959285E+03  0.00000000000E+00 0. -1.
    9000006    2    1    2  501    0  0.00000000000E+00  0.00000000000E+00  0.89708040715E+03  0.11029195928E+04  0.64162167309E+03 0.  0.
         13    1    3    3    0    0  0.73833986890E+02  0.30915678257E+03  0.52327466176E+03  0.61224647445E+03  0.00000000000E+00 0. -1.
          2    1    3    3  501    0 -0.73833986890E+02 -0.30915678257E+03  0.37380574539E+03  0.49067311840E+03  0.00000000000E+00 0. -1.
<mgrwt>
<rscale>  0 0.64162167E+03</rscale>
<asrwt>0</asrwt>
<pdfrwt beam="1">0</pdfrwt>
<pdfrwt beam="2">  1        2 0.37425385E+00 0.64162167E+03</pdfrwt>
<totfact> 0.49662083E+00</totfact>
</mgrwt>
</event>
<event>
 5    1  0.2354746E-004  0.6508648E+03  0.7818608E-02  0.9805158E-01
         13   -1    0    0    0    0  0.00000000000E+00  0.00000000000E+00  0.10000000000E+04  0.10000000000E+04  0.00000000000E+00 0. -1.
          2   -1    0    0  501    0 -0.00000000000E+00 -0.00000000000E+00 -0.10590626149E+03  0.10590626149E+03  0.00000000000E+00 0. -1.
    9000006    2    1    2  501    0  0.00000000000E+00  0.00000000000E+00  0.89409373851E+03  0.11059062615E+04  0.65086484461E+03 0.  0.
         13    1    3    3    0    0  0.17418848471E+03 -0.25964093508E+03  0.60045160241E+03  0.67697649163E+03  0.00000000000E+00 0. -1.
          2    1    3    3  501    0 -0.17418848471E+03  0.25964093508E+03  0.29364213610E+03  0.42892976986E+03  0.00000000000E+00 0. -1.
<mgrwt>
<rscale>  0 0.65086484E+03</rscale>
<asrwt>0</asrwt>
<pdfrwt beam="1">0</pdfrwt>
<pdfrwt beam="2">  1        2 0.38511449E+00 0.65086484E+03</pdfrwt>
<totfact> 0.45253324E+00</totfact>
</mgrwt>
</event>
<event>
 5    1  0.2354746E-004  0.6549633E+03  0.7818608E-02  0.9797510E-01
         13   -1    0    0    0    0  0.00000000000E+00  0.00000000000E+00  0.10000000000E+04  0.10000000000E+04  0.00000000000E+00 0. -1.
          2   -1    0    0  501    0 -0.00000000000E+00 -0.00000000000E+00 -0.10724422017E+03  0.10724422017E+03  0.00000000000E+00 0. -1.
    9000006    2    1    2  501    0  0.00000000000E+00  0.00000000000E+00  0.89275577983E+03  0.11072442202E+04  0.65496326666E+03 0.  0.
         13    1    3    3    0    0  0.29126362364E+03 -0.83617106560E+02  0.65629077983E+03  0.72287198497E+03  0.00000000000E+00 0. -1.
          4    1    3    3  501    0 -0.29126362364E+03  0.83617106560E+02  0.23646500000E+03  0.38437223520E+03  0.00000000000E+00 0. -1.
<mgrwt>
<rscale>  0 0.65496327E+03</rscale>
<asrwt>0</asrwt>
<pdfrwt beam="1">0</pdfrwt>
<pdfrwt beam="2">  1        2 0.38997980E+00 0.65496327E+03</pdfrwt>
<totfact> 0.43396155E+00</totfact>
</mgrwt>
</event>
<event>
 5    1  0.2354746E-004  0.6536297E+03  0.7818608E-02  0.9799992E-01
         13   -1    0    0    0    0  0.00000000000E+00  0.00000000000E+00  0.10000000000E+04  0.10000000000E+04  0.00000000000E+00 0. -1.
          2   -1    0    0  501    0 -0.00000000000E+00 -0.00000000000E+00 -0.10680793779E+03  0.10680793779E+03  0.00000000000E+00 0. -1.
    9000006    2    1    2  501    0  0.00000000000E+00  0.00000000000E+00  0.89319206221E+03  0.11068079378E+04  0.65362967431E+03 0.  0.
         13    1    3    3    0    0 -0.17754355099E+03 -0.81352935965E+02  0.89032467743E+03  0.91149220728E+03  0.00000000000E+00 0. -1.
          4    1    3    3  501    0  0.17754355099E+03  0.81352935965E+02  0.28673847840E+01  0.19531573051E+03  0.00000000000E+00 0. -1.
<mgrwt>
<rscale>  0 0.65362967E+03</rscale>
<asrwt>0</asrwt>
<pdfrwt beam="1">0</pdfrwt>
<pdfrwt beam="2">  1        2 0.38839332E+00 0.65362967E+03</pdfrwt>
<totfact> 0.43994019E+00</totfact>
</mgrwt>
</event>
<event>
 5    1  0.2354746E-004  0.6464691E+03  0.7818608E-02  0.9813427E-01
         13   -1    0    0    0    0  0.00000000000E+00  0.00000000000E+00  0.10000000000E+04  0.10000000000E+04  0.00000000000E+00 0. -1.
          2   -1    0    0  501    0 -0.00000000000E+00 -0.00000000000E+00 -0.10448058591E+03  0.10448058591E+03  0.00000000000E+00 0. -1.
    9000006    2    1    2  501    0  0.00000000000E+00  0.00000000000E+00  0.89551941409E+03  0.11044805859E+04  0.64646913588E+03 0.  0.
         13    1    3    3    0    0 -0.18278265995E+03  0.28218579250E+02  0.90066780999E+03  0.91946087081E+03  0.00000000000E+00 0. -1.
          2    1    3    3  501    0  0.18278265995E+03 -0.28218579250E+02 -0.51483959045E+01  0.18501971510E+03  0.00000000000E+00 0. -1.
<mgrwt>
<rscale>  0 0.64646914E+03</rscale>
<asrwt>0</asrwt>
<pdfrwt beam="1">0</pdfrwt>
<pdfrwt beam="2">  1        2 0.37993020E+00 0.64646914E+03</pdfrwt>
<totfact> 0.47311304E+00</totfact>
</mgrwt>
</event>
<event>
 5    1  0.2354746E-004  0.6490774E+03  0.7818608E-02  0.9808512E-01
         13   -1    0    0    0    0  0.00000000000E+00  0.00000000000E+00  0.10000000000E+04  0.10000000000E+04  0.00000000000E+00 0. -1.
          2   -1    0    0  501    0 -0.00000000000E+00 -0.00000000000E+00 -0.10532537045E+03  0.10532537045E+03  0.00000000000E+00 0. -1.
    9000006    2    1    2  501    0  0.00000000000E+00  0.00000000000E+00  0.89467462955E+03  0.11053253704E+04  0.64907740817E+03 0.  0.
         13    1    3    3    0    0 -0.15644496342E+03 -0.28285779708E+03  0.49674571746E+03  0.59265493144E+03  0.00000000000E+00 0. -1.
          4    1    3    3  501    0  0.15644496342E+03  0.28285779708E+03  0.39792891210E+03  0.51267043901E+03  0.00000000000E+00 0. -1.
<mgrwt>
<rscale>  0 0.64907741E+03</rscale>
<asrwt>0</asrwt>
<pdfrwt beam="1">0</pdfrwt>
<pdfrwt beam="2">  1        2 0.38300215E+00 0.64907741E+03</pdfrwt>
<totfact> 0.46081824E+00</totfact>
</mgrwt>
</event>
<event>
 5    1  0.2354746E-004  0.6412085E+03  0.7818608E-02  0.9823417E-01
         13   -1    0    0    0    0  0.00000000000E+00  0.00000000000E+00  0.10000000000E+04  0.10000000000E+04  0.00000000000E+00 0. -1.
          2   -1    0    0  501    0 -0.00000000000E+00 -0.00000000000E+00 -0.10278707556E+03  0.10278707556E+03  0.00000000000E+00 0. -1.
    9000006    2    1    2  501    0  0.00000000000E+00  0.00000000000E+00  0.89721292444E+03  0.11027870756E+04  0.64120847019E+03 0.  0.
         13    1    3    3    0    0 -0.15988750408E+03  0.65834508133E+02  0.91293251587E+03  0.92916305079E+03  0.00000000000E+00 0. -1.
          2    1    3    3  501    0  0.15988750408E+03 -0.65834508133E+02 -0.15719591429E+02  0.17362402477E+03  0.00000000000E+00 0. -1.
<mgrwt>
<rscale>  0 0.64120847E+03</rscale>
<asrwt>0</asrwt>
<pdfrwt beam="1">0</pdfrwt>
<pdfrwt beam="2">  1        2 0.37377197E+00 0.64120847E+03</pdfrwt>
<totfact> 0.49866491E+00</totfact>
</mgrwt>
</event>
<event>
 5    1  0.2354746E-004  0.6412801E+03  0.7818608E-02  0.9823280E-01
         13   -1    0    0    0    0  0.00000000000E+00  0.00000000000E+00  0.10000000000E+04  0.10000000000E+04  0.00000000000E+00 0. -1.
          2   -1    0    0  501    0 -0.00000000000E+00 -0.00000000000E+00 -0.10281005423E+03  0.10281005423E+03  0.00000000000E+00 0. -1.
    9000006    2    1    2  501    0  0.00000000000E+00  0.00000000000E+00  0.89718994577E+03  0.11028100542E+04  0.64128013919E+03 0.  0.
         13    1    3    3    0    0  0.17609232458E+03 -0.25496702603E+03  0.30685402239E+03  0.43609182771E+03  0.00000000000E+00 0. -1.
          2    1    3    3  501    0 -0.17609232458E+03  0.25496702603E+03  0.59033592338E+03  0.66671822652E+03  0.00000000000E+00 0. -1.
<mgrwt>
<rscale>  0 0.64128014E+03</rscale>
<asrwt>0</asrwt>
<pdfrwt beam="1">0</pdfrwt>
<pdfrwt beam="2">  1        2 0.37385553E+00 0.64128014E+03</pdfrwt>
<totfact> 0.49830991E+00</totfact>
</mgrwt>
</event>
<event>
 5    1  0.2354746E-004  0.6460948E+03  0.7818608E-02  0.9814135E-01
         13   -1    0    0    0    0  0.00000000000E+00  0.00000000000E+00  0.10000000000E+04  0.10000000000E+04  0.00000000000E+00 0. -1.
          2   -1    0    0  501    0 -0.00000000000E+00 -0.00000000000E+00 -0.10435961193E+03  0.10435961193E+03  0.00000000000E+00 0. -1.
    9000006    2    1    2  501    0  0.00000000000E+00  0.00000000000E+00  0.89564038807E+03  0.11043596119E+04  0.64609476683E+03 0.  0.
         13    1    3    3    0    0  0.20933720319E+03  0.19673318181E+03  0.70038741834E+03  0.75701290955E+03  0.00000000000E+00 0. -1.
          4    1    3    3  501    0 -0.20933720319E+03 -0.19673318181E+03  0.19525296973E+03  0.34734670238E+03  0.00000000000E+00 0. -1.
<mgrwt>
<rscale>  0 0.64609477E+03</rscale>
<asrwt>0</asrwt>
<pdfrwt beam="1">0</pdfrwt>
<pdfrwt beam="2">  1        2 0.37949030E+00 0.64609477E+03</pdfrwt>
<totfact> 0.47489788E+00</totfact>
</mgrwt>
</event>
<event>
 5    1  0.2354746E-004  0.6581016E+03  0.7818608E-02  0.9791695E-01
         13   -1    0    0    0    0  0.00000000000E+00  0.00000000000E+00  0.10000000000E+04  0.10000000000E+04  0.00000000000E+00 0. -1.
          2   -1    0    0  501    0 -0.00000000000E+00 -0.00000000000E+00 -0.10827442228E+03  0.10827442228E+03  0.00000000000E+00 0. -1.
    9000006    2    1    2  501    0  0.00000000000E+00  0.00000000000E+00  0.89172557772E+03  0.11082744223E+04  0.65810157962E+03 0.  0.
         13    1    3    3    0    0 -0.32853116528E+03  0.17713937177E+02  0.45475994079E+03  0.56129592362E+03  0.00000000000E+00 0. -1.
          2    1    3    3  501    0  0.32853116528E+03 -0.17713937177E+02  0.43696563694E+03  0.54697849865E+03  0.00000000000E+00 0. -1.
<mgrwt>
<rscale>  0 0.65810158E+03</rscale>
<asrwt>0</asrwt>
<pdfrwt beam="1">0</pdfrwt>
<pdfrwt beam="2">  1        2 0.39372600E+00 0.65810158E+03</pdfrwt>
<totfact> 0.42013431E+00</totfact>
</mgrwt>
</event>
<event>
 5    1  0.2354746E-004  0.5662573E+03  0.7818608E-02  0.9977995E-01
         13   -1    0    0    0    0  0.00000000000E+00  0.00000000000E+00  0.10000000000E+04  0.10000000000E+04  0.00000000000E+00 0. -1.
          2   -1    0    0  501    0 -0.00000000000E+00 -0.00000000000E+00 -0.80161825038E+02  0.80161825038E+02  0.00000000000E+00 0. -1.
    9000006    2    1    2  501    0  0.00000000000E+00  0.00000000000E+00  0.91983817496E+03  0.10801618250E+04  0.56625727382E+03 0.  0.
         13    1    3    3    0    0 -0.26462483407E+03  0.41303800402E+02  0.63505548399E+03  0.68922258704E+03  0.00000000000E+00 0. -1.
          2    1    3    3  501    0  0.26462483407E+03 -0.41303800402E+02  0.28478269097E+03  0.39093923800E+03  0.00000000000E+00 0. -1.
<mgrwt>
<rscale>  0 0.56625727E+03</rscale>
<asrwt>0</asrwt>
<pdfrwt beam="1">0</pdfrwt>
<pdfrwt beam="2">  1        2 0.29149816E+00 0.56625727E+03</pdfrwt>
<totfact> 0.99022038E+00</totfact>
</mgrwt>
</event>
<event>
 5    1  0.2354746E-004  0.6430326E+03  0.7818608E-02  0.9819942E-01
         13   -1    0    0    0    0  0.00000000000E+00  0.00000000000E+00  0.10000000000E+04  0.10000000000E+04  0.00000000000E+00 0. -1.
          2   -1    0    0  501    0 -0.00000000000E+00 -0.00000000000E+00 -0.10337272048E+03  0.10337272048E+03  0.00000000000E+00 0. -1.
    9000006    2    1    2  501    0  0.00000000000E+00  0.00000000000E+00  0.89662727952E+03  0.11033727205E+04  0.64303256675E+03 0.  0.
         13    1    3    3    0    0 -0.21691373423E+03  0.20044107528E+03  0.66633645655E+03  0.72885695859E+03  0.00000000000E+00 0. -1.
          2    1    3    3  501    0  0.21691373423E+03 -0.20044107528E+03  0.23029082298E+03  0.37451576189E+03  0.00000000000E+00 0. -1.
<mgrwt>
<rscale>  0 0.64303257E+03</rscale>
<asrwt>0</asrwt>
<pdfrwt beam="1">0</pdfrwt>
<pdfrwt beam="2">  1        2 0.37590159E+00 0.64303257E+03</pdfrwt>
<totfact> 0.48968919E+00</totfact>
</mgrwt>
</event>
<event>
 5    1  0.2354746E-004  0.6551518E+03  0.7818608E-02  0.9797160E-01
         13   -1    0    0    0    0  0.00000000000E+00  0.00000000000E+00  0.10000000000E+04  0.10000000000E+04  0.00000000000E+00 0. -1.
          2   -1    0    0  501    0 -0.00000000000E+00 -0.00000000000E+00 -0.10730596447E+03  0.10730596447E+03  0.00000000000E+00 0. -1.
    9000006    2    1    2  501    0  0.00000000000E+00  0.00000000000E+00  0.89269403553E+03  0.11073059645E+04  0.65515178233E+03 0.  0.
         13    1    3    3    0    0  0.12191013735E+03 -0.12398463510E+03  0.91556339528E+03  0.93192843186E+03  0.00000000000E+00 0. -1.
          4    1    3    3  501    0 -0.12191013735E+03  0.12398463510E+03 -0.22869359755E+02  0.17537753261E+03  0.00000000000E+00 0. -1.
<mgrwt>
<rscale>  0 0.65515178E+03</rscale>
<asrwt>0</asrwt>
<pdfrwt beam="1">0</pdfrwt>
<pdfrwt beam="2">  1        2 0.39020433E+00 0.65515178E+03</pdfrwt>
<totfact> 0.43312139E+00</totfact>
</mgrwt>
</event>
<event>
 5    1  0.2354746E-004  0.6525708E+03  0.7818608E-02  0.9801967E-01
         13   -1    0    0    0    0  0.00000000000E+00  0.00000000000E+00  0.10000000000E+04  0.10000000000E+04  0.00000000000E+00 0. -1.
          2   -1    0    0  501    0 -0.00000000000E+00 -0.00000000000E+00 -0.10646217740E+03  0.10646217740E+03  0.00000000000E+00 0. -1.
    9000006    2    1    2  501    0  0.00000000000E+00  0.00000000000E+00  0.89353782260E+03  0.11064621774E+04  0.65257084643E+03 0.  0.
         13    1    3    3    0    0  0.84635343740E+02 -0.12555425735E+02 -0.87102202146E+02  0.12209657548E+03  0.00000000000E+00 0. -1.
          4    1    3    3  501    0 -0.84635343740E+02  0.12555425735E+02  0.98064002474E+03  0.98436560192E+03  0.00000000000E+00 0. -1.
<mgrwt>
<rscale>  0 0.65257085E+03</rscale>
<asrwt>0</asrwt>
<pdfrwt beam="1">0</pdfrwt>
<pdfrwt beam="2">  1        2 0.38713601E+00 0.65257085E+03</pdfrwt>
<totfact> 0.44473116E+00</totfact>
</mgrwt>
</event>
<event>
 5    1  0.2354746E-004  0.4979453E+03  0.7818608E-02  0.1014317E+00
         13   -1    0    0    0    0  0.00000000000E+00  0.00000000000E+00  0.10000000000E+04  0.10000000000E+04  0.00000000000E+00 0. -1.
          2   -1    0    0  501    0 -0.00000000000E+00 -0.00000000000E+00 -0.61987381029E+02  0.61987381029E+02  0.00000000000E+00 0. -1.
    9000006    2    1    2  501    0  0.00000000000E+00  0.00000000000E+00  0.93801261897E+03  0.10619873810E+04  0.49794530233E+03 0.  0.
         13    1    3    3    0    0 -0.12747219007E+03 -0.13080214576E+03  0.10814446787E+03  0.21225830138E+03  0.00000000000E+00 0. -1.
          4    1    3    3  501    0  0.12747219007E+03  0.13080214576E+03  0.82986815111E+03  0.84972907965E+03  0.00000000000E+00 0. -1.
<mgrwt>
<rscale>  0 0.49794530E+03</rscale>
<asrwt>0</asrwt>
<pdfrwt beam="1">0</pdfrwt>
<pdfrwt beam="2">  1        2 0.22540913E+00 0.49794530E+03</pdfrwt>
<totfact> 0.17111090E+01</totfact>
</mgrwt>
</event>
<event>
 5    1  0.2354746E-004  0.6551755E+03  0.7818608E-02  0.9797116E-01
         13   -1    0    0    0    0  0.00000000000E+00  0.00000000000E+00  0.10000000000E+04  0.10000000000E+04  0.00000000000E+00 0. -1.
          2   -1    0    0  501    0 -0.00000000000E+00 -0.00000000000E+00 -0.10731373475E+03  0.10731373475E+03  0.00000000000E+00 0. -1.
    9000006    2    1    2  501    0  0.00000000000E+00  0.00000000000E+00  0.89268626525E+03  0.11073137348E+04  0.65517550245E+03 0.  0.
         13    1    3    3    0    0 -0.24645856380E+02 -0.16536807024E+03 -0.29773215610E+02  0.16982479577E+03  0.00000000000E+00 0. -1.
          2    1    3    3  501    0  0.24645856380E+02  0.16536807024E+03  0.92245948086E+03  0.93748893898E+03  0.00000000000E+00 0. -1.
<mgrwt>
<rscale>  0 0.65517550E+03</rscale>
<asrwt>0</asrwt>
<pdfrwt beam="1">0</pdfrwt>
<pdfrwt beam="2">  1        2 0.39023259E+00 0.65517550E+03</pdfrwt>
<totfact> 0.43301577E+00</totfact>
</mgrwt>
</event>
<event>
 5    1  0.2354746E-004  0.6459505E+03  0.7818608E-02  0.9814408E-01
         13   -1    0    0    0    0  0.00000000000E+00  0.00000000000E+00  0.10000000000E+04  0.10000000000E+04  0.00000000000E+00 0. -1.
          2   -1    0    0  501    0 -0.00000000000E+00 -0.00000000000E+00 -0.10431301331E+03  0.10431301331E+03  0.00000000000E+00 0. -1.
    9000006    2    1    2  501    0  0.00000000000E+00  0.00000000000E+00  0.89568698669E+03  0.11043130133E+04  0.64595050372E+03 0.  0.
         13    1    3    3    0    0 -0.30324914811E+03 -0.10307402387E+03  0.51892463729E+03  0.60980905160E+03  0.00000000000E+00 0. -1.
          2    1    3    3  501    0  0.30324914811E+03  0.10307402387E+03  0.37676234940E+03  0.49450396171E+03  0.00000000000E+00 0. -1.
<mgrwt>
<rscale>  0 0.64595050E+03</rscale>
<asrwt>0</asrwt>
<pdfrwt beam="1">0</pdfrwt>
<pdfrwt beam="2">  1        2 0.37932085E+00 0.64595050E+03</pdfrwt>
<totfact> 0.47558703E+00</totfact>
</mgrwt>
</event>
<event>
 5    1  0.2354746E-004  0.4709433E+03  0.7818608E-02  0.1021654E+00
         13   -1    0    0    0    0  0.00000000000E+00  0.00000000000E+00  0.10000000000E+04  0.10000000000E+04  0.00000000000E+00 0. -1.
          2   -1    0    0  501    0 -0.00000000000E+00 -0.00000000000E+00 -0.55446909719E+02  0.55446909719E+02  0.00000000000E+00 0. -1.
    9000006    2    1    2  501    0  0.00000000000E+00  0.00000000000E+00  0.94455309028E+03  0.10554469097E+04  0.47094334996E+03 0.  0.
         13    1    3    3    0    0  0.40792093362E+02  0.41525269311E+02 -0.39068236057E+02  0.70104706980E+02  0.00000000000E+00 0. -1.
          4    1    3    3  501    0 -0.40792093362E+02 -0.41525269311E+02  0.98362132634E+03  0.98534220274E+03  0.00000000000E+00 0. -1.
<mgrwt>
<rscale>  0 0.47094335E+03</rscale>
<asrwt>0</asrwt>
<pdfrwt beam="1">0</pdfrwt>
<pdfrwt beam="2">  1        2 0.20162555E+00 0.47094335E+03</pdfrwt>
<totfact> 0.20948567E+01</totfact>
</mgrwt>
</event>
<event>
 5    1  0.2354746E-004  0.6513617E+03  0.7818608E-02  0.9804227E-01
         13   -1    0    0    0    0  0.00000000000E+00  0.00000000000E+00  0.10000000000E+04  0.10000000000E+04  0.00000000000E+00 0. -1.
          2   -1    0    0  501    0 -0.00000000000E+00 -0.00000000000E+00 -0.10606802196E+03  0.10606802196E+03  0.00000000000E+00 0. -1.
    9000006    2    1    2  501    0  0.00000000000E+00  0.00000000000E+00  0.89393197804E+03  0.11060680220E+04  0.65136171812E+03 0.  0.
         13    1    3    3    0    0  0.16252293414E+03 -0.26523226241E+03  0.61077771105E+03  0.68542780032E+03  0.00000000000E+00 0. -1.
          2    1    3    3  501    0 -0.16252293414E+03  0.26523226241E+03  0.28315426699E+03  0.42064022164E+03  0.00000000000E+00 0. -1.
<mgrwt>
<rscale>  0 0.65136172E+03</rscale>
<asrwt>0</asrwt>
<pdfrwt beam="1">0</pdfrwt>
<pdfrwt beam="2">  1        2 0.38570271E+00 0.65136172E+03</pdfrwt>
<totfact> 0.45025029E+00</totfact>
</mgrwt>
</event>
<event>
 5    1  0.2354746E-004  0.6554730E+03  0.7818608E-02  0.9796563E-01
         13   -1    0    0    0    0  0.00000000000E+00  0.00000000000E+00  0.10000000000E+04  0.10000000000E+04  0.00000000000E+00 0. -1.
          2   -1    0    0  501    0 -0.00000000000E+00 -0.00000000000E+00 -0.10741121371E+03  0.10741121371E+03  0.00000000000E+00 0. -1.
    9000006    2    1    2  501    0  0.00000000000E+00  0.00000000000E+00  0.89258878629E+03  0.11074112137E+04  0.65547300083E+03 0.  0.
         13    1    3    3    0    0  0.12928156200E+03 -0.30089390889E+03  0.42490075931E+03  0.53646204148E+03  0.00000000000E+00 0. -1.
          4    1    3    3  501    0 -0.12928156200E+03  0.30089390889E+03  0.46768802698E+03  0.57094917223E+03  0.00000000000E+00 0. -1.
<mgrwt>
<rscale>  0 0.65547300E+03</rscale>
<asrwt>0</asrwt>
<pdfrwt beam="1">0</pdfrwt>
<pdfrwt beam="2">  1        2 0.39058706E+00 0.65547300E+03</pdfrwt>
<totfact> 0.43169265E+00</totfact>
</mgrwt>
</event>
<event>
 5    1  0.2354746E-004  0.6446329E+03  0.7818608E-02  0.9816903E-01
         13   -1    0    0    0    0  0.00000000000E+00  0.00000000000E+00  0.10000000000E+04  0.10000000000E+04  0.00000000000E+00 0. -1.
          2   -1    0    0  501    0 -0.00000000000E+00 -0.00000000000E+00 -0.10388789136E+03  0.10388789136E+03  0.00000000000E+00 0. -1.
    9000006    2    1    2  501    0  0.00000000000E+00  0.00000000000E+00  0.89611210864E+03  0.11038878914E+04  0.64463289200E+03 0.  0.
         13    1    3    3    0    0 -0.13816255421E+03  0.44101999497E+02  0.94096793249E+03  0.95207905539E+03  0.00000000000E+00 0. -1.
          2    1    3    3  501    0  0.13816255421E+03 -0.44101999497E+02 -0.44855823847E+02  0.15180883597E+03  0.00000000000E+00 0. -1.
<mgrwt>
<rscale>  0 0.64463289E+03</rscale>
<asrwt>0</asrwt>
<pdfrwt beam="1">0</pdfrwt>
<pdfrwt beam="2">  1        2 0.37777495E+00 0.64463289E+03</pdfrwt>
<totfact> 0.48191634E+00</totfact>
</mgrwt>
</event>
<event>
 5    1  0.2354746E-004  0.6494430E+03  0.7818608E-02  0.9807825E-01
         13   -1    0    0    0    0  0.00000000000E+00  0.00000000000E+00  0.10000000000E+04  0.10000000000E+04  0.00000000000E+00 0. -1.
          2   -1    0    0  501    0 -0.00000000000E+00 -0.00000000000E+00 -0.10544404188E+03  0.10544404188E+03  0.00000000000E+00 0. -1.
    9000006    2    1    2  501    0  0.00000000000E+00  0.00000000000E+00  0.89455595812E+03  0.11054440419E+04  0.64944296710E+03 0.  0.
         13    1    3    3    0    0 -0.22367784865E+03  0.23532422772E+03  0.43724115009E+03  0.54459994075E+03  0.00000000000E+00 0. -1.
          2    1    3    3  501    0  0.22367784865E+03 -0.23532422772E+03  0.45731480803E+03  0.56084410113E+03  0.00000000000E+00 0. -1.
<mgrwt>
<rscale>  0 0.64944297E+03</rscale>
<asrwt>0</asrwt>
<pdfrwt beam="1">0</pdfrwt>
<pdfrwt beam="2">  1        2 0.38343369E+00 0.64944297E+03</pdfrwt>
<totfact> 0.45911458E+00</totfact>
</mgrwt>
</event>
<event>
 5    1  0.2354746E-004  0.6494893E+03  0.7818608E-02  0.9807738E-01
         13   -1    0    0    0    0  0.00000000000E+00  0.00000000000E+00  0.10000000000E+04  0.10000000000E+04  0.00000000000E+00 0. -1.
          2   -1    0    0  501    0 -0.00000000000E+00 -0.00000000000E+00 -0.10545909562E+03  0.10545909562E+03  0.00000000000E+00 0. -1.
    9000006    2    1    2  501    0  0.00000000000E+00  0.00000000000E+00  0.89454090438E+03  0.11054590956E+04  0.64948932437E+03 0.  0.
         13    1    3    3    0    0 -0.27587409704E+03  0.12374702216E+03  0.24559982167E+03  0.38953705255E+03  0.00000000000E+00 0. -1.
          4    1    3    3  501    0  0.27587409704E+03 -0.12374702216E+03  0.64894108272E+03  0.71592204307E+03  0.00000000000E+00 0. -1.
<mgrwt>
<rscale>  0 0.64948932E+03</rscale>
<asrwt>0</asrwt>
<pdfrwt beam="1">0</pdfrwt>
<pdfrwt beam="2">  1        2 0.38348843E+00 0.64948932E+03</pdfrwt>
<totfact> 0.45889888E+00</totfact>
</mgrwt>
</event>
<event>
 5    1  0.2354746E-004  0.5490184E+03  0.7818608E-02  0.1001721E+00
         13   -1    0    0    0    0  0.00000000000E+00  0.00000000000E+00  0.10000000000E+04  0.10000000000E+04  0.00000000000E+00 0. -1.
          2   -1    0    0  501    0 -0.00000000000E+00 -0.00000000000E+00 -0.75355311001E+02  0.75355311001E+02  0.00000000000E+00 0. -1.
    9000006    2    1    2  501    0  0.00000000000E+00  0.00000000000E+00  0.92464468900E+03  0.10753553110E+04  0.54901843685E+03 0.  0.
         13    1    3    3    0    0 -0.21870102874E+03  0.11926264161E+03  0.68822268662E+03  0.73191815392E+03  0.00000000000E+00 0. -1.
          2    1    3    3  501    0  0.21870102874E+03 -0.11926264161E+03  0.23642200238E+03  0.34343715708E+03  0.00000000000E+00 0. -1.
<mgrwt>
<rscale>  0 0.54901844E+03</rscale>
<asrwt>0</asrwt>
<pdfrwt beam="1">0</pdfrwt>
<pdfrwt beam="2">  1        2 0.27401989E+00 0.54901844E+03</pdfrwt>
<totfact> 0.11433624E+01</totfact>
</mgrwt>
</event>
<event>
 5    1  0.2354746E-004  0.6422687E+03  0.7818608E-02  0.9821396E-01
         13   -1    0    0    0    0  0.00000000000E+00  0.00000000000E+00  0.10000000000E+04  0.10000000000E+04  0.00000000000E+00 0. -1.
          2   -1    0    0  501    0 -0.00000000000E+00 -0.00000000000E+00 -0.10312725743E+03  0.10312725743E+03  0.00000000000E+00 0. -1.
    9000006    2    1    2  501    0  0.00000000000E+00  0.00000000000E+00  0.89687274257E+03  0.11031272574E+04  0.64226865853E+03 0.  0.
         13    1    3    3    0    0 -0.22772219717E+03  0.22574955934E+03  0.47852998914E+03  0.57603056614E+03  0.00000000000E+00 0. -1.
          2    1    3    3  501    0  0.22772219717E+03 -0.22574955934E+03  0.41834275343E+03  0.52709669129E+03  0.00000000000E+00 0. -1.
<mgrwt>
<rscale>  0 0.64226866E+03</rscale>
<asrwt>0</asrwt>
<pdfrwt beam="1">0</pdfrwt>
<pdfrwt beam="2">  1        2 0.37500900E+00 0.64226866E+03</pdfrwt>
<totfact> 0.49343300E+00</totfact>
</mgrwt>
</event>
<event>
 5    1  0.2354746E-004  0.6319853E+03  0.7818608E-02  0.9841182E-01
         13   -1    0    0    0    0  0.00000000000E+00  0.00000000000E+00  0.10000000000E+04  0.10000000000E+04  0.00000000000E+00 0. -1.
          2   -1    0    0  501    0 -0.00000000000E+00 -0.00000000000E+00 -0.99851347787E+02  0.99851347787E+02  0.00000000000E+00 0. -1.
    9000006    2    1    2  501    0  0.00000000000E+00  0.00000000000E+00  0.90014865221E+03  0.10998513478E+04  0.63198527764E+03 0.  0.
         13    1    3    3    0    0  0.28311390110E+03 -0.13696451095E+03  0.39675742690E+03  0.50628965430E+03  0.00000000000E+00 0. -1.
          4    1    3    3  501    0 -0.28311390110E+03  0.13696451095E+03  0.50339122531E+03  0.59356169349E+03  0.00000000000E+00 0. -1.
<mgrwt>
<rscale>  0 0.63198528E+03</rscale>
<asrwt>0</asrwt>
<pdfrwt beam="1">0</pdfrwt>
<pdfrwt beam="2">  1        2 0.36309658E+00 0.63198528E+03</pdfrwt>
<totfact> 0.54597361E+00</totfact>
</mgrwt>
</event>
<event>
 5    1  0.2354746E-004  0.6627111E+03  0.7818608E-02  0.9783216E-01
         13   -1    0    0    0    0  0.00000000000E+00  0.00000000000E+00  0.10000000000E+04  0.10000000000E+04  0.00000000000E+00 0. -1.
          2   -1    0    0  501    0 -0.00000000000E+00 -0.00000000000E+00 -0.10979650948E+03  0.10979650948E+03  0.00000000000E+00 0. -1.
    9000006    2    1    2  501    0  0.00000000000E+00  0.00000000000E+00  0.89020349052E+03  0.11097965095E+04  0.66271112706E+03 0.  0.
         13    1    3    3    0    0  0.32813023631E+03  0.37298377374E+02  0.39967358861E+03  0.51845886854E+03  0.00000000000E+00 0. -1.
          2    1    3    3  501    0 -0.32813023631E+03 -0.37298377374E+02  0.49052990190E+03  0.59133764094E+03  0.00000000000E+00 0. -1.
<mgrwt>
<rscale>  0 0.66271113E+03</rscale>
<asrwt>0</asrwt>
<pdfrwt beam="1">0</pdfrwt>
<pdfrwt beam="2">  1        2 0.39926088E+00 0.66271113E+03</pdfrwt>
<totfact> 0.40043272E+00</totfact>
</mgrwt>
</event>
<event>
 5    1  0.2354746E-004  0.6494587E+03  0.7818608E-02  0.9807795E-01
         13   -1    0    0    0    0  0.00000000000E+00  0.00000000000E+00  0.10000000000E+04  0.10000000000E+04  0.00000000000E+00 0. -1.
          2   -1    0    0  501    0 -0.00000000000E+00 -0.00000000000E+00 -0.10544916379E+03  0.10544916379E+03  0.00000000000E+00 0. -1.
    9000006    2    1    2  501    0  0.00000000000E+00  0.00000000000E+00  0.89455083621E+03  0.11054491638E+04  0.64945874014E+03 0.  0.
         13    1    3    3    0    0  0.24763315791E+03 -0.20954580539E+03  0.42217071384E+03  0.53240936982E+03  0.00000000000E+00 0. -1.
          2    1    3    3  501    0 -0.24763315791E+03  0.20954580539E+03  0.47238012238E+03  0.57303979397E+03  0.00000000000E+00 0. -1.
<mgrwt>
<rscale>  0 0.64945874E+03</rscale>
<asrwt>0</asrwt>
<pdfrwt beam="1">0</pdfrwt>
<pdfrwt beam="2">  1        2 0.38345231E+00 0.64945874E+03</pdfrwt>
<totfact> 0.45904118E+00</totfact>
</mgrwt>
</event>
<event>
 5    1  0.2354746E-004  0.6086956E+03  0.7818608E-02  0.9887528E-01
         13   -1    0    0    0    0  0.00000000000E+00  0.00000000000E+00  0.10000000000E+04  0.10000000000E+04  0.00000000000E+00 0. -1.
          4   -1    0    0  501    0 -0.00000000000E+00 -0.00000000000E+00 -0.92627587735E+02  0.92627587735E+02  0.00000000000E+00 0. -1.
    9000006    2    1    2  501    0  0.00000000000E+00  0.00000000000E+00  0.90737241226E+03  0.10926275877E+04  0.60869561436E+03 0.  0.
         13    1    3    3    0    0 -0.85591696163E+02 -0.27404774129E+03  0.63497088691E+03  0.69686162915E+03  0.00000000000E+00 0. -1.
          2    1    3    3  501    0  0.85591696163E+02  0.27404774129E+03  0.27240152536E+03  0.39576595859E+03  0.00000000000E+00 0. -1.
<mgrwt>
<rscale>  0 0.60869561E+03</rscale>
<asrwt>0</asrwt>
<pdfrwt beam="1">0</pdfrwt>
<pdfrwt beam="2">  1        4 0.33682830E+00 0.60869561E+03</pdfrwt>
<totfact> 0.83963643E-02</totfact>
</mgrwt>
</event>
<event>
 5    1  0.2354746E-004  0.6515756E+03  0.7818608E-02  0.9803827E-01
         13   -1    0    0    0    0  0.00000000000E+00  0.00000000000E+00  0.10000000000E+04  0.10000000000E+04  0.00000000000E+00 0. -1.
          2   -1    0    0  501    0 -0.00000000000E+00 -0.00000000000E+00 -0.10613769731E+03  0.10613769731E+03  0.00000000000E+00 0. -1.
    9000006    2    1    2  501    0  0.00000000000E+00  0.00000000000E+00  0.89386230269E+03  0.11061376973E+04  0.65157562051E+03 0.  0.
         13    1    3    3    0    0 -0.22473996589E+02 -0.21024902887E+03  0.26177955987E+02  0.21306107116E+03  0.00000000000E+00 0. -1.
          2    1    3    3  501    0  0.22473996589E+02  0.21024902887E+03  0.86768434670E+03  0.89307662615E+03  0.00000000000E+00 0. -1.
<mgrwt>
<rscale>  0 0.65157562E+03</rscale>
<asrwt>0</asrwt>
<pdfrwt beam="1">0</pdfrwt>
<pdfrwt beam="2">  1        2 0.38595608E+00 0.65157562E+03</pdfrwt>
<totfact> 0.44927018E+00</totfact>
</mgrwt>
</event>
<event>
 5    1  0.2354746E-004  0.6512199E+03  0.7818608E-02  0.9804493E-01
         13   -1    0    0    0    0  0.00000000000E+00  0.00000000000E+00  0.10000000000E+04  0.10000000000E+04  0.00000000000E+00 0. -1.
          2   -1    0    0  501    0 -0.00000000000E+00 -0.00000000000E+00 -0.10602184280E+03  0.10602184280E+03  0.00000000000E+00 0. -1.
    9000006    2    1    2  501    0  0.00000000000E+00  0.00000000000E+00  0.89397815720E+03  0.11060218428E+04  0.65121991000E+03 0.  0.
         13    1    3    3    0    0 -0.21088472986E+03  0.23967048321E+01  0.86832446809E+03  0.89356896508E+03  0.00000000000E+00 0. -1.
          2    1    3    3  501    0  0.21088472986E+03 -0.23967048321E+01  0.25653689119E+02  0.21245287771E+03  0.00000000000E+00 0. -1.
<mgrwt>
<rscale>  0 0.65121991E+03</rscale>
<asrwt>0</asrwt>
<pdfrwt beam="1">0</pdfrwt>
<pdfrwt beam="2">  1        2 0.38553479E+00 0.65121991E+03</pdfrwt>
<totfact> 0.45090096E+00</totfact>
</mgrwt>
</event>
<event>
 5    1  0.2354746E-004  0.6282818E+03  0.7818608E-02  0.9848408E-01
         13   -1    0    0    0    0  0.00000000000E+00  0.00000000000E+00  0.10000000000E+04  0.10000000000E+04  0.00000000000E+00 0. -1.
          2   -1    0    0  501    0 -0.00000000000E+00 -0.00000000000E+00 -0.98684492828E+02  0.98684492828E+02  0.00000000000E+00 0. -1.
    9000006    2    1    2  501    0  0.00000000000E+00  0.00000000000E+00  0.90131550717E+03  0.10986844928E+04  0.62828176108E+03 0.  0.
         13    1    3    3    0    0  0.24928870794E+03 -0.18318095542E+03  0.35512662443E+03  0.47097244263E+03  0.00000000000E+00 0. -1.
          2    1    3    3  501    0 -0.24928870794E+03  0.18318095542E+03  0.54618888275E+03  0.62771205020E+03  0.00000000000E+00 0. -1.
<mgrwt>
<rscale>  0 0.62828176E+03</rscale>
<asrwt>0</asrwt>
<pdfrwt beam="1">0</pdfrwt>
<pdfrwt beam="2">  1        2 0.35885346E+00 0.62828176E+03</pdfrwt>
<totfact> 0.56589793E+00</totfact>
</mgrwt>
</event>
<event>
 5    1  0.2354746E-004  0.6496384E+03  0.7818608E-02  0.9807458E-01
         13   -1    0    0    0    0  0.00000000000E+00  0.00000000000E+00  0.10000000000E+04  0.10000000000E+04  0.00000000000E+00 0. -1.
          2   -1    0    0  501    0 -0.00000000000E+00 -0.00000000000E+00 -0.10550752315E+03  0.10550752315E+03  0.00000000000E+00 0. -1.
    9000006    2    1    2  501    0  0.00000000000E+00  0.00000000000E+00  0.89449247685E+03  0.11055075232E+04  0.64963843221E+03 0.  0.
         13    1    3    3    0    0  0.48142840455E+02 -0.80145811697E+02 -0.82115285998E+02  0.12443473958E+03  0.00000000000E+00 0. -1.
          2    1    3    3  501    0 -0.48142840455E+02  0.80145811697E+02  0.97660776285E+03  0.98107278357E+03  0.00000000000E+00 0. -1.
<mgrwt>
<rscale>  0 0.64963843E+03</rscale>
<asrwt>0</asrwt>
<pdfrwt beam="1">0</pdfrwt>
<pdfrwt beam="2">  1        2 0.38366453E+00 0.64963843E+03</pdfrwt>
<totfact> 0.45820558E+00</totfact>
</mgrwt>
</event>
<event>
 5    1  0.2354746E-004  0.6587288E+03  0.7818608E-02  0.9790537E-01
         13   -1    0    0    0    0  0.00000000000E+00  0.00000000000E+00  0.10000000000E+04  0.10000000000E+04  0.00000000000E+00 0. -1.
          2   -1    0    0  501    0 -0.00000000000E+00 -0.00000000000E+00 -0.10848091698E+03  0.10848091698E+03  0.00000000000E+00 0. -1.
    9000006    2    1    2  501    0  0.00000000000E+00  0.00000000000E+00  0.89151908302E+03  0.11084809170E+04  0.65872882730E+03 0.  0.
         13    1    3    3    0    0  0.24094210055E+03 -0.18893991693E+03  0.24153121408E+03  0.38998553230E+03  0.00000000000E+00 0. -1.
          4    1    3    3  501    0 -0.24094210055E+03  0.18893991693E+03  0.64998786894E+03  0.71849538468E+03  0.00000000000E+00 0. -1.
<mgrwt>
<rscale>  0 0.65872883E+03</rscale>
<asrwt>0</asrwt>
<pdfrwt beam="1">0</pdfrwt>
<pdfrwt beam="2">  1        2 0.39447689E+00 0.65872883E+03</pdfrwt>
<totfact> 0.41741125E+00</totfact>
</mgrwt>
</event>
<event>
 5    1  0.2354746E-004  0.6498341E+03  0.7818608E-02  0.9807090E-01
         13   -1    0    0    0    0  0.00000000000E+00  0.00000000000E+00  0.10000000000E+04  0.10000000000E+04  0.00000000000E+00 0. -1.
          2   -1    0    0  501    0 -0.00000000000E+00 -0.00000000000E+00 -0.10557109809E+03  0.10557109809E+03  0.00000000000E+00 0. -1.
    9000006    2    1    2  501    0  0.00000000000E+00  0.00000000000E+00  0.89442890191E+03  0.11055710981E+04  0.64983412679E+03 0.  0.
         13    1    3    3    0    0  0.60995545583E+02 -0.22589839023E+03  0.63680442236E+02  0.24249894435E+03  0.00000000000E+00 0. -1.
          2    1    3    3  501    0 -0.60995545583E+02  0.22589839023E+03  0.83074845968E+03  0.86307215373E+03  0.00000000000E+00 0. -1.
<mgrwt>
<rscale>  0 0.64983413E+03</rscale>
<asrwt>0</asrwt>
<pdfrwt beam="1">0</pdfrwt>
<pdfrwt beam="2">  1        2 0.38389571E+00 0.64983413E+03</pdfrwt>
<totfact> 0.45729688E+00</totfact>
</mgrwt>
</event>
<event>
 5    1  0.2354746E-004  0.6341766E+03  0.7818608E-02  0.9836932E-01
         13   -1    0    0    0    0  0.00000000000E+00  0.00000000000E+00  0.10000000000E+04  0.10000000000E+04  0.00000000000E+00 0. -1.
          2   -1    0    0  501    0 -0.00000000000E+00 -0.00000000000E+00 -0.10054499240E+03  0.10054499240E+03  0.00000000000E+00 0. -1.
    9000006    2    1    2  501    0  0.00000000000E+00  0.00000000000E+00  0.89945500760E+03  0.11005449924E+04  0.63417660759E+03 0.  0.
         13    1    3    3    0    0 -0.21556418945E+03 -0.21097079723E+03  0.61948037909E+03  0.68900837232E+03  0.00000000000E+00 0. -1.
          2    1    3    3  501    0  0.21556418945E+03  0.21097079723E+03  0.27997462851E+03  0.41153662008E+03  0.00000000000E+00 0. -1.
<mgrwt>
<rscale>  0 0.63417661E+03</rscale>
<asrwt>0</asrwt>
<pdfrwt beam="1">0</pdfrwt>
<pdfrwt beam="2">  1        2 0.36561893E+00 0.63417661E+03</pdfrwt>
<totfact> 0.53443807E+00</totfact>
</mgrwt>
</event>
<event>
 5    1  0.2354746E-004  0.6411926E+03  0.7818608E-02  0.9823447E-01
         13   -1    0    0    0    0  0.00000000000E+00  0.00000000000E+00  0.10000000000E+04  0.10000000000E+04  0.00000000000E+00 0. -1.
          2   -1    0    0  501    0 -0.00000000000E+00 -0.00000000000E+00 -0.10278199841E+03  0.10278199841E+03  0.00000000000E+00 0. -1.
    9000006    2    1    2  501    0  0.00000000000E+00  0.00000000000E+00  0.89721800159E+03  0.11027819984E+04  0.64119263379E+03 0.  0.
         13    1    3    3    0    0 -0.29657557411E+03 -0.98423711628E+02  0.32533101655E+03  0.45109263849E+03  0.00000000000E+00 0. -1.
          4    1    3    3  501    0  0.29657557411E+03  0.98423711628E+02  0.57188698504E+03  0.65168935992E+03  0.00000000000E+00 0. -1.
<mgrwt>
<rscale>  0 0.64119263E+03</rscale>
<asrwt>0</asrwt>
<pdfrwt beam="1">0</pdfrwt>
<pdfrwt beam="2">  1        2 0.37375351E+00 0.64119263E+03</pdfrwt>
<totfact> 0.49874338E+00</totfact>
</mgrwt>
</event>
<event>
 5    1  0.2354746E-004  0.6592678E+03  0.7818608E-02  0.9789542E-01
         13   -1    0    0    0    0  0.00000000000E+00  0.00000000000E+00  0.10000000000E+04  0.10000000000E+04  0.00000000000E+00 0. -1.
          2   -1    0    0  501    0 -0.00000000000E+00 -0.00000000000E+00 -0.10865852077E+03  0.10865852077E+03  0.00000000000E+00 0. -1.
    9000006    2    1    2  501    0  0.00000000000E+00  0.00000000000E+00  0.89134147923E+03  0.11086585208E+04  0.65926783866E+03 0.  0.
         13    1    3    3    0    0  0.27541032718E+03  0.18105283224E+03  0.45449650740E+03  0.56142501870E+03  0.00000000000E+00 0. -1.
          4    1    3    3  501    0 -0.27541032718E+03 -0.18105283224E+03  0.43684497183E+03  0.54723350208E+03  0.00000000000E+00 0. -1.
<mgrwt>
<rscale>  0 0.65926784E+03</rscale>
<asrwt>0</asrwt>
<pdfrwt beam="1">0</pdfrwt>
<pdfrwt beam="2">  1        2 0.39512273E+00 0.65926784E+03</pdfrwt>
<totfact> 0.41508196E+00</totfact>
</mgrwt>
</event>
<event>
 5    1  0.2354746E-004  0.6484984E+03  0.7818608E-02  0.9809601E-01
         13   -1    0    0    0    0  0.00000000000E+00  0.00000000000E+00  0.10000000000E+04  0.10000000000E+04  0.00000000000E+00 0. -1.
          2   -1    0    0  501    0 -0.00000000000E+00 -0.00000000000E+00 -0.10513754967E+03  0.10513754967E+03  0.00000000000E+00 0. -1.
    9000006    2    1    2  501    0  0.00000000000E+00  0.00000000000E+00  0.89486245033E+03  0.11051375497E+04  0.64849841841E+03 0.  0.
         13    1    3    3    0    0  0.11497151108E+02 -0.26717937339E+03  0.13496016158E+03  0.29955174388E+03  0.00000000000E+00 0. -1.
          2    1    3    3  501    0 -0.11497151108E+02  0.26717937339E+03  0.75990228875E+03  0.80558580579E+03  0.00000000000E+00 0. -1.
<mgrwt>
<rscale>  0 0.64849842E+03</rscale>
<asrwt>0</asrwt>
<pdfrwt beam="1">0</pdfrwt>
<pdfrwt beam="2">  1        2 0.38231917E+00 0.64849842E+03</pdfrwt>
<totfact> 0.46352636E+00</totfact>
</mgrwt>
</event>
<event>
 5    1  0.2354746E-004  0.6505009E+03  0.7818608E-02  0.9805840E-01
         13   -1    0    0    0    0  0.00000000000E+00  0.00000000000E+00  0.10000000000E+04  0.10000000000E+04  0.00000000000E+00 0. -1.
          2   -1    0    0  501    0 -0.00000000000E+00 -0.00000000000E+00 -0.10578786970E+03  0.10578786970E+03  0.00000000000E+00 0. -1.
    9000006    2    1    2  501    0  0.00000000000E+00  0.00000000000E+00  0.89421213030E+03  0.11057878697E+04  0.65050094450E+03 0.  0.
         13    1    3    3    0    0  0.25792314329E+03 -0.10190285084E+03  0.73598605029E+03  0.78650111575E+03  0.00000000000E+00 0. -1.
          4    1    3    3  501    0 -0.25792314329E+03  0.10190285084E+03  0.15822608001E+03  0.31928675395E+03  0.00000000000E+00 0. -1.
<mgrwt>
<rscale>  0 0.65050094E+03</rscale>
<asrwt>0</asrwt>
<pdfrwt beam="1">0</pdfrwt>
<pdfrwt beam="2">  1        2 0.38468397E+00 0.65050094E+03</pdfrwt>
<totfact> 0.45421076E+00</totfact>
</mgrwt>
</event>
<event>
 5    1  0.2354746E-004  0.6501797E+03  0.7818608E-02  0.9806442E-01
         13   -1    0    0    0    0  0.00000000000E+00  0.00000000000E+00  0.10000000000E+04  0.10000000000E+04  0.00000000000E+00 0. -1.
          2   -1    0    0  501    0 -0.00000000000E+00 -0.00000000000E+00 -0.10568342477E+03  0.10568342477E+03  0.00000000000E+00 0. -1.
    9000006    2    1    2  501    0  0.00000000000E+00  0.00000000000E+00  0.89431657523E+03  0.11056834248E+04  0.65017974366E+03 0.  0.
         13    1    3    3    0    0  0.21109912111E+03  0.36882031863E+02  0.31435573124E+02  0.21659020861E+03  0.00000000000E+00 0. -1.
          4    1    3    3  501    0 -0.21109912111E+03 -0.36882031863E+02  0.86288100211E+03  0.88909321615E+03  0.00000000000E+00 0. -1.
<mgrwt>
<rscale>  0 0.65017974E+03</rscale>
<asrwt>0</asrwt>
<pdfrwt beam="1">0</pdfrwt>
<pdfrwt beam="2">  1        2 0.38430417E+00 0.65017974E+03</pdfrwt>
<totfact> 0.45569535E+00</totfact>
</mgrwt>
</event>
<event>
 5    1  0.2354746E-004  0.6467754E+03  0.7818608E-02  0.9812849E-01
         13   -1    0    0    0    0  0.00000000000E+00  0.00000000000E+00  0.10000000000E+04  0.10000000000E+04  0.00000000000E+00 0. -1.
          2   -1    0    0  501    0 -0.00000000000E+00 -0.00000000000E+00 -0.10457960396E+03  0.10457960396E+03  0.00000000000E+00 0. -1.
    9000006    2    1    2  501    0  0.00000000000E+00  0.00000000000E+00  0.89542039604E+03  0.11045796040E+04  0.64677539829E+03 0.  0.
         13    1    3    3    0    0  0.11177711665E+03  0.20934491708E+03  0.82288876706E+03  0.85642591102E+03  0.00000000000E+00 0. -1.
          2    1    3    3  501    0 -0.11177711665E+03 -0.20934491708E+03  0.72531628981E+02  0.24815369294E+03  0.00000000000E+00 0. -1.
<mgrwt>
<rscale>  0 0.64677540E+03</rscale>
<asrwt>0</asrwt>
<pdfrwt beam="1">0</pdfrwt>
<pdfrwt beam="2">  1        2 0.38029027E+00 0.64677540E+03</pdfrwt>
<totfact> 0.47165669E+00</totfact>
</mgrwt>
</event>
<event>
 5    1  0.2354746E-004  0.6715188E+03  0.7818608E-02  0.9767218E-01
         13   -1    0    0    0    0  0.00000000000E+00  0.00000000000E+00  0.10000000000E+04  0.10000000000E+04  0.00000000000E+00 0. -1.
          2   -1    0    0  501    0 -0.00000000000E+00 -0.00000000000E+00 -0.11273436705E+03  0.11273436705E+03  0.00000000000E+00 0. -1.
    9000006    2    1    2  501    0  0.00000000000E+00  0.00000000000E+00  0.88726563295E+03  0.11127343671E+04  0.67151877726E+03 0.  0.
         13    1    3    3    0    0  0.25995795695E+03 -0.65813973714E+02  0.10882537692E+03  0.28940038214E+03  0.00000000000E+00 0. -1.
          4    1    3    3  501    0 -0.25995795695E+03  0.65813973714E+02  0.77844025602E+03  0.82333398492E+03  0.00000000000E+00 0. -1.
<mgrwt>
<rscale>  0 0.67151878E+03</rscale>
<asrwt>0</asrwt>
<pdfrwt beam="1">0</pdfrwt>
<pdfrwt beam="2">  1        2 0.40994402E+00 0.67151878E+03</pdfrwt>
<totfact> 0.36473407E+00</totfact>
</mgrwt>
</event>
<event>
 5    1  0.2354746E-004  0.6519858E+03  0.7818608E-02  0.9803060E-01
         13   -1    0    0    0    0  0.00000000000E+00  0.00000000000E+00  0.10000000000E+04  0.10000000000E+04  0.00000000000E+00 0. -1.
          2   -1    0    0  501    0 -0.00000000000E+00 -0.00000000000E+00 -0.10627138635E+03  0.10627138635E+03  0.00000000000E+00 0. -1.
    9000006    2    1    2  501    0  0.00000000000E+00  0.00000000000E+00  0.89372861365E+03  0.11062713864E+04  0.65198584755E+03 0.  0.
         13    1    3    3    0    0 -0.20612798182E+03  0.18675788173E+02  0.19513952733E+02  0.20789017366E+03  0.00000000000E+00 0. -1.
          2    1    3    3  501    0  0.20612798182E+03 -0.18675788173E+02  0.87421466092E+03  0.89838121269E+03  0.00000000000E+00 0. -1.
<mgrwt>
<rscale>  0 0.65198585E+03</rscale>
<asrwt>0</asrwt>
<pdfrwt beam="1">0</pdfrwt>
<pdfrwt beam="2">  1        2 0.38644222E+00 0.65198585E+03</pdfrwt>
<totfact> 0.44739500E+00</totfact>
</mgrwt>
</event>
<event>
 5    1  0.2354746E-004  0.6446101E+03  0.7818608E-02  0.9816946E-01
         13   -1    0    0    0    0  0.00000000000E+00  0.00000000000E+00  0.10000000000E+04  0.10000000000E+04  0.00000000000E+00 0. -1.
          2   -1    0    0  501    0 -0.00000000000E+00 -0.00000000000E+00 -0.10388055193E+03  0.10388055193E+03  0.00000000000E+00 0. -1.
    9000006    2    1    2  501    0  0.00000000000E+00  0.00000000000E+00  0.89611944807E+03  0.11038805519E+04  0.64461012071E+03 0.  0.
         13    1    3    3    0    0 -0.17538054495E+03 -0.26938056794E+03  0.40766825585E+03  0.51915087669E+03  0.00000000000E+00 0. -1.
          4    1    3    3  501    0  0.17538054495E+03  0.26938056794E+03  0.48845119222E+03  0.58472967524E+03  0.00000000000E+00 0. -1.
<mgrwt>
<rscale>  0 0.64461012E+03</rscale>
<asrwt>0</asrwt>
<pdfrwt beam="1">0</pdfrwt>
<pdfrwt beam="2">  1        2 0.37774826E+00 0.64461012E+03</pdfrwt>
<totfact> 0.48202628E+00</totfact>
</mgrwt>
</event>
<event>
 5    1  0.2354746E-004  0.6245041E+03  0.7818608E-02  0.9855833E-01
         13   -1    0    0    0    0  0.00000000000E+00  0.00000000000E+00  0.10000000000E+04  0.10000000000E+04  0.00000000000E+00 0. -1.
          2   -1    0    0  501    0 -0.00000000000E+00 -0.00000000000E+00 -0.97501344249E+02  0.97501344249E+02  0.00000000000E+00 0. -1.
    9000006    2    1    2  501    0  0.00000000000E+00  0.00000000000E+00  0.90249865575E+03  0.10975013442E+04  0.62450410487E+03 0.  0.
         13    1    3    3    0    0 -0.18195273588E+03  0.23119314627E+03  0.26739948313E+03  0.39756704159E+03  0.00000000000E+00 0. -1.
          4    1    3    3  501    0  0.18195273588E+03 -0.23119314627E+03  0.63509917262E+03  0.69993430266E+03  0.00000000000E+00 0. -1.
<mgrwt>
<rscale>  0 0.62450410E+03</rscale>
<asrwt>0</asrwt>
<pdfrwt beam="1">0</pdfrwt>
<pdfrwt beam="2">  1        2 0.35455109E+00 0.62450410E+03</pdfrwt>
<totfact> 0.58678641E+00</totfact>
</mgrwt>
</event>
<event>
 5    1  0.2354746E-004  0.6465317E+03  0.7818608E-02  0.9813309E-01
         13   -1    0    0    0    0  0.00000000000E+00  0.00000000000E+00  0.10000000000E+04  0.10000000000E+04  0.00000000000E+00 0. -1.
          2   -1    0    0  501    0 -0.00000000000E+00 -0.00000000000E+00 -0.10450081655E+03  0.10450081655E+03  0.00000000000E+00 0. -1.
    9000006    2    1    2  501    0  0.00000000000E+00  0.00000000000E+00  0.89549918345E+03  0.11045008166E+04  0.64653172096E+03 0.  0.
         13    1    3    3    0    0 -0.11731732546E+03  0.19327336139E+03  0.84245871152E+03  0.87226981358E+03  0.00000000000E+00 0. -1.
          2    1    3    3  501    0  0.11731732546E+03 -0.19327336139E+03  0.53040471932E+02  0.23223100297E+03  0.00000000000E+00 0. -1.
<mgrwt>
<rscale>  0 0.64653172E+03</rscale>
<asrwt>0</asrwt>
<pdfrwt beam="1">0</pdfrwt>
<pdfrwt beam="2">  1        2 0.38000377E+00 0.64653172E+03</pdfrwt>
<totfact> 0.47281516E+00</totfact>
</mgrwt>
</event>
<event>
 5    1  0.2354746E-004  0.6471952E+03  0.7818608E-02  0.9812056E-01
         13   -1    0    0    0    0  0.00000000000E+00  0.00000000000E+00  0.10000000000E+04  0.10000000000E+04  0.00000000000E+00 0. -1.
          2   -1    0    0  501    0 -0.00000000000E+00 -0.00000000000E+00 -0.10471540414E+03  0.10471540414E+03  0.00000000000E+00 0. -1.
    9000006    2    1    2  501    0  0.00000000000E+00  0.00000000000E+00  0.89528459586E+03  0.11047154041E+04  0.64719519201E+03 0.  0.
         13    1    3    3    0    0  0.82537957096E+02 -0.31221947286E+03  0.41258204654E+03  0.52394413702E+03  0.00000000000E+00 0. -1.
          4    1    3    3  501    0 -0.82537957096E+02  0.31221947286E+03  0.48270254932E+03  0.58077126712E+03  0.00000000000E+00 0. -1.
<mgrwt>
<rscale>  0 0.64719519E+03</rscale>
<asrwt>0</asrwt>
<pdfrwt beam="1">0</pdfrwt>
<pdfrwt beam="2">  1        2 0.38078409E+00 0.64719519E+03</pdfrwt>
<totfact> 0.46966597E+00</totfact>
</mgrwt>
</event>
<event>
 5    1  0.2354746E-004  0.6532323E+03  0.7818608E-02  0.9800733E-01
         13   -1    0    0    0    0  0.00000000000E+00  0.00000000000E+00  0.10000000000E+04  0.10000000000E+04  0.00000000000E+00 0. -1.
          2   -1    0    0  501    0 -0.00000000000E+00 -0.00000000000E+00 -0.10667809481E+03  0.10667809481E+03  0.00000000000E+00 0. -1.
    9000006    2    1    2  501    0  0.00000000000E+00  0.00000000000E+00  0.89332190519E+03  0.11066780948E+04  0.65323225519E+03 0.  0.
         13    1    3    3    0    0 -0.31443494514E+03 -0.53731556319E+02  0.32780789022E+03  0.45739963682E+03  0.00000000000E+00 0. -1.
          2    1    3    3  501    0  0.31443494514E+03  0.53731556319E+02  0.56551401498E+03  0.64927845799E+03  0.00000000000E+00 0. -1.
<mgrwt>
<rscale>  0 0.65323226E+03</rscale>
<asrwt>0</asrwt>
<pdfrwt beam="1">0</pdfrwt>
<pdfrwt beam="2">  1        2 0.38792116E+00 0.65323226E+03</pdfrwt>
<totfact> 0.44173383E+00</totfact>
</mgrwt>
</event>
<event>
 5    1  0.2354746E-004  0.6217007E+03  0.7818608E-02  0.9861379E-01
         13   -1    0    0    0    0  0.00000000000E+00  0.00000000000E+00  0.10000000000E+04  0.10000000000E+04  0.00000000000E+00 0. -1.
          2   -1    0    0  501    0 -0.00000000000E+00 -0.00000000000E+00 -0.96627934334E+02  0.96627934334E+02  0.00000000000E+00 0. -1.
    9000006    2    1    2  501    0  0.00000000000E+00  0.00000000000E+00  0.90337206567E+03  0.10966279343E+04  0.62170068147E+03 0.  0.
         13    1    3    3    0    0  0.19098028294E+03 -0.24189155268E+03  0.52318325309E+03  0.60721141956E+03  0.00000000000E+00 0. -1.
          2    1    3    3  501    0 -0.19098028294E+03  0.24189155268E+03  0.38018881257E+03  0.48941651477E+03  0.00000000000E+00 0. -1.
<mgrwt>
<rscale>  0 0.62170068E+03</rscale>
<asrwt>0</asrwt>
<pdfrwt beam="1">0</pdfrwt>
<pdfrwt beam="2">  1        2 0.35137505E+00 0.62170068E+03</pdfrwt>
<totfact> 0.60266345E+00</totfact>
</mgrwt>
</event>
<event>
 5    1  0.2354746E-004  0.6696361E+03  0.7818608E-02  0.9770615E-01
         13   -1    0    0    0    0  0.00000000000E+00  0.00000000000E+00  0.10000000000E+04  0.10000000000E+04  0.00000000000E+00 0. -1.
          2   -1    0    0  501    0 -0.00000000000E+00 -0.00000000000E+00 -0.11210312931E+03  0.11210312931E+03  0.00000000000E+00 0. -1.
    9000006    2    1    2  501    0  0.00000000000E+00  0.00000000000E+00  0.88789687069E+03  0.11121031293E+04  0.66963610809E+03 0.  0.
         13    1    3    3    0    0  0.79570000383E+02  0.32282616462E+03  0.37845872908E+03  0.50376495227E+03  0.00000000000E+00 0. -1.
          2    1    3    3  501    0 -0.79570000383E+02 -0.32282616462E+03  0.50943814161E+03  0.60833817704E+03  0.00000000000E+00 0. -1.
<mgrwt>
<rscale>  0 0.66963611E+03</rscale>
<asrwt>0</asrwt>
<pdfrwt beam="1">0</pdfrwt>
<pdfrwt beam="2">  1        2 0.40764860E+00 0.66963611E+03</pdfrwt>
<totfact> 0.37215462E+00</totfact>
</mgrwt>
</event>
<event>
 5    1  0.2354746E-004  0.6492318E+03  0.7818608E-02  0.9808222E-01
         13   -1    0    0    0    0  0.00000000000E+00  0.00000000000E+00  0.10000000000E+04  0.10000000000E+04  0.00000000000E+00 0. -1.
          2   -1    0    0  501    0 -0.00000000000E+00 -0.00000000000E+00 -0.10537549092E+03  0.10537549092E+03  0.00000000000E+00 0. -1.
    9000006    2    1    2  501    0  0.00000000000E+00  0.00000000000E+00  0.89462450908E+03  0.11053754909E+04  0.64923182584E+03 0.  0.
         13    1    3    3    0    0  0.75167652765E+02 -0.10289805006E+03 -0.61010770955E+02  0.14128162974E+03  0.00000000000E+00 0. -1.
          4    1    3    3  501    0 -0.75167652765E+02  0.10289805006E+03  0.95563528003E+03  0.96409386118E+03  0.00000000000E+00 0. -1.
<mgrwt>
<rscale>  0 0.64923183E+03</rscale>
<asrwt>0</asrwt>
<pdfrwt beam="1">0</pdfrwt>
<pdfrwt beam="2">  1        2 0.38318441E+00 0.64923183E+03</pdfrwt>
<totfact> 0.46009801E+00</totfact>
</mgrwt>
</event>
<event>
 5    1  0.2354746E-004  0.6533181E+03  0.7818608E-02  0.9800573E-01
         13   -1    0    0    0    0  0.00000000000E+00  0.00000000000E+00  0.10000000000E+04  0.10000000000E+04  0.00000000000E+00 0. -1.
          2   -1    0    0  501    0 -0.00000000000E+00 -0.00000000000E+00 -0.10670612090E+03  0.10670612090E+03  0.00000000000E+00 0. -1.
    9000006    2    1    2  501    0  0.00000000000E+00  0.00000000000E+00  0.89329387910E+03  0.11067061209E+04  0.65331805698E+03 0.  0.
         13    1    3    3    0    0  0.22242293295E+03 -0.10141942175E+03  0.79603552529E+02  0.25708867300E+03  0.00000000000E+00 0. -1.
          4    1    3    3  501    0 -0.22242293295E+03  0.10141942175E+03  0.81369032658E+03  0.84961744790E+03  0.00000000000E+00 0. -1.
<mgrwt>
<rscale>  0 0.65331806E+03</rscale>
<asrwt>0</asrwt>
<pdfrwt beam="1">0</pdfrwt>
<pdfrwt beam="2">  1        2 0.38802308E+00 0.65331806E+03</pdfrwt>
<totfact> 0.44134612E+00</totfact>
</mgrwt>
</event>
<event>
 5    1  0.2354746E-004  0.6421757E+03  0.7818608E-02  0.9821573E-01
         13   -1    0    0    0    0  0.00000000000E+00  0.00000000000E+00  0.10000000000E+04  0.10000000000E+04  0.00000000000E+00 0. -1.
          2   -1    0    0  501    0 -0.00000000000E+00 -0.00000000000E+00 -0.10309741625E+03  0.10309741625E+03  0.00000000000E+00 0. -1.
    9000006    2    1    2  501    0  0.00000000000E+00  0.00000000000E+00  0.89690258375E+03  0.11030974163E+04  0.64217572752E+03 0.  0.
         13    1    3    3    0    0  0.29672212064E+03 -0.51018012885E+02  0.25678115454E+03  0.39570622417E+03  0.00000000000E+00 0. -1.
          4    1    3    3  501    0 -0.29672212064E+03  0.51018012885E+02  0.64012142920E+03  0.70739119209E+03  0.00000000000E+00 0. -1.
<mgrwt>
<rscale>  0 0.64217573E+03</rscale>
<asrwt>0</asrwt>
<pdfrwt beam="1">0</pdfrwt>
<pdfrwt beam="2">  1        2 0.37490049E+00 0.64217573E+03</pdfrwt>
<totfact> 0.49388994E+00</totfact>
</mgrwt>
</event>
<event>
 5    1  0.2354746E-004  0.6555372E+03  0.7818608E-02  0.9796444E-01
         13   -1    0    0    0    0  0.00000000000E+00  0.00000000000E+00  0.10000000000E+04  0.10000000000E+04  0.00000000000E+00 0. -1.
          2   -1    0    0  501    0 -0.00000000000E+00 -0.00000000000E+00 -0.10743226996E+03  0.10743226996E+03  0.00000000000E+00 0. -1.
    9000006    2    1    2  501    0  0.00000000000E+00  0.00000000000E+00  0.89256773004E+03  0.11074322700E+04  0.65553724521E+03 0.  0.
         13    1    3    3    0    0  0.30510502509E+03 -0.89355289121E+02  0.31157124861E+03  0.44514052499E+03  0.00000000000E+00 0. -1.
          2    1    3    3  501    0 -0.30510502509E+03  0.89355289121E+02  0.58099648143E+03  0.66229174497E+03  0.00000000000E+00 0. -1.
<mgrwt>
<rscale>  0 0.65553725E+03</rscale>
<asrwt>0</asrwt>
<pdfrwt beam="1">0</pdfrwt>
<pdfrwt beam="2">  1        2 0.39066362E+00 0.65553725E+03</pdfrwt>
<totfact> 0.43140732E+00</totfact>
</mgrwt>
</event>
<event>
 5    1  0.2354746E-004  0.6500600E+03  0.7818608E-02  0.9806667E-01
         13   -1    0    0    0    0  0.00000000000E+00  0.00000000000E+00  0.10000000000E+04  0.10000000000E+04  0.00000000000E+00 0. -1.
          2   -1    0    0  501    0 -0.00000000000E+00 -0.00000000000E+00 -0.10564449629E+03  0.10564449629E+03  0.00000000000E+00 0. -1.
    9000006    2    1    2  501    0  0.00000000000E+00  0.00000000000E+00  0.89435550371E+03  0.11056444963E+04  0.65005998582E+03 0.  0.
         13    1    3    3    0    0  0.52273249365E+02 -0.31830121025E+03  0.51513334594E+03  0.60779150796E+03  0.00000000000E+00 0. -1.
          2    1    3    3  501    0 -0.52273249365E+02  0.31830121025E+03  0.37922215777E+03  0.49785298833E+03  0.00000000000E+00 0. -1.
<mgrwt>
<rscale>  0 0.65005999E+03</rscale>
<asrwt>0</asrwt>
<pdfrwt beam="1">0</pdfrwt>
<pdfrwt beam="2">  1        2 0.38416261E+00 0.65005999E+03</pdfrwt>
<totfact> 0.45624981E+00</totfact>
</mgrwt>
</event>
<event>
 5    1  0.2354746E-004  0.6457542E+03  0.7818608E-02  0.9814779E-01
         13   -1    0    0    0    0  0.00000000000E+00  0.00000000000E+00  0.10000000000E+04  0.10000000000E+04  0.00000000000E+00 0. -1.
          2   -1    0    0  501    0 -0.00000000000E+00 -0.00000000000E+00 -0.10424962599E+03  0.10424962599E+03  0.00000000000E+00 0. -1.
    9000006    2    1    2  501    0  0.00000000000E+00  0.00000000000E+00  0.89575037401E+03  0.11042496260E+04  0.64575421326E+03 0.  0.
         13    1    3    3    0    0  0.12328511950E+03  0.29840726748E+03  0.45107799345E+03  0.55472288050E+03  0.00000000000E+00 0. -1.
          2    1    3    3  501    0 -0.12328511950E+03 -0.29840726748E+03  0.44467238056E+03  0.54952674549E+03  0.00000000000E+00 0. -1.
<mgrwt>
<rscale>  0 0.64575421E+03</rscale>
<asrwt>0</asrwt>
<pdfrwt beam="1">0</pdfrwt>
<pdfrwt beam="2">  1        2 0.37909035E+00 0.64575421E+03</pdfrwt>
<totfact> 0.47652593E+00</totfact>
</mgrwt>
</event>
<event>
 5    1  0.2354746E-004  0.6562304E+03  0.7818608E-02  0.9795158E-01
         13   -1    0    0    0    0  0.00000000000E+00  0.00000000000E+00  0.10000000000E+04  0.10000000000E+04  0.00000000000E+00 0. -1.
          2   -1    0    0  501    0 -0.00000000000E+00 -0.00000000000E+00 -0.10765958471E+03  0.10765958471E+03  0.00000000000E+00 0. -1.
    9000006    2    1    2  501    0  0.00000000000E+00  0.00000000000E+00  0.89234041529E+03  0.11076595847E+04  0.65623040071E+03 0.  0.
         13    1    3    3    0    0  0.55751444153E+02 -0.15401689025E+02  0.99132718401E+03  0.99301310229E+03  0.00000000000E+00 0. -1.
          2    1    3    3  501    0 -0.55751444153E+02  0.15401689025E+02 -0.98986768718E+02  0.11464648242E+03  0.00000000000E+00 0. -1.
<mgrwt>
<rscale>  0 0.65623040E+03</rscale>
<asrwt>0</asrwt>
<pdfrwt beam="1">0</pdfrwt>
<pdfrwt beam="2">  1        2 0.39149022E+00 0.65623040E+03</pdfrwt>
<totfact> 0.42833791E+00</totfact>
</mgrwt>
</event>
<event>
 5    1  0.2354746E-004  0.6374840E+03  0.7818608E-02  0.9830552E-01
         13   -1    0    0    0    0  0.00000000000E+00  0.00000000000E+00  0.10000000000E+04  0.10000000000E+04  0.00000000000E+00 0. -1.
          2   -1    0    0  501    0 -0.00000000000E+00 -0.00000000000E+00 -0.10159646206E+03  0.10159646206E+03  0.00000000000E+00 0. -1.
    9000006    2    1    2  501    0  0.00000000000E+00  0.00000000000E+00  0.89840353794E+03  0.11015964621E+04  0.63748399841E+03 0.  0.
         13    1    3    3    0    0  0.20253003916E+03  0.45996714059E+02  0.31379705206E+02  0.21004475800E+03  0.00000000000E+00 0. -1.
          4    1    3    3  501    0 -0.20253003916E+03 -0.45996714059E+02  0.86702383274E+03  0.89155170405E+03  0.00000000000E+00 0. -1.
<mgrwt>
<rscale>  0 0.63748400E+03</rscale>
<asrwt>0</asrwt>
<pdfrwt beam="1">0</pdfrwt>
<pdfrwt beam="2">  1        2 0.36944246E+00 0.63748400E+03</pdfrwt>
<totfact> 0.51737844E+00</totfact>
</mgrwt>
</event>
<event>
 5    1  0.2354746E-004  0.6397543E+03  0.7818608E-02  0.9826197E-01
         13   -1    0    0    0    0  0.00000000000E+00  0.00000000000E+00  0.10000000000E+04  0.10000000000E+04  0.00000000000E+00 0. -1.
          2   -1    0    0  501    0 -0.00000000000E+00 -0.00000000000E+00 -0.10232137825E+03  0.10232137825E+03  0.00000000000E+00 0. -1.
    9000006    2    1    2  501    0  0.00000000000E+00  0.00000000000E+00  0.89767862175E+03  0.11023213783E+04  0.63975425986E+03 0.  0.
         13    1    3    3    0    0 -0.24340566643E+03 -0.93739334306E+02  0.12978390925E+03  0.29133699447E+03  0.00000000000E+00 0. -1.
          2    1    3    3  501    0  0.24340566643E+03  0.93739334306E+02  0.76789471250E+03  0.81098438378E+03  0.00000000000E+00 0. -1.
<mgrwt>
<rscale>  0 0.63975426E+03</rscale>
<asrwt>0</asrwt>
<pdfrwt beam="1">0</pdfrwt>
<pdfrwt beam="2">  1        2 0.37207852E+00 0.63975426E+03</pdfrwt>
<totfact> 0.50590946E+00</totfact>
</mgrwt>
</event>
<event>
 5    1  0.2354746E-004  0.6526968E+03  0.7818608E-02  0.9801732E-01
         13   -1    0    0    0    0  0.00000000000E+00  0.00000000000E+00  0.10000000000E+04  0.10000000000E+04  0.00000000000E+00 0. -1.
          2   -1    0    0  501    0 -0.00000000000E+00 -0.00000000000E+00 -0.10650328512E+03  0.10650328512E+03  0.00000000000E+00 0. -1.
    9000006    2    1    2  501    0  0.00000000000E+00  0.00000000000E+00  0.89349671488E+03  0.11065032851E+04  0.65269682124E+03 0.  0.
         13    1    3    3    0    0  0.45730972981E+02  0.48310593607E+02  0.98838419527E+03  0.99062028689E+03  0.00000000000E+00 0. -1.
          4    1    3    3  501    0 -0.45730972981E+02 -0.48310593607E+02 -0.94887480382E+02  0.11588299823E+03  0.00000000000E+00 0. -1.
<mgrwt>
<rscale>  0 0.65269682E+03</rscale>
<asrwt>0</asrwt>
<pdfrwt beam="1">0</pdfrwt>
<pdfrwt beam="2">  1        2 0.38728549E+00 0.65269682E+03</pdfrwt>
<totfact> 0.44415909E+00</totfact>
</mgrwt>
</event>
<event>
 5    1  0.2354746E-004  0.6619904E+03  0.7818608E-02  0.9784537E-01
         13   -1    0    0    0    0  0.00000000000E+00  0.00000000000E+00  0.10000000000E+04  0.10000000000E+04  0.00000000000E+00 0. -1.
          2   -1    0    0  501    0 -0.00000000000E+00 -0.00000000000E+00 -0.10955783107E+03  0.10955783107E+03  0.00000000000E+00 0. -1.
    9000006    2    1    2  501    0  0.00000000000E+00  0.00000000000E+00  0.89044216893E+03  0.11095578311E+04  0.66199042612E+03 0.  0.
         13    1    3    3    0    0  0.31499995658E+03  0.10146407646E+03  0.43490260680E+03  0.54649813253E+03  0.00000000000E+00 0. -1.
          4    1    3    3  501    0 -0.31499995658E+03 -0.10146407646E+03  0.45553956213E+03  0.56305969854E+03  0.00000000000E+00 0. -1.
<mgrwt>
<rscale>  0 0.66199043E+03</rscale>
<asrwt>0</asrwt>
<pdfrwt beam="1">0</pdfrwt>
<pdfrwt beam="2">  1        2 0.39839295E+00 0.66199043E+03</pdfrwt>
<totfact> 0.40346609E+00</totfact>
</mgrwt>
</event>
<event>
 5    1  0.2354746E-004  0.6391173E+03  0.7818608E-02  0.9827417E-01
         13   -1    0    0    0    0  0.00000000000E+00  0.00000000000E+00  0.10000000000E+04  0.10000000000E+04  0.00000000000E+00 0. -1.
          2   -1    0    0  501    0 -0.00000000000E+00 -0.00000000000E+00 -0.10211772438E+03  0.10211772438E+03  0.00000000000E+00 0. -1.
    9000006    2    1    2  501    0  0.00000000000E+00  0.00000000000E+00  0.89788227562E+03  0.11021177244E+04  0.63911727995E+03 0.  0.
         13    1    3    3    0    0 -0.27645942933E+03  0.87759947759E+02  0.21767293393E+03  0.36264739163E+03  0.00000000000E+00 0. -1.
          4    1    3    3  501    0  0.27645942933E+03 -0.87759947759E+02  0.68020934169E+03  0.73947033275E+03  0.00000000000E+00 0. -1.
<mgrwt>
<rscale>  0 0.63911728E+03</rscale>
<asrwt>0</asrwt>
<pdfrwt beam="1">0</pdfrwt>
<pdfrwt beam="2">  1        2 0.37133796E+00 0.63911728E+03</pdfrwt>
<totfact> 0.50910774E+00</totfact>
</mgrwt>
</event>
<event>
 5    1  0.2354746E-004  0.6406303E+03  0.7818608E-02  0.9824521E-01
         13   -1    0    0    0    0  0.00000000000E+00  0.00000000000E+00  0.10000000000E+04  0.10000000000E+04  0.00000000000E+00 0. -1.
          2   -1    0    0  501    0 -0.00000000000E+00 -0.00000000000E+00 -0.10260178122E+03  0.10260178122E+03  0.00000000000E+00 0. -1.
    9000006    2    1    2  501    0  0.00000000000E+00  0.00000000000E+00  0.89739821878E+03  0.11026017812E+04  0.64063025600E+03 0.  0.
         13    1    3    3    0    0  0.19918245393E+03 -0.22816997684E+03  0.62811377635E+03  0.69732496322E+03  0.00000000000E+00 0. -1.
          2    1    3    3  501    0 -0.19918245393E+03  0.22816997684E+03  0.26928444243E+03  0.40527681801E+03  0.00000000000E+00 0. -1.
<mgrwt>
<rscale>  0 0.64063026E+03</rscale>
<asrwt>0</asrwt>
<pdfrwt beam="1">0</pdfrwt>
<pdfrwt beam="2">  1        2 0.37309817E+00 0.64063026E+03</pdfrwt>
<totfact> 0.50153597E+00</totfact>
</mgrwt>
</event>
<event>
 5    1  0.2354746E-004  0.5615721E+03  0.7818608E-02  0.9988504E-01
         13   -1    0    0    0    0  0.00000000000E+00  0.00000000000E+00  0.10000000000E+04  0.10000000000E+04  0.00000000000E+00 0. -1.
          2   -1    0    0  501    0 -0.00000000000E+00 -0.00000000000E+00 -0.78840816508E+02  0.78840816508E+02  0.00000000000E+00 0. -1.
    9000006    2    1    2  501    0  0.00000000000E+00  0.00000000000E+00  0.92115918349E+03  0.10788408165E+04  0.56157213787E+03 0.  0.
         13    1    3    3    0    0 -0.39930227305E+02  0.27669818573E+03  0.41031745903E+03  0.49650450776E+03  0.00000000000E+00 0. -1.
          4    1    3    3  501    0  0.39930227305E+02 -0.27669818573E+03  0.51084172446E+03  0.58233630875E+03  0.00000000000E+00 0. -1.
<mgrwt>
<rscale>  0 0.56157214E+03</rscale>
<asrwt>0</asrwt>
<pdfrwt beam="1">0</pdfrwt>
<pdfrwt beam="2">  1        2 0.28669448E+00 0.56157214E+03</pdfrwt>
<totfact> 0.10301404E+01</totfact>
</mgrwt>
</event>
<event>
 5    1  0.2354746E-004  0.6473934E+03  0.7818608E-02  0.9811683E-01
         13   -1    0    0    0    0  0.00000000000E+00  0.00000000000E+00  0.10000000000E+04  0.10000000000E+04  0.00000000000E+00 0. -1.
          2   -1    0    0  501    0 -0.00000000000E+00 -0.00000000000E+00 -0.10477955591E+03  0.10477955591E+03  0.00000000000E+00 0. -1.
    9000006    2    1    2  501    0  0.00000000000E+00  0.00000000000E+00  0.89522044409E+03  0.11047795559E+04  0.64739340715E+03 0.  0.
         13    1    3    3    0    0  0.30288688785E+03 -0.73188463883E+02  0.29803498137E+03  0.43118658165E+03  0.00000000000E+00 0. -1.
          2    1    3    3  501    0 -0.30288688785E+03  0.73188463883E+02  0.59718546273E+03  0.67359297426E+03  0.00000000000E+00 0. -1.
<mgrwt>
<rscale>  0 0.64739341E+03</rscale>
<asrwt>0</asrwt>
<pdfrwt beam="1">0</pdfrwt>
<pdfrwt beam="2">  1        2 0.38101737E+00 0.64739341E+03</pdfrwt>
<totfact> 0.46872822E+00</totfact>
</mgrwt>
</event>
<event>
 5    1  0.2354746E-004  0.6550456E+03  0.7818608E-02  0.9797357E-01
         13   -1    0    0    0    0  0.00000000000E+00  0.00000000000E+00  0.10000000000E+04  0.10000000000E+04  0.00000000000E+00 0. -1.
          2   -1    0    0  501    0 -0.00000000000E+00 -0.00000000000E+00 -0.10727119483E+03  0.10727119483E+03  0.00000000000E+00 0. -1.
    9000006    2    1    2  501    0  0.00000000000E+00  0.00000000000E+00  0.89272880517E+03  0.11072711948E+04  0.65504563149E+03 0.  0.
         13    1    3    3    0    0  0.25758317745E+03 -0.81266020777E+02  0.13322117498E+03  0.30116630107E+03  0.00000000000E+00 0. -1.
          4    1    3    3  501    0 -0.25758317745E+03  0.81266020777E+02  0.75950763019E+03  0.80610489376E+03  0.00000000000E+00 0. -1.
<mgrwt>
<rscale>  0 0.65504563E+03</rscale>
<asrwt>0</asrwt>
<pdfrwt beam="1">0</pdfrwt>
<pdfrwt beam="2">  1        2 0.39007789E+00 0.65504563E+03</pdfrwt>
<totfact> 0.43359433E+00</totfact>
</mgrwt>
</event>
<event>
 5    1  0.2354746E-004  0.6612892E+03  0.7818608E-02  0.9785823E-01
         13   -1    0    0    0    0  0.00000000000E+00  0.00000000000E+00  0.10000000000E+04  0.10000000000E+04  0.00000000000E+00 0. -1.
          2   -1    0    0  501    0 -0.00000000000E+00 -0.00000000000E+00 -0.10932586763E+03  0.10932586763E+03  0.00000000000E+00 0. -1.
    9000006    2    1    2  501    0  0.00000000000E+00  0.00000000000E+00  0.89067413237E+03  0.11093258676E+04  0.66128924876E+03 0.  0.
         13    1    3    3    0    0 -0.70476661400E+02 -0.16651300776E+03  0.90971725334E+03  0.92751227625E+03  0.00000000000E+00 0. -1.
          2    1    3    3  501    0  0.70476661400E+02  0.16651300776E+03 -0.19043120975E+02  0.18181359139E+03  0.00000000000E+00 0. -1.
<mgrwt>
<rscale>  0 0.66128925E+03</rscale>
<asrwt>0</asrwt>
<pdfrwt beam="1">0</pdfrwt>
<pdfrwt beam="2">  1        2 0.39754945E+00 0.66128925E+03</pdfrwt>
<totfact> 0.40643389E+00</totfact>
</mgrwt>
</event>
<event>
 5    1  0.2354746E-004  0.6555502E+03  0.7818608E-02  0.9796420E-01
         13   -1    0    0    0    0  0.00000000000E+00  0.00000000000E+00  0.10000000000E+04  0.10000000000E+04  0.00000000000E+00 0. -1.
          2   -1    0    0  501    0 -0.00000000000E+00 -0.00000000000E+00 -0.10743652655E+03  0.10743652655E+03  0.00000000000E+00 0. -1.
    9000006    2    1    2  501    0  0.00000000000E+00  0.00000000000E+00  0.89256347345E+03  0.11074365266E+04  0.65555023165E+03 0.  0.
         13    1    3    3    0    0 -0.16418057748E+03 -0.12356873944E+03  0.14885122497E+02  0.20602442151E+03  0.00000000000E+00 0. -1.
          2    1    3    3  501    0  0.16418057748E+03  0.12356873944E+03  0.87767835095E+03  0.90141210504E+03  0.00000000000E+00 0. -1.
<mgrwt>
<rscale>  0 0.65555023E+03</rscale>
<asrwt>0</asrwt>
<pdfrwt beam="1">0</pdfrwt>
<pdfrwt beam="2">  1        2 0.39067910E+00 0.65555023E+03</pdfrwt>
<totfact> 0.43134967E+00</totfact>
</mgrwt>
</event>
<event>
 5    1  0.2354746E-004  0.6874572E+03  0.7818608E-02  0.9738926E-01
         13   -1    0    0    0    0  0.00000000000E+00  0.00000000000E+00  0.10000000000E+04  0.10000000000E+04  0.00000000000E+00 0. -1.
          2   -1    0    0  501    0 -0.00000000000E+00 -0.00000000000E+00 -0.11814933659E+03  0.11814933659E+03  0.00000000000E+00 0. -1.
    9000006    2    1    2  501    0  0.00000000000E+00  0.00000000000E+00  0.88185066341E+03  0.11181493366E+04  0.68745715965E+03 0.  0.
         13    1    3    3    0    0  0.12259397669E+03 -0.22823530572E+03  0.73506495041E+02  0.26930251152E+03  0.00000000000E+00 0. -1.
          2    1    3    3  501    0 -0.12259397669E+03  0.22823530572E+03  0.80834416837E+03  0.84884682507E+03  0.00000000000E+00 0. -1.
<mgrwt>
<rscale>  0 0.68745716E+03</rscale>
<asrwt>0</asrwt>
<pdfrwt beam="1">0</pdfrwt>
<pdfrwt beam="2">  1        2 0.42963486E+00 0.68745716E+03</pdfrwt>
<totfact> 0.30629174E+00</totfact>
</mgrwt>
</event>
<event>
 5    1  0.2354746E-004  0.6464000E+03  0.7818608E-02  0.9813558E-01
         13   -1    0    0    0    0  0.00000000000E+00  0.00000000000E+00  0.10000000000E+04  0.10000000000E+04  0.00000000000E+00 0. -1.
          2   -1    0    0  501    0 -0.00000000000E+00 -0.00000000000E+00 -0.10445823050E+03  0.10445823050E+03  0.00000000000E+00 0. -1.
    9000006    2    1    2  501    0  0.00000000000E+00  0.00000000000E+00  0.89554176950E+03  0.11044582305E+04  0.64639997061E+03 0.  0.
         13    1    3    3    0    0  0.16777357846E+03  0.26460729760E+03  0.58331633362E+03  0.66213513775E+03  0.00000000000E+00 0. -1.
          4    1    3    3  501    0 -0.16777357846E+03 -0.26460729760E+03  0.31222543588E+03  0.44232309276E+03  0.00000000000E+00 0. -1.
<mgrwt>
<rscale>  0 0.64639997E+03</rscale>
<asrwt>0</asrwt>
<pdfrwt beam="1">0</pdfrwt>
<pdfrwt beam="2">  1        2 0.37984891E+00 0.64639997E+03</pdfrwt>
<totfact> 0.47344241E+00</totfact>
</mgrwt>
</event>
<event>
 5    1  0.2354746E-004  0.6507099E+03  0.7818608E-02  0.9805448E-01
         13   -1    0    0    0    0  0.00000000000E+00  0.00000000000E+00  0.10000000000E+04  0.10000000000E+04  0.00000000000E+00 0. -1.
          2   -1    0    0  501    0 -0.00000000000E+00 -0.00000000000E+00 -0.10585583748E+03  0.10585583748E+03  0.00000000000E+00 0. -1.
    9000006    2    1    2  501    0  0.00000000000E+00  0.00000000000E+00  0.89414416252E+03  0.11058558375E+04  0.65070988152E+03 0.  0.
         13    1    3    3    0    0 -0.22802113358E+03  0.17476091140E+02  0.84036702916E+03  0.87092812265E+03  0.00000000000E+00 0. -1.
          2    1    3    3  501    0  0.22802113358E+03 -0.17476091140E+02  0.53777133360E+02  0.23492771483E+03  0.00000000000E+00 0. -1.
<mgrwt>
<rscale>  0 0.65070988E+03</rscale>
<asrwt>0</asrwt>
<pdfrwt beam="1">0</pdfrwt>
<pdfrwt beam="2">  1        2 0.38493113E+00 0.65070988E+03</pdfrwt>
<totfact> 0.45324702E+00</totfact>
</mgrwt>
</event>
<event>
 5    1  0.2354746E-004  0.6520651E+03  0.7818608E-02  0.9802912E-01
         13   -1    0    0    0    0  0.00000000000E+00  0.00000000000E+00  0.10000000000E+04  0.10000000000E+04  0.00000000000E+00 0. -1.
          2   -1    0    0  501    0 -0.00000000000E+00 -0.00000000000E+00 -0.10629720853E+03  0.10629720853E+03  0.00000000000E+00 0. -1.
    9000006    2    1    2  501    0  0.00000000000E+00  0.00000000000E+00  0.89370279147E+03  0.11062972085E+04  0.65206505361E+03 0.  0.
         13    1    3    3    0    0 -0.30554566953E+03  0.11361477721E+03  0.45625719754E+03  0.56074691625E+03  0.00000000000E+00 0. -1.
          4    1    3    3  501    0  0.30554566953E+03 -0.11361477721E+03  0.43744559393E+03  0.54555029229E+03  0.00000000000E+00 0. -1.
<mgrwt>
<rscale>  0 0.65206505E+03</rscale>
<asrwt>0</asrwt>
<pdfrwt beam="1">0</pdfrwt>
<pdfrwt beam="2">  1        2 0.38653612E+00 0.65206505E+03</pdfrwt>
<totfact> 0.44703362E+00</totfact>
</mgrwt>
</event>
<event>
 5    1  0.2354746E-004  0.6316793E+03  0.7818608E-02  0.9841777E-01
         13   -1    0    0    0    0  0.00000000000E+00  0.00000000000E+00  0.10000000000E+04  0.10000000000E+04  0.00000000000E+00 0. -1.
          2   -1    0    0  501    0 -0.00000000000E+00 -0.00000000000E+00 -0.99754672769E+02  0.99754672769E+02  0.00000000000E+00 0. -1.
    9000006    2    1    2  501    0  0.00000000000E+00  0.00000000000E+00  0.90024532723E+03  0.10997546728E+04  0.63167926282E+03 0.  0.
         13    1    3    3    0    0 -0.25216552958E+03 -0.17022891409E+03  0.59774210740E+03  0.67071675427E+03  0.00000000000E+00 0. -1.
          2    1    3    3  501    0  0.25216552958E+03  0.17022891409E+03  0.30250321983E+03  0.42903791850E+03  0.00000000000E+00 0. -1.
<mgrwt>
<rscale>  0 0.63167926E+03</rscale>
<asrwt>0</asrwt>
<pdfrwt beam="1">0</pdfrwt>
<pdfrwt beam="2">  1        2 0.36274503E+00 0.63167926E+03</pdfrwt>
<totfact> 0.54759943E+00</totfact>
</mgrwt>
</event>
<event>
 5    1  0.2354746E-004  0.4604093E+03  0.7818608E-02  0.1024663E+00
         13   -1    0    0    0    0  0.00000000000E+00  0.00000000000E+00  0.10000000000E+04  0.10000000000E+04  0.00000000000E+00 0. -1.
          2   -1    0    0  501    0 -0.00000000000E+00 -0.00000000000E+00 -0.52994190093E+02  0.52994190093E+02  0.00000000000E+00 0. -1.
    9000006    2    1    2  501    0  0.00000000000E+00  0.00000000000E+00  0.94700580991E+03  0.10529941901E+04  0.46040934001E+03 0.  0.
         13    1    3    3    0    0 -0.22309703447E+03  0.56654920342E+02  0.46553961883E+03  0.51933534782E+03  0.00000000000E+00 0. -1.
          4    1    3    3  501    0  0.22309703447E+03 -0.56654920342E+02  0.48146619107E+03  0.53365884227E+03  0.00000000000E+00 0. -1.
<mgrwt>
<rscale>  0 0.46040934E+03</rscale>
<asrwt>0</asrwt>
<pdfrwt beam="1">0</pdfrwt>
<pdfrwt beam="2">  1        2 0.19270655E+00 0.46040934E+03</pdfrwt>
<totfact> 0.22634342E+01</totfact>
</mgrwt>
</event>
<event>
 5    1  0.2354746E-004  0.6657622E+03  0.7818608E-02  0.9777644E-01
         13   -1    0    0    0    0  0.00000000000E+00  0.00000000000E+00  0.10000000000E+04  0.10000000000E+04  0.00000000000E+00 0. -1.
          2   -1    0    0  501    0 -0.00000000000E+00 -0.00000000000E+00 -0.11080981017E+03  0.11080981017E+03  0.00000000000E+00 0. -1.
    9000006    2    1    2  501    0  0.00000000000E+00  0.00000000000E+00  0.88919018983E+03  0.11108098102E+04  0.66576215023E+03 0.  0.
         13    1    3    3    0    0  0.99377370047E+02 -0.30261403025E+03  0.28318588818E+03  0.42619873328E+03  0.00000000000E+00 0. -1.
          2    1    3    3  501    0 -0.99377370047E+02  0.30261403025E+03  0.60600430165E+03  0.68461107689E+03  0.00000000000E+00 0. -1.
<mgrwt>
<rscale>  0 0.66576215E+03</rscale>
<asrwt>0</asrwt>
<pdfrwt beam="1">0</pdfrwt>
<pdfrwt beam="2">  1        2 0.40294561E+00 0.66576215E+03</pdfrwt>
<totfact> 0.38778135E+00</totfact>
</mgrwt>
</event>
<event>
 5    1  0.2354746E-004  0.6450159E+03  0.7818608E-02  0.9816177E-01
         13   -1    0    0    0    0  0.00000000000E+00  0.00000000000E+00  0.10000000000E+04  0.10000000000E+04  0.00000000000E+00 0. -1.
          2   -1    0    0  501    0 -0.00000000000E+00 -0.00000000000E+00 -0.10401136882E+03  0.10401136882E+03  0.00000000000E+00 0. -1.
    9000006    2    1    2  501    0  0.00000000000E+00  0.00000000000E+00  0.89598863118E+03  0.11040113688E+04  0.64501587213E+03 0.  0.
         13    1    3    3    0    0  0.13576114727E+03 -0.28713554485E+03  0.35218337035E+03  0.47424786407E+03  0.00000000000E+00 0. -1.
          2    1    3    3  501    0 -0.13576114727E+03  0.28713554485E+03  0.54380526083E+03  0.62976350476E+03  0.00000000000E+00 0. -1.
<mgrwt>
<rscale>  0 0.64501587E+03</rscale>
<asrwt>0</asrwt>
<pdfrwt beam="1">0</pdfrwt>
<pdfrwt beam="2">  1        2 0.37822396E+00 0.64501587E+03</pdfrwt>
<totfact> 0.48007012E+00</totfact>
</mgrwt>
</event>
<event>
 5    1  0.2354746E-004  0.6411148E+03  0.7818608E-02  0.9823596E-01
         13   -1    0    0    0    0  0.00000000000E+00  0.00000000000E+00  0.10000000000E+04  0.10000000000E+04  0.00000000000E+00 0. -1.
          2   -1    0    0  501    0 -0.00000000000E+00 -0.00000000000E+00 -0.10275704243E+03  0.10275704243E+03  0.00000000000E+00 0. -1.
    9000006    2    1    2  501    0  0.00000000000E+00  0.00000000000E+00  0.89724295757E+03  0.11027570424E+04  0.64111478669E+03 0.  0.
         13    1    3    3    0    0 -0.31948370072E+03 -0.99641833889E+01  0.40691494772E+03  0.51744458124E+03  0.00000000000E+00 0. -1.
          4    1    3    3  501    0  0.31948370072E+03  0.99641833889E+01  0.49032800986E+03  0.58531246119E+03  0.00000000000E+00 0. -1.
<mgrwt>
<rscale>  0 0.64111479E+03</rscale>
<asrwt>0</asrwt>
<pdfrwt beam="1">0</pdfrwt>
<pdfrwt beam="2">  1        2 0.37366276E+00 0.64111479E+03</pdfrwt>
<totfact> 0.49912924E+00</totfact>
</mgrwt>
</event>
<event>
 5    1  0.2354746E-004  0.4930433E+03  0.7818608E-02  0.1015611E+00
         13   -1    0    0    0    0  0.00000000000E+00  0.00000000000E+00  0.10000000000E+04  0.10000000000E+04  0.00000000000E+00 0. -1.
          2   -1    0    0  501    0 -0.00000000000E+00 -0.00000000000E+00 -0.60772927919E+02  0.60772927919E+02  0.00000000000E+00 0. -1.
    9000006    2    1    2  501    0  0.00000000000E+00  0.00000000000E+00  0.93922707208E+03  0.10607729279E+04  0.49304331623E+03 0.  0.
         13    1    3    3    0    0  0.23034687030E+03 -0.38228312539E+02  0.63972806094E+03  0.68100886667E+03  0.00000000000E+00 0. -1.
          2    1    3    3  501    0 -0.23034687030E+03  0.38228312539E+02  0.29949901114E+03  0.37976406124E+03  0.00000000000E+00 0. -1.
<mgrwt>
<rscale>  0 0.49304332E+03</rscale>
<asrwt>0</asrwt>
<pdfrwt beam="1">0</pdfrwt>
<pdfrwt beam="2">  1        2 0.22099293E+00 0.49304332E+03</pdfrwt>
<totfact> 0.17759557E+01</totfact>
</mgrwt>
</event>
<event>
 5    1  0.2354746E-004  0.6438898E+03  0.7818608E-02  0.9818313E-01
         13   -1    0    0    0    0  0.00000000000E+00  0.00000000000E+00  0.10000000000E+04  0.10000000000E+04  0.00000000000E+00 0. -1.
          2   -1    0    0  501    0 -0.00000000000E+00 -0.00000000000E+00 -0.10364851689E+03  0.10364851689E+03  0.00000000000E+00 0. -1.
    9000006    2    1    2  501    0  0.00000000000E+00  0.00000000000E+00  0.89635148311E+03  0.11036485169E+04  0.64388979457E+03 0.  0.
         13    1    3    3    0    0  0.23374894485E+03  0.52439125823E+02  0.79518763295E+02  0.25241169714E+03  0.00000000000E+00 0. -1.
          2    1    3    3  501    0 -0.23374894485E+03 -0.52439125823E+02  0.81683271982E+03  0.85123681975E+03  0.00000000000E+00 0. -1.
<mgrwt>
<rscale>  0 0.64388979E+03</rscale>
<asrwt>0</asrwt>
<pdfrwt beam="1">0</pdfrwt>
<pdfrwt beam="2">  1        2 0.37690449E+00 0.64388979E+03</pdfrwt>
<totfact> 0.48551389E+00</totfact>
</mgrwt>
</event>
<event>
 5    1  0.2354746E-004  0.6578387E+03  0.7818608E-02  0.9792181E-01
         13   -1    0    0    0    0  0.00000000000E+00  0.00000000000E+00  0.10000000000E+04  0.10000000000E+04  0.00000000000E+00 0. -1.
          2   -1    0    0  501    0 -0.00000000000E+00 -0.00000000000E+00 -0.10818795397E+03  0.10818795397E+03  0.00000000000E+00 0. -1.
    9000006    2    1    2  501    0  0.00000000000E+00  0.00000000000E+00  0.89181204603E+03  0.11081879540E+04  0.65783874610E+03 0.  0.
         13    1    3    3    0    0 -0.43072534378E+02  0.29383967850E+03  0.20772303647E+03  0.36241669355E+03  0.00000000000E+00 0. -1.
          2    1    3    3  501    0  0.43072534378E+02 -0.29383967850E+03  0.68408900956E+03  0.74577126042E+03  0.00000000000E+00 0. -1.
<mgrwt>
<rscale>  0 0.65783875E+03</rscale>
<asrwt>0</asrwt>
<pdfrwt beam="1">0</pdfrwt>
<pdfrwt beam="2">  1        2 0.39341157E+00 0.65783875E+03</pdfrwt>
<totfact> 0.42127939E+00</totfact>
</mgrwt>
</event>
<event>
 5    1  0.2354746E-004  0.6507899E+03  0.7818608E-02  0.9805298E-01
         13   -1    0    0    0    0  0.00000000000E+00  0.00000000000E+00  0.10000000000E+04  0.10000000000E+04  0.00000000000E+00 0. -1.
          2   -1    0    0  501    0 -0.00000000000E+00 -0.00000000000E+00 -0.10588186098E+03  0.10588186098E+03  0.00000000000E+00 0. -1.
    9000006    2    1    2  501    0  0.00000000000E+00  0.00000000000E+00  0.89411813902E+03  0.11058818610E+04  0.65078986156E+03 0.  0.
         13    1    3    3    0    0 -0.28833676624E+03  0.14128361456E+03  0.35741904488E+03  0.48046594484E+03  0.00000000000E+00 0. -1.
          4    1    3    3  501    0  0.28833676624E+03 -0.14128361456E+03  0.53669909414E+03  0.62541591614E+03  0.00000000000E+00 0. -1.
<mgrwt>
<rscale>  0 0.65078986E+03</rscale>
<asrwt>0</asrwt>
<pdfrwt beam="1">0</pdfrwt>
<pdfrwt beam="2">  1        2 0.38502576E+00 0.65078986E+03</pdfrwt>
<totfact> 0.45287852E+00</totfact>
</mgrwt>
</event>
<event>
 5    1  0.2354746E-004  0.6466845E+03  0.7818608E-02  0.9813020E-01
         13   -1    0    0    0    0  0.00000000000E+00  0.00000000000E+00  0.10000000000E+04  0.10000000000E+04  0.00000000000E+00 0. -1.
          2   -1    0    0  501    0 -0.00000000000E+00 -0.00000000000E+00 -0.10455020232E+03  0.10455020232E+03  0.00000000000E+00 0. -1.
    9000006    2    1    2  501    0  0.00000000000E+00  0.00000000000E+00  0.89544979768E+03  0.11045502023E+04  0.64668447429E+03 0.  0.
         13    1    3    3    0    0 -0.29017770418E+03 -0.13507580595E+03  0.52602657305E+03  0.61575362679E+03  0.00000000000E+00 0. -1.
          2    1    3    3  501    0  0.29017770418E+03  0.13507580595E+03  0.36942322463E+03  0.48879657553E+03  0.00000000000E+00 0. -1.
<mgrwt>
<rscale>  0 0.64668447E+03</rscale>
<asrwt>0</asrwt>
<pdfrwt beam="1">0</pdfrwt>
<pdfrwt beam="2">  1        2 0.38018336E+00 0.64668447E+03</pdfrwt>
<totfact> 0.47208870E+00</totfact>
</mgrwt>
</event>
<event>
 5    1  0.2354746E-004  0.6190856E+03  0.7818608E-02  0.9866582E-01
         13   -1    0    0    0    0  0.00000000000E+00  0.00000000000E+00  0.10000000000E+04  0.10000000000E+04  0.00000000000E+00 0. -1.
          2   -1    0    0  501    0 -0.00000000000E+00 -0.00000000000E+00 -0.95816742592E+02  0.95816742592E+02  0.00000000000E+00 0. -1.
    9000006    2    1    2  501    0  0.00000000000E+00  0.00000000000E+00  0.90418325741E+03  0.10958167426E+04  0.61908559212E+03 0.  0.
         13    1    3    3    0    0  0.20284951642E+03  0.18175739981E+03  0.71243483623E+03  0.76272345878E+03  0.00000000000E+00 0. -1.
          4    1    3    3  501    0 -0.20284951642E+03 -0.18175739981E+03  0.19174842118E+03  0.33309328381E+03  0.00000000000E+00 0. -1.
<mgrwt>
<rscale>  0 0.61908559E+03</rscale>
<asrwt>0</asrwt>
<pdfrwt beam="1">0</pdfrwt>
<pdfrwt beam="2">  1        2 0.34842525E+00 0.61908559E+03</pdfrwt>
<totfact> 0.61776651E+00</totfact>
</mgrwt>
</event>
<event>
 5    1  0.2354746E-004  0.6039367E+03  0.7818608E-02  0.9897272E-01
         13   -1    0    0    0    0  0.00000000000E+00  0.00000000000E+00  0.10000000000E+04  0.10000000000E+04  0.00000000000E+00 0. -1.
          2   -1    0    0  501    0 -0.00000000000E+00 -0.00000000000E+00 -0.91184875941E+02  0.91184875941E+02  0.00000000000E+00 0. -1.
    9000006    2    1    2  501    0  0.00000000000E+00  0.00000000000E+00  0.90881512406E+03  0.10911848759E+04  0.60393667198E+03 0.  0.
         13    1    3    3    0    0 -0.17343011251E+03 -0.23908490674E+03  0.34092063978E+03  0.45107258749E+03  0.00000000000E+00 0. -1.
          4    1    3    3  501    0  0.17343011251E+03  0.23908490674E+03  0.56789448428E+03  0.64011228845E+03  0.00000000000E+00 0. -1.
<mgrwt>
<rscale>  0 0.60393667E+03</rscale>
<asrwt>0</asrwt>
<pdfrwt beam="1">0</pdfrwt>
<pdfrwt beam="2">  1        2 0.33158207E+00 0.60393667E+03</pdfrwt>
<totfact> 0.71102356E+00</totfact>
</mgrwt>
</event>
<event>
 5    1  0.2354746E-004  0.6644523E+03  0.7818608E-02  0.9780032E-01
         13   -1    0    0    0    0  0.00000000000E+00  0.00000000000E+00  0.10000000000E+04  0.10000000000E+04  0.00000000000E+00 0. -1.
          2   -1    0    0  501    0 -0.00000000000E+00 -0.00000000000E+00 -0.11037423033E+03  0.11037423033E+03  0.00000000000E+00 0. -1.
    9000006    2    1    2  501    0  0.00000000000E+00  0.00000000000E+00  0.88962576967E+03  0.11103742303E+04  0.66445234690E+03 0.  0.
         13    1    3    3    0    0 -0.20175291384E+03 -0.12817721973E+03  0.83040396073E+03  0.86412057948E+03  0.00000000000E+00 0. -1.
          4    1    3    3  501    0  0.20175291384E+03  0.12817721973E+03  0.59221808948E+02  0.24625365084E+03  0.00000000000E+00 0. -1.
<mgrwt>
<rscale>  0 0.66445235E+03</rscale>
<asrwt>0</asrwt>
<pdfrwt beam="1">0</pdfrwt>
<pdfrwt beam="2">  1        2 0.40136168E+00 0.66445235E+03</pdfrwt>
<totfact> 0.39317507E+00</totfact>
</mgrwt>
</event>
<event>
 5    1  0.2354746E-004  0.6327973E+03  0.7818608E-02  0.9839605E-01
         13   -1    0    0    0    0  0.00000000000E+00  0.00000000000E+00  0.10000000000E+04  0.10000000000E+04  0.00000000000E+00 0. -1.
          2   -1    0    0  501    0 -0.00000000000E+00 -0.00000000000E+00 -0.10010810347E+03  0.10010810347E+03  0.00000000000E+00 0. -1.
    9000006    2    1    2  501    0  0.00000000000E+00  0.00000000000E+00  0.89989189653E+03  0.11001081035E+04  0.63279729287E+03 0.  0.
         13    1    3    3    0    0 -0.64725016962E+02  0.53635283656E+02  0.98023217164E+03  0.98382985409E+03  0.00000000000E+00 0. -1.
          4    1    3    3  501    0  0.64725016962E+02 -0.53635283656E+02 -0.80340275109E+02  0.11627824938E+03  0.00000000000E+00 0. -1.
<mgrwt>
<rscale>  0 0.63279729E+03</rscale>
<asrwt>0</asrwt>
<pdfrwt beam="1">0</pdfrwt>
<pdfrwt beam="2">  1        2 0.36403023E+00 0.63279729E+03</pdfrwt>
<totfact> 0.54167722E+00</totfact>
</mgrwt>
</event>
<event>
 5    1  0.2354746E-004  0.6587156E+03  0.7818608E-02  0.9790561E-01
         13   -1    0    0    0    0  0.00000000000E+00  0.00000000000E+00  0.10000000000E+04  0.10000000000E+04  0.00000000000E+00 0. -1.
          2   -1    0    0  501    0 -0.00000000000E+00 -0.00000000000E+00 -0.10847654777E+03  0.10847654777E+03  0.00000000000E+00 0. -1.
    9000006    2    1    2  501    0  0.00000000000E+00  0.00000000000E+00  0.89152345223E+03  0.11084765478E+04  0.65871556159E+03 0.  0.
         13    1    3    3    0    0  0.10873222026E+03  0.29245973143E+03  0.62322299485E+03  0.69696649241E+03  0.00000000000E+00 0. -1.
          4    1    3    3  501    0 -0.10873222026E+03 -0.29245973143E+03  0.26830045738E+03  0.41151005536E+03  0.00000000000E+00 0. -1.
<mgrwt>
<rscale>  0 0.65871556E+03</rscale>
<asrwt>0</asrwt>
<pdfrwt beam="1">0</pdfrwt>
<pdfrwt beam="2">  1        2 0.39446101E+00 0.65871556E+03</pdfrwt>
<totfact> 0.41746870E+00</totfact>
</mgrwt>
</event>
<event>
 5    1  0.2354746E-004  0.6197899E+03  0.7818608E-02  0.9865178E-01
         13   -1    0    0    0    0  0.00000000000E+00  0.00000000000E+00  0.10000000000E+04  0.10000000000E+04  0.00000000000E+00 0. -1.
          2   -1    0    0  501    0 -0.00000000000E+00 -0.00000000000E+00 -0.96034888692E+02  0.96034888692E+02  0.00000000000E+00 0. -1.
    9000006    2    1    2  501    0  0.00000000000E+00  0.00000000000E+00  0.90396511131E+03  0.10960348887E+04  0.61978992793E+03 0.  0.
         13    1    3    3    0    0 -0.71936334926E+02 -0.10043265149E+03 -0.50607477027E+02  0.13350157489E+03  0.00000000000E+00 0. -1.
          4    1    3    3  501    0  0.71936334926E+02  0.10043265149E+03  0.95457258834E+03  0.96253331380E+03  0.00000000000E+00 0. -1.
<mgrwt>
<rscale>  0 0.61978993E+03</rscale>
<asrwt>0</asrwt>
<pdfrwt beam="1">0</pdfrwt>
<pdfrwt beam="2">  1        2 0.34921851E+00 0.61978993E+03</pdfrwt>
<totfact> 0.61367070E+00</totfact>
</mgrwt>
</event>
<event>
 5    1  0.2354746E-004  0.6180701E+03  0.7818608E-02  0.9868610E-01
         13   -1    0    0    0    0  0.00000000000E+00  0.00000000000E+00  0.10000000000E+04  0.10000000000E+04  0.00000000000E+00 0. -1.
          2   -1    0    0  501    0 -0.00000000000E+00 -0.00000000000E+00 -0.95502656288E+02  0.95502656288E+02  0.00000000000E+00 0. -1.
    9000006    2    1    2  501    0  0.00000000000E+00  0.00000000000E+00  0.90449734371E+03  0.10955026563E+04  0.61807008110E+03 0.  0.
         13    1    3    3    0    0 -0.49703677783E+02 -0.27801044069E+03  0.22986078700E+03  0.36413766918E+03  0.00000000000E+00 0. -1.
          4    1    3    3  501    0  0.49703677783E+02  0.27801044069E+03  0.67463655671E+03  0.73136498711E+03  0.00000000000E+00 0. -1.
<mgrwt>
<rscale>  0 0.61807008E+03</rscale>
<asrwt>0</asrwt>
<pdfrwt beam="1">0</pdfrwt>
<pdfrwt beam="2">  1        2 0.34728312E+00 0.61807008E+03</pdfrwt>
<totfact> 0.62370845E+00</totfact>
</mgrwt>
</event>
<event>
 5    1  0.2354746E-004  0.6604264E+03  0.7818608E-02  0.9787409E-01
         13   -1    0    0    0    0  0.00000000000E+00  0.00000000000E+00  0.10000000000E+04  0.10000000000E+04  0.00000000000E+00 0. -1.
          2   -1    0    0  501    0 -0.00000000000E+00 -0.00000000000E+00 -0.10904076105E+03  0.10904076105E+03  0.00000000000E+00 0. -1.
    9000006    2    1    2  501    0  0.00000000000E+00  0.00000000000E+00  0.89095923895E+03  0.11090407611E+04  0.66042641090E+03 0.  0.
         13    1    3    3    0    0 -0.87948632528E+02 -0.23828088060E+03  0.79983560474E+03  0.83919588574E+03  0.00000000000E+00 0. -1.
          4    1    3    3  501    0  0.87948632528E+02  0.23828088060E+03  0.91123634206E+02  0.26984487532E+03  0.00000000000E+00 0. -1.
<mgrwt>
<rscale>  0 0.66042641E+03</rscale>
<asrwt>0</asrwt>
<pdfrwt beam="1">0</pdfrwt>
<pdfrwt beam="2">  1        2 0.39651269E+00 0.66042641E+03</pdfrwt>
<totfact> 0.41010850E+00</totfact>
</mgrwt>
</event>
<event>
 5    1  0.2354746E-004  0.6463383E+03  0.7818608E-02  0.9813675E-01
         13   -1    0    0    0    0  0.00000000000E+00  0.00000000000E+00  0.10000000000E+04  0.10000000000E+04  0.00000000000E+00 0. -1.
          2   -1    0    0  501    0 -0.00000000000E+00 -0.00000000000E+00 -0.10443828571E+03  0.10443828571E+03  0.00000000000E+00 0. -1.
    9000006    2    1    2  501    0  0.00000000000E+00  0.00000000000E+00  0.89556171429E+03  0.11044382857E+04  0.64633825728E+03 0.  0.
         13    1    3    3    0    0 -0.18859683213E+02 -0.31909240445E+03  0.52906182878E+03  0.61812787423E+03  0.00000000000E+00 0. -1.
          2    1    3    3  501    0  0.18859683213E+02  0.31909240445E+03  0.36649988551E+03  0.48631041147E+03  0.00000000000E+00 0. -1.
<mgrwt>
<rscale>  0 0.64633826E+03</rscale>
<asrwt>0</asrwt>
<pdfrwt beam="1">0</pdfrwt>
<pdfrwt beam="2">  1        2 0.37977639E+00 0.64633826E+03</pdfrwt>
<totfact> 0.47373644E+00</totfact>
</mgrwt>
</event>
<event>
 5    1  0.2354746E-004  0.6389729E+03  0.7818608E-02  0.9827694E-01
         13   -1    0    0    0    0  0.00000000000E+00  0.00000000000E+00  0.10000000000E+04  0.10000000000E+04  0.00000000000E+00 0. -1.
          2   -1    0    0  501    0 -0.00000000000E+00 -0.00000000000E+00 -0.10207159705E+03  0.10207159705E+03  0.00000000000E+00 0. -1.
    9000006    2    1    2  501    0  0.00000000000E+00  0.00000000000E+00  0.89792840295E+03  0.11020715971E+04  0.63897291665E+03 0.  0.
         13    1    3    3    0    0 -0.21888158162E+03 -0.16718210047E+03  0.72820725120E+03  0.77855301823E+03  0.00000000000E+00 0. -1.
          2    1    3    3  501    0  0.21888158162E+03  0.16718210047E+03  0.16972115174E+03  0.32351857882E+03  0.00000000000E+00 0. -1.
<mgrwt>
<rscale>  0 0.63897292E+03</rscale>
<asrwt>0</asrwt>
<pdfrwt beam="1">0</pdfrwt>
<pdfrwt beam="2">  1        2 0.37117023E+00 0.63897292E+03</pdfrwt>
<totfact> 0.50983471E+00</totfact>
</mgrwt>
</event>
<event>
 5    1  0.2354746E-004  0.6591208E+03  0.7818608E-02  0.9789814E-01
         13   -1    0    0    0    0  0.00000000000E+00  0.00000000000E+00  0.10000000000E+04  0.10000000000E+04  0.00000000000E+00 0. -1.
          2   -1    0    0  501    0 -0.00000000000E+00 -0.00000000000E+00 -0.10861005132E+03  0.10861005132E+03  0.00000000000E+00 0. -1.
    9000006    2    1    2  501    0  0.00000000000E+00  0.00000000000E+00  0.89138994868E+03  0.11086100513E+04  0.65912078202E+03 0.  0.
         13    1    3    3    0    0  0.14162510102E+03 -0.26682058816E+03  0.22409071298E+03  0.37612171321E+03  0.00000000000E+00 0. -1.
          4    1    3    3  501    0 -0.14162510102E+03  0.26682058816E+03  0.66729923570E+03  0.73248833811E+03  0.00000000000E+00 0. -1.
<mgrwt>
<rscale>  0 0.65912078E+03</rscale>
<asrwt>0</asrwt>
<pdfrwt beam="1">0</pdfrwt>
<pdfrwt beam="2">  1        2 0.39494647E+00 0.65912078E+03</pdfrwt>
<totfact> 0.41571647E+00</totfact>
</mgrwt>
</event>
<event>
 5    1  0.2354746E-004  0.6106475E+03  0.7818608E-02  0.9883559E-01
         13   -1    0    0    0    0  0.00000000000E+00  0.00000000000E+00  0.10000000000E+04  0.10000000000E+04  0.00000000000E+00 0. -1.
          2   -1    0    0  501    0 -0.00000000000E+00 -0.00000000000E+00 -0.93222599691E+02  0.93222599691E+02  0.00000000000E+00 0. -1.
    9000006    2    1    2  501    0  0.00000000000E+00  0.00000000000E+00  0.90677740031E+03  0.10932225997E+04  0.61064752416E+03 0.  0.
         13    1    3    3    0    0 -0.17906492710E+02  0.10030060460E+02 -0.91986216235E+02  0.94248122376E+02  0.00000000000E+00 0. -1.
          2    1    3    3  501    0  0.17906492710E+02 -0.10030060460E+02  0.99876361654E+03  0.99897447732E+03  0.00000000000E+00 0. -1.
<mgrwt>
<rscale>  0 0.61064752E+03</rscale>
<asrwt>0</asrwt>
<pdfrwt beam="1">0</pdfrwt>
<pdfrwt beam="2">  1        2 0.33899199E+00 0.61064752E+03</pdfrwt>
<totfact> 0.66847293E+00</totfact>
</mgrwt>
</event>
<event>
 5    1  0.2354746E-004  0.6540651E+03  0.7818608E-02  0.9799181E-01
         13   -1    0    0    0    0  0.00000000000E+00  0.00000000000E+00  0.10000000000E+04  0.10000000000E+04  0.00000000000E+00 0. -1.
          2   -1    0    0  501    0 -0.00000000000E+00 -0.00000000000E+00 -0.10695029404E+03  0.10695029404E+03  0.00000000000E+00 0. -1.
    9000006    2    1    2  501    0  0.00000000000E+00  0.00000000000E+00  0.89304970596E+03  0.11069502940E+04  0.65406511615E+03 0.  0.
         13    1    3    3    0    0  0.22962123275E+03 -0.22026114118E+03  0.31864478160E+03  0.45030587125E+03  0.00000000000E+00 0. -1.
          2    1    3    3  501    0 -0.22962123275E+03  0.22026114118E+03  0.57440492436E+03  0.65664442279E+03  0.00000000000E+00 0. -1.
<mgrwt>
<rscale>  0 0.65406512E+03</rscale>
<asrwt>0</asrwt>
<pdfrwt beam="1">0</pdfrwt>
<pdfrwt beam="2">  1        2 0.38891098E+00 0.65406512E+03</pdfrwt>
<totfact> 0.43798126E+00</totfact>
</mgrwt>
</event>
<event>
 5    1  0.2354746E-004  0.6485565E+03  0.7818608E-02  0.9809492E-01
         13   -1    0    0    0    0  0.00000000000E+00  0.00000000000E+00  0.10000000000E+04  0.10000000000E+04  0.00000000000E+00 0. -1.
          2   -1    0    0  501    0 -0.00000000000E+00 -0.00000000000E+00 -0.10515637020E+03  0.10515637020E+03  0.00000000000E+00 0. -1.
    9000006    2    1    2  501    0  0.00000000000E+00  0.00000000000E+00  0.89484362980E+03  0.11051563702E+04  0.64855645924E+03 0.  0.
         13    1    3    3    0    0  0.31665004237E+03 -0.25514886490E+02  0.33648846484E+03  0.46275560044E+03  0.00000000000E+00 0. -1.
          4    1    3    3  501    0 -0.31665004237E+03  0.25514886490E+02  0.55835516496E+03  0.64240076977E+03  0.00000000000E+00 0. -1.
<mgrwt>
<rscale>  0 0.64855646E+03</rscale>
<asrwt>0</asrwt>
<pdfrwt beam="1">0</pdfrwt>
<pdfrwt beam="2">  1        2 0.38238761E+00 0.64855646E+03</pdfrwt>
<totfact> 0.46325434E+00</totfact>
</mgrwt>
</event>
<event>
 5    1  0.2354746E-004  0.7439225E+03  0.7818608E-02  0.9644934E-01
         13   -1    0    0    0    0  0.00000000000E+00  0.00000000000E+00  0.10000000000E+04  0.10000000000E+04  0.00000000000E+00 0. -1.
          2   -1    0    0  501    0 -0.00000000000E+00 -0.00000000000E+00 -0.13835515665E+03  0.13835515665E+03  0.00000000000E+00 0. -1.
    9000006    2    1    2  501    0  0.00000000000E+00  0.00000000000E+00  0.86164484335E+03  0.11383551566E+04  0.74392246007E+03 0.  0.
         13    1    3    3    0    0  0.23702813976E+03 -0.37671263091E+02  0.86566424294E+03  0.89831845389E+03  0.00000000000E+00 0. -1.
          2    1    3    3  501    0 -0.23702813976E+03  0.37671263091E+02 -0.40193995868E+01  0.24003670276E+03  0.00000000000E+00 0. -1.
<mgrwt>
<rscale>  0 0.74392246E+03</rscale>
<asrwt>0</asrwt>
<pdfrwt beam="1">0</pdfrwt>
<pdfrwt beam="2">  1        2 0.50311072E+00 0.74392246E+03</pdfrwt>
<totfact> 0.15403890E+00</totfact>
</mgrwt>
</event>
<event>
 5    1  0.2354746E-004  0.6504547E+03  0.7818608E-02  0.9805926E-01
         13   -1    0    0    0    0  0.00000000000E+00  0.00000000000E+00  0.10000000000E+04  0.10000000000E+04  0.00000000000E+00 0. -1.
          2   -1    0    0  501    0 -0.00000000000E+00 -0.00000000000E+00 -0.10577281702E+03  0.10577281702E+03  0.00000000000E+00 0. -1.
    9000006    2    1    2  501    0  0.00000000000E+00  0.00000000000E+00  0.89422718298E+03  0.11057728170E+04  0.65045466258E+03 0.  0.
         13    1    3    3    0    0  0.66401703444E+01  0.47312857937E+01  0.99982623151E+03  0.99985947519E+03  0.00000000000E+00 0. -1.
          2    1    3    3  501    0 -0.66401703444E+01 -0.47312857937E+01 -0.10559904852E+03  0.10591334182E+03  0.00000000000E+00 0. -1.
<mgrwt>
<rscale>  0 0.65045466E+03</rscale>
<asrwt>0</asrwt>
<pdfrwt beam="1">0</pdfrwt>
<pdfrwt beam="2">  1        2 0.38462924E+00 0.65045466E+03</pdfrwt>
<totfact> 0.45442445E+00</totfact>
</mgrwt>
</event>
<event>
 5    1  0.2354746E-004  0.6571975E+03  0.7818608E-02  0.9793366E-01
         13   -1    0    0    0    0  0.00000000000E+00  0.00000000000E+00  0.10000000000E+04  0.10000000000E+04  0.00000000000E+00 0. -1.
          2   -1    0    0  501    0 -0.00000000000E+00 -0.00000000000E+00 -0.10797714630E+03  0.10797714630E+03  0.00000000000E+00 0. -1.
    9000006    2    1    2  501    0  0.00000000000E+00  0.00000000000E+00  0.89202285370E+03  0.11079771463E+04  0.65719752374E+03 0.  0.
         13    1    3    3    0    0  0.80951541606E+02  0.31378318159E+03  0.35422425653E+03  0.48009151320E+03  0.00000000000E+00 0. -1.
          4    1    3    3  501    0 -0.80951541606E+02 -0.31378318159E+03  0.53779859717E+03  0.62788563310E+03  0.00000000000E+00 0. -1.
<mgrwt>
<rscale>  0 0.65719752E+03</rscale>
<asrwt>0</asrwt>
<pdfrwt beam="1">0</pdfrwt>
<pdfrwt beam="2">  1        2 0.39264500E+00 0.65719752E+03</pdfrwt>
<totfact> 0.42408290E+00</totfact>
</mgrwt>
</event>
<event>
 5    1  0.2354746E-004  0.6281293E+03  0.7818608E-02  0.9848706E-01
         13   -1    0    0    0    0  0.00000000000E+00  0.00000000000E+00  0.10000000000E+04  0.10000000000E+04  0.00000000000E+00 0. -1.
          2   -1    0    0  501    0 -0.00000000000E+00 -0.00000000000E+00 -0.98636592013E+02  0.98636592013E+02  0.00000000000E+00 0. -1.
    9000006    2    1    2  501    0  0.00000000000E+00  0.00000000000E+00  0.90136340799E+03  0.10986365920E+04  0.62812926062E+03 0.  0.
         13    1    3    3    0    0  0.19311277079E+03 -0.30125953471E+02  0.20695418426E+02  0.19654112969E+03  0.00000000000E+00 0. -1.
          2    1    3    3  501    0 -0.19311277079E+03  0.30125953471E+02  0.88066798956E+03  0.90209546233E+03  0.00000000000E+00 0. -1.
<mgrwt>
<rscale>  0 0.62812926E+03</rscale>
<asrwt>0</asrwt>
<pdfrwt beam="1">0</pdfrwt>
<pdfrwt beam="2">  1        2 0.35867927E+00 0.62812926E+03</pdfrwt>
<totfact> 0.56673002E+00</totfact>
</mgrwt>
</event>
<event>
 5    1  0.2354746E-004  0.6478590E+03  0.7818608E-02  0.9810805E-01
         13   -1    0    0    0    0  0.00000000000E+00  0.00000000000E+00  0.10000000000E+04  0.10000000000E+04  0.00000000000E+00 0. -1.
          2   -1    0    0  501    0 -0.00000000000E+00 -0.00000000000E+00 -0.10493031315E+03  0.10493031315E+03  0.00000000000E+00 0. -1.
    9000006    2    1    2  501    0  0.00000000000E+00  0.00000000000E+00  0.89506968685E+03  0.11049303131E+04  0.64785897585E+03 0.  0.
         13    1    3    3    0    0 -0.30856460135E+03  0.20309893089E+02  0.61205879160E+03  0.68574089081E+03  0.00000000000E+00 0. -1.
          2    1    3    3  501    0  0.30856460135E+03 -0.20309893089E+02  0.28301089525E+03  0.41918942233E+03  0.00000000000E+00 0. -1.
<mgrwt>
<rscale>  0 0.64785898E+03</rscale>
<asrwt>0</asrwt>
<pdfrwt beam="1">0</pdfrwt>
<pdfrwt beam="2">  1        2 0.38156558E+00 0.64785898E+03</pdfrwt>
<totfact> 0.46653120E+00</totfact>
</mgrwt>
</event>
<event>
 5    1  0.2354746E-004  0.6512935E+03  0.7818608E-02  0.9804355E-01
         13   -1    0    0    0    0  0.00000000000E+00  0.00000000000E+00  0.10000000000E+04  0.10000000000E+04  0.00000000000E+00 0. -1.
          2   -1    0    0  501    0 -0.00000000000E+00 -0.00000000000E+00 -0.10604580391E+03  0.10604580391E+03  0.00000000000E+00 0. -1.
    9000006    2    1    2  501    0  0.00000000000E+00  0.00000000000E+00  0.89395419609E+03  0.11060458039E+04  0.65129349425E+03 0.  0.
         13    1    3    3    0    0 -0.14776913400E+03 -0.23426541561E+03  0.73781495643E+03  0.78809067489E+03  0.00000000000E+00 0. -1.
          4    1    3    3  501    0  0.14776913400E+03  0.23426541561E+03  0.15613923966E+03  0.31795512903E+03  0.00000000000E+00 0. -1.
<mgrwt>
<rscale>  0 0.65129349E+03</rscale>
<asrwt>0</asrwt>
<pdfrwt beam="1">0</pdfrwt>
<pdfrwt beam="2">  1        2 0.38562192E+00 0.65129349E+03</pdfrwt>
<totfact> 0.45056324E+00</totfact>
</mgrwt>
</event>
<event>
 5    1  0.2354746E-004  0.6450323E+03  0.7818608E-02  0.9816146E-01
         13   -1    0    0    0    0  0.00000000000E+00  0.00000000000E+00  0.10000000000E+04  0.10000000000E+04  0.00000000000E+00 0. -1.
          2   -1    0    0  501    0 -0.00000000000E+00 -0.00000000000E+00 -0.10401666403E+03  0.10401666403E+03  0.00000000000E+00 0. -1.
    9000006    2    1    2  501    0  0.00000000000E+00  0.00000000000E+00  0.89598333597E+03  0.11040166640E+04  0.64503229075E+03 0.  0.
         13    1    3    3    0    0 -0.16531299313E+03 -0.27653093964E+03  0.42266753063E+03  0.53145610141E+03  0.00000000000E+00 0. -1.
          2    1    3    3  501    0  0.16531299313E+03  0.27653093964E+03  0.47331580534E+03  0.57256056262E+03  0.00000000000E+00 0. -1.
<mgrwt>
<rscale>  0 0.64503229E+03</rscale>
<asrwt>0</asrwt>
<pdfrwt beam="1">0</pdfrwt>
<pdfrwt beam="2">  1        2 0.37824321E+00 0.64503229E+03</pdfrwt>
<totfact> 0.47999109E+00</totfact>
</mgrwt>
</event>
<event>
 5    1  0.2354746E-004  0.6491551E+03  0.7818608E-02  0.9808366E-01
         13   -1    0    0    0    0  0.00000000000E+00  0.00000000000E+00  0.10000000000E+04  0.10000000000E+04  0.00000000000E+00 0. -1.
          2   -1    0    0  501    0 -0.00000000000E+00 -0.00000000000E+00 -0.10535057859E+03  0.10535057859E+03  0.00000000000E+00 0. -1.
    9000006    2    1    2  501    0  0.00000000000E+00  0.00000000000E+00  0.89464942141E+03  0.11053505786E+04  0.64915507728E+03 0.  0.
         13    1    3    3    0    0 -0.17797232635E+02 -0.32387625544E+03  0.42732129636E+03  0.53648491185E+03  0.00000000000E+00 0. -1.
          2    1    3    3  501    0  0.17797232635E+02  0.32387625544E+03  0.46732812505E+03  0.56886566674E+03  0.00000000000E+00 0. -1.
<mgrwt>
<rscale>  0 0.64915508E+03</rscale>
<asrwt>0</asrwt>
<pdfrwt beam="1">0</pdfrwt>
<pdfrwt beam="2">  1        2 0.38309382E+00 0.64915508E+03</pdfrwt>
<totfact> 0.46045587E+00</totfact>
</mgrwt>
</event>
<event>
 5    1  0.2354746E-004  0.6476234E+03  0.7818608E-02  0.9811249E-01
         13   -1    0    0    0    0  0.00000000000E+00  0.00000000000E+00  0.10000000000E+04  0.10000000000E+04  0.00000000000E+00 0. -1.
          2   -1    0    0  501    0 -0.00000000000E+00 -0.00000000000E+00 -0.10485400786E+03  0.10485400786E+03  0.00000000000E+00 0. -1.
    9000006    2    1    2  501    0  0.00000000000E+00  0.00000000000E+00  0.89514599214E+03  0.11048540079E+04  0.64762337159E+03 0.  0.
         13    1    3    3    0    0  0.98352982828E+02  0.21295091231E+03  0.82841004273E+03  0.86097886105E+03  0.00000000000E+00 0. -1.
          4    1    3    3  501    0 -0.98352982828E+02 -0.21295091231E+03  0.66735949417E+02  0.24387514681E+03  0.00000000000E+00 0. -1.
<mgrwt>
<rscale>  0 0.64762337E+03</rscale>
<asrwt>0</asrwt>
<pdfrwt beam="1">0</pdfrwt>
<pdfrwt beam="2">  1        2 0.38128811E+00 0.64762337E+03</pdfrwt>
<totfact> 0.46764204E+00</totfact>
</mgrwt>
</event>
<event>
 5    1  0.2354746E-004  0.6045415E+03  0.7818608E-02  0.9896028E-01
         13   -1    0    0    0    0  0.00000000000E+00  0.00000000000E+00  0.10000000000E+04  0.10000000000E+04  0.00000000000E+00 0. -1.
          2   -1    0    0  501    0 -0.00000000000E+00 -0.00000000000E+00 -0.91367616879E+02  0.91367616879E+02  0.00000000000E+00 0. -1.
    9000006    2    1    2  501    0  0.00000000000E+00  0.00000000000E+00  0.90863238312E+03  0.10913676169E+04  0.60454153498E+03 0.  0.
         13    1    3    3    0    0 -0.10807416714E+03 -0.27041209125E+03  0.30804502745E+03  0.42390383772E+03  0.00000000000E+00 0. -1.
          2    1    3    3  501    0  0.10807416714E+03  0.27041209125E+03  0.60058735567E+03  0.66746377916E+03  0.00000000000E+00 0. -1.
<mgrwt>
<rscale>  0 0.60454153E+03</rscale>
<asrwt>0</asrwt>
<pdfrwt beam="1">0</pdfrwt>
<pdfrwt beam="2">  1        2 0.33224658E+00 0.60454153E+03</pdfrwt>
<totfact> 0.70710566E+00</totfact>
</mgrwt>
</event>
<event>
 5    1  0.2354746E-004  0.6468781E+03  0.7818608E-02  0.9812655E-01
         13   -1    0    0    0    0  0.00000000000E+00  0.00000000000E+00  0.10000000000E+04  0.10000000000E+04  0.00000000000E+00 0. -1.
          2   -1    0    0  501    0 -0.00000000000E+00 -0.00000000000E+00 -0.10461283260E+03  0.10461283260E+03  0.00000000000E+00 0. -1.
    9000006    2    1    2  501    0  0.00000000000E+00  0.00000000000E+00  0.89538716740E+03  0.11046128326E+04  0.64687814186E+03 0.  0.
         13    1    3    3    0    0 -0.33598156484E+02 -0.11259836122E+03  0.96226296096E+03  0.96941076593E+03  0.00000000000E+00 0. -1.
          4    1    3    3  501    0  0.33598156484E+02  0.11259836122E+03 -0.66875793563E+02  0.13520206667E+03  0.00000000000E+00 0. -1.
<mgrwt>
<rscale>  0 0.64687814E+03</rscale>
<asrwt>0</asrwt>
<pdfrwt beam="1">0</pdfrwt>
<pdfrwt beam="2">  1        2 0.38041110E+00 0.64687814E+03</pdfrwt>
<totfact> 0.47116888E+00</totfact>
</mgrwt>
</event>
<event>
 5    1  0.2354746E-004  0.6152443E+03  0.7818608E-02  0.9874274E-01
         13   -1    0    0    0    0  0.00000000000E+00  0.00000000000E+00  0.10000000000E+04  0.10000000000E+04  0.00000000000E+00 0. -1.
          2   -1    0    0  501    0 -0.00000000000E+00 -0.00000000000E+00 -0.94631381048E+02  0.94631381048E+02  0.00000000000E+00 0. -1.
    9000006    2    1    2  501    0  0.00000000000E+00  0.00000000000E+00  0.90536861895E+03  0.10946313810E+04  0.61524428010E+03 0.  0.
         13    1    3    3    0    0 -0.25124059707E+03 -0.57678601025E+01  0.76833880337E+03  0.80839323512E+03  0.00000000000E+00 0. -1.
          2    1    3    3  501    0  0.25124059707E+03  0.57678601025E+01  0.13702981559E+03  0.28623814593E+03  0.00000000000E+00 0. -1.
<mgrwt>
<rscale>  0 0.61524428E+03</rscale>
<asrwt>0</asrwt>
<pdfrwt beam="1">0</pdfrwt>
<pdfrwt beam="2">  1        2 0.34411484E+00 0.61524428E+03</pdfrwt>
<totfact> 0.64047199E+00</totfact>
</mgrwt>
</event>
<event>
 5    1  0.2354746E-004  0.6606595E+03  0.7818608E-02  0.9786980E-01
         13   -1    0    0    0    0  0.00000000000E+00  0.00000000000E+00  0.10000000000E+04  0.10000000000E+04  0.00000000000E+00 0. -1.
          2   -1    0    0  501    0 -0.00000000000E+00 -0.00000000000E+00 -0.10911773598E+03  0.10911773598E+03  0.00000000000E+00 0. -1.
    9000006    2    1    2  501    0  0.00000000000E+00  0.00000000000E+00  0.89088226402E+03  0.11091177360E+04  0.66065947653E+03 0.  0.
         13    1    3    3    0    0 -0.20832525292E+02  0.26859473170E+03  0.76635455992E+03  0.81232778822E+03  0.00000000000E+00 0. -1.
          4    1    3    3  501    0  0.20832525292E+02 -0.26859473170E+03  0.12452770410E+03  0.29678994776E+03  0.00000000000E+00 0. -1.
<mgrwt>
<rscale>  0 0.66065948E+03</rscale>
<asrwt>0</asrwt>
<pdfrwt beam="1">0</pdfrwt>
<pdfrwt beam="2">  1        2 0.39679260E+00 0.66065948E+03</pdfrwt>
<totfact> 0.40911347E+00</totfact>
</mgrwt>
</event>
<event>
 5    1  0.2354746E-004  0.7140309E+03  0.7818608E-02  0.9693534E-01
         13   -1    0    0    0    0  0.00000000000E+00  0.00000000000E+00  0.10000000000E+04  0.10000000000E+04  0.00000000000E+00 0. -1.
          2   -1    0    0  501    0 -0.00000000000E+00 -0.00000000000E+00 -0.12746004839E+03  0.12746004839E+03  0.00000000000E+00 0. -1.
    9000006    2    1    2  501    0  0.00000000000E+00  0.00000000000E+00  0.87253995161E+03  0.11274600484E+04  0.71403094720E+03 0.  0.
         13    1    3    3    0    0 -0.31531951905E+03 -0.58062472344E+02  0.18829846802E+03  0.37182517780E+03  0.00000000000E+00 0. -1.
          2    1    3    3  501    0  0.31531951905E+03  0.58062472344E+02  0.68424148359E+03  0.75563487059E+03  0.00000000000E+00 0. -1.
<mgrwt>
<rscale>  0 0.71403095E+03</rscale>
<asrwt>0</asrwt>
<pdfrwt beam="1">0</pdfrwt>
<pdfrwt beam="2">  1        2 0.46349206E+00 0.71403095E+03</pdfrwt>
<totfact> 0.22486494E+00</totfact>
</mgrwt>
</event>
<event>
 5    1  0.2354746E-004  0.6909150E+03  0.7818608E-02  0.9732896E-01
         13   -1    0    0    0    0  0.00000000000E+00  0.00000000000E+00  0.10000000000E+04  0.10000000000E+04  0.00000000000E+00 0. -1.
          2   -1    0    0  501    0 -0.00000000000E+00 -0.00000000000E+00 -0.11934088639E+03  0.11934088639E+03  0.00000000000E+00 0. -1.
    9000006    2    1    2  501    0  0.00000000000E+00  0.00000000000E+00  0.88065911361E+03  0.11193408864E+04  0.69091500605E+03 0.  0.
         13    1    3    3    0    0  0.30758809389E+03 -0.91723249095E+02  0.64727784789E+03  0.72249027834E+03  0.00000000000E+00 0. -1.
          4    1    3    3  501    0 -0.30758809389E+03  0.91723249095E+02  0.23338126572E+03  0.39685060806E+03  0.00000000000E+00 0. -1.
<mgrwt>
<rscale>  0 0.69091501E+03</rscale>
<asrwt>0</asrwt>
<pdfrwt beam="1">0</pdfrwt>
<pdfrwt beam="2">  1        2 0.43396777E+00 0.69091501E+03</pdfrwt>
<totfact> 0.29460584E+00</totfact>
</mgrwt>
</event>
<event>
 5    1  0.2354746E-004  0.6451668E+03  0.7818608E-02  0.9815891E-01
         13   -1    0    0    0    0  0.00000000000E+00  0.00000000000E+00  0.10000000000E+04  0.10000000000E+04  0.00000000000E+00 0. -1.
          2   -1    0    0  501    0 -0.00000000000E+00 -0.00000000000E+00 -0.10406005972E+03  0.10406005972E+03  0.00000000000E+00 0. -1.
    9000006    2    1    2  501    0  0.00000000000E+00  0.00000000000E+00  0.89593994028E+03  0.11040600597E+04  0.64516683028E+03 0.  0.
         13    1    3    3    0    0 -0.30777684111E+03  0.96367740941E+02  0.43627124429E+03  0.54253656468E+03  0.00000000000E+00 0. -1.
          2    1    3    3  501    0  0.30777684111E+03 -0.96367740941E+02  0.45966869598E+03  0.56152349504E+03  0.00000000000E+00 0. -1.
<mgrwt>
<rscale>  0 0.64516683E+03</rscale>
<asrwt>0</asrwt>
<pdfrwt beam="1">0</pdfrwt>
<pdfrwt beam="2">  1        2 0.37840102E+00 0.64516683E+03</pdfrwt>
<totfact> 0.47934387E+00</totfact>
</mgrwt>
</event>
<event>
 5    1  0.2354746E-004  0.6502741E+03  0.7818608E-02  0.9806265E-01
         13   -1    0    0    0    0  0.00000000000E+00  0.00000000000E+00  0.10000000000E+04  0.10000000000E+04  0.00000000000E+00 0. -1.
          2   -1    0    0  501    0 -0.00000000000E+00 -0.00000000000E+00 -0.10571411277E+03  0.10571411277E+03  0.00000000000E+00 0. -1.
    9000006    2    1    2  501    0  0.00000000000E+00  0.00000000000E+00  0.89428588723E+03  0.11057141128E+04  0.65027413534E+03 0.  0.
         13    1    3    3    0    0 -0.15280747230E+03 -0.23988547667E+03  0.17926432508E+03  0.33620063021E+03  0.00000000000E+00 0. -1.
          4    1    3    3  501    0  0.15280747230E+03  0.23988547667E+03  0.71502156215E+03  0.76951348256E+03  0.00000000000E+00 0. -1.
<mgrwt>
<rscale>  0 0.65027414E+03</rscale>
<asrwt>0</asrwt>
<pdfrwt beam="1">0</pdfrwt>
<pdfrwt beam="2">  1        2 0.38441577E+00 0.65027414E+03</pdfrwt>
<totfact> 0.45525869E+00</totfact>
</mgrwt>
</event>
<event>
 5    1  0.2354746E-004  0.6415222E+03  0.7818608E-02  0.9822819E-01
         13   -1    0    0    0    0  0.00000000000E+00  0.00000000000E+00  0.10000000000E+04  0.10000000000E+04  0.00000000000E+00 0. -1.
          2   -1    0    0  501    0 -0.00000000000E+00 -0.00000000000E+00 -0.10288768108E+03  0.10288768108E+03  0.00000000000E+00 0. -1.
    9000006    2    1    2  501    0  0.00000000000E+00  0.00000000000E+00  0.89711231892E+03  0.11028876811E+04  0.64152219315E+03 0.  0.
         13    1    3    3    0    0 -0.13038528267E+03  0.11707919621E+03  0.91043439797E+03  0.92714543256E+03  0.00000000000E+00 0. -1.
          2    1    3    3  501    0  0.13038528267E+03 -0.11707919621E+03 -0.13322079042E+02  0.17574224851E+03  0.00000000000E+00 0. -1.
<mgrwt>
<rscale>  0 0.64152219E+03</rscale>
<asrwt>0</asrwt>
<pdfrwt beam="1">0</pdfrwt>
<pdfrwt beam="2">  1        2 0.37413781E+00 0.64152219E+03</pdfrwt>
<totfact> 0.49711237E+00</totfact>
</mgrwt>
</event>
<event>
 5    1  0.2354746E-004  0.6642396E+03  0.7818608E-02  0.9780420E-01
         13   -1    0    0    0    0  0.00000000000E+00  0.00000000000E+00  0.10000000000E+04  0.10000000000E+04  0.00000000000E+00 0. -1.
          2   -1    0    0  501    0 -0.00000000000E+00 -0.00000000000E+00 -0.11030356829E+03  0.11030356829E+03  0.00000000000E+00 0. -1.
    9000006    2    1    2  501    0  0.00000000000E+00  0.00000000000E+00  0.88969643171E+03  0.11103035683E+04  0.66423962029E+03 0.  0.
         13    1    3    3    0    0  0.10302381227E+03 -0.14581704369E+03  0.91296035629E+03  0.93025433527E+03  0.00000000000E+00 0. -1.
          2    1    3    3  501    0 -0.10302381227E+03  0.14581704369E+03 -0.23263924579E+02  0.18004923302E+03  0.00000000000E+00 0. -1.
<mgrwt>
<rscale>  0 0.66423962E+03</rscale>
<asrwt>0</asrwt>
<pdfrwt beam="1">0</pdfrwt>
<pdfrwt beam="2">  1        2 0.40110473E+00 0.66423962E+03</pdfrwt>
<totfact> 0.39405638E+00</totfact>
</mgrwt>
</event>
<event>
 5    1  0.2354746E-004  0.6449472E+03  0.7818608E-02  0.9816307E-01
         13   -1    0    0    0    0  0.00000000000E+00  0.00000000000E+00  0.10000000000E+04  0.10000000000E+04  0.00000000000E+00 0. -1.
          2   -1    0    0  501    0 -0.00000000000E+00 -0.00000000000E+00 -0.10398922372E+03  0.10398922372E+03  0.00000000000E+00 0. -1.
    9000006    2    1    2  501    0  0.00000000000E+00  0.00000000000E+00  0.89601077628E+03  0.11039892237E+04  0.64494720316E+03 0.  0.
         13    1    3    3    0    0 -0.18821976271E+03  0.25919379057E+03  0.51162000850E+03  0.60362499388E+03  0.00000000000E+00 0. -1.
          4    1    3    3  501    0  0.18821976271E+03 -0.25919379057E+03  0.38439076778E+03  0.50036422984E+03  0.00000000000E+00 0. -1.
<mgrwt>
<rscale>  0 0.64494720E+03</rscale>
<asrwt>0</asrwt>
<pdfrwt beam="1">0</pdfrwt>
<pdfrwt beam="2">  1        2 0.37814343E+00 0.64494720E+03</pdfrwt>
<totfact> 0.48040075E+00</totfact>
</mgrwt>
</event>
<event>
 5    1  0.2354746E-004  0.6451234E+03  0.7818608E-02  0.9815973E-01
         13   -1    0    0    0    0  0.00000000000E+00  0.00000000000E+00  0.10000000000E+04  0.10000000000E+04  0.00000000000E+00 0. -1.
          2   -1    0    0  501    0 -0.00000000000E+00 -0.00000000000E+00 -0.10404605345E+03  0.10404605345E+03  0.00000000000E+00 0. -1.
    9000006    2    1    2  501    0  0.00000000000E+00  0.00000000000E+00  0.89595394655E+03  0.11040460534E+04  0.64512340974E+03 0.  0.
         13    1    3    3    0    0  0.13612982452E+03 -0.17758409777E+03  0.50368851659E+02  0.22935662651E+03  0.00000000000E+00 0. -1.
          2    1    3    3  501    0 -0.13612982452E+03  0.17758409777E+03  0.84558509489E+03  0.87468942694E+03  0.00000000000E+00 0. -1.
<mgrwt>
<rscale>  0 0.64512341E+03</rscale>
<asrwt>0</asrwt>
<pdfrwt beam="1">0</pdfrwt>
<pdfrwt beam="2">  1        2 0.37835008E+00 0.64512341E+03</pdfrwt>
<totfact> 0.47955268E+00</totfact>
</mgrwt>
</event>
<event>
 5    1  0.2354746E-004  0.6485794E+03  0.7818608E-02  0.9809449E-01
         13   -1    0    0    0    0  0.00000000000E+00  0.00000000000E+00  0.10000000000E+04  0.10000000000E+04  0.00000000000E+00 0. -1.
          2   -1    0    0  501    0 -0.00000000000E+00 -0.00000000000E+00 -0.10516380552E+03  0.10516380552E+03  0.00000000000E+00 0. -1.
    9000006    2    1    2  501    0  0.00000000000E+00  0.00000000000E+00  0.89483619448E+03  0.11051638055E+04  0.64857938765E+03 0.  0.
         13    1    3    3    0    0 -0.20709602108E+03  0.18023273342E+03  0.74152657854E+03  0.79071756451E+03  0.00000000000E+00 0. -1.
          2    1    3    3  501    0  0.20709602108E+03 -0.18023273342E+03  0.15330961594E+03  0.31444624101E+03  0.00000000000E+00 0. -1.
<mgrwt>
<rscale>  0 0.64857939E+03</rscale>
<asrwt>0</asrwt>
<pdfrwt beam="1">0</pdfrwt>
<pdfrwt beam="2">  1        2 0.38241464E+00 0.64857939E+03</pdfrwt>
<totfact> 0.46314692E+00</totfact>
</mgrwt>
</event>
<event>
 5    1  0.2354746E-004  0.6457431E+03  0.7818608E-02  0.9814800E-01
         13   -1    0    0    0    0  0.00000000000E+00  0.00000000000E+00  0.10000000000E+04  0.10000000000E+04  0.00000000000E+00 0. -1.
          2   -1    0    0  501    0 -0.00000000000E+00 -0.00000000000E+00 -0.10424605385E+03  0.10424605385E+03  0.00000000000E+00 0. -1.
    9000006    2    1    2  501    0  0.00000000000E+00  0.00000000000E+00  0.89575394615E+03  0.11042460539E+04  0.64574314971E+03 0.  0.
         13    1    3    3    0    0 -0.15555997322E+03  0.31706020333E+02  0.92864399560E+03  0.94211668468E+03  0.00000000000E+00 0. -1.
          2    1    3    3  501    0  0.15555997322E+03 -0.31706020333E+02 -0.32890049451E+02  0.16212936917E+03  0.00000000000E+00 0. -1.
<mgrwt>
<rscale>  0 0.64574315E+03</rscale>
<asrwt>0</asrwt>
<pdfrwt beam="1">0</pdfrwt>
<pdfrwt beam="2">  1        2 0.37907736E+00 0.64574315E+03</pdfrwt>
<totfact> 0.47657889E+00</totfact>
</mgrwt>
</event>
<event>
 5    1  0.2354746E-004  0.6238672E+03  0.7818608E-02  0.9857090E-01
         13   -1    0    0    0    0  0.00000000000E+00  0.00000000000E+00  0.10000000000E+04  0.10000000000E+04  0.00000000000E+00 0. -1.
          2   -1    0    0  501    0 -0.00000000000E+00 -0.00000000000E+00 -0.97302573997E+02  0.97302573997E+02  0.00000000000E+00 0. -1.
    9000006    2    1    2  501    0  0.00000000000E+00  0.00000000000E+00  0.90269742600E+03  0.10973025740E+04  0.62386721022E+03 0.  0.
         13    1    3    3    0    0  0.34214927562E+02 -0.19064443008E+03  0.21281616626E+02  0.19485601657E+03  0.00000000000E+00 0. -1.
          2    1    3    3  501    0 -0.34214927562E+02  0.19064443008E+03  0.88141580938E+03  0.90244655742E+03  0.00000000000E+00 0. -1.
<mgrwt>
<rscale>  0 0.62386721E+03</rscale>
<asrwt>0</asrwt>
<pdfrwt beam="1">0</pdfrwt>
<pdfrwt beam="2">  1        2 0.35382829E+00 0.62386721E+03</pdfrwt>
<totfact> 0.59036516E+00</totfact>
</mgrwt>
</event>
<event>
 5    1  0.2354746E-004  0.6564160E+03  0.7818608E-02  0.9794814E-01
         13   -1    0    0    0    0  0.00000000000E+00  0.00000000000E+00  0.10000000000E+04  0.10000000000E+04  0.00000000000E+00 0. -1.
          2   -1    0    0  501    0 -0.00000000000E+00 -0.00000000000E+00 -0.10772048120E+03  0.10772048120E+03  0.00000000000E+00 0. -1.
    9000006    2    1    2  501    0  0.00000000000E+00  0.00000000000E+00  0.89227951880E+03  0.11077204812E+04  0.65641596934E+03 0.  0.
         13    1    3    3    0    0  0.41936928393E+02  0.78288925440E+02  0.97933624805E+03  0.98335514874E+03  0.00000000000E+00 0. -1.
          2    1    3    3  501    0 -0.41936928393E+02 -0.78288925440E+02 -0.87056729251E+02  0.12436533246E+03  0.00000000000E+00 0. -1.
<mgrwt>
<rscale>  0 0.65641597E+03</rscale>
<asrwt>0</asrwt>
<pdfrwt beam="1">0</pdfrwt>
<pdfrwt beam="2">  1        2 0.39171167E+00 0.65641597E+03</pdfrwt>
<totfact> 0.42751898E+00</totfact>
</mgrwt>
</event>
<event>
 5    1  0.2354746E-004  0.6253692E+03  0.7818608E-02  0.9854127E-01
         13   -1    0    0    0    0  0.00000000000E+00  0.00000000000E+00  0.10000000000E+04  0.10000000000E+04  0.00000000000E+00 0. -1.
          2   -1    0    0  501    0 -0.00000000000E+00 -0.00000000000E+00 -0.97771659355E+02  0.97771659355E+02  0.00000000000E+00 0. -1.
    9000006    2    1    2  501    0  0.00000000000E+00  0.00000000000E+00  0.90222834065E+03  0.10977716594E+04  0.62536920089E+03 0.  0.
         13    1    3    3    0    0  0.98252107670E+02 -0.16636308861E+03  0.19552204762E+02  0.19419691714E+03  0.00000000000E+00 0. -1.
          2    1    3    3  501    0 -0.98252107670E+02  0.16636308861E+03  0.88267613588E+03  0.90357474222E+03  0.00000000000E+00 0. -1.
<mgrwt>
<rscale>  0 0.62536920E+03</rscale>
<asrwt>0</asrwt>
<pdfrwt beam="1">0</pdfrwt>
<pdfrwt beam="2">  1        2 0.35553406E+00 0.62536920E+03</pdfrwt>
<totfact> 0.58195181E+00</totfact>
</mgrwt>
</event>
<event>
 5    1  0.2354746E-004  0.6607553E+03  0.7818608E-02  0.9786804E-01
         13   -1    0    0    0    0  0.00000000000E+00  0.00000000000E+00  0.10000000000E+04  0.10000000000E+04  0.00000000000E+00 0. -1.
          2   -1    0    0  501    0 -0.00000000000E+00 -0.00000000000E+00 -0.10914937728E+03  0.10914937728E+03  0.00000000000E+00 0. -1.
    9000006    2    1    2  501    0  0.00000000000E+00  0.00000000000E+00  0.89085062272E+03  0.11091493773E+04  0.66075525658E+03 0.  0.
         13    1    3    3    0    0  0.10944464209E+02 -0.20751240920E+02  0.99859998712E+03  0.99887553258E+03  0.00000000000E+00 0. -1.
          2    1    3    3  501    0 -0.10944464209E+02  0.20751240920E+02 -0.10774936440E+03  0.11027384470E+03  0.00000000000E+00 0. -1.
<mgrwt>
<rscale>  0 0.66075526E+03</rscale>
<asrwt>0</asrwt>
<pdfrwt beam="1">0</pdfrwt>
<pdfrwt beam="2">  1        2 0.39690766E+00 0.66075526E+03</pdfrwt>
<totfact> 0.40870509E+00</totfact>
</mgrwt>
</event>
<event>
 5    1  0.2354746E-004  0.6535652E+03  0.7818608E-02  0.9800112E-01
         13   -1    0    0    0    0  0.00000000000E+00  0.00000000000E+00  0.10000000000E+04  0.10000000000E+04  0.00000000000E+00 0. -1.
          2   -1    0    0  501    0 -0.00000000000E+00 -0.00000000000E+00 -0.10678685149E+03  0.10678685149E+03  0.00000000000E+00 0. -1.
    9000006    2    1    2  501    0  0.00000000000E+00  0.00000000000E+00  0.89321314851E+03  0.11067868515E+04  0.65356515050E+03 0.  0.
         13    1    3    3    0    0  0.61318405373E+02  0.15194796086E+02  0.98956085380E+03  0.99157526796E+03  0.00000000000E+00 0. -1.
          4    1    3    3  501    0 -0.61318405373E+02 -0.15194796086E+02 -0.96347705281E+02  0.11521158353E+03  0.00000000000E+00 0. -1.
<mgrwt>
<rscale>  0 0.65356515E+03</rscale>
<asrwt>0</asrwt>
<pdfrwt beam="1">0</pdfrwt>
<pdfrwt beam="2">  1        2 0.38831664E+00 0.65356515E+03</pdfrwt>
<totfact> 0.44023102E+00</totfact>
</mgrwt>
</event>
<event>
 5    1  0.2354746E-004  0.6555201E+03  0.7818608E-02  0.9796476E-01
         13   -1    0    0    0    0  0.00000000000E+00  0.00000000000E+00  0.10000000000E+04  0.10000000000E+04  0.00000000000E+00 0. -1.
          2   -1    0    0  501    0 -0.00000000000E+00 -0.00000000000E+00 -0.10742664393E+03  0.10742664393E+03  0.00000000000E+00 0. -1.
    9000006    2    1    2  501    0  0.00000000000E+00  0.00000000000E+00  0.89257335607E+03  0.11074266439E+04  0.65552008034E+03 0.  0.
         13    1    3    3    0    0  0.97681085016E+01 -0.25379959038E+03  0.96306356611E+02  0.27163313926E+03  0.00000000000E+00 0. -1.
          4    1    3    3  501    0 -0.97681085016E+01  0.25379959038E+03  0.79626699946E+03  0.83579350467E+03  0.00000000000E+00 0. -1.
<mgrwt>
<rscale>  0 0.65552008E+03</rscale>
<asrwt>0</asrwt>
<pdfrwt beam="1">0</pdfrwt>
<pdfrwt beam="2">  1        2 0.39064317E+00 0.65552008E+03</pdfrwt>
<totfact> 0.43148354E+00</totfact>
</mgrwt>
</event>
<event>
 5    1  0.2354746E-004  0.6381307E+03  0.7818608E-02  0.9829310E-01
         13   -1    0    0    0    0  0.00000000000E+00  0.00000000000E+00  0.10000000000E+04  0.10000000000E+04  0.00000000000E+00 0. -1.
          2   -1    0    0  501    0 -0.00000000000E+00 -0.00000000000E+00 -0.10180269910E+03  0.10180269910E+03  0.00000000000E+00 0. -1.
    9000006    2    1    2  501    0  0.00000000000E+00  0.00000000000E+00  0.89819730090E+03  0.11018026991E+04  0.63813070480E+03 0.  0.
         13    1    3    3    0    0  0.20583115617E+03 -0.22768703756E+02  0.86819852033E+03  0.89255450781E+03  0.00000000000E+00 0. -1.
          2    1    3    3  501    0 -0.20583115617E+03  0.22768703756E+02  0.29998780571E+02  0.20924819129E+03  0.00000000000E+00 0. -1.
<mgrwt>
<rscale>  0 0.63813070E+03</rscale>
<asrwt>0</asrwt>
<pdfrwt beam="1">0</pdfrwt>
<pdfrwt beam="2">  1        2 0.37019241E+00 0.63813070E+03</pdfrwt>
<totfact> 0.51409153E+00</totfact>
</mgrwt>
</event>
<event>
 5    1  0.2354746E-004  0.6496893E+03  0.7818608E-02  0.9807362E-01
         13   -1    0    0    0    0  0.00000000000E+00  0.00000000000E+00  0.10000000000E+04  0.10000000000E+04  0.00000000000E+00 0. -1.
          2   -1    0    0  501    0 -0.00000000000E+00 -0.00000000000E+00 -0.10552403233E+03  0.10552403233E+03  0.00000000000E+00 0. -1.
    9000006    2    1    2  501    0  0.00000000000E+00  0.00000000000E+00  0.89447596767E+03  0.11055240323E+04  0.64968925596E+03 0.  0.
         13    1    3    3    0    0  0.11700225276E+03  0.14344669995E+03 -0.69942442948E+01  0.18524416949E+03  0.00000000000E+00 0. -1.
          4    1    3    3  501    0 -0.11700225276E+03 -0.14344669995E+03  0.90147021197E+03  0.92027986284E+03  0.00000000000E+00 0. -1.
<mgrwt>
<rscale>  0 0.64968926E+03</rscale>
<asrwt>0</asrwt>
<pdfrwt beam="1">0</pdfrwt>
<pdfrwt beam="2">  1        2 0.38372456E+00 0.64968926E+03</pdfrwt>
<totfact> 0.45796945E+00</totfact>
</mgrwt>
</event>
<event>
 5    1  0.2354746E-004  0.6441910E+03  0.7818608E-02  0.9817741E-01
         13   -1    0    0    0    0  0.00000000000E+00  0.00000000000E+00  0.10000000000E+04  0.10000000000E+04  0.00000000000E+00 0. -1.
          2   -1    0    0  501    0 -0.00000000000E+00 -0.00000000000E+00 -0.10374552682E+03  0.10374552682E+03  0.00000000000E+00 0. -1.
    9000006    2    1    2  501    0  0.00000000000E+00  0.00000000000E+00  0.89625447318E+03  0.11037455268E+04  0.64419104873E+03 0.  0.
         13    1    3    3    0    0  0.74034708017E+02  0.28174988538E+03  0.68356236485E+03  0.74304888301E+03  0.00000000000E+00 0. -1.
          4    1    3    3  501    0 -0.74034708017E+02 -0.28174988538E+03  0.21269210833E+03  0.36069664380E+03  0.00000000000E+00 0. -1.
<mgrwt>
<rscale>  0 0.64419105E+03</rscale>
<asrwt>0</asrwt>
<pdfrwt beam="1">0</pdfrwt>
<pdfrwt beam="2">  1        2 0.37725726E+00 0.64419105E+03</pdfrwt>
<totfact> 0.48405299E+00</totfact>
</mgrwt>
</event>
<event>
 5    1  0.2354746E-004  0.6629408E+03  0.7818608E-02  0.9782795E-01
         13   -1    0    0    0    0  0.00000000000E+00  0.00000000000E+00  0.10000000000E+04  0.10000000000E+04  0.00000000000E+00 0. -1.
          2   -1    0    0  501    0 -0.00000000000E+00 -0.00000000000E+00 -0.10987262875E+03  0.10987262875E+03  0.00000000000E+00 0. -1.
    9000006    2    1    2  501    0  0.00000000000E+00  0.00000000000E+00  0.89012737125E+03  0.11098726288E+04  0.66294080808E+03 0.  0.
         13    1    3    3    0    0  0.18248567557E+03 -0.26341141647E+03  0.58698348237E+03  0.66875720908E+03  0.00000000000E+00 0. -1.
          4    1    3    3  501    0 -0.18248567557E+03  0.26341141647E+03  0.30314388887E+03  0.44111541968E+03  0.00000000000E+00 0. -1.
<mgrwt>
<rscale>  0 0.66294081E+03</rscale>
<asrwt>0</asrwt>
<pdfrwt beam="1">0</pdfrwt>
<pdfrwt beam="2">  1        2 0.39953767E+00 0.66294081E+03</pdfrwt>
<totfact> 0.39946964E+00</totfact>
</mgrwt>
</event>
<event>
 5    1  0.2354746E-004  0.6523905E+03  0.7818608E-02  0.9802304E-01
         13   -1    0    0    0    0  0.00000000000E+00  0.00000000000E+00  0.10000000000E+04  0.10000000000E+04  0.00000000000E+00 0. -1.
          2   -1    0    0  501    0 -0.00000000000E+00 -0.00000000000E+00 -0.10640334100E+03  0.10640334100E+03  0.00000000000E+00 0. -1.
    9000006    2    1    2  501    0  0.00000000000E+00  0.00000000000E+00  0.89359665900E+03  0.11064033410E+04  0.65239049962E+03 0.  0.
         13    1    3    3    0    0 -0.31779152772E+03  0.47413495319E+02  0.54219067863E+03  0.63024616351E+03  0.00000000000E+00 0. -1.
          4    1    3    3  501    0  0.31779152772E+03 -0.47413495319E+02  0.35140598037E+03  0.47615717749E+03  0.00000000000E+00 0. -1.
<mgrwt>
<rscale>  0 0.65239050E+03</rscale>
<asrwt>0</asrwt>
<pdfrwt beam="1">0</pdfrwt>
<pdfrwt beam="2">  1        2 0.38692206E+00 0.65239050E+03</pdfrwt>
<totfact> 0.44555110E+00</totfact>
</mgrwt>
</event>
<event>
 5    1  0.2354746E-004  0.6500760E+03  0.7818608E-02  0.9806637E-01
         13   -1    0    0    0    0  0.00000000000E+00  0.00000000000E+00  0.10000000000E+04  0.10000000000E+04  0.00000000000E+00 0. -1.
          2   -1    0    0  501    0 -0.00000000000E+00 -0.00000000000E+00 -0.10564969539E+03  0.10564969539E+03  0.00000000000E+00 0. -1.
    9000006    2    1    2  501    0  0.00000000000E+00  0.00000000000E+00  0.89435030461E+03  0.11056496954E+04  0.65007598138E+03 0.  0.
         13    1    3    3    0    0  0.50410249476E+02  0.27269617465E+03  0.15881394078E+03  0.31957200238E+03  0.00000000000E+00 0. -1.
          2    1    3    3  501    0 -0.50410249476E+02 -0.27269617465E+03  0.73553636383E+03  0.78607769301E+03  0.00000000000E+00 0. -1.
<mgrwt>
<rscale>  0 0.65007598E+03</rscale>
<asrwt>0</asrwt>
<pdfrwt beam="1">0</pdfrwt>
<pdfrwt beam="2">  1        2 0.38418152E+00 0.65007598E+03</pdfrwt>
<totfact> 0.45617572E+00</totfact>
</mgrwt>
</event>
<event>
 5    1  0.2354746E-004  0.6532829E+03  0.7818608E-02  0.9800638E-01
         13   -1    0    0    0    0  0.00000000000E+00  0.00000000000E+00  0.10000000000E+04  0.10000000000E+04  0.00000000000E+00 0. -1.
          2   -1    0    0  501    0 -0.00000000000E+00 -0.00000000000E+00 -0.10669464606E+03  0.10669464606E+03  0.00000000000E+00 0. -1.
    9000006    2    1    2  501    0  0.00000000000E+00  0.00000000000E+00  0.89330535394E+03  0.11066946461E+04  0.65328292818E+03 0.  0.
         13    1    3    3    0    0 -0.11528091171E+03  0.27817099063E+03  0.66110815146E+03  0.72645218463E+03  0.00000000000E+00 0. -1.
          2    1    3    3  501    0  0.11528091171E+03 -0.27817099063E+03  0.23219720248E+03  0.38024246143E+03  0.00000000000E+00 0. -1.
<mgrwt>
<rscale>  0 0.65328293E+03</rscale>
<asrwt>0</asrwt>
<pdfrwt beam="1">0</pdfrwt>
<pdfrwt beam="2">  1        2 0.38798135E+00 0.65328293E+03</pdfrwt>
<totfact> 0.44150482E+00</totfact>
</mgrwt>
</event>
<event>
 5    1  0.2354746E-004  0.6667501E+03  0.7818608E-02  0.9775847E-01
         13   -1    0    0    0    0  0.00000000000E+00  0.00000000000E+00  0.10000000000E+04  0.10000000000E+04  0.00000000000E+00 0. -1.
          2   -1    0    0  501    0 -0.00000000000E+00 -0.00000000000E+00 -0.11113893396E+03  0.11113893396E+03  0.00000000000E+00 0. -1.
    9000006    2    1    2  501    0  0.00000000000E+00  0.00000000000E+00  0.88886106604E+03  0.11111389340E+04  0.66675013000E+03 0.  0.
         13    1    3    3    0    0 -0.28228193521E+02 -0.28327992141E+03  0.73353144785E+03  0.78683716852E+03  0.00000000000E+00 0. -1.
          2    1    3    3  501    0  0.28228193521E+02  0.28327992141E+03  0.15532961818E+03  0.32430176544E+03  0.00000000000E+00 0. -1.
<mgrwt>
<rscale>  0 0.66675013E+03</rscale>
<asrwt>0</asrwt>
<pdfrwt beam="1">0</pdfrwt>
<pdfrwt beam="2">  1        2 0.40414243E+00 0.66675013E+03</pdfrwt>
<totfact> 0.38374994E+00</totfact>
</mgrwt>
</event>
<event>
 5    1  0.2354746E-004  0.6388565E+03  0.7818608E-02  0.9827917E-01
         13   -1    0    0    0    0  0.00000000000E+00  0.00000000000E+00  0.10000000000E+04  0.10000000000E+04  0.00000000000E+00 0. -1.
          2   -1    0    0  501    0 -0.00000000000E+00 -0.00000000000E+00 -0.10203440472E+03  0.10203440472E+03  0.00000000000E+00 0. -1.
    9000006    2    1    2  501    0  0.00000000000E+00  0.00000000000E+00  0.89796559528E+03  0.11020344047E+04  0.63885649318E+03 0.  0.
         13    1    3    3    0    0 -0.28178875581E+03  0.12749561455E+03  0.58670706705E+03  0.66323843160E+03  0.00000000000E+00 0. -1.
          2    1    3    3  501    0  0.28178875581E+03 -0.12749561455E+03  0.31125852823E+03  0.43879597312E+03  0.00000000000E+00 0. -1.
<mgrwt>
<rscale>  0 0.63885649E+03</rscale>
<asrwt>0</asrwt>
<pdfrwt beam="1">0</pdfrwt>
<pdfrwt beam="2">  1        2 0.37103498E+00 0.63885649E+03</pdfrwt>
<totfact> 0.51042156E+00</totfact>
</mgrwt>
</event>
<event>
 5    1  0.2354746E-004  0.6519482E+03  0.7818608E-02  0.9803130E-01
         13   -1    0    0    0    0  0.00000000000E+00  0.00000000000E+00  0.10000000000E+04  0.10000000000E+04  0.00000000000E+00 0. -1.
          2   -1    0    0  501    0 -0.00000000000E+00 -0.00000000000E+00 -0.10625910365E+03  0.10625910365E+03  0.00000000000E+00 0. -1.
    9000006    2    1    2  501    0  0.00000000000E+00  0.00000000000E+00  0.89374089635E+03  0.11062591037E+04  0.65194816865E+03 0.  0.
         13    1    3    3    0    0 -0.11518970195E+03 -0.28053254207E+03  0.24401381472E+03  0.38924274735E+03  0.00000000000E+00 0. -1.
          4    1    3    3  501    0  0.11518970195E+03  0.28053254207E+03  0.64972708163E+03  0.71701635630E+03  0.00000000000E+00 0. -1.
<mgrwt>
<rscale>  0 0.65194817E+03</rscale>
<asrwt>0</asrwt>
<pdfrwt beam="1">0</pdfrwt>
<pdfrwt beam="2">  1        2 0.38639756E+00 0.65194817E+03</pdfrwt>
<totfact> 0.44756698E+00</totfact>
</mgrwt>
</event>
<event>
 5    1  0.2354746E-004  0.6521775E+03  0.7818608E-02  0.9802702E-01
         13   -1    0    0    0    0  0.00000000000E+00  0.00000000000E+00  0.10000000000E+04  0.10000000000E+04  0.00000000000E+00 0. -1.
          2   -1    0    0  501    0 -0.00000000000E+00 -0.00000000000E+00 -0.10633386909E+03  0.10633386909E+03  0.00000000000E+00 0. -1.
    9000006    2    1    2  501    0  0.00000000000E+00  0.00000000000E+00  0.89366613091E+03  0.11063338691E+04  0.65217748838E+03 0.  0.
         13    1    3    3    0    0 -0.10423262500E+03  0.30109527072E+03  0.32916974416E+03  0.45812173343E+03  0.00000000000E+00 0. -1.
          2    1    3    3  501    0  0.10423262500E+03 -0.30109527072E+03  0.56449638675E+03  0.64821213566E+03  0.00000000000E+00 0. -1.
<mgrwt>
<rscale>  0 0.65217749E+03</rscale>
<asrwt>0</asrwt>
<pdfrwt beam="1">0</pdfrwt>
<pdfrwt beam="2">  1        2 0.38666943E+00 0.65217749E+03</pdfrwt>
<totfact> 0.44652102E+00</totfact>
</mgrwt>
</event>
<event>
 5    1  0.2354746E-004  0.6664875E+03  0.7818608E-02  0.9776324E-01
         13   -1    0    0    0    0  0.00000000000E+00  0.00000000000E+00  0.10000000000E+04  0.10000000000E+04  0.00000000000E+00 0. -1.
          2   -1    0    0  501    0 -0.00000000000E+00 -0.00000000000E+00 -0.11105138156E+03  0.11105138156E+03  0.00000000000E+00 0. -1.
    9000006    2    1    2  501    0  0.00000000000E+00  0.00000000000E+00  0.88894861844E+03  0.11110513816E+04  0.66648745391E+03 0.  0.
         13    1    3    3    0    0 -0.31985057264E+03 -0.10974456428E+02  0.59930635028E+03  0.67940630627E+03  0.00000000000E+00 0. -1.
          4    1    3    3  501    0  0.31985057264E+03  0.10974456428E+02  0.28964226817E+03  0.43164507529E+03  0.00000000000E+00 0. -1.
<mgrwt>
<rscale>  0 0.66648745E+03</rscale>
<asrwt>0</asrwt>
<pdfrwt beam="1">0</pdfrwt>
<pdfrwt beam="2">  1        2 0.40382406E+00 0.66648745E+03</pdfrwt>
<totfact> 0.38481868E+00</totfact>
</mgrwt>
</event>
<event>
 5    1  0.2354746E-004  0.6495909E+03  0.7818608E-02  0.9807547E-01
         13   -1    0    0    0    0  0.00000000000E+00  0.00000000000E+00  0.10000000000E+04  0.10000000000E+04  0.00000000000E+00 0. -1.
          2   -1    0    0  501    0 -0.00000000000E+00 -0.00000000000E+00 -0.10549208423E+03  0.10549208423E+03  0.00000000000E+00 0. -1.
    9000006    2    1    2  501    0  0.00000000000E+00  0.00000000000E+00  0.89450791577E+03  0.11054920842E+04  0.64959089966E+03 0.  0.
         13    1    3    3    0    0  0.10163210129E+03  0.13242241968E+03 -0.26903901888E+02  0.16908164058E+03  0.00000000000E+00 0. -1.
          4    1    3    3  501    0 -0.10163210129E+03 -0.13242241968E+03  0.92141181766E+03  0.93641044364E+03  0.00000000000E+00 0. -1.
<mgrwt>
<rscale>  0 0.64959090E+03</rscale>
<asrwt>0</asrwt>
<pdfrwt beam="1">0</pdfrwt>
<pdfrwt beam="2">  1        2 0.38360839E+00 0.64959090E+03</pdfrwt>
<totfact> 0.45842651E+00</totfact>
</mgrwt>
</event>
<event>
 5    1  0.2354746E-004  0.6589382E+03  0.7818608E-02  0.9790150E-01
         13   -1    0    0    0    0  0.00000000000E+00  0.00000000000E+00  0.10000000000E+04  0.10000000000E+04  0.00000000000E+00 0. -1.
          2   -1    0    0  501    0 -0.00000000000E+00 -0.00000000000E+00 -0.10854988665E+03  0.10854988665E+03  0.00000000000E+00 0. -1.
    9000006    2    1    2  501    0  0.00000000000E+00  0.00000000000E+00  0.89145011335E+03  0.11085498866E+04  0.65893819633E+03 0.  0.
         13    1    3    3    0    0 -0.67837511962E+02  0.25402050850E+03  0.11170130364E+03  0.28566681292E+03  0.00000000000E+00 0. -1.
          2    1    3    3  501    0  0.67837511962E+02 -0.25402050850E+03  0.77974880972E+03  0.82288307373E+03  0.00000000000E+00 0. -1.
<mgrwt>
<rscale>  0 0.65893820E+03</rscale>
<asrwt>0</asrwt>
<pdfrwt beam="1">0</pdfrwt>
<pdfrwt beam="2">  1        2 0.39472769E+00 0.65893820E+03</pdfrwt>
<totfact> 0.41650531E+00</totfact>
</mgrwt>
</event>
<event>
 5    1  0.2354746E-004  0.6547853E+03  0.7818608E-02  0.9797841E-01
         13   -1    0    0    0    0  0.00000000000E+00  0.00000000000E+00  0.10000000000E+04  0.10000000000E+04  0.00000000000E+00 0. -1.
          2   -1    0    0  501    0 -0.00000000000E+00 -0.00000000000E+00 -0.10718594540E+03  0.10718594540E+03  0.00000000000E+00 0. -1.
    9000006    2    1    2  501    0  0.00000000000E+00  0.00000000000E+00  0.89281405460E+03  0.11071859454E+04  0.65478529426E+03 0.  0.
         13    1    3    3    0    0  0.30364212135E+03  0.46950684095E+02  0.63758538860E+03  0.70775563039E+03  0.00000000000E+00 0. -1.
          4    1    3    3  501    0 -0.30364212135E+03 -0.46950684095E+02  0.25522866600E+03  0.39943031500E+03  0.00000000000E+00 0. -1.
<mgrwt>
<rscale>  0 0.65478529E+03</rscale>
<asrwt>0</asrwt>
<pdfrwt beam="1">0</pdfrwt>
<pdfrwt beam="2">  1        2 0.38976790E+00 0.65478529E+03</pdfrwt>
<totfact> 0.43475585E+00</totfact>
</mgrwt>
</event>
<event>
 5    1  0.2354746E-004  0.6471021E+03  0.7818608E-02  0.9812232E-01
         13   -1    0    0    0    0  0.00000000000E+00  0.00000000000E+00  0.10000000000E+04  0.10000000000E+04  0.00000000000E+00 0. -1.
          2   -1    0    0  501    0 -0.00000000000E+00 -0.00000000000E+00 -0.10468527983E+03  0.10468527983E+03  0.00000000000E+00 0. -1.
    9000006    2    1    2  501    0  0.00000000000E+00  0.00000000000E+00  0.89531472017E+03  0.11046852798E+04  0.64710209343E+03 0.  0.
         13    1    3    3    0    0  0.78308836841E+02 -0.29020796987E+03  0.65203073430E+03  0.71798121018E+03  0.00000000000E+00 0. -1.
          2    1    3    3  501    0 -0.78308836841E+02  0.29020796987E+03  0.24328398587E+03  0.38670406965E+03  0.00000000000E+00 0. -1.
<mgrwt>
<rscale>  0 0.64710209E+03</rscale>
<asrwt>0</asrwt>
<pdfrwt beam="1">0</pdfrwt>
<pdfrwt beam="2">  1        2 0.38067455E+00 0.64710209E+03</pdfrwt>
<totfact> 0.47010691E+00</totfact>
</mgrwt>
</event>
<event>
 5    1  0.2354746E-004  0.6367835E+03  0.7818608E-02  0.9831900E-01
         13   -1    0    0    0    0  0.00000000000E+00  0.00000000000E+00  0.10000000000E+04  0.10000000000E+04  0.00000000000E+00 0. -1.
          2   -1    0    0  501    0 -0.00000000000E+00 -0.00000000000E+00 -0.10137331776E+03  0.10137331776E+03  0.00000000000E+00 0. -1.
    9000006    2    1    2  501    0  0.00000000000E+00  0.00000000000E+00  0.89862668224E+03  0.11013733178E+04  0.63678353547E+03 0.  0.
         13    1    3    3    0    0 -0.11679531285E+03  0.48703621425E+02  0.95463772919E+03  0.96298825634E+03  0.00000000000E+00 0. -1.
          4    1    3    3  501    0  0.11679531285E+03 -0.48703621425E+02 -0.56011046957E+02  0.13838506142E+03  0.00000000000E+00 0. -1.
<mgrwt>
<rscale>  0 0.63678354E+03</rscale>
<asrwt>0</asrwt>
<pdfrwt beam="1">0</pdfrwt>
<pdfrwt beam="2">  1        2 0.36863102E+00 0.63678354E+03</pdfrwt>
<totfact> 0.52095650E+00</totfact>
</mgrwt>
</event>
<event>
 5    1  0.2354746E-004  0.6443285E+03  0.7818608E-02  0.9817480E-01
         13   -1    0    0    0    0  0.00000000000E+00  0.00000000000E+00  0.10000000000E+04  0.10000000000E+04  0.00000000000E+00 0. -1.
          2   -1    0    0  501    0 -0.00000000000E+00 -0.00000000000E+00 -0.10378979153E+03  0.10378979153E+03  0.00000000000E+00 0. -1.
    9000006    2    1    2  501    0  0.00000000000E+00  0.00000000000E+00  0.89621020847E+03  0.11037897915E+04  0.64432846137E+03 0.  0.
         13    1    3    3    0    0 -0.13326405547E+03 -0.27606113912E+03  0.61787119755E+03  0.68973464302E+03  0.00000000000E+00 0. -1.
          2    1    3    3  501    0  0.13326405547E+03  0.27606113912E+03  0.27833901091E+03  0.41405514851E+03  0.00000000000E+00 0. -1.
<mgrwt>
<rscale>  0 0.64432846E+03</rscale>
<asrwt>0</asrwt>
<pdfrwt beam="1">0</pdfrwt>
<pdfrwt beam="2">  1        2 0.37741822E+00 0.64432846E+03</pdfrwt>
<totfact> 0.48338773E+00</totfact>
</mgrwt>
</event>
<event>
 5    1  0.2354746E-004  0.6479255E+03  0.7818608E-02  0.9810680E-01
         13   -1    0    0    0    0  0.00000000000E+00  0.00000000000E+00  0.10000000000E+04  0.10000000000E+04  0.00000000000E+00 0. -1.
          2   -1    0    0  501    0 -0.00000000000E+00 -0.00000000000E+00 -0.10495186608E+03  0.10495186608E+03  0.00000000000E+00 0. -1.
    9000006    2    1    2  501    0  0.00000000000E+00  0.00000000000E+00  0.89504813392E+03  0.11049518661E+04  0.64792550830E+03 0.  0.
         13    1    3    3    0    0  0.14995369479E+03 -0.15141938558E+02 -0.41522855831E+02  0.15633149536E+03  0.00000000000E+00 0. -1.
          4    1    3    3  501    0 -0.14995369479E+03  0.15141938558E+02  0.93657098976E+03  0.94862037072E+03  0.00000000000E+00 0. -1.
<mgrwt>
<rscale>  0 0.64792551E+03</rscale>
<asrwt>0</asrwt>
<pdfrwt beam="1">0</pdfrwt>
<pdfrwt beam="2">  1        2 0.38164395E+00 0.64792551E+03</pdfrwt>
<totfact> 0.46621787E+00</totfact>
</mgrwt>
</event>
<event>
 5    1  0.2354746E-004  0.6473777E+03  0.7818608E-02  0.9811712E-01
         13   -1    0    0    0    0  0.00000000000E+00  0.00000000000E+00  0.10000000000E+04  0.10000000000E+04  0.00000000000E+00 0. -1.
          2   -1    0    0  501    0 -0.00000000000E+00 -0.00000000000E+00 -0.10477446082E+03  0.10477446082E+03  0.00000000000E+00 0. -1.
    9000006    2    1    2  501    0  0.00000000000E+00  0.00000000000E+00  0.89522553918E+03  0.11047744608E+04  0.64737766665E+03 0.  0.
         13    1    3    3    0    0 -0.15622437080E+03 -0.28722899696E+02 -0.33689592781E+02  0.16237625338E+03  0.00000000000E+00 0. -1.
          2    1    3    3  501    0  0.15622437080E+03  0.28722899696E+02  0.92891513196E+03  0.94239820744E+03  0.00000000000E+00 0. -1.
<mgrwt>
<rscale>  0 0.64737767E+03</rscale>
<asrwt>0</asrwt>
<pdfrwt beam="1">0</pdfrwt>
<pdfrwt beam="2">  1        2 0.38099884E+00 0.64737767E+03</pdfrwt>
<totfact> 0.46880264E+00</totfact>
</mgrwt>
</event>
<event>
 5    1  0.2354746E-004  0.6464929E+03  0.7818608E-02  0.9813382E-01
         13   -1    0    0    0    0  0.00000000000E+00  0.00000000000E+00  0.10000000000E+04  0.10000000000E+04  0.00000000000E+00 0. -1.
          2   -1    0    0  501    0 -0.00000000000E+00 -0.00000000000E+00 -0.10448826151E+03  0.10448826151E+03  0.00000000000E+00 0. -1.
    9000006    2    1    2  501    0  0.00000000000E+00  0.00000000000E+00  0.89551173849E+03  0.11044882615E+04  0.64649288166E+03 0.  0.
         13    1    3    3    0    0  0.17982195632E+03 -0.25143263901E+03  0.60923604108E+03  0.68317118037E+03  0.00000000000E+00 0. -1.
          2    1    3    3  501    0 -0.17982195632E+03  0.25143263901E+03  0.28627569741E+03  0.42131708114E+03  0.00000000000E+00 0. -1.
<mgrwt>
<rscale>  0 0.64649288E+03</rscale>
<asrwt>0</asrwt>
<pdfrwt beam="1">0</pdfrwt>
<pdfrwt beam="2">  1        2 0.37995812E+00 0.64649288E+03</pdfrwt>
<totfact> 0.47300001E+00</totfact>
</mgrwt>
</event>
<event>
 5    1  0.2354746E-004  0.6539316E+03  0.7818608E-02  0.9799430E-01
         13   -1    0    0    0    0  0.00000000000E+00  0.00000000000E+00  0.10000000000E+04  0.10000000000E+04  0.00000000000E+00 0. -1.
          2   -1    0    0  501    0 -0.00000000000E+00 -0.00000000000E+00 -0.10690663047E+03  0.10690663047E+03  0.00000000000E+00 0. -1.
    9000006    2    1    2  501    0  0.00000000000E+00  0.00000000000E+00  0.89309336953E+03  0.11069066305E+04  0.65393158806E+03 0.  0.
         13    1    3    3    0    0  0.26351658854E+03 -0.18340470599E+03  0.55127993834E+03  0.63795599302E+03  0.00000000000E+00 0. -1.
          4    1    3    3  501    0 -0.26351658854E+03  0.18340470599E+03  0.34181343120E+03  0.46895063745E+03  0.00000000000E+00 0. -1.
<mgrwt>
<rscale>  0 0.65393159E+03</rscale>
<asrwt>0</asrwt>
<pdfrwt beam="1">0</pdfrwt>
<pdfrwt beam="2">  1        2 0.38875220E+00 0.65393159E+03</pdfrwt>
<totfact> 0.43858126E+00</totfact>
</mgrwt>
</event>
<event>
 5    1  0.2354746E-004  0.6272936E+03  0.7818608E-02  0.9850344E-01
         13   -1    0    0    0    0  0.00000000000E+00  0.00000000000E+00  0.10000000000E+04  0.10000000000E+04  0.00000000000E+00 0. -1.
          2   -1    0    0  501    0 -0.00000000000E+00 -0.00000000000E+00 -0.98374323684E+02  0.98374323684E+02  0.00000000000E+00 0. -1.
    9000006    2    1    2  501    0  0.00000000000E+00  0.00000000000E+00  0.90162567632E+03  0.10983743237E+04  0.62729362721E+03 0.  0.
         13    1    3    3    0    0 -0.43216147938E+02  0.19251743750E+03  0.23906598133E+02  0.19875141413E+03  0.00000000000E+00 0. -1.
          4    1    3    3  501    0  0.43216147938E+02 -0.19251743750E+03  0.87771907818E+03  0.89962290955E+03  0.00000000000E+00 0. -1.
<mgrwt>
<rscale>  0 0.62729363E+03</rscale>
<asrwt>0</asrwt>
<pdfrwt beam="1">0</pdfrwt>
<pdfrwt beam="2">  1        2 0.35772557E+00 0.62729363E+03</pdfrwt>
<totfact> 0.57130602E+00</totfact>
</mgrwt>
</event>
<event>
 5    1  0.2354746E-004  0.6487374E+03  0.7818608E-02  0.9809151E-01
         13   -1    0    0    0    0  0.00000000000E+00  0.00000000000E+00  0.10000000000E+04  0.10000000000E+04  0.00000000000E+00 0. -1.
          2   -1    0    0  501    0 -0.00000000000E+00 -0.00000000000E+00 -0.10521505060E+03  0.10521505060E+03  0.00000000000E+00 0. -1.
    9000006    2    1    2  501    0  0.00000000000E+00  0.00000000000E+00  0.89478494940E+03  0.11052150506E+04  0.64873739095E+03 0.  0.
         13    1    3    3    0    0 -0.27727492121E+03 -0.13543469726E+03  0.61768075604E+03  0.69047335614E+03  0.00000000000E+00 0. -1.
          4    1    3    3  501    0  0.27727492121E+03  0.13543469726E+03  0.27710419336E+03  0.41474169447E+03  0.00000000000E+00 0. -1.
<mgrwt>
<rscale>  0 0.64873739E+03</rscale>
<asrwt>0</asrwt>
<pdfrwt beam="1">0</pdfrwt>
<pdfrwt beam="2">  1        2 0.38260099E+00 0.64873739E+03</pdfrwt>
<totfact> 0.46240716E+00</totfact>
</mgrwt>
</event>
<event>
 5    1  0.2354746E-004  0.6544685E+03  0.7818608E-02  0.9798430E-01
         13   -1    0    0    0    0  0.00000000000E+00  0.00000000000E+00  0.10000000000E+04  0.10000000000E+04  0.00000000000E+00 0. -1.
          2   -1    0    0  501    0 -0.00000000000E+00 -0.00000000000E+00 -0.10708226593E+03  0.10708226593E+03  0.00000000000E+00 0. -1.
    9000006    2    1    2  501    0  0.00000000000E+00  0.00000000000E+00  0.89291773407E+03  0.11070822659E+04  0.65446853531E+03 0.  0.
         13    1    3    3    0    0  0.15670492074E+02  0.27953388214E+03  0.73301732573E+03  0.78466499565E+03  0.00000000000E+00 0. -1.
          2    1    3    3  501    0 -0.15670492074E+02 -0.27953388214E+03  0.15990040834E+03  0.32241727028E+03  0.00000000000E+00 0. -1.
<mgrwt>
<rscale>  0 0.65446854E+03</rscale>
<asrwt>0</asrwt>
<pdfrwt beam="1">0</pdfrwt>
<pdfrwt beam="2">  1        2 0.38939088E+00 0.65446854E+03</pdfrwt>
<totfact> 0.43617228E+00</totfact>
</mgrwt>
</event>
<event>
 5    1  0.2354746E-004  0.6269730E+03  0.7818608E-02  0.9850974E-01
         13   -1    0    0    0    0  0.00000000000E+00  0.00000000000E+00  0.10000000000E+04  0.10000000000E+04  0.00000000000E+00 0. -1.
          4   -1    0    0  501    0 -0.00000000000E+00 -0.00000000000E+00 -0.98273775738E+02  0.98273775738E+02  0.00000000000E+00 0. -1.
    9000006    2    1    2  501    0  0.00000000000E+00  0.00000000000E+00  0.90172622426E+03  0.10982737757E+04  0.62697296828E+03 0.  0.
         13    1    3    3    0    0 -0.27393196667E+03 -0.12792031897E+03  0.30565668281E+03  0.42991666415E+03  0.00000000000E+00 0. -1.
          2    1    3    3  501    0  0.27393196667E+03  0.12792031897E+03  0.59606954145E+03  0.66835711159E+03  0.00000000000E+00 0. -1.
<mgrwt>
<rscale>  0 0.62697297E+03</rscale>
<asrwt>0</asrwt>
<pdfrwt beam="1">0</pdfrwt>
<pdfrwt beam="2">  1        4 0.35735994E+00 0.62697297E+03</pdfrwt>
<totfact> 0.61946841E-02</totfact>
</mgrwt>
</event>
<event>
 5    1  0.2354746E-004  0.6797890E+03  0.7818608E-02  0.9752434E-01
         13   -1    0    0    0    0  0.00000000000E+00  0.00000000000E+00  0.10000000000E+04  0.10000000000E+04  0.00000000000E+00 0. -1.
          2   -1    0    0  501    0 -0.00000000000E+00 -0.00000000000E+00 -0.11552826169E+03  0.11552826169E+03  0.00000000000E+00 0. -1.
    9000006    2    1    2  501    0  0.00000000000E+00  0.00000000000E+00  0.88447173831E+03  0.11155282617E+04  0.67978897222E+03 0.  0.
         13    1    3    3    0    0 -0.30703046694E+03 -0.84996804851E+02  0.24782092435E+03  0.40361785764E+03  0.00000000000E+00 0. -1.
          4    1    3    3  501    0  0.30703046694E+03  0.84996804851E+02  0.63665081397E+03  0.71191040405E+03  0.00000000000E+00 0. -1.
<mgrwt>
<rscale>  0 0.67978897E+03</rscale>
<asrwt>0</asrwt>
<pdfrwt beam="1">0</pdfrwt>
<pdfrwt beam="2">  1        2 0.42010366E+00 0.67978897E+03</pdfrwt>
<totfact> 0.33345078E+00</totfact>
</mgrwt>
</event>
<event>
 5    1  0.2354746E-004  0.6452112E+03  0.7818608E-02  0.9815807E-01
         13   -1    0    0    0    0  0.00000000000E+00  0.00000000000E+00  0.10000000000E+04  0.10000000000E+04  0.00000000000E+00 0. -1.
          2   -1    0    0  501    0 -0.00000000000E+00 -0.00000000000E+00 -0.10407437581E+03  0.10407437581E+03  0.00000000000E+00 0. -1.
    9000006    2    1    2  501    0  0.00000000000E+00  0.00000000000E+00  0.89592562419E+03  0.11040743758E+04  0.64521120826E+03 0.  0.
         13    1    3    3    0    0 -0.29149203190E+03 -0.11038562306E+03  0.30559707141E+03  0.43651135208E+03  0.00000000000E+00 0. -1.
          4    1    3    3  501    0  0.29149203190E+03  0.11038562306E+03  0.59032855277E+03  0.66756302374E+03  0.00000000000E+00 0. -1.
<mgrwt>
<rscale>  0 0.64521121E+03</rscale>
<asrwt>0</asrwt>
<pdfrwt beam="1">0</pdfrwt>
<pdfrwt beam="2">  1        2 0.37845307E+00 0.64521121E+03</pdfrwt>
<totfact> 0.47913053E+00</totfact>
</mgrwt>
</event>
<event>
 5    1  0.2354746E-004  0.6590298E+03  0.7818608E-02  0.9789981E-01
         13   -1    0    0    0    0  0.00000000000E+00  0.00000000000E+00  0.10000000000E+04  0.10000000000E+04  0.00000000000E+00 0. -1.
          2   -1    0    0  501    0 -0.00000000000E+00 -0.00000000000E+00 -0.10858005858E+03  0.10858005858E+03  0.00000000000E+00 0. -1.
    9000006    2    1    2  501    0  0.00000000000E+00  0.00000000000E+00  0.89141994142E+03  0.11085800586E+04  0.65902976740E+03 0.  0.
         13    1    3    3    0    0 -0.26665305558E+03 -0.15435507348E+03  0.64224491289E+03  0.71232567614E+03  0.00000000000E+00 0. -1.
          2    1    3    3  501    0  0.26665305558E+03  0.15435507348E+03  0.24917502853E+03  0.39625438244E+03  0.00000000000E+00 0. -1.
<mgrwt>
<rscale>  0 0.65902977E+03</rscale>
<asrwt>0</asrwt>
<pdfrwt beam="1">0</pdfrwt>
<pdfrwt beam="2">  1        2 0.39483741E+00 0.65902977E+03</pdfrwt>
<totfact> 0.41610955E+00</totfact>
</mgrwt>
</event>
<event>
 5    1  0.2354746E-004  0.6407802E+03  0.7818608E-02  0.9824235E-01
         13   -1    0    0    0    0  0.00000000000E+00  0.00000000000E+00  0.10000000000E+04  0.10000000000E+04  0.00000000000E+00 0. -1.
          2   -1    0    0  501    0 -0.00000000000E+00 -0.00000000000E+00 -0.10264980560E+03  0.10264980560E+03  0.00000000000E+00 0. -1.
    9000006    2    1    2  501    0  0.00000000000E+00  0.00000000000E+00  0.89735019440E+03  0.11026498056E+04  0.64078016698E+03 0.  0.
         13    1    3    3    0    0 -0.44963342719E+02  0.26974583079E+03  0.16142490430E+03  0.31755710532E+03  0.00000000000E+00 0. -1.
          4    1    3    3  501    0  0.44963342719E+02 -0.26974583079E+03  0.73592529010E+03  0.78509270028E+03  0.00000000000E+00 0. -1.
<mgrwt>
<rscale>  0 0.64078017E+03</rscale>
<asrwt>0</asrwt>
<pdfrwt beam="1">0</pdfrwt>
<pdfrwt beam="2">  1        2 0.37327281E+00 0.64078017E+03</pdfrwt>
<totfact> 0.50079040E+00</totfact>
</mgrwt>
</event>
<event>
 5    1  0.2354746E-004  0.6522161E+03  0.7818608E-02  0.9802630E-01
         13   -1    0    0    0    0  0.00000000000E+00  0.00000000000E+00  0.10000000000E+04  0.10000000000E+04  0.00000000000E+00 0. -1.
          2   -1    0    0  501    0 -0.00000000000E+00 -0.00000000000E+00 -0.10634645097E+03  0.10634645097E+03  0.00000000000E+00 0. -1.
    9000006    2    1    2  501    0  0.00000000000E+00  0.00000000000E+00  0.89365354903E+03  0.11063464510E+04  0.65221607147E+03 0.  0.
         13    1    3    3    0    0  0.90578777885E+02 -0.31260846222E+03  0.41215083730E+03  0.52516366814E+03  0.00000000000E+00 0. -1.
          4    1    3    3  501    0 -0.90578777885E+02  0.31260846222E+03  0.48150271173E+03  0.58118278283E+03  0.00000000000E+00 0. -1.
<mgrwt>
<rscale>  0 0.65221607E+03</rscale>
<asrwt>0</asrwt>
<pdfrwt beam="1">0</pdfrwt>
<pdfrwt beam="2">  1        2 0.38671518E+00 0.65221607E+03</pdfrwt>
<totfact> 0.44634522E+00</totfact>
</mgrwt>
</event>
<event>
 5    1  0.2354746E-004  0.6602242E+03  0.7818608E-02  0.9787781E-01
         13   -1    0    0    0    0  0.00000000000E+00  0.00000000000E+00  0.10000000000E+04  0.10000000000E+04  0.00000000000E+00 0. -1.
          2   -1    0    0  501    0 -0.00000000000E+00 -0.00000000000E+00 -0.10897398316E+03  0.10897398316E+03  0.00000000000E+00 0. -1.
    9000006    2    1    2  501    0  0.00000000000E+00  0.00000000000E+00  0.89102601684E+03  0.11089739832E+04  0.66022415332E+03 0.  0.
         13    1    3    3    0    0 -0.12958591804E+03  0.19327476113E+03  0.83881357827E+03  0.87049173605E+03  0.00000000000E+00 0. -1.
          4    1    3    3  501    0  0.12958591804E+03 -0.19327476113E+03  0.52212438573E+02  0.23848224711E+03  0.00000000000E+00 0. -1.
<mgrwt>
<rscale>  0 0.66022415E+03</rscale>
<asrwt>0</asrwt>
<pdfrwt beam="1">0</pdfrwt>
<pdfrwt beam="2">  1        2 0.39626987E+00 0.66022415E+03</pdfrwt>
<totfact> 0.41097349E+00</totfact>
</mgrwt>
</event>
<event>
 5    1  0.2354746E-004  0.6505323E+03  0.7818608E-02  0.9805781E-01
         13   -1    0    0    0    0  0.00000000000E+00  0.00000000000E+00  0.10000000000E+04  0.10000000000E+04  0.00000000000E+00 0. -1.
          2   -1    0    0  501    0 -0.00000000000E+00 -0.00000000000E+00 -0.10579806779E+03  0.10579806779E+03  0.00000000000E+00 0. -1.
    9000006    2    1    2  501    0  0.00000000000E+00  0.00000000000E+00  0.89420193221E+03  0.11057980678E+04  0.65053229832E+03 0.  0.
         13    1    3    3    0    0 -0.31684371469E+02  0.48099849717E+02  0.99126237019E+03  0.99293432889E+03  0.00000000000E+00 0. -1.
          4    1    3    3  501    0  0.31684371469E+02 -0.48099849717E+02 -0.97060437977E+02  0.11286373890E+03  0.00000000000E+00 0. -1.
<mgrwt>
<rscale>  0 0.65053230E+03</rscale>
<asrwt>0</asrwt>
<pdfrwt beam="1">0</pdfrwt>
<pdfrwt beam="2">  1        2 0.38472106E+00 0.65053230E+03</pdfrwt>
<totfact> 0.45406604E+00</totfact>
</mgrwt>
</event>
<event>
 5    1  0.2354746E-004  0.6401388E+03  0.7818608E-02  0.9825461E-01
         13   -1    0    0    0    0  0.00000000000E+00  0.00000000000E+00  0.10000000000E+04  0.10000000000E+04  0.00000000000E+00 0. -1.
          2   -1    0    0  501    0 -0.00000000000E+00 -0.00000000000E+00 -0.10244442496E+03  0.10244442496E+03  0.00000000000E+00 0. -1.
    9000006    2    1    2  501    0  0.00000000000E+00  0.00000000000E+00  0.89755557504E+03  0.11024444250E+04  0.64013881295E+03 0.  0.
         13    1    3    3    0    0 -0.19158093931E+03 -0.22082272194E+03  0.22437299391E+03  0.36852295889E+03  0.00000000000E+00 0. -1.
          4    1    3    3  501    0  0.19158093931E+03  0.22082272194E+03  0.67318258113E+03  0.73392146607E+03  0.00000000000E+00 0. -1.
<mgrwt>
<rscale>  0 0.64013881E+03</rscale>
<asrwt>0</asrwt>
<pdfrwt beam="1">0</pdfrwt>
<pdfrwt beam="2">  1        2 0.37252597E+00 0.64013881E+03</pdfrwt>
<totfact> 0.50398601E+00</totfact>
</mgrwt>
</event>
<event>
 5    1  0.2354746E-004  0.6618835E+03  0.7818608E-02  0.9784733E-01
         13   -1    0    0    0    0  0.00000000000E+00  0.00000000000E+00  0.10000000000E+04  0.10000000000E+04  0.00000000000E+00 0. -1.
          2   -1    0    0  501    0 -0.00000000000E+00 -0.00000000000E+00 -0.10952244195E+03  0.10952244195E+03  0.00000000000E+00 0. -1.
    9000006    2    1    2  501    0  0.00000000000E+00  0.00000000000E+00  0.89047755805E+03  0.11095224420E+04  0.66188350018E+03 0.  0.
         13    1    3    3    0    0 -0.27345912236E+03 -0.18036098732E+03  0.36639041224E+03  0.49147930936E+03  0.00000000000E+00 0. -1.
          4    1    3    3  501    0  0.27345912236E+03  0.18036098732E+03  0.52408714581E+03  0.61804313260E+03  0.00000000000E+00 0. -1.
<mgrwt>
<rscale>  0 0.66188350E+03</rscale>
<asrwt>0</asrwt>
<pdfrwt beam="1">0</pdfrwt>
<pdfrwt beam="2">  1        2 0.39826427E+00 0.66188350E+03</pdfrwt>
<totfact> 0.40391760E+00</totfact>
</mgrwt>
</event>
<event>
 5    1  0.2354746E-004  0.5142460E+03  0.7818608E-02  0.1010126E+00
         13   -1    0    0    0    0  0.00000000000E+00  0.00000000000E+00  0.10000000000E+04  0.10000000000E+04  0.00000000000E+00 0. -1.
          2   -1    0    0  501    0 -0.00000000000E+00 -0.00000000000E+00 -0.66112224768E+02  0.66112224768E+02  0.00000000000E+00 0. -1.
    9000006    2    1    2  501    0  0.00000000000E+00  0.00000000000E+00  0.93388777523E+03  0.10661122248E+04  0.51424595193E+03 0.  0.
         13    1    3    3    0    0 -0.25151842496E+03 -0.27454468922E+02  0.56187902682E+03  0.61621693155E+03  0.00000000000E+00 0. -1.
          4    1    3    3  501    0  0.25151842496E+03  0.27454468922E+02  0.37200874842E+03  0.44989529321E+03  0.00000000000E+00 0. -1.
<mgrwt>
<rscale>  0 0.51424595E+03</rscale>
<asrwt>0</asrwt>
<pdfrwt beam="1">0</pdfrwt>
<pdfrwt beam="2">  1        2 0.24040860E+00 0.51424595E+03</pdfrwt>
<totfact> 0.15094514E+01</totfact>
</mgrwt>
</event>
<event>
 5    1  0.2354746E-004  0.6540608E+03  0.7818608E-02  0.9799189E-01
         13   -1    0    0    0    0  0.00000000000E+00  0.00000000000E+00  0.10000000000E+04  0.10000000000E+04  0.00000000000E+00 0. -1.
          2   -1    0    0  501    0 -0.00000000000E+00 -0.00000000000E+00 -0.10694889234E+03  0.10694889234E+03  0.00000000000E+00 0. -1.
    9000006    2    1    2  501    0  0.00000000000E+00  0.00000000000E+00  0.89305110766E+03  0.11069488923E+04  0.65406083001E+03 0.  0.
         13    1    3    3    0    0 -0.31822234582E+02 -0.29275822766E+03  0.68723609559E+03  0.74767204411E+03  0.00000000000E+00 0. -1.
          2    1    3    3  501    0  0.31822234582E+02  0.29275822766E+03  0.20581501208E+03  0.35927684822E+03  0.00000000000E+00 0. -1.
<mgrwt>
<rscale>  0 0.65406083E+03</rscale>
<asrwt>0</asrwt>
<pdfrwt beam="1">0</pdfrwt>
<pdfrwt beam="2">  1        2 0.38890588E+00 0.65406083E+03</pdfrwt>
<totfact> 0.43800051E+00</totfact>
</mgrwt>
</event>
<event>
 5    1  0.2354746E-004  0.6408328E+03  0.7818608E-02  0.9824135E-01
         13   -1    0    0    0    0  0.00000000000E+00  0.00000000000E+00  0.10000000000E+04  0.10000000000E+04  0.00000000000E+00 0. -1.
          2   -1    0    0  501    0 -0.00000000000E+00 -0.00000000000E+00 -0.10266665648E+03  0.10266665648E+03  0.00000000000E+00 0. -1.
    9000006    2    1    2  501    0  0.00000000000E+00  0.00000000000E+00  0.89733334352E+03  0.11026666565E+04  0.64083275972E+03 0.  0.
         13    1    3    3    0    0  0.22488241062E+03 -0.17735204775E+03  0.69587488466E+03  0.75250760963E+03  0.00000000000E+00 0. -1.
          4    1    3    3  501    0 -0.22488241062E+03  0.17735204775E+03  0.20145845886E+03  0.35015904685E+03  0.00000000000E+00 0. -1.
<mgrwt>
<rscale>  0 0.64083276E+03</rscale>
<asrwt>0</asrwt>
<pdfrwt beam="1">0</pdfrwt>
<pdfrwt beam="2">  1        2 0.37333408E+00 0.64083276E+03</pdfrwt>
<totfact> 0.50052904E+00</totfact>
</mgrwt>
</event>
<event>
 5    1  0.2354746E-004  0.6495479E+03  0.7818608E-02  0.9807628E-01
         13   -1    0    0    0    0  0.00000000000E+00  0.00000000000E+00  0.10000000000E+04  0.10000000000E+04  0.00000000000E+00 0. -1.
          2   -1    0    0  501    0 -0.00000000000E+00 -0.00000000000E+00 -0.10547812694E+03  0.10547812694E+03  0.00000000000E+00 0. -1.
    9000006    2    1    2  501    0  0.00000000000E+00  0.00000000000E+00  0.89452187306E+03  0.11054781269E+04  0.64954792567E+03 0.  0.
         13    1    3    3    0    0  0.20044177155E+03 -0.25036533022E+03  0.53434907112E+03  0.62320833769E+03  0.00000000000E+00 0. -1.
          2    1    3    3  501    0 -0.20044177155E+03  0.25036533022E+03  0.36017280194E+03  0.48226978924E+03  0.00000000000E+00 0. -1.
<mgrwt>
<rscale>  0 0.64954793E+03</rscale>
<asrwt>0</asrwt>
<pdfrwt beam="1">0</pdfrwt>
<pdfrwt beam="2">  1        2 0.38355763E+00 0.64954793E+03</pdfrwt>
<totfact> 0.45862631E+00</totfact>
</mgrwt>
</event>
<event>
 5    1  0.2354746E-004  0.6365937E+03  0.7818608E-02  0.9832266E-01
         13   -1    0    0    0    0  0.00000000000E+00  0.00000000000E+00  0.10000000000E+04  0.10000000000E+04  0.00000000000E+00 0. -1.
          2   -1    0    0  501    0 -0.00000000000E+00 -0.00000000000E+00 -0.10131287651E+03  0.10131287651E+03  0.00000000000E+00 0. -1.
    9000006    2    1    2  501    0  0.00000000000E+00  0.00000000000E+00  0.89868712349E+03  0.11013128765E+04  0.63659367420E+03 0.  0.
         13    1    3    3    0    0 -0.79323254138E+01 -0.20756740745E+03  0.32107367735E+02  0.21018571189E+03  0.00000000000E+00 0. -1.
          4    1    3    3  501    0  0.79323254138E+01  0.20756740745E+03  0.86657975576E+03  0.89112716461E+03  0.00000000000E+00 0. -1.
<mgrwt>
<rscale>  0 0.63659367E+03</rscale>
<asrwt>0</asrwt>
<pdfrwt beam="1">0</pdfrwt>
<pdfrwt beam="2">  1        2 0.36841124E+00 0.63659367E+03</pdfrwt>
<totfact> 0.52192956E+00</totfact>
</mgrwt>
</event>
<event>
 5    1  0.2354746E-004  0.6579193E+03  0.7818608E-02  0.9792032E-01
         13   -1    0    0    0    0  0.00000000000E+00  0.00000000000E+00  0.10000000000E+04  0.10000000000E+04  0.00000000000E+00 0. -1.
          2   -1    0    0  501    0 -0.00000000000E+00 -0.00000000000E+00 -0.10821444260E+03  0.10821444260E+03  0.00000000000E+00 0. -1.
    9000006    2    1    2  501    0  0.00000000000E+00  0.00000000000E+00  0.89178555740E+03  0.11082144426E+04  0.65791927348E+03 0.  0.
         13    1    3    3    0    0  0.14724491748E+03  0.28834541687E+03  0.54397043928E+03  0.63303079227E+03  0.00000000000E+00 0. -1.
          4    1    3    3  501    0 -0.14724491748E+03 -0.28834541687E+03  0.34781511812E+03  0.47518365034E+03  0.00000000000E+00 0. -1.
<mgrwt>
<rscale>  0 0.65791927E+03</rscale>
<asrwt>0</asrwt>
<pdfrwt beam="1">0</pdfrwt>
<pdfrwt beam="2">  1        2 0.39350789E+00 0.65791927E+03</pdfrwt>
<totfact> 0.42092831E+00</totfact>
</mgrwt>
</event>
<event>
 5    1  0.2354746E-004  0.6412316E+03  0.7818608E-02  0.9823373E-01
         13   -1    0    0    0    0  0.00000000000E+00  0.00000000000E+00  0.10000000000E+04  0.10000000000E+04  0.00000000000E+00 0. -1.
          2   -1    0    0  501    0 -0.00000000000E+00 -0.00000000000E+00 -0.10279449541E+03  0.10279449541E+03  0.00000000000E+00 0. -1.
    9000006    2    1    2  501    0  0.00000000000E+00  0.00000000000E+00  0.89720550459E+03  0.11027944954E+04  0.64123161312E+03 0.  0.
         13    1    3    3    0    0  0.30038528019E+03  0.95068195052E+01  0.25653182613E+03  0.39513323575E+03  0.00000000000E+00 0. -1.
          4    1    3    3  501    0 -0.30038528019E+03 -0.95068195052E+01  0.64067367845E+03  0.70766125967E+03  0.00000000000E+00 0. -1.
<mgrwt>
<rscale>  0 0.64123161E+03</rscale>
<asrwt>0</asrwt>
<pdfrwt beam="1">0</pdfrwt>
<pdfrwt beam="2">  1        2 0.37379895E+00 0.64123161E+03</pdfrwt>
<totfact> 0.49855026E+00</totfact>
</mgrwt>
</event>
<event>
 5    1  0.2354746E-004  0.5399910E+03  0.7818608E-02  0.1003838E+00
         13   -1    0    0    0    0  0.00000000000E+00  0.00000000000E+00  0.10000000000E+04  0.10000000000E+04  0.00000000000E+00 0. -1.
          2   -1    0    0  501    0 -0.00000000000E+00 -0.00000000000E+00 -0.72897572576E+02  0.72897572576E+02  0.00000000000E+00 0. -1.
    9000006    2    1    2  501    0  0.00000000000E+00  0.00000000000E+00  0.92710242742E+03  0.10728975726E+04  0.53999100947E+03 0.  0.
         13    1    3    3    0    0  0.26881590142E+01 -0.16359005251E+03  0.36817393124E+02  0.16770346423E+03  0.00000000000E+00 0. -1.
          4    1    3    3  501    0 -0.26881590142E+01  0.16359005251E+03  0.89028503430E+03  0.90519410834E+03  0.00000000000E+00 0. -1.
<mgrwt>
<rscale>  0 0.53999101E+03</rscale>
<asrwt>0</asrwt>
<pdfrwt beam="1">0</pdfrwt>
<pdfrwt beam="2">  1        2 0.26508264E+00 0.53999101E+03</pdfrwt>
<totfact> 0.12306874E+01</totfact>
</mgrwt>
</event>
<event>
 5    1  0.2354746E-004  0.6620211E+03  0.7818608E-02  0.9784480E-01
         13   -1    0    0    0    0  0.00000000000E+00  0.00000000000E+00  0.10000000000E+04  0.10000000000E+04  0.00000000000E+00 0. -1.
          2   -1    0    0  501    0 -0.00000000000E+00 -0.00000000000E+00 -0.10956798178E+03  0.10956798178E+03  0.00000000000E+00 0. -1.
    9000006    2    1    2  501    0  0.00000000000E+00  0.00000000000E+00  0.89043201822E+03  0.11095679818E+04  0.66202109266E+03 0.  0.
         13    1    3    3    0    0  0.24933945936E+03 -0.41944536807E+02  0.87162746598E+02  0.26744504961E+03  0.00000000000E+00 0. -1.
          2    1    3    3  501    0 -0.24933945936E+03  0.41944536807E+02  0.80326927162E+03  0.84212293217E+03  0.00000000000E+00 0. -1.
<mgrwt>
<rscale>  0 0.66202109E+03</rscale>
<asrwt>0</asrwt>
<pdfrwt beam="1">0</pdfrwt>
<pdfrwt beam="2">  1        2 0.39842986E+00 0.66202109E+03</pdfrwt>
<totfact> 0.40333666E+00</totfact>
</mgrwt>
</event>
<event>
 5    1  0.2354746E-004  0.5410387E+03  0.7818608E-02  0.1003590E+00
         13   -1    0    0    0    0  0.00000000000E+00  0.00000000000E+00  0.10000000000E+04  0.10000000000E+04  0.00000000000E+00 0. -1.
          2   -1    0    0  501    0 -0.00000000000E+00 -0.00000000000E+00 -0.73180729168E+02  0.73180729168E+02  0.00000000000E+00 0. -1.
    9000006    2    1    2  501    0  0.00000000000E+00  0.00000000000E+00  0.92681927083E+03  0.10731807292E+04  0.54103873861E+03 0.  0.
         13    1    3    3    0    0  0.63445766490E+02  0.24547782227E+03  0.65049592232E+03  0.69816163706E+03  0.00000000000E+00 0. -1.
          2    1    3    3  501    0 -0.63445766490E+02 -0.24547782227E+03  0.27632334852E+03  0.37501909211E+03  0.00000000000E+00 0. -1.
<mgrwt>
<rscale>  0 0.54103874E+03</rscale>
<asrwt>0</asrwt>
<pdfrwt beam="1">0</pdfrwt>
<pdfrwt beam="2">  1        2 0.26611230E+00 0.54103874E+03</pdfrwt>
<totfact> 0.12202889E+01</totfact>
</mgrwt>
</event>
<event>
 5    1  0.2354746E-004  0.6523222E+03  0.7818608E-02  0.9802431E-01
         13   -1    0    0    0    0  0.00000000000E+00  0.00000000000E+00  0.10000000000E+04  0.10000000000E+04  0.00000000000E+00 0. -1.
          2   -1    0    0  501    0 -0.00000000000E+00 -0.00000000000E+00 -0.10638106084E+03  0.10638106084E+03  0.00000000000E+00 0. -1.
    9000006    2    1    2  501    0  0.00000000000E+00  0.00000000000E+00  0.89361893916E+03  0.11063810608E+04  0.65232219292E+03 0.  0.
         13    1    3    3    0    0 -0.14158790168E+03  0.20844912979E+03  0.79803379558E+03  0.83687281740E+03  0.00000000000E+00 0. -1.
          4    1    3    3  501    0  0.14158790168E+03 -0.20844912979E+03  0.95585143575E+02  0.26950824345E+03  0.00000000000E+00 0. -1.
<mgrwt>
<rscale>  0 0.65232219E+03</rscale>
<asrwt>0</asrwt>
<pdfrwt beam="1">0</pdfrwt>
<pdfrwt beam="2">  1        2 0.38684104E+00 0.65232219E+03</pdfrwt>
<totfact> 0.44586195E+00</totfact>
</mgrwt>
</event>
<event>
 5    1  0.2354746E-004  0.6539223E+03  0.7818608E-02  0.9799447E-01
         13   -1    0    0    0    0  0.00000000000E+00  0.00000000000E+00  0.10000000000E+04  0.10000000000E+04  0.00000000000E+00 0. -1.
          2   -1    0    0  501    0 -0.00000000000E+00 -0.00000000000E+00 -0.10690359377E+03  0.10690359377E+03  0.00000000000E+00 0. -1.
    9000006    2    1    2  501    0  0.00000000000E+00  0.00000000000E+00  0.89309640623E+03  0.11069035938E+04  0.65392230049E+03 0.  0.
         13    1    3    3    0    0 -0.31632302848E+03 -0.64258556867E+02  0.53473476997E+03  0.62460443057E+03  0.00000000000E+00 0. -1.
          4    1    3    3  501    0  0.31632302848E+03  0.64258556867E+02  0.35836163626E+03  0.48229916320E+03  0.00000000000E+00 0. -1.
<mgrwt>
<rscale>  0 0.65392230E+03</rscale>
<asrwt>0</asrwt>
<pdfrwt beam="1">0</pdfrwt>
<pdfrwt beam="2">  1        2 0.38874116E+00 0.65392230E+03</pdfrwt>
<totfact> 0.43862302E+00</totfact>
</mgrwt>
</event>
<event>
 5    1  0.2354746E-004  0.6266464E+03  0.7818608E-02  0.9851615E-01
         13   -1    0    0    0    0  0.00000000000E+00  0.00000000000E+00  0.10000000000E+04  0.10000000000E+04  0.00000000000E+00 0. -1.
          2   -1    0    0  501    0 -0.00000000000E+00 -0.00000000000E+00 -0.98171420893E+02  0.98171420893E+02  0.00000000000E+00 0. -1.
    9000006    2    1    2  501    0  0.00000000000E+00  0.00000000000E+00  0.90182857911E+03  0.10981714209E+04  0.62664637841E+03 0.  0.
         13    1    3    3    0    0 -0.28841667770E+01 -0.76691559909E+02  0.98327370875E+03  0.98626421414E+03  0.00000000000E+00 0. -1.
          4    1    3    3  501    0  0.28841667770E+01  0.76691559909E+02 -0.81445129645E+02  0.11190720675E+03  0.00000000000E+00 0. -1.
<mgrwt>
<rscale>  0 0.62664638E+03</rscale>
<asrwt>0</asrwt>
<pdfrwt beam="1">0</pdfrwt>
<pdfrwt beam="2">  1        2 0.35698774E+00 0.62664638E+03</pdfrwt>
<totfact> 0.57486972E+00</totfact>
</mgrwt>
</event>
<event>
 5    1  0.2354746E-004  0.6636915E+03  0.7818608E-02  0.9781422E-01
         13   -1    0    0    0    0  0.00000000000E+00  0.00000000000E+00  0.10000000000E+04  0.10000000000E+04  0.00000000000E+00 0. -1.
          2   -1    0    0  501    0 -0.00000000000E+00 -0.00000000000E+00 -0.11012159992E+03  0.11012159992E+03  0.00000000000E+00 0. -1.
    9000006    2    1    2  501    0  0.00000000000E+00  0.00000000000E+00  0.88987840008E+03  0.11101215999E+04  0.66369149434E+03 0.  0.
         13    1    3    3    0    0  0.24474319784E+03  0.89433719737E+02  0.78864263157E+03  0.83057499568E+03  0.00000000000E+00 0. -1.
          4    1    3    3  501    0 -0.24474319784E+03 -0.89433719737E+02  0.10123576852E+03  0.27954660424E+03  0.00000000000E+00 0. -1.
<mgrwt>
<rscale>  0 0.66369149E+03</rscale>
<asrwt>0</asrwt>
<pdfrwt beam="1">0</pdfrwt>
<pdfrwt beam="2">  1        2 0.40044303E+00 0.66369149E+03</pdfrwt>
<totfact> 0.39633410E+00</totfact>
</mgrwt>
</event>
<event>
 5    1  0.2354746E-004  0.6643213E+03  0.7818608E-02  0.9780271E-01
         13   -1    0    0    0    0  0.00000000000E+00  0.00000000000E+00  0.10000000000E+04  0.10000000000E+04  0.00000000000E+00 0. -1.
          2   -1    0    0  501    0 -0.00000000000E+00 -0.00000000000E+00 -0.11033069987E+03  0.11033069987E+03  0.00000000000E+00 0. -1.
    9000006    2    1    2  501    0  0.00000000000E+00  0.00000000000E+00  0.88966930013E+03  0.11103306999E+04  0.66432130740E+03 0.  0.
         13    1    3    3    0    0  0.32942966747E+03 -0.42309341662E+02  0.45166762774E+03  0.56064037684E+03  0.00000000000E+00 0. -1.
          4    1    3    3  501    0 -0.32942966747E+03  0.42309341662E+02  0.43800167240E+03  0.54969032302E+03  0.00000000000E+00 0. -1.
<mgrwt>
<rscale>  0 0.66432131E+03</rscale>
<asrwt>0</asrwt>
<pdfrwt beam="1">0</pdfrwt>
<pdfrwt beam="2">  1        2 0.40120339E+00 0.66432131E+03</pdfrwt>
<totfact> 0.39371778E+00</totfact>
</mgrwt>
</event>
<event>
 5    1  0.2354746E-004  0.6518167E+03  0.7818608E-02  0.9803376E-01
         13   -1    0    0    0    0  0.00000000000E+00  0.00000000000E+00  0.10000000000E+04  0.10000000000E+04  0.00000000000E+00 0. -1.
          2   -1    0    0  501    0 -0.00000000000E+00 -0.00000000000E+00 -0.10621625493E+03  0.10621625493E+03  0.00000000000E+00 0. -1.
    9000006    2    1    2  501    0  0.00000000000E+00  0.00000000000E+00  0.89378374507E+03  0.11062162549E+04  0.65181670716E+03 0.  0.
         13    1    3    3    0    0 -0.20115500491E+03  0.23691142320E+03  0.28038385829E+03  0.41857552058E+03  0.00000000000E+00 0. -1.
          2    1    3    3  501    0  0.20115500491E+03 -0.23691142320E+03  0.61339988677E+03  0.68764073435E+03  0.00000000000E+00 0. -1.
<mgrwt>
<rscale>  0 0.65181671E+03</rscale>
<asrwt>0</asrwt>
<pdfrwt beam="1">0</pdfrwt>
<pdfrwt beam="2">  1        2 0.38624174E+00 0.65181671E+03</pdfrwt>
<totfact> 0.44816743E+00</totfact>
</mgrwt>
</event>
<event>
 5    1  0.2354746E-004  0.6485444E+03  0.7818608E-02  0.9809514E-01
         13   -1    0    0    0    0  0.00000000000E+00  0.00000000000E+00  0.10000000000E+04  0.10000000000E+04  0.00000000000E+00 0. -1.
          2   -1    0    0  501    0 -0.00000000000E+00 -0.00000000000E+00 -0.10515247564E+03  0.10515247564E+03  0.00000000000E+00 0. -1.
    9000006    2    1    2  501    0  0.00000000000E+00  0.00000000000E+00  0.89484752436E+03  0.11051524756E+04  0.64854444919E+03 0.  0.
         13    1    3    3    0    0  0.23887178186E+03  0.11305583819E+03  0.76763622506E+03  0.81185388140E+03  0.00000000000E+00 0. -1.
          2    1    3    3  501    0 -0.23887178186E+03 -0.11305583819E+03  0.12721129930E+03  0.29329859425E+03  0.00000000000E+00 0. -1.
<mgrwt>
<rscale>  0 0.64854445E+03</rscale>
<asrwt>0</asrwt>
<pdfrwt beam="1">0</pdfrwt>
<pdfrwt beam="2">  1        2 0.38237345E+00 0.64854445E+03</pdfrwt>
<totfact> 0.46331062E+00</totfact>
</mgrwt>
</event>
<event>
 5    1  0.2354746E-004  0.6776478E+03  0.7818608E-02  0.9756240E-01
         13   -1    0    0    0    0  0.00000000000E+00  0.00000000000E+00  0.10000000000E+04  0.10000000000E+04  0.00000000000E+00 0. -1.
          2   -1    0    0  501    0 -0.00000000000E+00 -0.00000000000E+00 -0.11480162825E+03  0.11480162825E+03  0.00000000000E+00 0. -1.
    9000006    2    1    2  501    0  0.00000000000E+00  0.00000000000E+00  0.88519837175E+03  0.11148016282E+04  0.67764777944E+03 0.  0.
         13    1    3    3    0    0 -0.85905782036E+02 -0.32683002545E+03  0.48302859748E+03  0.58950343078E+03  0.00000000000E+00 0. -1.
          4    1    3    3  501    0  0.85905782036E+02  0.32683002545E+03  0.40216977427E+03  0.52529819746E+03  0.00000000000E+00 0. -1.
<mgrwt>
<rscale>  0 0.67764778E+03</rscale>
<asrwt>0</asrwt>
<pdfrwt beam="1">0</pdfrwt>
<pdfrwt beam="2">  1        2 0.41746135E+00 0.67764778E+03</pdfrwt>
<totfact> 0.34134806E+00</totfact>
</mgrwt>
</event>
<event>
 5    1  0.2354746E-004  0.6371764E+03  0.7818608E-02  0.9831144E-01
         13   -1    0    0    0    0  0.00000000000E+00  0.00000000000E+00  0.10000000000E+04  0.10000000000E+04  0.00000000000E+00 0. -1.
          2   -1    0    0  501    0 -0.00000000000E+00 -0.00000000000E+00 -0.10149844045E+03  0.10149844045E+03  0.00000000000E+00 0. -1.
    9000006    2    1    2  501    0  0.00000000000E+00  0.00000000000E+00  0.89850155955E+03  0.11014984404E+04  0.63717639771E+03 0.  0.
         13    1    3    3    0    0 -0.82884819239E+02  0.14632410495E+03 -0.18519423872E+02  0.16918512349E+03  0.00000000000E+00 0. -1.
          4    1    3    3  501    0  0.82884819239E+02 -0.14632410495E+03  0.91702098342E+03  0.93231331696E+03  0.00000000000E+00 0. -1.
<mgrwt>
<rscale>  0 0.63717640E+03</rscale>
<asrwt>0</asrwt>
<pdfrwt beam="1">0</pdfrwt>
<pdfrwt beam="2">  1        2 0.36908602E+00 0.63717640E+03</pdfrwt>
<totfact> 0.51894740E+00</totfact>
</mgrwt>
</event>
<event>
 5    1  0.2354746E-004  0.6358142E+03  0.7818608E-02  0.9833768E-01
         13   -1    0    0    0    0  0.00000000000E+00  0.00000000000E+00  0.10000000000E+04  0.10000000000E+04  0.00000000000E+00 0. -1.
          2   -1    0    0  501    0 -0.00000000000E+00 -0.00000000000E+00 -0.10106491599E+03  0.10106491599E+03  0.00000000000E+00 0. -1.
    9000006    2    1    2  501    0  0.00000000000E+00  0.00000000000E+00  0.89893508401E+03  0.11010649160E+04  0.63581417408E+03 0.  0.
         13    1    3    3    0    0  0.14823528741E+02 -0.26247386179E+03  0.13991372302E+03  0.29780549863E+03  0.00000000000E+00 0. -1.
          2    1    3    3  501    0 -0.14823528741E+02  0.26247386179E+03  0.75902136099E+03  0.80325941736E+03  0.00000000000E+00 0. -1.
<mgrwt>
<rscale>  0 0.63581417E+03</rscale>
<asrwt>0</asrwt>
<pdfrwt beam="1">0</pdfrwt>
<pdfrwt beam="2">  1        2 0.36750956E+00 0.63581417E+03</pdfrwt>
<totfact> 0.52593902E+00</totfact>
</mgrwt>
</event>
<event>
 5    1  0.2354746E-004  0.6417035E+03  0.7818608E-02  0.9822473E-01
         13   -1    0    0    0    0  0.00000000000E+00  0.00000000000E+00  0.10000000000E+04  0.10000000000E+04  0.00000000000E+00 0. -1.
          2   -1    0    0  501    0 -0.00000000000E+00 -0.00000000000E+00 -0.10294583391E+03  0.10294583391E+03  0.00000000000E+00 0. -1.
    9000006    2    1    2  501    0  0.00000000000E+00  0.00000000000E+00  0.89705416609E+03  0.11029458339E+04  0.64170346396E+03 0.  0.
         13    1    3    3    0    0  0.14522675174E+03  0.25796294864E+03  0.66119863728E+03  0.72444415259E+03  0.00000000000E+00 0. -1.
          2    1    3    3  501    0 -0.14522675174E+03 -0.25796294864E+03  0.23585552881E+03  0.37850168132E+03  0.00000000000E+00 0. -1.
<mgrwt>
<rscale>  0 0.64170346E+03</rscale>
<asrwt>0</asrwt>
<pdfrwt beam="1">0</pdfrwt>
<pdfrwt beam="2">  1        2 0.37434928E+00 0.64170346E+03</pdfrwt>
<totfact> 0.49621697E+00</totfact>
</mgrwt>
</event>
<event>
 5    1  0.2354746E-004  0.6524351E+03  0.7818608E-02  0.9802221E-01
         13   -1    0    0    0    0  0.00000000000E+00  0.00000000000E+00  0.10000000000E+04  0.10000000000E+04  0.00000000000E+00 0. -1.
          2   -1    0    0  501    0 -0.00000000000E+00 -0.00000000000E+00 -0.10641787676E+03  0.10641787676E+03  0.00000000000E+00 0. -1.
    9000006    2    1    2  501    0  0.00000000000E+00  0.00000000000E+00  0.89358212324E+03  0.11064178768E+04  0.65243505962E+03 0.  0.
         13    1    3    3    0    0 -0.20934914992E+02  0.27294566974E+03  0.74767645171E+03  0.79621459779E+03  0.00000000000E+00 0. -1.
          2    1    3    3  501    0  0.20934914992E+02 -0.27294566974E+03  0.14590567154E+03  0.31020327897E+03  0.00000000000E+00 0. -1.
<mgrwt>
<rscale>  0 0.65243506E+03</rscale>
<asrwt>0</asrwt>
<pdfrwt beam="1">0</pdfrwt>
<pdfrwt beam="2">  1        2 0.38697491E+00 0.65243506E+03</pdfrwt>
<totfact> 0.44534840E+00</totfact>
</mgrwt>
</event>
<event>
 5    1  0.2354746E-004  0.6451218E+03  0.7818608E-02  0.9815976E-01
         13   -1    0    0    0    0  0.00000000000E+00  0.00000000000E+00  0.10000000000E+04  0.10000000000E+04  0.00000000000E+00 0. -1.
          2   -1    0    0  501    0 -0.00000000000E+00 -0.00000000000E+00 -0.10404553310E+03  0.10404553310E+03  0.00000000000E+00 0. -1.
    9000006    2    1    2  501    0  0.00000000000E+00  0.00000000000E+00  0.89595446690E+03  0.11040455331E+04  0.64512179657E+03 0.  0.
         13    1    3    3    0    0  0.44560520735E+02  0.23104310328E+03  0.70391137943E+02  0.24560429126E+03  0.00000000000E+00 0. -1.
          2    1    3    3  501    0 -0.44560520735E+02 -0.23104310328E+03  0.82556332895E+03  0.85844124184E+03  0.00000000000E+00 0. -1.
<mgrwt>
<rscale>  0 0.64512180E+03</rscale>
<asrwt>0</asrwt>
<pdfrwt beam="1">0</pdfrwt>
<pdfrwt beam="2">  1        2 0.37834819E+00 0.64512180E+03</pdfrwt>
<totfact> 0.47956044E+00</totfact>
</mgrwt>
</event>
<event>
 5    1  0.2354746E-004  0.6475254E+03  0.7818608E-02  0.9811434E-01
         13   -1    0    0    0    0  0.00000000000E+00  0.00000000000E+00  0.10000000000E+04  0.10000000000E+04  0.00000000000E+00 0. -1.
          2   -1    0    0  501    0 -0.00000000000E+00 -0.00000000000E+00 -0.10482228116E+03  0.10482228116E+03  0.00000000000E+00 0. -1.
    9000006    2    1    2  501    0  0.00000000000E+00  0.00000000000E+00  0.89517771884E+03  0.11048222812E+04  0.64752538533E+03 0.  0.
         13    1    3    3    0    0  0.30485638152E+03  0.10009928433E+03  0.52127319468E+03  0.61211357081E+03  0.00000000000E+00 0. -1.
          2    1    3    3  501    0 -0.30485638152E+03 -0.10009928433E+03  0.37390452416E+03  0.49270871036E+03  0.00000000000E+00 0. -1.
<mgrwt>
<rscale>  0 0.64752539E+03</rscale>
<asrwt>0</asrwt>
<pdfrwt beam="1">0</pdfrwt>
<pdfrwt beam="2">  1        2 0.38117274E+00 0.64752539E+03</pdfrwt>
<totfact> 0.46810462E+00</totfact>
</mgrwt>
</event>
<event>
 5    1  0.2354746E-004  0.6427597E+03  0.7818608E-02  0.9820461E-01
         13   -1    0    0    0    0  0.00000000000E+00  0.00000000000E+00  0.10000000000E+04  0.10000000000E+04  0.00000000000E+00 0. -1.
          2   -1    0    0  501    0 -0.00000000000E+00 -0.00000000000E+00 -0.10328499861E+03  0.10328499861E+03  0.00000000000E+00 0. -1.
    9000006    2    1    2  501    0  0.00000000000E+00  0.00000000000E+00  0.89671500139E+03  0.11032849986E+04  0.64275967084E+03 0.  0.
         13    1    3    3    0    0 -0.62468995855E+02 -0.17362460918E+03  0.90001433402E+03  0.91873482670E+03  0.00000000000E+00 0. -1.
          4    1    3    3  501    0  0.62468995855E+02  0.17362460918E+03 -0.32993326324E+01  0.18455017191E+03  0.00000000000E+00 0. -1.
<mgrwt>
<rscale>  0 0.64275967E+03</rscale>
<asrwt>0</asrwt>
<pdfrwt beam="1">0</pdfrwt>
<pdfrwt beam="2">  1        2 0.37558261E+00 0.64275967E+03</pdfrwt>
<totfact> 0.49102408E+00</totfact>
</mgrwt>
</event>
<event>
 5    1  0.2354746E-004  0.6498953E+03  0.7818608E-02  0.9806976E-01
         13   -1    0    0    0    0  0.00000000000E+00  0.00000000000E+00  0.10000000000E+04  0.10000000000E+04  0.00000000000E+00 0. -1.
          2   -1    0    0  501    0 -0.00000000000E+00 -0.00000000000E+00 -0.10559098125E+03  0.10559098125E+03  0.00000000000E+00 0. -1.
    9000006    2    1    2  501    0  0.00000000000E+00  0.00000000000E+00  0.89440901875E+03  0.11055909813E+04  0.64989531851E+03 0.  0.
         13    1    3    3    0    0 -0.18636468140E+03 -0.26261783044E+03  0.52118274224E+03  0.61264293854E+03  0.00000000000E+00 0. -1.
          4    1    3    3  501    0  0.18636468140E+03  0.26261783044E+03  0.37322627651E+03  0.49294804271E+03  0.00000000000E+00 0. -1.
<mgrwt>
<rscale>  0 0.64989532E+03</rscale>
<asrwt>0</asrwt>
<pdfrwt beam="1">0</pdfrwt>
<pdfrwt beam="2">  1        2 0.38396801E+00 0.64989532E+03</pdfrwt>
<totfact> 0.45701302E+00</totfact>
</mgrwt>
</event>
<event>
 5    1  0.2354746E-004  0.7802939E+03  0.7818608E-02  0.9588987E-01
         13   -1    0    0    0    0  0.00000000000E+00  0.00000000000E+00  0.10000000000E+04  0.10000000000E+04  0.00000000000E+00 0. -1.
          2   -1    0    0  501    0 -0.00000000000E+00 -0.00000000000E+00 -0.15221465097E+03  0.15221465097E+03  0.00000000000E+00 0. -1.
    9000006    2    1    2  501    0  0.00000000000E+00  0.00000000000E+00  0.84778534903E+03  0.11522146510E+04  0.78029392147E+03 0.  0.
         13    1    3    3    0    0 -0.13266044886E+03  0.27612173328E+03  0.67129635588E+02  0.31360547548E+03  0.00000000000E+00 0. -1.
          2    1    3    3  501    0  0.13266044886E+03 -0.27612173328E+03  0.78065571344E+03  0.83860917549E+03  0.00000000000E+00 0. -1.
<mgrwt>
<rscale>  0 0.78029392E+03</rscale>
<asrwt>0</asrwt>
<pdfrwt beam="1">0</pdfrwt>
<pdfrwt beam="2">  1        2 0.55350899E+00 0.78029392E+03</pdfrwt>
<totfact> 0.92134497E-01</totfact>
</mgrwt>
</event>
<event>
 5    1  0.2354746E-004  0.5788035E+03  0.7818608E-02  0.9950385E-01
         13   -1    0    0    0    0  0.00000000000E+00  0.00000000000E+00  0.10000000000E+04  0.10000000000E+04  0.00000000000E+00 0. -1.
          2   -1    0    0  501    0 -0.00000000000E+00 -0.00000000000E+00 -0.83753386345E+02  0.83753386345E+02  0.00000000000E+00 0. -1.
    9000006    2    1    2  501    0  0.00000000000E+00  0.00000000000E+00  0.91624661366E+03  0.10837533863E+04  0.57880354645E+03 0.  0.
         13    1    3    3    0    0  0.13547215043E+03  0.73957211875E+01 -0.20516420135E+02  0.13721633915E+03  0.00000000000E+00 0. -1.
          4    1    3    3  501    0 -0.13547215043E+03 -0.73957211875E+01  0.93676303379E+03  0.94653704719E+03  0.00000000000E+00 0. -1.
<mgrwt>
<rscale>  0 0.57880355E+03</rscale>
<asrwt>0</asrwt>
<pdfrwt beam="1">0</pdfrwt>
<pdfrwt beam="2">  1        2 0.30455841E+00 0.57880355E+03</pdfrwt>
<totfact> 0.88923408E+00</totfact>
</mgrwt>
</event>
<event>
 5    1  0.2354746E-004  0.6552248E+03  0.7818608E-02  0.9797024E-01
         13   -1    0    0    0    0  0.00000000000E+00  0.00000000000E+00  0.10000000000E+04  0.10000000000E+04  0.00000000000E+00 0. -1.
          2   -1    0    0  501    0 -0.00000000000E+00 -0.00000000000E+00 -0.10732988442E+03  0.10732988442E+03  0.00000000000E+00 0. -1.
    9000006    2    1    2  501    0  0.00000000000E+00  0.00000000000E+00  0.89267011558E+03  0.11073298844E+04  0.65522479934E+03 0.  0.
         13    1    3    3    0    0  0.29334810554E+03 -0.12636513507E+03  0.32320112220E+03  0.45440095046E+03  0.00000000000E+00 0. -1.
          4    1    3    3  501    0 -0.29334810554E+03  0.12636513507E+03  0.56946899338E+03  0.65292893396E+03  0.00000000000E+00 0. -1.
<mgrwt>
<rscale>  0 0.65522480E+03</rscale>
<asrwt>0</asrwt>
<pdfrwt beam="1">0</pdfrwt>
<pdfrwt beam="2">  1        2 0.39029131E+00 0.65522480E+03</pdfrwt>
<totfact> 0.43279631E+00</totfact>
</mgrwt>
</event>
<event>
 5    1  0.2354746E-004  0.6698311E+03  0.7818608E-02  0.9770263E-01
         13   -1    0    0    0    0  0.00000000000E+00  0.00000000000E+00  0.10000000000E+04  0.10000000000E+04  0.00000000000E+00 0. -1.
          2   -1    0    0  501    0 -0.00000000000E+00 -0.00000000000E+00 -0.11216842074E+03  0.11216842074E+03  0.00000000000E+00 0. -1.
    9000006    2    1    2  501    0  0.00000000000E+00  0.00000000000E+00  0.88783157926E+03  0.11121684207E+04  0.66983108538E+03 0.  0.
         13    1    3    3    0    0 -0.24116563717E+03 -0.11604040230E+03  0.77823306320E+03  0.82296594108E+03  0.00000000000E+00 0. -1.
          4    1    3    3  501    0  0.24116563717E+03  0.11604040230E+03  0.10959851606E+03  0.28920247966E+03  0.00000000000E+00 0. -1.
<mgrwt>
<rscale>  0 0.66983109E+03</rscale>
<asrwt>0</asrwt>
<pdfrwt beam="1">0</pdfrwt>
<pdfrwt beam="2">  1        2 0.40788603E+00 0.66983109E+03</pdfrwt>
<totfact> 0.37138088E+00</totfact>
</mgrwt>
</event>
<event>
 5    1  0.2354746E-004  0.6698833E+03  0.7818608E-02  0.9770169E-01
         13   -1    0    0    0    0  0.00000000000E+00  0.00000000000E+00  0.10000000000E+04  0.10000000000E+04  0.00000000000E+00 0. -1.
          4   -1    0    0  501    0 -0.00000000000E+00 -0.00000000000E+00 -0.11218589417E+03  0.11218589417E+03  0.00000000000E+00 0. -1.
    9000006    2    1    2  501    0  0.00000000000E+00  0.00000000000E+00  0.88781410583E+03  0.11121858942E+04  0.66988325602E+03 0.  0.
         13    1    3    3    0    0  0.18647263524E+03 -0.24540930269E+03  0.66157401058E+03  0.72984788896E+03  0.00000000000E+00 0. -1.
          2    1    3    3  501    0 -0.18647263524E+03  0.24540930269E+03  0.22624009525E+03  0.38233800522E+03  0.00000000000E+00 0. -1.
<mgrwt>
<rscale>  0 0.66988326E+03</rscale>
<asrwt>0</asrwt>
<pdfrwt beam="1">0</pdfrwt>
<pdfrwt beam="2">  1        4 0.40794957E+00 0.66988326E+03</pdfrwt>
<totfact> 0.28210048E-02</totfact>
</mgrwt>
</event>
<event>
 5    1  0.2354746E-004  0.6493664E+03  0.7818608E-02  0.9807969E-01
         13   -1    0    0    0    0  0.00000000000E+00  0.00000000000E+00  0.10000000000E+04  0.10000000000E+04  0.00000000000E+00 0. -1.
          2   -1    0    0  501    0 -0.00000000000E+00 -0.00000000000E+00 -0.10541916503E+03  0.10541916503E+03  0.00000000000E+00 0. -1.
    9000006    2    1    2  501    0  0.00000000000E+00  0.00000000000E+00  0.89458083497E+03  0.11054191650E+04  0.64936635278E+03 0.  0.
         13    1    3    3    0    0  0.22270752707E+03  0.19908136323E+03  0.66387232718E+03  0.72798248509E+03  0.00000000000E+00 0. -1.
          4    1    3    3  501    0 -0.22270752707E+03 -0.19908136323E+03  0.23070850779E+03  0.37743667994E+03  0.00000000000E+00 0. -1.
<mgrwt>
<rscale>  0 0.64936635E+03</rscale>
<asrwt>0</asrwt>
<pdfrwt beam="1">0</pdfrwt>
<pdfrwt beam="2">  1        2 0.38334323E+00 0.64936635E+03</pdfrwt>
<totfact> 0.45947124E+00</totfact>
</mgrwt>
</event>
<event>
 5    1  0.2354746E-004  0.6491613E+03  0.7818608E-02  0.9808354E-01
         13   -1    0    0    0    0  0.00000000000E+00  0.00000000000E+00  0.10000000000E+04  0.10000000000E+04  0.00000000000E+00 0. -1.
          2   -1    0    0  501    0 -0.00000000000E+00 -0.00000000000E+00 -0.10535261283E+03  0.10535261283E+03  0.00000000000E+00 0. -1.
    9000006    2    1    2  501    0  0.00000000000E+00  0.00000000000E+00  0.89464738717E+03  0.11053526128E+04  0.64916134460E+03 0.  0.
         13    1    3    3    0    0 -0.62514612310E+02  0.26427851668E+03  0.14463139991E+03  0.30768401481E+03  0.00000000000E+00 0. -1.
          2    1    3    3  501    0  0.62514612310E+02 -0.26427851668E+03  0.75001598726E+03  0.79766859802E+03  0.00000000000E+00 0. -1.
<mgrwt>
<rscale>  0 0.64916134E+03</rscale>
<asrwt>0</asrwt>
<pdfrwt beam="1">0</pdfrwt>
<pdfrwt beam="2">  1        2 0.38310122E+00 0.64916134E+03</pdfrwt>
<totfact> 0.46042664E+00</totfact>
</mgrwt>
</event>
<event>
 5    1  0.2354746E-004  0.6196924E+03  0.7818608E-02  0.9865372E-01
         13   -1    0    0    0    0  0.00000000000E+00  0.00000000000E+00  0.10000000000E+04  0.10000000000E+04  0.00000000000E+00 0. -1.
          2   -1    0    0  501    0 -0.00000000000E+00 -0.00000000000E+00 -0.96004675247E+02  0.96004675247E+02  0.00000000000E+00 0. -1.
    9000006    2    1    2  501    0  0.00000000000E+00  0.00000000000E+00  0.90399532475E+03  0.10960046752E+04  0.61969242450E+03 0.  0.
         13    1    3    3    0    0 -0.10005115487E+03  0.26703172614E+03  0.66634837272E+03  0.72480089002E+03  0.00000000000E+00 0. -1.
          4    1    3    3  501    0  0.10005115487E+03 -0.26703172614E+03  0.23764695204E+03  0.37120378522E+03  0.00000000000E+00 0. -1.
<mgrwt>
<rscale>  0 0.61969242E+03</rscale>
<asrwt>0</asrwt>
<pdfrwt beam="1">0</pdfrwt>
<pdfrwt beam="2">  1        2 0.34910865E+00 0.61969242E+03</pdfrwt>
<totfact> 0.61423646E+00</totfact>
</mgrwt>
</event>
<event>
 5    1  0.2354746E-004  0.5801111E+03  0.7818608E-02  0.9947551E-01
         13   -1    0    0    0    0  0.00000000000E+00  0.00000000000E+00  0.10000000000E+04  0.10000000000E+04  0.00000000000E+00 0. -1.
          2   -1    0    0  501    0 -0.00000000000E+00 -0.00000000000E+00 -0.84132222080E+02  0.84132222080E+02  0.00000000000E+00 0. -1.
    9000006    2    1    2  501    0  0.00000000000E+00  0.00000000000E+00  0.91586777792E+03  0.10841322221E+04  0.58011109998E+03 0.  0.
         13    1    3    3    0    0  0.16795219898E+03  0.12093093348E+03  0.78141679706E+02  0.22122014809E+03  0.00000000000E+00 0. -1.
          4    1    3    3  501    0 -0.16795219898E+03 -0.12093093348E+03  0.83772609821E+03  0.86291207399E+03  0.00000000000E+00 0. -1.
<mgrwt>
<rscale>  0 0.58011110E+03</rscale>
<asrwt>0</asrwt>
<pdfrwt beam="1">0</pdfrwt>
<pdfrwt beam="2">  1        2 0.30593600E+00 0.58011110E+03</pdfrwt>
<totfact> 0.87918958E+00</totfact>
</mgrwt>
</event>
<event>
 5    1  0.2354746E-004  0.6575521E+03  0.7818608E-02  0.9792710E-01
         13   -1    0    0    0    0  0.00000000000E+00  0.00000000000E+00  0.10000000000E+04  0.10000000000E+04  0.00000000000E+00 0. -1.
          2   -1    0    0  501    0 -0.00000000000E+00 -0.00000000000E+00 -0.10809369945E+03  0.10809369945E+03  0.00000000000E+00 0. -1.
    9000006    2    1    2  501    0  0.00000000000E+00  0.00000000000E+00  0.89190630055E+03  0.11080936995E+04  0.65755212555E+03 0.  0.
         13    1    3    3    0    0  0.30987188828E+03  0.99848456355E+01  0.26155552650E+03  0.40562492248E+03  0.00000000000E+00 0. -1.
          2    1    3    3  501    0 -0.30987188828E+03 -0.99848456355E+01  0.63035077405E+03  0.70246877698E+03  0.00000000000E+00 0. -1.
<mgrwt>
<rscale>  0 0.65755213E+03</rscale>
<asrwt>0</asrwt>
<pdfrwt beam="1">0</pdfrwt>
<pdfrwt beam="2">  1        2 0.39306883E+00 0.65755213E+03</pdfrwt>
<totfact> 0.42253080E+00</totfact>
</mgrwt>
</event>
<event>
 5    1  0.2354746E-004  0.6492961E+03  0.7818608E-02  0.9808101E-01
         13   -1    0    0    0    0  0.00000000000E+00  0.00000000000E+00  0.10000000000E+04  0.10000000000E+04  0.00000000000E+00 0. -1.
          2   -1    0    0  501    0 -0.00000000000E+00 -0.00000000000E+00 -0.10539635258E+03  0.10539635258E+03  0.00000000000E+00 0. -1.
    9000006    2    1    2  501    0  0.00000000000E+00  0.00000000000E+00  0.89460364742E+03  0.11053963526E+04  0.64929608834E+03 0.  0.
         13    1    3    3    0    0  0.10052451077E+03  0.30855990680E+03  0.46271436219E+03  0.56517163263E+03  0.00000000000E+00 0. -1.
          2    1    3    3  501    0 -0.10052451077E+03 -0.30855990680E+03  0.43188928523E+03  0.54022471995E+03  0.00000000000E+00 0. -1.
<mgrwt>
<rscale>  0 0.64929609E+03</rscale>
<asrwt>0</asrwt>
<pdfrwt beam="1">0</pdfrwt>
<pdfrwt beam="2">  1        2 0.38326027E+00 0.64929609E+03</pdfrwt>
<totfact> 0.45979853E+00</totfact>
</mgrwt>
</event>
<event>
 5    1  0.2354746E-004  0.6625467E+03  0.7818608E-02  0.9783517E-01
         13   -1    0    0    0    0  0.00000000000E+00  0.00000000000E+00  0.10000000000E+04  0.10000000000E+04  0.00000000000E+00 0. -1.
          2   -1    0    0  501    0 -0.00000000000E+00 -0.00000000000E+00 -0.10974204300E+03  0.10974204300E+03  0.00000000000E+00 0. -1.
    9000006    2    1    2  501    0  0.00000000000E+00  0.00000000000E+00  0.89025795700E+03  0.11097420430E+04  0.66254673193E+03 0.  0.
         13    1    3    3    0    0  0.35313978046E+02 -0.25297686454E+02 -0.10495076329E+03  0.11358570641E+03  0.00000000000E+00 0. -1.
          2    1    3    3  501    0 -0.35313978046E+02  0.25297686454E+02  0.99520872029E+03  0.99615633659E+03  0.00000000000E+00 0. -1.
<mgrwt>
<rscale>  0 0.66254673E+03</rscale>
<asrwt>0</asrwt>
<pdfrwt beam="1">0</pdfrwt>
<pdfrwt beam="2">  1        2 0.39906282E+00 0.66254673E+03</pdfrwt>
<totfact> 0.40112312E+00</totfact>
</mgrwt>
</event>
<event>
 5    1  0.2354746E-004  0.6697833E+03  0.7818608E-02  0.9770349E-01
         13   -1    0    0    0    0  0.00000000000E+00  0.00000000000E+00  0.10000000000E+04  0.10000000000E+04  0.00000000000E+00 0. -1.
          2   -1    0    0  501    0 -0.00000000000E+00 -0.00000000000E+00 -0.11215243237E+03  0.11215243237E+03  0.00000000000E+00 0. -1.
    9000006    2    1    2  501    0  0.00000000000E+00  0.00000000000E+00  0.88784756763E+03  0.11121524324E+04  0.66978334518E+03 0.  0.
         13    1    3    3    0    0 -0.30788974334E+03 -0.12990496300E+03  0.48034211766E+03  0.58514950523E+03  0.00000000000E+00 0. -1.
          4    1    3    3  501    0  0.30788974334E+03  0.12990496300E+03  0.40750544997E+03  0.52700292714E+03  0.00000000000E+00 0. -1.
<mgrwt>
<rscale>  0 0.66978335E+03</rscale>
<asrwt>0</asrwt>
<pdfrwt beam="1">0</pdfrwt>
<pdfrwt beam="2">  1        2 0.40782789E+00 0.66978335E+03</pdfrwt>
<totfact> 0.37157022E+00</totfact>
</mgrwt>
</event>
<event>
 5    1  0.2354746E-004  0.6560503E+03  0.7818608E-02  0.9795492E-01
         13   -1    0    0    0    0  0.00000000000E+00  0.00000000000E+00  0.10000000000E+04  0.10000000000E+04  0.00000000000E+00 0. -1.
          2   -1    0    0  501    0 -0.00000000000E+00 -0.00000000000E+00 -0.10760050651E+03  0.10760050651E+03  0.00000000000E+00 0. -1.
    9000006    2    1    2  501    0  0.00000000000E+00  0.00000000000E+00  0.89239949349E+03  0.11076005065E+04  0.65605032279E+03 0.  0.
         13    1    3    3    0    0  0.16771022035E+03 -0.57591653510E+02 -0.19709014652E+02  0.17841513900E+03  0.00000000000E+00 0. -1.
          2    1    3    3  501    0 -0.16771022035E+03  0.57591653510E+02  0.91210850814E+03  0.92918536751E+03  0.00000000000E+00 0. -1.
<mgrwt>
<rscale>  0 0.65605032E+03</rscale>
<asrwt>0</asrwt>
<pdfrwt beam="1">0</pdfrwt>
<pdfrwt beam="2">  1        2 0.39127539E+00 0.65605032E+03</pdfrwt>
<totfact> 0.42913373E+00</totfact>
</mgrwt>
</event>
<event>
 5    1  0.2354746E-004  0.6388003E+03  0.7818608E-02  0.9828025E-01
         13   -1    0    0    0    0  0.00000000000E+00  0.00000000000E+00  0.10000000000E+04  0.10000000000E+04  0.00000000000E+00 0. -1.
          2   -1    0    0  501    0 -0.00000000000E+00 -0.00000000000E+00 -0.10201646231E+03  0.10201646231E+03  0.00000000000E+00 0. -1.
    9000006    2    1    2  501    0  0.00000000000E+00  0.00000000000E+00  0.89798353769E+03  0.11020164623E+04  0.63880032032E+03 0.  0.
         13    1    3    3    0    0  0.28573508607E+03 -0.85201415556E+02  0.25144585365E+03  0.39003696997E+03  0.00000000000E+00 0. -1.
          4    1    3    3  501    0 -0.28573508607E+03  0.85201415556E+02  0.64653768404E+03  0.71197949234E+03  0.00000000000E+00 0. -1.
<mgrwt>
<rscale>  0 0.63880032E+03</rscale>
<asrwt>0</asrwt>
<pdfrwt beam="1">0</pdfrwt>
<pdfrwt beam="2">  1        2 0.37096974E+00 0.63880032E+03</pdfrwt>
<totfact> 0.51070489E+00</totfact>
</mgrwt>
</event>
<event>
 5    1  0.2354746E-004  0.6502149E+03  0.7818608E-02  0.9806376E-01
         13   -1    0    0    0    0  0.00000000000E+00  0.00000000000E+00  0.10000000000E+04  0.10000000000E+04  0.00000000000E+00 0. -1.
          2   -1    0    0  501    0 -0.00000000000E+00 -0.00000000000E+00 -0.10569485325E+03  0.10569485325E+03  0.00000000000E+00 0. -1.
    9000006    2    1    2  501    0  0.00000000000E+00  0.00000000000E+00  0.89430514675E+03  0.11056948533E+04  0.65021489757E+03 0.  0.
         13    1    3    3    0    0  0.17938033704E+03 -0.26636241915E+03  0.53333672745E+03  0.62255466306E+03  0.00000000000E+00 0. -1.
          4    1    3    3  501    0 -0.17938033704E+03  0.26636241915E+03  0.36096841930E+03  0.48314019020E+03  0.00000000000E+00 0. -1.
<mgrwt>
<rscale>  0 0.65021490E+03</rscale>
<asrwt>0</asrwt>
<pdfrwt beam="1">0</pdfrwt>
<pdfrwt beam="2">  1        2 0.38434573E+00 0.65021490E+03</pdfrwt>
<totfact> 0.45553269E+00</totfact>
</mgrwt>
</event>
<event>
 5    1  0.2354746E-004  0.6515868E+03  0.7818608E-02  0.9803806E-01
         13   -1    0    0    0    0  0.00000000000E+00  0.00000000000E+00  0.10000000000E+04  0.10000000000E+04  0.00000000000E+00 0. -1.
          2   -1    0    0  501    0 -0.00000000000E+00 -0.00000000000E+00 -0.10614132960E+03  0.10614132960E+03  0.00000000000E+00 0. -1.
    9000006    2    1    2  501    0  0.00000000000E+00  0.00000000000E+00  0.89385867040E+03  0.11061413296E+04  0.65158676967E+03 0.  0.
         13    1    3    3    0    0  0.28273864704E+03 -0.34432912673E+02  0.71542347427E+03  0.77003734685E+03  0.00000000000E+00 0. -1.
          4    1    3    3  501    0 -0.28273864704E+03  0.34432912673E+02  0.17843519613E+03  0.33610398276E+03  0.00000000000E+00 0. -1.
<mgrwt>
<rscale>  0 0.65158677E+03</rscale>
<asrwt>0</asrwt>
<pdfrwt beam="1">0</pdfrwt>
<pdfrwt beam="2">  1        2 0.38596929E+00 0.65158677E+03</pdfrwt>
<totfact> 0.44921914E+00</totfact>
</mgrwt>
</event>
<event>
 5    1  0.2354746E-004  0.6668833E+03  0.7818608E-02  0.9775605E-01
         13   -1    0    0    0    0  0.00000000000E+00  0.00000000000E+00  0.10000000000E+04  0.10000000000E+04  0.00000000000E+00 0. -1.
          2   -1    0    0  501    0 -0.00000000000E+00 -0.00000000000E+00 -0.11118334165E+03  0.11118334165E+03  0.00000000000E+00 0. -1.
    9000006    2    1    2  501    0  0.00000000000E+00  0.00000000000E+00  0.88881665835E+03  0.11111833417E+04  0.66688332309E+03 0.  0.
         13    1    3    3    0    0  0.33020324510E+03  0.35349634983E+02  0.39443349194E+03  0.51561764839E+03  0.00000000000E+00 0. -1.
          4    1    3    3  501    0 -0.33020324510E+03 -0.35349634983E+02  0.49438316641E+03  0.59556569326E+03  0.00000000000E+00 0. -1.
<mgrwt>
<rscale>  0 0.66688332E+03</rscale>
<asrwt>0</asrwt>
<pdfrwt beam="1">0</pdfrwt>
<pdfrwt beam="2">  1        2 0.40430391E+00 0.66688332E+03</pdfrwt>
<totfact> 0.38320888E+00</totfact>
</mgrwt>
</event>
<event>
 5    1  0.2354746E-004  0.5865934E+03  0.7818608E-02  0.9933618E-01
         13   -1    0    0    0    0  0.00000000000E+00  0.00000000000E+00  0.10000000000E+04  0.10000000000E+04  0.00000000000E+00 0. -1.
          2   -1    0    0  501    0 -0.00000000000E+00 -0.00000000000E+00 -0.86022960695E+02  0.86022960695E+02  0.00000000000E+00 0. -1.
    9000006    2    1    2  501    0  0.00000000000E+00  0.00000000000E+00  0.91397703931E+03  0.10860229607E+04  0.58659342204E+03 0.  0.
         13    1    3    3    0    0  0.72568205601E+02 -0.28008220356E+03  0.54598661116E+03  0.61791064466E+03  0.00000000000E+00 0. -1.
          2    1    3    3  501    0 -0.72568205601E+02  0.28008220356E+03  0.36799042814E+03  0.46811231603E+03  0.00000000000E+00 0. -1.
<mgrwt>
<rscale>  0 0.58659342E+03</rscale>
<asrwt>0</asrwt>
<pdfrwt beam="1">0</pdfrwt>
<pdfrwt beam="2">  1        2 0.31281143E+00 0.58659342E+03</pdfrwt>
<totfact> 0.83068123E+00</totfact>
</mgrwt>
</event>
<event>
 5    1  0.2354746E-004  0.6280971E+03  0.7818608E-02  0.9848769E-01
         13   -1    0    0    0    0  0.00000000000E+00  0.00000000000E+00  0.10000000000E+04  0.10000000000E+04  0.00000000000E+00 0. -1.
          2   -1    0    0  501    0 -0.00000000000E+00 -0.00000000000E+00 -0.98626498989E+02  0.98626498989E+02  0.00000000000E+00 0. -1.
    9000006    2    1    2  501    0  0.00000000000E+00  0.00000000000E+00  0.90137350101E+03  0.10986264990E+04  0.62809712303E+03 0.  0.
         13    1    3    3    0    0  0.25950735150E+02  0.91620455061E+02 -0.72765750197E+02  0.11984407721E+03  0.00000000000E+00 0. -1.
          2    1    3    3  501    0 -0.25950735150E+02 -0.91620455061E+02  0.97413925121E+03  0.97878242178E+03  0.00000000000E+00 0. -1.
<mgrwt>
<rscale>  0 0.62809712E+03</rscale>
<asrwt>0</asrwt>
<pdfrwt beam="1">0</pdfrwt>
<pdfrwt beam="2">  1        2 0.35864257E+00 0.62809712E+03</pdfrwt>
<totfact> 0.56690549E+00</totfact>
</mgrwt>
</event>
<event>
 5    1  0.2354746E-004  0.6495790E+03  0.7818608E-02  0.9807569E-01
         13   -1    0    0    0    0  0.00000000000E+00  0.00000000000E+00  0.10000000000E+04  0.10000000000E+04  0.00000000000E+00 0. -1.
          2   -1    0    0  501    0 -0.00000000000E+00 -0.00000000000E+00 -0.10548823478E+03  0.10548823478E+03  0.00000000000E+00 0. -1.
    9000006    2    1    2  501    0  0.00000000000E+00  0.00000000000E+00  0.89451176522E+03  0.11054882348E+04  0.64957904762E+03 0.  0.
         13    1    3    3    0    0 -0.15457263441E+03  0.82426060871E+02 -0.18198594495E+02  0.17611911782E+03  0.00000000000E+00 0. -1.
          2    1    3    3  501    0  0.15457263441E+03 -0.82426060871E+02  0.91271035972E+03  0.92936911696E+03  0.00000000000E+00 0. -1.
<mgrwt>
<rscale>  0 0.64957905E+03</rscale>
<asrwt>0</asrwt>
<pdfrwt beam="1">0</pdfrwt>
<pdfrwt beam="2">  1        2 0.38359439E+00 0.64957905E+03</pdfrwt>
<totfact> 0.45848160E+00</totfact>
</mgrwt>
</event>
<event>
 5    1  0.2354746E-004  0.6515726E+03  0.7818608E-02  0.9803833E-01
         13   -1    0    0    0    0  0.00000000000E+00  0.00000000000E+00  0.10000000000E+04  0.10000000000E+04  0.00000000000E+00 0. -1.
          2   -1    0    0  501    0 -0.00000000000E+00 -0.00000000000E+00 -0.10613671427E+03  0.10613671427E+03  0.00000000000E+00 0. -1.
    9000006    2    1    2  501    0  0.00000000000E+00  0.00000000000E+00  0.89386328573E+03  0.11061367143E+04  0.65157260309E+03 0.  0.
         13    1    3    3    0    0  0.68110274410E+02  0.30487811659E+03  0.28998434948E+03  0.42624007132E+03  0.00000000000E+00 0. -1.
          4    1    3    3  501    0 -0.68110274410E+02 -0.30487811659E+03  0.60387893625E+03  0.67989664296E+03  0.00000000000E+00 0. -1.
<mgrwt>
<rscale>  0 0.65157260E+03</rscale>
<asrwt>0</asrwt>
<pdfrwt beam="1">0</pdfrwt>
<pdfrwt beam="2">  1        2 0.38595250E+00 0.65157260E+03</pdfrwt>
<totfact> 0.44928399E+00</totfact>
</mgrwt>
</event>
<event>
 5    1  0.2354746E-004  0.6542927E+03  0.7818608E-02  0.9798757E-01
         13   -1    0    0    0    0  0.00000000000E+00  0.00000000000E+00  0.10000000000E+04  0.10000000000E+04  0.00000000000E+00 0. -1.
          2   -1    0    0  501    0 -0.00000000000E+00 -0.00000000000E+00 -0.10702472985E+03  0.10702472985E+03  0.00000000000E+00 0. -1.
    9000006    2    1    2  501    0  0.00000000000E+00  0.00000000000E+00  0.89297527015E+03  0.11070247299E+04  0.65429268635E+03 0.  0.
         13    1    3    3    0    0 -0.27016406002E+03 -0.16461709214E+03  0.30556484584E+03  0.43983778983E+03  0.00000000000E+00 0. -1.
          4    1    3    3  501    0  0.27016406002E+03  0.16461709214E+03  0.58741042431E+03  0.66718694002E+03  0.00000000000E+00 0. -1.
<mgrwt>
<rscale>  0 0.65429269E+03</rscale>
<asrwt>0</asrwt>
<pdfrwt beam="1">0</pdfrwt>
<pdfrwt beam="2">  1        2 0.38918166E+00 0.65429269E+03</pdfrwt>
<totfact> 0.43696011E+00</totfact>
</mgrwt>
</event>
<event>
 5    1  0.2354746E-004  0.6338303E+03  0.7818608E-02  0.9837603E-01
         13   -1    0    0    0    0  0.00000000000E+00  0.00000000000E+00  0.10000000000E+04  0.10000000000E+04  0.00000000000E+00 0. -1.
          2   -1    0    0  501    0 -0.00000000000E+00 -0.00000000000E+00 -0.10043520336E+03  0.10043520336E+03  0.00000000000E+00 0. -1.
    9000006    2    1    2  501    0  0.00000000000E+00  0.00000000000E+00  0.89956479664E+03  0.11004352034E+04  0.63383027179E+03 0.  0.
         13    1    3    3    0    0 -0.93217603188E+02 -0.17592954952E+03  0.21703760899E+02  0.20027925798E+03  0.00000000000E+00 0. -1.
          2    1    3    3  501    0  0.93217603188E+02  0.17592954952E+03  0.87786103574E+03  0.90015594538E+03  0.00000000000E+00 0. -1.
<mgrwt>
<rscale>  0 0.63383027E+03</rscale>
<asrwt>0</asrwt>
<pdfrwt beam="1">0</pdfrwt>
<pdfrwt beam="2">  1        2 0.36521969E+00 0.63383027E+03</pdfrwt>
<totfact> 0.53624883E+00</totfact>
</mgrwt>
</event>
<event>
 5    1  0.2354746E-004  0.6298164E+03  0.7818608E-02  0.9845407E-01
         13   -1    0    0    0    0  0.00000000000E+00  0.00000000000E+00  0.10000000000E+04  0.10000000000E+04  0.00000000000E+00 0. -1.
          2   -1    0    0  501    0 -0.00000000000E+00 -0.00000000000E+00 -0.99167171787E+02  0.99167171787E+02  0.00000000000E+00 0. -1.
    9000006    2    1    2  501    0  0.00000000000E+00  0.00000000000E+00  0.90083282821E+03  0.10991671718E+04  0.62981639162E+03 0.  0.
         13    1    3    3    0    0  0.48539710398E+02  0.76113346583E+02 -0.76101340473E+02  0.11807099151E+03  0.00000000000E+00 0. -1.
          2    1    3    3  501    0 -0.48539710398E+02 -0.76113346583E+02  0.97693416869E+03  0.98109618028E+03  0.00000000000E+00 0. -1.
<mgrwt>
<rscale>  0 0.62981639E+03</rscale>
<asrwt>0</asrwt>
<pdfrwt beam="1">0</pdfrwt>
<pdfrwt beam="2">  1        2 0.36060866E+00 0.62981639E+03</pdfrwt>
<totfact> 0.55757605E+00</totfact>
</mgrwt>
</event>
<event>
 5    1  0.2354746E-004  0.6131615E+03  0.7818608E-02  0.9878470E-01
         13   -1    0    0    0    0  0.00000000000E+00  0.00000000000E+00  0.10000000000E+04  0.10000000000E+04  0.00000000000E+00 0. -1.
          2   -1    0    0  501    0 -0.00000000000E+00 -0.00000000000E+00 -0.93991763708E+02  0.93991763708E+02  0.00000000000E+00 0. -1.
    9000006    2    1    2  501    0  0.00000000000E+00  0.00000000000E+00  0.90600823629E+03  0.10939917637E+04  0.61316152426E+03 0.  0.
         13    1    3    3    0    0  0.22593185994E+03 -0.19917269232E+03  0.55513660959E+03  0.63157867444E+03  0.00000000000E+00 0. -1.
          4    1    3    3  501    0 -0.22593185994E+03  0.19917269232E+03  0.35087162670E+03  0.46241308927E+03  0.00000000000E+00 0. -1.
<mgrwt>
<rscale>  0 0.61316152E+03</rscale>
<asrwt>0</asrwt>
<pdfrwt beam="1">0</pdfrwt>
<pdfrwt beam="2">  1        2 0.34178895E+00 0.61316152E+03</pdfrwt>
<totfact> 0.65304577E+00</totfact>
</mgrwt>
</event>
<event>
 5    1  0.2354746E-004  0.6535836E+03  0.7818608E-02  0.9800078E-01
         13   -1    0    0    0    0  0.00000000000E+00  0.00000000000E+00  0.10000000000E+04  0.10000000000E+04  0.00000000000E+00 0. -1.
          2   -1    0    0  501    0 -0.00000000000E+00 -0.00000000000E+00 -0.10679288183E+03  0.10679288183E+03  0.00000000000E+00 0. -1.
    9000006    2    1    2  501    0  0.00000000000E+00  0.00000000000E+00  0.89320711817E+03  0.11067928818E+04  0.65358360393E+03 0.  0.
         13    1    3    3    0    0  0.15783789718E+03  0.20938328151E+03  0.11632668597E+03  0.28685546575E+03  0.00000000000E+00 0. -1.
          2    1    3    3  501    0 -0.15783789718E+03 -0.20938328151E+03  0.77688043220E+03  0.81993741608E+03  0.00000000000E+00 0. -1.
<mgrwt>
<rscale>  0 0.65358360E+03</rscale>
<asrwt>0</asrwt>
<pdfrwt beam="1">0</pdfrwt>
<pdfrwt beam="2">  1        2 0.38833857E+00 0.65358360E+03</pdfrwt>
<totfact> 0.44014783E+00</totfact>
</mgrwt>
</event>
<event>
 5    1  0.2354746E-004  0.6606014E+03  0.7818608E-02  0.9787087E-01
         13   -1    0    0    0    0  0.00000000000E+00  0.00000000000E+00  0.10000000000E+04  0.10000000000E+04  0.00000000000E+00 0. -1.
          2   -1    0    0  501    0 -0.00000000000E+00 -0.00000000000E+00 -0.10909854459E+03  0.10909854459E+03  0.00000000000E+00 0. -1.
    9000006    2    1    2  501    0  0.00000000000E+00  0.00000000000E+00  0.89090145541E+03  0.11090985446E+04  0.66060137629E+03 0.  0.
         13    1    3    3    0    0 -0.16124015280E+03  0.28621625589E+03  0.38776776269E+03  0.50821449192E+03  0.00000000000E+00 0. -1.
          2    1    3    3  501    0  0.16124015280E+03 -0.28621625589E+03  0.50313369272E+03  0.60088405267E+03  0.00000000000E+00 0. -1.
<mgrwt>
<rscale>  0 0.66060138E+03</rscale>
<asrwt>0</asrwt>
<pdfrwt beam="1">0</pdfrwt>
<pdfrwt beam="2">  1        2 0.39672282E+00 0.66060138E+03</pdfrwt>
<totfact> 0.40936135E+00</totfact>
</mgrwt>
</event>
<event>
 5    1  0.2354746E-004  0.6525023E+03  0.7818608E-02  0.9802095E-01
         13   -1    0    0    0    0  0.00000000000E+00  0.00000000000E+00  0.10000000000E+04  0.10000000000E+04  0.00000000000E+00 0. -1.
          2   -1    0    0  501    0 -0.00000000000E+00 -0.00000000000E+00 -0.10643982245E+03  0.10643982245E+03  0.00000000000E+00 0. -1.
    9000006    2    1    2  501    0  0.00000000000E+00  0.00000000000E+00  0.89356017755E+03  0.11064398224E+04  0.65250232934E+03 0.  0.
         13    1    3    3    0    0  0.15095443398E+03  0.63389305188E+02 -0.31735429075E+02  0.16677104847E+03  0.00000000000E+00 0. -1.
          2    1    3    3  501    0 -0.15095443398E+03 -0.63389305188E+02  0.92529560663E+03  0.93966877398E+03  0.00000000000E+00 0. -1.
<mgrwt>
<rscale>  0 0.65250233E+03</rscale>
<asrwt>0</asrwt>
<pdfrwt beam="1">0</pdfrwt>
<pdfrwt beam="2">  1        2 0.38705472E+00 0.65250233E+03</pdfrwt>
<totfact> 0.44504253E+00</totfact>
</mgrwt>
</event>
<event>
 5    1  0.2354746E-004  0.6526758E+03  0.7818608E-02  0.9801771E-01
         13   -1    0    0    0    0  0.00000000000E+00  0.00000000000E+00  0.10000000000E+04  0.10000000000E+04  0.00000000000E+00 0. -1.
          2   -1    0    0  501    0 -0.00000000000E+00 -0.00000000000E+00 -0.10649643782E+03  0.10649643782E+03  0.00000000000E+00 0. -1.
    9000006    2    1    2  501    0  0.00000000000E+00  0.00000000000E+00  0.89350356218E+03  0.11064964378E+04  0.65267583935E+03 0.  0.
         13    1    3    3    0    0  0.26531859766E+03  0.77670320323E+02  0.74073176379E+03  0.79063909770E+03  0.00000000000E+00 0. -1.
          4    1    3    3  501    0 -0.26531859766E+03 -0.77670320323E+02  0.15277179839E+03  0.31585734012E+03  0.00000000000E+00 0. -1.
<mgrwt>
<rscale>  0 0.65267584E+03</rscale>
<asrwt>0</asrwt>
<pdfrwt beam="1">0</pdfrwt>
<pdfrwt beam="2">  1        2 0.38726059E+00 0.65267584E+03</pdfrwt>
<totfact> 0.44425433E+00</totfact>
</mgrwt>
</event>
<event>
 5    1  0.2354746E-004  0.6431329E+03  0.7818608E-02  0.9819751E-01
         13   -1    0    0    0    0  0.00000000000E+00  0.00000000000E+00  0.10000000000E+04  0.10000000000E+04  0.00000000000E+00 0. -1.
          2   -1    0    0  501    0 -0.00000000000E+00 -0.00000000000E+00 -0.10340496577E+03  0.10340496577E+03  0.00000000000E+00 0. -1.
    9000006    2    1    2  501    0  0.00000000000E+00  0.00000000000E+00  0.89659503423E+03  0.11034049658E+04  0.64313285027E+03 0.  0.
         13    1    3    3    0    0 -0.90155147009E+02  0.16907496808E+03  0.89136184200E+03  0.91172376778E+03  0.00000000000E+00 0. -1.
          4    1    3    3  501    0  0.90155147009E+02 -0.16907496808E+03  0.52331922273E+01  0.19168119799E+03  0.00000000000E+00 0. -1.
<mgrwt>
<rscale>  0 0.64313285E+03</rscale>
<asrwt>0</asrwt>
<pdfrwt beam="1">0</pdfrwt>
<pdfrwt beam="2">  1        2 0.37601885E+00 0.64313285E+03</pdfrwt>
<totfact> 0.48919934E+00</totfact>
</mgrwt>
</event>
<event>
 5    1  0.2354746E-004  0.6479261E+03  0.7818608E-02  0.9810678E-01
         13   -1    0    0    0    0  0.00000000000E+00  0.00000000000E+00  0.10000000000E+04  0.10000000000E+04  0.00000000000E+00 0. -1.
          2   -1    0    0  501    0 -0.00000000000E+00 -0.00000000000E+00 -0.10495207124E+03  0.10495207124E+03  0.00000000000E+00 0. -1.
    9000006    2    1    2  501    0  0.00000000000E+00  0.00000000000E+00  0.89504792876E+03  0.11049520712E+04  0.64792614159E+03 0.  0.
         13    1    3    3    0    0  0.55332517694E+02 -0.26179854424E+03  0.13608118496E+03  0.30019702561E+03  0.00000000000E+00 0. -1.
          2    1    3    3  501    0 -0.55332517694E+02  0.26179854424E+03  0.75896674380E+03  0.80475504563E+03  0.00000000000E+00 0. -1.
<mgrwt>
<rscale>  0 0.64792614E+03</rscale>
<asrwt>0</asrwt>
<pdfrwt beam="1">0</pdfrwt>
<pdfrwt beam="2">  1        2 0.38164470E+00 0.64792614E+03</pdfrwt>
<totfact> 0.46621488E+00</totfact>
</mgrwt>
</event>
<event>
 5    1  0.2354746E-004  0.6622447E+03  0.7818608E-02  0.9784070E-01
         13   -1    0    0    0    0  0.00000000000E+00  0.00000000000E+00  0.10000000000E+04  0.10000000000E+04  0.00000000000E+00 0. -1.
          2   -1    0    0  501    0 -0.00000000000E+00 -0.00000000000E+00 -0.10964202228E+03  0.10964202228E+03  0.00000000000E+00 0. -1.
    9000006    2    1    2  501    0  0.00000000000E+00  0.00000000000E+00  0.89035797772E+03  0.11096420223E+04  0.66224473508E+03 0.  0.
         13    1    3    3    0    0 -0.21067580547E+03 -0.24305466437E+03  0.57692407027E+03  0.66053103465E+03  0.00000000000E+00 0. -1.
          4    1    3    3  501    0  0.21067580547E+03  0.24305466437E+03  0.31343390744E+03  0.44911098763E+03  0.00000000000E+00 0. -1.
<mgrwt>
<rscale>  0 0.66224474E+03</rscale>
<asrwt>0</asrwt>
<pdfrwt beam="1">0</pdfrwt>
<pdfrwt beam="2">  1        2 0.39869910E+00 0.66224474E+03</pdfrwt>
<totfact> 0.40239375E+00</totfact>
</mgrwt>
</event>
<event>
 5    1  0.2354746E-004  0.6363779E+03  0.7818608E-02  0.9832681E-01
         13   -1    0    0    0    0  0.00000000000E+00  0.00000000000E+00  0.10000000000E+04  0.10000000000E+04  0.00000000000E+00 0. -1.
          2   -1    0    0  501    0 -0.00000000000E+00 -0.00000000000E+00 -0.10124421606E+03  0.10124421606E+03  0.00000000000E+00 0. -1.
    9000006    2    1    2  501    0  0.00000000000E+00  0.00000000000E+00  0.89875578394E+03  0.11012442161E+04  0.63637792563E+03 0.  0.
         13    1    3    3    0    0 -0.29663499844E+03  0.95828765804E+02  0.55975997306E+03  0.64070796944E+03  0.00000000000E+00 0. -1.
          4    1    3    3  501    0  0.29663499844E+03 -0.95828765804E+02  0.33899581088E+03  0.46053624662E+03  0.00000000000E+00 0. -1.
<mgrwt>
<rscale>  0 0.63637793E+03</rscale>
<asrwt>0</asrwt>
<pdfrwt beam="1">0</pdfrwt>
<pdfrwt beam="2">  1        2 0.36816156E+00 0.63637793E+03</pdfrwt>
<totfact> 0.52303696E+00</totfact>
</mgrwt>
</event>
<event>
 5    1  0.2354746E-004  0.6504176E+03  0.7818608E-02  0.9805996E-01
         13   -1    0    0    0    0  0.00000000000E+00  0.00000000000E+00  0.10000000000E+04  0.10000000000E+04  0.00000000000E+00 0. -1.
          2   -1    0    0  501    0 -0.00000000000E+00 -0.00000000000E+00 -0.10576075448E+03  0.10576075448E+03  0.00000000000E+00 0. -1.
    9000006    2    1    2  501    0  0.00000000000E+00  0.00000000000E+00  0.89423924552E+03  0.11057607545E+04  0.65041757195E+03 0.  0.
         13    1    3    3    0    0 -0.29212799982E+03 -0.13927617193E+03  0.50152568897E+03  0.59687908076E+03  0.00000000000E+00 0. -1.
          2    1    3    3  501    0  0.29212799982E+03  0.13927617193E+03  0.39271355655E+03  0.50888167372E+03  0.00000000000E+00 0. -1.
<mgrwt>
<rscale>  0 0.65041757E+03</rscale>
<asrwt>0</asrwt>
<pdfrwt beam="1">0</pdfrwt>
<pdfrwt beam="2">  1        2 0.38458537E+00 0.65041757E+03</pdfrwt>
<totfact> 0.45459576E+00</totfact>
</mgrwt>
</event>
<event>
 5    1  0.2354746E-004  0.6488787E+03  0.7818608E-02  0.9808886E-01
         13   -1    0    0    0    0  0.00000000000E+00  0.00000000000E+00  0.10000000000E+04  0.10000000000E+04  0.00000000000E+00 0. -1.
          2   -1    0    0  501    0 -0.00000000000E+00 -0.00000000000E+00 -0.10526088874E+03  0.10526088874E+03  0.00000000000E+00 0. -1.
    9000006    2    1    2  501    0  0.00000000000E+00  0.00000000000E+00  0.89473911126E+03  0.11052608887E+04  0.64887869049E+03 0.  0.
         13    1    3    3    0    0 -0.32219980090E+03  0.34876439204E+02  0.42143562551E+03  0.53163621412E+03  0.00000000000E+00 0. -1.
          4    1    3    3  501    0  0.32219980090E+03 -0.34876439204E+02  0.47330348575E+03  0.57362467462E+03  0.00000000000E+00 0. -1.
<mgrwt>
<rscale>  0 0.64887869E+03</rscale>
<asrwt>0</asrwt>
<pdfrwt beam="1">0</pdfrwt>
<pdfrwt beam="2">  1        2 0.38276768E+00 0.64887869E+03</pdfrwt>
<totfact> 0.46174636E+00</totfact>
</mgrwt>
</event>
<event>
 5    1  0.2354746E-004  0.6516731E+03  0.7818608E-02  0.9803645E-01
         13   -1    0    0    0    0  0.00000000000E+00  0.00000000000E+00  0.10000000000E+04  0.10000000000E+04  0.00000000000E+00 0. -1.
          2   -1    0    0  501    0 -0.00000000000E+00 -0.00000000000E+00 -0.10616944764E+03  0.10616944764E+03  0.00000000000E+00 0. -1.
    9000006    2    1    2  501    0  0.00000000000E+00  0.00000000000E+00  0.89383055236E+03  0.11061694476E+04  0.65167307029E+03 0.  0.
         13    1    3    3    0    0 -0.68168061358E+02  0.31819775144E+03  0.47494878552E+03  0.57573695598E+03  0.00000000000E+00 0. -1.
          4    1    3    3  501    0  0.68168061358E+02 -0.31819775144E+03  0.41888176684E+03  0.53043249166E+03  0.00000000000E+00 0. -1.
<mgrwt>
<rscale>  0 0.65167307E+03</rscale>
<asrwt>0</asrwt>
<pdfrwt beam="1">0</pdfrwt>
<pdfrwt beam="2">  1        2 0.38607153E+00 0.65167307E+03</pdfrwt>
<totfact> 0.44882419E+00</totfact>
</mgrwt>
</event>
<event>
 5    1  0.2354746E-004  0.6300695E+03  0.7818608E-02  0.9844913E-01
         13   -1    0    0    0    0  0.00000000000E+00  0.00000000000E+00  0.10000000000E+04  0.10000000000E+04  0.00000000000E+00 0. -1.
          2   -1    0    0  501    0 -0.00000000000E+00 -0.00000000000E+00 -0.99246896805E+02  0.99246896805E+02  0.00000000000E+00 0. -1.
    9000006    2    1    2  501    0  0.00000000000E+00  0.00000000000E+00  0.90075310319E+03  0.10992468968E+04  0.63006950983E+03 0.  0.
         13    1    3    3    0    0  0.28500056436E+03  0.13271885069E+03  0.41516750370E+03  0.52077218737E+03  0.00000000000E+00 0. -1.
          4    1    3    3  501    0 -0.28500056436E+03 -0.13271885069E+03  0.48558559950E+03  0.57847470943E+03  0.00000000000E+00 0. -1.
<mgrwt>
<rscale>  0 0.63006951E+03</rscale>
<asrwt>0</asrwt>
<pdfrwt beam="1">0</pdfrwt>
<pdfrwt beam="2">  1        2 0.36089857E+00 0.63006951E+03</pdfrwt>
<totfact> 0.55621244E+00</totfact>
</mgrwt>
</event>
<event>
 5    1  0.2354746E-004  0.6451390E+03  0.7818608E-02  0.9815944E-01
         13   -1    0    0    0    0  0.00000000000E+00  0.00000000000E+00  0.10000000000E+04  0.10000000000E+04  0.00000000000E+00 0. -1.
          2   -1    0    0  501    0 -0.00000000000E+00 -0.00000000000E+00 -0.10405107570E+03  0.10405107570E+03  0.00000000000E+00 0. -1.
    9000006    2    1    2  501    0  0.00000000000E+00  0.00000000000E+00  0.89594892430E+03  0.11040510757E+04  0.64513897943E+03 0.  0.
         13    1    3    3    0    0  0.11500324979E+03  0.30093196815E+03  0.42010124248E+03  0.52940613035E+03  0.00000000000E+00 0. -1.
          2    1    3    3  501    0 -0.11500324979E+03 -0.30093196815E+03  0.47584768183E+03  0.57464494535E+03  0.00000000000E+00 0. -1.
<mgrwt>
<rscale>  0 0.64513898E+03</rscale>
<asrwt>0</asrwt>
<pdfrwt beam="1">0</pdfrwt>
<pdfrwt beam="2">  1        2 0.37836835E+00 0.64513898E+03</pdfrwt>
<totfact> 0.47947780E+00</totfact>
</mgrwt>
</event>
<event>
 5    1  0.2354746E-004  0.6390558E+03  0.7818608E-02  0.9827535E-01
         13   -1    0    0    0    0  0.00000000000E+00  0.00000000000E+00  0.10000000000E+04  0.10000000000E+04  0.00000000000E+00 0. -1.
          2   -1    0    0  501    0 -0.00000000000E+00 -0.00000000000E+00 -0.10209807167E+03  0.10209807167E+03  0.00000000000E+00 0. -1.
    9000006    2    1    2  501    0  0.00000000000E+00  0.00000000000E+00  0.89790192833E+03  0.11020980717E+04  0.63905577745E+03 0.  0.
         13    1    3    3    0    0 -0.66295944833E+02  0.27576689677E+03  0.70273597384E+03  0.75781289418E+03  0.00000000000E+00 0. -1.
          2    1    3    3  501    0  0.66295944833E+02 -0.27576689677E+03  0.19516595449E+03  0.34428517750E+03  0.00000000000E+00 0. -1.
<mgrwt>
<rscale>  0 0.63905578E+03</rscale>
<asrwt>0</asrwt>
<pdfrwt beam="1">0</pdfrwt>
<pdfrwt beam="2">  1        2 0.37126650E+00 0.63905578E+03</pdfrwt>
<totfact> 0.50941735E+00</totfact>
</mgrwt>
</event>
<event>
 5    1  0.2354746E-004  0.6568906E+03  0.7818608E-02  0.9793935E-01
         13   -1    0    0    0    0  0.00000000000E+00  0.00000000000E+00  0.10000000000E+04  0.10000000000E+04  0.00000000000E+00 0. -1.
          2   -1    0    0  501    0 -0.00000000000E+00 -0.00000000000E+00 -0.10787631624E+03  0.10787631624E+03  0.00000000000E+00 0. -1.
    9000006    2    1    2  501    0  0.00000000000E+00  0.00000000000E+00  0.89212368376E+03  0.11078763162E+04  0.65689060348E+03 0.  0.
         13    1    3    3    0    0 -0.14374956595E+02  0.26729297791E+03  0.76705610857E+03  0.81242061095E+03  0.00000000000E+00 0. -1.
          4    1    3    3  501    0  0.14374956595E+02 -0.26729297791E+03  0.12506757520E+03  0.29545570528E+03  0.00000000000E+00 0. -1.
<mgrwt>
<rscale>  0 0.65689060E+03</rscale>
<asrwt>0</asrwt>
<pdfrwt beam="1">0</pdfrwt>
<pdfrwt beam="2">  1        2 0.39227834E+00 0.65689060E+03</pdfrwt>
<totfact> 0.42542977E+00</totfact>
</mgrwt>
</event>
<event>
 5    1  0.2354746E-004  0.6528249E+03  0.7818608E-02  0.9801493E-01
         13   -1    0    0    0    0  0.00000000000E+00  0.00000000000E+00  0.10000000000E+04  0.10000000000E+04  0.00000000000E+00 0. -1.
          2   -1    0    0  501    0 -0.00000000000E+00 -0.00000000000E+00 -0.10654510255E+03  0.10654510255E+03  0.00000000000E+00 0. -1.
    9000006    2    1    2  501    0  0.00000000000E+00  0.00000000000E+00  0.89345489745E+03  0.11065451026E+04  0.65282494608E+03 0.  0.
         13    1    3    3    0    0 -0.12113373312E+03  0.23261514768E+03  0.77610908308E+03  0.81922432646E+03  0.00000000000E+00 0. -1.
          2    1    3    3  501    0  0.12113373312E+03 -0.23261514768E+03  0.11734581437E+03  0.28732077610E+03  0.00000000000E+00 0. -1.
<mgrwt>
<rscale>  0 0.65282495E+03</rscale>
<asrwt>0</asrwt>
<pdfrwt beam="1">0</pdfrwt>
<pdfrwt beam="2">  1        2 0.38743755E+00 0.65282495E+03</pdfrwt>
<totfact> 0.44357783E+00</totfact>
</mgrwt>
</event>
<event>
 5    1  0.2354746E-004  0.6427565E+03  0.7818608E-02  0.9820467E-01
         13   -1    0    0    0    0  0.00000000000E+00  0.00000000000E+00  0.10000000000E+04  0.10000000000E+04  0.00000000000E+00 0. -1.
          2   -1    0    0  501    0 -0.00000000000E+00 -0.00000000000E+00 -0.10328396555E+03  0.10328396555E+03  0.00000000000E+00 0. -1.
    9000006    2    1    2  501    0  0.00000000000E+00  0.00000000000E+00  0.89671603445E+03  0.11032839656E+04  0.64275645638E+03 0.  0.
         13    1    3    3    0    0  0.11205262411E+03 -0.29939073034E+03  0.39160047822E+03  0.50551116162E+03  0.00000000000E+00 0. -1.
          4    1    3    3  501    0 -0.11205262411E+03  0.29939073034E+03  0.50511555623E+03  0.59777280393E+03  0.00000000000E+00 0. -1.
<mgrwt>
<rscale>  0 0.64275646E+03</rscale>
<asrwt>0</asrwt>
<pdfrwt beam="1">0</pdfrwt>
<pdfrwt beam="2">  1        2 0.37557885E+00 0.64275646E+03</pdfrwt>
<totfact> 0.49103982E+00</totfact>
</mgrwt>
</event>
<event>
 5    1  0.2354746E-004  0.6444266E+03  0.7818608E-02  0.9817294E-01
         13   -1    0    0    0    0  0.00000000000E+00  0.00000000000E+00  0.10000000000E+04  0.10000000000E+04  0.00000000000E+00 0. -1.
          2   -1    0    0  501    0 -0.00000000000E+00 -0.00000000000E+00 -0.10382140040E+03  0.10382140040E+03  0.00000000000E+00 0. -1.
    9000006    2    1    2  501    0  0.00000000000E+00  0.00000000000E+00  0.89617859960E+03  0.11038214004E+04  0.64442656803E+03 0.  0.
         13    1    3    3    0    0 -0.19366466363E+03 -0.25751775053E+03  0.44822861667E+03  0.55202380980E+03  0.00000000000E+00 0. -1.
          2    1    3    3  501    0  0.19366466363E+03  0.25751775053E+03  0.44794998294E+03  0.55179759060E+03  0.00000000000E+00 0. -1.
<mgrwt>
<rscale>  0 0.64442657E+03</rscale>
<asrwt>0</asrwt>
<pdfrwt beam="1">0</pdfrwt>
<pdfrwt beam="2">  1        2 0.37753316E+00 0.64442657E+03</pdfrwt>
<totfact> 0.48291318E+00</totfact>
</mgrwt>
</event>
<event>
 5    1  0.2354746E-004  0.6515704E+03  0.7818608E-02  0.9803837E-01
         13   -1    0    0    0    0  0.00000000000E+00  0.00000000000E+00  0.10000000000E+04  0.10000000000E+04  0.00000000000E+00 0. -1.
          2   -1    0    0  501    0 -0.00000000000E+00 -0.00000000000E+00 -0.10613599081E+03  0.10613599081E+03  0.00000000000E+00 0. -1.
    9000006    2    1    2  501    0  0.00000000000E+00  0.00000000000E+00  0.89386400919E+03  0.11061359908E+04  0.65157038240E+03 0.  0.
         13    1    3    3    0    0 -0.23010876136E+03  0.18494809770E+03  0.68081411695E+03  0.74206718209E+03  0.00000000000E+00 0. -1.
          4    1    3    3  501    0  0.23010876136E+03 -0.18494809770E+03  0.21304989224E+03  0.36406880872E+03  0.00000000000E+00 0. -1.
<mgrwt>
<rscale>  0 0.65157038E+03</rscale>
<asrwt>0</asrwt>
<pdfrwt beam="1">0</pdfrwt>
<pdfrwt beam="2">  1        2 0.38594987E+00 0.65157038E+03</pdfrwt>
<totfact> 0.44929416E+00</totfact>
</mgrwt>
</event>
<event>
 5    1  0.2354746E-004  0.6253560E+03  0.7818608E-02  0.9854153E-01
         13   -1    0    0    0    0  0.00000000000E+00  0.00000000000E+00  0.10000000000E+04  0.10000000000E+04  0.00000000000E+00 0. -1.
          2   -1    0    0  501    0 -0.00000000000E+00 -0.00000000000E+00 -0.97767516418E+02  0.97767516418E+02  0.00000000000E+00 0. -1.
    9000006    2    1    2  501    0  0.00000000000E+00  0.00000000000E+00  0.90223248358E+03  0.10977675164E+04  0.62535595118E+03 0.  0.
         13    1    3    3    0    0 -0.17964753555E+02  0.29161805736E+03  0.64662156506E+03  0.70956555170E+03  0.00000000000E+00 0. -1.
          2    1    3    3  501    0  0.17964753555E+02 -0.29161805736E+03  0.25561091852E+03  0.38820196472E+03  0.00000000000E+00 0. -1.
<mgrwt>
<rscale>  0 0.62535595E+03</rscale>
<asrwt>0</asrwt>
<pdfrwt beam="1">0</pdfrwt>
<pdfrwt beam="2">  1        2 0.35551899E+00 0.62535595E+03</pdfrwt>
<totfact> 0.58202563E+00</totfact>
</mgrwt>
</event>
<event>
 5    1  0.2354746E-004  0.6135416E+03  0.7818608E-02  0.9877703E-01
         13   -1    0    0    0    0  0.00000000000E+00  0.00000000000E+00  0.10000000000E+04  0.10000000000E+04  0.00000000000E+00 0. -1.
          2   -1    0    0  501    0 -0.00000000000E+00 -0.00000000000E+00 -0.94108314532E+02  0.94108314532E+02  0.00000000000E+00 0. -1.
    9000006    2    1    2  501    0  0.00000000000E+00  0.00000000000E+00  0.90589168547E+03  0.10941083145E+04  0.61354157001E+03 0.  0.
         13    1    3    3    0    0  0.18857368625E+03  0.12942558684E+03  0.81752381316E+03  0.84891472054E+03  0.00000000000E+00 0. -1.
          2    1    3    3  501    0 -0.18857368625E+03 -0.12942558684E+03  0.88367872310E+02  0.24519359399E+03  0.00000000000E+00 0. -1.
<mgrwt>
<rscale>  0 0.61354157E+03</rscale>
<asrwt>0</asrwt>
<pdfrwt beam="1">0</pdfrwt>
<pdfrwt beam="2">  1        2 0.34221277E+00 0.61354157E+03</pdfrwt>
<totfact> 0.65073747E+00</totfact>
</mgrwt>
</event>
<event>
 5    1  0.2354746E-004  0.6356509E+03  0.7818608E-02  0.9834083E-01
         13   -1    0    0    0    0  0.00000000000E+00  0.00000000000E+00  0.10000000000E+04  0.10000000000E+04  0.00000000000E+00 0. -1.
          2   -1    0    0  501    0 -0.00000000000E+00 -0.00000000000E+00 -0.10101301547E+03  0.10101301547E+03  0.00000000000E+00 0. -1.
    9000006    2    1    2  501    0  0.00000000000E+00  0.00000000000E+00  0.89898698453E+03  0.11010130155E+04  0.63565089623E+03 0.  0.
         13    1    3    3    0    0  0.18603741037E+03 -0.24837603833E+03  0.56839757091E+03  0.64759275250E+03  0.00000000000E+00 0. -1.
          2    1    3    3  501    0 -0.18603741037E+03  0.24837603833E+03  0.33058941362E+03  0.45342026297E+03  0.00000000000E+00 0. -1.
<mgrwt>
<rscale>  0 0.63565090E+03</rscale>
<asrwt>0</asrwt>
<pdfrwt beam="1">0</pdfrwt>
<pdfrwt beam="2">  1        2 0.36732083E+00 0.63565090E+03</pdfrwt>
<totfact> 0.52678181E+00</totfact>
</mgrwt>
</event>
<event>
 5    1  0.2354746E-004  0.6613423E+03  0.7818608E-02  0.9785726E-01
         13   -1    0    0    0    0  0.00000000000E+00  0.00000000000E+00  0.10000000000E+04  0.10000000000E+04  0.00000000000E+00 0. -1.
          2   -1    0    0  501    0 -0.00000000000E+00 -0.00000000000E+00 -0.10934341607E+03  0.10934341607E+03  0.00000000000E+00 0. -1.
    9000006    2    1    2  501    0  0.00000000000E+00  0.00000000000E+00  0.89065658393E+03  0.11093434161E+04  0.66134232005E+03 0.  0.
         13    1    3    3    0    0  0.24262293857E+03 -0.18216518184E+03  0.66591510235E+03  0.73177384985E+03  0.00000000000E+00 0. -1.
          2    1    3    3  501    0 -0.24262293857E+03  0.18216518184E+03  0.22474148158E+03  0.37756956622E+03  0.00000000000E+00 0. -1.
<mgrwt>
<rscale>  0 0.66134232E+03</rscale>
<asrwt>0</asrwt>
<pdfrwt beam="1">0</pdfrwt>
<pdfrwt beam="2">  1        2 0.39761326E+00 0.66134232E+03</pdfrwt>
<totfact> 0.40620868E+00</totfact>
</mgrwt>
</event>
<event>
 5    1  0.2354746E-004  0.6538564E+03  0.7818608E-02  0.9799570E-01
         13   -1    0    0    0    0  0.00000000000E+00  0.00000000000E+00  0.10000000000E+04  0.10000000000E+04  0.00000000000E+00 0. -1.
          2   -1    0    0  501    0 -0.00000000000E+00 -0.00000000000E+00 -0.10688205132E+03  0.10688205132E+03  0.00000000000E+00 0. -1.
    9000006    2    1    2  501    0  0.00000000000E+00  0.00000000000E+00  0.89311794868E+03  0.11068820513E+04  0.65385641029E+03 0.  0.
         13    1    3    3    0    0 -0.28821935967E+03  0.15371741426E+03  0.46943494622E+03  0.57189912700E+03  0.00000000000E+00 0. -1.
          2    1    3    3  501    0  0.28821935967E+03 -0.15371741426E+03  0.42368300246E+03  0.53498292431E+03  0.00000000000E+00 0. -1.
<mgrwt>
<rscale>  0 0.65385641E+03</rscale>
<asrwt>0</asrwt>
<pdfrwt beam="1">0</pdfrwt>
<pdfrwt beam="2">  1        2 0.38866282E+00 0.65385641E+03</pdfrwt>
<totfact> 0.43891934E+00</totfact>
</mgrwt>
</event>
<event>
 5    1  0.2354746E-004  0.6575099E+03  0.7818608E-02  0.9792789E-01
         13   -1    0    0    0    0  0.00000000000E+00  0.00000000000E+00  0.10000000000E+04  0.10000000000E+04  0.00000000000E+00 0. -1.
          2   -1    0    0  501    0 -0.00000000000E+00 -0.00000000000E+00 -0.10807980640E+03  0.10807980640E+03  0.00000000000E+00 0. -1.
    9000006    2    1    2  501    0  0.00000000000E+00  0.00000000000E+00  0.89192019360E+03  0.11080798064E+04  0.65750986729E+03 0.  0.
         13    1    3    3    0    0  0.25744955432E+03 -0.12734383326E+03  0.71551373190E+03  0.77101013316E+03  0.00000000000E+00 0. -1.
          2    1    3    3  501    0 -0.25744955432E+03  0.12734383326E+03  0.17640646170E+03  0.33706967324E+03  0.00000000000E+00 0. -1.
<mgrwt>
<rscale>  0 0.65750987E+03</rscale>
<asrwt>0</asrwt>
<pdfrwt beam="1">0</pdfrwt>
<pdfrwt beam="2">  1        2 0.39301831E+00 0.65750987E+03</pdfrwt>
<totfact> 0.42271554E+00</totfact>
</mgrwt>
</event>
<event>
 5    1  0.2354746E-004  0.6363626E+03  0.7818608E-02  0.9832711E-01
         13   -1    0    0    0    0  0.00000000000E+00  0.00000000000E+00  0.10000000000E+04  0.10000000000E+04  0.00000000000E+00 0. -1.
          2   -1    0    0  501    0 -0.00000000000E+00 -0.00000000000E+00 -0.10123934731E+03  0.10123934731E+03  0.00000000000E+00 0. -1.
    9000006    2    1    2  501    0  0.00000000000E+00  0.00000000000E+00  0.89876065269E+03  0.11012393473E+04  0.63636262401E+03 0.  0.
         13    1    3    3    0    0  0.22448070142E+03  0.12160612759E+03  0.12076472233E+03  0.28242477536E+03  0.00000000000E+00 0. -1.
          4    1    3    3  501    0 -0.22448070142E+03 -0.12160612759E+03  0.77799593036E+03  0.81881457195E+03  0.00000000000E+00 0. -1.
<mgrwt>
<rscale>  0 0.63636262E+03</rscale>
<asrwt>0</asrwt>
<pdfrwt beam="1">0</pdfrwt>
<pdfrwt beam="2">  1        2 0.36814386E+00 0.63636262E+03</pdfrwt>
<totfact> 0.52311557E+00</totfact>
</mgrwt>
</event>
<event>
 5    1  0.2354746E-004  0.6409079E+03  0.7818608E-02  0.9823991E-01
         13   -1    0    0    0    0  0.00000000000E+00  0.00000000000E+00  0.10000000000E+04  0.10000000000E+04  0.00000000000E+00 0. -1.
          2   -1    0    0  501    0 -0.00000000000E+00 -0.00000000000E+00 -0.10269073126E+03  0.10269073126E+03  0.00000000000E+00 0. -1.
    9000006    2    1    2  501    0  0.00000000000E+00  0.00000000000E+00  0.89730926874E+03  0.11026907313E+04  0.64090789122E+03 0.  0.
         13    1    3    3    0    0 -0.82763274144E+02 -0.14543248048E+03  0.91886304928E+03  0.93397519735E+03  0.00000000000E+00 0. -1.
          4    1    3    3  501    0  0.82763274144E+02  0.14543248048E+03 -0.21553780537E+02  0.16871553391E+03  0.00000000000E+00 0. -1.
<mgrwt>
<rscale>  0 0.64090789E+03</rscale>
<asrwt>0</asrwt>
<pdfrwt beam="1">0</pdfrwt>
<pdfrwt beam="2">  1        2 0.37342163E+00 0.64090789E+03</pdfrwt>
<totfact> 0.50015584E+00</totfact>
</mgrwt>
</event>
<event>
 5    1  0.2354746E-004  0.6424767E+03  0.7818608E-02  0.9820999E-01
         13   -1    0    0    0    0  0.00000000000E+00  0.00000000000E+00  0.10000000000E+04  0.10000000000E+04  0.00000000000E+00 0. -1.
          2   -1    0    0  501    0 -0.00000000000E+00 -0.00000000000E+00 -0.10319407416E+03  0.10319407416E+03  0.00000000000E+00 0. -1.
    9000006    2    1    2  501    0  0.00000000000E+00  0.00000000000E+00  0.89680592584E+03  0.11031940742E+04  0.64247668957E+03 0.  0.
         13    1    3    3    0    0  0.21574682164E+03  0.20508147534E+03  0.24100385485E+03  0.38299864312E+03  0.00000000000E+00 0. -1.
          4    1    3    3  501    0 -0.21574682164E+03 -0.20508147534E+03  0.65580207099E+03  0.72019543104E+03  0.00000000000E+00 0. -1.
<mgrwt>
<rscale>  0 0.64247669E+03</rscale>
<asrwt>0</asrwt>
<pdfrwt beam="1">0</pdfrwt>
<pdfrwt beam="2">  1        2 0.37525197E+00 0.64247669E+03</pdfrwt>
<totfact> 0.49241129E+00</totfact>
</mgrwt>
</event>
<event>
 5    1  0.2354746E-004  0.6486192E+03  0.7818608E-02  0.9809374E-01
         13   -1    0    0    0    0  0.00000000000E+00  0.00000000000E+00  0.10000000000E+04  0.10000000000E+04  0.00000000000E+00 0. -1.
          2   -1    0    0  501    0 -0.00000000000E+00 -0.00000000000E+00 -0.10517671381E+03  0.10517671381E+03  0.00000000000E+00 0. -1.
    9000006    2    1    2  501    0  0.00000000000E+00  0.00000000000E+00  0.89482328619E+03  0.11051767138E+04  0.64861919123E+03 0.  0.
         13    1    3    3    0    0 -0.24413268631E+03 -0.15313980389E+03  0.19397162742E+03  0.34738675897E+03  0.00000000000E+00 0. -1.
          4    1    3    3  501    0  0.24413268631E+03  0.15313980389E+03  0.70085165877E+03  0.75778995484E+03  0.00000000000E+00 0. -1.
<mgrwt>
<rscale>  0 0.64861919E+03</rscale>
<asrwt>0</asrwt>
<pdfrwt beam="1">0</pdfrwt>
<pdfrwt beam="2">  1        2 0.38246158E+00 0.64861919E+03</pdfrwt>
<totfact> 0.46296048E+00</totfact>
</mgrwt>
</event>
<event>
 5    1  0.2354746E-004  0.6479017E+03  0.7818608E-02  0.9810725E-01
         13   -1    0    0    0    0  0.00000000000E+00  0.00000000000E+00  0.10000000000E+04  0.10000000000E+04  0.00000000000E+00 0. -1.
          2   -1    0    0  501    0 -0.00000000000E+00 -0.00000000000E+00 -0.10494414771E+03  0.10494414771E+03  0.00000000000E+00 0. -1.
    9000006    2    1    2  501    0  0.00000000000E+00  0.00000000000E+00  0.89505585229E+03  0.11049441477E+04  0.64790168301E+03 0.  0.
         13    1    3    3    0    0  0.71452744726E+02 -0.25996968984E+03  0.75381297083E+03  0.80057712268E+03  0.00000000000E+00 0. -1.
          2    1    3    3  501    0 -0.71452744726E+02  0.25996968984E+03  0.14124288146E+03  0.30436702503E+03  0.00000000000E+00 0. -1.
<mgrwt>
<rscale>  0 0.64790168E+03</rscale>
<asrwt>0</asrwt>
<pdfrwt beam="1">0</pdfrwt>
<pdfrwt beam="2">  1        2 0.38161589E+00 0.64790168E+03</pdfrwt>
<totfact> 0.46633005E+00</totfact>
</mgrwt>
</event>
<event>
 5    1  0.2354746E-004  0.6562984E+03  0.7818608E-02  0.9795032E-01
         13   -1    0    0    0    0  0.00000000000E+00  0.00000000000E+00  0.10000000000E+04  0.10000000000E+04  0.00000000000E+00 0. -1.
          2   -1    0    0  501    0 -0.00000000000E+00 -0.00000000000E+00 -0.10768190920E+03  0.10768190920E+03  0.00000000000E+00 0. -1.
    9000006    2    1    2  501    0  0.00000000000E+00  0.00000000000E+00  0.89231809080E+03  0.11076819092E+04  0.65629843578E+03 0.  0.
         13    1    3    3    0    0 -0.32086759291E+03 -0.12643473561E+02  0.56020595735E+03  0.64571401120E+03  0.00000000000E+00 0. -1.
          2    1    3    3  501    0  0.32086759291E+03  0.12643473561E+02  0.33211213345E+03  0.46196789800E+03  0.00000000000E+00 0. -1.
<mgrwt>
<rscale>  0 0.65629844E+03</rscale>
<asrwt>0</asrwt>
<pdfrwt beam="1">0</pdfrwt>
<pdfrwt beam="2">  1        2 0.39157140E+00 0.65629844E+03</pdfrwt>
<totfact> 0.42803753E+00</totfact>
</mgrwt>
</event>
<event>
 5    1  0.2354746E-004  0.6489440E+03  0.7818608E-02  0.9808763E-01
         13   -1    0    0    0    0  0.00000000000E+00  0.00000000000E+00  0.10000000000E+04  0.10000000000E+04  0.00000000000E+00 0. -1.
          2   -1    0    0  501    0 -0.00000000000E+00 -0.00000000000E+00 -0.10528209315E+03  0.10528209315E+03  0.00000000000E+00 0. -1.
    9000006    2    1    2  501    0  0.00000000000E+00  0.00000000000E+00  0.89471790685E+03  0.11052820932E+04  0.64894404429E+03 0.  0.
         13    1    3    3    0    0  0.11616254762E+03 -0.12143078397E+03  0.92010973050E+03  0.93532940129E+03  0.00000000000E+00 0. -1.
          4    1    3    3  501    0 -0.11616254762E+03  0.12143078397E+03 -0.25391823651E+02  0.16995269186E+03  0.00000000000E+00 0. -1.
<mgrwt>
<rscale>  0 0.64894404E+03</rscale>
<asrwt>0</asrwt>
<pdfrwt beam="1">0</pdfrwt>
<pdfrwt beam="2">  1        2 0.38284478E+00 0.64894404E+03</pdfrwt>
<totfact> 0.46144096E+00</totfact>
</mgrwt>
</event>
<event>
 5    1  0.2354746E-004  0.6510425E+03  0.7818608E-02  0.9804825E-01
         13   -1    0    0    0    0  0.00000000000E+00  0.00000000000E+00  0.10000000000E+04  0.10000000000E+04  0.00000000000E+00 0. -1.
          2   -1    0    0  501    0 -0.00000000000E+00 -0.00000000000E+00 -0.10596409982E+03  0.10596409982E+03  0.00000000000E+00 0. -1.
    9000006    2    1    2  501    0  0.00000000000E+00  0.00000000000E+00  0.89403590018E+03  0.11059640998E+04  0.65104254797E+03 0.  0.
         13    1    3    3    0    0 -0.13738857934E+03 -0.29509956932E+03  0.45070948760E+03  0.55596620379E+03  0.00000000000E+00 0. -1.
          2    1    3    3  501    0  0.13738857934E+03  0.29509956932E+03  0.44332641258E+03  0.54999789603E+03  0.00000000000E+00 0. -1.
<mgrwt>
<rscale>  0 0.65104255E+03</rscale>
<asrwt>0</asrwt>
<pdfrwt beam="1">0</pdfrwt>
<pdfrwt beam="2">  1        2 0.38532481E+00 0.65104255E+03</pdfrwt>
<totfact> 0.45171576E+00</totfact>
</mgrwt>
</event>
<event>
 5    1  0.2354746E-004  0.6485019E+03  0.7818608E-02  0.9809594E-01
         13   -1    0    0    0    0  0.00000000000E+00  0.00000000000E+00  0.10000000000E+04  0.10000000000E+04  0.00000000000E+00 0. -1.
          2   -1    0    0  501    0 -0.00000000000E+00 -0.00000000000E+00 -0.10513869452E+03  0.10513869452E+03  0.00000000000E+00 0. -1.
    9000006    2    1    2  501    0  0.00000000000E+00  0.00000000000E+00  0.89486130548E+03  0.11051386945E+04  0.64850194917E+03 0.  0.
         13    1    3    3    0    0  0.63194070078E+02 -0.47439053172E+02 -0.88479637959E+02  0.11862799245E+03  0.00000000000E+00 0. -1.
          2    1    3    3  501    0 -0.63194070078E+02  0.47439053172E+02  0.98334094344E+03  0.98651070207E+03  0.00000000000E+00 0. -1.
<mgrwt>
<rscale>  0 0.64850195E+03</rscale>
<asrwt>0</asrwt>
<pdfrwt beam="1">0</pdfrwt>
<pdfrwt beam="2">  1        2 0.38232333E+00 0.64850195E+03</pdfrwt>
<totfact> 0.46350981E+00</totfact>
</mgrwt>
</event>
<event>
 5    1  0.2354746E-004  0.6486057E+03  0.7818608E-02  0.9809399E-01
         13   -1    0    0    0    0  0.00000000000E+00  0.00000000000E+00  0.10000000000E+04  0.10000000000E+04  0.00000000000E+00 0. -1.
          2   -1    0    0  501    0 -0.00000000000E+00 -0.00000000000E+00 -0.10517235183E+03  0.10517235183E+03  0.00000000000E+00 0. -1.
    9000006    2    1    2  501    0  0.00000000000E+00  0.00000000000E+00  0.89482764817E+03  0.11051723518E+04  0.64860574105E+03 0.  0.
         13    1    3    3    0    0 -0.19882780263E+03  0.15729571837E+03  0.10282610108E+03  0.27358297678E+03  0.00000000000E+00 0. -1.
          2    1    3    3  501    0  0.19882780263E+03 -0.15729571837E+03  0.79200154709E+03  0.83158937506E+03  0.00000000000E+00 0. -1.
<mgrwt>
<rscale>  0 0.64860574E+03</rscale>
<asrwt>0</asrwt>
<pdfrwt beam="1">0</pdfrwt>
<pdfrwt beam="2">  1        2 0.38244572E+00 0.64860574E+03</pdfrwt>
<totfact> 0.46302347E+00</totfact>
</mgrwt>
</event>
<event>
 5    1  0.2354746E-004  0.6605133E+03  0.7818608E-02  0.9787249E-01
         13   -1    0    0    0    0  0.00000000000E+00  0.00000000000E+00  0.10000000000E+04  0.10000000000E+04  0.00000000000E+00 0. -1.
          2   -1    0    0  501    0 -0.00000000000E+00 -0.00000000000E+00 -0.10906944616E+03  0.10906944616E+03  0.00000000000E+00 0. -1.
    9000006    2    1    2  501    0  0.00000000000E+00  0.00000000000E+00  0.89093055384E+03  0.11090694462E+04  0.66051327362E+03 0.  0.
         13    1    3    3    0    0  0.15536404883E+03 -0.23832830392E+03  0.16384081225E+03  0.32830196447E+03  0.00000000000E+00 0. -1.
          4    1    3    3  501    0 -0.15536404883E+03  0.23832830392E+03  0.72708974160E+03  0.78076748168E+03  0.00000000000E+00 0. -1.
<mgrwt>
<rscale>  0 0.66051327E+03</rscale>
<asrwt>0</asrwt>
<pdfrwt beam="1">0</pdfrwt>
<pdfrwt beam="2">  1        2 0.39661700E+00 0.66051327E+03</pdfrwt>
<totfact> 0.40973745E+00</totfact>
</mgrwt>
</event>
<event>
 5    1  0.2354746E-004  0.6392664E+03  0.7818608E-02  0.9827131E-01
         13   -1    0    0    0    0  0.00000000000E+00  0.00000000000E+00  0.10000000000E+04  0.10000000000E+04  0.00000000000E+00 0. -1.
          2   -1    0    0  501    0 -0.00000000000E+00 -0.00000000000E+00 -0.10216538787E+03  0.10216538787E+03  0.00000000000E+00 0. -1.
    9000006    2    1    2  501    0  0.00000000000E+00  0.00000000000E+00  0.89783461213E+03  0.11021653879E+04  0.63926641666E+03 0.  0.
         13    1    3    3    0    0 -0.29100435083E+03  0.17365488400E+02  0.67490260775E+03  0.73517251196E+03  0.00000000000E+00 0. -1.
          4    1    3    3  501    0  0.29100435083E+03 -0.17365488400E+02  0.22293200438E+03  0.36699287591E+03  0.00000000000E+00 0. -1.
<mgrwt>
<rscale>  0 0.63926642E+03</rscale>
<asrwt>0</asrwt>
<pdfrwt beam="1">0</pdfrwt>
<pdfrwt beam="2">  1        2 0.37151128E+00 0.63926642E+03</pdfrwt>
<totfact> 0.50835756E+00</totfact>
</mgrwt>
</event>
<event>
 5    1  0.2354746E-004  0.6215864E+03  0.7818608E-02  0.9861606E-01
         13   -1    0    0    0    0  0.00000000000E+00  0.00000000000E+00  0.10000000000E+04  0.10000000000E+04  0.00000000000E+00 0. -1.
          2   -1    0    0  501    0 -0.00000000000E+00 -0.00000000000E+00 -0.96592415001E+02  0.96592415001E+02  0.00000000000E+00 0. -1.
    9000006    2    1    2  501    0  0.00000000000E+00  0.00000000000E+00  0.90340758500E+03  0.10965924150E+04  0.62158640590E+03 0.  0.
         13    1    3    3    0    0 -0.17805337438E+03  0.19636829121E+03  0.73796343799E+03  0.78412597568E+03  0.00000000000E+00 0. -1.
          4    1    3    3  501    0  0.17805337438E+03 -0.19636829121E+03  0.16544414701E+03  0.31246643932E+03  0.00000000000E+00 0. -1.
<mgrwt>
<rscale>  0 0.62158641E+03</rscale>
<asrwt>0</asrwt>
<pdfrwt beam="1">0</pdfrwt>
<pdfrwt beam="2">  1        2 0.35124589E+00 0.62158641E+03</pdfrwt>
<totfact> 0.60331750E+00</totfact>
</mgrwt>
</event>
<event>
 5    1  0.2354746E-004  0.6674564E+03  0.7818608E-02  0.9774564E-01
         13   -1    0    0    0    0  0.00000000000E+00  0.00000000000E+00  0.10000000000E+04  0.10000000000E+04  0.00000000000E+00 0. -1.
          2   -1    0    0  501    0 -0.00000000000E+00 -0.00000000000E+00 -0.11137452787E+03  0.11137452787E+03  0.00000000000E+00 0. -1.
    9000006    2    1    2  501    0  0.00000000000E+00  0.00000000000E+00  0.88862547213E+03  0.11113745279E+04  0.66745644912E+03 0.  0.
         13    1    3    3    0    0 -0.32162967576E+03 -0.85578724469E+02  0.48527397989E+03  0.58843878353E+03  0.00000000000E+00 0. -1.
          4    1    3    3  501    0  0.32162967576E+03  0.85578724469E+02  0.40335149224E+03  0.52293574434E+03  0.00000000000E+00 0. -1.
<mgrwt>
<rscale>  0 0.66745645E+03</rscale>
<asrwt>0</asrwt>
<pdfrwt beam="1">0</pdfrwt>
<pdfrwt beam="2">  1        2 0.40499914E+00 0.66745645E+03</pdfrwt>
<totfact> 0.38088727E+00</totfact>
</mgrwt>
</event>
<event>
 5    1  0.2354746E-004  0.6516948E+03  0.7818608E-02  0.9803604E-01
         13   -1    0    0    0    0  0.00000000000E+00  0.00000000000E+00  0.10000000000E+04  0.10000000000E+04  0.00000000000E+00 0. -1.
          2   -1    0    0  501    0 -0.00000000000E+00 -0.00000000000E+00 -0.10617652827E+03  0.10617652827E+03  0.00000000000E+00 0. -1.
    9000006    2    1    2  501    0  0.00000000000E+00  0.00000000000E+00  0.89382347173E+03  0.11061765283E+04  0.65169480058E+03 0.  0.
         13    1    3    3    0    0 -0.22270687942E+03  0.40141562760E+02  0.48959888601E+02  0.23153135834E+03  0.00000000000E+00 0. -1.
          4    1    3    3  501    0  0.22270687942E+03 -0.40141562760E+02  0.84486358312E+03  0.87464516994E+03  0.00000000000E+00 0. -1.
<mgrwt>
<rscale>  0 0.65169480E+03</rscale>
<asrwt>0</asrwt>
<pdfrwt beam="1">0</pdfrwt>
<pdfrwt beam="2">  1        2 0.38609728E+00 0.65169480E+03</pdfrwt>
<totfact> 0.44872478E+00</totfact>
</mgrwt>
</event>
<event>
 5    1  0.2354746E-004  0.6138672E+03  0.7818608E-02  0.9877046E-01
         13   -1    0    0    0    0  0.00000000000E+00  0.00000000000E+00  0.10000000000E+04  0.10000000000E+04  0.00000000000E+00 0. -1.
          2   -1    0    0  501    0 -0.00000000000E+00 -0.00000000000E+00 -0.94208234142E+02  0.94208234142E+02  0.00000000000E+00 0. -1.
    9000006    2    1    2  501    0  0.00000000000E+00  0.00000000000E+00  0.90579176586E+03  0.10942082341E+04  0.61386719783E+03 0.  0.
         13    1    3    3    0    0 -0.23630476077E+03  0.27466832301E+02  0.10719575097E+03  0.26093159231E+03  0.00000000000E+00 0. -1.
          4    1    3    3  501    0  0.23630476077E+03 -0.27466832301E+02  0.79859601488E+03  0.83327664183E+03  0.00000000000E+00 0. -1.
<mgrwt>
<rscale>  0 0.61386720E+03</rscale>
<asrwt>0</asrwt>
<pdfrwt beam="1">0</pdfrwt>
<pdfrwt beam="2">  1        2 0.34257612E+00 0.61386720E+03</pdfrwt>
<totfact> 0.64876466E+00</totfact>
</mgrwt>
</event>
<event>
 5    1  0.2354746E-004  0.6592897E+03  0.7818608E-02  0.9789502E-01
         13   -1    0    0    0    0  0.00000000000E+00  0.00000000000E+00  0.10000000000E+04  0.10000000000E+04  0.00000000000E+00 0. -1.
          2   -1    0    0  501    0 -0.00000000000E+00 -0.00000000000E+00 -0.10866572556E+03  0.10866572556E+03  0.00000000000E+00 0. -1.
    9000006    2    1    2  501    0  0.00000000000E+00  0.00000000000E+00  0.89133427444E+03  0.11086657256E+04  0.65928969524E+03 0.  0.
         13    1    3    3    0    0 -0.25418675410E+03  0.66675429262E+02  0.78034146993E+03  0.82340107392E+03  0.00000000000E+00 0. -1.
          4    1    3    3  501    0  0.25418675410E+03 -0.66675429262E+02  0.11099280450E+03  0.28526465165E+03  0.00000000000E+00 0. -1.
<mgrwt>
<rscale>  0 0.65928970E+03</rscale>
<asrwt>0</asrwt>
<pdfrwt beam="1">0</pdfrwt>
<pdfrwt beam="2">  1        2 0.39514893E+00 0.65928970E+03</pdfrwt>
<totfact> 0.41498771E+00</totfact>
</mgrwt>
</event>
<event>
 5    1  0.2354746E-004  0.6558161E+03  0.7818608E-02  0.9795927E-01
         13   -1    0    0    0    0  0.00000000000E+00  0.00000000000E+00  0.10000000000E+04  0.10000000000E+04  0.00000000000E+00 0. -1.
          2   -1    0    0  501    0 -0.00000000000E+00 -0.00000000000E+00 -0.10752368256E+03  0.10752368256E+03  0.00000000000E+00 0. -1.
    9000006    2    1    2  501    0  0.00000000000E+00  0.00000000000E+00  0.89247631744E+03  0.11075236826E+04  0.65581607957E+03 0.  0.
         13    1    3    3    0    0  0.21457726769E+03 -0.23378665433E+03  0.58574419004E+03  0.66618005052E+03  0.00000000000E+00 0. -1.
          4    1    3    3  501    0 -0.21457726769E+03  0.23378665433E+03  0.30673212741E+03  0.44134363203E+03  0.00000000000E+00 0. -1.
<mgrwt>
<rscale>  0 0.65581608E+03</rscale>
<asrwt>0</asrwt>
<pdfrwt beam="1">0</pdfrwt>
<pdfrwt beam="2">  1        2 0.39099603E+00 0.65581608E+03</pdfrwt>
<totfact> 0.43017061E+00</totfact>
</mgrwt>
</event>
<event>
 5    1  0.2354746E-004  0.6441551E+03  0.7818608E-02  0.9817809E-01
         13   -1    0    0    0    0  0.00000000000E+00  0.00000000000E+00  0.10000000000E+04  0.10000000000E+04  0.00000000000E+00 0. -1.
          2   -1    0    0  501    0 -0.00000000000E+00 -0.00000000000E+00 -0.10373394258E+03  0.10373394258E+03  0.00000000000E+00 0. -1.
    9000006    2    1    2  501    0  0.00000000000E+00  0.00000000000E+00  0.89626605742E+03  0.11037339426E+04  0.64415508250E+03 0.  0.
         13    1    3    3    0    0 -0.15718140268E+03 -0.36795690595E+02  0.92567535391E+03  0.93964609137E+03  0.00000000000E+00 0. -1.
          4    1    3    3  501    0  0.15718140268E+03  0.36795690595E+02 -0.29409296483E+02  0.16408785121E+03  0.00000000000E+00 0. -1.
<mgrwt>
<rscale>  0 0.64415508E+03</rscale>
<asrwt>0</asrwt>
<pdfrwt beam="1">0</pdfrwt>
<pdfrwt beam="2">  1        2 0.37721513E+00 0.64415508E+03</pdfrwt>
<totfact> 0.48422723E+00</totfact>
</mgrwt>
</event>
<event>
 5    1  0.2354746E-004  0.6605334E+03  0.7818608E-02  0.9787212E-01
         13   -1    0    0    0    0  0.00000000000E+00  0.00000000000E+00  0.10000000000E+04  0.10000000000E+04  0.00000000000E+00 0. -1.
          2   -1    0    0  501    0 -0.00000000000E+00 -0.00000000000E+00 -0.10907609141E+03  0.10907609141E+03  0.00000000000E+00 0. -1.
    9000006    2    1    2  501    0  0.00000000000E+00  0.00000000000E+00  0.89092390859E+03  0.11090760914E+04  0.66053339479E+03 0.  0.
         13    1    3    3    0    0  0.97435292292E+02  0.60365637676E+02  0.96553327043E+03  0.97231278028E+03  0.00000000000E+00 0. -1.
          2    1    3    3  501    0 -0.97435292292E+02 -0.60365637676E+02 -0.74609361836E+02  0.13676331112E+03  0.00000000000E+00 0. -1.
<mgrwt>
<rscale>  0 0.66053339E+03</rscale>
<asrwt>0</asrwt>
<pdfrwt beam="1">0</pdfrwt>
<pdfrwt beam="2">  1        2 0.39664117E+00 0.66053339E+03</pdfrwt>
<totfact> 0.40965153E+00</totfact>
</mgrwt>
</event>
<event>
 5    1  0.2354746E-004  0.6475005E+03  0.7818608E-02  0.9811481E-01
         13   -1    0    0    0    0  0.00000000000E+00  0.00000000000E+00  0.10000000000E+04  0.10000000000E+04  0.00000000000E+00 0. -1.
          2   -1    0    0  501    0 -0.00000000000E+00 -0.00000000000E+00 -0.10481421010E+03  0.10481421010E+03  0.00000000000E+00 0. -1.
    9000006    2    1    2  501    0  0.00000000000E+00  0.00000000000E+00  0.89518578990E+03  0.11048142101E+04  0.64750045590E+03 0.  0.
         13    1    3    3    0    0  0.97587153931E+02  0.25809387753E+03  0.15863973471E+03  0.31828017164E+03  0.00000000000E+00 0. -1.
          4    1    3    3  501    0 -0.97587153931E+02 -0.25809387753E+03  0.73654605519E+03  0.78653403846E+03  0.00000000000E+00 0. -1.
<mgrwt>
<rscale>  0 0.64750046E+03</rscale>
<asrwt>0</asrwt>
<pdfrwt beam="1">0</pdfrwt>
<pdfrwt beam="2">  1        2 0.38114339E+00 0.64750046E+03</pdfrwt>
<totfact> 0.46822236E+00</totfact>
</mgrwt>
</event>
<event>
 5    1  0.2354746E-004  0.6651217E+03  0.7818608E-02  0.9778811E-01
         13   -1    0    0    0    0  0.00000000000E+00  0.00000000000E+00  0.10000000000E+04  0.10000000000E+04  0.00000000000E+00 0. -1.
          2   -1    0    0  501    0 -0.00000000000E+00 -0.00000000000E+00 -0.11059673096E+03  0.11059673096E+03  0.00000000000E+00 0. -1.
    9000006    2    1    2  501    0  0.00000000000E+00  0.00000000000E+00  0.88940326904E+03  0.11105967310E+04  0.66512173611E+03 0.  0.
         13    1    3    3    0    0 -0.16714507019E+03 -0.25964343400E+03  0.65086545998E+03  0.72040130088E+03  0.00000000000E+00 0. -1.
          4    1    3    3  501    0  0.16714507019E+03  0.25964343400E+03  0.23853780906E+03  0.39019543008E+03  0.00000000000E+00 0. -1.
<mgrwt>
<rscale>  0 0.66512174E+03</rscale>
<asrwt>0</asrwt>
<pdfrwt beam="1">0</pdfrwt>
<pdfrwt beam="2">  1        2 0.40217078E+00 0.66512174E+03</pdfrwt>
<totfact> 0.39041153E+00</totfact>
</mgrwt>
</event>
<event>
 5    1  0.2354746E-004  0.6541908E+03  0.7818608E-02  0.9798947E-01
         13   -1    0    0    0    0  0.00000000000E+00  0.00000000000E+00  0.10000000000E+04  0.10000000000E+04  0.00000000000E+00 0. -1.
          2   -1    0    0  501    0 -0.00000000000E+00 -0.00000000000E+00 -0.10699139385E+03  0.10699139385E+03  0.00000000000E+00 0. -1.
    9000006    2    1    2  501    0  0.00000000000E+00  0.00000000000E+00  0.89300860615E+03  0.11069913938E+04  0.65419077905E+03 0.  0.
         13    1    3    3    0    0  0.20095477250E+03  0.24830054325E+03  0.32738564970E+03  0.45740282465E+03  0.00000000000E+00 0. -1.
          4    1    3    3  501    0 -0.20095477250E+03 -0.24830054325E+03  0.56562295645E+03  0.64958856920E+03  0.00000000000E+00 0. -1.
<mgrwt>
<rscale>  0 0.65419078E+03</rscale>
<asrwt>0</asrwt>
<pdfrwt beam="1">0</pdfrwt>
<pdfrwt beam="2">  1        2 0.38906043E+00 0.65419078E+03</pdfrwt>
<totfact> 0.43741716E+00</totfact>
</mgrwt>
</event>
<event>
 5    1  0.2354746E-004  0.6498924E+03  0.7818608E-02  0.9806981E-01
         13   -1    0    0    0    0  0.00000000000E+00  0.00000000000E+00  0.10000000000E+04  0.10000000000E+04  0.00000000000E+00 0. -1.
          2   -1    0    0  501    0 -0.00000000000E+00 -0.00000000000E+00 -0.10559003159E+03  0.10559003159E+03  0.00000000000E+00 0. -1.
    9000006    2    1    2  501    0  0.00000000000E+00  0.00000000000E+00  0.89440996841E+03  0.11055900316E+04  0.64989239599E+03 0.  0.
         13    1    3    3    0    0  0.96929897771E+02 -0.94380824574E+02 -0.55400426876E+02  0.14619286038E+03  0.00000000000E+00 0. -1.
          4    1    3    3  501    0 -0.96929897771E+02  0.94380824574E+02  0.94981039528E+03  0.95939717121E+03  0.00000000000E+00 0. -1.
<mgrwt>
<rscale>  0 0.64989240E+03</rscale>
<asrwt>0</asrwt>
<pdfrwt beam="1">0</pdfrwt>
<pdfrwt beam="2">  1        2 0.38396456E+00 0.64989240E+03</pdfrwt>
<totfact> 0.45702658E+00</totfact>
</mgrwt>
</event>
<event>
 5    1  0.2354746E-004  0.6486761E+03  0.7818608E-02  0.9809267E-01
         13   -1    0    0    0    0  0.00000000000E+00  0.00000000000E+00  0.10000000000E+04  0.10000000000E+04  0.00000000000E+00 0. -1.
          2   -1    0    0  501    0 -0.00000000000E+00 -0.00000000000E+00 -0.10519516517E+03  0.10519516517E+03  0.00000000000E+00 0. -1.
    9000006    2    1    2  501    0  0.00000000000E+00  0.00000000000E+00  0.89480483483E+03  0.11051951652E+04  0.64867608301E+03 0.  0.
         13    1    3    3    0    0  0.20507952214E+03 -0.67573032332E+02  0.85974106461E+03  0.88644143815E+03  0.00000000000E+00 0. -1.
          4    1    3    3  501    0 -0.20507952214E+03  0.67573032332E+02  0.35063770221E+02  0.21875372701E+03  0.00000000000E+00 0. -1.
<mgrwt>
<rscale>  0 0.64867608E+03</rscale>
<asrwt>0</asrwt>
<pdfrwt beam="1">0</pdfrwt>
<pdfrwt beam="2">  1        2 0.38252868E+00 0.64867608E+03</pdfrwt>
<totfact> 0.46269409E+00</totfact>
</mgrwt>
</event>
<event>
 5    1  0.2354746E-004  0.6529041E+03  0.7818608E-02  0.9801345E-01
         13   -1    0    0    0    0  0.00000000000E+00  0.00000000000E+00  0.10000000000E+04  0.10000000000E+04  0.00000000000E+00 0. -1.
          2   -1    0    0  501    0 -0.00000000000E+00 -0.00000000000E+00 -0.10657092803E+03  0.10657092803E+03  0.00000000000E+00 0. -1.
    9000006    2    1    2  501    0  0.00000000000E+00  0.00000000000E+00  0.89342907197E+03  0.11065709280E+04  0.65290406044E+03 0.  0.
         13    1    3    3    0    0  0.31400760303E+03 -0.83080834978E+02  0.39133360786E+03  0.50857171819E+03  0.00000000000E+00 0. -1.
          4    1    3    3  501    0 -0.31400760303E+03  0.83080834978E+02  0.50209546410E+03  0.59799920984E+03  0.00000000000E+00 0. -1.
<mgrwt>
<rscale>  0 0.65290406E+03</rscale>
<asrwt>0</asrwt>
<pdfrwt beam="1">0</pdfrwt>
<pdfrwt beam="2">  1        2 0.38753146E+00 0.65290406E+03</pdfrwt>
<totfact> 0.44321921E+00</totfact>
</mgrwt>
</event>
<event>
 5    1  0.2354746E-004  0.6482919E+03  0.7818608E-02  0.9809990E-01
         13   -1    0    0    0    0  0.00000000000E+00  0.00000000000E+00  0.10000000000E+04  0.10000000000E+04  0.00000000000E+00 0. -1.
          2   -1    0    0  501    0 -0.00000000000E+00 -0.00000000000E+00 -0.10507059190E+03  0.10507059190E+03  0.00000000000E+00 0. -1.
    9000006    2    1    2  501    0  0.00000000000E+00  0.00000000000E+00  0.89492940810E+03  0.11050705919E+04  0.64829188457E+03 0.  0.
         13    1    3    3    0    0  0.31196997052E+03  0.13888030207E+02  0.29932774549E+03  0.43256819013E+03  0.00000000000E+00 0. -1.
          2    1    3    3  501    0 -0.31196997052E+03 -0.13888030207E+02  0.59560166261E+03  0.67250240177E+03  0.00000000000E+00 0. -1.
<mgrwt>
<rscale>  0 0.64829188E+03</rscale>
<asrwt>0</asrwt>
<pdfrwt beam="1">0</pdfrwt>
<pdfrwt beam="2">  1        2 0.38207569E+00 0.64829188E+03</pdfrwt>
<totfact> 0.46449529E+00</totfact>
</mgrwt>
</event>
<event>
 5    1  0.2354746E-004  0.6499541E+03  0.7818608E-02  0.9806865E-01
         13   -1    0    0    0    0  0.00000000000E+00  0.00000000000E+00  0.10000000000E+04  0.10000000000E+04  0.00000000000E+00 0. -1.
          2   -1    0    0  501    0 -0.00000000000E+00 -0.00000000000E+00 -0.10561009634E+03  0.10561009634E+03  0.00000000000E+00 0. -1.
    9000006    2    1    2  501    0  0.00000000000E+00  0.00000000000E+00  0.89438990366E+03  0.11056100963E+04  0.64995414096E+03 0.  0.
         13    1    3    3    0    0 -0.87115839253E+02  0.25449724345E+03  0.13700431168E+03  0.30187447357E+03  0.00000000000E+00 0. -1.
          4    1    3    3  501    0  0.87115839253E+02 -0.25449724345E+03  0.75738559198E+03  0.80373562277E+03  0.00000000000E+00 0. -1.
<mgrwt>
<rscale>  0 0.64995414E+03</rscale>
<asrwt>0</asrwt>
<pdfrwt beam="1">0</pdfrwt>
<pdfrwt beam="2">  1        2 0.38403752E+00 0.64995414E+03</pdfrwt>
<totfact> 0.45674028E+00</totfact>
</mgrwt>
</event>
<event>
 5    1  0.2354746E-004  0.6412034E+03  0.7818608E-02  0.9823427E-01
         13   -1    0    0    0    0  0.00000000000E+00  0.00000000000E+00  0.10000000000E+04  0.10000000000E+04  0.00000000000E+00 0. -1.
          2   -1    0    0  501    0 -0.00000000000E+00 -0.00000000000E+00 -0.10278545547E+03  0.10278545547E+03  0.00000000000E+00 0. -1.
    9000006    2    1    2  501    0  0.00000000000E+00  0.00000000000E+00  0.89721454453E+03  0.11027854555E+04  0.64120341693E+03 0.  0.
         13    1    3    3    0    0 -0.62182656526E+02  0.30540069502E+03  0.57787443672E+03  0.65656312104E+03  0.00000000000E+00 0. -1.
          2    1    3    3  501    0  0.62182656526E+02 -0.30540069502E+03  0.31934010781E+03  0.44622233443E+03  0.00000000000E+00 0. -1.
<mgrwt>
<rscale>  0 0.64120342E+03</rscale>
<asrwt>0</asrwt>
<pdfrwt beam="1">0</pdfrwt>
<pdfrwt beam="2">  1        2 0.37376608E+00 0.64120342E+03</pdfrwt>
<totfact> 0.49868995E+00</totfact>
</mgrwt>
</event>
<event>
 5    1  0.2354746E-004  0.6021000E+03  0.7818608E-02  0.9901059E-01
         13   -1    0    0    0    0  0.00000000000E+00  0.00000000000E+00  0.10000000000E+04  0.10000000000E+04  0.00000000000E+00 0. -1.
          2   -1    0    0  501    0 -0.00000000000E+00 -0.00000000000E+00 -0.90631096350E+02  0.90631096350E+02  0.00000000000E+00 0. -1.
    9000006    2    1    2  501    0  0.00000000000E+00  0.00000000000E+00  0.90936890365E+03  0.10906310963E+04  0.60209997957E+03 0.  0.
         13    1    3    3    0    0  0.50200655536E+02 -0.10994555549E+03  0.95412254825E+03  0.96174735147E+03  0.00000000000E+00 0. -1.
          2    1    3    3  501    0 -0.50200655536E+02  0.10994555549E+03 -0.44753644600E+02  0.12888374488E+03  0.00000000000E+00 0. -1.
<mgrwt>
<rscale>  0 0.60209998E+03</rscale>
<asrwt>0</asrwt>
<pdfrwt beam="1">0</pdfrwt>
<pdfrwt beam="2">  1        2 0.32956832E+00 0.60209998E+03</pdfrwt>
<totfact> 0.72302233E+00</totfact>
</mgrwt>
</event>
<event>
 5    1  0.2354746E-004  0.6510346E+03  0.7818608E-02  0.9804840E-01
         13   -1    0    0    0    0  0.00000000000E+00  0.00000000000E+00  0.10000000000E+04  0.10000000000E+04  0.00000000000E+00 0. -1.
          2   -1    0    0  501    0 -0.00000000000E+00 -0.00000000000E+00 -0.10596151405E+03  0.10596151405E+03  0.00000000000E+00 0. -1.
    9000006    2    1    2  501    0  0.00000000000E+00  0.00000000000E+00  0.89403848595E+03  0.11059615140E+04  0.65103460445E+03 0.  0.
         13    1    3    3    0    0 -0.31230290527E+02  0.22455685423E+03  0.84382203816E+03  0.87374867320E+03  0.00000000000E+00 0. -1.
          4    1    3    3  501    0  0.31230290527E+02 -0.22455685423E+03  0.50216447791E+02  0.23221284085E+03  0.00000000000E+00 0. -1.
<mgrwt>
<rscale>  0 0.65103460E+03</rscale>
<asrwt>0</asrwt>
<pdfrwt beam="1">0</pdfrwt>
<pdfrwt beam="2">  1        2 0.38531541E+00 0.65103460E+03</pdfrwt>
<totfact> 0.45175228E+00</totfact>
</mgrwt>
</event>
<event>
 5    1  0.2354746E-004  0.6283713E+03  0.7818608E-02  0.9848232E-01
         13   -1    0    0    0    0  0.00000000000E+00  0.00000000000E+00  0.10000000000E+04  0.10000000000E+04  0.00000000000E+00 0. -1.
          2   -1    0    0  501    0 -0.00000000000E+00 -0.00000000000E+00 -0.98712609949E+02  0.98712609949E+02  0.00000000000E+00 0. -1.
    9000006    2    1    2  501    0  0.00000000000E+00  0.00000000000E+00  0.90128739005E+03  0.10987126099E+04  0.62837125952E+03 0.  0.
         13    1    3    3    0    0  0.11116646878E+03 -0.28325603937E+03  0.31384993200E+03  0.43714270832E+03  0.00000000000E+00 0. -1.
          4    1    3    3  501    0 -0.11116646878E+03  0.28325603937E+03  0.58743745805E+03  0.66156990163E+03  0.00000000000E+00 0. -1.
<mgrwt>
<rscale>  0 0.62837126E+03</rscale>
<asrwt>0</asrwt>
<pdfrwt beam="1">0</pdfrwt>
<pdfrwt beam="2">  1        2 0.35895570E+00 0.62837126E+03</pdfrwt>
<totfact> 0.56541003E+00</totfact>
</mgrwt>
</event>
<event>
 5    1  0.2354746E-004  0.6589463E+03  0.7818608E-02  0.9790135E-01
         13   -1    0    0    0    0  0.00000000000E+00  0.00000000000E+00  0.10000000000E+04  0.10000000000E+04  0.00000000000E+00 0. -1.
          2   -1    0    0  501    0 -0.00000000000E+00 -0.00000000000E+00 -0.10855256374E+03  0.10855256374E+03  0.00000000000E+00 0. -1.
    9000006    2    1    2  501    0  0.00000000000E+00  0.00000000000E+00  0.89144743626E+03  0.11085525637E+04  0.65894632176E+03 0.  0.
         13    1    3    3    0    0  0.54287928973E+02  0.32240549270E+03  0.51426798343E+03  0.60939645530E+03  0.00000000000E+00 0. -1.
          2    1    3    3  501    0 -0.54287928973E+02 -0.32240549270E+03  0.37717945283E+03  0.49915610844E+03  0.00000000000E+00 0. -1.
<mgrwt>
<rscale>  0 0.65894632E+03</rscale>
<asrwt>0</asrwt>
<pdfrwt beam="1">0</pdfrwt>
<pdfrwt beam="2">  1        2 0.39473743E+00 0.65894632E+03</pdfrwt>
<totfact> 0.41647018E+00</totfact>
</mgrwt>
</event>
<event>
 5    1  0.2354746E-004  0.6546990E+03  0.7818608E-02  0.9798002E-01
         13   -1    0    0    0    0  0.00000000000E+00  0.00000000000E+00  0.10000000000E+04  0.10000000000E+04  0.00000000000E+00 0. -1.
          2   -1    0    0  501    0 -0.00000000000E+00 -0.00000000000E+00 -0.10715770072E+03  0.10715770072E+03  0.00000000000E+00 0. -1.
    9000006    2    1    2  501    0  0.00000000000E+00  0.00000000000E+00  0.89284229928E+03  0.11071577007E+04  0.65469901701E+03 0.  0.
         13    1    3    3    0    0 -0.12144382903E+03 -0.29535361578E+03  0.56807817333E+03  0.65168640693E+03  0.00000000000E+00 0. -1.
          2    1    3    3  501    0  0.12144382903E+03  0.29535361578E+03  0.32476412595E+03  0.45547129379E+03  0.00000000000E+00 0. -1.
<mgrwt>
<rscale>  0 0.65469902E+03</rscale>
<asrwt>0</asrwt>
<pdfrwt beam="1">0</pdfrwt>
<pdfrwt beam="2">  1        2 0.38966519E+00 0.65469902E+03</pdfrwt>
<totfact> 0.43514131E+00</totfact>
</mgrwt>
</event>
<event>
 5    1  0.2354746E-004  0.5679697E+03  0.7818608E-02  0.9974181E-01
         13   -1    0    0    0    0  0.00000000000E+00  0.00000000000E+00  0.10000000000E+04  0.10000000000E+04  0.00000000000E+00 0. -1.
          2   -1    0    0  501    0 -0.00000000000E+00 -0.00000000000E+00 -0.80647390502E+02  0.80647390502E+02  0.00000000000E+00 0. -1.
    9000006    2    1    2  501    0  0.00000000000E+00  0.00000000000E+00  0.91935260950E+03  0.10806473905E+04  0.56796968406E+03 0.  0.
         13    1    3    3    0    0 -0.10083728021E+03  0.19829738580E+03  0.12383096942E+03  0.25460581157E+03  0.00000000000E+00 0. -1.
          4    1    3    3  501    0  0.10083728021E+03 -0.19829738580E+03  0.79552164008E+03  0.82604157894E+03  0.00000000000E+00 0. -1.
<mgrwt>
<rscale>  0 0.56796968E+03</rscale>
<asrwt>0</asrwt>
<pdfrwt beam="1">0</pdfrwt>
<pdfrwt beam="2">  1        2 0.29326386E+00 0.56796968E+03</pdfrwt>
<totfact> 0.97593515E+00</totfact>
</mgrwt>
</event>
<event>
 5    1  0.2354746E-004  0.6440273E+03  0.7818608E-02  0.9818052E-01
         13   -1    0    0    0    0  0.00000000000E+00  0.00000000000E+00  0.10000000000E+04  0.10000000000E+04  0.00000000000E+00 0. -1.
          2   -1    0    0  501    0 -0.00000000000E+00 -0.00000000000E+00 -0.10369278765E+03  0.10369278765E+03  0.00000000000E+00 0. -1.
    9000006    2    1    2  501    0  0.00000000000E+00  0.00000000000E+00  0.89630721235E+03  0.11036927877E+04  0.64402729027E+03 0.  0.
         13    1    3    3    0    0  0.51502380152E+01  0.32190269794E+03  0.43666828059E+03  0.54251917862E+03  0.00000000000E+00 0. -1.
          2    1    3    3  501    0 -0.51502380152E+01 -0.32190269794E+03  0.45963893176E+03  0.56117360903E+03  0.00000000000E+00 0. -1.
<mgrwt>
<rscale>  0 0.64402729E+03</rscale>
<asrwt>0</asrwt>
<pdfrwt beam="1">0</pdfrwt>
<pdfrwt beam="2">  1        2 0.37706548E+00 0.64402729E+03</pdfrwt>
<totfact> 0.48484671E+00</totfact>
</mgrwt>
</event>
<event>
 5    1  0.2354746E-004  0.6569127E+03  0.7818608E-02  0.9793894E-01
         13   -1    0    0    0    0  0.00000000000E+00  0.00000000000E+00  0.10000000000E+04  0.10000000000E+04  0.00000000000E+00 0. -1.
          2   -1    0    0  501    0 -0.00000000000E+00 -0.00000000000E+00 -0.10788358124E+03  0.10788358124E+03  0.00000000000E+00 0. -1.
    9000006    2    1    2  501    0  0.00000000000E+00  0.00000000000E+00  0.89211641876E+03  0.11078835812E+04  0.65691272248E+03 0.  0.
         13    1    3    3    0    0 -0.70763519453E+02 -0.12040008003E+03 -0.55317478376E+02  0.15021211127E+03  0.00000000000E+00 0. -1.
          2    1    3    3  501    0  0.70763519453E+02  0.12040008003E+03  0.94743389714E+03  0.95767146997E+03  0.00000000000E+00 0. -1.
<mgrwt>
<rscale>  0 0.65691272E+03</rscale>
<asrwt>0</asrwt>
<pdfrwt beam="1">0</pdfrwt>
<pdfrwt beam="2">  1        2 0.39230476E+00 0.65691272E+03</pdfrwt>
<totfact> 0.42533260E+00</totfact>
</mgrwt>
</event>
<event>
 5    1  0.2354746E-004  0.6515742E+03  0.7818608E-02  0.9803830E-01
         13   -1    0    0    0    0  0.00000000000E+00  0.00000000000E+00  0.10000000000E+04  0.10000000000E+04  0.00000000000E+00 0. -1.
          2   -1    0    0  501    0 -0.00000000000E+00 -0.00000000000E+00 -0.10613723643E+03  0.10613723643E+03  0.00000000000E+00 0. -1.
    9000006    2    1    2  501    0  0.00000000000E+00  0.00000000000E+00  0.89386276357E+03  0.11061372364E+04  0.65157420585E+03 0.  0.
         13    1    3    3    0    0 -0.49737443524E+02  0.15467641756E+03  0.92631094039E+03  0.94045231975E+03  0.00000000000E+00 0. -1.
          2    1    3    3  501    0  0.49737443524E+02 -0.15467641756E+03 -0.32448176820E+02  0.16568491669E+03  0.00000000000E+00 0. -1.
<mgrwt>
<rscale>  0 0.65157421E+03</rscale>
<asrwt>0</asrwt>
<pdfrwt beam="1">0</pdfrwt>
<pdfrwt beam="2">  1        2 0.38595440E+00 0.65157421E+03</pdfrwt>
<totfact> 0.44927665E+00</totfact>
</mgrwt>
</event>
<event>
 5    1  0.2354746E-004  0.6490982E+03  0.7818608E-02  0.9808473E-01
         13   -1    0    0    0    0  0.00000000000E+00  0.00000000000E+00  0.10000000000E+04  0.10000000000E+04  0.00000000000E+00 0. -1.
          2   -1    0    0  501    0 -0.00000000000E+00 -0.00000000000E+00 -0.10533212153E+03  0.10533212153E+03  0.00000000000E+00 0. -1.
    9000006    2    1    2  501    0  0.00000000000E+00  0.00000000000E+00  0.89466787847E+03  0.11053321215E+04  0.64909820993E+03 0.  0.
         13    1    3    3    0    0  0.30229895164E+03  0.11791113703E+03  0.43598340449E+03  0.54347881411E+03  0.00000000000E+00 0. -1.
          2    1    3    3  501    0 -0.30229895164E+03 -0.11791113703E+03  0.45868447398E+03  0.56185330742E+03  0.00000000000E+00 0. -1.
<mgrwt>
<rscale>  0 0.64909821E+03</rscale>
<asrwt>0</asrwt>
<pdfrwt beam="1">0</pdfrwt>
<pdfrwt beam="2">  1        2 0.38302670E+00 0.64909821E+03</pdfrwt>
<totfact> 0.46072117E+00</totfact>
</mgrwt>
</event>
<event>
 5    1  0.2354746E-004  0.6890197E+03  0.7818608E-02  0.9736196E-01
         13   -1    0    0    0    0  0.00000000000E+00  0.00000000000E+00  0.10000000000E+04  0.10000000000E+04  0.00000000000E+00 0. -1.
          2   -1    0    0  501    0 -0.00000000000E+00 -0.00000000000E+00 -0.11868702302E+03  0.11868702302E+03  0.00000000000E+00 0. -1.
    9000006    2    1    2  501    0  0.00000000000E+00  0.00000000000E+00  0.88131297698E+03  0.11186870230E+04  0.68901966014E+03 0.  0.
         13    1    3    3    0    0 -0.52252592838E+02  0.17263227991E+03 -0.35902525925E+02  0.18390548902E+03  0.00000000000E+00 0. -1.
          4    1    3    3  501    0  0.52252592838E+02 -0.17263227991E+03  0.91721550291E+03  0.93478153400E+03  0.00000000000E+00 0. -1.
<mgrwt>
<rscale>  0 0.68901966E+03</rscale>
<asrwt>0</asrwt>
<pdfrwt beam="1">0</pdfrwt>
<pdfrwt beam="2">  1        2 0.43159008E+00 0.68901966E+03</pdfrwt>
<totfact> 0.30096873E+00</totfact>
</mgrwt>
</event>
<event>
 5    1  0.2354746E-004  0.6474955E+03  0.7818608E-02  0.9811490E-01
         13   -1    0    0    0    0  0.00000000000E+00  0.00000000000E+00  0.10000000000E+04  0.10000000000E+04  0.00000000000E+00 0. -1.
          2   -1    0    0  501    0 -0.00000000000E+00 -0.00000000000E+00 -0.10481260355E+03  0.10481260355E+03  0.00000000000E+00 0. -1.
    9000006    2    1    2  501    0  0.00000000000E+00  0.00000000000E+00  0.89518739645E+03  0.11048126035E+04  0.64749549356E+03 0.  0.
         13    1    3    3    0    0 -0.28091947379E+03  0.65181268206E+00  0.72217553214E+03  0.77488945976E+03  0.00000000000E+00 0. -1.
          4    1    3    3  501    0  0.28091947379E+03 -0.65181268206E+00  0.17301186431E+03  0.32992314379E+03  0.00000000000E+00 0. -1.
<mgrwt>
<rscale>  0 0.64749549E+03</rscale>
<asrwt>0</asrwt>
<pdfrwt beam="1">0</pdfrwt>
<pdfrwt beam="2">  1        2 0.38113754E+00 0.64749549E+03</pdfrwt>
<totfact> 0.46824580E+00</totfact>
</mgrwt>
</event>
<event>
 5    1  0.2354746E-004  0.6557484E+03  0.7818608E-02  0.9796052E-01
         13   -1    0    0    0    0  0.00000000000E+00  0.00000000000E+00  0.10000000000E+04  0.10000000000E+04  0.00000000000E+00 0. -1.
          2   -1    0    0  501    0 -0.00000000000E+00 -0.00000000000E+00 -0.10750150555E+03  0.10750150555E+03  0.00000000000E+00 0. -1.
    9000006    2    1    2  501    0  0.00000000000E+00  0.00000000000E+00  0.89249849445E+03  0.11075015055E+04  0.65574844429E+03 0.  0.
         13    1    3    3    0    0 -0.12188379633E+03 -0.14147563690E+03  0.90141181953E+03  0.92055107627E+03  0.00000000000E+00 0. -1.
          2    1    3    3  501    0  0.12188379633E+03  0.14147563690E+03 -0.89133250752E+01  0.18695042928E+03  0.00000000000E+00 0. -1.
<mgrwt>
<rscale>  0 0.65574844E+03</rscale>
<asrwt>0</asrwt>
<pdfrwt beam="1">0</pdfrwt>
<pdfrwt beam="2">  1        2 0.39091539E+00 0.65574844E+03</pdfrwt>
<totfact> 0.43047034E+00</totfact>
</mgrwt>
</event>
<event>
 5    1  0.2354746E-004  0.6530484E+03  0.7818608E-02  0.9801076E-01
         13   -1    0    0    0    0  0.00000000000E+00  0.00000000000E+00  0.10000000000E+04  0.10000000000E+04  0.00000000000E+00 0. -1.
          2   -1    0    0  501    0 -0.00000000000E+00 -0.00000000000E+00 -0.10661806309E+03  0.10661806309E+03  0.00000000000E+00 0. -1.
    9000006    2    1    2  501    0  0.00000000000E+00  0.00000000000E+00  0.89338193691E+03  0.11066180631E+04  0.65304843032E+03 0.  0.
         13    1    3    3    0    0 -0.27499839264E+03  0.29968330997E+02  0.74066275034E+03  0.79063488828E+03  0.00000000000E+00 0. -1.
          4    1    3    3  501    0  0.27499839264E+03 -0.29968330997E+02  0.15271918657E+03  0.31598317481E+03  0.00000000000E+00 0. -1.
<mgrwt>
<rscale>  0 0.65304843E+03</rscale>
<asrwt>0</asrwt>
<pdfrwt beam="1">0</pdfrwt>
<pdfrwt beam="2">  1        2 0.38770287E+00 0.65304843E+03</pdfrwt>
<totfact> 0.44256534E+00</totfact>
</mgrwt>
</event>
<event>
 5    1  0.2354746E-004  0.6527114E+03  0.7818608E-02  0.9801705E-01
         13   -1    0    0    0    0  0.00000000000E+00  0.00000000000E+00  0.10000000000E+04  0.10000000000E+04  0.00000000000E+00 0. -1.
          2   -1    0    0  501    0 -0.00000000000E+00 -0.00000000000E+00 -0.10650803594E+03  0.10650803594E+03  0.00000000000E+00 0. -1.
    9000006    2    1    2  501    0  0.00000000000E+00  0.00000000000E+00  0.89349196406E+03  0.11065080359E+04  0.65271137859E+03 0.  0.
         13    1    3    3    0    0 -0.21382714832E+03  0.91095154705E+02  0.58361390500E+02  0.23963811982E+03  0.00000000000E+00 0. -1.
          2    1    3    3  501    0  0.21382714832E+03 -0.91095154705E+02  0.83513057356E+03  0.86686991612E+03  0.00000000000E+00 0. -1.
<mgrwt>
<rscale>  0 0.65271138E+03</rscale>
<asrwt>0</asrwt>
<pdfrwt beam="1">0</pdfrwt>
<pdfrwt beam="2">  1        2 0.38730277E+00 0.65271138E+03</pdfrwt>
<totfact> 0.44409302E+00</totfact>
</mgrwt>
</event>
<event>
 5    1  0.2354746E-004  0.6512447E+03  0.7818608E-02  0.9804446E-01
         13   -1    0    0    0    0  0.00000000000E+00  0.00000000000E+00  0.10000000000E+04  0.10000000000E+04  0.00000000000E+00 0. -1.
          2   -1    0    0  501    0 -0.00000000000E+00 -0.00000000000E+00 -0.10602991115E+03  0.10602991115E+03  0.00000000000E+00 0. -1.
    9000006    2    1    2  501    0  0.00000000000E+00  0.00000000000E+00  0.89397008885E+03  0.11060299111E+04  0.65124468873E+03 0.  0.
         13    1    3    3    0    0  0.16114706087E+03 -0.18197680195E+03  0.79007022995E+02  0.25558959556E+03  0.00000000000E+00 0. -1.
          2    1    3    3  501    0 -0.16114706087E+03  0.18197680195E+03  0.81496306586E+03  0.85044031559E+03  0.00000000000E+00 0. -1.
<mgrwt>
<rscale>  0 0.65124469E+03</rscale>
<asrwt>0</asrwt>
<pdfrwt beam="1">0</pdfrwt>
<pdfrwt beam="2">  1        2 0.38556413E+00 0.65124469E+03</pdfrwt>
<totfact> 0.45078721E+00</totfact>
</mgrwt>
</event>
<event>
 5    1  0.2354746E-004  0.6312290E+03  0.7818608E-02  0.9842653E-01
         13   -1    0    0    0    0  0.00000000000E+00  0.00000000000E+00  0.10000000000E+04  0.10000000000E+04  0.00000000000E+00 0. -1.
          2   -1    0    0  501    0 -0.00000000000E+00 -0.00000000000E+00 -0.99612501666E+02  0.99612501666E+02  0.00000000000E+00 0. -1.
    9000006    2    1    2  501    0  0.00000000000E+00  0.00000000000E+00  0.90038749833E+03  0.10996125017E+04  0.63122896532E+03 0.  0.
         13    1    3    3    0    0  0.30077095552E+02 -0.31199507430E+03  0.51460000430E+03  0.60254354406E+03  0.00000000000E+00 0. -1.
          2    1    3    3  501    0 -0.30077095552E+02  0.31199507430E+03  0.38578749403E+03  0.49706895760E+03  0.00000000000E+00 0. -1.
<mgrwt>
<rscale>  0 0.63122897E+03</rscale>
<asrwt>0</asrwt>
<pdfrwt beam="1">0</pdfrwt>
<pdfrwt beam="2">  1        2 0.36222804E+00 0.63122897E+03</pdfrwt>
<totfact> 0.54999848E+00</totfact>
</mgrwt>
</event>
<event>
 5    1  0.2354746E-004  0.6349744E+03  0.7818608E-02  0.9835389E-01
         13   -1    0    0    0    0  0.00000000000E+00  0.00000000000E+00  0.10000000000E+04  0.10000000000E+04  0.00000000000E+00 0. -1.
          2   -1    0    0  501    0 -0.00000000000E+00 -0.00000000000E+00 -0.10079812536E+03  0.10079812536E+03  0.00000000000E+00 0. -1.
    9000006    2    1    2  501    0  0.00000000000E+00  0.00000000000E+00  0.89920187464E+03  0.11007981254E+04  0.63497441005E+03 0.  0.
         13    1    3    3    0    0  0.89644717077E+02 -0.15070420336E+03  0.90843550209E+03  0.92520429834E+03  0.00000000000E+00 0. -1.
          4    1    3    3  501    0 -0.89644717077E+02  0.15070420336E+03 -0.92336274413E+01  0.17559382702E+03  0.00000000000E+00 0. -1.
<mgrwt>
<rscale>  0 0.63497441E+03</rscale>
<asrwt>0</asrwt>
<pdfrwt beam="1">0</pdfrwt>
<pdfrwt beam="2">  1        2 0.36653941E+00 0.63497441E+03</pdfrwt>
<totfact> 0.53028453E+00</totfact>
</mgrwt>
</event>
<event>
 5    1  0.2354746E-004  0.6452499E+03  0.7818608E-02  0.9815733E-01
         13   -1    0    0    0    0  0.00000000000E+00  0.00000000000E+00  0.10000000000E+04  0.10000000000E+04  0.00000000000E+00 0. -1.
          2   -1    0    0  501    0 -0.00000000000E+00 -0.00000000000E+00 -0.10408685436E+03  0.10408685436E+03  0.00000000000E+00 0. -1.
    9000006    2    1    2  501    0  0.00000000000E+00  0.00000000000E+00  0.89591314564E+03  0.11040868544E+04  0.64524988759E+03 0.  0.
         13    1    3    3    0    0  0.25222541550E+03  0.18610142051E+03  0.57866773597E+03  0.65810922163E+03  0.00000000000E+00 0. -1.
          4    1    3    3  501    0 -0.25222541550E+03 -0.18610142051E+03  0.31724540967E+03  0.44597763273E+03  0.00000000000E+00 0. -1.
<mgrwt>
<rscale>  0 0.64524989E+03</rscale>
<asrwt>0</asrwt>
<pdfrwt beam="1">0</pdfrwt>
<pdfrwt beam="2">  1        2 0.37849845E+00 0.64524989E+03</pdfrwt>
<totfact> 0.47894464E+00</totfact>
</mgrwt>
</event>
<event>
 5    1  0.2354746E-004  0.7081471E+03  0.7818608E-02  0.9703400E-01
         13   -1    0    0    0    0  0.00000000000E+00  0.00000000000E+00  0.10000000000E+04  0.10000000000E+04  0.00000000000E+00 0. -1.
          2   -1    0    0  501    0 -0.00000000000E+00 -0.00000000000E+00 -0.12536806750E+03  0.12536806750E+03  0.00000000000E+00 0. -1.
    9000006    2    1    2  501    0  0.00000000000E+00  0.00000000000E+00  0.87463193250E+03  0.11253680675E+04  0.70814706805E+03 0.  0.
         13    1    3    3    0    0 -0.18109863759E+03 -0.10855367109E+03  0.88900867521E+03  0.91373794966E+03  0.00000000000E+00 0. -1.
          2    1    3    3  501    0  0.18109863759E+03  0.10855367109E+03 -0.14376742708E+02  0.21163011784E+03  0.00000000000E+00 0. -1.
<mgrwt>
<rscale>  0 0.70814707E+03</rscale>
<asrwt>0</asrwt>
<pdfrwt beam="1">0</pdfrwt>
<pdfrwt beam="2">  1        2 0.45588484E+00 0.70814707E+03</pdfrwt>
<totfact> 0.24128880E+00</totfact>
</mgrwt>
</event>
<event>
 5    1  0.2354746E-004  0.6363477E+03  0.7818608E-02  0.9832739E-01
         13   -1    0    0    0    0  0.00000000000E+00  0.00000000000E+00  0.10000000000E+04  0.10000000000E+04  0.00000000000E+00 0. -1.
          2   -1    0    0  501    0 -0.00000000000E+00 -0.00000000000E+00 -0.10123460707E+03  0.10123460707E+03  0.00000000000E+00 0. -1.
    9000006    2    1    2  501    0  0.00000000000E+00  0.00000000000E+00  0.89876539293E+03  0.11012346071E+04  0.63634772591E+03 0.  0.
         13    1    3    3    0    0 -0.30028202918E+03 -0.59068715942E+02  0.60001252397E+03  0.67355284809E+03  0.00000000000E+00 0. -1.
          4    1    3    3  501    0  0.30028202918E+03  0.59068715942E+02  0.29875286897E+03  0.42768175898E+03  0.00000000000E+00 0. -1.
<mgrwt>
<rscale>  0 0.63634773E+03</rscale>
<asrwt>0</asrwt>
<pdfrwt beam="1">0</pdfrwt>
<pdfrwt beam="2">  1        2 0.36812662E+00 0.63634773E+03</pdfrwt>
<totfact> 0.52319211E+00</totfact>
</mgrwt>
</event>
<event>
 5    1  0.2354746E-004  0.6532951E+03  0.7818608E-02  0.9800616E-01
         13   -1    0    0    0    0  0.00000000000E+00  0.00000000000E+00  0.10000000000E+04  0.10000000000E+04  0.00000000000E+00 0. -1.
          2   -1    0    0  501    0 -0.00000000000E+00 -0.00000000000E+00 -0.10669860981E+03  0.10669860981E+03  0.00000000000E+00 0. -1.
    9000006    2    1    2  501    0  0.00000000000E+00  0.00000000000E+00  0.89330139019E+03  0.11066986098E+04  0.65329506292E+03 0.  0.
         13    1    3    3    0    0 -0.26715653074E+03  0.17579587583E+02  0.76365063760E+03  0.80922428913E+03  0.00000000000E+00 0. -1.
          2    1    3    3  501    0  0.26715653074E+03 -0.17579587583E+02  0.12965075259E+03  0.29747432067E+03  0.00000000000E+00 0. -1.
<mgrwt>
<rscale>  0 0.65329506E+03</rscale>
<asrwt>0</asrwt>
<pdfrwt beam="1">0</pdfrwt>
<pdfrwt beam="2">  1        2 0.38799576E+00 0.65329506E+03</pdfrwt>
<totfact> 0.44145000E+00</totfact>
</mgrwt>
</event>
<event>
 5    1  0.2354746E-004  0.6508040E+03  0.7818608E-02  0.9805272E-01
         13   -1    0    0    0    0  0.00000000000E+00  0.00000000000E+00  0.10000000000E+04  0.10000000000E+04  0.00000000000E+00 0. -1.
          2   -1    0    0  501    0 -0.00000000000E+00 -0.00000000000E+00 -0.10588645803E+03  0.10588645803E+03  0.00000000000E+00 0. -1.
    9000006    2    1    2  501    0  0.00000000000E+00  0.00000000000E+00  0.89411354197E+03  0.11058864580E+04  0.65080398903E+03 0.  0.
         13    1    3    3    0    0 -0.85374906491E+02 -0.30661383220E+03  0.33198848678E+03  0.45991006959E+03  0.00000000000E+00 0. -1.
          2    1    3    3  501    0  0.85374906491E+02  0.30661383220E+03  0.56212505518E+03  0.64597638844E+03  0.00000000000E+00 0. -1.
<mgrwt>
<rscale>  0 0.65080399E+03</rscale>
<asrwt>0</asrwt>
<pdfrwt beam="1">0</pdfrwt>
<pdfrwt beam="2">  1        2 0.38504248E+00 0.65080399E+03</pdfrwt>
<totfact> 0.45281345E+00</totfact>
</mgrwt>
</event>
<event>
 5    1  0.2354746E-004  0.6460910E+03  0.7818608E-02  0.9814142E-01
         13   -1    0    0    0    0  0.00000000000E+00  0.00000000000E+00  0.10000000000E+04  0.10000000000E+04  0.00000000000E+00 0. -1.
          2   -1    0    0  501    0 -0.00000000000E+00 -0.00000000000E+00 -0.10435839635E+03  0.10435839635E+03  0.00000000000E+00 0. -1.
    9000006    2    1    2  501    0  0.00000000000E+00  0.00000000000E+00  0.89564160365E+03  0.11043583964E+04  0.64609100396E+03 0.  0.
         13    1    3    3    0    0  0.15527937122E+03  0.28251583079E+03  0.48332797447E+03  0.58097573846E+03  0.00000000000E+00 0. -1.
          4    1    3    3  501    0 -0.15527937122E+03 -0.28251583079E+03  0.41231362918E+03  0.52338265789E+03  0.00000000000E+00 0. -1.
<mgrwt>
<rscale>  0 0.64609100E+03</rscale>
<asrwt>0</asrwt>
<pdfrwt beam="1">0</pdfrwt>
<pdfrwt beam="2">  1        2 0.37948588E+00 0.64609100E+03</pdfrwt>
<totfact> 0.47491585E+00</totfact>
</mgrwt>
</event>
<event>
 5    1  0.2354746E-004  0.6528141E+03  0.7818608E-02  0.9801513E-01
         13   -1    0    0    0    0  0.00000000000E+00  0.00000000000E+00  0.10000000000E+04  0.10000000000E+04  0.00000000000E+00 0. -1.
          2   -1    0    0  501    0 -0.00000000000E+00 -0.00000000000E+00 -0.10654154872E+03  0.10654154872E+03  0.00000000000E+00 0. -1.
    9000006    2    1    2  501    0  0.00000000000E+00  0.00000000000E+00  0.89345845128E+03  0.11065415487E+04  0.65281405843E+03 0.  0.
         13    1    3    3    0    0  0.27740135462E+03  0.13939286481E+03  0.27587805796E+03  0.41531985887E+03  0.00000000000E+00 0. -1.
          2    1    3    3  501    0 -0.27740135462E+03 -0.13939286481E+03  0.61758039332E+03  0.69122168985E+03  0.00000000000E+00 0. -1.
<mgrwt>
<rscale>  0 0.65281406E+03</rscale>
<asrwt>0</asrwt>
<pdfrwt beam="1">0</pdfrwt>
<pdfrwt beam="2">  1        2 0.38742463E+00 0.65281406E+03</pdfrwt>
<totfact> 0.44362720E+00</totfact>
</mgrwt>
</event>
<event>
 5    1  0.2354746E-004  0.6918442E+03  0.7818608E-02  0.9731282E-01
         13   -1    0    0    0    0  0.00000000000E+00  0.00000000000E+00  0.10000000000E+04  0.10000000000E+04  0.00000000000E+00 0. -1.
          2   -1    0    0  501    0 -0.00000000000E+00 -0.00000000000E+00 -0.11966211273E+03  0.11966211273E+03  0.00000000000E+00 0. -1.
    9000006    2    1    2  501    0  0.00000000000E+00  0.00000000000E+00  0.88033788727E+03  0.11196621127E+04  0.69184423891E+03 0.  0.
         13    1    3    3    0    0  0.25357801486E+03  0.23400654349E+03  0.47985179262E+03  0.59103182224E+03  0.00000000000E+00 0. -1.
          4    1    3    3  501    0 -0.25357801486E+03 -0.23400654349E+03  0.40048609465E+03  0.52863029049E+03  0.00000000000E+00 0. -1.
<mgrwt>
<rscale>  0 0.69184424E+03</rscale>
<asrwt>0</asrwt>
<pdfrwt beam="1">0</pdfrwt>
<pdfrwt beam="2">  1        2 0.43513587E+00 0.69184424E+03</pdfrwt>
<totfact> 0.29152355E+00</totfact>
</mgrwt>
</event>
<event>
 5    1  0.2354746E-004  0.6461365E+03  0.7818608E-02  0.9814056E-01
         13   -1    0    0    0    0  0.00000000000E+00  0.00000000000E+00  0.10000000000E+04  0.10000000000E+04  0.00000000000E+00 0. -1.
          2   -1    0    0  501    0 -0.00000000000E+00 -0.00000000000E+00 -0.10437308669E+03  0.10437308669E+03  0.00000000000E+00 0. -1.
    9000006    2    1    2  501    0  0.00000000000E+00  0.00000000000E+00  0.89562691331E+03  0.11043730867E+04  0.64613647689E+03 0.  0.
         13    1    3    3    0    0 -0.24014094661E+03  0.15684624604E+03  0.19369655650E+03  0.34610226110E+03  0.00000000000E+00 0. -1.
          4    1    3    3  501    0  0.24014094661E+03 -0.15684624604E+03  0.70193035681E+03  0.75827082559E+03  0.00000000000E+00 0. -1.
<mgrwt>
<rscale>  0 0.64613648E+03</rscale>
<asrwt>0</asrwt>
<pdfrwt beam="1">0</pdfrwt>
<pdfrwt beam="2">  1        2 0.37953930E+00 0.64613648E+03</pdfrwt>
<totfact> 0.47469878E+00</totfact>
</mgrwt>
</event>
<event>
 5    1  0.2354746E-004  0.6474345E+03  0.7818608E-02  0.9811605E-01
         13   -1    0    0    0    0  0.00000000000E+00  0.00000000000E+00  0.10000000000E+04  0.10000000000E+04  0.00000000000E+00 0. -1.
          2   -1    0    0  501    0 -0.00000000000E+00 -0.00000000000E+00 -0.10479286673E+03  0.10479286673E+03  0.00000000000E+00 0. -1.
    9000006    2    1    2  501    0  0.00000000000E+00  0.00000000000E+00  0.89520713327E+03  0.11047928667E+04  0.64743452714E+03 0.  0.
         13    1    3    3    0    0  0.17338026494E+03  0.21045301515E+03  0.74533130980E+03  0.79364346481E+03  0.00000000000E+00 0. -1.
          2    1    3    3  501    0 -0.17338026494E+03 -0.21045301515E+03  0.14987582347E+03  0.31114940193E+03  0.00000000000E+00 0. -1.
<mgrwt>
<rscale>  0 0.64743453E+03</rscale>
<asrwt>0</asrwt>
<pdfrwt beam="1">0</pdfrwt>
<pdfrwt beam="2">  1        2 0.38106577E+00 0.64743453E+03</pdfrwt>
<totfact> 0.46853386E+00</totfact>
</mgrwt>
</event>
<event>
 5    1  0.2354746E-004  0.6417432E+03  0.7818608E-02  0.9822397E-01
         13   -1    0    0    0    0  0.00000000000E+00  0.00000000000E+00  0.10000000000E+04  0.10000000000E+04  0.00000000000E+00 0. -1.
          2   -1    0    0  501    0 -0.00000000000E+00 -0.00000000000E+00 -0.10295856948E+03  0.10295856948E+03  0.00000000000E+00 0. -1.
    9000006    2    1    2  501    0  0.00000000000E+00  0.00000000000E+00  0.89704143052E+03  0.11029585695E+04  0.64174315571E+03 0.  0.
         13    1    3    3    0    0 -0.29091204923E+03 -0.12440202887E+03  0.35672127493E+03  0.47681836496E+03  0.00000000000E+00 0. -1.
          2    1    3    3  501    0  0.29091204923E+03  0.12440202887E+03  0.54032015560E+03  0.62614020452E+03  0.00000000000E+00 0. -1.
<mgrwt>
<rscale>  0 0.64174316E+03</rscale>
<asrwt>0</asrwt>
<pdfrwt beam="1">0</pdfrwt>
<pdfrwt beam="2">  1        2 0.37439559E+00 0.64174316E+03</pdfrwt>
<totfact> 0.49602108E+00</totfact>
</mgrwt>
</event>
<event>
 5    1  0.2354746E-004  0.6942008E+03  0.7818608E-02  0.9727201E-01
         13   -1    0    0    0    0  0.00000000000E+00  0.00000000000E+00  0.10000000000E+04  0.10000000000E+04  0.00000000000E+00 0. -1.
          2   -1    0    0  501    0 -0.00000000000E+00 -0.00000000000E+00 -0.12047867434E+03  0.12047867434E+03  0.00000000000E+00 0. -1.
    9000006    2    1    2  501    0  0.00000000000E+00  0.00000000000E+00  0.87952132566E+03  0.11204786743E+04  0.69420076157E+03 0.  0.
         13    1    3    3    0    0 -0.71736594460E+02 -0.23699643028E+03  0.47159322090E+02  0.25206635756E+03  0.00000000000E+00 0. -1.
          2    1    3    3  501    0  0.71736594460E+02  0.23699643028E+03  0.83236200357E+03  0.86841231678E+03  0.00000000000E+00 0. -1.
<mgrwt>
<rscale>  0 0.69420076E+03</rscale>
<asrwt>0</asrwt>
<pdfrwt beam="1">0</pdfrwt>
<pdfrwt beam="2">  1        2 0.43810519E+00 0.69420076E+03</pdfrwt>
<totfact> 0.28381564E+00</totfact>
</mgrwt>
</event>
<event>
 5    1  0.2354746E-004  0.6289170E+03  0.7818608E-02  0.9847164E-01
         13   -1    0    0    0    0  0.00000000000E+00  0.00000000000E+00  0.10000000000E+04  0.10000000000E+04  0.00000000000E+00 0. -1.
          2   -1    0    0  501    0 -0.00000000000E+00 -0.00000000000E+00 -0.98884163744E+02  0.98884163744E+02  0.00000000000E+00 0. -1.
    9000006    2    1    2  501    0  0.00000000000E+00  0.00000000000E+00  0.90111583626E+03  0.10988841637E+04  0.62891704936E+03 0.  0.
         13    1    3    3    0    0 -0.31272659006E+02  0.35052226738E+02  0.99383490712E+03  0.99494445092E+03  0.00000000000E+00 0. -1.
          2    1    3    3  501    0  0.31272659006E+02 -0.35052226738E+02 -0.92719070864E+02  0.10393971283E+03  0.00000000000E+00 0. -1.
<mgrwt>
<rscale>  0 0.62891705E+03</rscale>
<asrwt>0</asrwt>
<pdfrwt beam="1">0</pdfrwt>
<pdfrwt beam="2">  1        2 0.35957954E+00 0.62891705E+03</pdfrwt>
<totfact> 0.56244158E+00</totfact>
</mgrwt>
</event>
<event>
 5    1  0.2354746E-004  0.6542826E+03  0.7818608E-02  0.9798776E-01
         13   -1    0    0    0    0  0.00000000000E+00  0.00000000000E+00  0.10000000000E+04  0.10000000000E+04  0.00000000000E+00 0. -1.
          2   -1    0    0  501    0 -0.00000000000E+00 -0.00000000000E+00 -0.10702144652E+03  0.10702144652E+03  0.00000000000E+00 0. -1.
    9000006    2    1    2  501    0  0.00000000000E+00  0.00000000000E+00  0.89297855348E+03  0.11070214465E+04  0.65428264999E+03 0.  0.
         13    1    3    3    0    0 -0.86786756596E+02  0.79155622975E+02  0.96308909319E+03  0.97022582690E+03  0.00000000000E+00 0. -1.
          2    1    3    3  501    0  0.86786756596E+02 -0.79155622975E+02 -0.70110539705E+02  0.13679561962E+03  0.00000000000E+00 0. -1.
<mgrwt>
<rscale>  0 0.65428265E+03</rscale>
<asrwt>0</asrwt>
<pdfrwt beam="1">0</pdfrwt>
<pdfrwt beam="2">  1        2 0.38916972E+00 0.65428265E+03</pdfrwt>
<totfact> 0.43700511E+00</totfact>
</mgrwt>
</event>
<event>
 5    1  0.2354746E-004  0.6725109E+03  0.7818608E-02  0.9765432E-01
         13   -1    0    0    0    0  0.00000000000E+00  0.00000000000E+00  0.10000000000E+04  0.10000000000E+04  0.00000000000E+00 0. -1.
          2   -1    0    0  501    0 -0.00000000000E+00 -0.00000000000E+00 -0.11306774038E+03  0.11306774038E+03  0.00000000000E+00 0. -1.
    9000006    2    1    2  501    0  0.00000000000E+00  0.00000000000E+00  0.88693225962E+03  0.11130677404E+04  0.67251093784E+03 0.  0.
         13    1    3    3    0    0 -0.53235833762E+02 -0.26806165350E+03  0.76769799671E+03  0.81489343980E+03  0.00000000000E+00 0. -1.
          2    1    3    3  501    0  0.53235833762E+02  0.26806165350E+03  0.11923426291E+03  0.29817430058E+03  0.00000000000E+00 0. -1.
<mgrwt>
<rscale>  0 0.67251094E+03</rscale>
<asrwt>0</asrwt>
<pdfrwt beam="1">0</pdfrwt>
<pdfrwt beam="2">  1        2 0.41115629E+00 0.67251094E+03</pdfrwt>
<totfact> 0.36086862E+00</totfact>
</mgrwt>
</event>
<event>
 5    1  0.2354746E-004  0.6393260E+03  0.7818608E-02  0.9827017E-01
         13   -1    0    0    0    0  0.00000000000E+00  0.00000000000E+00  0.10000000000E+04  0.10000000000E+04  0.00000000000E+00 0. -1.
          2   -1    0    0  501    0 -0.00000000000E+00 -0.00000000000E+00 -0.10218442415E+03  0.10218442415E+03  0.00000000000E+00 0. -1.
    9000006    2    1    2  501    0  0.00000000000E+00  0.00000000000E+00  0.89781557585E+03  0.11021844242E+04  0.63932597055E+03 0.  0.
         13    1    3    3    0    0 -0.20628729764E+03 -0.24314313474E+03  0.40992180667E+03  0.51933507557E+03  0.00000000000E+00 0. -1.
          2    1    3    3  501    0  0.20628729764E+03  0.24314313474E+03  0.48789376918E+03  0.58284934858E+03  0.00000000000E+00 0. -1.
<mgrwt>
<rscale>  0 0.63932597E+03</rscale>
<asrwt>0</asrwt>
<pdfrwt beam="1">0</pdfrwt>
<pdfrwt beam="2">  1        2 0.37158051E+00 0.63932597E+03</pdfrwt>
<totfact> 0.50805822E+00</totfact>
</mgrwt>
</event>
<event>
 5    1  0.2354746E-004  0.6514312E+03  0.7818608E-02  0.9804097E-01
         13   -1    0    0    0    0  0.00000000000E+00  0.00000000000E+00  0.10000000000E+04  0.10000000000E+04  0.00000000000E+00 0. -1.
          2   -1    0    0  501    0 -0.00000000000E+00 -0.00000000000E+00 -0.10609065309E+03  0.10609065309E+03  0.00000000000E+00 0. -1.
    9000006    2    1    2  501    0  0.00000000000E+00  0.00000000000E+00  0.89390934691E+03  0.11060906531E+04  0.65143120308E+03 0.  0.
         13    1    3    3    0    0 -0.21750993596E+03 -0.18911024991E+03  0.18935207273E+03  0.34485861785E+03  0.00000000000E+00 0. -1.
          2    1    3    3  501    0  0.21750993596E+03  0.18911024991E+03  0.70455727418E+03  0.76123203523E+03  0.00000000000E+00 0. -1.
<mgrwt>
<rscale>  0 0.65143120E+03</rscale>
<asrwt>0</asrwt>
<pdfrwt beam="1">0</pdfrwt>
<pdfrwt beam="2">  1        2 0.38578501E+00 0.65143120E+03</pdfrwt>
<totfact> 0.44993173E+00</totfact>
</mgrwt>
</event>
<event>
 5    1  0.2354746E-004  0.6545139E+03  0.7818608E-02  0.9798346E-01
         13   -1    0    0    0    0  0.00000000000E+00  0.00000000000E+00  0.10000000000E+04  0.10000000000E+04  0.00000000000E+00 0. -1.
          2   -1    0    0  501    0 -0.00000000000E+00 -0.00000000000E+00 -0.10709712059E+03  0.10709712059E+03  0.00000000000E+00 0. -1.
    9000006    2    1    2  501    0  0.00000000000E+00  0.00000000000E+00  0.89290287941E+03  0.11070971206E+04  0.65451392831E+03 0.  0.
         13    1    3    3    0    0 -0.66155710706E+01 -0.32197966982E+03  0.34807698678E+03  0.47420698254E+03  0.00000000000E+00 0. -1.
          2    1    3    3  501    0  0.66155710706E+01  0.32197966982E+03  0.54482589263E+03  0.63289013805E+03  0.00000000000E+00 0. -1.
<mgrwt>
<rscale>  0 0.65451393E+03</rscale>
<asrwt>0</asrwt>
<pdfrwt beam="1">0</pdfrwt>
<pdfrwt beam="2">  1        2 0.38944490E+00 0.65451393E+03</pdfrwt>
<totfact> 0.43596908E+00</totfact>
</mgrwt>
</event>
<event>
 5    1  0.2354746E-004  0.6329966E+03  0.7818608E-02  0.9839219E-01
         13   -1    0    0    0    0  0.00000000000E+00  0.00000000000E+00  0.10000000000E+04  0.10000000000E+04  0.00000000000E+00 0. -1.
          2   -1    0    0  501    0 -0.00000000000E+00 -0.00000000000E+00 -0.10017117227E+03  0.10017117227E+03  0.00000000000E+00 0. -1.
    9000006    2    1    2  501    0  0.00000000000E+00  0.00000000000E+00  0.89982882773E+03  0.11001711723E+04  0.63299659485E+03 0.  0.
         13    1    3    3    0    0  0.21881431615E+03  0.46249632014E+02  0.60685660061E+02  0.23173580377E+03  0.00000000000E+00 0. -1.
          2    1    3    3  501    0 -0.21881431615E+03 -0.46249632014E+02  0.83914316767E+03  0.86843536850E+03  0.00000000000E+00 0. -1.
<mgrwt>
<rscale>  0 0.63299659E+03</rscale>
<asrwt>0</asrwt>
<pdfrwt beam="1">0</pdfrwt>
<pdfrwt beam="2">  1        2 0.36425958E+00 0.63299659E+03</pdfrwt>
<totfact> 0.54062664E+00</totfact>
</mgrwt>
</event>
<event>
 5    1  0.2354746E-004  0.6760433E+03  0.7818608E-02  0.9759102E-01
         13   -1    0    0    0    0  0.00000000000E+00  0.00000000000E+00  0.10000000000E+04  0.10000000000E+04  0.00000000000E+00 0. -1.
          2   -1    0    0  501    0 -0.00000000000E+00 -0.00000000000E+00 -0.11425863964E+03  0.11425863964E+03  0.00000000000E+00 0. -1.
    9000006    2    1    2  501    0  0.00000000000E+00  0.00000000000E+00  0.88574136036E+03  0.11142586396E+04  0.67604331114E+03 0.  0.
         13    1    3    3    0    0  0.25388426657E+03 -0.22177572535E+03  0.40193186859E+03  0.52458642773E+03  0.00000000000E+00 0. -1.
          2    1    3    3  501    0 -0.25388426657E+03  0.22177572535E+03  0.48380949177E+03  0.58967221191E+03  0.00000000000E+00 0. -1.
<mgrwt>
<rscale>  0 0.67604331E+03</rscale>
<asrwt>0</asrwt>
<pdfrwt beam="1">0</pdfrwt>
<pdfrwt beam="2">  1        2 0.41548684E+00 0.67604331E+03</pdfrwt>
<totfact> 0.34735746E+00</totfact>
</mgrwt>
</event>
<event>
 5    1  0.2354746E-004  0.6322239E+03  0.7818608E-02  0.9840719E-01
         13   -1    0    0    0    0  0.00000000000E+00  0.00000000000E+00  0.10000000000E+04  0.10000000000E+04  0.00000000000E+00 0. -1.
          2   -1    0    0  501    0 -0.00000000000E+00 -0.00000000000E+00 -0.99926769180E+02  0.99926769180E+02  0.00000000000E+00 0. -1.
    9000006    2    1    2  501    0  0.00000000000E+00  0.00000000000E+00  0.90007323082E+03  0.10999267692E+04  0.63222391344E+03 0.  0.
         13    1    3    3    0    0 -0.72374873701E+02 -0.90333318406E+02 -0.61730689699E+02  0.13118273060E+03  0.00000000000E+00 0. -1.
          4    1    3    3  501    0  0.72374873701E+02  0.90333318406E+02  0.96180392052E+03  0.96874403858E+03  0.00000000000E+00 0. -1.
<mgrwt>
<rscale>  0 0.63222391E+03</rscale>
<asrwt>0</asrwt>
<pdfrwt beam="1">0</pdfrwt>
<pdfrwt beam="2">  1        2 0.36337084E+00 0.63222391E+03</pdfrwt>
<totfact> 0.54470831E+00</totfact>
</mgrwt>
</event>
<event>
 5    1  0.2354746E-004  0.6787401E+03  0.7818608E-02  0.9754296E-01
         13   -1    0    0    0    0  0.00000000000E+00  0.00000000000E+00  0.10000000000E+04  0.10000000000E+04  0.00000000000E+00 0. -1.
          2   -1    0    0  501    0 -0.00000000000E+00 -0.00000000000E+00 -0.11517202225E+03  0.11517202225E+03  0.00000000000E+00 0. -1.
    9000006    2    1    2  501    0  0.00000000000E+00  0.00000000000E+00  0.88482797775E+03  0.11151720222E+04  0.67874007468E+03 0.  0.
         13    1    3    3    0    0  0.30386573834E+03  0.39031007029E+02  0.68228239679E+03  0.74790846727E+03  0.00000000000E+00 0. -1.
          2    1    3    3  501    0 -0.30386573834E+03 -0.39031007029E+02  0.20254558097E+03  0.36726355498E+03  0.00000000000E+00 0. -1.
<mgrwt>
<rscale>  0 0.67874007E+03</rscale>
<asrwt>0</asrwt>
<pdfrwt beam="1">0</pdfrwt>
<pdfrwt beam="2">  1        2 0.41880824E+00 0.67874007E+03</pdfrwt>
<totfact> 0.33730200E+00</totfact>
</mgrwt>
</event>
<event>
 5    1  0.2354746E-004  0.6452481E+03  0.7818608E-02  0.9815737E-01
         13   -1    0    0    0    0  0.00000000000E+00  0.00000000000E+00  0.10000000000E+04  0.10000000000E+04  0.00000000000E+00 0. -1.
          2   -1    0    0  501    0 -0.00000000000E+00 -0.00000000000E+00 -0.10408629013E+03  0.10408629013E+03  0.00000000000E+00 0. -1.
    9000006    2    1    2  501    0  0.00000000000E+00  0.00000000000E+00  0.89591370987E+03  0.11040862901E+04  0.64524813873E+03 0.  0.
         13    1    3    3    0    0 -0.11004681363E+03 -0.19486208660E+03  0.84559886581E+03  0.87471079555E+03  0.00000000000E+00 0. -1.
          4    1    3    3  501    0  0.11004681363E+03  0.19486208660E+03  0.50314844054E+02  0.22937549458E+03  0.00000000000E+00 0. -1.
<mgrwt>
<rscale>  0 0.64524814E+03</rscale>
<asrwt>0</asrwt>
<pdfrwt beam="1">0</pdfrwt>
<pdfrwt beam="2">  1        2 0.37849640E+00 0.64524814E+03</pdfrwt>
<totfact> 0.47895305E+00</totfact>
</mgrwt>
</event>
<event>
 5    1  0.2354746E-004  0.6349213E+03  0.7818608E-02  0.9835492E-01
         13   -1    0    0    0    0  0.00000000000E+00  0.00000000000E+00  0.10000000000E+04  0.10000000000E+04  0.00000000000E+00 0. -1.
          2   -1    0    0  501    0 -0.00000000000E+00 -0.00000000000E+00 -0.10078126128E+03  0.10078126128E+03  0.00000000000E+00 0. -1.
    9000006    2    1    2  501    0  0.00000000000E+00  0.00000000000E+00  0.89921873872E+03  0.11007812613E+04  0.63492129048E+03 0.  0.
         13    1    3    3    0    0  0.63747567901E+02  0.30103904785E+03  0.31427853928E+03  0.43984004023E+03  0.00000000000E+00 0. -1.
          4    1    3    3  501    0 -0.63747567901E+02 -0.30103904785E+03  0.58494019945E+03  0.66094122104E+03  0.00000000000E+00 0. -1.
<mgrwt>
<rscale>  0 0.63492129E+03</rscale>
<asrwt>0</asrwt>
<pdfrwt beam="1">0</pdfrwt>
<pdfrwt beam="2">  1        2 0.36647809E+00 0.63492129E+03</pdfrwt>
<totfact> 0.53056032E+00</totfact>
</mgrwt>
</event>
<event>
 5    1  0.2354746E-004  0.6505401E+03  0.7818608E-02  0.9805766E-01
         13   -1    0    0    0    0  0.00000000000E+00  0.00000000000E+00  0.10000000000E+04  0.10000000000E+04  0.00000000000E+00 0. -1.
          2   -1    0    0  501    0 -0.00000000000E+00 -0.00000000000E+00 -0.10580059757E+03  0.10580059757E+03  0.00000000000E+00 0. -1.
    9000006    2    1    2  501    0  0.00000000000E+00  0.00000000000E+00  0.89419940243E+03  0.11058005976E+04  0.65054007586E+03 0.  0.
         13    1    3    3    0    0  0.28661891693E+02  0.29306127639E+03  0.21221577857E+03  0.36296274248E+03  0.00000000000E+00 0. -1.
          2    1    3    3  501    0 -0.28661891693E+02 -0.29306127639E+03  0.68198362386E+03  0.74283785510E+03  0.00000000000E+00 0. -1.
<mgrwt>
<rscale>  0 0.65054008E+03</rscale>
<asrwt>0</asrwt>
<pdfrwt beam="1">0</pdfrwt>
<pdfrwt beam="2">  1        2 0.38473026E+00 0.65054008E+03</pdfrwt>
<totfact> 0.45403015E+00</totfact>
</mgrwt>
</event>
<event>
 5    1  0.2354746E-004  0.6472542E+03  0.7818608E-02  0.9811945E-01
         13   -1    0    0    0    0  0.00000000000E+00  0.00000000000E+00  0.10000000000E+04  0.10000000000E+04  0.00000000000E+00 0. -1.
          2   -1    0    0  501    0 -0.00000000000E+00 -0.00000000000E+00 -0.10473448696E+03  0.10473448696E+03  0.00000000000E+00 0. -1.
    9000006    2    1    2  501    0  0.00000000000E+00  0.00000000000E+00  0.89526551304E+03  0.11047344870E+04  0.64725416016E+03 0.  0.
         13    1    3    3    0    0 -0.30046852915E+03  0.22290860130E+02  0.24599692811E+03  0.38896363338E+03  0.00000000000E+00 0. -1.
          4    1    3    3  501    0  0.30046852915E+03 -0.22290860130E+02  0.64926858493E+03  0.71577085358E+03  0.00000000000E+00 0. -1.
<mgrwt>
<rscale>  0 0.64725416E+03</rscale>
<asrwt>0</asrwt>
<pdfrwt beam="1">0</pdfrwt>
<pdfrwt beam="2">  1        2 0.38085348E+00 0.64725416E+03</pdfrwt>
<totfact> 0.46938685E+00</totfact>
</mgrwt>
</event>
<event>
 5    1  0.2354746E-004  0.6639078E+03  0.7818608E-02  0.9781027E-01
         13   -1    0    0    0    0  0.00000000000E+00  0.00000000000E+00  0.10000000000E+04  0.10000000000E+04  0.00000000000E+00 0. -1.
          2   -1    0    0  501    0 -0.00000000000E+00 -0.00000000000E+00 -0.11019339321E+03  0.11019339321E+03  0.00000000000E+00 0. -1.
    9000006    2    1    2  501    0  0.00000000000E+00  0.00000000000E+00  0.88980660679E+03  0.11101933932E+04  0.66390780449E+03 0.  0.
         13    1    3    3    0    0  0.94616189339E+02 -0.78240005338E+02 -0.70831019599E+02  0.14174186064E+03  0.00000000000E+00 0. -1.
          2    1    3    3  501    0 -0.94616189339E+02  0.78240005338E+02  0.96063762638E+03  0.96845153257E+03  0.00000000000E+00 0. -1.
<mgrwt>
<rscale>  0 0.66390780E+03</rscale>
<asrwt>0</asrwt>
<pdfrwt beam="1">0</pdfrwt>
<pdfrwt beam="2">  1        2 0.40070409E+00 0.66390780E+03</pdfrwt>
<totfact> 0.39543405E+00</totfact>
</mgrwt>
</event>
<event>
 5    1  0.2354746E-004  0.6131078E+03  0.7818608E-02  0.9878579E-01
         13   -1    0    0    0    0  0.00000000000E+00  0.00000000000E+00  0.10000000000E+04  0.10000000000E+04  0.00000000000E+00 0. -1.
          2   -1    0    0  501    0 -0.00000000000E+00 -0.00000000000E+00 -0.93975281347E+02  0.93975281347E+02  0.00000000000E+00 0. -1.
    9000006    2    1    2  501    0  0.00000000000E+00  0.00000000000E+00  0.90602471865E+03  0.10939752813E+04  0.61310776001E+03 0.  0.
         13    1    3    3    0    0  0.30254584899E+03  0.46845658015E+02  0.48104223795E+03  0.57020184243E+03  0.00000000000E+00 0. -1.
          4    1    3    3  501    0 -0.30254584899E+03 -0.46845658015E+02  0.42498248070E+03  0.52377343892E+03  0.00000000000E+00 0. -1.
<mgrwt>
<rscale>  0 0.61310776E+03</rscale>
<asrwt>0</asrwt>
<pdfrwt beam="1">0</pdfrwt>
<pdfrwt beam="2">  1        2 0.34172902E+00 0.61310776E+03</pdfrwt>
<totfact> 0.65337282E+00</totfact>
</mgrwt>
</event>
<event>
 5    1  0.2354746E-004  0.6536319E+03  0.7818608E-02  0.9799988E-01
         13   -1    0    0    0    0  0.00000000000E+00  0.00000000000E+00  0.10000000000E+04  0.10000000000E+04  0.00000000000E+00 0. -1.
          2   -1    0    0  501    0 -0.00000000000E+00 -0.00000000000E+00 -0.10680866406E+03  0.10680866406E+03  0.00000000000E+00 0. -1.
    9000006    2    1    2  501    0  0.00000000000E+00  0.00000000000E+00  0.89319133594E+03  0.11068086641E+04  0.65363189660E+03 0.  0.
         13    1    3    3    0    0  0.12973194690E+03  0.29519338890E+02 -0.58873845958E+02  0.14549192126E+03  0.00000000000E+00 0. -1.
          4    1    3    3  501    0 -0.12973194690E+03 -0.29519338890E+02  0.95206518190E+03  0.96131674280E+03  0.00000000000E+00 0. -1.
<mgrwt>
<rscale>  0 0.65363190E+03</rscale>
<asrwt>0</asrwt>
<pdfrwt beam="1">0</pdfrwt>
<pdfrwt beam="2">  1        2 0.38839596E+00 0.65363190E+03</pdfrwt>
<totfact> 0.43993017E+00</totfact>
</mgrwt>
</event>
<event>
 5    1  0.2354746E-004  0.5379152E+03  0.7818608E-02  0.1004330E+00
         13   -1    0    0    0    0  0.00000000000E+00  0.00000000000E+00  0.10000000000E+04  0.10000000000E+04  0.00000000000E+00 0. -1.
          2   -1    0    0  501    0 -0.00000000000E+00 -0.00000000000E+00 -0.72338189142E+02  0.72338189142E+02  0.00000000000E+00 0. -1.
    9000006    2    1    2  501    0  0.00000000000E+00  0.00000000000E+00  0.92766181086E+03  0.10723381891E+04  0.53791519459E+03 0.  0.
         13    1    3    3    0    0 -0.11124699052E+03  0.15117503491E+03  0.84785113685E+03  0.86837856626E+03  0.00000000000E+00 0. -1.
          2    1    3    3  501    0  0.11124699052E+03 -0.15117503491E+03  0.79810674010E+02  0.20395962289E+03  0.00000000000E+00 0. -1.
<mgrwt>
<rscale>  0 0.53791519E+03</rscale>
<asrwt>0</asrwt>
<pdfrwt beam="1">0</pdfrwt>
<pdfrwt beam="2">  1        2 0.26304852E+00 0.53791519E+03</pdfrwt>
<totfact> 0.12514994E+01</totfact>
</mgrwt>
</event>
<event>
 5    1  0.2354746E-004  0.6506728E+03  0.7818608E-02  0.9805518E-01
         13   -1    0    0    0    0  0.00000000000E+00  0.00000000000E+00  0.10000000000E+04  0.10000000000E+04  0.00000000000E+00 0. -1.
          2   -1    0    0  501    0 -0.00000000000E+00 -0.00000000000E+00 -0.10584377312E+03  0.10584377312E+03  0.00000000000E+00 0. -1.
    9000006    2    1    2  501    0  0.00000000000E+00  0.00000000000E+00  0.89415622688E+03  0.11058437731E+04  0.65067279987E+03 0.  0.
         13    1    3    3    0    0  0.25994319327E+03  0.19076458740E+03  0.37334511673E+03  0.49330332222E+03  0.00000000000E+00 0. -1.
          4    1    3    3  501    0 -0.25994319327E+03 -0.19076458740E+03  0.52081111015E+03  0.61254045090E+03  0.00000000000E+00 0. -1.
<mgrwt>
<rscale>  0 0.65067280E+03</rscale>
<asrwt>0</asrwt>
<pdfrwt beam="1">0</pdfrwt>
<pdfrwt beam="2">  1        2 0.38488726E+00 0.65067280E+03</pdfrwt>
<totfact> 0.45341795E+00</totfact>
</mgrwt>
</event>
<event>
 5    1  0.2354746E-004  0.6512624E+03  0.7818608E-02  0.9804413E-01
         13   -1    0    0    0    0  0.00000000000E+00  0.00000000000E+00  0.10000000000E+04  0.10000000000E+04  0.00000000000E+00 0. -1.
          2   -1    0    0  501    0 -0.00000000000E+00 -0.00000000000E+00 -0.10603569144E+03  0.10603569144E+03  0.00000000000E+00 0. -1.
    9000006    2    1    2  501    0  0.00000000000E+00  0.00000000000E+00  0.89396430856E+03  0.11060356914E+04  0.65126244002E+03 0.  0.
         13    1    3    3    0    0  0.77447956401E+01 -0.31053908621E+03  0.28109441833E+03  0.41893743917E+03  0.00000000000E+00 0. -1.
          4    1    3    3  501    0 -0.77447956401E+01  0.31053908621E+03  0.61286989023E+03  0.68709825227E+03  0.00000000000E+00 0. -1.
<mgrwt>
<rscale>  0 0.65126244E+03</rscale>
<asrwt>0</asrwt>
<pdfrwt beam="1">0</pdfrwt>
<pdfrwt beam="2">  1        2 0.38558515E+00 0.65126244E+03</pdfrwt>
<totfact> 0.45070574E+00</totfact>
</mgrwt>
</event>
<event>
 5    1  0.2354746E-004  0.6519552E+03  0.7818608E-02  0.9803117E-01
         13   -1    0    0    0    0  0.00000000000E+00  0.00000000000E+00  0.10000000000E+04  0.10000000000E+04  0.00000000000E+00 0. -1.
          2   -1    0    0  501    0 -0.00000000000E+00 -0.00000000000E+00 -0.10626140518E+03  0.10626140518E+03  0.00000000000E+00 0. -1.
    9000006    2    1    2  501    0  0.00000000000E+00  0.00000000000E+00  0.89373859482E+03  0.11062614052E+04  0.65195522907E+03 0.  0.
         13    1    3    3    0    0  0.23406568752E+02  0.45003102950E+02 -0.99523263994E+02  0.11170508857E+03  0.00000000000E+00 0. -1.
          2    1    3    3  501    0 -0.23406568752E+02 -0.45003102950E+02  0.99326185881E+03  0.99455631661E+03  0.00000000000E+00 0. -1.
<mgrwt>
<rscale>  0 0.65195523E+03</rscale>
<asrwt>0</asrwt>
<pdfrwt beam="1">0</pdfrwt>
<pdfrwt beam="2">  1        2 0.38640592E+00 0.65195523E+03</pdfrwt>
<totfact> 0.44753475E+00</totfact>
</mgrwt>
</event>
<event>
 5    1  0.2354746E-004  0.6531627E+03  0.7818608E-02  0.9800863E-01
         13   -1    0    0    0    0  0.00000000000E+00  0.00000000000E+00  0.10000000000E+04  0.10000000000E+04  0.00000000000E+00 0. -1.
          2   -1    0    0  501    0 -0.00000000000E+00 -0.00000000000E+00 -0.10665536457E+03  0.10665536457E+03  0.00000000000E+00 0. -1.
    9000006    2    1    2  501    0  0.00000000000E+00  0.00000000000E+00  0.89334463543E+03  0.11066553646E+04  0.65316265837E+03 0.  0.
         13    1    3    3    0    0 -0.27671006925E+03  0.49956269196E+02  0.72810654713E+03  0.78051472454E+03  0.00000000000E+00 0. -1.
          2    1    3    3  501    0  0.27671006925E+03 -0.49956269196E+02  0.16523808830E+03  0.32614064003E+03  0.00000000000E+00 0. -1.
<mgrwt>
<rscale>  0 0.65316266E+03</rscale>
<asrwt>0</asrwt>
<pdfrwt beam="1">0</pdfrwt>
<pdfrwt beam="2">  1        2 0.38783851E+00 0.65316266E+03</pdfrwt>
<totfact> 0.44204850E+00</totfact>
</mgrwt>
</event>
<event>
 5    1  0.2354746E-004  0.6487088E+03  0.7818608E-02  0.9809205E-01
         13   -1    0    0    0    0  0.00000000000E+00  0.00000000000E+00  0.10000000000E+04  0.10000000000E+04  0.00000000000E+00 0. -1.
          2   -1    0    0  501    0 -0.00000000000E+00 -0.00000000000E+00 -0.10520578990E+03  0.10520578990E+03  0.00000000000E+00 0. -1.
    9000006    2    1    2  501    0  0.00000000000E+00  0.00000000000E+00  0.89479421010E+03  0.11052057899E+04  0.64870884040E+03 0.  0.
         13    1    3    3    0    0 -0.21779554137E+02  0.21941629029E+03  0.42117034226E+02  0.22448096132E+03  0.00000000000E+00 0. -1.
          4    1    3    3  501    0  0.21779554137E+02 -0.21941629029E+03  0.85267717587E+03  0.88072482858E+03  0.00000000000E+00 0. -1.
<mgrwt>
<rscale>  0 0.64870884E+03</rscale>
<asrwt>0</asrwt>
<pdfrwt beam="1">0</pdfrwt>
<pdfrwt beam="2">  1        2 0.38256732E+00 0.64870884E+03</pdfrwt>
<totfact> 0.46254076E+00</totfact>
</mgrwt>
</event>
<event>
 5    1  0.2354746E-004  0.6411399E+03  0.7818608E-02  0.9823548E-01
         13   -1    0    0    0    0  0.00000000000E+00  0.00000000000E+00  0.10000000000E+04  0.10000000000E+04  0.00000000000E+00 0. -1.
          2   -1    0    0  501    0 -0.00000000000E+00 -0.00000000000E+00 -0.10276509744E+03  0.10276509744E+03  0.00000000000E+00 0. -1.
    9000006    2    1    2  501    0  0.00000000000E+00  0.00000000000E+00  0.89723490256E+03  0.11027650974E+04  0.64113991433E+03 0.  0.
         13    1    3    3    0    0  0.16232740306E+03 -0.23863658479E+03  0.20863184180E+03  0.35612476858E+03  0.00000000000E+00 0. -1.
          2    1    3    3  501    0 -0.16232740306E+03  0.23863658479E+03  0.68860306076E+03  0.74664032886E+03  0.00000000000E+00 0. -1.
<mgrwt>
<rscale>  0 0.64113991E+03</rscale>
<asrwt>0</asrwt>
<pdfrwt beam="1">0</pdfrwt>
<pdfrwt beam="2">  1        2 0.37369205E+00 0.64113991E+03</pdfrwt>
<totfact> 0.49900466E+00</totfact>
</mgrwt>
</event>
<event>
 5    1  0.2354746E-004  0.6233476E+03  0.7818608E-02  0.9858117E-01
         13   -1    0    0    0    0  0.00000000000E+00  0.00000000000E+00  0.10000000000E+04  0.10000000000E+04  0.00000000000E+00 0. -1.
          2   -1    0    0  501    0 -0.00000000000E+00 -0.00000000000E+00 -0.97140549559E+02  0.97140549559E+02  0.00000000000E+00 0. -1.
    9000006    2    1    2  501    0  0.00000000000E+00  0.00000000000E+00  0.90285945044E+03  0.10971405496E+04  0.62334757418E+03 0.  0.
         13    1    3    3    0    0  0.10602195754E+03 -0.18741179087E+03  0.84804030227E+03  0.87494924945E+03  0.00000000000E+00 0. -1.
          4    1    3    3  501    0 -0.10602195754E+03  0.18741179087E+03  0.54819148170E+02  0.22219130011E+03  0.00000000000E+00 0. -1.
<mgrwt>
<rscale>  0 0.62334757E+03</rscale>
<asrwt>0</asrwt>
<pdfrwt beam="1">0</pdfrwt>
<pdfrwt beam="2">  1        2 0.35323911E+00 0.62334757E+03</pdfrwt>
<totfact> 0.59329731E+00</totfact>
</mgrwt>
</event>
<event>
 5    1  0.2354746E-004  0.6419317E+03  0.7818608E-02  0.9822038E-01
         13   -1    0    0    0    0  0.00000000000E+00  0.00000000000E+00  0.10000000000E+04  0.10000000000E+04  0.00000000000E+00 0. -1.
          2   -1    0    0  501    0 -0.00000000000E+00 -0.00000000000E+00 -0.10301909101E+03  0.10301909101E+03  0.00000000000E+00 0. -1.
    9000006    2    1    2  501    0  0.00000000000E+00  0.00000000000E+00  0.89698090899E+03  0.11030190910E+04  0.64193174406E+03 0.  0.
         13    1    3    3    0    0  0.25536858756E+03  0.14122493422E+03  0.21884753413E+03  0.36476271843E+03  0.00000000000E+00 0. -1.
          2    1    3    3  501    0 -0.25536858756E+03 -0.14122493422E+03  0.67813337486E+03  0.73825637258E+03  0.00000000000E+00 0. -1.
<mgrwt>
<rscale>  0 0.64193174E+03</rscale>
<asrwt>0</asrwt>
<pdfrwt beam="1">0</pdfrwt>
<pdfrwt beam="2">  1        2 0.37461567E+00 0.64193174E+03</pdfrwt>
<totfact> 0.49509111E+00</totfact>
</mgrwt>
</event>
<event>
 5    1  0.2354746E-004  0.6513104E+03  0.7818608E-02  0.9804323E-01
         13   -1    0    0    0    0  0.00000000000E+00  0.00000000000E+00  0.10000000000E+04  0.10000000000E+04  0.00000000000E+00 0. -1.
          2   -1    0    0  501    0 -0.00000000000E+00 -0.00000000000E+00 -0.10605132254E+03  0.10605132254E+03  0.00000000000E+00 0. -1.
    9000006    2    1    2  501    0  0.00000000000E+00  0.00000000000E+00  0.89394867746E+03  0.11060513225E+04  0.65131044069E+03 0.  0.
         13    1    3    3    0    0 -0.19045407000E+03  0.21858135104E+02  0.89402458380E+03  0.91434702782E+03  0.00000000000E+00 0. -1.
          4    1    3    3  501    0  0.19045407000E+03 -0.21858135104E+02 -0.75906337321E-01  0.19170429472E+03  0.00000000000E+00 0. -1.
<mgrwt>
<rscale>  0 0.65131044E+03</rscale>
<asrwt>0</asrwt>
<pdfrwt beam="1">0</pdfrwt>
<pdfrwt beam="2">  1        2 0.38564199E+00 0.65131044E+03</pdfrwt>
<totfact> 0.45048549E+00</totfact>
</mgrwt>
</event>
<event>
 5    1  0.2354746E-004  0.7088319E+03  0.7818608E-02  0.9702247E-01
         13   -1    0    0    0    0  0.00000000000E+00  0.00000000000E+00  0.10000000000E+04  0.10000000000E+04  0.00000000000E+00 0. -1.
          2   -1    0    0  501    0 -0.00000000000E+00 -0.00000000000E+00 -0.12561067312E+03  0.12561067312E+03  0.00000000000E+00 0. -1.
    9000006    2    1    2  501    0  0.00000000000E+00  0.00000000000E+00  0.87438932688E+03  0.11256106731E+04  0.70883192118E+03 0.  0.
         13    1    3    3    0    0  0.23175880523E+03 -0.23415561493E+03  0.22972357228E+03  0.40163903628E+03  0.00000000000E+00 0. -1.
          2    1    3    3  501    0 -0.23175880523E+03  0.23415561493E+03  0.64466575460E+03  0.72397163684E+03  0.00000000000E+00 0. -1.
<mgrwt>
<rscale>  0 0.70883192E+03</rscale>
<asrwt>0</asrwt>
<pdfrwt beam="1">0</pdfrwt>
<pdfrwt beam="2">  1        2 0.45676705E+00 0.70883192E+03</pdfrwt>
<totfact> 0.23933220E+00</totfact>
</mgrwt>
</event>
<event>
 5    1  0.2354746E-004  0.6519665E+03  0.7818608E-02  0.9803096E-01
         13   -1    0    0    0    0  0.00000000000E+00  0.00000000000E+00  0.10000000000E+04  0.10000000000E+04  0.00000000000E+00 0. -1.
          2   -1    0    0  501    0 -0.00000000000E+00 -0.00000000000E+00 -0.10626508130E+03  0.10626508130E+03  0.00000000000E+00 0. -1.
    9000006    2    1    2  501    0  0.00000000000E+00  0.00000000000E+00  0.89373491870E+03  0.11062650813E+04  0.65196650619E+03 0.  0.
         13    1    3    3    0    0 -0.21689063079E+03 -0.17535152734E+03  0.16053626561E+03  0.32180987623E+03  0.00000000000E+00 0. -1.
          2    1    3    3  501    0  0.21689063079E+03  0.17535152734E+03  0.73319865309E+03  0.78445520507E+03  0.00000000000E+00 0. -1.
<mgrwt>
<rscale>  0 0.65196651E+03</rscale>
<asrwt>0</asrwt>
<pdfrwt beam="1">0</pdfrwt>
<pdfrwt beam="2">  1        2 0.38641929E+00 0.65196651E+03</pdfrwt>
<totfact> 0.44748327E+00</totfact>
</mgrwt>
</event>
<event>
 5    1  0.2354746E-004  0.6501277E+03  0.7818608E-02  0.9806539E-01
         13   -1    0    0    0    0  0.00000000000E+00  0.00000000000E+00  0.10000000000E+04  0.10000000000E+04  0.00000000000E+00 0. -1.
          2   -1    0    0  501    0 -0.00000000000E+00 -0.00000000000E+00 -0.10566652260E+03  0.10566652260E+03  0.00000000000E+00 0. -1.
    9000006    2    1    2  501    0  0.00000000000E+00  0.00000000000E+00  0.89433347740E+03  0.11056665226E+04  0.65012774930E+03 0.  0.
         13    1    3    3    0    0 -0.14254634047E+03 -0.39704428492E+02 -0.45066941661E+02  0.15468332183E+03  0.00000000000E+00 0. -1.
          4    1    3    3  501    0  0.14254634047E+03  0.39704428492E+02  0.93940041906E+03  0.95098320077E+03  0.00000000000E+00 0. -1.
<mgrwt>
<rscale>  0 0.65012775E+03</rscale>
<asrwt>0</asrwt>
<pdfrwt beam="1">0</pdfrwt>
<pdfrwt beam="2">  1        2 0.38424271E+00 0.65012775E+03</pdfrwt>
<totfact> 0.45593601E+00</totfact>
</mgrwt>
</event>
<event>
 5    1  0.2354746E-004  0.6506046E+03  0.7818608E-02  0.9805645E-01
         13   -1    0    0    0    0  0.00000000000E+00  0.00000000000E+00  0.10000000000E+04  0.10000000000E+04  0.00000000000E+00 0. -1.
          2   -1    0    0  501    0 -0.00000000000E+00 -0.00000000000E+00 -0.10582157837E+03  0.10582157837E+03  0.00000000000E+00 0. -1.
    9000006    2    1    2  501    0  0.00000000000E+00  0.00000000000E+00  0.89417842163E+03  0.11058215784E+04  0.65060457537E+03 0.  0.
         13    1    3    3    0    0  0.19881837252E+03  0.25744946637E+03  0.45312377579E+03  0.55779039897E+03  0.00000000000E+00 0. -1.
          4    1    3    3  501    0 -0.19881837252E+03 -0.25744946637E+03  0.44105464584E+03  0.54803117941E+03  0.00000000000E+00 0. -1.
<mgrwt>
<rscale>  0 0.65060458E+03</rscale>
<asrwt>0</asrwt>
<pdfrwt beam="1">0</pdfrwt>
<pdfrwt beam="2">  1        2 0.38480655E+00 0.65060458E+03</pdfrwt>
<totfact> 0.45373256E+00</totfact>
</mgrwt>
</event>
<event>
 5    1  0.2354746E-004  0.6482908E+03  0.7818608E-02  0.9809992E-01
         13   -1    0    0    0    0  0.00000000000E+00  0.00000000000E+00  0.10000000000E+04  0.10000000000E+04  0.00000000000E+00 0. -1.
          2   -1    0    0  501    0 -0.00000000000E+00 -0.00000000000E+00 -0.10507023805E+03  0.10507023805E+03  0.00000000000E+00 0. -1.
    9000006    2    1    2  501    0  0.00000000000E+00  0.00000000000E+00  0.89492976195E+03  0.11050702381E+04  0.64829079293E+03 0.  0.
         13    1    3    3    0    0 -0.22703201457E+03 -0.15287898831E+03  0.74346893545E+03  0.79225095688E+03  0.00000000000E+00 0. -1.
          4    1    3    3  501    0  0.22703201457E+03  0.15287898831E+03  0.15146082650E+03  0.31281928117E+03  0.00000000000E+00 0. -1.
<mgrwt>
<rscale>  0 0.64829079E+03</rscale>
<asrwt>0</asrwt>
<pdfrwt beam="1">0</pdfrwt>
<pdfrwt beam="2">  1        2 0.38207440E+00 0.64829079E+03</pdfrwt>
<totfact> 0.46450041E+00</totfact>
</mgrwt>
</event>
<event>
 5    1  0.2354746E-004  0.6550541E+03  0.7818608E-02  0.9797341E-01
         13   -1    0    0    0    0  0.00000000000E+00  0.00000000000E+00  0.10000000000E+04  0.10000000000E+04  0.00000000000E+00 0. -1.
          2   -1    0    0  501    0 -0.00000000000E+00 -0.00000000000E+00 -0.10727397194E+03  0.10727397194E+03  0.00000000000E+00 0. -1.
    9000006    2    1    2  501    0  0.00000000000E+00  0.00000000000E+00  0.89272602806E+03  0.11072739719E+04  0.65505411055E+03 0.  0.
         13    1    3    3    0    0  0.18629652188E+03  0.26299361895E+03  0.34777119635E+03  0.47414854496E+03  0.00000000000E+00 0. -1.
          2    1    3    3  501    0 -0.18629652188E+03 -0.26299361895E+03  0.54495483172E+03  0.63312542698E+03  0.00000000000E+00 0. -1.
<mgrwt>
<rscale>  0 0.65505411E+03</rscale>
<asrwt>0</asrwt>
<pdfrwt beam="1">0</pdfrwt>
<pdfrwt beam="2">  1        2 0.39008799E+00 0.65505411E+03</pdfrwt>
<totfact> 0.43355654E+00</totfact>
</mgrwt>
</event>
<event>
 5    1  0.2354746E-004  0.6596330E+03  0.7818608E-02  0.9788870E-01
         13   -1    0    0    0    0  0.00000000000E+00  0.00000000000E+00  0.10000000000E+04  0.10000000000E+04  0.00000000000E+00 0. -1.
          2   -1    0    0  501    0 -0.00000000000E+00 -0.00000000000E+00 -0.10877892618E+03  0.10877892618E+03  0.00000000000E+00 0. -1.
    9000006    2    1    2  501    0  0.00000000000E+00  0.00000000000E+00  0.89122107382E+03  0.11087789262E+04  0.65963300761E+03 0.  0.
         13    1    3    3    0    0 -0.32235483980E+03 -0.53652971450E+02  0.52055018964E+03  0.61462491328E+03  0.00000000000E+00 0. -1.
          4    1    3    3  501    0  0.32235483980E+03  0.53652971450E+02  0.37067088418E+03  0.49415401291E+03  0.00000000000E+00 0. -1.
<mgrwt>
<rscale>  0 0.65963301E+03</rscale>
<asrwt>0</asrwt>
<pdfrwt beam="1">0</pdfrwt>
<pdfrwt beam="2">  1        2 0.39556057E+00 0.65963301E+03</pdfrwt>
<totfact> 0.41350949E+00</totfact>
</mgrwt>
</event>
<event>
 5    1  0.2354746E-004  0.6486338E+03  0.7818608E-02  0.9809346E-01
         13   -1    0    0    0    0  0.00000000000E+00  0.00000000000E+00  0.10000000000E+04  0.10000000000E+04  0.00000000000E+00 0. -1.
          2   -1    0    0  501    0 -0.00000000000E+00 -0.00000000000E+00 -0.10518146035E+03  0.10518146035E+03  0.00000000000E+00 0. -1.
    9000006    2    1    2  501    0  0.00000000000E+00  0.00000000000E+00  0.89481853965E+03  0.11051814604E+04  0.64863382691E+03 0.  0.
         13    1    3    3    0    0 -0.70819408780E+02 -0.21485351660E+03  0.84336543967E+03  0.87317964193E+03  0.00000000000E+00 0. -1.
          4    1    3    3  501    0  0.70819408780E+02  0.21485351660E+03  0.51453099980E+02  0.23200181842E+03  0.00000000000E+00 0. -1.
<mgrwt>
<rscale>  0 0.64863383E+03</rscale>
<asrwt>0</asrwt>
<pdfrwt beam="1">0</pdfrwt>
<pdfrwt beam="2">  1        2 0.38247884E+00 0.64863383E+03</pdfrwt>
<totfact> 0.46289194E+00</totfact>
</mgrwt>
</event>
<event>
 5    1  0.2354746E-004  0.6479533E+03  0.7818608E-02  0.9810627E-01
         13   -1    0    0    0    0  0.00000000000E+00  0.00000000000E+00  0.10000000000E+04  0.10000000000E+04  0.00000000000E+00 0. -1.
          2   -1    0    0  501    0 -0.00000000000E+00 -0.00000000000E+00 -0.10496087128E+03  0.10496087128E+03  0.00000000000E+00 0. -1.
    9000006    2    1    2  501    0  0.00000000000E+00  0.00000000000E+00  0.89503912872E+03  0.11049608713E+04  0.64795330474E+03 0.  0.
         13    1    3    3    0    0 -0.94536481538E+02  0.26669002555E+03  0.71661368991E+03  0.77045174841E+03  0.00000000000E+00 0. -1.
          4    1    3    3  501    0  0.94536481538E+02 -0.26669002555E+03  0.17842543881E+03  0.33450912287E+03  0.00000000000E+00 0. -1.
<mgrwt>
<rscale>  0 0.64795330E+03</rscale>
<asrwt>0</asrwt>
<pdfrwt beam="1">0</pdfrwt>
<pdfrwt beam="2">  1        2 0.38167670E+00 0.64795330E+03</pdfrwt>
<totfact> 0.46608701E+00</totfact>
</mgrwt>
</event>
<event>
 5    1  0.2354746E-004  0.6545840E+03  0.7818608E-02  0.9798216E-01
         13   -1    0    0    0    0  0.00000000000E+00  0.00000000000E+00  0.10000000000E+04  0.10000000000E+04  0.00000000000E+00 0. -1.
          2   -1    0    0  501    0 -0.00000000000E+00 -0.00000000000E+00 -0.10712003711E+03  0.10712003711E+03  0.00000000000E+00 0. -1.
    9000006    2    1    2  501    0  0.00000000000E+00  0.00000000000E+00  0.89287996289E+03  0.11071200371E+04  0.65458395063E+03 0.  0.
         13    1    3    3    0    0 -0.25758167378E+03  0.88849496860E+02  0.13976478339E+03  0.30622989148E+03  0.00000000000E+00 0. -1.
          4    1    3    3  501    0  0.25758167378E+03 -0.88849496860E+02  0.75311517950E+03  0.80089014563E+03  0.00000000000E+00 0. -1.
<mgrwt>
<rscale>  0 0.65458395E+03</rscale>
<asrwt>0</asrwt>
<pdfrwt beam="1">0</pdfrwt>
<pdfrwt beam="2">  1        2 0.38952823E+00 0.65458395E+03</pdfrwt>
<totfact> 0.43565578E+00</totfact>
</mgrwt>
</event>
<event>
 5    1  0.2354746E-004  0.6547419E+03  0.7818608E-02  0.9797922E-01
         13   -1    0    0    0    0  0.00000000000E+00  0.00000000000E+00  0.10000000000E+04  0.10000000000E+04  0.00000000000E+00 0. -1.
          2   -1    0    0  501    0 -0.00000000000E+00 -0.00000000000E+00 -0.10717172383E+03  0.10717172383E+03  0.00000000000E+00 0. -1.
    9000006    2    1    2  501    0  0.00000000000E+00  0.00000000000E+00  0.89282827617E+03  0.11071717238E+04  0.65474185394E+03 0.  0.
         13    1    3    3    0    0  0.22363371474E+03  0.78901397695E+02  0.64777676407E+02  0.24583249640E+03  0.00000000000E+00 0. -1.
          2    1    3    3  501    0 -0.22363371474E+03 -0.78901397695E+02  0.82805059977E+03  0.86133922742E+03  0.00000000000E+00 0. -1.
<mgrwt>
<rscale>  0 0.65474185E+03</rscale>
<asrwt>0</asrwt>
<pdfrwt beam="1">0</pdfrwt>
<pdfrwt beam="2">  1        2 0.38971618E+00 0.65474185E+03</pdfrwt>
<totfact> 0.43494990E+00</totfact>
</mgrwt>
</event>
<event>
 5    1  0.2354746E-004  0.6617410E+03  0.7818608E-02  0.9784994E-01
         13   -1    0    0    0    0  0.00000000000E+00  0.00000000000E+00  0.10000000000E+04  0.10000000000E+04  0.00000000000E+00 0. -1.
          2   -1    0    0  501    0 -0.00000000000E+00 -0.00000000000E+00 -0.10947527351E+03  0.10947527351E+03  0.00000000000E+00 0. -1.
    9000006    2    1    2  501    0  0.00000000000E+00  0.00000000000E+00  0.89052472649E+03  0.11094752735E+04  0.66174095690E+03 0.  0.
         13    1    3    3    0    0 -0.39640718228E+02 -0.78371618486E+02  0.98009998918E+03  0.98402717743E+03  0.00000000000E+00 0. -1.
          2    1    3    3  501    0  0.39640718228E+02  0.78371618486E+02 -0.89575262687E+02  0.12544809608E+03  0.00000000000E+00 0. -1.
<mgrwt>
<rscale>  0 0.66174096E+03</rscale>
<asrwt>0</asrwt>
<pdfrwt beam="1">0</pdfrwt>
<pdfrwt beam="2">  1        2 0.39809274E+00 0.66174096E+03</pdfrwt>
<totfact> 0.40452011E+00</totfact>
</mgrwt>
</event>
<event>
 5    1  0.2354746E-004  0.6567586E+03  0.7818608E-02  0.9794179E-01
         13   -1    0    0    0    0  0.00000000000E+00  0.00000000000E+00  0.10000000000E+04  0.10000000000E+04  0.00000000000E+00 0. -1.
          2   -1    0    0  501    0 -0.00000000000E+00 -0.00000000000E+00 -0.10783297649E+03  0.10783297649E+03  0.00000000000E+00 0. -1.
    9000006    2    1    2  501    0  0.00000000000E+00  0.00000000000E+00  0.89216702351E+03  0.11078329765E+04  0.65675863601E+03 0.  0.
         13    1    3    3    0    0  0.26614797700E+03  0.77643515834E+02  0.14923347800E+03  0.31485535118E+03  0.00000000000E+00 0. -1.
          4    1    3    3  501    0 -0.26614797700E+03 -0.77643515834E+02  0.74293354550E+03  0.79297762531E+03  0.00000000000E+00 0. -1.
<mgrwt>
<rscale>  0 0.65675864E+03</rscale>
<asrwt>0</asrwt>
<pdfrwt beam="1">0</pdfrwt>
<pdfrwt beam="2">  1        2 0.39212074E+00 0.65675864E+03</pdfrwt>
<totfact> 0.42600988E+00</totfact>
</mgrwt>
</event>
<event>
 5    1  0.2354746E-004  0.6287674E+03  0.7818608E-02  0.9847457E-01
         13   -1    0    0    0    0  0.00000000000E+00  0.00000000000E+00  0.10000000000E+04  0.10000000000E+04  0.00000000000E+00 0. -1.
          2   -1    0    0  501    0 -0.00000000000E+00 -0.00000000000E+00 -0.98837101429E+02  0.98837101429E+02  0.00000000000E+00 0. -1.
    9000006    2    1    2  501    0  0.00000000000E+00  0.00000000000E+00  0.90116289857E+03  0.10988371014E+04  0.62876737011E+03 0.  0.
         13    1    3    3    0    0  0.21611779469E+03  0.46805517179E+02  0.84112113219E+03  0.86970248743E+03  0.00000000000E+00 0. -1.
          2    1    3    3  501    0 -0.21611779469E+03 -0.46805517179E+02  0.60041766378E+02  0.22913461400E+03  0.00000000000E+00 0. -1.
<mgrwt>
<rscale>  0 0.62876737E+03</rscale>
<asrwt>0</asrwt>
<pdfrwt beam="1">0</pdfrwt>
<pdfrwt beam="2">  1        2 0.35940840E+00 0.62876737E+03</pdfrwt>
<totfact> 0.56325448E+00</totfact>
</mgrwt>
</event>
<event>
 5    1  0.2354746E-004  0.6491244E+03  0.7818608E-02  0.9808424E-01
         13   -1    0    0    0    0  0.00000000000E+00  0.00000000000E+00  0.10000000000E+04  0.10000000000E+04  0.00000000000E+00 0. -1.
          2   -1    0    0  501    0 -0.00000000000E+00 -0.00000000000E+00 -0.10534062768E+03  0.10534062768E+03  0.00000000000E+00 0. -1.
    9000006    2    1    2  501    0  0.00000000000E+00  0.00000000000E+00  0.89465937232E+03  0.11053406277E+04  0.64912441853E+03 0.  0.
         13    1    3    3    0    0  0.18247823002E+03  0.25227946185E+03  0.29128804355E+03  0.42637067866E+03  0.00000000000E+00 0. -1.
          4    1    3    3  501    0 -0.18247823002E+03 -0.25227946185E+03  0.60337132877E+03  0.67896994903E+03  0.00000000000E+00 0. -1.
<mgrwt>
<rscale>  0 0.64912442E+03</rscale>
<asrwt>0</asrwt>
<pdfrwt beam="1">0</pdfrwt>
<pdfrwt beam="2">  1        2 0.38305764E+00 0.64912442E+03</pdfrwt>
<totfact> 0.46059889E+00</totfact>
</mgrwt>
</event>
<event>
 5    1  0.2354746E-004  0.6447126E+03  0.7818608E-02  0.9816751E-01
         13   -1    0    0    0    0  0.00000000000E+00  0.00000000000E+00  0.10000000000E+04  0.10000000000E+04  0.00000000000E+00 0. -1.
          2   -1    0    0  501    0 -0.00000000000E+00 -0.00000000000E+00 -0.10391359340E+03  0.10391359340E+03  0.00000000000E+00 0. -1.
    9000006    2    1    2  501    0  0.00000000000E+00  0.00000000000E+00  0.89608640660E+03  0.11039135934E+04  0.64471262871E+03 0.  0.
         13    1    3    3    0    0  0.11826511766E+03  0.27058068558E+03  0.22668443310E+03  0.37227191363E+03  0.00000000000E+00 0. -1.
          4    1    3    3  501    0 -0.11826511766E+03 -0.27058068558E+03  0.66940197350E+03  0.73164167978E+03  0.00000000000E+00 0. -1.
<mgrwt>
<rscale>  0 0.64471263E+03</rscale>
<asrwt>0</asrwt>
<pdfrwt beam="1">0</pdfrwt>
<pdfrwt beam="2">  1        2 0.37786841E+00 0.64471263E+03</pdfrwt>
<totfact> 0.48153151E+00</totfact>
</mgrwt>
</event>
<event>
 5    1  0.2354746E-004  0.6593971E+03  0.7818608E-02  0.9789304E-01
         13   -1    0    0    0    0  0.00000000000E+00  0.00000000000E+00  0.10000000000E+04  0.10000000000E+04  0.00000000000E+00 0. -1.
          2   -1    0    0  501    0 -0.00000000000E+00 -0.00000000000E+00 -0.10870112105E+03  0.10870112105E+03  0.00000000000E+00 0. -1.
    9000006    2    1    2  501    0  0.00000000000E+00  0.00000000000E+00  0.89129887895E+03  0.11087011210E+04  0.65939706111E+03 0.  0.
         13    1    3    3    0    0  0.17895292450E+03  0.17514427104E+03  0.85026566247E+02  0.26444126348E+03  0.00000000000E+00 0. -1.
          4    1    3    3  501    0 -0.17895292450E+03 -0.17514427104E+03  0.80627231270E+03  0.84425985757E+03  0.00000000000E+00 0. -1.
<mgrwt>
<rscale>  0 0.65939706E+03</rscale>
<asrwt>0</asrwt>
<pdfrwt beam="1">0</pdfrwt>
<pdfrwt beam="2">  1        2 0.39527764E+00 0.65939706E+03</pdfrwt>
<totfact> 0.41452499E+00</totfact>
</mgrwt>
</event>
<event>
 5    1  0.2354746E-004  0.6563070E+03  0.7818608E-02  0.9795016E-01
         13   -1    0    0    0    0  0.00000000000E+00  0.00000000000E+00  0.10000000000E+04  0.10000000000E+04  0.00000000000E+00 0. -1.
          2   -1    0    0  501    0 -0.00000000000E+00 -0.00000000000E+00 -0.10768471792E+03  0.10768471792E+03  0.00000000000E+00 0. -1.
    9000006    2    1    2  501    0  0.00000000000E+00  0.00000000000E+00  0.89231528208E+03  0.11076847179E+04  0.65630699500E+03 0.  0.
         13    1    3    3    0    0 -0.18617733379E+03 -0.99103122450E+02  0.87045673110E+03  0.89564409740E+03  0.00000000000E+00 0. -1.
          4    1    3    3  501    0  0.18617733379E+03  0.99103122450E+02  0.21858550979E+02  0.21204062052E+03  0.00000000000E+00 0. -1.
<mgrwt>
<rscale>  0 0.65630699E+03</rscale>
<asrwt>0</asrwt>
<pdfrwt beam="1">0</pdfrwt>
<pdfrwt beam="2">  1        2 0.39158162E+00 0.65630699E+03</pdfrwt>
<totfact> 0.42799975E+00</totfact>
</mgrwt>
</event>
<event>
 5    1  0.2354746E-004  0.6290036E+03  0.7818608E-02  0.9846995E-01
         13   -1    0    0    0    0  0.00000000000E+00  0.00000000000E+00  0.10000000000E+04  0.10000000000E+04  0.00000000000E+00 0. -1.
          2   -1    0    0  501    0 -0.00000000000E+00 -0.00000000000E+00 -0.98911372795E+02  0.98911372795E+02  0.00000000000E+00 0. -1.
    9000006    2    1    2  501    0  0.00000000000E+00  0.00000000000E+00  0.90108862721E+03  0.10989113728E+04  0.62900357008E+03 0.  0.
         13    1    3    3    0    0  0.26883423676E+02  0.28890463846E+03  0.23855975075E+03  0.37563195187E+03  0.00000000000E+00 0. -1.
          2    1    3    3  501    0 -0.26883423676E+02 -0.28890463846E+03  0.66252887645E+03  0.72327942092E+03  0.00000000000E+00 0. -1.
<mgrwt>
<rscale>  0 0.62900357E+03</rscale>
<asrwt>0</asrwt>
<pdfrwt beam="1">0</pdfrwt>
<pdfrwt beam="2">  1        2 0.35967848E+00 0.62900357E+03</pdfrwt>
<totfact> 0.56197210E+00</totfact>
</mgrwt>
</event>
<event>
 5    1  0.2354746E-004  0.6523072E+03  0.7818608E-02  0.9802459E-01
         13   -1    0    0    0    0  0.00000000000E+00  0.00000000000E+00  0.10000000000E+04  0.10000000000E+04  0.00000000000E+00 0. -1.
          2   -1    0    0  501    0 -0.00000000000E+00 -0.00000000000E+00 -0.10637617349E+03  0.10637617349E+03  0.00000000000E+00 0. -1.
    9000006    2    1    2  501    0  0.00000000000E+00  0.00000000000E+00  0.89362382651E+03  0.11063761735E+04  0.65230720827E+03 0.  0.
         13    1    3    3    0    0 -0.93692459456E+02  0.22536793706E+03  0.81376193615E+03  0.84957487765E+03  0.00000000000E+00 0. -1.
          2    1    3    3  501    0  0.93692459456E+02 -0.22536793706E+03  0.79861890361E+02  0.25680129584E+03  0.00000000000E+00 0. -1.
<mgrwt>
<rscale>  0 0.65230721E+03</rscale>
<asrwt>0</asrwt>
<pdfrwt beam="1">0</pdfrwt>
<pdfrwt beam="2">  1        2 0.38682326E+00 0.65230721E+03</pdfrwt>
<totfact> 0.44593017E+00</totfact>
</mgrwt>
</event>
<event>
 5    1  0.2354746E-004  0.6474957E+03  0.7818608E-02  0.9811490E-01
         13   -1    0    0    0    0  0.00000000000E+00  0.00000000000E+00  0.10000000000E+04  0.10000000000E+04  0.00000000000E+00 0. -1.
          2   -1    0    0  501    0 -0.00000000000E+00 -0.00000000000E+00 -0.10481265660E+03  0.10481265660E+03  0.00000000000E+00 0. -1.
    9000006    2    1    2  501    0  0.00000000000E+00  0.00000000000E+00  0.89518734340E+03  0.11048126566E+04  0.64749565742E+03 0.  0.
         13    1    3    3    0    0  0.28590529949E+03  0.15152061734E+03  0.42951035537E+03  0.53775411028E+03  0.00000000000E+00 0. -1.
          2    1    3    3  501    0 -0.28590529949E+03 -0.15152061734E+03  0.46567698804E+03  0.56705854631E+03  0.00000000000E+00 0. -1.
<mgrwt>
<rscale>  0 0.64749566E+03</rscale>
<asrwt>0</asrwt>
<pdfrwt beam="1">0</pdfrwt>
<pdfrwt beam="2">  1        2 0.38113774E+00 0.64749566E+03</pdfrwt>
<totfact> 0.46824503E+00</totfact>
</mgrwt>
</event>
<event>
 5    1  0.2354746E-004  0.6407325E+03  0.7818608E-02  0.9824326E-01
         13   -1    0    0    0    0  0.00000000000E+00  0.00000000000E+00  0.10000000000E+04  0.10000000000E+04  0.00000000000E+00 0. -1.
          2   -1    0    0  501    0 -0.00000000000E+00 -0.00000000000E+00 -0.10263454009E+03  0.10263454009E+03  0.00000000000E+00 0. -1.
    9000006    2    1    2  501    0  0.00000000000E+00  0.00000000000E+00  0.89736545991E+03  0.11026345401E+04  0.64073251856E+03 0.  0.
         13    1    3    3    0    0  0.15642423055E+03  0.23081963906E+03  0.72017182786E+03  0.77226530889E+03  0.00000000000E+00 0. -1.
          4    1    3    3  501    0 -0.15642423055E+03 -0.23081963906E+03  0.17719363206E+03  0.33036923119E+03  0.00000000000E+00 0. -1.
<mgrwt>
<rscale>  0 0.64073252E+03</rscale>
<asrwt>0</asrwt>
<pdfrwt beam="1">0</pdfrwt>
<pdfrwt beam="2">  1        2 0.37321730E+00 0.64073252E+03</pdfrwt>
<totfact> 0.50102729E+00</totfact>
</mgrwt>
</event>
<event>
 5    1  0.2354746E-004  0.6541867E+03  0.7818608E-02  0.9798955E-01
         13   -1    0    0    0    0  0.00000000000E+00  0.00000000000E+00  0.10000000000E+04  0.10000000000E+04  0.00000000000E+00 0. -1.
          2   -1    0    0  501    0 -0.00000000000E+00 -0.00000000000E+00 -0.10699006667E+03  0.10699006667E+03  0.00000000000E+00 0. -1.
    9000006    2    1    2  501    0  0.00000000000E+00  0.00000000000E+00  0.89300993333E+03  0.11069900667E+04  0.65418672156E+03 0.  0.
         13    1    3    3    0    0 -0.14851604631E+03 -0.21835024176E+02 -0.45260445055E+02  0.15678741078E+03  0.00000000000E+00 0. -1.
          2    1    3    3  501    0  0.14851604631E+03  0.21835024176E+02  0.93827037839E+03  0.95020265589E+03  0.00000000000E+00 0. -1.
<mgrwt>
<rscale>  0 0.65418672E+03</rscale>
<asrwt>0</asrwt>
<pdfrwt beam="1">0</pdfrwt>
<pdfrwt beam="2">  1        2 0.38905561E+00 0.65418672E+03</pdfrwt>
<totfact> 0.43743537E+00</totfact>
</mgrwt>
</event>
<event>
 5    1  0.2354746E-004  0.6461660E+03  0.7818608E-02  0.9814000E-01
         13   -1    0    0    0    0  0.00000000000E+00  0.00000000000E+00  0.10000000000E+04  0.10000000000E+04  0.00000000000E+00 0. -1.
          2   -1    0    0  501    0 -0.00000000000E+00 -0.00000000000E+00 -0.10438263969E+03  0.10438263969E+03  0.00000000000E+00 0. -1.
    9000006    2    1    2  501    0  0.00000000000E+00  0.00000000000E+00  0.89561736031E+03  0.11043826397E+04  0.64616604582E+03 0.  0.
         13    1    3    3    0    0 -0.21424655903E+03 -0.11863893338E+03  0.80796874564E+03  0.84426907945E+03  0.00000000000E+00 0. -1.
          4    1    3    3  501    0  0.21424655903E+03  0.11863893338E+03  0.87648614665E+02  0.26011356025E+03  0.00000000000E+00 0. -1.
<mgrwt>
<rscale>  0 0.64616605E+03</rscale>
<asrwt>0</asrwt>
<pdfrwt beam="1">0</pdfrwt>
<pdfrwt beam="2">  1        2 0.37957404E+00 0.64616605E+03</pdfrwt>
<totfact> 0.47455766E+00</totfact>
</mgrwt>
</event>
<event>
 5    1  0.2354746E-004  0.6584850E+03  0.7818608E-02  0.9790987E-01
         13   -1    0    0    0    0  0.00000000000E+00  0.00000000000E+00  0.10000000000E+04  0.10000000000E+04  0.00000000000E+00 0. -1.
          2   -1    0    0  501    0 -0.00000000000E+00 -0.00000000000E+00 -0.10840062675E+03  0.10840062675E+03  0.00000000000E+00 0. -1.
    9000006    2    1    2  501    0  0.00000000000E+00  0.00000000000E+00  0.89159937325E+03  0.11084006267E+04  0.65848500893E+03 0.  0.
         13    1    3    3    0    0  0.11622906903E+03 -0.10356823141E+03 -0.42534093916E+02  0.16138377920E+03  0.00000000000E+00 0. -1.
          4    1    3    3  501    0 -0.11622906903E+03  0.10356823141E+03  0.93413346717E+03  0.94701684754E+03  0.00000000000E+00 0. -1.
<mgrwt>
<rscale>  0 0.65848501E+03</rscale>
<asrwt>0</asrwt>
<pdfrwt beam="1">0</pdfrwt>
<pdfrwt beam="2">  1        2 0.39418493E+00 0.65848501E+03</pdfrwt>
<totfact> 0.41846813E+00</totfact>
</mgrwt>
</event>
<event>
 5    1  0.2354746E-004  0.6435208E+03  0.7818608E-02  0.9819013E-01
         13   -1    0    0    0    0  0.00000000000E+00  0.00000000000E+00  0.10000000000E+04  0.10000000000E+04  0.00000000000E+00 0. -1.
          2   -1    0    0  501    0 -0.00000000000E+00 -0.00000000000E+00 -0.10352975425E+03  0.10352975425E+03  0.00000000000E+00 0. -1.
    9000006    2    1    2  501    0  0.00000000000E+00  0.00000000000E+00  0.89647024575E+03  0.11035297543E+04  0.64352079766E+03 0.  0.
         13    1    3    3    0    0 -0.20878833770E+03 -0.24373997066E+03  0.48763936180E+03  0.58377554800E+03  0.00000000000E+00 0. -1.
          2    1    3    3  501    0  0.20878833770E+03  0.24373997066E+03  0.40883088394E+03  0.51975420626E+03  0.00000000000E+00 0. -1.
<mgrwt>
<rscale>  0 0.64352080E+03</rscale>
<asrwt>0</asrwt>
<pdfrwt beam="1">0</pdfrwt>
<pdfrwt beam="2">  1        2 0.37647263E+00 0.64352080E+03</pdfrwt>
<totfact> 0.48730785E+00</totfact>
</mgrwt>
</event>
<event>
 5    1  0.2354746E-004  0.6540238E+03  0.7818608E-02  0.9799258E-01
         13   -1    0    0    0    0  0.00000000000E+00  0.00000000000E+00  0.10000000000E+04  0.10000000000E+04  0.00000000000E+00 0. -1.
          2   -1    0    0  501    0 -0.00000000000E+00 -0.00000000000E+00 -0.10693679605E+03  0.10693679605E+03  0.00000000000E+00 0. -1.
    9000006    2    1    2  501    0  0.00000000000E+00  0.00000000000E+00  0.89306320395E+03  0.11069367960E+04  0.65402384068E+03 0.  0.
         13    1    3    3    0    0  0.37921983628E+02  0.29445910468E+03  0.21451334595E+03  0.36627887840E+03  0.00000000000E+00 0. -1.
          2    1    3    3  501    0 -0.37921983628E+02 -0.29445910468E+03  0.67854985800E+03  0.74065791764E+03  0.00000000000E+00 0. -1.
<mgrwt>
<rscale>  0 0.65402384E+03</rscale>
<asrwt>0</asrwt>
<pdfrwt beam="1">0</pdfrwt>
<pdfrwt beam="2">  1        2 0.38886190E+00 0.65402384E+03</pdfrwt>
<totfact> 0.43816666E+00</totfact>
</mgrwt>
</event>
<event>
 5    1  0.2354746E-004  0.6596469E+03  0.7818608E-02  0.9788844E-01
         13   -1    0    0    0    0  0.00000000000E+00  0.00000000000E+00  0.10000000000E+04  0.10000000000E+04  0.00000000000E+00 0. -1.
          2   -1    0    0  501    0 -0.00000000000E+00 -0.00000000000E+00 -0.10878351745E+03  0.10878351745E+03  0.00000000000E+00 0. -1.
    9000006    2    1    2  501    0  0.00000000000E+00  0.00000000000E+00  0.89121648255E+03  0.11087835175E+04  0.65964692815E+03 0.  0.
         13    1    3    3    0    0  0.18274447394E+03  0.23894490526E+03  0.67295110578E+03  0.73712509202E+03  0.00000000000E+00 0. -1.
          2    1    3    3  501    0 -0.18274447394E+03 -0.23894490526E+03  0.21826537676E+03  0.37165842544E+03  0.00000000000E+00 0. -1.
<mgrwt>
<rscale>  0 0.65964693E+03</rscale>
<asrwt>0</asrwt>
<pdfrwt beam="1">0</pdfrwt>
<pdfrwt beam="2">  1        2 0.39557726E+00 0.65964693E+03</pdfrwt>
<totfact> 0.41344964E+00</totfact>
</mgrwt>
</event>
<event>
 5    1  0.2354746E-004  0.6759187E+03  0.7818608E-02  0.9759324E-01
         13   -1    0    0    0    0  0.00000000000E+00  0.00000000000E+00  0.10000000000E+04  0.10000000000E+04  0.00000000000E+00 0. -1.
          2   -1    0    0  501    0 -0.00000000000E+00 -0.00000000000E+00 -0.11421652294E+03  0.11421652294E+03  0.00000000000E+00 0. -1.
    9000006    2    1    2  501    0  0.00000000000E+00  0.00000000000E+00  0.88578347706E+03  0.11142165229E+04  0.67591870203E+03 0.  0.
         13    1    3    3    0    0 -0.32421228385E+02 -0.74677090587E+02 -0.97810913451E+02  0.12725870775E+03  0.00000000000E+00 0. -1.
          4    1    3    3  501    0  0.32421228385E+02  0.74677090587E+02  0.98359439051E+03  0.98695781519E+03  0.00000000000E+00 0. -1.
<mgrwt>
<rscale>  0 0.67591870E+03</rscale>
<asrwt>0</asrwt>
<pdfrwt beam="1">0</pdfrwt>
<pdfrwt beam="2">  1        2 0.41533369E+00 0.67591870E+03</pdfrwt>
<totfact> 0.34782748E+00</totfact>
</mgrwt>
</event>
<event>
 5    1  0.2354746E-004  0.6483396E+03  0.7818608E-02  0.9809900E-01
         13   -1    0    0    0    0  0.00000000000E+00  0.00000000000E+00  0.10000000000E+04  0.10000000000E+04  0.00000000000E+00 0. -1.
          2   -1    0    0  501    0 -0.00000000000E+00 -0.00000000000E+00 -0.10508604859E+03  0.10508604859E+03  0.00000000000E+00 0. -1.
    9000006    2    1    2  501    0  0.00000000000E+00  0.00000000000E+00  0.89491395141E+03  0.11050860486E+04  0.64833956717E+03 0.  0.
         13    1    3    3    0    0 -0.60169523492E+02 -0.18941137225E+03  0.10931992587E+02  0.19903906138E+03  0.00000000000E+00 0. -1.
          4    1    3    3  501    0  0.60169523492E+02  0.18941137225E+03  0.88398195882E+03  0.90604698720E+03  0.00000000000E+00 0. -1.
<mgrwt>
<rscale>  0 0.64833957E+03</rscale>
<asrwt>0</asrwt>
<pdfrwt beam="1">0</pdfrwt>
<pdfrwt beam="2">  1        2 0.38213189E+00 0.64833957E+03</pdfrwt>
<totfact> 0.46427146E+00</totfact>
</mgrwt>
</event>
<event>
 5    1  0.2354746E-004  0.6547814E+03  0.7818608E-02  0.9797848E-01
         13   -1    0    0    0    0  0.00000000000E+00  0.00000000000E+00  0.10000000000E+04  0.10000000000E+04  0.00000000000E+00 0. -1.
          2   -1    0    0  501    0 -0.00000000000E+00 -0.00000000000E+00 -0.10718466888E+03  0.10718466888E+03  0.00000000000E+00 0. -1.
    9000006    2    1    2  501    0  0.00000000000E+00  0.00000000000E+00  0.89281533112E+03  0.11071846689E+04  0.65478139520E+03 0.  0.
         13    1    3    3    0    0 -0.16431691116E+03  0.24123151188E+03  0.19564903399E+03  0.35138473802E+03  0.00000000000E+00 0. -1.
          4    1    3    3  501    0  0.16431691116E+03 -0.24123151188E+03  0.69716629714E+03  0.75579993085E+03  0.00000000000E+00 0. -1.
<mgrwt>
<rscale>  0 0.65478140E+03</rscale>
<asrwt>0</asrwt>
<pdfrwt beam="1">0</pdfrwt>
<pdfrwt beam="2">  1        2 0.38976325E+00 0.65478140E+03</pdfrwt>
<totfact> 0.43477327E+00</totfact>
</mgrwt>
</event>
<event>
 5    1  0.2354746E-004  0.6450754E+03  0.7818608E-02  0.9816064E-01
         13   -1    0    0    0    0  0.00000000000E+00  0.00000000000E+00  0.10000000000E+04  0.10000000000E+04  0.00000000000E+00 0. -1.
          2   -1    0    0  501    0 -0.00000000000E+00 -0.00000000000E+00 -0.10403057142E+03  0.10403057142E+03  0.00000000000E+00 0. -1.
    9000006    2    1    2  501    0  0.00000000000E+00  0.00000000000E+00  0.89596942858E+03  0.11040305714E+04  0.64507541085E+03 0.  0.
         13    1    3    3    0    0  0.25906219539E+03 -0.18938665671E+03  0.50344402718E+03  0.59702296047E+03  0.00000000000E+00 0. -1.
          4    1    3    3  501    0 -0.25906219539E+03  0.18938665671E+03  0.39252540140E+03  0.50700761095E+03  0.00000000000E+00 0. -1.
<mgrwt>
<rscale>  0 0.64507541E+03</rscale>
<asrwt>0</asrwt>
<pdfrwt beam="1">0</pdfrwt>
<pdfrwt beam="2">  1        2 0.37829378E+00 0.64507541E+03</pdfrwt>
<totfact> 0.47978358E+00</totfact>
</mgrwt>
</event>
<event>
 5    1  0.2354746E-004  0.6402246E+03  0.7818608E-02  0.9825297E-01
         13   -1    0    0    0    0  0.00000000000E+00  0.00000000000E+00  0.10000000000E+04  0.10000000000E+04  0.00000000000E+00 0. -1.
          2   -1    0    0  501    0 -0.00000000000E+00 -0.00000000000E+00 -0.10247187719E+03  0.10247187719E+03  0.00000000000E+00 0. -1.
    9000006    2    1    2  501    0  0.00000000000E+00  0.00000000000E+00  0.89752812281E+03  0.11024718772E+04  0.64022457680E+03 0.  0.
         13    1    3    3    0    0  0.13312453313E+03  0.65895070378E+02  0.93706061829E+03  0.94876072008E+03  0.00000000000E+00 0. -1.
          4    1    3    3  501    0 -0.13312453313E+03 -0.65895070378E+02 -0.39532495472E+02  0.15371115711E+03  0.00000000000E+00 0. -1.
<mgrwt>
<rscale>  0 0.64022458E+03</rscale>
<asrwt>0</asrwt>
<pdfrwt beam="1">0</pdfrwt>
<pdfrwt beam="2">  1        2 0.37262579E+00 0.64022458E+03</pdfrwt>
<totfact> 0.50355779E+00</totfact>
</mgrwt>
</event>
<event>
 5    1  0.2354746E-004  0.6483113E+03  0.7818608E-02  0.9809953E-01
         13   -1    0    0    0    0  0.00000000000E+00  0.00000000000E+00  0.10000000000E+04  0.10000000000E+04  0.00000000000E+00 0. -1.
          2   -1    0    0  501    0 -0.00000000000E+00 -0.00000000000E+00 -0.10507689581E+03  0.10507689581E+03  0.00000000000E+00 0. -1.
    9000006    2    1    2  501    0  0.00000000000E+00  0.00000000000E+00  0.89492310419E+03  0.11050768958E+04  0.64831133203E+03 0.  0.
         13    1    3    3    0    0  0.12981047327E+03  0.26596908318E+03  0.67286542344E+03  0.73507699614E+03  0.00000000000E+00 0. -1.
          4    1    3    3  501    0 -0.12981047327E+03 -0.26596908318E+03  0.22205768075E+03  0.36999989967E+03  0.00000000000E+00 0. -1.
<mgrwt>
<rscale>  0 0.64831133E+03</rscale>
<asrwt>0</asrwt>
<pdfrwt beam="1">0</pdfrwt>
<pdfrwt beam="2">  1        2 0.38209861E+00 0.64831133E+03</pdfrwt>
<totfact> 0.46440399E+00</totfact>
</mgrwt>
</event>
<event>
 5    1  0.2354746E-004  0.6317063E+03  0.7818608E-02  0.9841725E-01
         13   -1    0    0    0    0  0.00000000000E+00  0.00000000000E+00  0.10000000000E+04  0.10000000000E+04  0.00000000000E+00 0. -1.
          2   -1    0    0  501    0 -0.00000000000E+00 -0.00000000000E+00 -0.99763222737E+02  0.99763222737E+02  0.00000000000E+00 0. -1.
    9000006    2    1    2  501    0  0.00000000000E+00  0.00000000000E+00  0.90023677726E+03  0.10997632227E+04  0.63170633284E+03 0.  0.
         13    1    3    3    0    0 -0.46013339338E+02 -0.24204429591E+03  0.10604335435E+03  0.26823098550E+03  0.00000000000E+00 0. -1.
          2    1    3    3  501    0  0.46013339338E+02  0.24204429591E+03  0.79419342291E+03  0.83153223724E+03  0.00000000000E+00 0. -1.
<mgrwt>
<rscale>  0 0.63170633E+03</rscale>
<asrwt>0</asrwt>
<pdfrwt beam="1">0</pdfrwt>
<pdfrwt beam="2">  1        2 0.36277612E+00 0.63170633E+03</pdfrwt>
<totfact> 0.54745546E+00</totfact>
</mgrwt>
</event>
<event>
 5    1  0.2354746E-004  0.6584772E+03  0.7818608E-02  0.9791001E-01
         13   -1    0    0    0    0  0.00000000000E+00  0.00000000000E+00  0.10000000000E+04  0.10000000000E+04  0.00000000000E+00 0. -1.
          2   -1    0    0  501    0 -0.00000000000E+00 -0.00000000000E+00 -0.10839807146E+03  0.10839807146E+03  0.00000000000E+00 0. -1.
    9000006    2    1    2  501    0  0.00000000000E+00  0.00000000000E+00  0.89160192854E+03  0.11083980715E+04  0.65847724779E+03 0.  0.
         13    1    3    3    0    0 -0.65116739446E+02  0.81624356341E+02  0.97139076718E+03  0.97698656483E+03  0.00000000000E+00 0. -1.
          2    1    3    3  501    0  0.65116739446E+02 -0.81624356341E+02 -0.79788838639E+02  0.13141150663E+03  0.00000000000E+00 0. -1.
<mgrwt>
<rscale>  0 0.65847725E+03</rscale>
<asrwt>0</asrwt>
<pdfrwt beam="1">0</pdfrwt>
<pdfrwt beam="2">  1        2 0.39417564E+00 0.65847725E+03</pdfrwt>
<totfact> 0.41850180E+00</totfact>
</mgrwt>
</event>
<event>
 5    1  0.2354746E-004  0.6609048E+03  0.7818608E-02  0.9786530E-01
         13   -1    0    0    0    0  0.00000000000E+00  0.00000000000E+00  0.10000000000E+04  0.10000000000E+04  0.00000000000E+00 0. -1.
          2   -1    0    0  501    0 -0.00000000000E+00 -0.00000000000E+00 -0.10919877700E+03  0.10919877700E+03  0.00000000000E+00 0. -1.
    9000006    2    1    2  501    0  0.00000000000E+00  0.00000000000E+00  0.89080122300E+03  0.11091987770E+04  0.66090476470E+03 0.  0.
         13    1    3    3    0    0  0.65680803282E+02  0.21851214660E+03  0.44229021699E+02  0.23241715189E+03  0.00000000000E+00 0. -1.
          2    1    3    3  501    0 -0.65680803282E+02 -0.21851214660E+03  0.84657220130E+03  0.87678162512E+03  0.00000000000E+00 0. -1.
<mgrwt>
<rscale>  0 0.66090476E+03</rscale>
<asrwt>0</asrwt>
<pdfrwt beam="1">0</pdfrwt>
<pdfrwt beam="2">  1        2 0.39708730E+00 0.66090476E+03</pdfrwt>
<totfact> 0.40806823E+00</totfact>
</mgrwt>
</event>
<event>
 5    1  0.2354746E-004  0.7269469E+03  0.7818608E-02  0.9672228E-01
         13   -1    0    0    0    0  0.00000000000E+00  0.00000000000E+00  0.10000000000E+04  0.10000000000E+04  0.00000000000E+00 0. -1.
          2   -1    0    0  501    0 -0.00000000000E+00 -0.00000000000E+00 -0.13211295560E+03  0.13211295560E+03  0.00000000000E+00 0. -1.
    9000006    2    1    2  501    0  0.00000000000E+00  0.00000000000E+00  0.86788704440E+03  0.11321129556E+04  0.72694691855E+03 0.  0.
         13    1    3    3    0    0 -0.21109041776E+03 -0.25571062824E+03  0.66580543242E+03  0.74380371316E+03  0.00000000000E+00 0. -1.
          4    1    3    3  501    0  0.21109041776E+03  0.25571062824E+03  0.20208161198E+03  0.38830924244E+03  0.00000000000E+00 0. -1.
<mgrwt>
<rscale>  0 0.72694692E+03</rscale>
<asrwt>0</asrwt>
<pdfrwt beam="1">0</pdfrwt>
<pdfrwt beam="2">  1        2 0.48041176E+00 0.72694692E+03</pdfrwt>
<totfact> 0.19178035E+00</totfact>
</mgrwt>
</event>
<event>
 5    1  0.2354746E-004  0.6497737E+03  0.7818608E-02  0.9807204E-01
         13   -1    0    0    0    0  0.00000000000E+00  0.00000000000E+00  0.10000000000E+04  0.10000000000E+04  0.00000000000E+00 0. -1.
          2   -1    0    0  501    0 -0.00000000000E+00 -0.00000000000E+00 -0.10555147221E+03  0.10555147221E+03  0.00000000000E+00 0. -1.
    9000006    2    1    2  501    0  0.00000000000E+00  0.00000000000E+00  0.89444852779E+03  0.11055514722E+04  0.64977372125E+03 0.  0.
         13    1    3    3    0    0 -0.77313295401E+01 -0.27104454304E+03  0.14273503600E+03  0.30642814536E+03  0.00000000000E+00 0. -1.
          4    1    3    3  501    0  0.77313295401E+01  0.27104454304E+03  0.75171349180E+03  0.79912332685E+03  0.00000000000E+00 0. -1.
<mgrwt>
<rscale>  0 0.64977372E+03</rscale>
<asrwt>0</asrwt>
<pdfrwt beam="1">0</pdfrwt>
<pdfrwt beam="2">  1        2 0.38382434E+00 0.64977372E+03</pdfrwt>
<totfact> 0.45757723E+00</totfact>
</mgrwt>
</event>
<event>
 5    1  0.2354746E-004  0.6647362E+03  0.7818608E-02  0.9779514E-01
         13   -1    0    0    0    0  0.00000000000E+00  0.00000000000E+00  0.10000000000E+04  0.10000000000E+04  0.00000000000E+00 0. -1.
          2   -1    0    0  501    0 -0.00000000000E+00 -0.00000000000E+00 -0.11046855680E+03  0.11046855680E+03  0.00000000000E+00 0. -1.
    9000006    2    1    2  501    0  0.00000000000E+00  0.00000000000E+00  0.88953144320E+03  0.11104685568E+04  0.66473620872E+03 0.  0.
         13    1    3    3    0    0  0.20764006090E+03  0.16833078060E+03  0.77475094883E+03  0.81956615310E+03  0.00000000000E+00 0. -1.
          2    1    3    3  501    0 -0.20764006090E+03 -0.16833078060E+03  0.11478049437E+03  0.29090240370E+03  0.00000000000E+00 0. -1.
<mgrwt>
<rscale>  0 0.66473621E+03</rscale>
<asrwt>0</asrwt>
<pdfrwt beam="1">0</pdfrwt>
<pdfrwt beam="2">  1        2 0.40170469E+00 0.66473621E+03</pdfrwt>
<totfact> 0.39200137E+00</totfact>
</mgrwt>
</event>
<event>
 5    1  0.2354746E-004  0.6478953E+03  0.7818608E-02  0.9810737E-01
         13   -1    0    0    0    0  0.00000000000E+00  0.00000000000E+00  0.10000000000E+04  0.10000000000E+04  0.00000000000E+00 0. -1.
          2   -1    0    0  501    0 -0.00000000000E+00 -0.00000000000E+00 -0.10494208459E+03  0.10494208459E+03  0.00000000000E+00 0. -1.
    9000006    2    1    2  501    0  0.00000000000E+00  0.00000000000E+00  0.89505791541E+03  0.11049420846E+04  0.64789531435E+03 0.  0.
         13    1    3    3    0    0  0.15197399054E+03  0.20421518978E+03  0.10583682869E+03  0.27568346313E+03  0.00000000000E+00 0. -1.
          4    1    3    3  501    0 -0.15197399054E+03 -0.20421518978E+03  0.78922108672E+03  0.82925862145E+03  0.00000000000E+00 0. -1.
<mgrwt>
<rscale>  0 0.64789531E+03</rscale>
<asrwt>0</asrwt>
<pdfrwt beam="1">0</pdfrwt>
<pdfrwt beam="2">  1        2 0.38160839E+00 0.64789531E+03</pdfrwt>
<totfact> 0.46636004E+00</totfact>
</mgrwt>
</event>
<event>
 5    1  0.2354746E-004  0.6498093E+03  0.7818608E-02  0.9807137E-01
         13   -1    0    0    0    0  0.00000000000E+00  0.00000000000E+00  0.10000000000E+04  0.10000000000E+04  0.00000000000E+00 0. -1.
          2   -1    0    0  501    0 -0.00000000000E+00 -0.00000000000E+00 -0.10556302273E+03  0.10556302273E+03  0.00000000000E+00 0. -1.
    9000006    2    1    2  501    0  0.00000000000E+00  0.00000000000E+00  0.89443697727E+03  0.11055630227E+04  0.64980927272E+03 0.  0.
         13    1    3    3    0    0 -0.60864158604E+02 -0.99323020689E+02  0.96324997990E+03  0.97026802071E+03  0.00000000000E+00 0. -1.
          4    1    3    3  501    0  0.60864158604E+02  0.99323020689E+02 -0.68813002624E+02  0.13529500202E+03  0.00000000000E+00 0. -1.
<mgrwt>
<rscale>  0 0.64980927E+03</rscale>
<asrwt>0</asrwt>
<pdfrwt beam="1">0</pdfrwt>
<pdfrwt beam="2">  1        2 0.38386635E+00 0.64980927E+03</pdfrwt>
<totfact> 0.45741222E+00</totfact>
</mgrwt>
</event>
<event>
 5    1  0.2354746E-004  0.6523606E+03  0.7818608E-02  0.9802360E-01
         13   -1    0    0    0    0  0.00000000000E+00  0.00000000000E+00  0.10000000000E+04  0.10000000000E+04  0.00000000000E+00 0. -1.
          2   -1    0    0  501    0 -0.00000000000E+00 -0.00000000000E+00 -0.10639358249E+03  0.10639358249E+03  0.00000000000E+00 0. -1.
    9000006    2    1    2  501    0  0.00000000000E+00  0.00000000000E+00  0.89360641751E+03  0.11063935825E+04  0.65236058279E+03 0.  0.
         13    1    3    3    0    0 -0.23043156324E+03 -0.15645720972E+03  0.15890502537E+03  0.32066863099E+03  0.00000000000E+00 0. -1.
          4    1    3    3  501    0  0.23043156324E+03  0.15645720972E+03  0.73470139214E+03  0.78572495151E+03  0.00000000000E+00 0. -1.
<mgrwt>
<rscale>  0 0.65236058E+03</rscale>
<asrwt>0</asrwt>
<pdfrwt beam="1">0</pdfrwt>
<pdfrwt beam="2">  1        2 0.38688657E+00 0.65236058E+03</pdfrwt>
<totfact> 0.44568723E+00</totfact>
</mgrwt>
</event>
<event>
 5    1  0.2354746E-004  0.6225015E+03  0.7818608E-02  0.9859792E-01
         13   -1    0    0    0    0  0.00000000000E+00  0.00000000000E+00  0.10000000000E+04  0.10000000000E+04  0.00000000000E+00 0. -1.
          2   -1    0    0  501    0 -0.00000000000E+00 -0.00000000000E+00 -0.96877036275E+02  0.96877036275E+02  0.00000000000E+00 0. -1.
    9000006    2    1    2  501    0  0.00000000000E+00  0.00000000000E+00  0.90312296372E+03  0.10968770363E+04  0.62250152217E+03 0.  0.
         13    1    3    3    0    0 -0.25642482761E+03 -0.99055436257E+02  0.70879239316E+03  0.76023175958E+03  0.00000000000E+00 0. -1.
          2    1    3    3  501    0  0.25642482761E+03  0.99055436257E+02  0.19433057056E+03  0.33664527670E+03  0.00000000000E+00 0. -1.
<mgrwt>
<rscale>  0 0.62250152E+03</rscale>
<asrwt>0</asrwt>
<pdfrwt beam="1">0</pdfrwt>
<pdfrwt beam="2">  1        2 0.35228087E+00 0.62250152E+03</pdfrwt>
<totfact> 0.59809500E+00</totfact>
</mgrwt>
</event>
<event>
 5    1  0.2354746E-004  0.6792062E+03  0.7818608E-02  0.9753468E-01
         13   -1    0    0    0    0  0.00000000000E+00  0.00000000000E+00  0.10000000000E+04  0.10000000000E+04  0.00000000000E+00 0. -1.
          2   -1    0    0  501    0 -0.00000000000E+00 -0.00000000000E+00 -0.11533027396E+03  0.11533027396E+03  0.00000000000E+00 0. -1.
    9000006    2    1    2  501    0  0.00000000000E+00  0.00000000000E+00  0.88466972604E+03  0.11153302740E+04  0.67920622482E+03 0.  0.
         13    1    3    3    0    0  0.10735944841E+02 -0.33233977771E+03  0.32897839638E+03  0.46775182912E+03  0.00000000000E+00 0. -1.
          2    1    3    3  501    0 -0.10735944841E+02  0.33233977771E+03  0.55569132966E+03  0.64757844484E+03  0.00000000000E+00 0. -1.
<mgrwt>
<rscale>  0 0.67920622E+03</rscale>
<asrwt>0</asrwt>
<pdfrwt beam="1">0</pdfrwt>
<pdfrwt beam="2">  1        2 0.41938370E+00 0.67920622E+03</pdfrwt>
<totfact> 0.33558633E+00</totfact>
</mgrwt>
</event>
<event>
 5    1  0.2354746E-004  0.6564182E+03  0.7818608E-02  0.9794810E-01
         13   -1    0    0    0    0  0.00000000000E+00  0.00000000000E+00  0.10000000000E+04  0.10000000000E+04  0.00000000000E+00 0. -1.
          2   -1    0    0  501    0 -0.00000000000E+00 -0.00000000000E+00 -0.10772120563E+03  0.10772120563E+03  0.00000000000E+00 0. -1.
    9000006    2    1    2  501    0  0.00000000000E+00  0.00000000000E+00  0.89227879437E+03  0.11077212056E+04  0.65641817655E+03 0.  0.
         13    1    3    3    0    0  0.23660980526E+03  0.59912854470E+01  0.62432323337E+02  0.24478131147E+03  0.00000000000E+00 0. -1.
          4    1    3    3  501    0 -0.23660980526E+03 -0.59912854470E+01  0.82984647104E+03  0.86293989416E+03  0.00000000000E+00 0. -1.
<mgrwt>
<rscale>  0 0.65641818E+03</rscale>
<asrwt>0</asrwt>
<pdfrwt beam="1">0</pdfrwt>
<pdfrwt beam="2">  1        2 0.39171430E+00 0.65641818E+03</pdfrwt>
<totfact> 0.42750925E+00</totfact>
</mgrwt>
</event>
<event>
 5    1  0.2354746E-004  0.6444403E+03  0.7818608E-02  0.9817268E-01
         13   -1    0    0    0    0  0.00000000000E+00  0.00000000000E+00  0.10000000000E+04  0.10000000000E+04  0.00000000000E+00 0. -1.
          2   -1    0    0  501    0 -0.00000000000E+00 -0.00000000000E+00 -0.10382583560E+03  0.10382583560E+03  0.00000000000E+00 0. -1.
    9000006    2    1    2  501    0  0.00000000000E+00  0.00000000000E+00  0.89617416440E+03  0.11038258356E+04  0.64444033269E+03 0.  0.
         13    1    3    3    0    0  0.18509368673E+03 -0.24134009300E+03  0.26583916175E+03  0.40394946872E+03  0.00000000000E+00 0. -1.
          4    1    3    3  501    0 -0.18509368673E+03  0.24134009300E+03  0.63033500265E+03  0.69987636688E+03  0.00000000000E+00 0. -1.
<mgrwt>
<rscale>  0 0.64444033E+03</rscale>
<asrwt>0</asrwt>
<pdfrwt beam="1">0</pdfrwt>
<pdfrwt beam="2">  1        2 0.37754929E+00 0.64444033E+03</pdfrwt>
<totfact> 0.48284663E+00</totfact>
</mgrwt>
</event>
<event>
 5    1  0.2354746E-004  0.6427216E+03  0.7818608E-02  0.9820533E-01
         13   -1    0    0    0    0  0.00000000000E+00  0.00000000000E+00  0.10000000000E+04  0.10000000000E+04  0.00000000000E+00 0. -1.
          2   -1    0    0  501    0 -0.00000000000E+00 -0.00000000000E+00 -0.10327276350E+03  0.10327276350E+03  0.00000000000E+00 0. -1.
    9000006    2    1    2  501    0  0.00000000000E+00  0.00000000000E+00  0.89672723650E+03  0.11032727635E+04  0.64272159913E+03 0.  0.
         13    1    3    3    0    0 -0.18916934749E+03 -0.21413172118E+03  0.19587503916E+03  0.34641660903E+03  0.00000000000E+00 0. -1.
          4    1    3    3  501    0  0.18916934749E+03  0.21413172118E+03  0.70085219734E+03  0.75685615447E+03  0.00000000000E+00 0. -1.
<mgrwt>
<rscale>  0 0.64272160E+03</rscale>
<asrwt>0</asrwt>
<pdfrwt beam="1">0</pdfrwt>
<pdfrwt beam="2">  1        2 0.37553811E+00 0.64272160E+03</pdfrwt>
<totfact> 0.49121052E+00</totfact>
</mgrwt>
</event>
<event>
 5    1  0.2354746E-004  0.6495606E+03  0.7818608E-02  0.9807604E-01
         13   -1    0    0    0    0  0.00000000000E+00  0.00000000000E+00  0.10000000000E+04  0.10000000000E+04  0.00000000000E+00 0. -1.
          2   -1    0    0  501    0 -0.00000000000E+00 -0.00000000000E+00 -0.10548223746E+03  0.10548223746E+03  0.00000000000E+00 0. -1.
    9000006    2    1    2  501    0  0.00000000000E+00  0.00000000000E+00  0.89451776254E+03  0.11054822375E+04  0.64956058212E+03 0.  0.
         13    1    3    3    0    0  0.65704469633E+02 -0.83535294739E+02  0.96956801730E+03  0.97537549845E+03  0.00000000000E+00 0. -1.
          2    1    3    3  501    0 -0.65704469633E+02  0.83535294739E+02 -0.75050254761E+02  0.13010673901E+03  0.00000000000E+00 0. -1.
<mgrwt>
<rscale>  0 0.64956058E+03</rscale>
<asrwt>0</asrwt>
<pdfrwt beam="1">0</pdfrwt>
<pdfrwt beam="2">  1        2 0.38357258E+00 0.64956058E+03</pdfrwt>
<totfact> 0.45856746E+00</totfact>
</mgrwt>
</event>
<event>
 5    1  0.2354746E-004  0.6413491E+03  0.7818608E-02  0.9823149E-01
         13   -1    0    0    0    0  0.00000000000E+00  0.00000000000E+00  0.10000000000E+04  0.10000000000E+04  0.00000000000E+00 0. -1.
          2   -1    0    0  501    0 -0.00000000000E+00 -0.00000000000E+00 -0.10283217710E+03  0.10283217710E+03  0.00000000000E+00 0. -1.
    9000006    2    1    2  501    0  0.00000000000E+00  0.00000000000E+00  0.89716782290E+03  0.11028321771E+04  0.64134913143E+03 0.  0.
         13    1    3    3    0    0 -0.14230073858E+03 -0.27000052204E+03  0.27938159055E+03  0.41376787604E+03  0.00000000000E+00 0. -1.
          4    1    3    3  501    0  0.14230073858E+03  0.27000052204E+03  0.61778623236E+03  0.68906430106E+03  0.00000000000E+00 0. -1.
<mgrwt>
<rscale>  0 0.64134913E+03</rscale>
<asrwt>0</asrwt>
<pdfrwt beam="1">0</pdfrwt>
<pdfrwt beam="2">  1        2 0.37393598E+00 0.64134913E+03</pdfrwt>
<totfact> 0.49796836E+00</totfact>
</mgrwt>
</event>
<event>
 5    1  0.2354746E-004  0.5813424E+03  0.7818608E-02  0.9944889E-01
         13   -1    0    0    0    0  0.00000000000E+00  0.00000000000E+00  0.10000000000E+04  0.10000000000E+04  0.00000000000E+00 0. -1.
          2   -1    0    0  501    0 -0.00000000000E+00 -0.00000000000E+00 -0.84489750119E+02  0.84489750119E+02  0.00000000000E+00 0. -1.
    9000006    2    1    2  501    0  0.00000000000E+00  0.00000000000E+00  0.91551024988E+03  0.10844897501E+04  0.58134241242E+03 0.  0.
         13    1    3    3    0    0 -0.79535799924E+02  0.27827922480E+03  0.40754323683E+03  0.49985673978E+03  0.00000000000E+00 0. -1.
          4    1    3    3  501    0  0.79535799924E+02 -0.27827922480E+03  0.50796701305E+03  0.58463301034E+03  0.00000000000E+00 0. -1.
<mgrwt>
<rscale>  0 0.58134241E+03</rscale>
<asrwt>0</asrwt>
<pdfrwt beam="1">0</pdfrwt>
<pdfrwt beam="2">  1        2 0.30723610E+00 0.58134241E+03</pdfrwt>
<totfact> 0.86981125E+00</totfact>
</mgrwt>
</event>
<event>
 5    1  0.2354746E-004  0.6553042E+03  0.7818608E-02  0.9796877E-01
         13   -1    0    0    0    0  0.00000000000E+00  0.00000000000E+00  0.10000000000E+04  0.10000000000E+04  0.00000000000E+00 0. -1.
          2   -1    0    0  501    0 -0.00000000000E+00 -0.00000000000E+00 -0.10735589937E+03  0.10735589937E+03  0.00000000000E+00 0. -1.
    9000006    2    1    2  501    0  0.00000000000E+00  0.00000000000E+00  0.89264410063E+03  0.11073558994E+04  0.65530420225E+03 0.  0.
         13    1    3    3    0    0 -0.24742482005E+03  0.19346575889E+03  0.60401051987E+03  0.68079126724E+03  0.00000000000E+00 0. -1.
          4    1    3    3  501    0  0.24742482005E+03 -0.19346575889E+03  0.28863358076E+03  0.42656463213E+03  0.00000000000E+00 0. -1.
<mgrwt>
<rscale>  0 0.65530420E+03</rscale>
<asrwt>0</asrwt>
<pdfrwt beam="1">0</pdfrwt>
<pdfrwt beam="2">  1        2 0.39038591E+00 0.65530420E+03</pdfrwt>
<totfact> 0.43244300E+00</totfact>
</mgrwt>
</event>
<event>
 5    1  0.2354746E-004  0.6449815E+03  0.7818608E-02  0.9816242E-01
         13   -1    0    0    0    0  0.00000000000E+00  0.00000000000E+00  0.10000000000E+04  0.10000000000E+04  0.00000000000E+00 0. -1.
          2   -1    0    0  501    0 -0.00000000000E+00 -0.00000000000E+00 -0.10400029620E+03  0.10400029620E+03  0.00000000000E+00 0. -1.
    9000006    2    1    2  501    0  0.00000000000E+00  0.00000000000E+00  0.89599970380E+03  0.11040002962E+04  0.64498153833E+03 0.  0.
         13    1    3    3    0    0 -0.11537287893E+03 -0.28462508091E+03  0.27961082788E+03  0.41533667422E+03  0.00000000000E+00 0. -1.
          2    1    3    3  501    0  0.11537287893E+03  0.28462508091E+03  0.61638887592E+03  0.68866362198E+03  0.00000000000E+00 0. -1.
<mgrwt>
<rscale>  0 0.64498154E+03</rscale>
<asrwt>0</asrwt>
<pdfrwt beam="1">0</pdfrwt>
<pdfrwt beam="2">  1        2 0.37818369E+00 0.64498154E+03</pdfrwt>
<totfact> 0.48023541E+00</totfact>
</mgrwt>
</event>
<event>
 5    1  0.2354746E-004  0.6516892E+03  0.7818608E-02  0.9803615E-01
         13   -1    0    0    0    0  0.00000000000E+00  0.00000000000E+00  0.10000000000E+04  0.10000000000E+04  0.00000000000E+00 0. -1.
          2   -1    0    0  501    0 -0.00000000000E+00 -0.00000000000E+00 -0.10617471929E+03  0.10617471929E+03  0.00000000000E+00 0. -1.
    9000006    2    1    2  501    0  0.00000000000E+00  0.00000000000E+00  0.89382528071E+03  0.11061747193E+04  0.65168924893E+03 0.  0.
         13    1    3    3    0    0 -0.27246541575E+03  0.15774978519E+03  0.30436854482E+03  0.43790707757E+03  0.00000000000E+00 0. -1.
          2    1    3    3  501    0  0.27246541575E+03 -0.15774978519E+03  0.58945673588E+03  0.66826764173E+03  0.00000000000E+00 0. -1.
<mgrwt>
<rscale>  0 0.65168925E+03</rscale>
<asrwt>0</asrwt>
<pdfrwt beam="1">0</pdfrwt>
<pdfrwt beam="2">  1        2 0.38609070E+00 0.65168925E+03</pdfrwt>
<totfact> 0.44875018E+00</totfact>
</mgrwt>
</event>
<event>
 5    1  0.2354746E-004  0.6545880E+03  0.7818608E-02  0.9798208E-01
         13   -1    0    0    0    0  0.00000000000E+00  0.00000000000E+00  0.10000000000E+04  0.10000000000E+04  0.00000000000E+00 0. -1.
          2   -1    0    0  501    0 -0.00000000000E+00 -0.00000000000E+00 -0.10712135060E+03  0.10712135060E+03  0.00000000000E+00 0. -1.
    9000006    2    1    2  501    0  0.00000000000E+00  0.00000000000E+00  0.89287864940E+03  0.11071213506E+04  0.65458796384E+03 0.  0.
         13    1    3    3    0    0  0.17312289315E+03  0.25374905717E+03  0.63750095818E+03  0.70764934242E+03  0.00000000000E+00 0. -1.
          2    1    3    3  501    0 -0.17312289315E+03 -0.25374905717E+03  0.25537769122E+03  0.39947200818E+03  0.00000000000E+00 0. -1.
<mgrwt>
<rscale>  0 0.65458796E+03</rscale>
<asrwt>0</asrwt>
<pdfrwt beam="1">0</pdfrwt>
<pdfrwt beam="2">  1        2 0.38953301E+00 0.65458796E+03</pdfrwt>
<totfact> 0.43563783E+00</totfact>
</mgrwt>
</event>
<event>
 5    1  0.2354746E-004  0.6442698E+03  0.7818608E-02  0.9817591E-01
         13   -1    0    0    0    0  0.00000000000E+00  0.00000000000E+00  0.10000000000E+04  0.10000000000E+04  0.00000000000E+00 0. -1.
          2   -1    0    0  501    0 -0.00000000000E+00 -0.00000000000E+00 -0.10377087820E+03  0.10377087820E+03  0.00000000000E+00 0. -1.
    9000006    2    1    2  501    0  0.00000000000E+00  0.00000000000E+00  0.89622912180E+03  0.11037708782E+04  0.64426975158E+03 0.  0.
         13    1    3    3    0    0 -0.61463115950E+02  0.76604383369E+01 -0.93473236964E+02  0.11213225658E+03  0.00000000000E+00 0. -1.
          4    1    3    3  501    0  0.61463115950E+02 -0.76604383369E+01  0.98970235876E+03  0.99163862162E+03  0.00000000000E+00 0. -1.
<mgrwt>
<rscale>  0 0.64426975E+03</rscale>
<asrwt>0</asrwt>
<pdfrwt beam="1">0</pdfrwt>
<pdfrwt beam="2">  1        2 0.37734944E+00 0.64426975E+03</pdfrwt>
<totfact> 0.48367188E+00</totfact>
</mgrwt>
</event>
<event>
 5    1  0.2354746E-004  0.6325362E+03  0.7818608E-02  0.9840112E-01
         13   -1    0    0    0    0  0.00000000000E+00  0.00000000000E+00  0.10000000000E+04  0.10000000000E+04  0.00000000000E+00 0. -1.
          2   -1    0    0  501    0 -0.00000000000E+00 -0.00000000000E+00 -0.10002551925E+03  0.10002551925E+03  0.00000000000E+00 0. -1.
    9000006    2    1    2  501    0  0.00000000000E+00  0.00000000000E+00  0.89997448075E+03  0.11000255193E+04  0.63253622585E+03 0.  0.
         13    1    3    3    0    0  0.30866527056E+03 -0.19148956050E+02  0.56514195603E+03  0.64422539708E+03  0.00000000000E+00 0. -1.
          2    1    3    3  501    0 -0.30866527056E+03  0.19148956050E+02  0.33483252471E+03  0.45580012218E+03  0.00000000000E+00 0. -1.
<mgrwt>
<rscale>  0 0.63253623E+03</rscale>
<asrwt>0</asrwt>
<pdfrwt beam="1">0</pdfrwt>
<pdfrwt beam="2">  1        2 0.36372993E+00 0.63253623E+03</pdfrwt>
<totfact> 0.54305573E+00</totfact>
</mgrwt>
</event>
<event>
 5    1  0.2354746E-004  0.6429223E+03  0.7818608E-02  0.9820151E-01
         13   -1    0    0    0    0  0.00000000000E+00  0.00000000000E+00  0.10000000000E+04  0.10000000000E+04  0.00000000000E+00 0. -1.
          2   -1    0    0  501    0 -0.00000000000E+00 -0.00000000000E+00 -0.10333728561E+03  0.10333728561E+03  0.00000000000E+00 0. -1.
    9000006    2    1    2  501    0  0.00000000000E+00  0.00000000000E+00  0.89666271439E+03  0.11033372856E+04  0.64292234558E+03 0.  0.
         13    1    3    3    0    0 -0.11189694609E+03 -0.25467387691E+03  0.72482289062E+03  0.77636842600E+03  0.00000000000E+00 0. -1.
          4    1    3    3  501    0  0.11189694609E+03  0.25467387691E+03  0.17183982376E+03  0.32696885961E+03  0.00000000000E+00 0. -1.
<mgrwt>
<rscale>  0 0.64292235E+03</rscale>
<asrwt>0</asrwt>
<pdfrwt beam="1">0</pdfrwt>
<pdfrwt beam="2">  1        2 0.37577274E+00 0.64292235E+03</pdfrwt>
<totfact> 0.49022801E+00</totfact>
</mgrwt>
</event>
<event>
 5    1  0.2354746E-004  0.6345466E+03  0.7818608E-02  0.9836216E-01
         13   -1    0    0    0    0  0.00000000000E+00  0.00000000000E+00  0.10000000000E+04  0.10000000000E+04  0.00000000000E+00 0. -1.
          2   -1    0    0  501    0 -0.00000000000E+00 -0.00000000000E+00 -0.10066234864E+03  0.10066234864E+03  0.00000000000E+00 0. -1.
    9000006    2    1    2  501    0  0.00000000000E+00  0.00000000000E+00  0.89933765136E+03  0.11006623486E+04  0.63454660552E+03 0.  0.
         13    1    3    3    0    0 -0.44535109650E+02  0.27569306888E+03  0.71084792347E+03  0.76373739893E+03  0.00000000000E+00 0. -1.
          4    1    3    3  501    0  0.44535109650E+02 -0.27569306888E+03  0.18848972789E+03  0.33692494972E+03  0.00000000000E+00 0. -1.
<mgrwt>
<rscale>  0 0.63454661E+03</rscale>
<asrwt>0</asrwt>
<pdfrwt beam="1">0</pdfrwt>
<pdfrwt beam="2">  1        2 0.36604568E+00 0.63454661E+03</pdfrwt>
<totfact> 0.53250872E+00</totfact>
</mgrwt>
</event>
<event>
 5    1  0.2354746E-004  0.6530928E+03  0.7818608E-02  0.9800993E-01
         13   -1    0    0    0    0  0.00000000000E+00  0.00000000000E+00  0.10000000000E+04  0.10000000000E+04  0.00000000000E+00 0. -1.
          2   -1    0    0  501    0 -0.00000000000E+00 -0.00000000000E+00 -0.10663255353E+03  0.10663255353E+03  0.00000000000E+00 0. -1.
    9000006    2    1    2  501    0  0.00000000000E+00  0.00000000000E+00  0.89336744647E+03  0.11066325535E+04  0.65309280665E+03 0.  0.
         13    1    3    3    0    0 -0.27305836873E+03  0.40042276008E+02  0.74245270818E+03  0.79208603099E+03  0.00000000000E+00 0. -1.
          2    1    3    3  501    0  0.27305836873E+03 -0.40042276008E+02  0.15091473829E+03  0.31454652253E+03  0.00000000000E+00 0. -1.
<mgrwt>
<rscale>  0 0.65309281E+03</rscale>
<asrwt>0</asrwt>
<pdfrwt beam="1">0</pdfrwt>
<pdfrwt beam="2">  1        2 0.38775556E+00 0.65309281E+03</pdfrwt>
<totfact> 0.44236450E+00</totfact>
</mgrwt>
</event>
<event>
 5    1  0.2354746E-004  0.6488218E+03  0.7818608E-02  0.9808992E-01
         13   -1    0    0    0    0  0.00000000000E+00  0.00000000000E+00  0.10000000000E+04  0.10000000000E+04  0.00000000000E+00 0. -1.
          2   -1    0    0  501    0 -0.00000000000E+00 -0.00000000000E+00 -0.10524243490E+03  0.10524243490E+03  0.00000000000E+00 0. -1.
    9000006    2    1    2  501    0  0.00000000000E+00  0.00000000000E+00  0.89475756510E+03  0.11052424349E+04  0.64882180882E+03 0.  0.
         13    1    3    3    0    0 -0.24429715738E+03 -0.19805590597E+03  0.58296389301E+03  0.66238519273E+03  0.00000000000E+00 0. -1.
          4    1    3    3  501    0  0.24429715738E+03  0.19805590597E+03  0.31179367209E+03  0.44285724217E+03  0.00000000000E+00 0. -1.
<mgrwt>
<rscale>  0 0.64882181E+03</rscale>
<asrwt>0</asrwt>
<pdfrwt beam="1">0</pdfrwt>
<pdfrwt beam="2">  1        2 0.38270057E+00 0.64882181E+03</pdfrwt>
<totfact> 0.46201228E+00</totfact>
</mgrwt>
</event>
<event>
 5    1  0.2354746E-004  0.6350520E+03  0.7818608E-02  0.9835240E-01
         13   -1    0    0    0    0  0.00000000000E+00  0.00000000000E+00  0.10000000000E+04  0.10000000000E+04  0.00000000000E+00 0. -1.
          2   -1    0    0  501    0 -0.00000000000E+00 -0.00000000000E+00 -0.10082275853E+03  0.10082275853E+03  0.00000000000E+00 0. -1.
    9000006    2    1    2  501    0  0.00000000000E+00  0.00000000000E+00  0.89917724147E+03  0.11008227585E+04  0.63505199323E+03 0.  0.
         13    1    3    3    0    0  0.15536650032E+03  0.23562520501E+03  0.70177110112E+03  0.75639980501E+03  0.00000000000E+00 0. -1.
          2    1    3    3  501    0 -0.15536650032E+03 -0.23562520501E+03  0.19740614036E+03  0.34442295351E+03  0.00000000000E+00 0. -1.
<mgrwt>
<rscale>  0 0.63505199E+03</rscale>
<asrwt>0</asrwt>
<pdfrwt beam="1">0</pdfrwt>
<pdfrwt beam="2">  1        2 0.36662899E+00 0.63505199E+03</pdfrwt>
<totfact> 0.52988193E+00</totfact>
</mgrwt>
</event>
<event>
 5    1  0.2354746E-004  0.6465849E+03  0.7818608E-02  0.9813209E-01
         13   -1    0    0    0    0  0.00000000000E+00  0.00000000000E+00  0.10000000000E+04  0.10000000000E+04  0.00000000000E+00 0. -1.
          2   -1    0    0  501    0 -0.00000000000E+00 -0.00000000000E+00 -0.10451799984E+03  0.10451799984E+03  0.00000000000E+00 0. -1.
    9000006    2    1    2  501    0  0.00000000000E+00  0.00000000000E+00  0.89548200016E+03  0.11045179998E+04  0.64658487406E+03 0.  0.
         13    1    3    3    0    0  0.27986589895E+03  0.15975113705E+03  0.49204497450E+03  0.58817820779E+03  0.00000000000E+00 0. -1.
          4    1    3    3  501    0 -0.27986589895E+03 -0.15975113705E+03  0.40343702566E+03  0.51633979205E+03  0.00000000000E+00 0. -1.
<mgrwt>
<rscale>  0 0.64658487E+03</rscale>
<asrwt>0</asrwt>
<pdfrwt beam="1">0</pdfrwt>
<pdfrwt beam="2">  1        2 0.38006626E+00 0.64658487E+03</pdfrwt>
<totfact> 0.47256228E+00</totfact>
</mgrwt>
</event>
<event>
 5    1  0.2354746E-004  0.6422277E+03  0.7818608E-02  0.9821474E-01
         13   -1    0    0    0    0  0.00000000000E+00  0.00000000000E+00  0.10000000000E+04  0.10000000000E+04  0.00000000000E+00 0. -1.
          2   -1    0    0  501    0 -0.00000000000E+00 -0.00000000000E+00 -0.10311410680E+03  0.10311410680E+03  0.00000000000E+00 0. -1.
    9000006    2    1    2  501    0  0.00000000000E+00  0.00000000000E+00  0.89688589320E+03  0.11031141068E+04  0.64222770667E+03 0.  0.
         13    1    3    3    0    0 -0.25057740751E+03  0.18821402951E+03  0.32820162044E+03  0.45379495559E+03  0.00000000000E+00 0. -1.
          4    1    3    3  501    0  0.25057740751E+03 -0.18821402951E+03  0.56868427275E+03  0.64931915122E+03  0.00000000000E+00 0. -1.
<mgrwt>
<rscale>  0 0.64222771E+03</rscale>
<asrwt>0</asrwt>
<pdfrwt beam="1">0</pdfrwt>
<pdfrwt beam="2">  1        2 0.37496118E+00 0.64222771E+03</pdfrwt>
<totfact> 0.49363432E+00</totfact>
</mgrwt>
</event>
<event>
 5    1  0.2354746E-004  0.6849878E+03  0.7818608E-02  0.9743255E-01
         13   -1    0    0    0    0  0.00000000000E+00  0.00000000000E+00  0.10000000000E+04  0.10000000000E+04  0.00000000000E+00 0. -1.
          2   -1    0    0  501    0 -0.00000000000E+00 -0.00000000000E+00 -0.11730207521E+03  0.11730207521E+03  0.00000000000E+00 0. -1.
    9000006    2    1    2  501    0  0.00000000000E+00  0.00000000000E+00  0.88269792479E+03  0.11173020752E+04  0.68498781071E+03 0.  0.
         13    1    3    3    0    0  0.32854134410E+03  0.96668294893E+02  0.43444769806E+03  0.55319885789E+03  0.00000000000E+00 0. -1.
          4    1    3    3  501    0 -0.32854134410E+03 -0.96668294893E+02  0.44825022674E+03  0.56410321732E+03  0.00000000000E+00 0. -1.
<mgrwt>
<rscale>  0 0.68498781E+03</rscale>
<asrwt>0</asrwt>
<pdfrwt beam="1">0</pdfrwt>
<pdfrwt beam="2">  1        2 0.42655390E+00 0.68498781E+03</pdfrwt>
<totfact> 0.31484856E+00</totfact>
</mgrwt>
</event>
<event>
 5    1  0.2354746E-004  0.6553884E+03  0.7818608E-02  0.9796720E-01
         13   -1    0    0    0    0  0.00000000000E+00  0.00000000000E+00  0.10000000000E+04  0.10000000000E+04  0.00000000000E+00 0. -1.
          2   -1    0    0  501    0 -0.00000000000E+00 -0.00000000000E+00 -0.10738348417E+03  0.10738348417E+03  0.00000000000E+00 0. -1.
    9000006    2    1    2  501    0  0.00000000000E+00  0.00000000000E+00  0.89261651583E+03  0.11073834842E+04  0.65538838614E+03 0.  0.
         13    1    3    3    0    0  0.13456038199E+03 -0.23981216244E+03  0.74746194532E+03  0.79643940721E+03  0.00000000000E+00 0. -1.
          2    1    3    3  501    0 -0.13456038199E+03  0.23981216244E+03  0.14515457050E+03  0.31094407696E+03  0.00000000000E+00 0. -1.
<mgrwt>
<rscale>  0 0.65538839E+03</rscale>
<asrwt>0</asrwt>
<pdfrwt beam="1">0</pdfrwt>
<pdfrwt beam="2">  1        2 0.39048622E+00 0.65538839E+03</pdfrwt>
<totfact> 0.43206866E+00</totfact>
</mgrwt>
</event>
<event>
 5    1  0.2354746E-004  0.6590283E+03  0.7818608E-02  0.9789984E-01
         13   -1    0    0    0    0  0.00000000000E+00  0.00000000000E+00  0.10000000000E+04  0.10000000000E+04  0.00000000000E+00 0. -1.
          2   -1    0    0  501    0 -0.00000000000E+00 -0.00000000000E+00 -0.10857958136E+03  0.10857958136E+03  0.00000000000E+00 0. -1.
    9000006    2    1    2  501    0  0.00000000000E+00  0.00000000000E+00  0.89142041864E+03  0.11085795814E+04  0.65902831916E+03 0.  0.
         13    1    3    3    0    0 -0.34320056833E+02  0.58083784999E+02  0.98825787539E+03  0.99055803498E+03  0.00000000000E+00 0. -1.
          2    1    3    3  501    0  0.34320056833E+02 -0.58083784999E+02 -0.96837456756E+02  0.11802154639E+03  0.00000000000E+00 0. -1.
<mgrwt>
<rscale>  0 0.65902832E+03</rscale>
<asrwt>0</asrwt>
<pdfrwt beam="1">0</pdfrwt>
<pdfrwt beam="2">  1        2 0.39483567E+00 0.65902832E+03</pdfrwt>
<totfact> 0.41611581E+00</totfact>
</mgrwt>
</event>
<event>
 5    1  0.2354746E-004  0.6393311E+03  0.7818608E-02  0.9827007E-01
         13   -1    0    0    0    0  0.00000000000E+00  0.00000000000E+00  0.10000000000E+04  0.10000000000E+04  0.00000000000E+00 0. -1.
          2   -1    0    0  501    0 -0.00000000000E+00 -0.00000000000E+00 -0.10218606645E+03  0.10218606645E+03  0.00000000000E+00 0. -1.
    9000006    2    1    2  501    0  0.00000000000E+00  0.00000000000E+00  0.89781393355E+03  0.11021860664E+04  0.63933110811E+03 0.  0.
         13    1    3    3    0    0 -0.20252212876E+02 -0.69979900528E+02  0.98549785485E+03  0.98818690566E+03  0.00000000000E+00 0. -1.
          2    1    3    3  501    0  0.20252212876E+02  0.69979900528E+02 -0.87683921302E+02  0.11399916078E+03  0.00000000000E+00 0. -1.
<mgrwt>
<rscale>  0 0.63933111E+03</rscale>
<asrwt>0</asrwt>
<pdfrwt beam="1">0</pdfrwt>
<pdfrwt beam="2">  1        2 0.37158648E+00 0.63933111E+03</pdfrwt>
<totfact> 0.50803241E+00</totfact>
</mgrwt>
</event>
<event>
 5    1  0.2354746E-004  0.6577907E+03  0.7818608E-02  0.9792269E-01
         13   -1    0    0    0    0  0.00000000000E+00  0.00000000000E+00  0.10000000000E+04  0.10000000000E+04  0.00000000000E+00 0. -1.
          2   -1    0    0  501    0 -0.00000000000E+00 -0.00000000000E+00 -0.10817214542E+03  0.10817214542E+03  0.00000000000E+00 0. -1.
    9000006    2    1    2  501    0  0.00000000000E+00  0.00000000000E+00  0.89182785458E+03  0.11081721454E+04  0.65779068228E+03 0.  0.
         13    1    3    3    0    0 -0.26921037787E+03  0.41190104102E+02  0.75656097456E+03  0.80408666228E+03  0.00000000000E+00 0. -1.
          4    1    3    3  501    0  0.26921037787E+03 -0.41190104102E+02  0.13526688002E+03  0.30408548314E+03  0.00000000000E+00 0. -1.
<mgrwt>
<rscale>  0 0.65779068E+03</rscale>
<asrwt>0</asrwt>
<pdfrwt beam="1">0</pdfrwt>
<pdfrwt beam="2">  1        2 0.39335409E+00 0.65779068E+03</pdfrwt>
<totfact> 0.42148905E+00</totfact>
</mgrwt>
</event>
<event>
 5    1  0.2354746E-004  0.6471902E+03  0.7818608E-02  0.9812066E-01
         13   -1    0    0    0    0  0.00000000000E+00  0.00000000000E+00  0.10000000000E+04  0.10000000000E+04  0.00000000000E+00 0. -1.
          2   -1    0    0  501    0 -0.00000000000E+00 -0.00000000000E+00 -0.10471378904E+03  0.10471378904E+03  0.00000000000E+00 0. -1.
    9000006    2    1    2  501    0  0.00000000000E+00  0.00000000000E+00  0.89528621096E+03  0.11047137890E+04  0.64719020093E+03 0.  0.
         13    1    3    3    0    0  0.75916493556E+02  0.92247048481E+02 -0.65691351447E+02  0.13633849641E+03  0.00000000000E+00 0. -1.
          2    1    3    3  501    0 -0.75916493556E+02 -0.92247048481E+02  0.96097756240E+03  0.96837529264E+03  0.00000000000E+00 0. -1.
<mgrwt>
<rscale>  0 0.64719020E+03</rscale>
<asrwt>0</asrwt>
<pdfrwt beam="1">0</pdfrwt>
<pdfrwt beam="2">  1        2 0.38077822E+00 0.64719020E+03</pdfrwt>
<totfact> 0.46968960E+00</totfact>
</mgrwt>
</event>
<event>
 5    1  0.2354746E-004  0.7286217E+03  0.7818608E-02  0.9669500E-01
         13   -1    0    0    0    0  0.00000000000E+00  0.00000000000E+00  0.10000000000E+04  0.10000000000E+04  0.00000000000E+00 0. -1.
          2   -1    0    0  501    0 -0.00000000000E+00 -0.00000000000E+00 -0.13272239852E+03  0.13272239852E+03  0.00000000000E+00 0. -1.
    9000006    2    1    2  501    0  0.00000000000E+00  0.00000000000E+00  0.86727760148E+03  0.11327223985E+04  0.72862170849E+03 0.  0.
         13    1    3    3    0    0 -0.20984517308E+02 -0.58725985588E+02 -0.12436281902E+03  0.13912297475E+03  0.00000000000E+00 0. -1.
          4    1    3    3  501    0  0.20984517308E+02  0.58725985588E+02  0.99164042050E+03  0.99359942377E+03  0.00000000000E+00 0. -1.
<mgrwt>
<rscale>  0 0.72862171E+03</rscale>
<asrwt>0</asrwt>
<pdfrwt beam="1">0</pdfrwt>
<pdfrwt beam="2">  1        2 0.48262792E+00 0.72862171E+03</pdfrwt>
<totfact> 0.18777637E+00</totfact>
</mgrwt>
</event>
<event>
 5    1  0.2354746E-004  0.4875543E+03  0.7818608E-02  0.1017079E+00
         13   -1    0    0    0    0  0.00000000000E+00  0.00000000000E+00  0.10000000000E+04  0.10000000000E+04  0.00000000000E+00 0. -1.
          2   -1    0    0  501    0 -0.00000000000E+00 -0.00000000000E+00 -0.59427310173E+02  0.59427310173E+02  0.00000000000E+00 0. -1.
    9000006    2    1    2  501    0  0.00000000000E+00  0.00000000000E+00  0.94057268983E+03  0.10594273102E+04  0.48755434640E+03 0.  0.
         13    1    3    3    0    0  0.57676607212E+02 -0.22467178431E+03  0.30734020145E+03  0.38504805039E+03  0.00000000000E+00 0. -1.
          2    1    3    3  501    0 -0.57676607212E+02  0.22467178431E+03  0.63323248838E+03  0.67437925978E+03  0.00000000000E+00 0. -1.
<mgrwt>
<rscale>  0 0.48755435E+03</rscale>
<asrwt>0</asrwt>
<pdfrwt beam="1">0</pdfrwt>
<pdfrwt beam="2">  1        2 0.21609977E+00 0.48755435E+03</pdfrwt>
<totfact> 0.18510281E+01</totfact>
</mgrwt>
</event>
<event>
 5    1  0.2354746E-004  0.6426618E+03  0.7818608E-02  0.9820647E-01
         13   -1    0    0    0    0  0.00000000000E+00  0.00000000000E+00  0.10000000000E+04  0.10000000000E+04  0.00000000000E+00 0. -1.
          2   -1    0    0  501    0 -0.00000000000E+00 -0.00000000000E+00 -0.10325354161E+03  0.10325354161E+03  0.00000000000E+00 0. -1.
    9000006    2    1    2  501    0  0.00000000000E+00  0.00000000000E+00  0.89674645839E+03  0.11032535416E+04  0.64266178230E+03 0.  0.
         13    1    3    3    0    0  0.31967836926E+03  0.30069982804E+02  0.42699518818E+03  0.53425027316E+03  0.00000000000E+00 0. -1.
          4    1    3    3  501    0 -0.31967836926E+03 -0.30069982804E+02  0.46975127021E+03  0.56900326845E+03  0.00000000000E+00 0. -1.
<mgrwt>
<rscale>  0 0.64266178E+03</rscale>
<asrwt>0</asrwt>
<pdfrwt beam="1">0</pdfrwt>
<pdfrwt beam="2">  1        2 0.37546822E+00 0.64266178E+03</pdfrwt>
<totfact> 0.49150359E+00</totfact>
</mgrwt>
</event>
<event>
 5    1  0.2354746E-004  0.6481522E+03  0.7818608E-02  0.9810253E-01
         13   -1    0    0    0    0  0.00000000000E+00  0.00000000000E+00  0.10000000000E+04  0.10000000000E+04  0.00000000000E+00 0. -1.
          2   -1    0    0  501    0 -0.00000000000E+00 -0.00000000000E+00 -0.10502531585E+03  0.10502531585E+03  0.00000000000E+00 0. -1.
    9000006    2    1    2  501    0  0.00000000000E+00  0.00000000000E+00  0.89497468415E+03  0.11050253158E+04  0.64815219154E+03 0.  0.
         13    1    3    3    0    0  0.17137287937E+03 -0.21854461960E+03  0.73223335290E+03  0.78313223510E+03  0.00000000000E+00 0. -1.
          2    1    3    3  501    0 -0.17137287937E+03  0.21854461960E+03  0.16274133125E+03  0.32189308075E+03  0.00000000000E+00 0. -1.
<mgrwt>
<rscale>  0 0.64815219E+03</rscale>
<asrwt>0</asrwt>
<pdfrwt beam="1">0</pdfrwt>
<pdfrwt beam="2">  1        2 0.38191104E+00 0.64815219E+03</pdfrwt>
<totfact> 0.46515151E+00</totfact>
</mgrwt>
</event>
<event>
 5    1  0.2354746E-004  0.6465300E+03  0.7818608E-02  0.9813312E-01
         13   -1    0    0    0    0  0.00000000000E+00  0.00000000000E+00  0.10000000000E+04  0.10000000000E+04  0.00000000000E+00 0. -1.
          2   -1    0    0  501    0 -0.00000000000E+00 -0.00000000000E+00 -0.10450024696E+03  0.10450024696E+03  0.00000000000E+00 0. -1.
    9000006    2    1    2  501    0  0.00000000000E+00  0.00000000000E+00  0.89549975304E+03  0.11045002470E+04  0.64652995896E+03 0.  0.
         13    1    3    3    0    0  0.12979031971E+02  0.32296464268E+03  0.43910095053E+03  0.54523780174E+03  0.00000000000E+00 0. -1.
          2    1    3    3  501    0 -0.12979031971E+02 -0.32296464268E+03  0.45639880251E+03  0.55926244522E+03  0.00000000000E+00 0. -1.
<mgrwt>
<rscale>  0 0.64652996E+03</rscale>
<asrwt>0</asrwt>
<pdfrwt beam="1">0</pdfrwt>
<pdfrwt beam="2">  1        2 0.38000170E+00 0.64652996E+03</pdfrwt>
<totfact> 0.47282354E+00</totfact>
</mgrwt>
</event>
<event>
 5    1  0.2354746E-004  0.6913474E+03  0.7818608E-02  0.9732145E-01
         13   -1    0    0    0    0  0.00000000000E+00  0.00000000000E+00  0.10000000000E+04  0.10000000000E+04  0.00000000000E+00 0. -1.
          2   -1    0    0  501    0 -0.00000000000E+00 -0.00000000000E+00 -0.11949029364E+03  0.11949029364E+03  0.00000000000E+00 0. -1.
    9000006    2    1    2  501    0  0.00000000000E+00  0.00000000000E+00  0.88050970636E+03  0.11194902936E+04  0.69134736173E+03 0.  0.
         13    1    3    3    0    0 -0.57288640970E+02  0.32845569434E+03  0.58800243182E+03  0.67595265467E+03  0.00000000000E+00 0. -1.
          2    1    3    3  501    0  0.57288640970E+02 -0.32845569434E+03  0.29250727454E+03  0.44353763897E+03  0.00000000000E+00 0. -1.
<mgrwt>
<rscale>  0 0.69134736E+03</rscale>
<asrwt>0</asrwt>
<pdfrwt beam="1">0</pdfrwt>
<pdfrwt beam="2">  1        2 0.43451107E+00 0.69134736E+03</pdfrwt>
<totfact> 0.29316867E+00</totfact>
</mgrwt>
</event>
<event>
 5    1  0.2354746E-004  0.6645623E+03  0.7818608E-02  0.9779831E-01
         13   -1    0    0    0    0  0.00000000000E+00  0.00000000000E+00  0.10000000000E+04  0.10000000000E+04  0.00000000000E+00 0. -1.
          2   -1    0    0  501    0 -0.00000000000E+00 -0.00000000000E+00 -0.11041075237E+03  0.11041075237E+03  0.00000000000E+00 0. -1.
    9000006    2    1    2  501    0  0.00000000000E+00  0.00000000000E+00  0.88958924763E+03  0.11104107524E+04  0.66456226907E+03 0.  0.
         13    1    3    3    0    0 -0.19295658780E+03 -0.25607320173E+03  0.59050760466E+03  0.67194118833E+03  0.00000000000E+00 0. -1.
          2    1    3    3  501    0  0.19295658780E+03  0.25607320173E+03  0.29908164297E+03  0.43846956403E+03  0.00000000000E+00 0. -1.
<mgrwt>
<rscale>  0 0.66456227E+03</rscale>
<asrwt>0</asrwt>
<pdfrwt beam="1">0</pdfrwt>
<pdfrwt beam="2">  1        2 0.40149449E+00 0.66456227E+03</pdfrwt>
<totfact> 0.39272025E+00</totfact>
</mgrwt>
</event>
<event>
 5    1  0.2354746E-004  0.6487190E+03  0.7818608E-02  0.9809186E-01
         13   -1    0    0    0    0  0.00000000000E+00  0.00000000000E+00  0.10000000000E+04  0.10000000000E+04  0.00000000000E+00 0. -1.
          2   -1    0    0  501    0 -0.00000000000E+00 -0.00000000000E+00 -0.10520907020E+03  0.10520907020E+03  0.00000000000E+00 0. -1.
    9000006    2    1    2  501    0  0.00000000000E+00  0.00000000000E+00  0.89479092980E+03  0.11052090702E+04  0.64871895364E+03 0.  0.
         13    1    3    3    0    0 -0.18401175336E+03  0.22549318605E+03  0.69133455028E+03  0.75010063508E+03  0.00000000000E+00 0. -1.
          2    1    3    3  501    0  0.18401175336E+03 -0.22549318605E+03  0.20345637951E+03  0.35510843512E+03  0.00000000000E+00 0. -1.
<mgrwt>
<rscale>  0 0.64871895E+03</rscale>
<asrwt>0</asrwt>
<pdfrwt beam="1">0</pdfrwt>
<pdfrwt beam="2">  1        2 0.38257924E+00 0.64871895E+03</pdfrwt>
<totfact> 0.46249343E+00</totfact>
</mgrwt>
</event>
<event>
 5    1  0.2354746E-004  0.6510175E+03  0.7818608E-02  0.9804872E-01
         13   -1    0    0    0    0  0.00000000000E+00  0.00000000000E+00  0.10000000000E+04  0.10000000000E+04  0.00000000000E+00 0. -1.
          2   -1    0    0  501    0 -0.00000000000E+00 -0.00000000000E+00 -0.10595593710E+03  0.10595593710E+03  0.00000000000E+00 0. -1.
    9000006    2    1    2  501    0  0.00000000000E+00  0.00000000000E+00  0.89404406290E+03  0.11059559371E+04  0.65101747164E+03 0.  0.
         13    1    3    3    0    0  0.57526177151E+02 -0.30478132121E+03  0.61480941938E+03  0.68861566710E+03  0.00000000000E+00 0. -1.
          2    1    3    3  501    0 -0.57526177151E+02  0.30478132121E+03  0.27923464352E+03  0.41734027000E+03  0.00000000000E+00 0. -1.
<mgrwt>
<rscale>  0 0.65101747E+03</rscale>
<asrwt>0</asrwt>
<pdfrwt beam="1">0</pdfrwt>
<pdfrwt beam="2">  1        2 0.38529513E+00 0.65101747E+03</pdfrwt>
<totfact> 0.45183105E+00</totfact>
</mgrwt>
</event>
<event>
 5    1  0.2354746E-004  0.6556333E+03  0.7818608E-02  0.9796266E-01
         13   -1    0    0    0    0  0.00000000000E+00  0.00000000000E+00  0.10000000000E+04  0.10000000000E+04  0.00000000000E+00 0. -1.
          2   -1    0    0  501    0 -0.00000000000E+00 -0.00000000000E+00 -0.10746374643E+03  0.10746374643E+03  0.00000000000E+00 0. -1.
    9000006    2    1    2  501    0  0.00000000000E+00  0.00000000000E+00  0.89253625357E+03  0.11074637464E+04  0.65563327075E+03 0.  0.
         13    1    3    3    0    0 -0.15180592134E+03 -0.53498949309E+02 -0.36121558845E+02  0.16496042660E+03  0.00000000000E+00 0. -1.
          4    1    3    3  501    0  0.15180592134E+03  0.53498949309E+02  0.92865781242E+03  0.94250331983E+03  0.00000000000E+00 0. -1.
<mgrwt>
<rscale>  0 0.65563327E+03</rscale>
<asrwt>0</asrwt>
<pdfrwt beam="1">0</pdfrwt>
<pdfrwt beam="2">  1        2 0.39077808E+00 0.65563327E+03</pdfrwt>
<totfact> 0.43098112E+00</totfact>
</mgrwt>
</event>
<event>
 5    1  0.2354746E-004  0.6484079E+03  0.7818608E-02  0.9809771E-01
         13   -1    0    0    0    0  0.00000000000E+00  0.00000000000E+00  0.10000000000E+04  0.10000000000E+04  0.00000000000E+00 0. -1.
          2   -1    0    0  501    0 -0.00000000000E+00 -0.00000000000E+00 -0.10510821517E+03  0.10510821517E+03  0.00000000000E+00 0. -1.
    9000006    2    1    2  501    0  0.00000000000E+00  0.00000000000E+00  0.89489178483E+03  0.11051082152E+04  0.64840794311E+03 0.  0.
         13    1    3    3    0    0  0.16715032780E+03 -0.27676998219E+03  0.40684964840E+03  0.51968018197E+03  0.00000000000E+00 0. -1.
          4    1    3    3  501    0 -0.16715032780E+03  0.27676998219E+03  0.48804213643E+03  0.58542803321E+03  0.00000000000E+00 0. -1.
<mgrwt>
<rscale>  0 0.64840794E+03</rscale>
<asrwt>0</asrwt>
<pdfrwt beam="1">0</pdfrwt>
<pdfrwt beam="2">  1        2 0.38221250E+00 0.64840794E+03</pdfrwt>
<totfact> 0.46395063E+00</totfact>
</mgrwt>
</event>
<event>
 5    1  0.2354746E-004  0.6518612E+03  0.7818608E-02  0.9803293E-01
         13   -1    0    0    0    0  0.00000000000E+00  0.00000000000E+00  0.10000000000E+04  0.10000000000E+04  0.00000000000E+00 0. -1.
          2   -1    0    0  501    0 -0.00000000000E+00 -0.00000000000E+00 -0.10623076341E+03  0.10623076341E+03  0.00000000000E+00 0. -1.
    9000006    2    1    2  501    0  0.00000000000E+00  0.00000000000E+00  0.89376923659E+03  0.11062307634E+04  0.65186122270E+03 0.  0.
         13    1    3    3    0    0 -0.25216368270E+03 -0.19899853285E+03  0.54051146274E+03  0.62876035205E+03  0.00000000000E+00 0. -1.
          2    1    3    3  501    0  0.25216368270E+03  0.19899853285E+03  0.35325777384E+03  0.47747041137E+03  0.00000000000E+00 0. -1.
<mgrwt>
<rscale>  0 0.65186122E+03</rscale>
<asrwt>0</asrwt>
<pdfrwt beam="1">0</pdfrwt>
<pdfrwt beam="2">  1        2 0.38629450E+00 0.65186122E+03</pdfrwt>
<totfact> 0.44796404E+00</totfact>
</mgrwt>
</event>
<event>
 5    1  0.2354746E-004  0.6459092E+03  0.7818608E-02  0.9814486E-01
         13   -1    0    0    0    0  0.00000000000E+00  0.00000000000E+00  0.10000000000E+04  0.10000000000E+04  0.00000000000E+00 0. -1.
          2   -1    0    0  501    0 -0.00000000000E+00 -0.00000000000E+00 -0.10429968347E+03  0.10429968347E+03  0.00000000000E+00 0. -1.
    9000006    2    1    2  501    0  0.00000000000E+00  0.00000000000E+00  0.89570031653E+03  0.11042996835E+04  0.64590923037E+03 0.  0.
         13    1    3    3    0    0 -0.16534416458E+03  0.15444554038E+02  0.92141200610E+03  0.93625707581E+03  0.00000000000E+00 0. -1.
          4    1    3    3  501    0  0.16534416458E+03 -0.15444554038E+02 -0.25711689571E+02  0.16804260766E+03  0.00000000000E+00 0. -1.
<mgrwt>
<rscale>  0 0.64590923E+03</rscale>
<asrwt>0</asrwt>
<pdfrwt beam="1">0</pdfrwt>
<pdfrwt beam="2">  1        2 0.37927238E+00 0.64590923E+03</pdfrwt>
<totfact> 0.47578433E+00</totfact>
</mgrwt>
</event>
<event>
 5    1  0.2354746E-004  0.6329781E+03  0.7818608E-02  0.9839254E-01
         13   -1    0    0    0    0  0.00000000000E+00  0.00000000000E+00  0.10000000000E+04  0.10000000000E+04  0.00000000000E+00 0. -1.
          2   -1    0    0  501    0 -0.00000000000E+00 -0.00000000000E+00 -0.10016532283E+03  0.10016532283E+03  0.00000000000E+00 0. -1.
    9000006    2    1    2  501    0  0.00000000000E+00  0.00000000000E+00  0.89983467717E+03  0.11001653228E+04  0.63297811282E+03 0.  0.
         13    1    3    3    0    0  0.29223976923E+03 -0.82079449638E+02  0.29422392497E+03  0.42273967971E+03  0.00000000000E+00 0. -1.
          4    1    3    3  501    0 -0.29223976923E+03  0.82079449638E+02  0.60561075220E+03  0.67742564312E+03  0.00000000000E+00 0. -1.
<mgrwt>
<rscale>  0 0.63297811E+03</rscale>
<asrwt>0</asrwt>
<pdfrwt beam="1">0</pdfrwt>
<pdfrwt beam="2">  1        2 0.36423831E+00 0.63297811E+03</pdfrwt>
<totfact> 0.54072400E+00</totfact>
</mgrwt>
</event>
<event>
 5    1  0.2354746E-004  0.6442727E+03  0.7818608E-02  0.9817586E-01
         13   -1    0    0    0    0  0.00000000000E+00  0.00000000000E+00  0.10000000000E+04  0.10000000000E+04  0.00000000000E+00 0. -1.
          2   -1    0    0  501    0 -0.00000000000E+00 -0.00000000000E+00 -0.10377181571E+03  0.10377181571E+03  0.00000000000E+00 0. -1.
    9000006    2    1    2  501    0  0.00000000000E+00  0.00000000000E+00  0.89622818429E+03  0.11037718157E+04  0.64427266187E+03 0.  0.
         13    1    3    3    0    0 -0.17641111446E+03 -0.12288248941E+03  0.37120183001E+02  0.21817171104E+03  0.00000000000E+00 0. -1.
          2    1    3    3  501    0  0.17641111446E+03  0.12288248941E+03  0.85910800129E+03  0.88560010467E+03  0.00000000000E+00 0. -1.
<mgrwt>
<rscale>  0 0.64427266E+03</rscale>
<asrwt>0</asrwt>
<pdfrwt beam="1">0</pdfrwt>
<pdfrwt beam="2">  1        2 0.37735285E+00 0.64427266E+03</pdfrwt>
<totfact> 0.48365779E+00</totfact>
</mgrwt>
</event>
<event>
 5    1  0.2354746E-004  0.6618213E+03  0.7818608E-02  0.9784847E-01
         13   -1    0    0    0    0  0.00000000000E+00  0.00000000000E+00  0.10000000000E+04  0.10000000000E+04  0.00000000000E+00 0. -1.
          2   -1    0    0  501    0 -0.00000000000E+00 -0.00000000000E+00 -0.10950187415E+03  0.10950187415E+03  0.00000000000E+00 0. -1.
    9000006    2    1    2  501    0  0.00000000000E+00  0.00000000000E+00  0.89049812585E+03  0.11095018741E+04  0.66182134793E+03 0.  0.
         13    1    3    3    0    0 -0.23224223096E+03 -0.19690007224E+03  0.66251286788E+03  0.72912920144E+03  0.00000000000E+00 0. -1.
          4    1    3    3  501    0  0.23224223096E+03  0.19690007224E+03  0.22798525797E+03  0.38037267271E+03  0.00000000000E+00 0. -1.
<mgrwt>
<rscale>  0 0.66182135E+03</rscale>
<asrwt>0</asrwt>
<pdfrwt beam="1">0</pdfrwt>
<pdfrwt beam="2">  1        2 0.39818947E+00 0.66182135E+03</pdfrwt>
<totfact> 0.40418022E+00</totfact>
</mgrwt>
</event>
<event>
 5    1  0.2354746E-004  0.6298596E+03  0.7818608E-02  0.9845323E-01
         13   -1    0    0    0    0  0.00000000000E+00  0.00000000000E+00  0.10000000000E+04  0.10000000000E+04  0.00000000000E+00 0. -1.
          2   -1    0    0  501    0 -0.00000000000E+00 -0.00000000000E+00 -0.99180768747E+02  0.99180768747E+02  0.00000000000E+00 0. -1.
    9000006    2    1    2  501    0  0.00000000000E+00  0.00000000000E+00  0.90081923125E+03  0.10991807687E+04  0.62985956767E+03 0.  0.
         13    1    3    3    0    0 -0.87450159952E+02 -0.28692999173E+03  0.28298336182E+03  0.41237838655E+03  0.00000000000E+00 0. -1.
          4    1    3    3  501    0  0.87450159952E+02  0.28692999173E+03  0.61783586943E+03  0.68680238219E+03  0.00000000000E+00 0. -1.
<mgrwt>
<rscale>  0 0.62985957E+03</rscale>
<asrwt>0</asrwt>
<pdfrwt beam="1">0</pdfrwt>
<pdfrwt beam="2">  1        2 0.36065810E+00 0.62985957E+03</pdfrwt>
<totfact> 0.55734327E+00</totfact>
</mgrwt>
</event>
<event>
 5    1  0.2354746E-004  0.6381653E+03  0.7818608E-02  0.9829243E-01
         13   -1    0    0    0    0  0.00000000000E+00  0.00000000000E+00  0.10000000000E+04  0.10000000000E+04  0.00000000000E+00 0. -1.
          2   -1    0    0  501    0 -0.00000000000E+00 -0.00000000000E+00 -0.10181374117E+03  0.10181374117E+03  0.00000000000E+00 0. -1.
    9000006    2    1    2  501    0  0.00000000000E+00  0.00000000000E+00  0.89818625883E+03  0.11018137412E+04  0.63816531139E+03 0.  0.
         13    1    3    3    0    0 -0.58955324843E+01  0.30592899450E+03  0.29287825715E+03  0.42356225102E+03  0.00000000000E+00 0. -1.
          2    1    3    3  501    0  0.58955324843E+01 -0.30592899450E+03  0.60530800169E+03  0.67825149014E+03  0.00000000000E+00 0. -1.
<mgrwt>
<rscale>  0 0.63816531E+03</rscale>
<asrwt>0</asrwt>
<pdfrwt beam="1">0</pdfrwt>
<pdfrwt beam="2">  1        2 0.37023257E+00 0.63816531E+03</pdfrwt>
<totfact> 0.51391609E+00</totfact>
</mgrwt>
</event>
<event>
 5    1  0.2354746E-004  0.6494428E+03  0.7818608E-02  0.9807825E-01
         13   -1    0    0    0    0  0.00000000000E+00  0.00000000000E+00  0.10000000000E+04  0.10000000000E+04  0.00000000000E+00 0. -1.
          2   -1    0    0  501    0 -0.00000000000E+00 -0.00000000000E+00 -0.10544398948E+03  0.10544398948E+03  0.00000000000E+00 0. -1.
    9000006    2    1    2  501    0  0.00000000000E+00  0.00000000000E+00  0.89455601052E+03  0.11054439895E+04  0.64944280575E+03 0.  0.
         13    1    3    3    0    0 -0.31358442376E+03 -0.78048831533E+02  0.50156482869E+03  0.59665240158E+03  0.00000000000E+00 0. -1.
          4    1    3    3  501    0  0.31358442376E+03  0.78048831533E+02  0.39299118183E+03  0.50879158791E+03  0.00000000000E+00 0. -1.
<mgrwt>
<rscale>  0 0.64944281E+03</rscale>
<asrwt>0</asrwt>
<pdfrwt beam="1">0</pdfrwt>
<pdfrwt beam="2">  1        2 0.38343350E+00 0.64944281E+03</pdfrwt>
<totfact> 0.45911533E+00</totfact>
</mgrwt>
</event>
<event>
 5    1  0.2354746E-004  0.6486896E+03  0.7818608E-02  0.9809241E-01
         13   -1    0    0    0    0  0.00000000000E+00  0.00000000000E+00  0.10000000000E+04  0.10000000000E+04  0.00000000000E+00 0. -1.
          2   -1    0    0  501    0 -0.00000000000E+00 -0.00000000000E+00 -0.10519955320E+03  0.10519955320E+03  0.00000000000E+00 0. -1.
    9000006    2    1    2  501    0  0.00000000000E+00  0.00000000000E+00  0.89480044680E+03  0.11051995532E+04  0.64868961207E+03 0.  0.
         13    1    3    3    0    0  0.32222024644E+03 -0.27807397216E+02  0.48914761979E+03  0.58639963549E+03  0.00000000000E+00 0. -1.
          2    1    3    3  501    0 -0.32222024644E+03  0.27807397216E+02  0.40565282701E+03  0.51879991771E+03  0.00000000000E+00 0. -1.
<mgrwt>
<rscale>  0 0.64868961E+03</rscale>
<asrwt>0</asrwt>
<pdfrwt beam="1">0</pdfrwt>
<pdfrwt beam="2">  1        2 0.38254464E+00 0.64868961E+03</pdfrwt>
<totfact> 0.46263076E+00</totfact>
</mgrwt>
</event>
<event>
 5    1  0.2354746E-004  0.6532972E+03  0.7818608E-02  0.9800612E-01
         13   -1    0    0    0    0  0.00000000000E+00  0.00000000000E+00  0.10000000000E+04  0.10000000000E+04  0.00000000000E+00 0. -1.
          2   -1    0    0  501    0 -0.00000000000E+00 -0.00000000000E+00 -0.10669932265E+03  0.10669932265E+03  0.00000000000E+00 0. -1.
    9000006    2    1    2  501    0  0.00000000000E+00  0.00000000000E+00  0.89330067735E+03  0.11066993226E+04  0.65329724520E+03 0.  0.
         13    1    3    3    0    0 -0.26048848878E+03 -0.82496259197E+02  0.74987272118E+03  0.79810336645E+03  0.00000000000E+00 0. -1.
          2    1    3    3  501    0  0.26048848878E+03  0.82496259197E+02  0.14342795617E+03  0.30859595619E+03  0.00000000000E+00 0. -1.
<mgrwt>
<rscale>  0 0.65329725E+03</rscale>
<asrwt>0</asrwt>
<pdfrwt beam="1">0</pdfrwt>
<pdfrwt beam="2">  1        2 0.38799836E+00 0.65329725E+03</pdfrwt>
<totfact> 0.44144014E+00</totfact>
</mgrwt>
</event>
<event>
 5    1  0.2354746E-004  0.6303304E+03  0.7818608E-02  0.9844404E-01
         13   -1    0    0    0    0  0.00000000000E+00  0.00000000000E+00  0.10000000000E+04  0.10000000000E+04  0.00000000000E+00 0. -1.
          2   -1    0    0  501    0 -0.00000000000E+00 -0.00000000000E+00 -0.99329113365E+02  0.99329113365E+02  0.00000000000E+00 0. -1.
    9000006    2    1    2  501    0  0.00000000000E+00  0.00000000000E+00  0.90067088664E+03  0.10993291134E+04  0.63033043196E+03 0.  0.
         13    1    3    3    0    0 -0.20415795665E+03  0.86370608928E+02  0.84105278489E+03  0.86977591386E+03  0.00000000000E+00 0. -1.
          4    1    3    3  501    0  0.20415795665E+03 -0.86370608928E+02  0.59618101741E+02  0.22955319951E+03  0.00000000000E+00 0. -1.
<mgrwt>
<rscale>  0 0.63033043E+03</rscale>
<asrwt>0</asrwt>
<pdfrwt beam="1">0</pdfrwt>
<pdfrwt beam="2">  1        2 0.36119754E+00 0.63033043E+03</pdfrwt>
<totfact> 0.55480944E+00</totfact>
</mgrwt>
</event>
<event>
 5    1  0.2354746E-004  0.6479079E+03  0.7818608E-02  0.9810713E-01
         13   -1    0    0    0    0  0.00000000000E+00  0.00000000000E+00  0.10000000000E+04  0.10000000000E+04  0.00000000000E+00 0. -1.
          2   -1    0    0  501    0 -0.00000000000E+00 -0.00000000000E+00 -0.10494616360E+03  0.10494616360E+03  0.00000000000E+00 0. -1.
    9000006    2    1    2  501    0  0.00000000000E+00  0.00000000000E+00  0.89505383640E+03  0.11049461636E+04  0.64790790580E+03 0.  0.
         13    1    3    3    0    0  0.16391069569E+03 -0.47898685089E+02  0.91700998708E+03  0.93277452613E+03  0.00000000000E+00 0. -1.
          2    1    3    3  501    0 -0.16391069569E+03  0.47898685089E+02 -0.21956150680E+02  0.17217163747E+03  0.00000000000E+00 0. -1.
<mgrwt>
<rscale>  0 0.64790791E+03</rscale>
<asrwt>0</asrwt>
<pdfrwt beam="1">0</pdfrwt>
<pdfrwt beam="2">  1        2 0.38162322E+00 0.64790791E+03</pdfrwt>
<totfact> 0.46630075E+00</totfact>
</mgrwt>
</event>
<event>
 5    1  0.2354746E-004  0.6566132E+03  0.7818608E-02  0.9794448E-01
         13   -1    0    0    0    0  0.00000000000E+00  0.00000000000E+00  0.10000000000E+04  0.10000000000E+04  0.00000000000E+00 0. -1.
          2   -1    0    0  501    0 -0.00000000000E+00 -0.00000000000E+00 -0.10778523857E+03  0.10778523857E+03  0.00000000000E+00 0. -1.
    9000006    2    1    2  501    0  0.00000000000E+00  0.00000000000E+00  0.89221476143E+03  0.11077852386E+04  0.65661324560E+03 0.  0.
         13    1    3    3    0    0 -0.31123698731E+03  0.89868325693E+02  0.53602406829E+03  0.62631188718E+03  0.00000000000E+00 0. -1.
          4    1    3    3  501    0  0.31123698731E+03 -0.89868325693E+02  0.35619069313E+03  0.48147335140E+03  0.00000000000E+00 0. -1.
<mgrwt>
<rscale>  0 0.65661325E+03</rscale>
<asrwt>0</asrwt>
<pdfrwt beam="1">0</pdfrwt>
<pdfrwt beam="2">  1        2 0.39194715E+00 0.65661325E+03</pdfrwt>
<totfact> 0.42664968E+00</totfact>
</mgrwt>
</event>
<event>
 5    1  0.2354746E-004  0.6638592E+03  0.7818608E-02  0.9781115E-01
         13   -1    0    0    0    0  0.00000000000E+00  0.00000000000E+00  0.10000000000E+04  0.10000000000E+04  0.00000000000E+00 0. -1.
          2   -1    0    0  501    0 -0.00000000000E+00 -0.00000000000E+00 -0.11017725827E+03  0.11017725827E+03  0.00000000000E+00 0. -1.
    9000006    2    1    2  501    0  0.00000000000E+00  0.00000000000E+00  0.88982274173E+03  0.11101772583E+04  0.66385919672E+03 0.  0.
         13    1    3    3    0    0  0.32483534415E+03 -0.25314843125E+01  0.33084021772E+03  0.46365898986E+03  0.00000000000E+00 0. -1.
          4    1    3    3  501    0 -0.32483534415E+03  0.25314843125E+01  0.55898252402E+03  0.64651826840E+03  0.00000000000E+00 0. -1.
<mgrwt>
<rscale>  0 0.66385920E+03</rscale>
<asrwt>0</asrwt>
<pdfrwt beam="1">0</pdfrwt>
<pdfrwt beam="2">  1        2 0.40064542E+00 0.66385920E+03</pdfrwt>
<totfact> 0.39563616E+00</totfact>
</mgrwt>
</event>
<event>
 5    1  0.2354746E-004  0.6522687E+03  0.7818608E-02  0.9802531E-01
         13   -1    0    0    0    0  0.00000000000E+00  0.00000000000E+00  0.10000000000E+04  0.10000000000E+04  0.00000000000E+00 0. -1.
          2   -1    0    0  501    0 -0.00000000000E+00 -0.00000000000E+00 -0.10636361526E+03  0.10636361526E+03  0.00000000000E+00 0. -1.
    9000006    2    1    2  501    0  0.00000000000E+00  0.00000000000E+00  0.89363638474E+03  0.11063636153E+04  0.65226870310E+03 0.  0.
         13    1    3    3    0    0 -0.17757509804E+03 -0.99988351018E+02  0.14931818988E+02  0.20433684201E+03  0.00000000000E+00 0. -1.
          4    1    3    3  501    0  0.17757509804E+03  0.99988351018E+02  0.87870456575E+03  0.90202677325E+03  0.00000000000E+00 0. -1.
<mgrwt>
<rscale>  0 0.65226870E+03</rscale>
<asrwt>0</asrwt>
<pdfrwt beam="1">0</pdfrwt>
<pdfrwt beam="2">  1        2 0.38677760E+00 0.65226870E+03</pdfrwt>
<totfact> 0.44610549E+00</totfact>
</mgrwt>
</event>
<event>
 5    1  0.2354746E-004  0.6487676E+03  0.7818608E-02  0.9809094E-01
         13   -1    0    0    0    0  0.00000000000E+00  0.00000000000E+00  0.10000000000E+04  0.10000000000E+04  0.00000000000E+00 0. -1.
          2   -1    0    0  501    0 -0.00000000000E+00 -0.00000000000E+00 -0.10522486051E+03  0.10522486051E+03  0.00000000000E+00 0. -1.
    9000006    2    1    2  501    0  0.00000000000E+00  0.00000000000E+00  0.89477513949E+03  0.11052248605E+04  0.64876763331E+03 0.  0.
         13    1    3    3    0    0  0.16104196264E+03  0.22506326564E+03  0.73567404530E+03  0.78600527238E+03  0.00000000000E+00 0. -1.
          4    1    3    3  501    0 -0.16104196264E+03 -0.22506326564E+03  0.15910109419E+03  0.31921958813E+03  0.00000000000E+00 0. -1.
<mgrwt>
<rscale>  0 0.64876763E+03</rscale>
<asrwt>0</asrwt>
<pdfrwt beam="1">0</pdfrwt>
<pdfrwt beam="2">  1        2 0.38263666E+00 0.64876763E+03</pdfrwt>
<totfact> 0.46226566E+00</totfact>
</mgrwt>
</event>
<event>
 5    1  0.2354746E-004  0.6197513E+03  0.7818608E-02  0.9865255E-01
         13   -1    0    0    0    0  0.00000000000E+00  0.00000000000E+00  0.10000000000E+04  0.10000000000E+04  0.00000000000E+00 0. -1.
          2   -1    0    0  501    0 -0.00000000000E+00 -0.00000000000E+00 -0.96022926460E+02  0.96022926460E+02  0.00000000000E+00 0. -1.
    9000006    2    1    2  501    0  0.00000000000E+00  0.00000000000E+00  0.90397707354E+03  0.10960229265E+04  0.61975132581E+03 0.  0.
         13    1    3    3    0    0 -0.13220957156E+03  0.43685260890E+02 -0.37583033856E+02  0.14422294292E+03  0.00000000000E+00 0. -1.
          4    1    3    3  501    0  0.13220957156E+03 -0.43685260890E+02  0.94156010740E+03  0.95179998354E+03  0.00000000000E+00 0. -1.
<mgrwt>
<rscale>  0 0.61975133E+03</rscale>
<asrwt>0</asrwt>
<pdfrwt beam="1">0</pdfrwt>
<pdfrwt beam="2">  1        2 0.34917501E+00 0.61975133E+03</pdfrwt>
<totfact> 0.61389464E+00</totfact>
</mgrwt>
</event>
<event>
 5    1  0.2354746E-004  0.6579851E+03  0.7818608E-02  0.9791910E-01
         13   -1    0    0    0    0  0.00000000000E+00  0.00000000000E+00  0.10000000000E+04  0.10000000000E+04  0.00000000000E+00 0. -1.
          2   -1    0    0  501    0 -0.00000000000E+00 -0.00000000000E+00 -0.10823610238E+03  0.10823610238E+03  0.00000000000E+00 0. -1.
    9000006    2    1    2  501    0  0.00000000000E+00  0.00000000000E+00  0.89176389762E+03  0.11082361024E+04  0.65798511344E+03 0.  0.
         13    1    3    3    0    0  0.23579143503E+03  0.85705435496E+02  0.87429004215E+02  0.26568186480E+03  0.00000000000E+00 0. -1.
          4    1    3    3  501    0 -0.23579143503E+03 -0.85705435496E+02  0.80433489341E+03  0.84255423758E+03  0.00000000000E+00 0. -1.
<mgrwt>
<rscale>  0 0.65798511E+03</rscale>
<asrwt>0</asrwt>
<pdfrwt beam="1">0</pdfrwt>
<pdfrwt beam="2">  1        2 0.39358666E+00 0.65798511E+03</pdfrwt>
<totfact> 0.42064142E+00</totfact>
</mgrwt>
</event>
<event>
 5    1  0.2354746E-004  0.6389855E+03  0.7818608E-02  0.9827669E-01
         13   -1    0    0    0    0  0.00000000000E+00  0.00000000000E+00  0.10000000000E+04  0.10000000000E+04  0.00000000000E+00 0. -1.
          2   -1    0    0  501    0 -0.00000000000E+00 -0.00000000000E+00 -0.10207561701E+03  0.10207561701E+03  0.00000000000E+00 0. -1.
    9000006    2    1    2  501    0  0.00000000000E+00  0.00000000000E+00  0.89792438299E+03  0.11020756170E+04  0.63898549908E+03 0.  0.
         13    1    3    3    0    0 -0.23241375186E+03 -0.14336123360E+03  0.16291204398E+03  0.31797630325E+03  0.00000000000E+00 0. -1.
          2    1    3    3  501    0  0.23241375186E+03  0.14336123360E+03  0.73501233901E+03  0.78409931376E+03  0.00000000000E+00 0. -1.
<mgrwt>
<rscale>  0 0.63898550E+03</rscale>
<asrwt>0</asrwt>
<pdfrwt beam="1">0</pdfrwt>
<pdfrwt beam="2">  1        2 0.37118484E+00 0.63898550E+03</pdfrwt>
<totfact> 0.50977132E+00</totfact>
</mgrwt>
</event>
<event>
 5    1  0.2354746E-004  0.6426835E+03  0.7818608E-02  0.9820606E-01
         13   -1    0    0    0    0  0.00000000000E+00  0.00000000000E+00  0.10000000000E+04  0.10000000000E+04  0.00000000000E+00 0. -1.
          2   -1    0    0  501    0 -0.00000000000E+00 -0.00000000000E+00 -0.10326052588E+03  0.10326052588E+03  0.00000000000E+00 0. -1.
    9000006    2    1    2  501    0  0.00000000000E+00  0.00000000000E+00  0.89673947412E+03  0.11032605259E+04  0.64268351740E+03 0.  0.
         13    1    3    3    0    0  0.23839544347E+03 -0.21324077348E+03  0.39527812783E+03  0.50847695453E+03  0.00000000000E+00 0. -1.
          2    1    3    3  501    0 -0.23839544347E+03  0.21324077348E+03  0.50146134628E+03  0.59478357136E+03  0.00000000000E+00 0. -1.
<mgrwt>
<rscale>  0 0.64268352E+03</rscale>
<asrwt>0</asrwt>
<pdfrwt beam="1">0</pdfrwt>
<pdfrwt beam="2">  1        2 0.37549361E+00 0.64268352E+03</pdfrwt>
<totfact> 0.49139708E+00</totfact>
</mgrwt>
</event>
<event>
 5    1  0.2354746E-004  0.6597593E+03  0.7818608E-02  0.9788637E-01
         13   -1    0    0    0    0  0.00000000000E+00  0.00000000000E+00  0.10000000000E+04  0.10000000000E+04  0.00000000000E+00 0. -1.
          2   -1    0    0  501    0 -0.00000000000E+00 -0.00000000000E+00 -0.10882058195E+03  0.10882058195E+03  0.00000000000E+00 0. -1.
    9000006    2    1    2  501    0  0.00000000000E+00  0.00000000000E+00  0.89117941805E+03  0.11088205819E+04  0.65975929535E+03 0.  0.
         13    1    3    3    0    0  0.21722707556E+03  0.19035444589E+03  0.17774878962E+03  0.33914163654E+03  0.00000000000E+00 0. -1.
          2    1    3    3  501    0 -0.21722707556E+03 -0.19035444589E+03  0.71343062843E+03  0.76967894541E+03  0.00000000000E+00 0. -1.
<mgrwt>
<rscale>  0 0.65975930E+03</rscale>
<asrwt>0</asrwt>
<pdfrwt beam="1">0</pdfrwt>
<pdfrwt beam="2">  1        2 0.39571204E+00 0.65975930E+03</pdfrwt>
<totfact> 0.41296673E+00</totfact>
</mgrwt>
</event>
<event>
 5    1  0.2354746E-004  0.6499798E+03  0.7818608E-02  0.9806817E-01
         13   -1    0    0    0    0  0.00000000000E+00  0.00000000000E+00  0.10000000000E+04  0.10000000000E+04  0.00000000000E+00 0. -1.
          2   -1    0    0  501    0 -0.00000000000E+00 -0.00000000000E+00 -0.10561844444E+03  0.10561844444E+03  0.00000000000E+00 0. -1.
    9000006    2    1    2  501    0  0.00000000000E+00  0.00000000000E+00  0.89438155556E+03  0.11056184444E+04  0.64997982872E+03 0.  0.
         13    1    3    3    0    0  0.14742680177E+03  0.28837732131E+03  0.49290645290E+03  0.58979056676E+03  0.00000000000E+00 0. -1.
          2    1    3    3  501    0 -0.14742680177E+03 -0.28837732131E+03  0.40147510266E+03  0.51582787767E+03  0.00000000000E+00 0. -1.
<mgrwt>
<rscale>  0 0.64997983E+03</rscale>
<asrwt>0</asrwt>
<pdfrwt beam="1">0</pdfrwt>
<pdfrwt beam="2">  1        2 0.38406788E+00 0.64997983E+03</pdfrwt>
<totfact> 0.45662121E+00</totfact>
</mgrwt>
</event>
<event>
 5    1  0.2354746E-004  0.6512629E+03  0.7818608E-02  0.9804412E-01
         13   -1    0    0    0    0  0.00000000000E+00  0.00000000000E+00  0.10000000000E+04  0.10000000000E+04  0.00000000000E+00 0. -1.
          2   -1    0    0  501    0 -0.00000000000E+00 -0.00000000000E+00 -0.10603584422E+03  0.10603584422E+03  0.00000000000E+00 0. -1.
    9000006    2    1    2  501    0  0.00000000000E+00  0.00000000000E+00  0.89396415578E+03  0.11060358442E+04  0.65126290920E+03 0.  0.
         13    1    3    3    0    0  0.26152536787E+03 -0.14730229516E+03  0.23255029176E+03  0.37970135949E+03  0.00000000000E+00 0. -1.
          2    1    3    3  501    0 -0.26152536787E+03  0.14730229516E+03  0.66141386401E+03  0.72633448473E+03  0.00000000000E+00 0. -1.
<mgrwt>
<rscale>  0 0.65126291E+03</rscale>
<asrwt>0</asrwt>
<pdfrwt beam="1">0</pdfrwt>
<pdfrwt beam="2">  1        2 0.38558570E+00 0.65126291E+03</pdfrwt>
<totfact> 0.45070359E+00</totfact>
</mgrwt>
</event>
<event>
 5    1  0.2354746E-004  0.6646386E+03  0.7818608E-02  0.9779692E-01
         13   -1    0    0    0    0  0.00000000000E+00  0.00000000000E+00  0.10000000000E+04  0.10000000000E+04  0.00000000000E+00 0. -1.
          2   -1    0    0  501    0 -0.00000000000E+00 -0.00000000000E+00 -0.11043612031E+03  0.11043612031E+03  0.00000000000E+00 0. -1.
    9000006    2    1    2  501    0  0.00000000000E+00  0.00000000000E+00  0.88956387969E+03  0.11104361203E+04  0.66463860951E+03 0.  0.
         13    1    3    3    0    0 -0.27535405173E+03  0.43324240201E+02  0.74708500743E+03  0.79739127906E+03  0.00000000000E+00 0. -1.
          2    1    3    3  501    0  0.27535405173E+03 -0.43324240201E+02  0.14247887225E+03  0.31304484125E+03  0.00000000000E+00 0. -1.
<mgrwt>
<rscale>  0 0.66463861E+03</rscale>
<asrwt>0</asrwt>
<pdfrwt beam="1">0</pdfrwt>
<pdfrwt beam="2">  1        2 0.40158674E+00 0.66463861E+03</pdfrwt>
<totfact> 0.39240462E+00</totfact>
</mgrwt>
</event>
<event>
 5    1  0.2354746E-004  0.6902244E+03  0.7818608E-02  0.9734097E-01
         13   -1    0    0    0    0  0.00000000000E+00  0.00000000000E+00  0.10000000000E+04  0.10000000000E+04  0.00000000000E+00 0. -1.
          2   -1    0    0  501    0 -0.00000000000E+00 -0.00000000000E+00 -0.11910242691E+03  0.11910242691E+03  0.00000000000E+00 0. -1.
    9000006    2    1    2  501    0  0.00000000000E+00  0.00000000000E+00  0.88089757309E+03  0.11191024269E+04  0.69022438933E+03 0.  0.
         13    1    3    3    0    0  0.89861954174E+02 -0.27757850849E+03  0.14158397432E+03  0.32430081864E+03  0.00000000000E+00 0. -1.
          2    1    3    3  501    0 -0.89861954174E+02  0.27757850849E+03  0.73931359877E+03  0.79480160827E+03  0.00000000000E+00 0. -1.
<mgrwt>
<rscale>  0 0.69022439E+03</rscale>
<asrwt>0</asrwt>
<pdfrwt beam="1">0</pdfrwt>
<pdfrwt beam="2">  1        2 0.43310065E+00 0.69022439E+03</pdfrwt>
<totfact> 0.29691248E+00</totfact>
</mgrwt>
</event>
<event>
 5    1  0.2354746E-004  0.6757045E+03  0.7818608E-02  0.9759707E-01
         13   -1    0    0    0    0  0.00000000000E+00  0.00000000000E+00  0.10000000000E+04  0.10000000000E+04  0.00000000000E+00 0. -1.
          2   -1    0    0  501    0 -0.00000000000E+00 -0.00000000000E+00 -0.11414414600E+03  0.11414414600E+03  0.00000000000E+00 0. -1.
    9000006    2    1    2  501    0  0.00000000000E+00  0.00000000000E+00  0.88585585400E+03  0.11141441460E+04  0.67570450939E+03 0.  0.
         13    1    3    3    0    0  0.32534809987E+03  0.82962167877E+02  0.50484352455E+03  0.60630115592E+03  0.00000000000E+00 0. -1.
          2    1    3    3  501    0 -0.32534809987E+03 -0.82962167877E+02  0.38101232944E+03  0.50784299008E+03  0.00000000000E+00 0. -1.
<mgrwt>
<rscale>  0 0.67570451E+03</rscale>
<asrwt>0</asrwt>
<pdfrwt beam="1">0</pdfrwt>
<pdfrwt beam="2">  1        2 0.41507050E+00 0.67570451E+03</pdfrwt>
<totfact> 0.34863653E+00</totfact>
</mgrwt>
</event>
<event>
 5    1  0.2354746E-004  0.6420811E+03  0.7818608E-02  0.9821753E-01
         13   -1    0    0    0    0  0.00000000000E+00  0.00000000000E+00  0.10000000000E+04  0.10000000000E+04  0.00000000000E+00 0. -1.
          2   -1    0    0  501    0 -0.00000000000E+00 -0.00000000000E+00 -0.10306704019E+03  0.10306704019E+03  0.00000000000E+00 0. -1.
    9000006    2    1    2  501    0  0.00000000000E+00  0.00000000000E+00  0.89693295981E+03  0.11030670402E+04  0.64208111696E+03 0.  0.
         13    1    3    3    0    0 -0.58714783904E+02  0.23292992820E+03  0.81436794850E+03  0.84905767345E+03  0.00000000000E+00 0. -1.
          2    1    3    3  501    0  0.58714783904E+02 -0.23292992820E+03  0.82565011315E+02  0.25400936674E+03  0.00000000000E+00 0. -1.
<mgrwt>
<rscale>  0 0.64208112E+03</rscale>
<asrwt>0</asrwt>
<pdfrwt beam="1">0</pdfrwt>
<pdfrwt beam="2">  1        2 0.37479003E+00 0.64208112E+03</pdfrwt>
<totfact> 0.49435546E+00</totfact>
</mgrwt>
</event>
<event>
 5    1  0.2354746E-004  0.6415842E+03  0.7818608E-02  0.9822700E-01
         13   -1    0    0    0    0  0.00000000000E+00  0.00000000000E+00  0.10000000000E+04  0.10000000000E+04  0.00000000000E+00 0. -1.
          2   -1    0    0  501    0 -0.00000000000E+00 -0.00000000000E+00 -0.10290756438E+03  0.10290756438E+03  0.00000000000E+00 0. -1.
    9000006    2    1    2  501    0  0.00000000000E+00  0.00000000000E+00  0.89709243562E+03  0.11029075644E+04  0.64158417804E+03 0.  0.
         13    1    3    3    0    0 -0.19412525244E+03  0.18958698640E+03  0.74269629668E+03  0.79071210194E+03  0.00000000000E+00 0. -1.
          4    1    3    3  501    0  0.19412525244E+03 -0.18958698640E+03  0.15439613894E+03  0.31219546244E+03  0.00000000000E+00 0. -1.
<mgrwt>
<rscale>  0 0.64158418E+03</rscale>
<asrwt>0</asrwt>
<pdfrwt beam="1">0</pdfrwt>
<pdfrwt beam="2">  1        2 0.37421011E+00 0.64158418E+03</pdfrwt>
<totfact> 0.49680605E+00</totfact>
</mgrwt>
</event>
<event>
 5    1  0.2354746E-004  0.6526325E+03  0.7818608E-02  0.9801852E-01
         13   -1    0    0    0    0  0.00000000000E+00  0.00000000000E+00  0.10000000000E+04  0.10000000000E+04  0.00000000000E+00 0. -1.
          2   -1    0    0  501    0 -0.00000000000E+00 -0.00000000000E+00 -0.10648228850E+03  0.10648228850E+03  0.00000000000E+00 0. -1.
    9000006    2    1    2  501    0  0.00000000000E+00  0.00000000000E+00  0.89351771150E+03  0.11064822885E+04  0.65263248004E+03 0.  0.
         13    1    3    3    0    0 -0.15468941592E+03  0.26558974716E+03  0.63260252795E+03  0.70331549646E+03  0.00000000000E+00 0. -1.
          4    1    3    3  501    0  0.15468941592E+03 -0.26558974716E+03  0.26091518355E+03  0.40316679204E+03  0.00000000000E+00 0. -1.
<mgrwt>
<rscale>  0 0.65263248E+03</rscale>
<asrwt>0</asrwt>
<pdfrwt beam="1">0</pdfrwt>
<pdfrwt beam="2">  1        2 0.38720914E+00 0.65263248E+03</pdfrwt>
<totfact> 0.44445120E+00</totfact>
</mgrwt>
</event>
<event>
 5    1  0.2354746E-004  0.6525842E+03  0.7818608E-02  0.9801942E-01
         13   -1    0    0    0    0  0.00000000000E+00  0.00000000000E+00  0.10000000000E+04  0.10000000000E+04  0.00000000000E+00 0. -1.
          2   -1    0    0  501    0 -0.00000000000E+00 -0.00000000000E+00 -0.10646652390E+03  0.10646652390E+03  0.00000000000E+00 0. -1.
    9000006    2    1    2  501    0  0.00000000000E+00  0.00000000000E+00  0.89353347610E+03  0.11064665239E+04  0.65258416744E+03 0.  0.
         13    1    3    3    0    0  0.32617946715E+03  0.80773585071E+01  0.45163242050E+03  0.55716257210E+03  0.00000000000E+00 0. -1.
          4    1    3    3  501    0 -0.32617946715E+03 -0.80773585071E+01  0.44190105560E+03  0.54930395179E+03  0.00000000000E+00 0. -1.
<mgrwt>
<rscale>  0 0.65258417E+03</rscale>
<asrwt>0</asrwt>
<pdfrwt beam="1">0</pdfrwt>
<pdfrwt beam="2">  1        2 0.38715181E+00 0.65258417E+03</pdfrwt>
<totfact> 0.44467064E+00</totfact>
</mgrwt>
</event>
<event>
 5    1  0.2354746E-004  0.6426630E+03  0.7818608E-02  0.9820645E-01
         13   -1    0    0    0    0  0.00000000000E+00  0.00000000000E+00  0.10000000000E+04  0.10000000000E+04  0.00000000000E+00 0. -1.
          2   -1    0    0  501    0 -0.00000000000E+00 -0.00000000000E+00 -0.10325391713E+03  0.10325391713E+03  0.00000000000E+00 0. -1.
    9000006    2    1    2  501    0  0.00000000000E+00  0.00000000000E+00  0.89674608287E+03  0.11032539171E+04  0.64266295095E+03 0.  0.
         13    1    3    3    0    0  0.23204086423E+03 -0.12968224605E+03  0.75829868423E+03  0.80354050434E+03  0.00000000000E+00 0. -1.
          2    1    3    3  501    0 -0.23204086423E+03  0.12968224605E+03  0.13844739864E+03  0.29971341279E+03  0.00000000000E+00 0. -1.
<mgrwt>
<rscale>  0 0.64266295E+03</rscale>
<asrwt>0</asrwt>
<pdfrwt beam="1">0</pdfrwt>
<pdfrwt beam="2">  1        2 0.37546958E+00 0.64266295E+03</pdfrwt>
<totfact> 0.49149786E+00</totfact>
</mgrwt>
</event>
<event>
 5    1  0.2354746E-004  0.6511805E+03  0.7818608E-02  0.9804567E-01
         13   -1    0    0    0    0  0.00000000000E+00  0.00000000000E+00  0.10000000000E+04  0.10000000000E+04  0.00000000000E+00 0. -1.
          2   -1    0    0  501    0 -0.00000000000E+00 -0.00000000000E+00 -0.10600902080E+03  0.10600902080E+03  0.00000000000E+00 0. -1.
    9000006    2    1    2  501    0  0.00000000000E+00  0.00000000000E+00  0.89399097920E+03  0.11060090208E+04  0.65118053044E+03 0.  0.
         13    1    3    3    0    0  0.16369775044E+03  0.12620033683E+01  0.92501824386E+03  0.93939198295E+03  0.00000000000E+00 0. -1.
          4    1    3    3  501    0 -0.16369775044E+03 -0.12620033683E+01 -0.31027264667E+02  0.16661703786E+03  0.00000000000E+00 0. -1.
<mgrwt>
<rscale>  0 0.65118053E+03</rscale>
<asrwt>0</asrwt>
<pdfrwt beam="1">0</pdfrwt>
<pdfrwt beam="2">  1        2 0.38548816E+00 0.65118053E+03</pdfrwt>
<totfact> 0.45108177E+00</totfact>
</mgrwt>
</event>
<event>
 5    1  0.2354746E-004  0.6439177E+03  0.7818608E-02  0.9818260E-01
         13   -1    0    0    0    0  0.00000000000E+00  0.00000000000E+00  0.10000000000E+04  0.10000000000E+04  0.00000000000E+00 0. -1.
          2   -1    0    0  501    0 -0.00000000000E+00 -0.00000000000E+00 -0.10365751134E+03  0.10365751134E+03  0.00000000000E+00 0. -1.
    9000006    2    1    2  501    0  0.00000000000E+00  0.00000000000E+00  0.89634248866E+03  0.11036575113E+04  0.64391773182E+03 0.  0.
         13    1    3    3    0    0  0.16529589949E+02  0.33050905920E+02  0.99635303775E+03  0.99703809634E+03  0.00000000000E+00 0. -1.
          2    1    3    3  501    0 -0.16529589949E+02 -0.33050905920E+02 -0.10001054909E+03  0.10661941500E+03  0.00000000000E+00 0. -1.
<mgrwt>
<rscale>  0 0.64391773E+03</rscale>
<asrwt>0</asrwt>
<pdfrwt beam="1">0</pdfrwt>
<pdfrwt beam="2">  1        2 0.37693720E+00 0.64391773E+03</pdfrwt>
<totfact> 0.48537827E+00</totfact>
</mgrwt>
</event>
<event>
 5    1  0.2354746E-004  0.6445343E+03  0.7818608E-02  0.9817090E-01
         13   -1    0    0    0    0  0.00000000000E+00  0.00000000000E+00  0.10000000000E+04  0.10000000000E+04  0.00000000000E+00 0. -1.
          2   -1    0    0  501    0 -0.00000000000E+00 -0.00000000000E+00 -0.10385611842E+03  0.10385611842E+03  0.00000000000E+00 0. -1.
    9000006    2    1    2  501    0  0.00000000000E+00  0.00000000000E+00  0.89614388158E+03  0.11038561184E+04  0.64453430761E+03 0.  0.
         13    1    3    3    0    0  0.12192492345E+03  0.28871959658E+03  0.57659339216E+03  0.65626567204E+03  0.00000000000E+00 0. -1.
          4    1    3    3  501    0 -0.12192492345E+03 -0.28871959658E+03  0.31955048942E+03  0.44759044638E+03  0.00000000000E+00 0. -1.
<mgrwt>
<rscale>  0 0.64453431E+03</rscale>
<asrwt>0</asrwt>
<pdfrwt beam="1">0</pdfrwt>
<pdfrwt beam="2">  1        2 0.37765941E+00 0.64453431E+03</pdfrwt>
<totfact> 0.48239245E+00</totfact>
</mgrwt>
</event>
<event>
 5    1  0.2354746E-004  0.6435296E+03  0.7818608E-02  0.9818997E-01
         13   -1    0    0    0    0  0.00000000000E+00  0.00000000000E+00  0.10000000000E+04  0.10000000000E+04  0.00000000000E+00 0. -1.
          2   -1    0    0  501    0 -0.00000000000E+00 -0.00000000000E+00 -0.10353257162E+03  0.10353257162E+03  0.00000000000E+00 0. -1.
    9000006    2    1    2  501    0  0.00000000000E+00  0.00000000000E+00  0.89646742838E+03  0.11035325716E+04  0.64352955370E+03 0.  0.
         13    1    3    3    0    0 -0.14768506645E+03  0.17695343156E+03  0.63224203053E+02  0.23899936327E+03  0.00000000000E+00 0. -1.
          2    1    3    3  501    0  0.14768506645E+03 -0.17695343156E+03  0.83324322533E+03  0.86453320835E+03  0.00000000000E+00 0. -1.
<mgrwt>
<rscale>  0 0.64352955E+03</rscale>
<asrwt>0</asrwt>
<pdfrwt beam="1">0</pdfrwt>
<pdfrwt beam="2">  1        2 0.37648287E+00 0.64352955E+03</pdfrwt>
<totfact> 0.48726522E+00</totfact>
</mgrwt>
</event>
<event>
 5    1  0.2354746E-004  0.6413657E+03  0.7818608E-02  0.9823117E-01
         13   -1    0    0    0    0  0.00000000000E+00  0.00000000000E+00  0.10000000000E+04  0.10000000000E+04  0.00000000000E+00 0. -1.
          2   -1    0    0  501    0 -0.00000000000E+00 -0.00000000000E+00 -0.10283750324E+03  0.10283750324E+03  0.00000000000E+00 0. -1.
    9000006    2    1    2  501    0  0.00000000000E+00  0.00000000000E+00  0.89716249676E+03  0.11028375032E+04  0.64136574040E+03 0.  0.
         13    1    3    3    0    0  0.42805239342E+02  0.65615256131E+02  0.98329170289E+03  0.98640773685E+03  0.00000000000E+00 0. -1.
          4    1    3    3  501    0 -0.42805239342E+02 -0.65615256131E+02 -0.86129206129E+02  0.11642976639E+03  0.00000000000E+00 0. -1.
<mgrwt>
<rscale>  0 0.64136574E+03</rscale>
<asrwt>0</asrwt>
<pdfrwt beam="1">0</pdfrwt>
<pdfrwt beam="2">  1        2 0.37395535E+00 0.64136574E+03</pdfrwt>
<totfact> 0.49788616E+00</totfact>
</mgrwt>
</event>
<event>
 5    1  0.2354746E-004  0.6457347E+03  0.7818608E-02  0.9814816E-01
         13   -1    0    0    0    0  0.00000000000E+00  0.00000000000E+00  0.10000000000E+04  0.10000000000E+04  0.00000000000E+00 0. -1.
          2   -1    0    0  501    0 -0.00000000000E+00 -0.00000000000E+00 -0.10424332157E+03  0.10424332157E+03  0.00000000000E+00 0. -1.
    9000006    2    1    2  501    0  0.00000000000E+00  0.00000000000E+00  0.89575667843E+03  0.11042433216E+04  0.64573468722E+03 0.  0.
         13    1    3    3    0    0  0.75034813492E+02 -0.25553648036E+03  0.76000106829E+03  0.80531406285E+03  0.00000000000E+00 0. -1.
          2    1    3    3  501    0 -0.75034813492E+02  0.25553648036E+03  0.13575561014E+03  0.29892925872E+03  0.00000000000E+00 0. -1.
<mgrwt>
<rscale>  0 0.64573469E+03</rscale>
<asrwt>0</asrwt>
<pdfrwt beam="1">0</pdfrwt>
<pdfrwt beam="2">  1        2 0.37906742E+00 0.64573469E+03</pdfrwt>
<totfact> 0.47661940E+00</totfact>
</mgrwt>
</event>
<event>
 5    1  0.2354746E-004  0.6749235E+03  0.7818608E-02  0.9761104E-01
         13   -1    0    0    0    0  0.00000000000E+00  0.00000000000E+00  0.10000000000E+04  0.10000000000E+04  0.00000000000E+00 0. -1.
          2   -1    0    0  501    0 -0.00000000000E+00 -0.00000000000E+00 -0.11388041934E+03  0.11388041934E+03  0.00000000000E+00 0. -1.
    9000006    2    1    2  501    0  0.00000000000E+00  0.00000000000E+00  0.88611958066E+03  0.11138804193E+04  0.67492346038E+03 0.  0.
         13    1    3    3    0    0 -0.92509128792E+01  0.33684459001E+03  0.41305361814E+03  0.53306955331E+03  0.00000000000E+00 0. -1.
          4    1    3    3  501    0  0.92509128792E+01 -0.33684459001E+03  0.47306596252E+03  0.58081086603E+03  0.00000000000E+00 0. -1.
<mgrwt>
<rscale>  0 0.67492346E+03</rscale>
<asrwt>0</asrwt>
<pdfrwt beam="1">0</pdfrwt>
<pdfrwt beam="2">  1        2 0.41411149E+00 0.67492346E+03</pdfrwt>
<totfact> 0.35159874E+00</totfact>
</mgrwt>
</event>
<event>
 5    1  0.2354746E-004  0.5532832E+03  0.7818608E-02  0.1000737E+00
         13   -1    0    0    0    0  0.00000000000E+00  0.00000000000E+00  0.10000000000E+04  0.10000000000E+04  0.00000000000E+00 0. -1.
          2   -1    0    0  501    0 -0.00000000000E+00 -0.00000000000E+00 -0.76530572321E+02  0.76530572321E+02  0.00000000000E+00 0. -1.
    9000006    2    1    2  501    0  0.00000000000E+00  0.00000000000E+00  0.92346942768E+03  0.10765305723E+04  0.55328319085E+03 0.  0.
         13    1    3    3    0    0  0.16733710893E+03 -0.19976330842E+03  0.28105046467E+03  0.38327072821E+03  0.00000000000E+00 0. -1.
          4    1    3    3  501    0 -0.16733710893E+03  0.19976330842E+03  0.64241896301E+03  0.69325984411E+03  0.00000000000E+00 0. -1.
<mgrwt>
<rscale>  0 0.55328319E+03</rscale>
<asrwt>0</asrwt>
<pdfrwt beam="1">0</pdfrwt>
<pdfrwt beam="2">  1        2 0.27829358E+00 0.55328319E+03</pdfrwt>
<totfact> 0.11038525E+01</totfact>
</mgrwt>
</event>
<event>
 5    1  0.2354746E-004  0.6480929E+03  0.7818608E-02  0.9810364E-01
         13   -1    0    0    0    0  0.00000000000E+00  0.00000000000E+00  0.10000000000E+04  0.10000000000E+04  0.00000000000E+00 0. -1.
          2   -1    0    0  501    0 -0.00000000000E+00 -0.00000000000E+00 -0.10500609494E+03  0.10500609494E+03  0.00000000000E+00 0. -1.
    9000006    2    1    2  501    0  0.00000000000E+00  0.00000000000E+00  0.89499390506E+03  0.11050060949E+04  0.64809287897E+03 0.  0.
         13    1    3    3    0    0  0.70003986066E+02 -0.26897973540E+03  0.16344258390E+03  0.32243469781E+03  0.00000000000E+00 0. -1.
          4    1    3    3  501    0 -0.70003986066E+02  0.26897973540E+03  0.73155132116E+03  0.78257139713E+03  0.00000000000E+00 0. -1.
<mgrwt>
<rscale>  0 0.64809288E+03</rscale>
<asrwt>0</asrwt>
<pdfrwt beam="1">0</pdfrwt>
<pdfrwt beam="2">  1        2 0.38184115E+00 0.64809288E+03</pdfrwt>
<totfact> 0.46543035E+00</totfact>
</mgrwt>
</event>
<event>
 5    1  0.2354746E-004  0.6454083E+03  0.7818608E-02  0.9815434E-01
         13   -1    0    0    0    0  0.00000000000E+00  0.00000000000E+00  0.10000000000E+04  0.10000000000E+04  0.00000000000E+00 0. -1.
          2   -1    0    0  501    0 -0.00000000000E+00 -0.00000000000E+00 -0.10413796922E+03  0.10413796922E+03  0.00000000000E+00 0. -1.
    9000006    2    1    2  501    0  0.00000000000E+00  0.00000000000E+00  0.89586203078E+03  0.11041379692E+04  0.64540830246E+03 0.  0.
         13    1    3    3    0    0 -0.21682337522E+03  0.10992855089E+03  0.84857735546E+02  0.25748300454E+03  0.00000000000E+00 0. -1.
          2    1    3    3  501    0  0.21682337522E+03 -0.10992855089E+03  0.81100429523E+03  0.84665496469E+03  0.00000000000E+00 0. -1.
<mgrwt>
<rscale>  0 0.64540830E+03</rscale>
<asrwt>0</asrwt>
<pdfrwt beam="1">0</pdfrwt>
<pdfrwt beam="2">  1        2 0.37868432E+00 0.64540830E+03</pdfrwt>
<totfact> 0.47818390E+00</totfact>
</mgrwt>
</event>
<event>
 5    1  0.2354746E-004  0.6257954E+03  0.7818608E-02  0.9853288E-01
         13   -1    0    0    0    0  0.00000000000E+00  0.00000000000E+00  0.10000000000E+04  0.10000000000E+04  0.00000000000E+00 0. -1.
          2   -1    0    0  501    0 -0.00000000000E+00 -0.00000000000E+00 -0.97904969579E+02  0.97904969579E+02  0.00000000000E+00 0. -1.
    9000006    2    1    2  501    0  0.00000000000E+00  0.00000000000E+00  0.90209503042E+03  0.10979049696E+04  0.62579539653E+03 0.  0.
         13    1    3    3    0    0 -0.28652286980E+03  0.20240911822E+02  0.66876415421E+03  0.72783964126E+03  0.00000000000E+00 0. -1.
          4    1    3    3  501    0  0.28652286980E+03 -0.20240911822E+02  0.23333087622E+03  0.37006532832E+03  0.00000000000E+00 0. -1.
<mgrwt>
<rscale>  0 0.62579540E+03</rscale>
<asrwt>0</asrwt>
<pdfrwt beam="1">0</pdfrwt>
<pdfrwt beam="2">  1        2 0.35601882E+00 0.62579540E+03</pdfrwt>
<totfact> 0.57958118E+00</totfact>
</mgrwt>
</event>
<event>
 5    1  0.2354746E-004  0.6557708E+03  0.7818608E-02  0.9796011E-01
         13   -1    0    0    0    0  0.00000000000E+00  0.00000000000E+00  0.10000000000E+04  0.10000000000E+04  0.00000000000E+00 0. -1.
          2   -1    0    0  501    0 -0.00000000000E+00 -0.00000000000E+00 -0.10750882710E+03  0.10750882710E+03  0.00000000000E+00 0. -1.
    9000006    2    1    2  501    0  0.00000000000E+00  0.00000000000E+00  0.89249117290E+03  0.11075088271E+04  0.65577077428E+03 0.  0.
         13    1    3    3    0    0 -0.26952902866E+03 -0.18665686887E+03  0.45419279253E+03  0.56015870677E+03  0.00000000000E+00 0. -1.
          2    1    3    3  501    0  0.26952902866E+03  0.18665686887E+03  0.43829838037E+03  0.54735012033E+03  0.00000000000E+00 0. -1.
<mgrwt>
<rscale>  0 0.65577077E+03</rscale>
<asrwt>0</asrwt>
<pdfrwt beam="1">0</pdfrwt>
<pdfrwt beam="2">  1        2 0.39094201E+00 0.65577077E+03</pdfrwt>
<totfact> 0.43037137E+00</totfact>
</mgrwt>
</event>
<event>
 5    1  0.2354746E-004  0.6484638E+03  0.7818608E-02  0.9809666E-01
         13   -1    0    0    0    0  0.00000000000E+00  0.00000000000E+00  0.10000000000E+04  0.10000000000E+04  0.00000000000E+00 0. -1.
          2   -1    0    0  501    0 -0.00000000000E+00 -0.00000000000E+00 -0.10512632231E+03  0.10512632231E+03  0.00000000000E+00 0. -1.
    9000006    2    1    2  501    0  0.00000000000E+00  0.00000000000E+00  0.89487367769E+03  0.11051263223E+04  0.64846379177E+03 0.  0.
         13    1    3    3    0    0 -0.17448470711E+03 -0.26378318462E+03  0.32573293711E+03  0.45401368682E+03  0.00000000000E+00 0. -1.
          4    1    3    3  501    0  0.17448470711E+03  0.26378318462E+03  0.56914074058E+03  0.65111263549E+03  0.00000000000E+00 0. -1.
<mgrwt>
<rscale>  0 0.64846379E+03</rscale>
<asrwt>0</asrwt>
<pdfrwt beam="1">0</pdfrwt>
<pdfrwt beam="2">  1        2 0.38227834E+00 0.64846379E+03</pdfrwt>
<totfact> 0.46368870E+00</totfact>
</mgrwt>
</event>
<event>
 5    1  0.2354746E-004  0.6261864E+03  0.7818608E-02  0.9852519E-01
         13   -1    0    0    0    0  0.00000000000E+00  0.00000000000E+00  0.10000000000E+04  0.10000000000E+04  0.00000000000E+00 0. -1.
          2   -1    0    0  501    0 -0.00000000000E+00 -0.00000000000E+00 -0.98027346721E+02  0.98027346721E+02  0.00000000000E+00 0. -1.
    9000006    2    1    2  501    0  0.00000000000E+00  0.00000000000E+00  0.90197265328E+03  0.10980273467E+04  0.62618638350E+03 0.  0.
         13    1    3    3    0    0  0.67233284763E+02  0.17599244543E+03  0.88948326919E+03  0.90921622379E+03  0.00000000000E+00 0. -1.
          4    1    3    3  501    0 -0.67233284763E+02 -0.17599244543E+03  0.12489384087E+02  0.18881112293E+03  0.00000000000E+00 0. -1.
<mgrwt>
<rscale>  0 0.62618638E+03</rscale>
<asrwt>0</asrwt>
<pdfrwt beam="1">0</pdfrwt>
<pdfrwt beam="2">  1        2 0.35646383E+00 0.62618638E+03</pdfrwt>
<totfact> 0.57741285E+00</totfact>
</mgrwt>
</event>
<event>
 5    1  0.2354746E-004  0.6289555E+03  0.7818608E-02  0.9847089E-01
         13   -1    0    0    0    0  0.00000000000E+00  0.00000000000E+00  0.10000000000E+04  0.10000000000E+04  0.00000000000E+00 0. -1.
          2   -1    0    0  501    0 -0.00000000000E+00 -0.00000000000E+00 -0.98896253892E+02  0.98896253892E+02  0.00000000000E+00 0. -1.
    9000006    2    1    2  501    0  0.00000000000E+00  0.00000000000E+00  0.90110374611E+03  0.10988962539E+04  0.62895549570E+03 0.  0.
         13    1    3    3    0    0 -0.12136871194E+03 -0.25512958438E+03  0.20924671772E+03  0.35157596326E+03  0.00000000000E+00 0. -1.
          4    1    3    3  501    0  0.12136871194E+03  0.25512958438E+03  0.69185702839E+03  0.74732029063E+03  0.00000000000E+00 0. -1.
<mgrwt>
<rscale>  0 0.62895550E+03</rscale>
<asrwt>0</asrwt>
<pdfrwt beam="1">0</pdfrwt>
<pdfrwt beam="2">  1        2 0.35962350E+00 0.62895550E+03</pdfrwt>
<totfact> 0.56223292E+00</totfact>
</mgrwt>
</event>
<event>
 5    1  0.2354746E-004  0.6520808E+03  0.7818608E-02  0.9802883E-01
         13   -1    0    0    0    0  0.00000000000E+00  0.00000000000E+00  0.10000000000E+04  0.10000000000E+04  0.00000000000E+00 0. -1.
          2   -1    0    0  501    0 -0.00000000000E+00 -0.00000000000E+00 -0.10630232990E+03  0.10630232990E+03  0.00000000000E+00 0. -1.
    9000006    2    1    2  501    0  0.00000000000E+00  0.00000000000E+00  0.89369767010E+03  0.11063023299E+04  0.65208076156E+03 0.  0.
         13    1    3    3    0    0 -0.40547033393E+02  0.31922449784E+03  0.53588233755E+03  0.62507457286E+03  0.00000000000E+00 0. -1.
          4    1    3    3  501    0  0.40547033393E+02 -0.31922449784E+03  0.35781533255E+03  0.48122775704E+03  0.00000000000E+00 0. -1.
<mgrwt>
<rscale>  0 0.65208076E+03</rscale>
<asrwt>0</asrwt>
<pdfrwt beam="1">0</pdfrwt>
<pdfrwt beam="2">  1        2 0.38655474E+00 0.65208076E+03</pdfrwt>
<totfact> 0.44696198E+00</totfact>
</mgrwt>
</event>
<event>
 5    1  0.2354746E-004  0.6287819E+03  0.7818608E-02  0.9847429E-01
         13   -1    0    0    0    0  0.00000000000E+00  0.00000000000E+00  0.10000000000E+04  0.10000000000E+04  0.00000000000E+00 0. -1.
          2   -1    0    0  501    0 -0.00000000000E+00 -0.00000000000E+00 -0.98841656093E+02  0.98841656093E+02  0.00000000000E+00 0. -1.
    9000006    2    1    2  501    0  0.00000000000E+00  0.00000000000E+00  0.90115834391E+03  0.10988416561E+04  0.62878185754E+03 0.  0.
         13    1    3    3    0    0  0.21319997187E+03 -0.12589862293E+03  0.78916181367E+03  0.82709192924E+03  0.00000000000E+00 0. -1.
          4    1    3    3  501    0 -0.21319997187E+03  0.12589862293E+03  0.11199653024E+03  0.27174972685E+03  0.00000000000E+00 0. -1.
<mgrwt>
<rscale>  0 0.62878186E+03</rscale>
<asrwt>0</asrwt>
<pdfrwt beam="1">0</pdfrwt>
<pdfrwt beam="2">  1        2 0.35942496E+00 0.62878186E+03</pdfrwt>
<totfact> 0.56317576E+00</totfact>
</mgrwt>
</event>
<event>
 5    1  0.2354746E-004  0.6603086E+03  0.7818608E-02  0.9787626E-01
         13   -1    0    0    0    0  0.00000000000E+00  0.00000000000E+00  0.10000000000E+04  0.10000000000E+04  0.00000000000E+00 0. -1.
          2   -1    0    0  501    0 -0.00000000000E+00 -0.00000000000E+00 -0.10900187271E+03  0.10900187271E+03  0.00000000000E+00 0. -1.
    9000006    2    1    2  501    0  0.00000000000E+00  0.00000000000E+00  0.89099812729E+03  0.11090018727E+04  0.66030863302E+03 0.  0.
         13    1    3    3    0    0  0.18837846799E+03 -0.28552596086E+01 -0.98563035204E+01  0.18865774945E+03  0.00000000000E+00 0. -1.
          2    1    3    3  501    0 -0.18837846799E+03  0.28552596086E+01  0.90085443081E+03  0.92034412326E+03  0.00000000000E+00 0. -1.
<mgrwt>
<rscale>  0 0.66030863E+03</rscale>
<asrwt>0</asrwt>
<pdfrwt beam="1">0</pdfrwt>
<pdfrwt beam="2">  1        2 0.39637128E+00 0.66030863E+03</pdfrwt>
<totfact> 0.41061203E+00</totfact>
</mgrwt>
</event>
<event>
 5    1  0.2354746E-004  0.6493776E+03  0.7818608E-02  0.9807948E-01
         13   -1    0    0    0    0  0.00000000000E+00  0.00000000000E+00  0.10000000000E+04  0.10000000000E+04  0.00000000000E+00 0. -1.
          2   -1    0    0  501    0 -0.00000000000E+00 -0.00000000000E+00 -0.10542281260E+03  0.10542281260E+03  0.00000000000E+00 0. -1.
    9000006    2    1    2  501    0  0.00000000000E+00  0.00000000000E+00  0.89457718740E+03  0.11054228126E+04  0.64937758693E+03 0.  0.
         13    1    3    3    0    0 -0.91425777106E+02  0.10794666657E+03  0.94478471790E+03  0.95531634484E+03  0.00000000000E+00 0. -1.
          4    1    3    3  501    0  0.91425777106E+02 -0.10794666657E+03 -0.50207530501E+02  0.15010646776E+03  0.00000000000E+00 0. -1.
<mgrwt>
<rscale>  0 0.64937759E+03</rscale>
<asrwt>0</asrwt>
<pdfrwt beam="1">0</pdfrwt>
<pdfrwt beam="2">  1        2 0.38335649E+00 0.64937759E+03</pdfrwt>
<totfact> 0.45941893E+00</totfact>
</mgrwt>
</event>
<event>
 5    1  0.2354746E-004  0.5634107E+03  0.7818608E-02  0.9984367E-01
         13   -1    0    0    0    0  0.00000000000E+00  0.00000000000E+00  0.10000000000E+04  0.10000000000E+04  0.00000000000E+00 0. -1.
          2   -1    0    0  501    0 -0.00000000000E+00 -0.00000000000E+00 -0.79357890519E+02  0.79357890519E+02  0.00000000000E+00 0. -1.
    9000006    2    1    2  501    0  0.00000000000E+00  0.00000000000E+00  0.92064210948E+03  0.10793578905E+04  0.56341065137E+03 0.  0.
         13    1    3    3    0    0  0.52739896316E+02 -0.15733009847E+03  0.24202715876E+02  0.16769027403E+03  0.00000000000E+00 0. -1.
          2    1    3    3  501    0 -0.52739896316E+02  0.15733009847E+03  0.89643939361E+03  0.91166761649E+03  0.00000000000E+00 0. -1.
<mgrwt>
<rscale>  0 0.56341065E+03</rscale>
<asrwt>0</asrwt>
<pdfrwt beam="1">0</pdfrwt>
<pdfrwt beam="2">  1        2 0.28857476E+00 0.56341065E+03</pdfrwt>
<totfact> 0.10143281E+01</totfact>
</mgrwt>
</event>
<event>
 5    1  0.2354746E-004  0.6697581E+03  0.7818608E-02  0.9770395E-01
         13   -1    0    0    0    0  0.00000000000E+00  0.00000000000E+00  0.10000000000E+04  0.10000000000E+04  0.00000000000E+00 0. -1.
          2   -1    0    0  501    0 -0.00000000000E+00 -0.00000000000E+00 -0.11214397703E+03  0.11214397703E+03  0.00000000000E+00 0. -1.
    9000006    2    1    2  501    0  0.00000000000E+00  0.00000000000E+00  0.88785602297E+03  0.11121439770E+04  0.66975809670E+03 0.  0.
         13    1    3    3    0    0 -0.24657985294E+03 -0.79528740492E+00  0.67676501551E+02  0.25569975600E+03  0.00000000000E+00 0. -1.
          4    1    3    3  501    0  0.24657985294E+03  0.79528740492E+00  0.82017952142E+03  0.85644422102E+03  0.00000000000E+00 0. -1.
<mgrwt>
<rscale>  0 0.66975810E+03</rscale>
<asrwt>0</asrwt>
<pdfrwt beam="1">0</pdfrwt>
<pdfrwt beam="2">  1        2 0.40779714E+00 0.66975810E+03</pdfrwt>
<totfact> 0.37167039E+00</totfact>
</mgrwt>
</event>
<event>
 5    1  0.2354746E-004  0.6405991E+03  0.7818608E-02  0.9824581E-01
         13   -1    0    0    0    0  0.00000000000E+00  0.00000000000E+00  0.10000000000E+04  0.10000000000E+04  0.00000000000E+00 0. -1.
          2   -1    0    0  501    0 -0.00000000000E+00 -0.00000000000E+00 -0.10259180685E+03  0.10259180685E+03  0.00000000000E+00 0. -1.
    9000006    2    1    2  501    0  0.00000000000E+00  0.00000000000E+00  0.89740819315E+03  0.11025918068E+04  0.64059911597E+03 0.  0.
         13    1    3    3    0    0 -0.25888567581E+03 -0.45117083425E+02  0.76389530901E+03  0.80783252440E+03  0.00000000000E+00 0. -1.
          2    1    3    3  501    0  0.25888567581E+03  0.45117083425E+02  0.13351288414E+03  0.29475928244E+03  0.00000000000E+00 0. -1.
<mgrwt>
<rscale>  0 0.64059912E+03</rscale>
<asrwt>0</asrwt>
<pdfrwt beam="1">0</pdfrwt>
<pdfrwt beam="2">  1        2 0.37306190E+00 0.64059912E+03</pdfrwt>
<totfact> 0.50169095E+00</totfact>
</mgrwt>
</event>
<event>
 5    1  0.2354746E-004  0.6021720E+03  0.7818608E-02  0.9900910E-01
         13   -1    0    0    0    0  0.00000000000E+00  0.00000000000E+00  0.10000000000E+04  0.10000000000E+04  0.00000000000E+00 0. -1.
          2   -1    0    0  501    0 -0.00000000000E+00 -0.00000000000E+00 -0.90652771549E+02  0.90652771549E+02  0.00000000000E+00 0. -1.
    9000006    2    1    2  501    0  0.00000000000E+00  0.00000000000E+00  0.90934722845E+03  0.10906527715E+04  0.60217197394E+03 0.  0.
         13    1    3    3    0    0  0.22248458520E+01  0.64583544634E+02 -0.77944266245E+02  0.10124866822E+03  0.00000000000E+00 0. -1.
          4    1    3    3  501    0 -0.22248458520E+01 -0.64583544634E+02  0.98729149470E+03  0.98940410333E+03  0.00000000000E+00 0. -1.
<mgrwt>
<rscale>  0 0.60217197E+03</rscale>
<asrwt>0</asrwt>
<pdfrwt beam="1">0</pdfrwt>
<pdfrwt beam="2">  1        2 0.32964714E+00 0.60217197E+03</pdfrwt>
<totfact> 0.72254911E+00</totfact>
</mgrwt>
</event>
<event>
 5    1  0.2354746E-004  0.6998400E+03  0.7818608E-02  0.9717506E-01
         13   -1    0    0    0    0  0.00000000000E+00  0.00000000000E+00  0.10000000000E+04  0.10000000000E+04  0.00000000000E+00 0. -1.
          2   -1    0    0  501    0 -0.00000000000E+00 -0.00000000000E+00 -0.12244399829E+03  0.12244399829E+03  0.00000000000E+00 0. -1.
    9000006    2    1    2  501    0  0.00000000000E+00  0.00000000000E+00  0.87755600171E+03  0.11224439983E+04  0.69983997683E+03 0.  0.
         13    1    3    3    0    0 -0.10466085886E+03 -0.34571216906E+02 -0.93874189761E+02  0.14478061997E+03  0.00000000000E+00 0. -1.
          4    1    3    3  501    0  0.10466085886E+03  0.34571216906E+02  0.97143019147E+03  0.97766337832E+03  0.00000000000E+00 0. -1.
<mgrwt>
<rscale>  0 0.69983998E+03</rscale>
<asrwt>0</asrwt>
<pdfrwt beam="1">0</pdfrwt>
<pdfrwt beam="2">  1        2 0.44525184E+00 0.69983998E+03</pdfrwt>
<totfact> 0.26599287E+00</totfact>
</mgrwt>
</event>
<event>
 5    1  0.2354746E-004  0.6586362E+03  0.7818608E-02  0.9790708E-01
         13   -1    0    0    0    0  0.00000000000E+00  0.00000000000E+00  0.10000000000E+04  0.10000000000E+04  0.00000000000E+00 0. -1.
          2   -1    0    0  501    0 -0.00000000000E+00 -0.00000000000E+00 -0.10845040026E+03  0.10845040026E+03  0.00000000000E+00 0. -1.
    9000006    2    1    2  501    0  0.00000000000E+00  0.00000000000E+00  0.89154959974E+03  0.11084504003E+04  0.65863616744E+03 0.  0.
         13    1    3    3    0    0 -0.26577137218E+03 -0.16024739832E+03  0.63117998697E+03  0.70335042965E+03  0.00000000000E+00 0. -1.
          4    1    3    3  501    0  0.26577137218E+03  0.16024739832E+03  0.26036961277E+03  0.40509997062E+03  0.00000000000E+00 0. -1.
<mgrwt>
<rscale>  0 0.65863617E+03</rscale>
<asrwt>0</asrwt>
<pdfrwt beam="1">0</pdfrwt>
<pdfrwt beam="2">  1        2 0.39436592E+00 0.65863617E+03</pdfrwt>
<totfact> 0.41781266E+00</totfact>
</mgrwt>
</event>
<event>
 5    1  0.2354746E-004  0.6733335E+03  0.7818608E-02  0.9763955E-01
         13   -1    0    0    0    0  0.00000000000E+00  0.00000000000E+00  0.10000000000E+04  0.10000000000E+04  0.00000000000E+00 0. -1.
          2   -1    0    0  501    0 -0.00000000000E+00 -0.00000000000E+00 -0.11334449471E+03  0.11334449471E+03  0.00000000000E+00 0. -1.
    9000006    2    1    2  501    0  0.00000000000E+00  0.00000000000E+00  0.88665550529E+03  0.11133444947E+04  0.67333348264E+03 0.  0.
         13    1    3    3    0    0 -0.21101708274E+03  0.13324291723E+02  0.87652334974E+03  0.90166453219E+03  0.00000000000E+00 0. -1.
          2    1    3    3  501    0  0.21101708274E+03 -0.13324291723E+02  0.10132155545E+02  0.21167996253E+03  0.00000000000E+00 0. -1.
<mgrwt>
<rscale>  0 0.67333348E+03</rscale>
<asrwt>0</asrwt>
<pdfrwt beam="1">0</pdfrwt>
<pdfrwt beam="2">  1        2 0.41216267E+00 0.67333348E+03</pdfrwt>
<totfact> 0.35768747E+00</totfact>
</mgrwt>
</event>
<event>
 5    1  0.2354746E-004  0.6470223E+03  0.7818608E-02  0.9812383E-01
         13   -1    0    0    0    0  0.00000000000E+00  0.00000000000E+00  0.10000000000E+04  0.10000000000E+04  0.00000000000E+00 0. -1.
          2   -1    0    0  501    0 -0.00000000000E+00 -0.00000000000E+00 -0.10465945352E+03  0.10465945352E+03  0.00000000000E+00 0. -1.
    9000006    2    1    2  501    0  0.00000000000E+00  0.00000000000E+00  0.89534054648E+03  0.11046594535E+04  0.64702226707E+03 0.  0.
         13    1    3    3    0    0  0.10593729121E+03 -0.96006186184E+01  0.96928965590E+03  0.97510887525E+03  0.00000000000E+00 0. -1.
          4    1    3    3  501    0 -0.10593729121E+03  0.96006186184E+01 -0.73949109427E+02  0.12955057827E+03  0.00000000000E+00 0. -1.
<mgrwt>
<rscale>  0 0.64702227E+03</rscale>
<asrwt>0</asrwt>
<pdfrwt beam="1">0</pdfrwt>
<pdfrwt beam="2">  1        2 0.38058063E+00 0.64702227E+03</pdfrwt>
<totfact> 0.47048523E+00</totfact>
</mgrwt>
</event>
<event>
 5    1  0.2354746E-004  0.6531033E+03  0.7818608E-02  0.9800973E-01
         13   -1    0    0    0    0  0.00000000000E+00  0.00000000000E+00  0.10000000000E+04  0.10000000000E+04  0.00000000000E+00 0. -1.
          2   -1    0    0  501    0 -0.00000000000E+00 -0.00000000000E+00 -0.10663598912E+03  0.10663598912E+03  0.00000000000E+00 0. -1.
    9000006    2    1    2  501    0  0.00000000000E+00  0.00000000000E+00  0.89336401088E+03  0.11066359891E+04  0.65310332756E+03 0.  0.
         13    1    3    3    0    0  0.58554132905E+01 -0.32488278085E+03  0.39170099263E+03  0.50893297671E+03  0.00000000000E+00 0. -1.
          2    1    3    3  501    0 -0.58554132905E+01  0.32488278085E+03  0.50166301825E+03  0.59770301241E+03  0.00000000000E+00 0. -1.
<mgrwt>
<rscale>  0 0.65310333E+03</rscale>
<asrwt>0</asrwt>
<pdfrwt beam="1">0</pdfrwt>
<pdfrwt beam="2">  1        2 0.38776805E+00 0.65310333E+03</pdfrwt>
<totfact> 0.44231689E+00</totfact>
</mgrwt>
</event>
<event>
 5    1  0.2354746E-004  0.6293683E+03  0.7818608E-02  0.9846282E-01
         13   -1    0    0    0    0  0.00000000000E+00  0.00000000000E+00  0.10000000000E+04  0.10000000000E+04  0.00000000000E+00 0. -1.
          2   -1    0    0  501    0 -0.00000000000E+00 -0.00000000000E+00 -0.99026103132E+02  0.99026103132E+02  0.00000000000E+00 0. -1.
    9000006    2    1    2  501    0  0.00000000000E+00  0.00000000000E+00  0.90097389687E+03  0.10990261031E+04  0.62936826463E+03 0.  0.
         13    1    3    3    0    0 -0.62495026677E+02  0.48793820262E+02  0.98227168168E+03  0.98546644889E+03  0.00000000000E+00 0. -1.
          4    1    3    3  501    0  0.62495026677E+02 -0.48793820262E+02 -0.81297784815E+02  0.11355965424E+03  0.00000000000E+00 0. -1.
<mgrwt>
<rscale>  0 0.62936826E+03</rscale>
<asrwt>0</asrwt>
<pdfrwt beam="1">0</pdfrwt>
<pdfrwt beam="2">  1        2 0.36009568E+00 0.62936826E+03</pdfrwt>
<totfact> 0.55999645E+00</totfact>
</mgrwt>
</event>
<event>
 5    1  0.2354746E-004  0.6518832E+03  0.7818608E-02  0.9803252E-01
         13   -1    0    0    0    0  0.00000000000E+00  0.00000000000E+00  0.10000000000E+04  0.10000000000E+04  0.00000000000E+00 0. -1.
          2   -1    0    0  501    0 -0.00000000000E+00 -0.00000000000E+00 -0.10623793523E+03  0.10623793523E+03  0.00000000000E+00 0. -1.
    9000006    2    1    2  501    0  0.00000000000E+00  0.00000000000E+00  0.89376206477E+03  0.11062379352E+04  0.65188322645E+03 0.  0.
         13    1    3    3    0    0 -0.13119774624E+03 -0.27643107252E+03  0.25631187162E+03  0.39915255480E+03  0.00000000000E+00 0. -1.
          2    1    3    3  501    0  0.13119774624E+03  0.27643107252E+03  0.63745019315E+03  0.70708538043E+03  0.00000000000E+00 0. -1.
<mgrwt>
<rscale>  0 0.65188323E+03</rscale>
<asrwt>0</asrwt>
<pdfrwt beam="1">0</pdfrwt>
<pdfrwt beam="2">  1        2 0.38632058E+00 0.65188323E+03</pdfrwt>
<totfact> 0.44786353E+00</totfact>
</mgrwt>
</event>
<event>
 5    1  0.2354746E-004  0.6501362E+03  0.7818608E-02  0.9806524E-01
         13   -1    0    0    0    0  0.00000000000E+00  0.00000000000E+00  0.10000000000E+04  0.10000000000E+04  0.00000000000E+00 0. -1.
          2   -1    0    0  501    0 -0.00000000000E+00 -0.00000000000E+00 -0.10566926094E+03  0.10566926094E+03  0.00000000000E+00 0. -1.
    9000006    2    1    2  501    0  0.00000000000E+00  0.00000000000E+00  0.89433073906E+03  0.11056692609E+04  0.65013617324E+03 0.  0.
         13    1    3    3    0    0  0.25452695041E+03 -0.10689070733E+03  0.15526487036E+03  0.31672823014E+03  0.00000000000E+00 0. -1.
          4    1    3    3  501    0 -0.25452695041E+03  0.10689070733E+03  0.73906586870E+03  0.78894103080E+03  0.00000000000E+00 0. -1.
<mgrwt>
<rscale>  0 0.65013617E+03</rscale>
<asrwt>0</asrwt>
<pdfrwt beam="1">0</pdfrwt>
<pdfrwt beam="2">  1        2 0.38425267E+00 0.65013617E+03</pdfrwt>
<totfact> 0.45589702E+00</totfact>
</mgrwt>
</event>
<event>
 5    1  0.2354746E-004  0.6571769E+03  0.7818608E-02  0.9793405E-01
         13   -1    0    0    0    0  0.00000000000E+00  0.00000000000E+00  0.10000000000E+04  0.10000000000E+04  0.00000000000E+00 0. -1.
          2   -1    0    0  501    0 -0.00000000000E+00 -0.00000000000E+00 -0.10797037014E+03  0.10797037014E+03  0.00000000000E+00 0. -1.
    9000006    2    1    2  501    0  0.00000000000E+00  0.00000000000E+00  0.89202962986E+03  0.11079703701E+04  0.65717690202E+03 0.  0.
         13    1    3    3    0    0  0.98724614711E+02 -0.23350876537E+03  0.93583867552E+02  0.27024217531E+03  0.00000000000E+00 0. -1.
          4    1    3    3  501    0 -0.98724614711E+02  0.23350876537E+03  0.79844576231E+03  0.83772819482E+03  0.00000000000E+00 0. -1.
<mgrwt>
<rscale>  0 0.65717690E+03</rscale>
<asrwt>0</asrwt>
<pdfrwt beam="1">0</pdfrwt>
<pdfrwt beam="2">  1        2 0.39262036E+00 0.65717690E+03</pdfrwt>
<totfact> 0.42417329E+00</totfact>
</mgrwt>
</event>
<event>
 5    1  0.2354746E-004  0.6481454E+03  0.7818608E-02  0.9810265E-01
         13   -1    0    0    0    0  0.00000000000E+00  0.00000000000E+00  0.10000000000E+04  0.10000000000E+04  0.00000000000E+00 0. -1.
          2   -1    0    0  501    0 -0.00000000000E+00 -0.00000000000E+00 -0.10502311536E+03  0.10502311536E+03  0.00000000000E+00 0. -1.
    9000006    2    1    2  501    0  0.00000000000E+00  0.00000000000E+00  0.89497688464E+03  0.11050231154E+04  0.64814540146E+03 0.  0.
         13    1    3    3    0    0  0.83634244157E+02  0.31230363402E+03  0.48541504392E+03  0.58322895288E+03  0.00000000000E+00 0. -1.
          2    1    3    3  501    0 -0.83634244157E+02 -0.31230363402E+03  0.40956184072E+03  0.52179416248E+03  0.00000000000E+00 0. -1.
<mgrwt>
<rscale>  0 0.64814540E+03</rscale>
<asrwt>0</asrwt>
<pdfrwt beam="1">0</pdfrwt>
<pdfrwt beam="2">  1        2 0.38190304E+00 0.64814540E+03</pdfrwt>
<totfact> 0.46518342E+00</totfact>
</mgrwt>
</event>
<event>
 5    1  0.2354746E-004  0.6657832E+03  0.7818608E-02  0.9777606E-01
         13   -1    0    0    0    0  0.00000000000E+00  0.00000000000E+00  0.10000000000E+04  0.10000000000E+04  0.00000000000E+00 0. -1.
          2   -1    0    0  501    0 -0.00000000000E+00 -0.00000000000E+00 -0.11081681244E+03  0.11081681244E+03  0.00000000000E+00 0. -1.
    9000006    2    1    2  501    0  0.00000000000E+00  0.00000000000E+00  0.88918318756E+03  0.11108168124E+04  0.66578318526E+03 0.  0.
         13    1    3    3    0    0 -0.12642660353E+03  0.28547913938E+03  0.63725652365E+03  0.70963223013E+03  0.00000000000E+00 0. -1.
          2    1    3    3  501    0  0.12642660353E+03 -0.28547913938E+03  0.25192666391E+03  0.40118458232E+03  0.00000000000E+00 0. -1.
<mgrwt>
<rscale>  0 0.66578319E+03</rscale>
<asrwt>0</asrwt>
<pdfrwt beam="1">0</pdfrwt>
<pdfrwt beam="2">  1        2 0.40297108E+00 0.66578319E+03</pdfrwt>
<totfact> 0.38769518E+00</totfact>
</mgrwt>
</event>
<event>
 5    1  0.2354746E-004  0.6589373E+03  0.7818608E-02  0.9790152E-01
         13   -1    0    0    0    0  0.00000000000E+00  0.00000000000E+00  0.10000000000E+04  0.10000000000E+04  0.00000000000E+00 0. -1.
          2   -1    0    0  501    0 -0.00000000000E+00 -0.00000000000E+00 -0.10854958781E+03  0.10854958781E+03  0.00000000000E+00 0. -1.
    9000006    2    1    2  501    0  0.00000000000E+00  0.00000000000E+00  0.89145041219E+03  0.11085495878E+04  0.65893728931E+03 0.  0.
         13    1    3    3    0    0 -0.16652167508E+02 -0.12136396468E+03 -0.68812108185E+02  0.14050484987E+03  0.00000000000E+00 0. -1.
          4    1    3    3  501    0  0.16652167508E+02  0.12136396468E+03  0.96026252038E+03  0.96804473794E+03  0.00000000000E+00 0. -1.
<mgrwt>
<rscale>  0 0.65893729E+03</rscale>
<asrwt>0</asrwt>
<pdfrwt beam="1">0</pdfrwt>
<pdfrwt beam="2">  1        2 0.39472661E+00 0.65893729E+03</pdfrwt>
<totfact> 0.41650923E+00</totfact>
</mgrwt>
</event>
<event>
 5    1  0.2354746E-004  0.6167442E+03  0.7818608E-02  0.9871263E-01
         13   -1    0    0    0    0  0.00000000000E+00  0.00000000000E+00  0.10000000000E+04  0.10000000000E+04  0.00000000000E+00 0. -1.
          2   -1    0    0  501    0 -0.00000000000E+00 -0.00000000000E+00 -0.95093359658E+02  0.95093359658E+02  0.00000000000E+00 0. -1.
    9000006    2    1    2  501    0  0.00000000000E+00  0.00000000000E+00  0.90490664034E+03  0.10950933597E+04  0.61674422465E+03 0.  0.
         13    1    3    3    0    0 -0.10631234727E+03 -0.28747348478E+03  0.39223861957E+03  0.49778956831E+03  0.00000000000E+00 0. -1.
          4    1    3    3  501    0  0.10631234727E+03  0.28747348478E+03  0.51266802077E+03  0.59730379135E+03  0.00000000000E+00 0. -1.
<mgrwt>
<rscale>  0 0.61674422E+03</rscale>
<asrwt>0</asrwt>
<pdfrwt beam="1">0</pdfrwt>
<pdfrwt beam="2">  1        2 0.34579476E+00 0.61674422E+03</pdfrwt>
<totfact> 0.63153167E+00</totfact>
</mgrwt>
</event>
<event>
 5    1  0.2354746E-004  0.6427578E+03  0.7818608E-02  0.9820464E-01
         13   -1    0    0    0    0  0.00000000000E+00  0.00000000000E+00  0.10000000000E+04  0.10000000000E+04  0.00000000000E+00 0. -1.
          2   -1    0    0  501    0 -0.00000000000E+00 -0.00000000000E+00 -0.10328440726E+03  0.10328440726E+03  0.00000000000E+00 0. -1.
    9000006    2    1    2  501    0  0.00000000000E+00  0.00000000000E+00  0.89671559274E+03  0.11032844073E+04  0.64275783079E+03 0.  0.
         13    1    3    3    0    0  0.19865633263E+03  0.25261623657E+03  0.45223636625E+03  0.55479458579E+03  0.00000000000E+00 0. -1.
          2    1    3    3  501    0 -0.19865633263E+03 -0.25261623657E+03  0.44447922649E+03  0.54848982147E+03  0.00000000000E+00 0. -1.
<mgrwt>
<rscale>  0 0.64275783E+03</rscale>
<asrwt>0</asrwt>
<pdfrwt beam="1">0</pdfrwt>
<pdfrwt beam="2">  1        2 0.37558045E+00 0.64275783E+03</pdfrwt>
<totfact> 0.49103309E+00</totfact>
</mgrwt>
</event>
<event>
 5    1  0.2354746E-004  0.6587847E+03  0.7818608E-02  0.9790434E-01
         13   -1    0    0    0    0  0.00000000000E+00  0.00000000000E+00  0.10000000000E+04  0.10000000000E+04  0.00000000000E+00 0. -1.
          2   -1    0    0  501    0 -0.00000000000E+00 -0.00000000000E+00 -0.10849930628E+03  0.10849930628E+03  0.00000000000E+00 0. -1.
    9000006    2    1    2  501    0  0.00000000000E+00  0.00000000000E+00  0.89150069372E+03  0.11084993063E+04  0.65878465763E+03 0.  0.
         13    1    3    3    0    0 -0.29052663223E+03 -0.98146804348E+02  0.64809322101E+03  0.71698210742E+03  0.00000000000E+00 0. -1.
          2    1    3    3  501    0  0.29052663223E+03  0.98146804348E+02  0.24340747271E+03  0.39151719887E+03  0.00000000000E+00 0. -1.
<mgrwt>
<rscale>  0 0.65878466E+03</rscale>
<asrwt>0</asrwt>
<pdfrwt beam="1">0</pdfrwt>
<pdfrwt beam="2">  1        2 0.39454376E+00 0.65878466E+03</pdfrwt>
<totfact> 0.41716953E+00</totfact>
</mgrwt>
</event>
<event>
 5    1  0.2354746E-004  0.6498426E+03  0.7818608E-02  0.9807074E-01
         13   -1    0    0    0    0  0.00000000000E+00  0.00000000000E+00  0.10000000000E+04  0.10000000000E+04  0.00000000000E+00 0. -1.
          2   -1    0    0  501    0 -0.00000000000E+00 -0.00000000000E+00 -0.10557386576E+03  0.10557386576E+03  0.00000000000E+00 0. -1.
    9000006    2    1    2  501    0  0.00000000000E+00  0.00000000000E+00  0.89442613424E+03  0.11055738658E+04  0.64984264482E+03 0.  0.
         13    1    3    3    0    0  0.76919342358E+02  0.27718554346E+03  0.19017983452E+03  0.34484312403E+03  0.00000000000E+00 0. -1.
          4    1    3    3  501    0 -0.76919342358E+02 -0.27718554346E+03  0.70424629973E+03  0.76073074173E+03  0.00000000000E+00 0. -1.
<mgrwt>
<rscale>  0 0.64984264E+03</rscale>
<asrwt>0</asrwt>
<pdfrwt beam="1">0</pdfrwt>
<pdfrwt beam="2">  1        2 0.38390578E+00 0.64984264E+03</pdfrwt>
<totfact> 0.45725736E+00</totfact>
</mgrwt>
</event>
<event>
 5    1  0.2354746E-004  0.6540328E+03  0.7818608E-02  0.9799241E-01
         13   -1    0    0    0    0  0.00000000000E+00  0.00000000000E+00  0.10000000000E+04  0.10000000000E+04  0.00000000000E+00 0. -1.
          2   -1    0    0  501    0 -0.00000000000E+00 -0.00000000000E+00 -0.10693973071E+03  0.10693973071E+03  0.00000000000E+00 0. -1.
    9000006    2    1    2  501    0  0.00000000000E+00  0.00000000000E+00  0.89306026929E+03  0.11069397307E+04  0.65403281481E+03 0.  0.
         13    1    3    3    0    0  0.28609705293E+03 -0.15606423338E+03  0.40073408142E+03  0.51652238349E+03  0.00000000000E+00 0. -1.
          2    1    3    3  501    0 -0.28609705293E+03  0.15606423338E+03  0.49232618787E+03  0.59041734722E+03  0.00000000000E+00 0. -1.
<mgrwt>
<rscale>  0 0.65403281E+03</rscale>
<asrwt>0</asrwt>
<pdfrwt beam="1">0</pdfrwt>
<pdfrwt beam="2">  1        2 0.38887257E+00 0.65403281E+03</pdfrwt>
<totfact> 0.43812635E+00</totfact>
</mgrwt>
</event>
<event>
 5    1  0.2354746E-004  0.6750450E+03  0.7818608E-02  0.9760887E-01
         13   -1    0    0    0    0  0.00000000000E+00  0.00000000000E+00  0.10000000000E+04  0.10000000000E+04  0.00000000000E+00 0. -1.
          2   -1    0    0  501    0 -0.00000000000E+00 -0.00000000000E+00 -0.11392142456E+03  0.11392142456E+03  0.00000000000E+00 0. -1.
    9000006    2    1    2  501    0  0.00000000000E+00  0.00000000000E+00  0.88607857544E+03  0.11139214246E+04  0.67504496015E+03 0.  0.
         13    1    3    3    0    0  0.38483119895E+02  0.13789945269E+03 -0.61333429500E+02  0.15575300685E+03  0.00000000000E+00 0. -1.
          2    1    3    3  501    0 -0.38483119895E+02 -0.13789945269E+03  0.94741200494E+03  0.95816841770E+03  0.00000000000E+00 0. -1.
<mgrwt>
<rscale>  0 0.67504496E+03</rscale>
<asrwt>0</asrwt>
<pdfrwt beam="1">0</pdfrwt>
<pdfrwt beam="2">  1        2 0.41426060E+00 0.67504496E+03</pdfrwt>
<totfact> 0.35113670E+00</totfact>
</mgrwt>
</event>
<event>
 5    1  0.2354746E-004  0.6722903E+03  0.7818608E-02  0.9765829E-01
         13   -1    0    0    0    0  0.00000000000E+00  0.00000000000E+00  0.10000000000E+04  0.10000000000E+04  0.00000000000E+00 0. -1.
          2   -1    0    0  501    0 -0.00000000000E+00 -0.00000000000E+00 -0.11299357245E+03  0.11299357245E+03  0.00000000000E+00 0. -1.
    9000006    2    1    2  501    0  0.00000000000E+00  0.00000000000E+00  0.88700642755E+03  0.11129935724E+04  0.67229033148E+03 0.  0.
         13    1    3    3    0    0  0.54208348973E+02  0.13451260807E+03  0.94554347162E+03  0.95660056635E+03  0.00000000000E+00 0. -1.
          4    1    3    3  501    0 -0.54208348973E+02 -0.13451260807E+03 -0.58537044064E+02  0.15639300610E+03  0.00000000000E+00 0. -1.
<mgrwt>
<rscale>  0 0.67229033E+03</rscale>
<asrwt>0</asrwt>
<pdfrwt beam="1">0</pdfrwt>
<pdfrwt beam="2">  1        2 0.41088658E+00 0.67229033E+03</pdfrwt>
<totfact> 0.36172542E+00</totfact>
</mgrwt>
</event>
<event>
 5    1  0.2354746E-004  0.6530835E+03  0.7818608E-02  0.9801010E-01
         13   -1    0    0    0    0  0.00000000000E+00  0.00000000000E+00  0.10000000000E+04  0.10000000000E+04  0.00000000000E+00 0. -1.
          2   -1    0    0  501    0 -0.00000000000E+00 -0.00000000000E+00 -0.10662952150E+03  0.10662952150E+03  0.00000000000E+00 0. -1.
    9000006    2    1    2  501    0  0.00000000000E+00  0.00000000000E+00  0.89337047850E+03  0.11066295215E+04  0.65308352147E+03 0.  0.
         13    1    3    3    0    0  0.12954336593E+03 -0.24119081328E+03  0.14511252872E+03  0.30985825478E+03  0.00000000000E+00 0. -1.
          2    1    3    3  501    0 -0.12954336593E+03  0.24119081328E+03  0.74825794978E+03  0.79677126672E+03  0.00000000000E+00 0. -1.
<mgrwt>
<rscale>  0 0.65308352E+03</rscale>
<asrwt>0</asrwt>
<pdfrwt beam="1">0</pdfrwt>
<pdfrwt beam="2">  1        2 0.38774453E+00 0.65308352E+03</pdfrwt>
<totfact> 0.44240652E+00</totfact>
</mgrwt>
</event>
<event>
 5    1  0.2354746E-004  0.6435938E+03  0.7818608E-02  0.9818875E-01
         13   -1    0    0    0    0  0.00000000000E+00  0.00000000000E+00  0.10000000000E+04  0.10000000000E+04  0.00000000000E+00 0. -1.
          2   -1    0    0  501    0 -0.00000000000E+00 -0.00000000000E+00 -0.10355325343E+03  0.10355325343E+03  0.00000000000E+00 0. -1.
    9000006    2    1    2  501    0  0.00000000000E+00  0.00000000000E+00  0.89644674657E+03  0.11035532534E+04  0.64359382665E+03 0.  0.
         13    1    3    3    0    0 -0.12697907355E+03  0.14396802855E+03  0.53767097738E+01  0.19204006710E+03  0.00000000000E+00 0. -1.
          4    1    3    3  501    0  0.12697907355E+03 -0.14396802855E+03  0.89107003680E+03  0.91151318633E+03  0.00000000000E+00 0. -1.
<mgrwt>
<rscale>  0 0.64359383E+03</rscale>
<asrwt>0</asrwt>
<pdfrwt beam="1">0</pdfrwt>
<pdfrwt beam="2">  1        2 0.37655808E+00 0.64359383E+03</pdfrwt>
<totfact> 0.48695240E+00</totfact>
</mgrwt>
</event>
<event>
 5    1  0.2354746E-004  0.6439067E+03  0.7818608E-02  0.9818281E-01
         13   -1    0    0    0    0  0.00000000000E+00  0.00000000000E+00  0.10000000000E+04  0.10000000000E+04  0.00000000000E+00 0. -1.
          2   -1    0    0  501    0 -0.00000000000E+00 -0.00000000000E+00 -0.10365394509E+03  0.10365394509E+03  0.00000000000E+00 0. -1.
    9000006    2    1    2  501    0  0.00000000000E+00  0.00000000000E+00  0.89634605491E+03  0.11036539451E+04  0.64390665499E+03 0.  0.
         13    1    3    3    0    0 -0.43860874327E+02 -0.30479228978E+03  0.28709536105E+03  0.42100577496E+03  0.00000000000E+00 0. -1.
          2    1    3    3  501    0  0.43860874327E+02  0.30479228978E+03  0.60925069386E+03  0.68264817013E+03  0.00000000000E+00 0. -1.
<mgrwt>
<rscale>  0 0.64390665E+03</rscale>
<asrwt>0</asrwt>
<pdfrwt beam="1">0</pdfrwt>
<pdfrwt beam="2">  1        2 0.37692423E+00 0.64390665E+03</pdfrwt>
<totfact> 0.48543204E+00</totfact>
</mgrwt>
</event>
<event>
 5    1  0.2354746E-004  0.6538413E+03  0.7818608E-02  0.9799598E-01
         13   -1    0    0    0    0  0.00000000000E+00  0.00000000000E+00  0.10000000000E+04  0.10000000000E+04  0.00000000000E+00 0. -1.
          2   -1    0    0  501    0 -0.00000000000E+00 -0.00000000000E+00 -0.10687710551E+03  0.10687710551E+03  0.00000000000E+00 0. -1.
    9000006    2    1    2  501    0  0.00000000000E+00  0.00000000000E+00  0.89312289449E+03  0.11068771055E+04  0.65384128198E+03 0.  0.
         13    1    3    3    0    0 -0.25037755557E+03 -0.20673168832E+03  0.51102884673E+03  0.60545635142E+03  0.00000000000E+00 0. -1.
          2    1    3    3  501    0  0.25037755557E+03  0.20673168832E+03  0.38209404777E+03  0.50142075408E+03  0.00000000000E+00 0. -1.
<mgrwt>
<rscale>  0 0.65384128E+03</rscale>
<asrwt>0</asrwt>
<pdfrwt beam="1">0</pdfrwt>
<pdfrwt beam="2">  1        2 0.38864484E+00 0.65384128E+03</pdfrwt>
<totfact> 0.43898740E+00</totfact>
</mgrwt>
</event>
<event>
 5    1  0.2354746E-004  0.6511072E+03  0.7818608E-02  0.9804704E-01
         13   -1    0    0    0    0  0.00000000000E+00  0.00000000000E+00  0.10000000000E+04  0.10000000000E+04  0.00000000000E+00 0. -1.
          2   -1    0    0  501    0 -0.00000000000E+00 -0.00000000000E+00 -0.10598515994E+03  0.10598515994E+03  0.00000000000E+00 0. -1.
    9000006    2    1    2  501    0  0.00000000000E+00  0.00000000000E+00  0.89401484006E+03  0.11059851599E+04  0.65110724137E+03 0.  0.
         13    1    3    3    0    0 -0.16344543877E+03  0.21810369925E+03  0.74944576339E+03  0.79746635499E+03  0.00000000000E+00 0. -1.
          2    1    3    3  501    0  0.16344543877E+03 -0.21810369925E+03  0.14456907667E+03  0.30851880495E+03  0.00000000000E+00 0. -1.
<mgrwt>
<rscale>  0 0.65110724E+03</rscale>
<asrwt>0</asrwt>
<pdfrwt beam="1">0</pdfrwt>
<pdfrwt beam="2">  1        2 0.38540139E+00 0.65110724E+03</pdfrwt>
<totfact> 0.45141843E+00</totfact>
</mgrwt>
</event>
<event>
 5    1  0.2354746E-004  0.6419793E+03  0.7818608E-02  0.9821947E-01
         13   -1    0    0    0    0  0.00000000000E+00  0.00000000000E+00  0.10000000000E+04  0.10000000000E+04  0.00000000000E+00 0. -1.
          2   -1    0    0  501    0 -0.00000000000E+00 -0.00000000000E+00 -0.10303436631E+03  0.10303436631E+03  0.00000000000E+00 0. -1.
    9000006    2    1    2  501    0  0.00000000000E+00  0.00000000000E+00  0.89696563369E+03  0.11030343663E+04  0.64197933398E+03 0.  0.
         13    1    3    3    0    0 -0.15457917251E+03  0.22086822373E+02  0.93034448366E+03  0.94335751789E+03  0.00000000000E+00 0. -1.
          4    1    3    3  501    0  0.15457917251E+03 -0.22086822373E+02 -0.33378849972E+02  0.15967684842E+03  0.00000000000E+00 0. -1.
<mgrwt>
<rscale>  0 0.64197933E+03</rscale>
<asrwt>0</asrwt>
<pdfrwt beam="1">0</pdfrwt>
<pdfrwt beam="2">  1        2 0.37467121E+00 0.64197933E+03</pdfrwt>
<totfact> 0.49485664E+00</totfact>
</mgrwt>
</event>
<event>
 5    1  0.2354746E-004  0.6496120E+03  0.7818608E-02  0.9807507E-01
         13   -1    0    0    0    0  0.00000000000E+00  0.00000000000E+00  0.10000000000E+04  0.10000000000E+04  0.00000000000E+00 0. -1.
          2   -1    0    0  501    0 -0.00000000000E+00 -0.00000000000E+00 -0.10549894051E+03  0.10549894051E+03  0.00000000000E+00 0. -1.
    9000006    2    1    2  501    0  0.00000000000E+00  0.00000000000E+00  0.89450105949E+03  0.11054989405E+04  0.64961200886E+03 0.  0.
         13    1    3    3    0    0 -0.13796129328E+03 -0.28103774393E+03  0.30003486850E+03  0.43363170349E+03  0.00000000000E+00 0. -1.
          4    1    3    3  501    0  0.13796129328E+03  0.28103774393E+03  0.59446619099E+03  0.67186723702E+03  0.00000000000E+00 0. -1.
<mgrwt>
<rscale>  0 0.64961201E+03</rscale>
<asrwt>0</asrwt>
<pdfrwt beam="1">0</pdfrwt>
<pdfrwt beam="2">  1        2 0.38363332E+00 0.64961201E+03</pdfrwt>
<totfact> 0.45832838E+00</totfact>
</mgrwt>
</event>
<event>
 5    1  0.2354746E-004  0.6562896E+03  0.7818608E-02  0.9795048E-01
         13   -1    0    0    0    0  0.00000000000E+00  0.00000000000E+00  0.10000000000E+04  0.10000000000E+04  0.00000000000E+00 0. -1.
          2   -1    0    0  501    0 -0.00000000000E+00 -0.00000000000E+00 -0.10767900815E+03  0.10767900815E+03  0.00000000000E+00 0. -1.
    9000006    2    1    2  501    0  0.00000000000E+00  0.00000000000E+00  0.89232099185E+03  0.11076790081E+04  0.65628959507E+03 0.  0.
         13    1    3    3    0    0  0.19995751892E+03 -0.23404371572E+03  0.25431928958E+03  0.39929659564E+03  0.00000000000E+00 0. -1.
          4    1    3    3  501    0 -0.19995751892E+03  0.23404371572E+03  0.63800170227E+03  0.70838241250E+03  0.00000000000E+00 0. -1.
<mgrwt>
<rscale>  0 0.65628960E+03</rscale>
<asrwt>0</asrwt>
<pdfrwt beam="1">0</pdfrwt>
<pdfrwt beam="2">  1        2 0.39156086E+00 0.65628960E+03</pdfrwt>
<totfact> 0.42807655E+00</totfact>
</mgrwt>
</event>
<event>
 5    1  0.2354746E-004  0.6484840E+03  0.7818608E-02  0.9809628E-01
         13   -1    0    0    0    0  0.00000000000E+00  0.00000000000E+00  0.10000000000E+04  0.10000000000E+04  0.00000000000E+00 0. -1.
          2   -1    0    0  501    0 -0.00000000000E+00 -0.00000000000E+00 -0.10513288183E+03  0.10513288183E+03  0.00000000000E+00 0. -1.
    9000006    2    1    2  501    0  0.00000000000E+00  0.00000000000E+00  0.89486711817E+03  0.11051328818E+04  0.64848402240E+03 0.  0.
         13    1    3    3    0    0  0.89198074727E+02  0.22895417777E+01 -0.83798558432E+02  0.12240807544E+03  0.00000000000E+00 0. -1.
          2    1    3    3  501    0 -0.89198074727E+02 -0.22895417777E+01  0.97866567660E+03  0.98272480639E+03  0.00000000000E+00 0. -1.
<mgrwt>
<rscale>  0 0.64848402E+03</rscale>
<asrwt>0</asrwt>
<pdfrwt beam="1">0</pdfrwt>
<pdfrwt beam="2">  1        2 0.38230219E+00 0.64848402E+03</pdfrwt>
<totfact> 0.46359385E+00</totfact>
</mgrwt>
</event>
<event>
 5    1  0.2354746E-004  0.6536083E+03  0.7818608E-02  0.9800032E-01
         13   -1    0    0    0    0  0.00000000000E+00  0.00000000000E+00  0.10000000000E+04  0.10000000000E+04  0.00000000000E+00 0. -1.
          2   -1    0    0  501    0 -0.00000000000E+00 -0.00000000000E+00 -0.10680095621E+03  0.10680095621E+03  0.00000000000E+00 0. -1.
    9000006    2    1    2  501    0  0.00000000000E+00  0.00000000000E+00  0.89319904379E+03  0.11068009562E+04  0.65360831150E+03 0.  0.
         13    1    3    3    0    0  0.13906787188E+02 -0.18453085756E+03  0.90272925865E+03  0.92150157382E+03  0.00000000000E+00 0. -1.
          4    1    3    3  501    0 -0.13906787188E+02  0.18453085756E+03 -0.95302148678E+01  0.18529938240E+03  0.00000000000E+00 0. -1.
<mgrwt>
<rscale>  0 0.65360831E+03</rscale>
<asrwt>0</asrwt>
<pdfrwt beam="1">0</pdfrwt>
<pdfrwt beam="2">  1        2 0.38836793E+00 0.65360831E+03</pdfrwt>
<totfact> 0.44003646E+00</totfact>
</mgrwt>
</event>
<event>
 5    1  0.2354746E-004  0.6662698E+03  0.7818608E-02  0.9776720E-01
         13   -1    0    0    0    0  0.00000000000E+00  0.00000000000E+00  0.10000000000E+04  0.10000000000E+04  0.00000000000E+00 0. -1.
          2   -1    0    0  501    0 -0.00000000000E+00 -0.00000000000E+00 -0.11097887417E+03  0.11097887417E+03  0.00000000000E+00 0. -1.
    9000006    2    1    2  501    0  0.00000000000E+00  0.00000000000E+00  0.88902112583E+03  0.11109788742E+04  0.66626983774E+03 0.  0.
         13    1    3    3    0    0 -0.30500291533E+03 -0.13206160969E+03  0.48223452227E+03  0.58567668691E+03  0.00000000000E+00 0. -1.
          4    1    3    3  501    0  0.30500291533E+03  0.13206160969E+03  0.40678660355E+03  0.52530218726E+03  0.00000000000E+00 0. -1.
<mgrwt>
<rscale>  0 0.66626984E+03</rscale>
<asrwt>0</asrwt>
<pdfrwt beam="1">0</pdfrwt>
<pdfrwt beam="2">  1        2 0.40356039E+00 0.66626984E+03</pdfrwt>
<totfact> 0.38570578E+00</totfact>
</mgrwt>
</event>
<event>
 5    1  0.2354746E-004  0.6463918E+03  0.7818608E-02  0.9813573E-01
         13   -1    0    0    0    0  0.00000000000E+00  0.00000000000E+00  0.10000000000E+04  0.10000000000E+04  0.00000000000E+00 0. -1.
          2   -1    0    0  501    0 -0.00000000000E+00 -0.00000000000E+00 -0.10445558431E+03  0.10445558431E+03  0.00000000000E+00 0. -1.
    9000006    2    1    2  501    0  0.00000000000E+00  0.00000000000E+00  0.89554441569E+03  0.11044555843E+04  0.64639178310E+03 0.  0.
         13    1    3    3    0    0 -0.99287858967E+02 -0.30751751096E+03  0.43833808727E+03  0.54457816449E+03  0.00000000000E+00 0. -1.
          2    1    3    3  501    0  0.99287858967E+02  0.30751751096E+03  0.45720632841E+03  0.55987741982E+03  0.00000000000E+00 0. -1.
<mgrwt>
<rscale>  0 0.64639178E+03</rscale>
<asrwt>0</asrwt>
<pdfrwt beam="1">0</pdfrwt>
<pdfrwt beam="2">  1        2 0.37983929E+00 0.64639178E+03</pdfrwt>
<totfact> 0.47348141E+00</totfact>
</mgrwt>
</event>
<event>
 5    1  0.2354746E-004  0.6491888E+03  0.7818608E-02  0.9808303E-01
         13   -1    0    0    0    0  0.00000000000E+00  0.00000000000E+00  0.10000000000E+04  0.10000000000E+04  0.00000000000E+00 0. -1.
          2   -1    0    0  501    0 -0.00000000000E+00 -0.00000000000E+00 -0.10536152584E+03  0.10536152584E+03  0.00000000000E+00 0. -1.
    9000006    2    1    2  501    0  0.00000000000E+00  0.00000000000E+00  0.89463847416E+03  0.11053615258E+04  0.64918880410E+03 0.  0.
         13    1    3    3    0    0 -0.17752357064E+03 -0.27063629885E+03  0.48912695757E+03  0.58651837568E+03  0.00000000000E+00 0. -1.
          2    1    3    3  501    0  0.17752357064E+03  0.27063629885E+03  0.40551151659E+03  0.51884315016E+03  0.00000000000E+00 0. -1.
<mgrwt>
<rscale>  0 0.64918880E+03</rscale>
<asrwt>0</asrwt>
<pdfrwt beam="1">0</pdfrwt>
<pdfrwt beam="2">  1        2 0.38313363E+00 0.64918880E+03</pdfrwt>
<totfact> 0.46029858E+00</totfact>
</mgrwt>
</event>
<event>
 5    1  0.2354746E-004  0.6468910E+03  0.7818608E-02  0.9812631E-01
         13   -1    0    0    0    0  0.00000000000E+00  0.00000000000E+00  0.10000000000E+04  0.10000000000E+04  0.00000000000E+00 0. -1.
          2   -1    0    0  501    0 -0.00000000000E+00 -0.00000000000E+00 -0.10461698221E+03  0.10461698221E+03  0.00000000000E+00 0. -1.
    9000006    2    1    2  501    0  0.00000000000E+00  0.00000000000E+00  0.89538301779E+03  0.11046169822E+04  0.64689097136E+03 0.  0.
         13    1    3    3    0    0  0.29461426801E+03  0.10426642782E+03  0.30535763838E+03  0.43693516934E+03  0.00000000000E+00 0. -1.
          2    1    3    3  501    0 -0.29461426801E+03 -0.10426642782E+03  0.59002537941E+03  0.66768181287E+03  0.00000000000E+00 0. -1.
<mgrwt>
<rscale>  0 0.64689097E+03</rscale>
<asrwt>0</asrwt>
<pdfrwt beam="1">0</pdfrwt>
<pdfrwt beam="2">  1        2 0.38042619E+00 0.64689097E+03</pdfrwt>
<totfact> 0.47110799E+00</totfact>
</mgrwt>
</event>
<event>
 5    1  0.2354746E-004  0.6710979E+03  0.7818608E-02  0.9767976E-01
         13   -1    0    0    0    0  0.00000000000E+00  0.00000000000E+00  0.10000000000E+04  0.10000000000E+04  0.00000000000E+00 0. -1.
          2   -1    0    0  501    0 -0.00000000000E+00 -0.00000000000E+00 -0.11259311157E+03  0.11259311157E+03  0.00000000000E+00 0. -1.
    9000006    2    1    2  501    0  0.00000000000E+00  0.00000000000E+00  0.88740688843E+03  0.11125931116E+04  0.67109794091E+03 0.  0.
         13    1    3    3    0    0  0.29611114292E+03 -0.13362719193E+03  0.30445148492E+03  0.44522886481E+03  0.00000000000E+00 0. -1.
          2    1    3    3  501    0 -0.29611114292E+03  0.13362719193E+03  0.58295540350E+03  0.66736424677E+03  0.00000000000E+00 0. -1.
<mgrwt>
<rscale>  0 0.67109794E+03</rscale>
<asrwt>0</asrwt>
<pdfrwt beam="1">0</pdfrwt>
<pdfrwt beam="2">  1        2 0.40943036E+00 0.67109794E+03</pdfrwt>
<totfact> 0.36638303E+00</totfact>
</mgrwt>
</event>
<event>
 5    1  0.2354746E-004  0.6490146E+03  0.7818608E-02  0.9808630E-01
         13   -1    0    0    0    0  0.00000000000E+00  0.00000000000E+00  0.10000000000E+04  0.10000000000E+04  0.00000000000E+00 0. -1.
          2   -1    0    0  501    0 -0.00000000000E+00 -0.00000000000E+00 -0.10530498425E+03  0.10530498425E+03  0.00000000000E+00 0. -1.
    9000006    2    1    2  501    0  0.00000000000E+00  0.00000000000E+00  0.89469501575E+03  0.11053049843E+04  0.64901458922E+03 0.  0.
         13    1    3    3    0    0 -0.10382748699E+03  0.19000626026E+03  0.85898752016E+03  0.88585669596E+03  0.00000000000E+00 0. -1.
          2    1    3    3  501    0  0.10382748699E+03 -0.19000626026E+03  0.35707495586E+02  0.21944828829E+03  0.00000000000E+00 0. -1.
<mgrwt>
<rscale>  0 0.64901459E+03</rscale>
<asrwt>0</asrwt>
<pdfrwt beam="1">0</pdfrwt>
<pdfrwt beam="2">  1        2 0.38292802E+00 0.64901459E+03</pdfrwt>
<totfact> 0.46111149E+00</totfact>
</mgrwt>
</event>
<event>
 5    1  0.2354746E-004  0.7298984E+03  0.7818608E-02  0.9667425E-01
         13   -1    0    0    0    0  0.00000000000E+00  0.00000000000E+00  0.10000000000E+04  0.10000000000E+04  0.00000000000E+00 0. -1.
          2   -1    0    0  501    0 -0.00000000000E+00 -0.00000000000E+00 -0.13318790300E+03  0.13318790300E+03  0.00000000000E+00 0. -1.
    9000006    2    1    2  501    0  0.00000000000E+00  0.00000000000E+00  0.86681209700E+03  0.11331879030E+04  0.72989835731E+03 0.  0.
         13    1    3    3    0    0 -0.61017810335E+02 -0.29750711161E+03  0.74759363584E+03  0.80692620418E+03  0.00000000000E+00 0. -1.
          4    1    3    3  501    0  0.61017810335E+02  0.29750711161E+03  0.11921846116E+03  0.32626169883E+03  0.00000000000E+00 0. -1.
<mgrwt>
<rscale>  0 0.72989836E+03</rscale>
<asrwt>0</asrwt>
<pdfrwt beam="1">0</pdfrwt>
<pdfrwt beam="2">  1        2 0.48432067E+00 0.72989836E+03</pdfrwt>
<totfact> 0.18476670E+00</totfact>
</mgrwt>
</event>
<event>
 5    1  0.2354746E-004  0.6683128E+03  0.7818608E-02  0.9773011E-01
         13   -1    0    0    0    0  0.00000000000E+00  0.00000000000E+00  0.10000000000E+04  0.10000000000E+04  0.00000000000E+00 0. -1.
          2   -1    0    0  501    0 -0.00000000000E+00 -0.00000000000E+00 -0.11166049633E+03  0.11166049633E+03  0.00000000000E+00 0. -1.
    9000006    2    1    2  501    0  0.00000000000E+00  0.00000000000E+00  0.88833950367E+03  0.11116604963E+04  0.66831279002E+03 0.  0.
         13    1    3    3    0    0 -0.23291875257E+03 -0.11319463286E+03  0.92899039306E+02  0.27512615599E+03  0.00000000000E+00 0. -1.
          4    1    3    3  501    0  0.23291875257E+03  0.11319463286E+03  0.79544046437E+03  0.83653434034E+03  0.00000000000E+00 0. -1.
<mgrwt>
<rscale>  0 0.66831279E+03</rscale>
<asrwt>0</asrwt>
<pdfrwt beam="1">0</pdfrwt>
<pdfrwt beam="2">  1        2 0.40603902E+00 0.66831279E+03</pdfrwt>
<totfact> 0.37743818E+00</totfact>
</mgrwt>
</event>
<event>
 5    1  0.2354746E-004  0.6617454E+03  0.7818608E-02  0.9784986E-01
         13   -1    0    0    0    0  0.00000000000E+00  0.00000000000E+00  0.10000000000E+04  0.10000000000E+04  0.00000000000E+00 0. -1.
          2   -1    0    0  501    0 -0.00000000000E+00 -0.00000000000E+00 -0.10947673291E+03  0.10947673291E+03  0.00000000000E+00 0. -1.
    9000006    2    1    2  501    0  0.00000000000E+00  0.00000000000E+00  0.89052326709E+03  0.11094767329E+04  0.66174536768E+03 0.  0.
         13    1    3    3    0    0  0.23441974972E+03  0.18583609239E+03  0.68230263954E+03  0.74499970753E+03  0.00000000000E+00 0. -1.
          2    1    3    3  501    0 -0.23441974972E+03 -0.18583609239E+03  0.20822062755E+03  0.36447702538E+03  0.00000000000E+00 0. -1.
<mgrwt>
<rscale>  0 0.66174537E+03</rscale>
<asrwt>0</asrwt>
<pdfrwt beam="1">0</pdfrwt>
<pdfrwt beam="2">  1        2 0.39809805E+00 0.66174537E+03</pdfrwt>
<totfact> 0.40450145E+00</totfact>
</mgrwt>
</event>
<event>
 5    1  0.2354746E-004  0.6463541E+03  0.7818608E-02  0.9813645E-01
         13   -1    0    0    0    0  0.00000000000E+00  0.00000000000E+00  0.10000000000E+04  0.10000000000E+04  0.00000000000E+00 0. -1.
          4   -1    0    0  501    0 -0.00000000000E+00 -0.00000000000E+00 -0.10444339385E+03  0.10444339385E+03  0.00000000000E+00 0. -1.
    9000006    2    1    2  501    0  0.00000000000E+00  0.00000000000E+00  0.89555660615E+03  0.11044433938E+04  0.64635406348E+03 0.  0.
         13    1    3    3    0    0  0.28751887192E+03  0.13416135320E+03  0.55279245236E+03  0.63737419605E+03  0.00000000000E+00 0. -1.
          2    1    3    3  501    0 -0.28751887192E+03 -0.13416135320E+03  0.34276415380E+03  0.46706919780E+03  0.00000000000E+00 0. -1.
<mgrwt>
<rscale>  0 0.64635406E+03</rscale>
<asrwt>0</asrwt>
<pdfrwt beam="1">0</pdfrwt>
<pdfrwt beam="2">  1        4 0.37979496E+00 0.64635406E+03</pdfrwt>
<totfact> 0.44013153E-02</totfact>
</mgrwt>
</event>
<event>
 5    1  0.2354746E-004  0.6141504E+03  0.7818608E-02  0.9876476E-01
         13   -1    0    0    0    0  0.00000000000E+00  0.00000000000E+00  0.10000000000E+04  0.10000000000E+04  0.00000000000E+00 0. -1.
          2   -1    0    0  501    0 -0.00000000000E+00 -0.00000000000E+00 -0.94295175389E+02  0.94295175389E+02  0.00000000000E+00 0. -1.
    9000006    2    1    2  501    0  0.00000000000E+00  0.00000000000E+00  0.90570482461E+03  0.10942951754E+04  0.61415039002E+03 0.  0.
         13    1    3    3    0    0 -0.81595035298E+02  0.25134213458E+03  0.17415789154E+03  0.31648315846E+03  0.00000000000E+00 0. -1.
          2    1    3    3  501    0  0.81595035298E+02 -0.25134213458E+03  0.73154693307E+03  0.77781201693E+03  0.00000000000E+00 0. -1.
<mgrwt>
<rscale>  0 0.61415039E+03</rscale>
<asrwt>0</asrwt>
<pdfrwt beam="1">0</pdfrwt>
<pdfrwt beam="2">  1        2 0.34289227E+00 0.61415039E+03</pdfrwt>
<totfact> 0.64705265E+00</totfact>
</mgrwt>
</event>
<event>
 5    1  0.2354746E-004  0.6924358E+03  0.7818608E-02  0.9730256E-01
         13   -1    0    0    0    0  0.00000000000E+00  0.00000000000E+00  0.10000000000E+04  0.10000000000E+04  0.00000000000E+00 0. -1.
          2   -1    0    0  501    0 -0.00000000000E+00 -0.00000000000E+00 -0.11986682144E+03  0.11986682144E+03  0.00000000000E+00 0. -1.
    9000006    2    1    2  501    0  0.00000000000E+00  0.00000000000E+00  0.88013317856E+03  0.11198668214E+04  0.69243576291E+03 0.  0.
         13    1    3    3    0    0  0.83029817122E+02  0.20921292974E+02 -0.10247248763E+03  0.13353749193E+03  0.00000000000E+00 0. -1.
          2    1    3    3  501    0 -0.83029817122E+02 -0.20921292974E+02  0.98260566619E+03  0.98632932951E+03  0.00000000000E+00 0. -1.
<mgrwt>
<rscale>  0 0.69243576E+03</rscale>
<asrwt>0</asrwt>
<pdfrwt beam="1">0</pdfrwt>
<pdfrwt beam="2">  1        2 0.43588027E+00 0.69243576E+03</pdfrwt>
<totfact> 0.28957412E+00</totfact>
</mgrwt>
</event>
<event>
 5    1  0.2354746E-004  0.6588526E+03  0.7818608E-02  0.9790308E-01
         13   -1    0    0    0    0  0.00000000000E+00  0.00000000000E+00  0.10000000000E+04  0.10000000000E+04  0.00000000000E+00 0. -1.
          2   -1    0    0  501    0 -0.00000000000E+00 -0.00000000000E+00 -0.10852169942E+03  0.10852169942E+03  0.00000000000E+00 0. -1.
    9000006    2    1    2  501    0  0.00000000000E+00  0.00000000000E+00  0.89147830058E+03  0.11085216994E+04  0.65885263730E+03 0.  0.
         13    1    3    3    0    0  0.17529944998E+03  0.21837879938E+03  0.15382361448E+03  0.31950101965E+03  0.00000000000E+00 0. -1.
          2    1    3    3  501    0 -0.17529944998E+03 -0.21837879938E+03  0.73765468610E+03  0.78902067977E+03  0.00000000000E+00 0. -1.
<mgrwt>
<rscale>  0 0.65885264E+03</rscale>
<asrwt>0</asrwt>
<pdfrwt beam="1">0</pdfrwt>
<pdfrwt beam="2">  1        2 0.39462519E+00 0.65885264E+03</pdfrwt>
<totfact> 0.41687534E+00</totfact>
</mgrwt>
</event>
<event>
 5    1  0.2354746E-004  0.6452948E+03  0.7818608E-02  0.9815648E-01
         13   -1    0    0    0    0  0.00000000000E+00  0.00000000000E+00  0.10000000000E+04  0.10000000000E+04  0.00000000000E+00 0. -1.
          2   -1    0    0  501    0 -0.00000000000E+00 -0.00000000000E+00 -0.10410134294E+03  0.10410134294E+03  0.00000000000E+00 0. -1.
    9000006    2    1    2  501    0  0.00000000000E+00  0.00000000000E+00  0.89589865706E+03  0.11041013429E+04  0.64529479447E+03 0.  0.
         13    1    3    3    0    0 -0.77887674623E+02  0.31256437318E+03  0.41647590799E+03  0.52651225928E+03  0.00000000000E+00 0. -1.
          2    1    3    3  501    0  0.77887674623E+02 -0.31256437318E+03  0.47942274907E+03  0.57758908366E+03  0.00000000000E+00 0. -1.
<mgrwt>
<rscale>  0 0.64529479E+03</rscale>
<asrwt>0</asrwt>
<pdfrwt beam="1">0</pdfrwt>
<pdfrwt beam="2">  1        2 0.37855114E+00 0.64529479E+03</pdfrwt>
<totfact> 0.47872890E+00</totfact>
</mgrwt>
</event>
<event>
 5    1  0.2354746E-004  0.6486817E+03  0.7818608E-02  0.9809256E-01
         13   -1    0    0    0    0  0.00000000000E+00  0.00000000000E+00  0.10000000000E+04  0.10000000000E+04  0.00000000000E+00 0. -1.
          2   -1    0    0  501    0 -0.00000000000E+00 -0.00000000000E+00 -0.10519699833E+03  0.10519699833E+03  0.00000000000E+00 0. -1.
    9000006    2    1    2  501    0  0.00000000000E+00  0.00000000000E+00  0.89480300167E+03  0.11051969983E+04  0.64868173501E+03 0.  0.
         13    1    3    3    0    0 -0.20171697627E+03 -0.22727700918E+03  0.25424892810E+03  0.39621596997E+03  0.00000000000E+00 0. -1.
          4    1    3    3  501    0  0.20171697627E+03  0.22727700918E+03  0.64055407356E+03  0.70898102836E+03  0.00000000000E+00 0. -1.
<mgrwt>
<rscale>  0 0.64868174E+03</rscale>
<asrwt>0</asrwt>
<pdfrwt beam="1">0</pdfrwt>
<pdfrwt beam="2">  1        2 0.38253535E+00 0.64868174E+03</pdfrwt>
<totfact> 0.46266763E+00</totfact>
</mgrwt>
</event>
<event>
 5    1  0.2354746E-004  0.6521415E+03  0.7818608E-02  0.9802769E-01
         13   -1    0    0    0    0  0.00000000000E+00  0.00000000000E+00  0.10000000000E+04  0.10000000000E+04  0.00000000000E+00 0. -1.
          2   -1    0    0  501    0 -0.00000000000E+00 -0.00000000000E+00 -0.10632212703E+03  0.10632212703E+03  0.00000000000E+00 0. -1.
    9000006    2    1    2  501    0  0.00000000000E+00  0.00000000000E+00  0.89367787297E+03  0.11063221270E+04  0.65214147861E+03 0.  0.
         13    1    3    3    0    0  0.88509142438E+01  0.31642955893E+03  0.31416736745E+03  0.44599006628E+03  0.00000000000E+00 0. -1.
          4    1    3    3  501    0 -0.88509142438E+01 -0.31642955893E+03  0.57951050552E+03  0.66033206075E+03  0.00000000000E+00 0. -1.
<mgrwt>
<rscale>  0 0.65214148E+03</rscale>
<asrwt>0</asrwt>
<pdfrwt beam="1">0</pdfrwt>
<pdfrwt beam="2">  1        2 0.38662673E+00 0.65214148E+03</pdfrwt>
<totfact> 0.44668514E+00</totfact>
</mgrwt>
</event>
<event>
 5    1  0.2354746E-004  0.6457084E+03  0.7818608E-02  0.9814865E-01
         13   -1    0    0    0    0  0.00000000000E+00  0.00000000000E+00  0.10000000000E+04  0.10000000000E+04  0.00000000000E+00 0. -1.
          2   -1    0    0  501    0 -0.00000000000E+00 -0.00000000000E+00 -0.10423484847E+03  0.10423484847E+03  0.00000000000E+00 0. -1.
    9000006    2    1    2  501    0  0.00000000000E+00  0.00000000000E+00  0.89576515153E+03  0.11042348485E+04  0.64570844341E+03 0.  0.
         13    1    3    3    0    0  0.48232398572E+02  0.29740038699E+03  0.64629625699E+03  0.71307237098E+03  0.00000000000E+00 0. -1.
          2    1    3    3  501    0 -0.48232398572E+02 -0.29740038699E+03  0.24946889454E+03  0.39116247749E+03  0.00000000000E+00 0. -1.
<mgrwt>
<rscale>  0 0.64570844E+03</rscale>
<asrwt>0</asrwt>
<pdfrwt beam="1">0</pdfrwt>
<pdfrwt beam="2">  1        2 0.37903661E+00 0.64570844E+03</pdfrwt>
<totfact> 0.47674505E+00</totfact>
</mgrwt>
</event>
<event>
 5    1  0.2354746E-004  0.6260978E+03  0.7818608E-02  0.9852693E-01
         13   -1    0    0    0    0  0.00000000000E+00  0.00000000000E+00  0.10000000000E+04  0.10000000000E+04  0.00000000000E+00 0. -1.
          2   -1    0    0  501    0 -0.00000000000E+00 -0.00000000000E+00 -0.97999624193E+02  0.97999624193E+02  0.00000000000E+00 0. -1.
    9000006    2    1    2  501    0  0.00000000000E+00  0.00000000000E+00  0.90200037581E+03  0.10979996242E+04  0.62609783323E+03 0.  0.
         13    1    3    3    0    0  0.54994872689E+02 -0.11566404409E+03  0.95195336119E+03  0.96052996257E+03  0.00000000000E+00 0. -1.
          2    1    3    3  501    0 -0.54994872689E+02  0.11566404409E+03 -0.49952985382E+02  0.13746966162E+03  0.00000000000E+00 0. -1.
<mgrwt>
<rscale>  0 0.62609783E+03</rscale>
<asrwt>0</asrwt>
<pdfrwt beam="1">0</pdfrwt>
<pdfrwt beam="2">  1        2 0.35636302E+00 0.62609783E+03</pdfrwt>
<totfact> 0.57790339E+00</totfact>
</mgrwt>
</event>
<event>
 5    1  0.2354746E-004  0.5132950E+03  0.7818608E-02  0.1010366E+00
         13   -1    0    0    0    0  0.00000000000E+00  0.00000000000E+00  0.10000000000E+04  0.10000000000E+04  0.00000000000E+00 0. -1.
          2   -1    0    0  501    0 -0.00000000000E+00 -0.00000000000E+00 -0.65867949800E+02  0.65867949800E+02  0.00000000000E+00 0. -1.
    9000006    2    1    2  501    0  0.00000000000E+00  0.00000000000E+00  0.93413205020E+03  0.10658679498E+04  0.51329504108E+03 0.  0.
         13    1    3    3    0    0  0.20370705453E+03 -0.11475299113E+03  0.24727692363E+03  0.34030969718E+03  0.00000000000E+00 0. -1.
          2    1    3    3  501    0 -0.20370705453E+03  0.11475299113E+03  0.68685512657E+03  0.72555825262E+03  0.00000000000E+00 0. -1.
<mgrwt>
<rscale>  0 0.51329504E+03</rscale>
<asrwt>0</asrwt>
<pdfrwt beam="1">0</pdfrwt>
<pdfrwt beam="2">  1        2 0.23952032E+00 0.51329504E+03</pdfrwt>
<totfact> 0.15206507E+01</totfact>
</mgrwt>
</event>
<event>
 5    1  0.2354746E-004  0.6559792E+03  0.7818608E-02  0.9795624E-01
         13   -1    0    0    0    0  0.00000000000E+00  0.00000000000E+00  0.10000000000E+04  0.10000000000E+04  0.00000000000E+00 0. -1.
          2   -1    0    0  501    0 -0.00000000000E+00 -0.00000000000E+00 -0.10757717222E+03  0.10757717222E+03  0.00000000000E+00 0. -1.
    9000006    2    1    2  501    0  0.00000000000E+00  0.00000000000E+00  0.89242282778E+03  0.11075771722E+04  0.65597918326E+03 0.  0.
         13    1    3    3    0    0 -0.19350516694E+03 -0.21717468916E+03  0.19032557275E+03  0.34761029744E+03  0.00000000000E+00 0. -1.
          4    1    3    3  501    0  0.19350516694E+03  0.21717468916E+03  0.70209725503E+03  0.75996687478E+03  0.00000000000E+00 0. -1.
<mgrwt>
<rscale>  0 0.65597918E+03</rscale>
<asrwt>0</asrwt>
<pdfrwt beam="1">0</pdfrwt>
<pdfrwt beam="2">  1        2 0.39119054E+00 0.65597918E+03</pdfrwt>
<totfact> 0.42944843E+00</totfact>
</mgrwt>
</event>
<event>
 5    1  0.2354746E-004  0.6480173E+03  0.7818608E-02  0.9810507E-01
         13   -1    0    0    0    0  0.00000000000E+00  0.00000000000E+00  0.10000000000E+04  0.10000000000E+04  0.00000000000E+00 0. -1.
          2   -1    0    0  501    0 -0.00000000000E+00 -0.00000000000E+00 -0.10498161380E+03  0.10498161380E+03  0.00000000000E+00 0. -1.
    9000006    2    1    2  501    0  0.00000000000E+00  0.00000000000E+00  0.89501838620E+03  0.11049816138E+04  0.64801732632E+03 0.  0.
         13    1    3    3    0    0 -0.49797225017E+02 -0.27707842195E+03  0.72102551555E+03  0.77403488914E+03  0.00000000000E+00 0. -1.
          2    1    3    3  501    0  0.49797225017E+02  0.27707842195E+03  0.17399287065E+03  0.33094672466E+03  0.00000000000E+00 0. -1.
<mgrwt>
<rscale>  0 0.64801733E+03</rscale>
<asrwt>0</asrwt>
<pdfrwt beam="1">0</pdfrwt>
<pdfrwt beam="2">  1        2 0.38175213E+00 0.64801733E+03</pdfrwt>
<totfact> 0.46578572E+00</totfact>
</mgrwt>
</event>
<event>
 5    1  0.2354746E-004  0.6586044E+03  0.7818608E-02  0.9790766E-01
         13   -1    0    0    0    0  0.00000000000E+00  0.00000000000E+00  0.10000000000E+04  0.10000000000E+04  0.00000000000E+00 0. -1.
          2   -1    0    0  501    0 -0.00000000000E+00 -0.00000000000E+00 -0.10843994112E+03  0.10843994112E+03  0.00000000000E+00 0. -1.
    9000006    2    1    2  501    0  0.00000000000E+00  0.00000000000E+00  0.89156005888E+03  0.11084399411E+04  0.65860440668E+03 0.  0.
         13    1    3    3    0    0  0.21673026657E+03 -0.22785971697E+03  0.28132731087E+03  0.42194444529E+03  0.00000000000E+00 0. -1.
          4    1    3    3  501    0 -0.21673026657E+03  0.22785971697E+03  0.61023274800E+03  0.68649549584E+03  0.00000000000E+00 0. -1.
<mgrwt>
<rscale>  0 0.65860441E+03</rscale>
<asrwt>0</asrwt>
<pdfrwt beam="1">0</pdfrwt>
<pdfrwt beam="2">  1        2 0.39432789E+00 0.65860441E+03</pdfrwt>
<totfact> 0.41795032E+00</totfact>
</mgrwt>
</event>
<event>
 5    1  0.2354746E-004  0.6580092E+03  0.7818608E-02  0.9791865E-01
         13   -1    0    0    0    0  0.00000000000E+00  0.00000000000E+00  0.10000000000E+04  0.10000000000E+04  0.00000000000E+00 0. -1.
          2   -1    0    0  501    0 -0.00000000000E+00 -0.00000000000E+00 -0.10824402618E+03  0.10824402618E+03  0.00000000000E+00 0. -1.
    9000006    2    1    2  501    0  0.00000000000E+00  0.00000000000E+00  0.89175597382E+03  0.11082440262E+04  0.65800919804E+03 0.  0.
         13    1    3    3    0    0  0.12300275041E+02 -0.43794601756E+02 -0.10292198835E+03  0.11252643954E+03  0.00000000000E+00 0. -1.
          4    1    3    3  501    0 -0.12300275041E+02  0.43794601756E+02  0.99467796217E+03  0.99571758664E+03  0.00000000000E+00 0. -1.
<mgrwt>
<rscale>  0 0.65800920E+03</rscale>
<asrwt>0</asrwt>
<pdfrwt beam="1">0</pdfrwt>
<pdfrwt beam="2">  1        2 0.39361547E+00 0.65800920E+03</pdfrwt>
<totfact> 0.42053652E+00</totfact>
</mgrwt>
</event>
<event>
 5    1  0.2354746E-004  0.6461326E+03  0.7818608E-02  0.9814063E-01
         13   -1    0    0    0    0  0.00000000000E+00  0.00000000000E+00  0.10000000000E+04  0.10000000000E+04  0.00000000000E+00 0. -1.
          2   -1    0    0  501    0 -0.00000000000E+00 -0.00000000000E+00 -0.10437184475E+03  0.10437184475E+03  0.00000000000E+00 0. -1.
    9000006    2    1    2  501    0  0.00000000000E+00  0.00000000000E+00  0.89562815525E+03  0.11043718448E+04  0.64613263268E+03 0.  0.
         13    1    3    3    0    0  0.23300406520E+03  0.32014455008E+02  0.82637852750E+03  0.85919572301E+03  0.00000000000E+00 0. -1.
          2    1    3    3  501    0 -0.23300406520E+03 -0.32014455008E+02  0.69249627745E+02  0.24517612174E+03  0.00000000000E+00 0. -1.
<mgrwt>
<rscale>  0 0.64613263E+03</rscale>
<asrwt>0</asrwt>
<pdfrwt beam="1">0</pdfrwt>
<pdfrwt beam="2">  1        2 0.37953478E+00 0.64613263E+03</pdfrwt>
<totfact> 0.47471712E+00</totfact>
</mgrwt>
</event>
<event>
 5    1  0.2354746E-004  0.6486417E+03  0.7818608E-02  0.9809331E-01
         13   -1    0    0    0    0  0.00000000000E+00  0.00000000000E+00  0.10000000000E+04  0.10000000000E+04  0.00000000000E+00 0. -1.
          2   -1    0    0  501    0 -0.00000000000E+00 -0.00000000000E+00 -0.10518401512E+03  0.10518401512E+03  0.00000000000E+00 0. -1.
    9000006    2    1    2  501    0  0.00000000000E+00  0.00000000000E+00  0.89481598488E+03  0.11051840151E+04  0.64864170425E+03 0.  0.
         13    1    3    3    0    0  0.24447259891E+02  0.24009112344E+03  0.78249135616E+02  0.25370128753E+03  0.00000000000E+00 0. -1.
          2    1    3    3  501    0 -0.24447259891E+02 -0.24009112344E+03  0.81656684926E+03  0.85148272759E+03  0.00000000000E+00 0. -1.
<mgrwt>
<rscale>  0 0.64864170E+03</rscale>
<asrwt>0</asrwt>
<pdfrwt beam="1">0</pdfrwt>
<pdfrwt beam="2">  1        2 0.38248813E+00 0.64864170E+03</pdfrwt>
<totfact> 0.46285505E+00</totfact>
</mgrwt>
</event>
<event>
 5    1  0.2354746E-004  0.6125021E+03  0.7818608E-02  0.9879802E-01
         13   -1    0    0    0    0  0.00000000000E+00  0.00000000000E+00  0.10000000000E+04  0.10000000000E+04  0.00000000000E+00 0. -1.
          2   -1    0    0  501    0 -0.00000000000E+00 -0.00000000000E+00 -0.93789697740E+02  0.93789697740E+02  0.00000000000E+00 0. -1.
    9000006    2    1    2  501    0  0.00000000000E+00  0.00000000000E+00  0.90621030226E+03  0.10937896977E+04  0.61250207425E+03 0.  0.
         13    1    3    3    0    0 -0.80274909337E+02 -0.10741465298E+02 -0.74318793090E+02  0.10992144082E+03  0.00000000000E+00 0. -1.
          2    1    3    3  501    0  0.80274909337E+02  0.10741465298E+02  0.98052909535E+03  0.98386825692E+03  0.00000000000E+00 0. -1.
<mgrwt>
<rscale>  0 0.61250207E+03</rscale>
<asrwt>0</asrwt>
<pdfrwt beam="1">0</pdfrwt>
<pdfrwt beam="2">  1        2 0.34105417E+00 0.61250207E+03</pdfrwt>
<totfact> 0.65706590E+00</totfact>
</mgrwt>
</event>
<event>
 5    1  0.2354746E-004  0.6428001E+03  0.7818608E-02  0.9820384E-01
         13   -1    0    0    0    0  0.00000000000E+00  0.00000000000E+00  0.10000000000E+04  0.10000000000E+04  0.00000000000E+00 0. -1.
          2   -1    0    0  501    0 -0.00000000000E+00 -0.00000000000E+00 -0.10329799024E+03  0.10329799024E+03  0.00000000000E+00 0. -1.
    9000006    2    1    2  501    0  0.00000000000E+00  0.00000000000E+00  0.89670200976E+03  0.11032979902E+04  0.64280009408E+03 0.  0.
         13    1    3    3    0    0 -0.17372565212E+03  0.14256018280E+03  0.53976249955E+02  0.23112213975E+03  0.00000000000E+00 0. -1.
          4    1    3    3  501    0  0.17372565212E+03 -0.14256018280E+03  0.84272575981E+03  0.87217585049E+03  0.00000000000E+00 0. -1.
<mgrwt>
<rscale>  0 0.64280009E+03</rscale>
<asrwt>0</asrwt>
<pdfrwt beam="1">0</pdfrwt>
<pdfrwt beam="2">  1        2 0.37562985E+00 0.64280009E+03</pdfrwt>
<totfact> 0.49082617E+00</totfact>
</mgrwt>
</event>
<event>
 5    1  0.2354746E-004  0.6585346E+03  0.7818608E-02  0.9790895E-01
         13   -1    0    0    0    0  0.00000000000E+00  0.00000000000E+00  0.10000000000E+04  0.10000000000E+04  0.00000000000E+00 0. -1.
          2   -1    0    0  501    0 -0.00000000000E+00 -0.00000000000E+00 -0.10841696916E+03  0.10841696916E+03  0.00000000000E+00 0. -1.
    9000006    2    1    2  501    0  0.00000000000E+00  0.00000000000E+00  0.89158303084E+03  0.11084169692E+04  0.65853464345E+03 0.  0.
         13    1    3    3    0    0  0.19235931961E+03  0.23420954138E+03  0.22918846602E+03  0.37997838106E+03  0.00000000000E+00 0. -1.
          4    1    3    3  501    0 -0.19235931961E+03 -0.23420954138E+03  0.66239456483E+03  0.72843858810E+03  0.00000000000E+00 0. -1.
<mgrwt>
<rscale>  0 0.65853464E+03</rscale>
<asrwt>0</asrwt>
<pdfrwt beam="1">0</pdfrwt>
<pdfrwt beam="2">  1        2 0.39424436E+00 0.65853464E+03</pdfrwt>
<totfact> 0.41825281E+00</totfact>
</mgrwt>
</event>
<event>
 5    1  0.2354746E-004  0.6455896E+03  0.7818608E-02  0.9815090E-01
         13   -1    0    0    0    0  0.00000000000E+00  0.00000000000E+00  0.10000000000E+04  0.10000000000E+04  0.00000000000E+00 0. -1.
          2   -1    0    0  501    0 -0.00000000000E+00 -0.00000000000E+00 -0.10419648621E+03  0.10419648621E+03  0.00000000000E+00 0. -1.
    9000006    2    1    2  501    0  0.00000000000E+00  0.00000000000E+00  0.89580351379E+03  0.11041964862E+04  0.64558961023E+03 0.  0.
         13    1    3    3    0    0 -0.18914248546E+03 -0.26085342161E+03  0.48111546950E+03  0.57904359280E+03  0.00000000000E+00 0. -1.
          2    1    3    3  501    0  0.18914248546E+03  0.26085342161E+03  0.41468804429E+03  0.52515289341E+03  0.00000000000E+00 0. -1.
<mgrwt>
<rscale>  0 0.64558961E+03</rscale>
<asrwt>0</asrwt>
<pdfrwt beam="1">0</pdfrwt>
<pdfrwt beam="2">  1        2 0.37889711E+00 0.64558961E+03</pdfrwt>
<totfact> 0.47731433E+00</totfact>
</mgrwt>
</event>
<event>
 5    1  0.2354746E-004  0.6462083E+03  0.7818608E-02  0.9813920E-01
         13   -1    0    0    0    0  0.00000000000E+00  0.00000000000E+00  0.10000000000E+04  0.10000000000E+04  0.00000000000E+00 0. -1.
          4   -1    0    0  501    0 -0.00000000000E+00 -0.00000000000E+00 -0.10439628661E+03  0.10439628661E+03  0.00000000000E+00 0. -1.
    9000006    2    1    2  501    0  0.00000000000E+00  0.00000000000E+00  0.89560371339E+03  0.11043962866E+04  0.64620828411E+03 0.  0.
         13    1    3    3    0    0  0.19927121891E+03  0.19939763978E+03  0.17796900653E+03  0.33337877065E+03  0.00000000000E+00 0. -1.
          2    1    3    3  501    0 -0.19927121891E+03 -0.19939763978E+03  0.71763470686E+03  0.77101751596E+03  0.00000000000E+00 0. -1.
<mgrwt>
<rscale>  0 0.64620828E+03</rscale>
<asrwt>0</asrwt>
<pdfrwt beam="1">0</pdfrwt>
<pdfrwt beam="2">  1        4 0.37962366E+00 0.64620828E+03</pdfrwt>
<totfact> 0.44129973E-02</totfact>
</mgrwt>
</event>
<event>
 5    1  0.2354746E-004  0.6596255E+03  0.7818608E-02  0.9788883E-01
         13   -1    0    0    0    0  0.00000000000E+00  0.00000000000E+00  0.10000000000E+04  0.10000000000E+04  0.00000000000E+00 0. -1.
          2   -1    0    0  501    0 -0.00000000000E+00 -0.00000000000E+00 -0.10877644010E+03  0.10877644010E+03  0.00000000000E+00 0. -1.
    9000006    2    1    2  501    0  0.00000000000E+00  0.00000000000E+00  0.89122355990E+03  0.11087764401E+04  0.65962546978E+03 0.  0.
         13    1    3    3    0    0 -0.23782244386E+02  0.91836574773E+02  0.97657146983E+03  0.98116837867E+03  0.00000000000E+00 0. -1.
          2    1    3    3  501    0  0.23782244386E+02 -0.91836574773E+02 -0.85347909923E+02  0.12760806143E+03  0.00000000000E+00 0. -1.
<mgrwt>
<rscale>  0 0.65962547E+03</rscale>
<asrwt>0</asrwt>
<pdfrwt beam="1">0</pdfrwt>
<pdfrwt beam="2">  1        2 0.39555153E+00 0.65962547E+03</pdfrwt>
<totfact> 0.41354191E+00</totfact>
</mgrwt>
</event>
<event>
 5    1  0.2354746E-004  0.6648308E+03  0.7818608E-02  0.9779341E-01
         13   -1    0    0    0    0  0.00000000000E+00  0.00000000000E+00  0.10000000000E+04  0.10000000000E+04  0.00000000000E+00 0. -1.
          2   -1    0    0  501    0 -0.00000000000E+00 -0.00000000000E+00 -0.11049999919E+03  0.11049999919E+03  0.00000000000E+00 0. -1.
    9000006    2    1    2  501    0  0.00000000000E+00  0.00000000000E+00  0.88950000081E+03  0.11104999992E+04  0.66483080309E+03 0.  0.
         13    1    3    3    0    0 -0.32463843445E+03 -0.59701951527E+02  0.37908245357E+03  0.50265091539E+03  0.00000000000E+00 0. -1.
          4    1    3    3  501    0  0.32463843445E+03  0.59701951527E+02  0.51041754724E+03  0.60784908380E+03  0.00000000000E+00 0. -1.
<mgrwt>
<rscale>  0 0.66483080E+03</rscale>
<asrwt>0</asrwt>
<pdfrwt beam="1">0</pdfrwt>
<pdfrwt beam="2">  1        2 0.40181903E+00 0.66483080E+03</pdfrwt>
<totfact> 0.39161083E+00</totfact>
</mgrwt>
</event>
<event>
 5    1  0.2354746E-004  0.6515382E+03  0.7818608E-02  0.9803897E-01
         13   -1    0    0    0    0  0.00000000000E+00  0.00000000000E+00  0.10000000000E+04  0.10000000000E+04  0.00000000000E+00 0. -1.
          2   -1    0    0  501    0 -0.00000000000E+00 -0.00000000000E+00 -0.10612550220E+03  0.10612550220E+03  0.00000000000E+00 0. -1.
    9000006    2    1    2  501    0  0.00000000000E+00  0.00000000000E+00  0.89387449780E+03  0.11061255022E+04  0.65153818676E+03 0.  0.
         13    1    3    3    0    0 -0.79113887944E+02 -0.16500450676E+03 -0.10627407727E+02  0.18329876244E+03  0.00000000000E+00 0. -1.
          4    1    3    3  501    0  0.79113887944E+02  0.16500450676E+03  0.90450190552E+03  0.92282673976E+03  0.00000000000E+00 0. -1.
<mgrwt>
<rscale>  0 0.65153819E+03</rscale>
<asrwt>0</asrwt>
<pdfrwt beam="1">0</pdfrwt>
<pdfrwt beam="2">  1        2 0.38591173E+00 0.65153819E+03</pdfrwt>
<totfact> 0.44944158E+00</totfact>
</mgrwt>
</event>
<event>
 5    1  0.2354746E-004  0.6555881E+03  0.7818608E-02  0.9796350E-01
         13   -1    0    0    0    0  0.00000000000E+00  0.00000000000E+00  0.10000000000E+04  0.10000000000E+04  0.00000000000E+00 0. -1.
          2   -1    0    0  501    0 -0.00000000000E+00 -0.00000000000E+00 -0.10744893175E+03  0.10744893175E+03  0.00000000000E+00 0. -1.
    9000006    2    1    2  501    0  0.00000000000E+00  0.00000000000E+00  0.89255106825E+03  0.11074489317E+04  0.65558807722E+03 0.  0.
         13    1    3    3    0    0 -0.17882783079E+03 -0.88111779309E+02  0.67280800343E+01  0.19947016263E+03  0.00000000000E+00 0. -1.
          4    1    3    3  501    0  0.17882783079E+03  0.88111779309E+02  0.88582298822E+03  0.90797876912E+03  0.00000000000E+00 0. -1.
<mgrwt>
<rscale>  0 0.65558808E+03</rscale>
<asrwt>0</asrwt>
<pdfrwt beam="1">0</pdfrwt>
<pdfrwt beam="2">  1        2 0.39072421E+00 0.65558808E+03</pdfrwt>
<totfact> 0.43118167E+00</totfact>
</mgrwt>
</event>
<event>
 5    1  0.2354746E-004  0.6301199E+03  0.7818608E-02  0.9844815E-01
         13   -1    0    0    0    0  0.00000000000E+00  0.00000000000E+00  0.10000000000E+04  0.10000000000E+04  0.00000000000E+00 0. -1.
          2   -1    0    0  501    0 -0.00000000000E+00 -0.00000000000E+00 -0.99262773382E+02  0.99262773382E+02  0.00000000000E+00 0. -1.
    9000006    2    1    2  501    0  0.00000000000E+00  0.00000000000E+00  0.90073722662E+03  0.10992627734E+04  0.63011990409E+03 0.  0.
         13    1    3    3    0    0 -0.29360662177E+03 -0.11065555508E+03  0.40061821719E+03  0.50886585282E+03  0.00000000000E+00 0. -1.
          4    1    3    3  501    0  0.29360662177E+03  0.11065555508E+03  0.50011900942E+03  0.59039692056E+03  0.00000000000E+00 0. -1.
<mgrwt>
<rscale>  0 0.63011990E+03</rscale>
<asrwt>0</asrwt>
<pdfrwt beam="1">0</pdfrwt>
<pdfrwt beam="2">  1        2 0.36095630E+00 0.63011990E+03</pdfrwt>
<totfact> 0.55594126E+00</totfact>
</mgrwt>
</event>
<event>
 5    1  0.2354746E-004  0.6472109E+03  0.7818608E-02  0.9812027E-01
         13   -1    0    0    0    0  0.00000000000E+00  0.00000000000E+00  0.10000000000E+04  0.10000000000E+04  0.00000000000E+00 0. -1.
          2   -1    0    0  501    0 -0.00000000000E+00 -0.00000000000E+00 -0.10472047139E+03  0.10472047139E+03  0.00000000000E+00 0. -1.
    9000006    2    1    2  501    0  0.00000000000E+00  0.00000000000E+00  0.89527952861E+03  0.11047204714E+04  0.64721085094E+03 0.  0.
         13    1    3    3    0    0  0.25670625580E+03  0.15367294409E+03  0.23715128712E+03  0.38177769513E+03  0.00000000000E+00 0. -1.
          4    1    3    3  501    0 -0.25670625580E+03 -0.15367294409E+03  0.65812824148E+03  0.72294277626E+03  0.00000000000E+00 0. -1.
<mgrwt>
<rscale>  0 0.64721085E+03</rscale>
<asrwt>0</asrwt>
<pdfrwt beam="1">0</pdfrwt>
<pdfrwt beam="2">  1        2 0.38080252E+00 0.64721085E+03</pdfrwt>
<totfact> 0.46959184E+00</totfact>
</mgrwt>
</event>
<event>
 5    1  0.2354746E-004  0.6500969E+03  0.7818608E-02  0.9806597E-01
         13   -1    0    0    0    0  0.00000000000E+00  0.00000000000E+00  0.10000000000E+04  0.10000000000E+04  0.00000000000E+00 0. -1.
          2   -1    0    0  501    0 -0.00000000000E+00 -0.00000000000E+00 -0.10565650287E+03  0.10565650287E+03  0.00000000000E+00 0. -1.
    9000006    2    1    2  501    0  0.00000000000E+00  0.00000000000E+00  0.89434349713E+03  0.11056565029E+04  0.65009692469E+03 0.  0.
         13    1    3    3    0    0  0.95103562037E+02 -0.31009196227E+03  0.41090173572E+03  0.52349016131E+03  0.00000000000E+00 0. -1.
          2    1    3    3  501    0 -0.95103562037E+02  0.31009196227E+03  0.48344176141E+03  0.58216634156E+03  0.00000000000E+00 0. -1.
<mgrwt>
<rscale>  0 0.65009692E+03</rscale>
<asrwt>0</asrwt>
<pdfrwt beam="1">0</pdfrwt>
<pdfrwt beam="2">  1        2 0.38420628E+00 0.65009692E+03</pdfrwt>
<totfact> 0.45607873E+00</totfact>
</mgrwt>
</event>
<event>
 5    1  0.2354746E-004  0.6550519E+03  0.7818608E-02  0.9797346E-01
         13   -1    0    0    0    0  0.00000000000E+00  0.00000000000E+00  0.10000000000E+04  0.10000000000E+04  0.00000000000E+00 0. -1.
          2   -1    0    0  501    0 -0.00000000000E+00 -0.00000000000E+00 -0.10727323676E+03  0.10727323676E+03  0.00000000000E+00 0. -1.
    9000006    2    1    2  501    0  0.00000000000E+00  0.00000000000E+00  0.89272676324E+03  0.11072732368E+04  0.65505186590E+03 0.  0.
         13    1    3    3    0    0  0.93144271921E+02 -0.31393303878E+03  0.45750290651E+03  0.56261773674E+03  0.00000000000E+00 0. -1.
          2    1    3    3  501    0 -0.93144271921E+02  0.31393303878E+03  0.43522385674E+03  0.54465550002E+03  0.00000000000E+00 0. -1.
<mgrwt>
<rscale>  0 0.65505187E+03</rscale>
<asrwt>0</asrwt>
<pdfrwt beam="1">0</pdfrwt>
<pdfrwt beam="2">  1        2 0.39008532E+00 0.65505187E+03</pdfrwt>
<totfact> 0.43356654E+00</totfact>
</mgrwt>
</event>
<event>
 5    1  0.2354746E-004  0.6487247E+03  0.7818608E-02  0.9809175E-01
         13   -1    0    0    0    0  0.00000000000E+00  0.00000000000E+00  0.10000000000E+04  0.10000000000E+04  0.00000000000E+00 0. -1.
          2   -1    0    0  501    0 -0.00000000000E+00 -0.00000000000E+00 -0.10521094263E+03  0.10521094263E+03  0.00000000000E+00 0. -1.
    9000006    2    1    2  501    0  0.00000000000E+00  0.00000000000E+00  0.89478905737E+03  0.11052109426E+04  0.64872472632E+03 0.  0.
         13    1    3    3    0    0 -0.20387190108E+03 -0.11268146944E+03  0.83194836404E+03  0.86394383269E+03  0.00000000000E+00 0. -1.
          4    1    3    3  501    0  0.20387190108E+03  0.11268146944E+03  0.62840693322E+02  0.24126710995E+03  0.00000000000E+00 0. -1.
<mgrwt>
<rscale>  0 0.64872473E+03</rscale>
<asrwt>0</asrwt>
<pdfrwt beam="1">0</pdfrwt>
<pdfrwt beam="2">  1        2 0.38258605E+00 0.64872473E+03</pdfrwt>
<totfact> 0.46246642E+00</totfact>
</mgrwt>
</event>
<event>
 5    1  0.2354746E-004  0.6549037E+03  0.7818608E-02  0.9797621E-01
         13   -1    0    0    0    0  0.00000000000E+00  0.00000000000E+00  0.10000000000E+04  0.10000000000E+04  0.00000000000E+00 0. -1.
          2   -1    0    0  501    0 -0.00000000000E+00 -0.00000000000E+00 -0.10722470617E+03  0.10722470617E+03  0.00000000000E+00 0. -1.
    9000006    2    1    2  501    0  0.00000000000E+00  0.00000000000E+00  0.89277529383E+03  0.11072247062E+04  0.65490367586E+03 0.  0.
         13    1    3    3    0    0 -0.10265175616E+03 -0.26571090202E+03  0.71944513491E+03  0.77378354120E+03  0.00000000000E+00 0. -1.
          4    1    3    3  501    0  0.10265175616E+03  0.26571090202E+03  0.17333015893E+03  0.33344116496E+03  0.00000000000E+00 0. -1.
<mgrwt>
<rscale>  0 0.65490368E+03</rscale>
<asrwt>0</asrwt>
<pdfrwt beam="1">0</pdfrwt>
<pdfrwt beam="2">  1        2 0.38990884E+00 0.65490368E+03</pdfrwt>
<totfact> 0.43422739E+00</totfact>
</mgrwt>
</event>
<event>
 5    1  0.2354746E-004  0.6458493E+03  0.7818608E-02  0.9814599E-01
         13   -1    0    0    0    0  0.00000000000E+00  0.00000000000E+00  0.10000000000E+04  0.10000000000E+04  0.00000000000E+00 0. -1.
          2   -1    0    0  501    0 -0.00000000000E+00 -0.00000000000E+00 -0.10428032211E+03  0.10428032211E+03  0.00000000000E+00 0. -1.
    9000006    2    1    2  501    0  0.00000000000E+00  0.00000000000E+00  0.89571967789E+03  0.11042803221E+04  0.64584927688E+03 0.  0.
         13    1    3    3    0    0  0.23958038391E+03  0.17707401484E+03  0.23480916525E+03  0.37932744584E+03  0.00000000000E+00 0. -1.
          2    1    3    3  501    0 -0.23958038391E+03 -0.17707401484E+03  0.66091051264E+03  0.72495287627E+03  0.00000000000E+00 0. -1.
<mgrwt>
<rscale>  0 0.64584928E+03</rscale>
<asrwt>0</asrwt>
<pdfrwt beam="1">0</pdfrwt>
<pdfrwt beam="2">  1        2 0.37920197E+00 0.64584928E+03</pdfrwt>
<totfact> 0.47607104E+00</totfact>
</mgrwt>
</event>
<event>
 5    1  0.2354746E-004  0.5999465E+03  0.7818608E-02  0.9905517E-01
         13   -1    0    0    0    0  0.00000000000E+00  0.00000000000E+00  0.10000000000E+04  0.10000000000E+04  0.00000000000E+00 0. -1.
          2   -1    0    0  501    0 -0.00000000000E+00 -0.00000000000E+00 -0.89983957209E+02  0.89983957209E+02  0.00000000000E+00 0. -1.
    9000006    2    1    2  501    0  0.00000000000E+00  0.00000000000E+00  0.91001604279E+03  0.10899839572E+04  0.59994652165E+03 0.  0.
         13    1    3    3    0    0 -0.23611097959E+03  0.18403871294E+03  0.42028311199E+03  0.51600052012E+03  0.00000000000E+00 0. -1.
          2    1    3    3  501    0  0.23611097959E+03 -0.18403871294E+03  0.48973293080E+03  0.57398343709E+03  0.00000000000E+00 0. -1.
<mgrwt>
<rscale>  0 0.59994652E+03</rscale>
<asrwt>0</asrwt>
<pdfrwt beam="1">0</pdfrwt>
<pdfrwt beam="2">  1        2 0.32721508E+00 0.59994652E+03</pdfrwt>
<totfact> 0.73728736E+00</totfact>
</mgrwt>
</event>
<event>
 5    1  0.2354746E-004  0.6145592E+03  0.7818608E-02  0.9875652E-01
         13   -1    0    0    0    0  0.00000000000E+00  0.00000000000E+00  0.10000000000E+04  0.10000000000E+04  0.00000000000E+00 0. -1.
          2   -1    0    0  501    0 -0.00000000000E+00 -0.00000000000E+00 -0.94420756989E+02  0.94420756989E+02  0.00000000000E+00 0. -1.
    9000006    2    1    2  501    0  0.00000000000E+00  0.00000000000E+00  0.90557924301E+03  0.10944207570E+04  0.61455921436E+03 0.  0.
         13    1    3    3    0    0  0.84698364145E+02  0.28368304344E+03  0.30625407654E+03  0.42595943635E+03  0.00000000000E+00 0. -1.
          2    1    3    3  501    0 -0.84698364145E+02 -0.28368304344E+03  0.59932516647E+03  0.66846132064E+03  0.00000000000E+00 0. -1.
<mgrwt>
<rscale>  0 0.61455921E+03</rscale>
<asrwt>0</asrwt>
<pdfrwt beam="1">0</pdfrwt>
<pdfrwt beam="2">  1        2 0.34334893E+00 0.61455921E+03</pdfrwt>
<totfact> 0.64458723E+00</totfact>
</mgrwt>
</event>
<event>
 5    1  0.2354746E-004  0.6522356E+03  0.7818608E-02  0.9802593E-01
         13   -1    0    0    0    0  0.00000000000E+00  0.00000000000E+00  0.10000000000E+04  0.10000000000E+04  0.00000000000E+00 0. -1.
          2   -1    0    0  501    0 -0.00000000000E+00 -0.00000000000E+00 -0.10635283156E+03  0.10635283156E+03  0.00000000000E+00 0. -1.
    9000006    2    1    2  501    0  0.00000000000E+00  0.00000000000E+00  0.89364716844E+03  0.11063528316E+04  0.65223563706E+03 0.  0.
         13    1    3    3    0    0  0.29697262128E+03 -0.75892483667E+02  0.63571290595E+03  0.70575017227E+03  0.00000000000E+00 0. -1.
          4    1    3    3  501    0 -0.29697262128E+03  0.75892483667E+02  0.25793426249E+03  0.40060265929E+03  0.00000000000E+00 0. -1.
<mgrwt>
<rscale>  0 0.65223564E+03</rscale>
<asrwt>0</asrwt>
<pdfrwt beam="1">0</pdfrwt>
<pdfrwt beam="2">  1        2 0.38673838E+00 0.65223564E+03</pdfrwt>
<totfact> 0.44625609E+00</totfact>
</mgrwt>
</event>
<event>
 5    1  0.2354746E-004  0.6524912E+03  0.7818608E-02  0.9802116E-01
         13   -1    0    0    0    0  0.00000000000E+00  0.00000000000E+00  0.10000000000E+04  0.10000000000E+04  0.00000000000E+00 0. -1.
          2   -1    0    0  501    0 -0.00000000000E+00 -0.00000000000E+00 -0.10643619601E+03  0.10643619601E+03  0.00000000000E+00 0. -1.
    9000006    2    1    2  501    0  0.00000000000E+00  0.00000000000E+00  0.89356380399E+03  0.11064361960E+04  0.65249121377E+03 0.  0.
         13    1    3    3    0    0 -0.19229039892E+03  0.26589614627E+02  0.21512491293E+01  0.19413199889E+03  0.00000000000E+00 0. -1.
          2    1    3    3  501    0  0.19229039892E+03 -0.26589614627E+02  0.89141255486E+03  0.91230419712E+03  0.00000000000E+00 0. -1.
<mgrwt>
<rscale>  0 0.65249121E+03</rscale>
<asrwt>0</asrwt>
<pdfrwt beam="1">0</pdfrwt>
<pdfrwt beam="2">  1        2 0.38704153E+00 0.65249121E+03</pdfrwt>
<totfact> 0.44509306E+00</totfact>
</mgrwt>
</event>
<event>
 5    1  0.2354746E-004  0.6208840E+03  0.7818608E-02  0.9863001E-01
         13   -1    0    0    0    0  0.00000000000E+00  0.00000000000E+00  0.10000000000E+04  0.10000000000E+04  0.00000000000E+00 0. -1.
          2   -1    0    0  501    0 -0.00000000000E+00 -0.00000000000E+00 -0.96374243661E+02  0.96374243661E+02  0.00000000000E+00 0. -1.
    9000006    2    1    2  501    0  0.00000000000E+00  0.00000000000E+00  0.90362575634E+03  0.10963742437E+04  0.62088402673E+03 0.  0.
         13    1    3    3    0    0  0.18249564674E+03  0.14482048136E+03  0.89509900603E+02  0.24957895585E+03  0.00000000000E+00 0. -1.
          4    1    3    3  501    0 -0.18249564674E+03 -0.14482048136E+03  0.81411585574E+03  0.84679528781E+03  0.00000000000E+00 0. -1.
<mgrwt>
<rscale>  0 0.62088403E+03</rscale>
<asrwt>0</asrwt>
<pdfrwt beam="1">0</pdfrwt>
<pdfrwt beam="2">  1        2 0.35045253E+00 0.62088403E+03</pdfrwt>
<totfact> 0.60734939E+00</totfact>
</mgrwt>
</event>
<event>
 5    1  0.2354746E-004  0.6304191E+03  0.7818608E-02  0.9844231E-01
         13   -1    0    0    0    0  0.00000000000E+00  0.00000000000E+00  0.10000000000E+04  0.10000000000E+04  0.00000000000E+00 0. -1.
          2   -1    0    0  501    0 -0.00000000000E+00 -0.00000000000E+00 -0.99357054015E+02  0.99357054015E+02  0.00000000000E+00 0. -1.
    9000006    2    1    2  501    0  0.00000000000E+00  0.00000000000E+00  0.90064294598E+03  0.10993570540E+04  0.63041907971E+03 0.  0.
         13    1    3    3    0    0  0.58961555798E+01  0.30556671084E+03  0.31579293787E+03  0.43946667568E+03  0.00000000000E+00 0. -1.
          4    1    3    3  501    0 -0.58961555798E+01 -0.30556671084E+03  0.58485000811E+03  0.65989037833E+03  0.00000000000E+00 0. -1.
<mgrwt>
<rscale>  0 0.63041908E+03</rscale>
<asrwt>0</asrwt>
<pdfrwt beam="1">0</pdfrwt>
<pdfrwt beam="2">  1        2 0.36129914E+00 0.63041908E+03</pdfrwt>
<totfact> 0.55433338E+00</totfact>
</mgrwt>
</event>
<event>
 5    1  0.2354746E-004  0.6492449E+03  0.7818608E-02  0.9808197E-01
         13   -1    0    0    0    0  0.00000000000E+00  0.00000000000E+00  0.10000000000E+04  0.10000000000E+04  0.00000000000E+00 0. -1.
          2   -1    0    0  501    0 -0.00000000000E+00 -0.00000000000E+00 -0.10537974658E+03  0.10537974658E+03  0.00000000000E+00 0. -1.
    9000006    2    1    2  501    0  0.00000000000E+00  0.00000000000E+00  0.89462025342E+03  0.11053797466E+04  0.64924493552E+03 0.  0.
         13    1    3    3    0    0  0.22766090790E+03 -0.24456243540E+02  0.83909235361E+03  0.86977213954E+03  0.00000000000E+00 0. -1.
          4    1    3    3  501    0 -0.22766090790E+03  0.24456243540E+02  0.55527899817E+02  0.23560760704E+03  0.00000000000E+00 0. -1.
<mgrwt>
<rscale>  0 0.64924494E+03</rscale>
<asrwt>0</asrwt>
<pdfrwt beam="1">0</pdfrwt>
<pdfrwt beam="2">  1        2 0.38319989E+00 0.64924494E+03</pdfrwt>
<totfact> 0.46003690E+00</totfact>
</mgrwt>
</event>
<event>
 5    1  0.2354746E-004  0.6263733E+03  0.7818608E-02  0.9852152E-01
         13   -1    0    0    0    0  0.00000000000E+00  0.00000000000E+00  0.10000000000E+04  0.10000000000E+04  0.00000000000E+00 0. -1.
          2   -1    0    0  501    0 -0.00000000000E+00 -0.00000000000E+00 -0.98085865461E+02  0.98085865461E+02  0.00000000000E+00 0. -1.
    9000006    2    1    2  501    0  0.00000000000E+00  0.00000000000E+00  0.90191413454E+03  0.10980858655E+04  0.62637326080E+03 0.  0.
         13    1    3    3    0    0  0.29025312261E+03 -0.69938252724E+02  0.61678478599E+03  0.68524572717E+03  0.00000000000E+00 0. -1.
          2    1    3    3  501    0 -0.29025312261E+03  0.69938252724E+02  0.28512934855E+03  0.41284013829E+03  0.00000000000E+00 0. -1.
<mgrwt>
<rscale>  0 0.62637326E+03</rscale>
<asrwt>0</asrwt>
<pdfrwt beam="1">0</pdfrwt>
<pdfrwt beam="2">  1        2 0.35667663E+00 0.62637326E+03</pdfrwt>
<totfact> 0.57637865E+00</totfact>
</mgrwt>
</event>
<event>
 5    1  0.2354746E-004  0.6581413E+03  0.7818608E-02  0.9791621E-01
         13   -1    0    0    0    0  0.00000000000E+00  0.00000000000E+00  0.10000000000E+04  0.10000000000E+04  0.00000000000E+00 0. -1.
          2   -1    0    0  501    0 -0.00000000000E+00 -0.00000000000E+00 -0.10828747682E+03  0.10828747682E+03  0.00000000000E+00 0. -1.
    9000006    2    1    2  501    0  0.00000000000E+00  0.00000000000E+00  0.89171252318E+03  0.11082874768E+04  0.65814125176E+03 0.  0.
         13    1    3    3    0    0 -0.19738346473E+03 -0.19544156607E+03  0.74296932675E+03  0.79319673372E+03  0.00000000000E+00 0. -1.
          2    1    3    3  501    0  0.19738346473E+03  0.19544156607E+03  0.14874319643E+03  0.31509074309E+03  0.00000000000E+00 0. -1.
<mgrwt>
<rscale>  0 0.65814125E+03</rscale>
<asrwt>0</asrwt>
<pdfrwt beam="1">0</pdfrwt>
<pdfrwt beam="2">  1        2 0.39377347E+00 0.65814125E+03</pdfrwt>
<totfact> 0.41996167E+00</totfact>
</mgrwt>
</event>
<event>
 5    1  0.2354746E-004  0.6409937E+03  0.7818608E-02  0.9823827E-01
         13   -1    0    0    0    0  0.00000000000E+00  0.00000000000E+00  0.10000000000E+04  0.10000000000E+04  0.00000000000E+00 0. -1.
          2   -1    0    0  501    0 -0.00000000000E+00 -0.00000000000E+00 -0.10271824113E+03  0.10271824113E+03  0.00000000000E+00 0. -1.
    9000006    2    1    2  501    0  0.00000000000E+00  0.00000000000E+00  0.89728175887E+03  0.11027182411E+04  0.64099373205E+03 0.  0.
         13    1    3    3    0    0  0.30196421811E+03 -0.73095713377E+02  0.58402156700E+03  0.66151837696E+03  0.00000000000E+00 0. -1.
          4    1    3    3  501    0 -0.30196421811E+03  0.73095713377E+02  0.31326019187E+03  0.44119986417E+03  0.00000000000E+00 0. -1.
<mgrwt>
<rscale>  0 0.64099373E+03</rscale>
<asrwt>0</asrwt>
<pdfrwt beam="1">0</pdfrwt>
<pdfrwt beam="2">  1        2 0.37352166E+00 0.64099373E+03</pdfrwt>
<totfact> 0.49972971E+00</totfact>
</mgrwt>
</event>
<event>
 5    1  0.2354746E-004  0.6291705E+03  0.7818608E-02  0.9846669E-01
         13   -1    0    0    0    0  0.00000000000E+00  0.00000000000E+00  0.10000000000E+04  0.10000000000E+04  0.00000000000E+00 0. -1.
          2   -1    0    0  501    0 -0.00000000000E+00 -0.00000000000E+00 -0.98963890649E+02  0.98963890649E+02  0.00000000000E+00 0. -1.
    9000006    2    1    2  501    0  0.00000000000E+00  0.00000000000E+00  0.90103610935E+03  0.10989638906E+04  0.62917053539E+03 0.  0.
         13    1    3    3    0    0  0.75384306466E+02 -0.45478877438E+02  0.97804283589E+03  0.98199740875E+03  0.00000000000E+00 0. -1.
          2    1    3    3  501    0 -0.75384306466E+02  0.45478877438E+02 -0.77006726543E+02  0.11696648190E+03  0.00000000000E+00 0. -1.
<mgrwt>
<rscale>  0 0.62917054E+03</rscale>
<asrwt>0</asrwt>
<pdfrwt beam="1">0</pdfrwt>
<pdfrwt beam="2">  1        2 0.35986945E+00 0.62917054E+03</pdfrwt>
<totfact> 0.56106694E+00</totfact>
</mgrwt>
</event>
<event>
 5    1  0.2354746E-004  0.7591866E+03  0.7818608E-02  0.9621047E-01
         13   -1    0    0    0    0  0.00000000000E+00  0.00000000000E+00  0.10000000000E+04  0.10000000000E+04  0.00000000000E+00 0. -1.
          2   -1    0    0  501    0 -0.00000000000E+00 -0.00000000000E+00 -0.14409107352E+03  0.14409107352E+03  0.00000000000E+00 0. -1.
    9000006    2    1    2  501    0  0.00000000000E+00  0.00000000000E+00  0.85590892648E+03  0.11440910735E+04  0.75918660030E+03 0.  0.
         13    1    3    3    0    0 -0.20227196657E+03  0.11474987396E+03 -0.24168388576E+02  0.23380674293E+03  0.00000000000E+00 0. -1.
          2    1    3    3  501    0  0.20227196657E+03 -0.11474987396E+03  0.88007731506E+03  0.91028433059E+03  0.00000000000E+00 0. -1.
<mgrwt>
<rscale>  0 0.75918660E+03</rscale>
<asrwt>0</asrwt>
<pdfrwt beam="1">0</pdfrwt>
<pdfrwt beam="2">  1        2 0.52396864E+00 0.75918660E+03</pdfrwt>
<totfact> 0.12513975E+00</totfact>
</mgrwt>
</event>
<event>
 5    1  0.2354746E-004  0.6529036E+03  0.7818608E-02  0.9801346E-01
         13   -1    0    0    0    0  0.00000000000E+00  0.00000000000E+00  0.10000000000E+04  0.10000000000E+04  0.00000000000E+00 0. -1.
          2   -1    0    0  501    0 -0.00000000000E+00 -0.00000000000E+00 -0.10657077429E+03  0.10657077429E+03  0.00000000000E+00 0. -1.
    9000006    2    1    2  501    0  0.00000000000E+00  0.00000000000E+00  0.89342922571E+03  0.11065707743E+04  0.65290358948E+03 0.  0.
         13    1    3    3    0    0  0.84956639859E+02  0.20310225369E+03  0.38180815402E+02  0.22344111255E+03  0.00000000000E+00 0. -1.
          4    1    3    3  501    0 -0.84956639859E+02 -0.20310225369E+03  0.85524841031E+03  0.88312966174E+03  0.00000000000E+00 0. -1.
<mgrwt>
<rscale>  0 0.65290359E+03</rscale>
<asrwt>0</asrwt>
<pdfrwt beam="1">0</pdfrwt>
<pdfrwt beam="2">  1        2 0.38753091E+00 0.65290359E+03</pdfrwt>
<totfact> 0.44322134E+00</totfact>
</mgrwt>
</event>
<event>
 5    1  0.2354746E-004  0.6495964E+03  0.7818608E-02  0.9807537E-01
         13   -1    0    0    0    0  0.00000000000E+00  0.00000000000E+00  0.10000000000E+04  0.10000000000E+04  0.00000000000E+00 0. -1.
          2   -1    0    0  501    0 -0.00000000000E+00 -0.00000000000E+00 -0.10549388116E+03  0.10549388116E+03  0.00000000000E+00 0. -1.
    9000006    2    1    2  501    0  0.00000000000E+00  0.00000000000E+00  0.89450611884E+03  0.11054938812E+04  0.64959643215E+03 0.  0.
         13    1    3    3    0    0 -0.25071121056E+03  0.68018602344E+02  0.77904721339E+03  0.82121690318E+03  0.00000000000E+00 0. -1.
          2    1    3    3  501    0  0.25071121056E+03 -0.68018602344E+02  0.11545890544E+03  0.28427697799E+03  0.00000000000E+00 0. -1.
<mgrwt>
<rscale>  0 0.64959643E+03</rscale>
<asrwt>0</asrwt>
<pdfrwt beam="1">0</pdfrwt>
<pdfrwt beam="2">  1        2 0.38361492E+00 0.64959643E+03</pdfrwt>
<totfact> 0.45840079E+00</totfact>
</mgrwt>
</event>
<event>
 5    1  0.2354746E-004  0.6495339E+03  0.7818608E-02  0.9807654E-01
         13   -1    0    0    0    0  0.00000000000E+00  0.00000000000E+00  0.10000000000E+04  0.10000000000E+04  0.00000000000E+00 0. -1.
          2   -1    0    0  501    0 -0.00000000000E+00 -0.00000000000E+00 -0.10547358658E+03  0.10547358658E+03  0.00000000000E+00 0. -1.
    9000006    2    1    2  501    0  0.00000000000E+00  0.00000000000E+00  0.89452641342E+03  0.11054735866E+04  0.64953394546E+03 0.  0.
         13    1    3    3    0    0  0.24999966078E+03 -0.15925820643E+03  0.67312009775E+03  0.73549552868E+03  0.00000000000E+00 0. -1.
          4    1    3    3  501    0 -0.24999966078E+03  0.15925820643E+03  0.22140631567E+03  0.36997805790E+03  0.00000000000E+00 0. -1.
<mgrwt>
<rscale>  0 0.64953395E+03</rscale>
<asrwt>0</asrwt>
<pdfrwt beam="1">0</pdfrwt>
<pdfrwt beam="2">  1        2 0.38354112E+00 0.64953395E+03</pdfrwt>
<totfact> 0.45869132E+00</totfact>
</mgrwt>
</event>
<event>
 5    1  0.2354746E-004  0.6433047E+03  0.7818608E-02  0.9819424E-01
         13   -1    0    0    0    0  0.00000000000E+00  0.00000000000E+00  0.10000000000E+04  0.10000000000E+04  0.00000000000E+00 0. -1.
          2   -1    0    0  501    0 -0.00000000000E+00 -0.00000000000E+00 -0.10346021857E+03  0.10346021857E+03  0.00000000000E+00 0. -1.
    9000006    2    1    2  501    0  0.00000000000E+00  0.00000000000E+00  0.89653978143E+03  0.11034602186E+04  0.64330465122E+03 0.  0.
         13    1    3    3    0    0 -0.90064003947E+02  0.22006877797E+03  0.76724643853E+02  0.24985688467E+03  0.00000000000E+00 0. -1.
          4    1    3    3  501    0  0.90064003947E+02 -0.22006877797E+03  0.81981513758E+03  0.85360333390E+03  0.00000000000E+00 0. -1.
<mgrwt>
<rscale>  0 0.64330465E+03</rscale>
<asrwt>0</asrwt>
<pdfrwt beam="1">0</pdfrwt>
<pdfrwt beam="2">  1        2 0.37621977E+00 0.64330465E+03</pdfrwt>
<totfact> 0.48836102E+00</totfact>
</mgrwt>
</event>
<event>
 5    1  0.2354746E-004  0.6573680E+03  0.7818608E-02  0.9793051E-01
         13   -1    0    0    0    0  0.00000000000E+00  0.00000000000E+00  0.10000000000E+04  0.10000000000E+04  0.00000000000E+00 0. -1.
          2   -1    0    0  501    0 -0.00000000000E+00 -0.00000000000E+00 -0.10803318302E+03  0.10803318302E+03  0.00000000000E+00 0. -1.
    9000006    2    1    2  501    0  0.00000000000E+00  0.00000000000E+00  0.89196681698E+03  0.11080331830E+04  0.65736803395E+03 0.  0.
         13    1    3    3    0    0  0.32251919417E+03  0.50768127952E+02  0.50988257200E+03  0.60545542417E+03  0.00000000000E+00 0. -1.
          4    1    3    3  501    0 -0.32251919417E+03 -0.50768127952E+02  0.38208424498E+03  0.50257775885E+03  0.00000000000E+00 0. -1.
<mgrwt>
<rscale>  0 0.65736803E+03</rscale>
<asrwt>0</asrwt>
<pdfrwt beam="1">0</pdfrwt>
<pdfrwt beam="2">  1        2 0.39284877E+00 0.65736803E+03</pdfrwt>
<totfact> 0.42333604E+00</totfact>
</mgrwt>
</event>
<event>
 5    1  0.2354746E-004  0.7110261E+03  0.7818608E-02  0.9698560E-01
         13   -1    0    0    0    0  0.00000000000E+00  0.00000000000E+00  0.10000000000E+04  0.10000000000E+04  0.00000000000E+00 0. -1.
          2   -1    0    0  501    0 -0.00000000000E+00 -0.00000000000E+00 -0.12638951881E+03  0.12638951881E+03  0.00000000000E+00 0. -1.
    9000006    2    1    2  501    0  0.00000000000E+00  0.00000000000E+00  0.87361048119E+03  0.11263895188E+04  0.71102607213E+03 0.  0.
         13    1    3    3    0    0  0.58413557539E+02 -0.24636446347E+03  0.83215737950E+03  0.86982383092E+03  0.00000000000E+00 0. -1.
          2    1    3    3  501    0 -0.58413557539E+02  0.24636446347E+03  0.41453101683E+02  0.25656568790E+03  0.00000000000E+00 0. -1.
<mgrwt>
<rscale>  0 0.71102607E+03</rscale>
<asrwt>0</asrwt>
<pdfrwt beam="1">0</pdfrwt>
<pdfrwt beam="2">  1        2 0.45959922E+00 0.71102607E+03</pdfrwt>
<totfact> 0.23314381E+00</totfact>
</mgrwt>
</event>
<event>
 5    1  0.2354746E-004  0.6538662E+03  0.7818608E-02  0.9799552E-01
         13   -1    0    0    0    0  0.00000000000E+00  0.00000000000E+00  0.10000000000E+04  0.10000000000E+04  0.00000000000E+00 0. -1.
          2   -1    0    0  501    0 -0.00000000000E+00 -0.00000000000E+00 -0.10688524298E+03  0.10688524298E+03  0.00000000000E+00 0. -1.
    9000006    2    1    2  501    0  0.00000000000E+00  0.00000000000E+00  0.89311475702E+03  0.11068852430E+04  0.65386617280E+03 0.  0.
         13    1    3    3    0    0 -0.86876527669E+02  0.30922578861E+03  0.34334845999E+03  0.47016623058E+03  0.00000000000E+00 0. -1.
          2    1    3    3  501    0  0.86876527669E+02 -0.30922578861E+03  0.54976629703E+03  0.63671901240E+03  0.00000000000E+00 0. -1.
<mgrwt>
<rscale>  0 0.65386617E+03</rscale>
<asrwt>0</asrwt>
<pdfrwt beam="1">0</pdfrwt>
<pdfrwt beam="2">  1        2 0.38867443E+00 0.65386617E+03</pdfrwt>
<totfact> 0.43887543E+00</totfact>
</mgrwt>
</event>
<event>
 5    1  0.2354746E-004  0.6557785E+03  0.7818608E-02  0.9795996E-01
         13   -1    0    0    0    0  0.00000000000E+00  0.00000000000E+00  0.10000000000E+04  0.10000000000E+04  0.00000000000E+00 0. -1.
          2   -1    0    0  501    0 -0.00000000000E+00 -0.00000000000E+00 -0.10751134778E+03  0.10751134778E+03  0.00000000000E+00 0. -1.
    9000006    2    1    2  501    0  0.00000000000E+00  0.00000000000E+00  0.89248865222E+03  0.11075113478E+04  0.65577846193E+03 0.  0.
         13    1    3    3    0    0 -0.40039026064E+02  0.29769921995E+03  0.66827123326E+03  0.73267618384E+03  0.00000000000E+00 0. -1.
          4    1    3    3  501    0  0.40039026064E+02 -0.29769921995E+03  0.22421741896E+03  0.37483516395E+03  0.00000000000E+00 0. -1.
<mgrwt>
<rscale>  0 0.65577846E+03</rscale>
<asrwt>0</asrwt>
<pdfrwt beam="1">0</pdfrwt>
<pdfrwt beam="2">  1        2 0.39095118E+00 0.65577846E+03</pdfrwt>
<totfact> 0.43033729E+00</totfact>
</mgrwt>
</event>
<event>
 5    1  0.2354746E-004  0.6604538E+03  0.7818608E-02  0.9787359E-01
         13   -1    0    0    0    0  0.00000000000E+00  0.00000000000E+00  0.10000000000E+04  0.10000000000E+04  0.00000000000E+00 0. -1.
          2   -1    0    0  501    0 -0.00000000000E+00 -0.00000000000E+00 -0.10904979713E+03  0.10904979713E+03  0.00000000000E+00 0. -1.
    9000006    2    1    2  501    0  0.00000000000E+00  0.00000000000E+00  0.89095020287E+03  0.11090497971E+04  0.66045377469E+03 0.  0.
         13    1    3    3    0    0 -0.54557154382E+02  0.32090281359E+03  0.53889035036E+03  0.62956962171E+03  0.00000000000E+00 0. -1.
          2    1    3    3  501    0  0.54557154382E+02 -0.32090281359E+03  0.35205985251E+03  0.47948017542E+03  0.00000000000E+00 0. -1.
<mgrwt>
<rscale>  0 0.66045377E+03</rscale>
<asrwt>0</asrwt>
<pdfrwt beam="1">0</pdfrwt>
<pdfrwt beam="2">  1        2 0.39654555E+00 0.66045377E+03</pdfrwt>
<totfact> 0.40999158E+00</totfact>
</mgrwt>
</event>
<event>
 5    1  0.2354746E-004  0.6194527E+03  0.7818608E-02  0.9865850E-01
         13   -1    0    0    0    0  0.00000000000E+00  0.00000000000E+00  0.10000000000E+04  0.10000000000E+04  0.00000000000E+00 0. -1.
          2   -1    0    0  501    0 -0.00000000000E+00 -0.00000000000E+00 -0.95930409889E+02  0.95930409889E+02  0.00000000000E+00 0. -1.
    9000006    2    1    2  501    0  0.00000000000E+00  0.00000000000E+00  0.90406959011E+03  0.10959304099E+04  0.61945269356E+03 0.  0.
         13    1    3    3    0    0 -0.13002993051E+03 -0.45627318231E+02 -0.38707071157E+02  0.14313585279E+03  0.00000000000E+00 0. -1.
          4    1    3    3  501    0  0.13002993051E+03  0.45627318231E+02  0.94277666127E+03  0.95279455709E+03  0.00000000000E+00 0. -1.
<mgrwt>
<rscale>  0 0.61945269E+03</rscale>
<asrwt>0</asrwt>
<pdfrwt beam="1">0</pdfrwt>
<pdfrwt beam="2">  1        2 0.34883859E+00 0.61945269E+03</pdfrwt>
<totfact> 0.61562918E+00</totfact>
</mgrwt>
</event>
<event>
 5    1  0.2354746E-004  0.6757085E+03  0.7818608E-02  0.9759700E-01
         13   -1    0    0    0    0  0.00000000000E+00  0.00000000000E+00  0.10000000000E+04  0.10000000000E+04  0.00000000000E+00 0. -1.
          2   -1    0    0  501    0 -0.00000000000E+00 -0.00000000000E+00 -0.11414548666E+03  0.11414548666E+03  0.00000000000E+00 0. -1.
    9000006    2    1    2  501    0  0.00000000000E+00  0.00000000000E+00  0.88585451334E+03  0.11141454867E+04  0.67570847756E+03 0.  0.
         13    1    3    3    0    0  0.24742883779E+02  0.29922951939E+03  0.69834005373E+03  0.76015087070E+03  0.00000000000E+00 0. -1.
          2    1    3    3  501    0 -0.24742883779E+02 -0.29922951939E+03  0.18751445961E+03  0.35399461597E+03  0.00000000000E+00 0. -1.
<mgrwt>
<rscale>  0 0.67570848E+03</rscale>
<asrwt>0</asrwt>
<pdfrwt beam="1">0</pdfrwt>
<pdfrwt beam="2">  1        2 0.41507537E+00 0.67570848E+03</pdfrwt>
<totfact> 0.34862153E+00</totfact>
</mgrwt>
</event>
<event>
 5    1  0.2354746E-004  0.6378442E+03  0.7818608E-02  0.9829860E-01
         13   -1    0    0    0    0  0.00000000000E+00  0.00000000000E+00  0.10000000000E+04  0.10000000000E+04  0.00000000000E+00 0. -1.
          2   -1    0    0  501    0 -0.00000000000E+00 -0.00000000000E+00 -0.10171131388E+03  0.10171131388E+03  0.00000000000E+00 0. -1.
    9000006    2    1    2  501    0  0.00000000000E+00  0.00000000000E+00  0.89828868612E+03  0.11017113139E+04  0.63784422511E+03 0.  0.
         13    1    3    3    0    0  0.79335309001E+02 -0.12412406788E+03 -0.39425331074E+02  0.15249666295E+03  0.00000000000E+00 0. -1.
          4    1    3    3  501    0 -0.79335309001E+02  0.12412406788E+03  0.93771401720E+03  0.94921465092E+03  0.00000000000E+00 0. -1.
<mgrwt>
<rscale>  0 0.63784423E+03</rscale>
<asrwt>0</asrwt>
<pdfrwt beam="1">0</pdfrwt>
<pdfrwt beam="2">  1        2 0.36986010E+00 0.63784423E+03</pdfrwt>
<totfact> 0.51554562E+00</totfact>
</mgrwt>
</event>
<event>
 5    1  0.2354746E-004  0.6401853E+03  0.7818608E-02  0.9825372E-01
         13   -1    0    0    0    0  0.00000000000E+00  0.00000000000E+00  0.10000000000E+04  0.10000000000E+04  0.00000000000E+00 0. -1.
          2   -1    0    0  501    0 -0.00000000000E+00 -0.00000000000E+00 -0.10245931071E+03  0.10245931071E+03  0.00000000000E+00 0. -1.
    9000006    2    1    2  501    0  0.00000000000E+00  0.00000000000E+00  0.89754068929E+03  0.11024593107E+04  0.64018531915E+03 0.  0.
         13    1    3    3    0    0 -0.31845372514E+03  0.29453785892E+02  0.42572964318E+03  0.53247162332E+03  0.00000000000E+00 0. -1.
          2    1    3    3  501    0  0.31845372514E+03 -0.29453785892E+02  0.47181104610E+03  0.56998768740E+03  0.00000000000E+00 0. -1.
<mgrwt>
<rscale>  0 0.64018532E+03</rscale>
<asrwt>0</asrwt>
<pdfrwt beam="1">0</pdfrwt>
<pdfrwt beam="2">  1        2 0.37258010E+00 0.64018532E+03</pdfrwt>
<totfact> 0.50375377E+00</totfact>
</mgrwt>
</event>
<event>
 5    1  0.2354746E-004  0.6572970E+03  0.7818608E-02  0.9793182E-01
         13   -1    0    0    0    0  0.00000000000E+00  0.00000000000E+00  0.10000000000E+04  0.10000000000E+04  0.00000000000E+00 0. -1.
          4   -1    0    0  501    0 -0.00000000000E+00 -0.00000000000E+00 -0.10800982576E+03  0.10800982576E+03  0.00000000000E+00 0. -1.
    9000006    2    1    2  501    0  0.00000000000E+00  0.00000000000E+00  0.89199017424E+03  0.11080098258E+04  0.65729696717E+03 0.  0.
         13    1    3    3    0    0 -0.20886983643E+03  0.25188705929E+03  0.49757127822E+03  0.59552571406E+03  0.00000000000E+00 0. -1.
          2    1    3    3  501    0  0.20886983643E+03 -0.25188705929E+03  0.39441889602E+03  0.51248411170E+03  0.00000000000E+00 0. -1.
<mgrwt>
<rscale>  0 0.65729697E+03</rscale>
<asrwt>0</asrwt>
<pdfrwt beam="1">0</pdfrwt>
<pdfrwt beam="2">  1        4 0.39276383E+00 0.65729697E+03</pdfrwt>
<totfact> 0.35942172E-02</totfact>
</mgrwt>
</event>
<event>
 5    1  0.2354746E-004  0.6547438E+03  0.7818608E-02  0.9797918E-01
         13   -1    0    0    0    0  0.00000000000E+00  0.00000000000E+00  0.10000000000E+04  0.10000000000E+04  0.00000000000E+00 0. -1.
          2   -1    0    0  501    0 -0.00000000000E+00 -0.00000000000E+00 -0.10717236007E+03  0.10717236007E+03  0.00000000000E+00 0. -1.
    9000006    2    1    2  501    0  0.00000000000E+00  0.00000000000E+00  0.89282763993E+03  0.11071723601E+04  0.65474379743E+03 0.  0.
         13    1    3    3    0    0  0.32131300928E+03  0.59839818011E+00  0.55242153376E+03  0.63907116894E+03  0.00000000000E+00 0. -1.
          2    1    3    3  501    0 -0.32131300928E+03 -0.59839818011E+00  0.34040610618E+03  0.46810119113E+03  0.00000000000E+00 0. -1.
<mgrwt>
<rscale>  0 0.65474380E+03</rscale>
<asrwt>0</asrwt>
<pdfrwt beam="1">0</pdfrwt>
<pdfrwt beam="2">  1        2 0.38971849E+00 0.65474380E+03</pdfrwt>
<totfact> 0.43494121E+00</totfact>
</mgrwt>
</event>
<event>
 5    1  0.2354746E-004  0.6676336E+03  0.7818608E-02  0.9774242E-01
         13   -1    0    0    0    0  0.00000000000E+00  0.00000000000E+00  0.10000000000E+04  0.10000000000E+04  0.00000000000E+00 0. -1.
          2   -1    0    0  501    0 -0.00000000000E+00 -0.00000000000E+00 -0.11143366166E+03  0.11143366166E+03  0.00000000000E+00 0. -1.
    9000006    2    1    2  501    0  0.00000000000E+00  0.00000000000E+00  0.88856633834E+03  0.11114336617E+04  0.66763361707E+03 0.  0.
         13    1    3    3    0    0  0.91344045080E+02 -0.20924966237E+03  0.38878080681E+02  0.23160453565E+03  0.00000000000E+00 0. -1.
          4    1    3    3  501    0 -0.91344045080E+02  0.20924966237E+03  0.84968825766E+03  0.87982912601E+03  0.00000000000E+00 0. -1.
<mgrwt>
<rscale>  0 0.66763362E+03</rscale>
<asrwt>0</asrwt>
<pdfrwt beam="1">0</pdfrwt>
<pdfrwt beam="2">  1        2 0.40521417E+00 0.66763362E+03</pdfrwt>
<totfact> 0.38017175E+00</totfact>
</mgrwt>
</event>
<event>
 5    1  0.2354746E-004  0.6556432E+03  0.7818608E-02  0.9796247E-01
         13   -1    0    0    0    0  0.00000000000E+00  0.00000000000E+00  0.10000000000E+04  0.10000000000E+04  0.00000000000E+00 0. -1.
          2   -1    0    0  501    0 -0.00000000000E+00 -0.00000000000E+00 -0.10746701040E+03  0.10746701040E+03  0.00000000000E+00 0. -1.
    9000006    2    1    2  501    0  0.00000000000E+00  0.00000000000E+00  0.89253298960E+03  0.11074670104E+04  0.65564322736E+03 0.  0.
         13    1    3    3    0    0 -0.30527837728E+03 -0.11458116659E+03  0.38915292096E+03  0.50770436994E+03  0.00000000000E+00 0. -1.
          2    1    3    3  501    0  0.30527837728E+03  0.11458116659E+03  0.50338006865E+03  0.59976264045E+03  0.00000000000E+00 0. -1.
<mgrwt>
<rscale>  0 0.65564323E+03</rscale>
<asrwt>0</asrwt>
<pdfrwt beam="1">0</pdfrwt>
<pdfrwt beam="2">  1        2 0.39078995E+00 0.65564323E+03</pdfrwt>
<totfact> 0.43093694E+00</totfact>
</mgrwt>
</event>
<event>
 5    1  0.2354746E-004  0.6419557E+03  0.7818608E-02  0.9821992E-01
         13   -1    0    0    0    0  0.00000000000E+00  0.00000000000E+00  0.10000000000E+04  0.10000000000E+04  0.00000000000E+00 0. -1.
          2   -1    0    0  501    0 -0.00000000000E+00 -0.00000000000E+00 -0.10302678005E+03  0.10302678005E+03  0.00000000000E+00 0. -1.
    9000006    2    1    2  501    0  0.00000000000E+00  0.00000000000E+00  0.89697321995E+03  0.11030267800E+04  0.64195569956E+03 0.  0.
         13    1    3    3    0    0 -0.15870564365E+03 -0.26910915180E+03  0.32199458716E+03  0.44865101256E+03  0.00000000000E+00 0. -1.
          2    1    3    3  501    0  0.15870564365E+03  0.26910915180E+03  0.57497863280E+03  0.65437576749E+03  0.00000000000E+00 0. -1.
<mgrwt>
<rscale>  0 0.64195570E+03</rscale>
<asrwt>0</asrwt>
<pdfrwt beam="1">0</pdfrwt>
<pdfrwt beam="2">  1        2 0.37464363E+00 0.64195570E+03</pdfrwt>
<totfact> 0.49497308E+00</totfact>
</mgrwt>
</event>
<event>
 5    1  0.2354746E-004  0.6561366E+03  0.7818608E-02  0.9795332E-01
         13   -1    0    0    0    0  0.00000000000E+00  0.00000000000E+00  0.10000000000E+04  0.10000000000E+04  0.00000000000E+00 0. -1.
          2   -1    0    0  501    0 -0.00000000000E+00 -0.00000000000E+00 -0.10762880365E+03  0.10762880365E+03  0.00000000000E+00 0. -1.
    9000006    2    1    2  501    0  0.00000000000E+00  0.00000000000E+00  0.89237119635E+03  0.11076288036E+04  0.65613658227E+03 0.  0.
         13    1    3    3    0    0 -0.27971040291E+03 -0.11274194142E+03  0.22816378400E+03  0.37816314889E+03  0.00000000000E+00 0. -1.
          4    1    3    3  501    0  0.27971040291E+03  0.11274194142E+03  0.66420741235E+03  0.72946565476E+03  0.00000000000E+00 0. -1.
<mgrwt>
<rscale>  0 0.65613658E+03</rscale>
<asrwt>0</asrwt>
<pdfrwt beam="1">0</pdfrwt>
<pdfrwt beam="2">  1        2 0.39137829E+00 0.65613658E+03</pdfrwt>
<totfact> 0.42875238E+00</totfact>
</mgrwt>
</event>
<event>
 5    1  0.2354746E-004  0.6500508E+03  0.7818608E-02  0.9806684E-01
         13   -1    0    0    0    0  0.00000000000E+00  0.00000000000E+00  0.10000000000E+04  0.10000000000E+04  0.00000000000E+00 0. -1.
          2   -1    0    0  501    0 -0.00000000000E+00 -0.00000000000E+00 -0.10564151916E+03  0.10564151916E+03  0.00000000000E+00 0. -1.
    9000006    2    1    2  501    0  0.00000000000E+00  0.00000000000E+00  0.89435848084E+03  0.11056415192E+04  0.65005082620E+03 0.  0.
         13    1    3    3    0    0 -0.40750583994E+02  0.31887030099E+03  0.52879613505E+03  0.61884103887E+03  0.00000000000E+00 0. -1.
          2    1    3    3  501    0  0.40750583994E+02 -0.31887030099E+03  0.36556234579E+03  0.48680048029E+03  0.00000000000E+00 0. -1.
<mgrwt>
<rscale>  0 0.65005083E+03</rscale>
<asrwt>0</asrwt>
<pdfrwt beam="1">0</pdfrwt>
<pdfrwt beam="2">  1        2 0.38415179E+00 0.65005083E+03</pdfrwt>
<totfact> 0.45629224E+00</totfact>
</mgrwt>
</event>
<event>
 5    1  0.2354746E-004  0.6356400E+03  0.7818608E-02  0.9834104E-01
         13   -1    0    0    0    0  0.00000000000E+00  0.00000000000E+00  0.10000000000E+04  0.10000000000E+04  0.00000000000E+00 0. -1.
          2   -1    0    0  501    0 -0.00000000000E+00 -0.00000000000E+00 -0.10100955279E+03  0.10100955279E+03  0.00000000000E+00 0. -1.
    9000006    2    1    2  501    0  0.00000000000E+00  0.00000000000E+00  0.89899044721E+03  0.11010095528E+04  0.63564000121E+03 0.  0.
         13    1    3    3    0    0  0.25699990477E+03 -0.36938309806E+02  0.13200913009E+03  0.29127272480E+03  0.00000000000E+00 0. -1.
          2    1    3    3  501    0 -0.25699990477E+03  0.36938309806E+02  0.76698131712E+03  0.80973682799E+03  0.00000000000E+00 0. -1.
<mgrwt>
<rscale>  0 0.63564000E+03</rscale>
<asrwt>0</asrwt>
<pdfrwt beam="1">0</pdfrwt>
<pdfrwt beam="2">  1        2 0.36730824E+00 0.63564000E+03</pdfrwt>
<totfact> 0.52683808E+00</totfact>
</mgrwt>
</event>
<event>
 5    1  0.2354746E-004  0.6395806E+03  0.7818608E-02  0.9826529E-01
         13   -1    0    0    0    0  0.00000000000E+00  0.00000000000E+00  0.10000000000E+04  0.10000000000E+04  0.00000000000E+00 0. -1.
          2   -1    0    0  501    0 -0.00000000000E+00 -0.00000000000E+00 -0.10226584045E+03  0.10226584045E+03  0.00000000000E+00 0. -1.
    9000006    2    1    2  501    0  0.00000000000E+00  0.00000000000E+00  0.89773415955E+03  0.11022658405E+04  0.63958061401E+03 0.  0.
         13    1    3    3    0    0 -0.57904582424E+02  0.16087793296E+03 -0.16874752236E+02  0.17181212775E+03  0.00000000000E+00 0. -1.
          2    1    3    3  501    0  0.57904582424E+02 -0.16087793296E+03  0.91460891178E+03  0.93045371271E+03  0.00000000000E+00 0. -1.
<mgrwt>
<rscale>  0 0.63958061E+03</rscale>
<asrwt>0</asrwt>
<pdfrwt beam="1">0</pdfrwt>
<pdfrwt beam="2">  1        2 0.37187657E+00 0.63958061E+03</pdfrwt>
<totfact> 0.50677983E+00</totfact>
</mgrwt>
</event>
<event>
 5    1  0.2354746E-004  0.6658197E+03  0.7818608E-02  0.9777539E-01
         13   -1    0    0    0    0  0.00000000000E+00  0.00000000000E+00  0.10000000000E+04  0.10000000000E+04  0.00000000000E+00 0. -1.
          2   -1    0    0  501    0 -0.00000000000E+00 -0.00000000000E+00 -0.11082897781E+03  0.11082897781E+03  0.00000000000E+00 0. -1.
    9000006    2    1    2  501    0  0.00000000000E+00  0.00000000000E+00  0.88917102219E+03  0.11108289778E+04  0.66581972879E+03 0.  0.
         13    1    3    3    0    0 -0.26077000663E+03 -0.47274149315E+02  0.10844810508E+03  0.28635089147E+03  0.00000000000E+00 0. -1.
          2    1    3    3  501    0  0.26077000663E+03  0.47274149315E+02  0.78072291711E+03  0.82447808634E+03  0.00000000000E+00 0. -1.
<mgrwt>
<rscale>  0 0.66581973E+03</rscale>
<asrwt>0</asrwt>
<pdfrwt beam="1">0</pdfrwt>
<pdfrwt beam="2">  1        2 0.40301531E+00 0.66581973E+03</pdfrwt>
<totfact> 0.38754553E+00</totfact>
</mgrwt>
</event>
<event>
 5    1  0.2354746E-004  0.5966263E+03  0.7818608E-02  0.9912430E-01
         13   -1    0    0    0    0  0.00000000000E+00  0.00000000000E+00  0.10000000000E+04  0.10000000000E+04  0.00000000000E+00 0. -1.
          2   -1    0    0  501    0 -0.00000000000E+00 -0.00000000000E+00 -0.88990744914E+02  0.88990744914E+02  0.00000000000E+00 0. -1.
    9000006    2    1    2  501    0  0.00000000000E+00  0.00000000000E+00  0.91100925509E+03  0.10889907449E+04  0.59662633168E+03 0.  0.
         13    1    3    3    0    0 -0.19087190466E+03 -0.22297796619E+03  0.55276630464E+03  0.62586088306E+03  0.00000000000E+00 0. -1.
          4    1    3    3  501    0  0.19087190466E+03  0.22297796619E+03  0.35824295044E+03  0.46312986185E+03  0.00000000000E+00 0. -1.
<mgrwt>
<rscale>  0 0.59662633E+03</rscale>
<asrwt>0</asrwt>
<pdfrwt beam="1">0</pdfrwt>
<pdfrwt beam="2">  1        2 0.32360339E+00 0.59662633E+03</pdfrwt>
<totfact> 0.75970289E+00</totfact>
</mgrwt>
</event>
<event>
 5    1  0.2354746E-004  0.6491711E+03  0.7818608E-02  0.9808336E-01
         13   -1    0    0    0    0  0.00000000000E+00  0.00000000000E+00  0.10000000000E+04  0.10000000000E+04  0.00000000000E+00 0. -1.
          2   -1    0    0  501    0 -0.00000000000E+00 -0.00000000000E+00 -0.10535578373E+03  0.10535578373E+03  0.00000000000E+00 0. -1.
    9000006    2    1    2  501    0  0.00000000000E+00  0.00000000000E+00  0.89464421627E+03  0.11053557837E+04  0.64917111375E+03 0.  0.
         13    1    3    3    0    0 -0.15979364615E+03  0.24821646958E+03  0.21754743846E+03  0.36670466741E+03  0.00000000000E+00 0. -1.
          2    1    3    3  501    0  0.15979364615E+03 -0.24821646958E+03  0.67709677780E+03  0.73865111632E+03  0.00000000000E+00 0. -1.
<mgrwt>
<rscale>  0 0.64917111E+03</rscale>
<asrwt>0</asrwt>
<pdfrwt beam="1">0</pdfrwt>
<pdfrwt beam="2">  1        2 0.38311275E+00 0.64917111E+03</pdfrwt>
<totfact> 0.46038108E+00</totfact>
</mgrwt>
</event>
<event>
 5    1  0.2354746E-004  0.6376705E+03  0.7818608E-02  0.9830194E-01
         13   -1    0    0    0    0  0.00000000000E+00  0.00000000000E+00  0.10000000000E+04  0.10000000000E+04  0.00000000000E+00 0. -1.
          2   -1    0    0  501    0 -0.00000000000E+00 -0.00000000000E+00 -0.10165592804E+03  0.10165592804E+03  0.00000000000E+00 0. -1.
    9000006    2    1    2  501    0  0.00000000000E+00  0.00000000000E+00  0.89834407196E+03  0.11016559280E+04  0.63767053574E+03 0.  0.
         13    1    3    3    0    0 -0.25823955189E+03 -0.18185684149E+03  0.52440514282E+03  0.61217671531E+03  0.00000000000E+00 0. -1.
          2    1    3    3  501    0  0.25823955189E+03  0.18185684149E+03  0.37393892914E+03  0.48947921272E+03  0.00000000000E+00 0. -1.
<mgrwt>
<rscale>  0 0.63767054E+03</rscale>
<asrwt>0</asrwt>
<pdfrwt beam="1">0</pdfrwt>
<pdfrwt beam="2">  1        2 0.36965870E+00 0.63767054E+03</pdfrwt>
<totfact> 0.51642873E+00</totfact>
</mgrwt>
</event>
<event>
 5    1  0.2354746E-004  0.6518640E+03  0.7818608E-02  0.9803288E-01
         13   -1    0    0    0    0  0.00000000000E+00  0.00000000000E+00  0.10000000000E+04  0.10000000000E+04  0.00000000000E+00 0. -1.
          2   -1    0    0  501    0 -0.00000000000E+00 -0.00000000000E+00 -0.10623165620E+03  0.10623165620E+03  0.00000000000E+00 0. -1.
    9000006    2    1    2  501    0  0.00000000000E+00  0.00000000000E+00  0.89376834380E+03  0.11062316562E+04  0.65186396188E+03 0.  0.
         13    1    3    3    0    0  0.46163738497E+02  0.29886684182E+03  0.65319129614E+03  0.71979952017E+03  0.00000000000E+00 0. -1.
          4    1    3    3  501    0 -0.46163738497E+02 -0.29886684182E+03  0.24057704766E+03  0.38643213603E+03  0.00000000000E+00 0. -1.
<mgrwt>
<rscale>  0 0.65186396E+03</rscale>
<asrwt>0</asrwt>
<pdfrwt beam="1">0</pdfrwt>
<pdfrwt beam="2">  1        2 0.38629775E+00 0.65186396E+03</pdfrwt>
<totfact> 0.44795153E+00</totfact>
</mgrwt>
</event>
<event>
 5    1  0.2354746E-004  0.6457829E+03  0.7818608E-02  0.9814725E-01
         13   -1    0    0    0    0  0.00000000000E+00  0.00000000000E+00  0.10000000000E+04  0.10000000000E+04  0.00000000000E+00 0. -1.
          2   -1    0    0  501    0 -0.00000000000E+00 -0.00000000000E+00 -0.10425889459E+03  0.10425889459E+03  0.00000000000E+00 0. -1.
    9000006    2    1    2  501    0  0.00000000000E+00  0.00000000000E+00  0.89574110541E+03  0.11042588946E+04  0.64578291891E+03 0.  0.
         13    1    3    3    0    0  0.15274210385E+03  0.28262073277E+03  0.50339182284E+03  0.59716660672E+03  0.00000000000E+00 0. -1.
          2    1    3    3  501    0 -0.15274210385E+03 -0.28262073277E+03  0.39234928258E+03  0.50709228787E+03  0.00000000000E+00 0. -1.
<mgrwt>
<rscale>  0 0.64578292E+03</rscale>
<asrwt>0</asrwt>
<pdfrwt beam="1">0</pdfrwt>
<pdfrwt beam="2">  1        2 0.37912405E+00 0.64578292E+03</pdfrwt>
<totfact> 0.47638853E+00</totfact>
</mgrwt>
</event>
<event>
 5    1  0.2354746E-004  0.6536008E+03  0.7818608E-02  0.9800046E-01
         13   -1    0    0    0    0  0.00000000000E+00  0.00000000000E+00  0.10000000000E+04  0.10000000000E+04  0.00000000000E+00 0. -1.
          2   -1    0    0  501    0 -0.00000000000E+00 -0.00000000000E+00 -0.10679849186E+03  0.10679849186E+03  0.00000000000E+00 0. -1.
    9000006    2    1    2  501    0  0.00000000000E+00  0.00000000000E+00  0.89320150814E+03  0.11067984919E+04  0.65360077069E+03 0.  0.
         13    1    3    3    0    0 -0.49580158200E+02 -0.55408362710E+02  0.98548670947E+03  0.98828757621E+03  0.00000000000E+00 0. -1.
          4    1    3    3  501    0  0.49580158200E+02  0.55408362710E+02 -0.92285201328E+02  0.11851091566E+03  0.00000000000E+00 0. -1.
<mgrwt>
<rscale>  0 0.65360077E+03</rscale>
<asrwt>0</asrwt>
<pdfrwt beam="1">0</pdfrwt>
<pdfrwt beam="2">  1        2 0.38835897E+00 0.65360077E+03</pdfrwt>
<totfact> 0.44007045E+00</totfact>
</mgrwt>
</event>
<event>
 5    1  0.2354746E-004  0.5969249E+03  0.7818608E-02  0.9911806E-01
         13   -1    0    0    0    0  0.00000000000E+00  0.00000000000E+00  0.10000000000E+04  0.10000000000E+04  0.00000000000E+00 0. -1.
          2   -1    0    0  501    0 -0.00000000000E+00 -0.00000000000E+00 -0.89079840584E+02  0.89079840584E+02  0.00000000000E+00 0. -1.
    9000006    2    1    2  501    0  0.00000000000E+00  0.00000000000E+00  0.91092015942E+03  0.10890798406E+04  0.59692492186E+03 0.  0.
         13    1    3    3    0    0 -0.27923548478E+03  0.10534851219E+03  0.46095647316E+03  0.54913717332E+03  0.00000000000E+00 0. -1.
          4    1    3    3  501    0  0.27923548478E+03 -0.10534851219E+03  0.44996368626E+03  0.53994266726E+03  0.00000000000E+00 0. -1.
<mgrwt>
<rscale>  0 0.59692492E+03</rscale>
<asrwt>0</asrwt>
<pdfrwt beam="1">0</pdfrwt>
<pdfrwt beam="2">  1        2 0.32392738E+00 0.59692492E+03</pdfrwt>
<totfact> 0.75766589E+00</totfact>
</mgrwt>
</event>
<event>
 5    1  0.2354746E-004  0.6577065E+03  0.7818608E-02  0.9792425E-01
         13   -1    0    0    0    0  0.00000000000E+00  0.00000000000E+00  0.10000000000E+04  0.10000000000E+04  0.00000000000E+00 0. -1.
          2   -1    0    0  501    0 -0.00000000000E+00 -0.00000000000E+00 -0.10814445560E+03  0.10814445560E+03  0.00000000000E+00 0. -1.
    9000006    2    1    2  501    0  0.00000000000E+00  0.00000000000E+00  0.89185554440E+03  0.11081444556E+04  0.65770648650E+03 0.  0.
         13    1    3    3    0    0  0.30610069914E+02 -0.21896954742E+03  0.35776177844E+02  0.22397449403E+03  0.00000000000E+00 0. -1.
          4    1    3    3  501    0 -0.30610069914E+02  0.21896954742E+03  0.85607936656E+03  0.88416996156E+03  0.00000000000E+00 0. -1.
<mgrwt>
<rscale>  0 0.65770649E+03</rscale>
<asrwt>0</asrwt>
<pdfrwt beam="1">0</pdfrwt>
<pdfrwt beam="2">  1        2 0.39325340E+00 0.65770649E+03</pdfrwt>
<totfact> 0.42185650E+00</totfact>
</mgrwt>
</event>
<event>
 5    1  0.2354746E-004  0.6471460E+03  0.7818608E-02  0.9812149E-01
         13   -1    0    0    0    0  0.00000000000E+00  0.00000000000E+00  0.10000000000E+04  0.10000000000E+04  0.00000000000E+00 0. -1.
          2   -1    0    0  501    0 -0.00000000000E+00 -0.00000000000E+00 -0.10469947316E+03  0.10469947316E+03  0.00000000000E+00 0. -1.
    9000006    2    1    2  501    0  0.00000000000E+00  0.00000000000E+00  0.89530052684E+03  0.11046994732E+04  0.64714595930E+03 0.  0.
         13    1    3    3    0    0 -0.19460214264E+03  0.95378313116E+02  0.37491568991E+02  0.21993779638E+03  0.00000000000E+00 0. -1.
          4    1    3    3  501    0  0.19460214264E+03 -0.95378313116E+02  0.85780895785E+03  0.88476167678E+03  0.00000000000E+00 0. -1.
<mgrwt>
<rscale>  0 0.64714596E+03</rscale>
<asrwt>0</asrwt>
<pdfrwt beam="1">0</pdfrwt>
<pdfrwt beam="2">  1        2 0.38072616E+00 0.64714596E+03</pdfrwt>
<totfact> 0.46989911E+00</totfact>
</mgrwt>
</event>
<event>
 5    1  0.2354746E-004  0.6470708E+03  0.7818608E-02  0.9812291E-01
         13   -1    0    0    0    0  0.00000000000E+00  0.00000000000E+00  0.10000000000E+04  0.10000000000E+04  0.00000000000E+00 0. -1.
          2   -1    0    0  501    0 -0.00000000000E+00 -0.00000000000E+00 -0.10467515569E+03  0.10467515569E+03  0.00000000000E+00 0. -1.
    9000006    2    1    2  501    0  0.00000000000E+00  0.00000000000E+00  0.89532484431E+03  0.11046751557E+04  0.64707080196E+03 0.  0.
         13    1    3    3    0    0  0.22904163287E+03 -0.18024469564E+03  0.20788261926E+03  0.35799916660E+03  0.00000000000E+00 0. -1.
          2    1    3    3  501    0 -0.22904163287E+03  0.18024469564E+03  0.68744222505E+03  0.74667598909E+03  0.00000000000E+00 0. -1.
<mgrwt>
<rscale>  0 0.64707080E+03</rscale>
<asrwt>0</asrwt>
<pdfrwt beam="1">0</pdfrwt>
<pdfrwt beam="2">  1        2 0.38063773E+00 0.64707080E+03</pdfrwt>
<totfact> 0.47025518E+00</totfact>
</mgrwt>
</event>
<event>
 5    1  0.2354746E-004  0.6308312E+03  0.7818608E-02  0.9843428E-01
         13   -1    0    0    0    0  0.00000000000E+00  0.00000000000E+00  0.10000000000E+04  0.10000000000E+04  0.00000000000E+00 0. -1.
          2   -1    0    0  501    0 -0.00000000000E+00 -0.00000000000E+00 -0.99486989601E+02  0.99486989601E+02  0.00000000000E+00 0. -1.
    9000006    2    1    2  501    0  0.00000000000E+00  0.00000000000E+00  0.90051301040E+03  0.10994869896E+04  0.63083116474E+03 0.  0.
         13    1    3    3    0    0  0.70945105118E+02  0.15243385251E+03  0.91538284393E+03  0.93069599671E+03  0.00000000000E+00 0. -1.
          4    1    3    3  501    0 -0.70945105118E+02 -0.15243385251E+03 -0.14869833532E+02  0.16879099289E+03  0.00000000000E+00 0. -1.
<mgrwt>
<rscale>  0 0.63083116E+03</rscale>
<asrwt>0</asrwt>
<pdfrwt beam="1">0</pdfrwt>
<pdfrwt beam="2">  1        2 0.36177163E+00 0.63083116E+03</pdfrwt>
<totfact> 0.55212448E+00</totfact>
</mgrwt>
</event>
<event>
 5    1  0.2354746E-004  0.6502305E+03  0.7818608E-02  0.9806347E-01
         13   -1    0    0    0    0  0.00000000000E+00  0.00000000000E+00  0.10000000000E+04  0.10000000000E+04  0.00000000000E+00 0. -1.
          2   -1    0    0  501    0 -0.00000000000E+00 -0.00000000000E+00 -0.10569992395E+03  0.10569992395E+03  0.00000000000E+00 0. -1.
    9000006    2    1    2  501    0  0.00000000000E+00  0.00000000000E+00  0.89430007605E+03  0.11056999240E+04  0.65023049436E+03 0.  0.
         13    1    3    3    0    0 -0.18211321400E+03  0.21292240524E+03  0.16670715450E+03  0.32602522713E+03  0.00000000000E+00 0. -1.
          4    1    3    3  501    0  0.18211321400E+03 -0.21292240524E+03  0.72759292155E+03  0.77967469682E+03  0.00000000000E+00 0. -1.
<mgrwt>
<rscale>  0 0.65023049E+03</rscale>
<asrwt>0</asrwt>
<pdfrwt beam="1">0</pdfrwt>
<pdfrwt beam="2">  1        2 0.38436417E+00 0.65023049E+03</pdfrwt>
<totfact> 0.45546054E+00</totfact>
</mgrwt>
</event>
<event>
 5    1  0.2354746E-004  0.6697461E+03  0.7818608E-02  0.9770417E-01
         13   -1    0    0    0    0  0.00000000000E+00  0.00000000000E+00  0.10000000000E+04  0.10000000000E+04  0.00000000000E+00 0. -1.
          2   -1    0    0  501    0 -0.00000000000E+00 -0.00000000000E+00 -0.11213997453E+03  0.11213997453E+03  0.00000000000E+00 0. -1.
    9000006    2    1    2  501    0  0.00000000000E+00  0.00000000000E+00  0.88786002547E+03  0.11121399745E+04  0.66974614455E+03 0.  0.
         13    1    3    3    0    0 -0.12849648644E+02 -0.20562986092E+03  0.55625952806E+01  0.20610603009E+03  0.00000000000E+00 0. -1.
          2    1    3    3  501    0  0.12849648644E+02  0.20562986092E+03  0.88229743018E+03  0.90603394444E+03  0.00000000000E+00 0. -1.
<mgrwt>
<rscale>  0 0.66974614E+03</rscale>
<asrwt>0</asrwt>
<pdfrwt beam="1">0</pdfrwt>
<pdfrwt beam="2">  1        2 0.40778259E+00 0.66974614E+03</pdfrwt>
<totfact> 0.37171781E+00</totfact>
</mgrwt>
</event>
<event>
 5    1  0.2354746E-004  0.6659251E+03  0.7818608E-02  0.9777347E-01
         13   -1    0    0    0    0  0.00000000000E+00  0.00000000000E+00  0.10000000000E+04  0.10000000000E+04  0.00000000000E+00 0. -1.
          2   -1    0    0  501    0 -0.00000000000E+00 -0.00000000000E+00 -0.11086405551E+03  0.11086405551E+03  0.00000000000E+00 0. -1.
    9000006    2    1    2  501    0  0.00000000000E+00  0.00000000000E+00  0.88913594449E+03  0.11108640555E+04  0.66592508740E+03 0.  0.
         13    1    3    3    0    0 -0.23519123396E+02 -0.79161381076E+02  0.98264550140E+03  0.98610945378E+03  0.00000000000E+00 0. -1.
          2    1    3    3  501    0  0.23519123396E+02  0.79161381076E+02 -0.93509556905E+02  0.12475460173E+03  0.00000000000E+00 0. -1.
<mgrwt>
<rscale>  0 0.66592509E+03</rscale>
<asrwt>0</asrwt>
<pdfrwt beam="1">0</pdfrwt>
<pdfrwt beam="2">  1        2 0.40314287E+00 0.66592509E+03</pdfrwt>
<totfact> 0.38711430E+00</totfact>
</mgrwt>
</event>
<event>
 5    1  0.2354746E-004  0.6634282E+03  0.7818608E-02  0.9781903E-01
         13   -1    0    0    0    0  0.00000000000E+00  0.00000000000E+00  0.10000000000E+04  0.10000000000E+04  0.00000000000E+00 0. -1.
          2   -1    0    0  501    0 -0.00000000000E+00 -0.00000000000E+00 -0.11003424909E+03  0.11003424909E+03  0.00000000000E+00 0. -1.
    9000006    2    1    2  501    0  0.00000000000E+00  0.00000000000E+00  0.88996575091E+03  0.11100342491E+04  0.66342821491E+03 0.  0.
         13    1    3    3    0    0  0.17405932134E+03 -0.23804988840E+03  0.19084766031E+03  0.35126517926E+03  0.00000000000E+00 0. -1.
          4    1    3    3  501    0 -0.17405932134E+03  0.23804988840E+03  0.69911809061E+03  0.75876906983E+03  0.00000000000E+00 0. -1.
<mgrwt>
<rscale>  0 0.66342821E+03</rscale>
<asrwt>0</asrwt>
<pdfrwt beam="1">0</pdfrwt>
<pdfrwt beam="2">  1        2 0.40012539E+00 0.66342821E+03</pdfrwt>
<totfact> 0.39743167E+00</totfact>
</mgrwt>
</event>
<event>
 5    1  0.2354746E-004  0.6532434E+03  0.7818608E-02  0.9800712E-01
         13   -1    0    0    0    0  0.00000000000E+00  0.00000000000E+00  0.10000000000E+04  0.10000000000E+04  0.00000000000E+00 0. -1.
          2   -1    0    0  501    0 -0.00000000000E+00 -0.00000000000E+00 -0.10668174693E+03  0.10668174693E+03  0.00000000000E+00 0. -1.
    9000006    2    1    2  501    0  0.00000000000E+00  0.00000000000E+00  0.89331825307E+03  0.11066817469E+04  0.65324343681E+03 0.  0.
         13    1    3    3    0    0 -0.98940364647E+02  0.16434642671E+03  0.89450940716E+03  0.91484754097E+03  0.00000000000E+00 0. -1.
          4    1    3    3  501    0  0.98940364647E+02 -0.16434642671E+03 -0.11911540906E+01  0.19183420596E+03  0.00000000000E+00 0. -1.
<mgrwt>
<rscale>  0 0.65324344E+03</rscale>
<asrwt>0</asrwt>
<pdfrwt beam="1">0</pdfrwt>
<pdfrwt beam="2">  1        2 0.38793444E+00 0.65324344E+03</pdfrwt>
<totfact> 0.44168329E+00</totfact>
</mgrwt>
</event>
<event>
 5    1  0.2354746E-004  0.6372431E+03  0.7818608E-02  0.9831015E-01
         13   -1    0    0    0    0  0.00000000000E+00  0.00000000000E+00  0.10000000000E+04  0.10000000000E+04  0.00000000000E+00 0. -1.
          2   -1    0    0  501    0 -0.00000000000E+00 -0.00000000000E+00 -0.10151970777E+03  0.10151970777E+03  0.00000000000E+00 0. -1.
    9000006    2    1    2  501    0  0.00000000000E+00  0.00000000000E+00  0.89848029223E+03  0.11015197078E+04  0.63724314912E+03 0.  0.
         13    1    3    3    0    0  0.73355660775E+01 -0.86498459659E+01  0.99965096976E+03  0.99971530533E+03  0.00000000000E+00 0. -1.
          2    1    3    3  501    0 -0.73355660775E+01  0.86498459659E+01 -0.10117067753E+03  0.10180440245E+03  0.00000000000E+00 0. -1.
<mgrwt>
<rscale>  0 0.63724315E+03</rscale>
<asrwt>0</asrwt>
<pdfrwt beam="1">0</pdfrwt>
<pdfrwt beam="2">  1        2 0.36916335E+00 0.63724315E+03</pdfrwt>
<totfact> 0.51860662E+00</totfact>
</mgrwt>
</event>
<event>
 5    1  0.2354746E-004  0.6447656E+03  0.7818608E-02  0.9816651E-01
         13   -1    0    0    0    0  0.00000000000E+00  0.00000000000E+00  0.10000000000E+04  0.10000000000E+04  0.00000000000E+00 0. -1.
          2   -1    0    0  501    0 -0.00000000000E+00 -0.00000000000E+00 -0.10393066052E+03  0.10393066052E+03  0.00000000000E+00 0. -1.
    9000006    2    1    2  501    0  0.00000000000E+00  0.00000000000E+00  0.89606933948E+03  0.11039306605E+04  0.64476557141E+03 0.  0.
         13    1    3    3    0    0 -0.31389075821E+03  0.59971238471E+02  0.52080985796E+03  0.61103753214E+03  0.00000000000E+00 0. -1.
          2    1    3    3  501    0  0.31389075821E+03 -0.59971238471E+02  0.37525948152E+03  0.49289312838E+03  0.00000000000E+00 0. -1.
<mgrwt>
<rscale>  0 0.64476557E+03</rscale>
<asrwt>0</asrwt>
<pdfrwt beam="1">0</pdfrwt>
<pdfrwt beam="2">  1        2 0.37793047E+00 0.64476557E+03</pdfrwt>
<totfact> 0.48127613E+00</totfact>
</mgrwt>
</event>
<event>
 5    1  0.2354746E-004  0.7632796E+03  0.7818608E-02  0.9614744E-01
         13   -1    0    0    0    0  0.00000000000E+00  0.00000000000E+00  0.10000000000E+04  0.10000000000E+04  0.00000000000E+00 0. -1.
          2   -1    0    0  501    0 -0.00000000000E+00 -0.00000000000E+00 -0.14564892376E+03  0.14564892376E+03  0.00000000000E+00 0. -1.
    9000006    2    1    2  501    0  0.00000000000E+00  0.00000000000E+00  0.85435107624E+03  0.11456489238E+04  0.76327956545E+03 0.  0.
         13    1    3    3    0    0 -0.32328233068E+03  0.90753807264E+02  0.69942925482E+03  0.77585372420E+03  0.00000000000E+00 0. -1.
          2    1    3    3  501    0  0.32328233068E+03 -0.90753807264E+02  0.15492182143E+03  0.36979519956E+03  0.00000000000E+00 0. -1.
<mgrwt>
<rscale>  0 0.76327957E+03</rscale>
<asrwt>0</asrwt>
<pdfrwt beam="1">0</pdfrwt>
<pdfrwt beam="2">  1        2 0.52963357E+00 0.76327957E+03</pdfrwt>
<totfact> 0.11813740E+00</totfact>
</mgrwt>
</event>
<event>
 5    1  0.2354746E-004  0.6520594E+03  0.7818608E-02  0.9802922E-01
         13   -1    0    0    0    0  0.00000000000E+00  0.00000000000E+00  0.10000000000E+04  0.10000000000E+04  0.00000000000E+00 0. -1.
          2   -1    0    0  501    0 -0.00000000000E+00 -0.00000000000E+00 -0.10629537550E+03  0.10629537550E+03  0.00000000000E+00 0. -1.
    9000006    2    1    2  501    0  0.00000000000E+00  0.00000000000E+00  0.89370462450E+03  0.11062953755E+04  0.65205943135E+03 0.  0.
         13    1    3    3    0    0 -0.22468395182E+03  0.44524420622E+01  0.46103263029E+02  0.22940839852E+03  0.00000000000E+00 0. -1.
          4    1    3    3  501    0  0.22468395182E+03 -0.44524420622E+01  0.84760136147E+03  0.87688697699E+03  0.00000000000E+00 0. -1.
<mgrwt>
<rscale>  0 0.65205943E+03</rscale>
<asrwt>0</asrwt>
<pdfrwt beam="1">0</pdfrwt>
<pdfrwt beam="2">  1        2 0.38652945E+00 0.65205943E+03</pdfrwt>
<totfact> 0.44705927E+00</totfact>
</mgrwt>
</event>
<event>
 5    1  0.2354746E-004  0.6565440E+03  0.7818608E-02  0.9794577E-01
         13   -1    0    0    0    0  0.00000000000E+00  0.00000000000E+00  0.10000000000E+04  0.10000000000E+04  0.00000000000E+00 0. -1.
          2   -1    0    0  501    0 -0.00000000000E+00 -0.00000000000E+00 -0.10776252214E+03  0.10776252214E+03  0.00000000000E+00 0. -1.
    9000006    2    1    2  501    0  0.00000000000E+00  0.00000000000E+00  0.89223747786E+03  0.11077625221E+04  0.65654404921E+03 0.  0.
         13    1    3    3    0    0 -0.27188408555E+03  0.42098259192E+02  0.14396528896E+03  0.31051445028E+03  0.00000000000E+00 0. -1.
          4    1    3    3  501    0  0.27188408555E+03 -0.42098259192E+02  0.74827218890E+03  0.79724807186E+03  0.00000000000E+00 0. -1.
<mgrwt>
<rscale>  0 0.65654405E+03</rscale>
<asrwt>0</asrwt>
<pdfrwt beam="1">0</pdfrwt>
<pdfrwt beam="2">  1        2 0.39186454E+00 0.65654405E+03</pdfrwt>
<totfact> 0.42695445E+00</totfact>
</mgrwt>
</event>
<event>
 5    1  0.2354746E-004  0.6530433E+03  0.7818608E-02  0.9801085E-01
         13   -1    0    0    0    0  0.00000000000E+00  0.00000000000E+00  0.10000000000E+04  0.10000000000E+04  0.00000000000E+00 0. -1.
          2   -1    0    0  501    0 -0.00000000000E+00 -0.00000000000E+00 -0.10661639845E+03  0.10661639845E+03  0.00000000000E+00 0. -1.
    9000006    2    1    2  501    0  0.00000000000E+00  0.00000000000E+00  0.89338360155E+03  0.11066163985E+04  0.65304333226E+03 0.  0.
         13    1    3    3    0    0 -0.16031915678E+03  0.13900489423E+03  0.26142833687E+02  0.21379438815E+03  0.00000000000E+00 0. -1.
          4    1    3    3  501    0  0.16031915678E+03 -0.13900489423E+03  0.86724076786E+03  0.89282201031E+03  0.00000000000E+00 0. -1.
<mgrwt>
<rscale>  0 0.65304333E+03</rscale>
<asrwt>0</asrwt>
<pdfrwt beam="1">0</pdfrwt>
<pdfrwt beam="2">  1        2 0.38769681E+00 0.65304333E+03</pdfrwt>
<totfact> 0.44258842E+00</totfact>
</mgrwt>
</event>
<event>
 5    1  0.2354746E-004  0.6505625E+03  0.7818608E-02  0.9805724E-01
         13   -1    0    0    0    0  0.00000000000E+00  0.00000000000E+00  0.10000000000E+04  0.10000000000E+04  0.00000000000E+00 0. -1.
          2   -1    0    0  501    0 -0.00000000000E+00 -0.00000000000E+00 -0.10580789319E+03  0.10580789319E+03  0.00000000000E+00 0. -1.
    9000006    2    1    2  501    0  0.00000000000E+00  0.00000000000E+00  0.89419210681E+03  0.11058078932E+04  0.65056250488E+03 0.  0.
         13    1    3    3    0    0 -0.17297942069E+03  0.16750784886E+03  0.75365863218E+02  0.25231086530E+03  0.00000000000E+00 0. -1.
          2    1    3    3  501    0  0.17297942069E+03 -0.16750784886E+03  0.81882624359E+03  0.85349702789E+03  0.00000000000E+00 0. -1.
<mgrwt>
<rscale>  0 0.65056250E+03</rscale>
<asrwt>0</asrwt>
<pdfrwt beam="1">0</pdfrwt>
<pdfrwt beam="2">  1        2 0.38475679E+00 0.65056250E+03</pdfrwt>
<totfact> 0.45392665E+00</totfact>
</mgrwt>
</event>
<event>
 5    1  0.2354746E-004  0.6491298E+03  0.7818608E-02  0.9808413E-01
         13   -1    0    0    0    0  0.00000000000E+00  0.00000000000E+00  0.10000000000E+04  0.10000000000E+04  0.00000000000E+00 0. -1.
          2   -1    0    0  501    0 -0.00000000000E+00 -0.00000000000E+00 -0.10534236867E+03  0.10534236867E+03  0.00000000000E+00 0. -1.
    9000006    2    1    2  501    0  0.00000000000E+00  0.00000000000E+00  0.89465763133E+03  0.11053423687E+04  0.64912978261E+03 0.  0.
         13    1    3    3    0    0 -0.21989316957E+03  0.23498387487E+03  0.37565014633E+03  0.49465488971E+03  0.00000000000E+00 0. -1.
          2    1    3    3  501    0  0.21989316957E+03 -0.23498387487E+03  0.51900748500E+03  0.61068747896E+03  0.00000000000E+00 0. -1.
<mgrwt>
<rscale>  0 0.64912978E+03</rscale>
<asrwt>0</asrwt>
<pdfrwt beam="1">0</pdfrwt>
<pdfrwt beam="2">  1        2 0.38306397E+00 0.64912978E+03</pdfrwt>
<totfact> 0.46057386E+00</totfact>
</mgrwt>
</event>
<event>
 5    1  0.2354746E-004  0.6543289E+03  0.7818608E-02  0.9798690E-01
         13   -1    0    0    0    0  0.00000000000E+00  0.00000000000E+00  0.10000000000E+04  0.10000000000E+04  0.00000000000E+00 0. -1.
          2   -1    0    0  501    0 -0.00000000000E+00 -0.00000000000E+00 -0.10703658221E+03  0.10703658221E+03  0.00000000000E+00 0. -1.
    9000006    2    1    2  501    0  0.00000000000E+00  0.00000000000E+00  0.89296341779E+03  0.11070365822E+04  0.65432891487E+03 0.  0.
         13    1    3    3    0    0 -0.64571126064E+01 -0.28042391585E+03  0.73138562343E+03  0.78332892009E+03  0.00000000000E+00 0. -1.
          4    1    3    3  501    0  0.64571126064E+01  0.28042391585E+03  0.16157779436E+03  0.32370766212E+03  0.00000000000E+00 0. -1.
<mgrwt>
<rscale>  0 0.65432891E+03</rscale>
<asrwt>0</asrwt>
<pdfrwt beam="1">0</pdfrwt>
<pdfrwt beam="2">  1        2 0.38922476E+00 0.65432891E+03</pdfrwt>
<totfact> 0.43679771E+00</totfact>
</mgrwt>
</event>
<event>
 5    1  0.2354746E-004  0.6423057E+03  0.7818608E-02  0.9821325E-01
         13   -1    0    0    0    0  0.00000000000E+00  0.00000000000E+00  0.10000000000E+04  0.10000000000E+04  0.00000000000E+00 0. -1.
          2   -1    0    0  501    0 -0.00000000000E+00 -0.00000000000E+00 -0.10313914485E+03  0.10313914485E+03  0.00000000000E+00 0. -1.
    9000006    2    1    2  501    0  0.00000000000E+00  0.00000000000E+00  0.89686085515E+03  0.11031391448E+04  0.64230567442E+03 0.  0.
         13    1    3    3    0    0  0.62685419626E+01 -0.20803734630E+03  0.86849192550E+03  0.89308289466E+03  0.00000000000E+00 0. -1.
          2    1    3    3  501    0 -0.62685419626E+01  0.20803734630E+03  0.28368929650E+02  0.21005625019E+03  0.00000000000E+00 0. -1.
<mgrwt>
<rscale>  0 0.64230567E+03</rscale>
<asrwt>0</asrwt>
<pdfrwt beam="1">0</pdfrwt>
<pdfrwt beam="2">  1        2 0.37505223E+00 0.64230567E+03</pdfrwt>
<totfact> 0.49325109E+00</totfact>
</mgrwt>
</event>
<event>
 5    1  0.2354746E-004  0.6539210E+03  0.7818608E-02  0.9799449E-01
         13   -1    0    0    0    0  0.00000000000E+00  0.00000000000E+00  0.10000000000E+04  0.10000000000E+04  0.00000000000E+00 0. -1.
          2   -1    0    0  501    0 -0.00000000000E+00 -0.00000000000E+00 -0.10690315376E+03  0.10690315376E+03  0.00000000000E+00 0. -1.
    9000006    2    1    2  501    0  0.00000000000E+00  0.00000000000E+00  0.89309684624E+03  0.11069031538E+04  0.65392095475E+03 0.  0.
         13    1    3    3    0    0  0.67901139703E+02  0.23852742351E+03  0.85887427057E+02  0.26245484691E+03  0.00000000000E+00 0. -1.
          4    1    3    3  501    0 -0.67901139703E+02 -0.23852742351E+03  0.80720941918E+03  0.84444830685E+03  0.00000000000E+00 0. -1.
<mgrwt>
<rscale>  0 0.65392095E+03</rscale>
<asrwt>0</asrwt>
<pdfrwt beam="1">0</pdfrwt>
<pdfrwt beam="2">  1        2 0.38873956E+00 0.65392095E+03</pdfrwt>
<totfact> 0.43862907E+00</totfact>
</mgrwt>
</event>
<event>
 5    1  0.2354746E-004  0.6503737E+03  0.7818608E-02  0.9806078E-01
         13   -1    0    0    0    0  0.00000000000E+00  0.00000000000E+00  0.10000000000E+04  0.10000000000E+04  0.00000000000E+00 0. -1.
          2   -1    0    0  501    0 -0.00000000000E+00 -0.00000000000E+00 -0.10574647676E+03  0.10574647676E+03  0.00000000000E+00 0. -1.
    9000006    2    1    2  501    0  0.00000000000E+00  0.00000000000E+00  0.89425352324E+03  0.11057464768E+04  0.65037366725E+03 0.  0.
         13    1    3    3    0    0 -0.19681538079E+03  0.39385768152E+02  0.12138925661E+02  0.20108427677E+03  0.00000000000E+00 0. -1.
          2    1    3    3  501    0  0.19681538079E+03 -0.39385768152E+02  0.88211459757E+03  0.90466220000E+03  0.00000000000E+00 0. -1.
<mgrwt>
<rscale>  0 0.65037367E+03</rscale>
<asrwt>0</asrwt>
<pdfrwt beam="1">0</pdfrwt>
<pdfrwt beam="2">  1        2 0.38453345E+00 0.65037367E+03</pdfrwt>
<totfact> 0.45479860E+00</totfact>
</mgrwt>
</event>
<event>
 5    1  0.2354746E-004  0.6504039E+03  0.7818608E-02  0.9806022E-01
         13   -1    0    0    0    0  0.00000000000E+00  0.00000000000E+00  0.10000000000E+04  0.10000000000E+04  0.00000000000E+00 0. -1.
          2   -1    0    0  501    0 -0.00000000000E+00 -0.00000000000E+00 -0.10575629415E+03  0.10575629415E+03  0.00000000000E+00 0. -1.
    9000006    2    1    2  501    0  0.00000000000E+00  0.00000000000E+00  0.89424370585E+03  0.11057562942E+04  0.65040385654E+03 0.  0.
         13    1    3    3    0    0 -0.10195974617E+03 -0.30876709581E+03  0.43890049309E+03  0.54622939516E+03  0.00000000000E+00 0. -1.
          4    1    3    3  501    0  0.10195974617E+03  0.30876709581E+03  0.45534321276E+03  0.55952689899E+03  0.00000000000E+00 0. -1.
<mgrwt>
<rscale>  0 0.65040386E+03</rscale>
<asrwt>0</asrwt>
<pdfrwt beam="1">0</pdfrwt>
<pdfrwt beam="2">  1        2 0.38456915E+00 0.65040386E+03</pdfrwt>
<totfact> 0.45465912E+00</totfact>
</mgrwt>
</event>
<event>
 5    1  0.2354746E-004  0.6591280E+03  0.7818608E-02  0.9789800E-01
         13   -1    0    0    0    0  0.00000000000E+00  0.00000000000E+00  0.10000000000E+04  0.10000000000E+04  0.00000000000E+00 0. -1.
          2   -1    0    0  501    0 -0.00000000000E+00 -0.00000000000E+00 -0.10861244087E+03  0.10861244087E+03  0.00000000000E+00 0. -1.
    9000006    2    1    2  501    0  0.00000000000E+00  0.00000000000E+00  0.89138755913E+03  0.11086124409E+04  0.65912803269E+03 0.  0.
         13    1    3    3    0    0  0.14532472993E+03  0.12604700379E+02 -0.51358821254E+02  0.15464761273E+03  0.00000000000E+00 0. -1.
          4    1    3    3  501    0 -0.14532472993E+03 -0.12604700379E+02  0.94274638038E+03  0.95396482814E+03  0.00000000000E+00 0. -1.
<mgrwt>
<rscale>  0 0.65912803E+03</rscale>
<asrwt>0</asrwt>
<pdfrwt beam="1">0</pdfrwt>
<pdfrwt beam="2">  1        2 0.39495516E+00 0.65912803E+03</pdfrwt>
<totfact> 0.41568517E+00</totfact>
</mgrwt>
</event>
<event>
 5    1  0.2354746E-004  0.6415552E+03  0.7818608E-02  0.9822755E-01
         13   -1    0    0    0    0  0.00000000000E+00  0.00000000000E+00  0.10000000000E+04  0.10000000000E+04  0.00000000000E+00 0. -1.
          2   -1    0    0  501    0 -0.00000000000E+00 -0.00000000000E+00 -0.10289828061E+03  0.10289828061E+03  0.00000000000E+00 0. -1.
    9000006    2    1    2  501    0  0.00000000000E+00  0.00000000000E+00  0.89710171939E+03  0.11028982806E+04  0.64155523724E+03 0.  0.
         13    1    3    3    0    0 -0.11470684426E+03  0.26998410261E+03  0.67169788919E+03  0.73295779560E+03  0.00000000000E+00 0. -1.
          2    1    3    3  501    0  0.11470684426E+03 -0.26998410261E+03  0.22540383020E+03  0.36994048501E+03  0.00000000000E+00 0. -1.
<mgrwt>
<rscale>  0 0.64155524E+03</rscale>
<asrwt>0</asrwt>
<pdfrwt beam="1">0</pdfrwt>
<pdfrwt beam="2">  1        2 0.37417635E+00 0.64155524E+03</pdfrwt>
<totfact> 0.49694905E+00</totfact>
</mgrwt>
</event>
<event>
 5    1  0.2354746E-004  0.6280845E+03  0.7818608E-02  0.9848794E-01
         13   -1    0    0    0    0  0.00000000000E+00  0.00000000000E+00  0.10000000000E+04  0.10000000000E+04  0.00000000000E+00 0. -1.
          2   -1    0    0  501    0 -0.00000000000E+00 -0.00000000000E+00 -0.98622524209E+02  0.98622524209E+02  0.00000000000E+00 0. -1.
    9000006    2    1    2  501    0  0.00000000000E+00  0.00000000000E+00  0.90137747579E+03  0.10986225242E+04  0.62808446632E+03 0.  0.
         13    1    3    3    0    0 -0.59953859072E+02  0.15521675146E+03  0.91655712379E+03  0.93153833326E+03  0.00000000000E+00 0. -1.
          4    1    3    3  501    0  0.59953859072E+02 -0.15521675146E+03 -0.15179648001E+02  0.16708419095E+03  0.00000000000E+00 0. -1.
<mgrwt>
<rscale>  0 0.62808447E+03</rscale>
<asrwt>0</asrwt>
<pdfrwt beam="1">0</pdfrwt>
<pdfrwt beam="2">  1        2 0.35862812E+00 0.62808447E+03</pdfrwt>
<totfact> 0.56697461E+00</totfact>
</mgrwt>
</event>
<event>
 5    1  0.2354746E-004  0.6498394E+03  0.7818608E-02  0.9807081E-01
         13   -1    0    0    0    0  0.00000000000E+00  0.00000000000E+00  0.10000000000E+04  0.10000000000E+04  0.00000000000E+00 0. -1.
          2   -1    0    0  501    0 -0.00000000000E+00 -0.00000000000E+00 -0.10557281363E+03  0.10557281363E+03  0.00000000000E+00 0. -1.
    9000006    2    1    2  501    0  0.00000000000E+00  0.00000000000E+00  0.89442718637E+03  0.11055728136E+04  0.64983940671E+03 0.  0.
         13    1    3    3    0    0  0.21307032204E+03 -0.23555188409E+03  0.56371439051E+03  0.64703753083E+03  0.00000000000E+00 0. -1.
          4    1    3    3  501    0 -0.21307032204E+03  0.23555188409E+03  0.33071279586E+03  0.45853528280E+03  0.00000000000E+00 0. -1.
<mgrwt>
<rscale>  0 0.64983941E+03</rscale>
<asrwt>0</asrwt>
<pdfrwt beam="1">0</pdfrwt>
<pdfrwt beam="2">  1        2 0.38390195E+00 0.64983941E+03</pdfrwt>
<totfact> 0.45727239E+00</totfact>
</mgrwt>
</event>
<event>
 5    1  0.2354746E-004  0.6461124E+03  0.7818608E-02  0.9814101E-01
         13   -1    0    0    0    0  0.00000000000E+00  0.00000000000E+00  0.10000000000E+04  0.10000000000E+04  0.00000000000E+00 0. -1.
          2   -1    0    0  501    0 -0.00000000000E+00 -0.00000000000E+00 -0.10436532381E+03  0.10436532381E+03  0.00000000000E+00 0. -1.
    9000006    2    1    2  501    0  0.00000000000E+00  0.00000000000E+00  0.89563467619E+03  0.11043653238E+04  0.64611244783E+03 0.  0.
         13    1    3    3    0    0 -0.40403618008E+02 -0.27657460843E+03  0.17094392695E+03  0.32763972979E+03  0.00000000000E+00 0. -1.
          2    1    3    3  501    0  0.40403618008E+02  0.27657460843E+03  0.72469074924E+03  0.77672559402E+03  0.00000000000E+00 0. -1.
<mgrwt>
<rscale>  0 0.64611245E+03</rscale>
<asrwt>0</asrwt>
<pdfrwt beam="1">0</pdfrwt>
<pdfrwt beam="2">  1        2 0.37951107E+00 0.64611245E+03</pdfrwt>
<totfact> 0.47481347E+00</totfact>
</mgrwt>
</event>
<event>
 5    1  0.2354746E-004  0.6417297E+03  0.7818608E-02  0.9822423E-01
         13   -1    0    0    0    0  0.00000000000E+00  0.00000000000E+00  0.10000000000E+04  0.10000000000E+04  0.00000000000E+00 0. -1.
          2   -1    0    0  501    0 -0.00000000000E+00 -0.00000000000E+00 -0.10295424589E+03  0.10295424589E+03  0.00000000000E+00 0. -1.
    9000006    2    1    2  501    0  0.00000000000E+00  0.00000000000E+00  0.89704575411E+03  0.11029542459E+04  0.64172968107E+03 0.  0.
         13    1    3    3    0    0  0.27045829676E+03  0.15182274224E+03  0.58979724918E+03  0.66637724338E+03  0.00000000000E+00 0. -1.
          2    1    3    3  501    0 -0.27045829676E+03 -0.15182274224E+03  0.30724850493E+03  0.43657700252E+03  0.00000000000E+00 0. -1.
<mgrwt>
<rscale>  0 0.64172968E+03</rscale>
<asrwt>0</asrwt>
<pdfrwt beam="1">0</pdfrwt>
<pdfrwt beam="2">  1        2 0.37437987E+00 0.64172968E+03</pdfrwt>
<totfact> 0.49608757E+00</totfact>
</mgrwt>
</event>
<event>
 5    1  0.2354746E-004  0.6988883E+03  0.7818608E-02  0.9719135E-01
         13   -1    0    0    0    0  0.00000000000E+00  0.00000000000E+00  0.10000000000E+04  0.10000000000E+04  0.00000000000E+00 0. -1.
          2   -1    0    0  501    0 -0.00000000000E+00 -0.00000000000E+00 -0.12211120651E+03  0.12211120651E+03  0.00000000000E+00 0. -1.
    9000006    2    1    2  501    0  0.00000000000E+00  0.00000000000E+00  0.87788879349E+03  0.11221112065E+04  0.69888827866E+03 0.  0.
         13    1    3    3    0    0  0.80301203253E+02  0.38900305475E+02  0.98140163696E+03  0.98544948629E+03  0.00000000000E+00 0. -1.
          2    1    3    3  501    0 -0.80301203253E+02 -0.38900305475E+02 -0.10351284347E+03  0.13666172022E+03  0.00000000000E+00 0. -1.
<mgrwt>
<rscale>  0 0.69888828E+03</rscale>
<asrwt>0</asrwt>
<pdfrwt beam="1">0</pdfrwt>
<pdfrwt beam="2">  1        2 0.44404169E+00 0.69888828E+03</pdfrwt>
<totfact> 0.26893997E+00</totfact>
</mgrwt>
</event>
<event>
 5    1  0.2354746E-004  0.6500496E+03  0.7818608E-02  0.9806686E-01
         13   -1    0    0    0    0  0.00000000000E+00  0.00000000000E+00  0.10000000000E+04  0.10000000000E+04  0.00000000000E+00 0. -1.
          2   -1    0    0  501    0 -0.00000000000E+00 -0.00000000000E+00 -0.10564113333E+03  0.10564113333E+03  0.00000000000E+00 0. -1.
    9000006    2    1    2  501    0  0.00000000000E+00  0.00000000000E+00  0.89435886667E+03  0.11056411333E+04  0.65004963911E+03 0.  0.
         13    1    3    3    0    0  0.31157423552E+03  0.72133651930E+02  0.54576112922E+03  0.63256381350E+03  0.00000000000E+00 0. -1.
          4    1    3    3  501    0 -0.31157423552E+03 -0.72133651930E+02  0.34859773746E+03  0.47307731983E+03  0.00000000000E+00 0. -1.
<mgrwt>
<rscale>  0 0.65004964E+03</rscale>
<asrwt>0</asrwt>
<pdfrwt beam="1">0</pdfrwt>
<pdfrwt beam="2">  1        2 0.38415039E+00 0.65004964E+03</pdfrwt>
<totfact> 0.45629774E+00</totfact>
</mgrwt>
</event>
<event>
 5    1  0.2354746E-004  0.6496957E+03  0.7818608E-02  0.9807350E-01
         13   -1    0    0    0    0  0.00000000000E+00  0.00000000000E+00  0.10000000000E+04  0.10000000000E+04  0.00000000000E+00 0. -1.
          2   -1    0    0  501    0 -0.00000000000E+00 -0.00000000000E+00 -0.10552611842E+03  0.10552611842E+03  0.00000000000E+00 0. -1.
    9000006    2    1    2  501    0  0.00000000000E+00  0.00000000000E+00  0.89447388158E+03  0.11055261184E+04  0.64969567773E+03 0.  0.
         13    1    3    3    0    0 -0.16221106510E+03  0.28144926346E+03  0.44728723540E+03  0.55280375224E+03  0.00000000000E+00 0. -1.
          4    1    3    3  501    0  0.16221106510E+03 -0.28144926346E+03  0.44718664618E+03  0.55272236617E+03  0.00000000000E+00 0. -1.
<mgrwt>
<rscale>  0 0.64969568E+03</rscale>
<asrwt>0</asrwt>
<pdfrwt beam="1">0</pdfrwt>
<pdfrwt beam="2">  1        2 0.38373215E+00 0.64969568E+03</pdfrwt>
<totfact> 0.45793963E+00</totfact>
</mgrwt>
</event>
<event>
 5    1  0.2354746E-004  0.6486115E+03  0.7818608E-02  0.9809388E-01
         13   -1    0    0    0    0  0.00000000000E+00  0.00000000000E+00  0.10000000000E+04  0.10000000000E+04  0.00000000000E+00 0. -1.
          2   -1    0    0  501    0 -0.00000000000E+00 -0.00000000000E+00 -0.10517422257E+03  0.10517422257E+03  0.00000000000E+00 0. -1.
    9000006    2    1    2  501    0  0.00000000000E+00  0.00000000000E+00  0.89482577743E+03  0.11051742226E+04  0.64861150953E+03 0.  0.
         13    1    3    3    0    0 -0.12692982309E+03  0.25891178019E+03  0.19452327424E+03  0.34783012252E+03  0.00000000000E+00 0. -1.
          2    1    3    3  501    0  0.12692982309E+03 -0.25891178019E+03  0.70030250319E+03  0.75734410005E+03  0.00000000000E+00 0. -1.
<mgrwt>
<rscale>  0 0.64861151E+03</rscale>
<asrwt>0</asrwt>
<pdfrwt beam="1">0</pdfrwt>
<pdfrwt beam="2">  1        2 0.38245252E+00 0.64861151E+03</pdfrwt>
<totfact> 0.46299645E+00</totfact>
</mgrwt>
</event>
<event>
 5    1  0.2354746E-004  0.6397061E+03  0.7818608E-02  0.9826289E-01
         13   -1    0    0    0    0  0.00000000000E+00  0.00000000000E+00  0.10000000000E+04  0.10000000000E+04  0.00000000000E+00 0. -1.
          2   -1    0    0  501    0 -0.00000000000E+00 -0.00000000000E+00 -0.10230598017E+03  0.10230598017E+03  0.00000000000E+00 0. -1.
    9000006    2    1    2  501    0  0.00000000000E+00  0.00000000000E+00  0.89769401983E+03  0.11023059802E+04  0.63970612057E+03 0.  0.
         13    1    3    3    0    0 -0.16873967655E+03  0.27170558074E+03  0.44368357589E+03  0.54694800170E+03  0.00000000000E+00 0. -1.
          4    1    3    3  501    0  0.16873967655E+03 -0.27170558074E+03  0.45401044394E+03  0.55535797848E+03  0.00000000000E+00 0. -1.
<mgrwt>
<rscale>  0 0.63970612E+03</rscale>
<asrwt>0</asrwt>
<pdfrwt beam="1">0</pdfrwt>
<pdfrwt beam="2">  1        2 0.37202253E+00 0.63970612E+03</pdfrwt>
<totfact> 0.50615064E+00</totfact>
</mgrwt>
</event>
<event>
 5    1  0.2354746E-004  0.6504439E+03  0.7818608E-02  0.9805947E-01
         13   -1    0    0    0    0  0.00000000000E+00  0.00000000000E+00  0.10000000000E+04  0.10000000000E+04  0.00000000000E+00 0. -1.
          2   -1    0    0  501    0 -0.00000000000E+00 -0.00000000000E+00 -0.10576930771E+03  0.10576930771E+03  0.00000000000E+00 0. -1.
    9000006    2    1    2  501    0  0.00000000000E+00  0.00000000000E+00  0.89423069229E+03  0.11057693077E+04  0.65044387216E+03 0.  0.
         13    1    3    3    0    0 -0.43489782014E+02 -0.13109376752E+03 -0.53431978386E+02  0.14809427179E+03  0.00000000000E+00 0. -1.
          2    1    3    3  501    0  0.43489782014E+02  0.13109376752E+03  0.94766267068E+03  0.95767503592E+03  0.00000000000E+00 0. -1.
<mgrwt>
<rscale>  0 0.65044387E+03</rscale>
<asrwt>0</asrwt>
<pdfrwt beam="1">0</pdfrwt>
<pdfrwt beam="2">  1        2 0.38461648E+00 0.65044387E+03</pdfrwt>
<totfact> 0.45447428E+00</totfact>
</mgrwt>
</event>
<event>
 5    1  0.2354746E-004  0.5928312E+03  0.7818608E-02  0.9920392E-01
         13   -1    0    0    0    0  0.00000000000E+00  0.00000000000E+00  0.10000000000E+04  0.10000000000E+04  0.00000000000E+00 0. -1.
          2   -1    0    0  501    0 -0.00000000000E+00 -0.00000000000E+00 -0.87862207154E+02  0.87862207154E+02  0.00000000000E+00 0. -1.
    9000006    2    1    2  501    0  0.00000000000E+00  0.00000000000E+00  0.91213779285E+03  0.10878622072E+04  0.59283119740E+03 0.  0.
         13    1    3    3    0    0 -0.19828994305E+03  0.21863414921E+03  0.50606844050E+03  0.58585412790E+03  0.00000000000E+00 0. -1.
          4    1    3    3  501    0  0.19828994305E+03 -0.21863414921E+03  0.40606935235E+03  0.50200807925E+03  0.00000000000E+00 0. -1.
<mgrwt>
<rscale>  0 0.59283120E+03</rscale>
<asrwt>0</asrwt>
<pdfrwt beam="1">0</pdfrwt>
<pdfrwt beam="2">  1        2 0.31949961E+00 0.59283120E+03</pdfrwt>
<totfact> 0.78597753E+00</totfact>
</mgrwt>
</event>
<event>
 5    1  0.2354746E-004  0.6547968E+03  0.7818608E-02  0.9797820E-01
         13   -1    0    0    0    0  0.00000000000E+00  0.00000000000E+00  0.10000000000E+04  0.10000000000E+04  0.00000000000E+00 0. -1.
          2   -1    0    0  501    0 -0.00000000000E+00 -0.00000000000E+00 -0.10718970118E+03  0.10718970118E+03  0.00000000000E+00 0. -1.
    9000006    2    1    2  501    0  0.00000000000E+00  0.00000000000E+00  0.89281029882E+03  0.11071897012E+04  0.65479676596E+03 0.  0.
         13    1    3    3    0    0  0.24761344736E+03  0.13755055002E+03  0.16878414414E+03  0.32972816143E+03  0.00000000000E+00 0. -1.
          2    1    3    3  501    0 -0.24761344736E+03 -0.13755055002E+03  0.72402615468E+03  0.77746153975E+03  0.00000000000E+00 0. -1.
<mgrwt>
<rscale>  0 0.65479677E+03</rscale>
<asrwt>0</asrwt>
<pdfrwt beam="1">0</pdfrwt>
<pdfrwt beam="2">  1        2 0.38978155E+00 0.65479677E+03</pdfrwt>
<totfact> 0.43470462E+00</totfact>
</mgrwt>
</event>
<event>
 5    1  0.2354746E-004  0.6536639E+03  0.7818608E-02  0.9799928E-01
         13   -1    0    0    0    0  0.00000000000E+00  0.00000000000E+00  0.10000000000E+04  0.10000000000E+04  0.00000000000E+00 0. -1.
          2   -1    0    0  501    0 -0.00000000000E+00 -0.00000000000E+00 -0.10681912239E+03  0.10681912239E+03  0.00000000000E+00 0. -1.
    9000006    2    1    2  501    0  0.00000000000E+00  0.00000000000E+00  0.89318087761E+03  0.11068191224E+04  0.65366389647E+03 0.  0.
         13    1    3    3    0    0  0.10736771932E+03 -0.33208536160E+02  0.96625256849E+03  0.97276649826E+03  0.00000000000E+00 0. -1.
          2    1    3    3  501    0 -0.10736771932E+03  0.33208536160E+02 -0.73071690877E+02  0.13405262412E+03  0.00000000000E+00 0. -1.
<mgrwt>
<rscale>  0 0.65366390E+03</rscale>
<asrwt>0</asrwt>
<pdfrwt beam="1">0</pdfrwt>
<pdfrwt beam="2">  1        2 0.38843399E+00 0.65366390E+03</pdfrwt>
<totfact> 0.43978599E+00</totfact>
</mgrwt>
</event>
<event>
 5    1  0.2354746E-004  0.6471029E+03  0.7818608E-02  0.9812231E-01
         13   -1    0    0    0    0  0.00000000000E+00  0.00000000000E+00  0.10000000000E+04  0.10000000000E+04  0.00000000000E+00 0. -1.
          2   -1    0    0  501    0 -0.00000000000E+00 -0.00000000000E+00 -0.10468553080E+03  0.10468553080E+03  0.00000000000E+00 0. -1.
    9000006    2    1    2  501    0  0.00000000000E+00  0.00000000000E+00  0.89531446920E+03  0.11046855308E+04  0.64710286911E+03 0.  0.
         13    1    3    3    0    0 -0.14675116935E+02  0.22443359799E+03  0.50591055768E+02  0.23053254410E+03  0.00000000000E+00 0. -1.
          4    1    3    3  501    0  0.14675116935E+02 -0.22443359799E+03  0.84472341343E+03  0.87415298670E+03  0.00000000000E+00 0. -1.
<mgrwt>
<rscale>  0 0.64710287E+03</rscale>
<asrwt>0</asrwt>
<pdfrwt beam="1">0</pdfrwt>
<pdfrwt beam="2">  1        2 0.38067546E+00 0.64710287E+03</pdfrwt>
<totfact> 0.47010323E+00</totfact>
</mgrwt>
</event>
<event>
 5    1  0.2354746E-004  0.6717198E+03  0.7818608E-02  0.9766856E-01
         13   -1    0    0    0    0  0.00000000000E+00  0.00000000000E+00  0.10000000000E+04  0.10000000000E+04  0.00000000000E+00 0. -1.
          2   -1    0    0  501    0 -0.00000000000E+00 -0.00000000000E+00 -0.11280187473E+03  0.11280187473E+03  0.00000000000E+00 0. -1.
    9000006    2    1    2  501    0  0.00000000000E+00  0.00000000000E+00  0.88719812527E+03  0.11128018747E+04  0.67171980687E+03 0.  0.
         13    1    3    3    0    0 -0.18877528711E+03 -0.27745180141E+03  0.46620870521E+03  0.57442681687E+03  0.00000000000E+00 0. -1.
          4    1    3    3  501    0  0.18877528711E+03  0.27745180141E+03  0.42098942006E+03  0.53837505787E+03  0.00000000000E+00 0. -1.
<mgrwt>
<rscale>  0 0.67171981E+03</rscale>
<asrwt>0</asrwt>
<pdfrwt beam="1">0</pdfrwt>
<pdfrwt beam="2">  1        2 0.41018950E+00 0.67171981E+03</pdfrwt>
<totfact> 0.36394835E+00</totfact>
</mgrwt>
</event>
<event>
 5    1  0.2354746E-004  0.6455248E+03  0.7818608E-02  0.9815213E-01
         13   -1    0    0    0    0  0.00000000000E+00  0.00000000000E+00  0.10000000000E+04  0.10000000000E+04  0.00000000000E+00 0. -1.
          2   -1    0    0  501    0 -0.00000000000E+00 -0.00000000000E+00 -0.10417555876E+03  0.10417555876E+03  0.00000000000E+00 0. -1.
    9000006    2    1    2  501    0  0.00000000000E+00  0.00000000000E+00  0.89582444124E+03  0.11041755588E+04  0.64552477494E+03 0.  0.
         13    1    3    3    0    0 -0.19379309727E+00 -0.17746955861E+03  0.90905233616E+03  0.92621359937E+03  0.00000000000E+00 0. -1.
          2    1    3    3  501    0  0.19379309727E+00  0.17746955861E+03 -0.13227894919E+02  0.17796195939E+03  0.00000000000E+00 0. -1.
<mgrwt>
<rscale>  0 0.64552477E+03</rscale>
<asrwt>0</asrwt>
<pdfrwt beam="1">0</pdfrwt>
<pdfrwt beam="2">  1        2 0.37882101E+00 0.64552477E+03</pdfrwt>
<totfact> 0.47762515E+00</totfact>
</mgrwt>
</event>
<event>
 5    1  0.2354746E-004  0.6501564E+03  0.7818608E-02  0.9806486E-01
         13   -1    0    0    0    0  0.00000000000E+00  0.00000000000E+00  0.10000000000E+04  0.10000000000E+04  0.00000000000E+00 0. -1.
          2   -1    0    0  501    0 -0.00000000000E+00 -0.00000000000E+00 -0.10567583629E+03  0.10567583629E+03  0.00000000000E+00 0. -1.
    9000006    2    1    2  501    0  0.00000000000E+00  0.00000000000E+00  0.89432416371E+03  0.11056758363E+04  0.65015640055E+03 0.  0.
         13    1    3    3    0    0 -0.95809951452E+02  0.98943141273E+02 -0.53605164174E+02  0.14779311766E+03  0.00000000000E+00 0. -1.
          4    1    3    3  501    0  0.95809951452E+02 -0.98943141273E+02  0.94792932788E+03  0.95788271863E+03  0.00000000000E+00 0. -1.
<mgrwt>
<rscale>  0 0.65015640E+03</rscale>
<asrwt>0</asrwt>
<pdfrwt beam="1">0</pdfrwt>
<pdfrwt beam="2">  1        2 0.38427658E+00 0.65015640E+03</pdfrwt>
<totfact> 0.45580339E+00</totfact>
</mgrwt>
</event>
<event>
 5    1  0.2354746E-004  0.6576778E+03  0.7818608E-02  0.9792478E-01
         13   -1    0    0    0    0  0.00000000000E+00  0.00000000000E+00  0.10000000000E+04  0.10000000000E+04  0.00000000000E+00 0. -1.
          2   -1    0    0  501    0 -0.00000000000E+00 -0.00000000000E+00 -0.10813503444E+03  0.10813503444E+03  0.00000000000E+00 0. -1.
    9000006    2    1    2  501    0  0.00000000000E+00  0.00000000000E+00  0.89186496556E+03  0.11081350344E+04  0.65767783737E+03 0.  0.
         13    1    3    3    0    0  0.19642666359E+03 -0.77378649589E+02  0.87073353407E+03  0.89596192828E+03  0.00000000000E+00 0. -1.
          4    1    3    3  501    0 -0.19642666359E+03  0.77378649589E+02  0.21131431489E+02  0.21217310616E+03  0.00000000000E+00 0. -1.
<mgrwt>
<rscale>  0 0.65767784E+03</rscale>
<asrwt>0</asrwt>
<pdfrwt beam="1">0</pdfrwt>
<pdfrwt beam="2">  1        2 0.39321914E+00 0.65767784E+03</pdfrwt>
<totfact> 0.42198159E+00</totfact>
</mgrwt>
</event>
<event>
 5    1  0.2354746E-004  0.6521974E+03  0.7818608E-02  0.9802665E-01
         13   -1    0    0    0    0  0.00000000000E+00  0.00000000000E+00  0.10000000000E+04  0.10000000000E+04  0.00000000000E+00 0. -1.
          2   -1    0    0  501    0 -0.00000000000E+00 -0.00000000000E+00 -0.10634037012E+03  0.10634037012E+03  0.00000000000E+00 0. -1.
    9000006    2    1    2  501    0  0.00000000000E+00  0.00000000000E+00  0.89365962988E+03  0.11063403701E+04  0.65219742447E+03 0.  0.
         13    1    3    3    0    0  0.27522397265E+03  0.16417096515E+03  0.34448587911E+03  0.47050065018E+03  0.00000000000E+00 0. -1.
          4    1    3    3  501    0 -0.27522397265E+03 -0.16417096515E+03  0.54917375077E+03  0.63583971994E+03  0.00000000000E+00 0. -1.
<mgrwt>
<rscale>  0 0.65219742E+03</rscale>
<asrwt>0</asrwt>
<pdfrwt beam="1">0</pdfrwt>
<pdfrwt beam="2">  1        2 0.38669307E+00 0.65219742E+03</pdfrwt>
<totfact> 0.44643018E+00</totfact>
</mgrwt>
</event>
<event>
 5    1  0.2354746E-004  0.6419555E+03  0.7818608E-02  0.9821992E-01
         13   -1    0    0    0    0  0.00000000000E+00  0.00000000000E+00  0.10000000000E+04  0.10000000000E+04  0.00000000000E+00 0. -1.
          2   -1    0    0  501    0 -0.00000000000E+00 -0.00000000000E+00 -0.10302670925E+03  0.10302670925E+03  0.00000000000E+00 0. -1.
    9000006    2    1    2  501    0  0.00000000000E+00  0.00000000000E+00  0.89697329075E+03  0.11030267093E+04  0.64195547900E+03 0.  0.
         13    1    3    3    0    0  0.25645039626E+03 -0.75465809735E+02  0.75375567318E+03  0.79975590591E+03  0.00000000000E+00 0. -1.
          4    1    3    3  501    0 -0.25645039626E+03  0.75465809735E+02  0.14321761756E+03  0.30327080335E+03  0.00000000000E+00 0. -1.
<mgrwt>
<rscale>  0 0.64195548E+03</rscale>
<asrwt>0</asrwt>
<pdfrwt beam="1">0</pdfrwt>
<pdfrwt beam="2">  1        2 0.37464337E+00 0.64195548E+03</pdfrwt>
<totfact> 0.49497416E+00</totfact>
</mgrwt>
</event>
<event>
 5    1  0.2354746E-004  0.6636020E+03  0.7818608E-02  0.9781586E-01
         13   -1    0    0    0    0  0.00000000000E+00  0.00000000000E+00  0.10000000000E+04  0.10000000000E+04  0.00000000000E+00 0. -1.
          2   -1    0    0  501    0 -0.00000000000E+00 -0.00000000000E+00 -0.11009188787E+03  0.11009188787E+03  0.00000000000E+00 0. -1.
    9000006    2    1    2  501    0  0.00000000000E+00  0.00000000000E+00  0.88990811213E+03  0.11100918879E+04  0.66360195258E+03 0.  0.
         13    1    3    3    0    0  0.16832152531E+03 -0.16208377744E+03  0.50902395728E+02  0.23915338318E+03  0.00000000000E+00 0. -1.
          4    1    3    3  501    0 -0.16832152531E+03  0.16208377744E+03  0.83900571640E+03  0.87093850469E+03  0.00000000000E+00 0. -1.
<mgrwt>
<rscale>  0 0.66360195E+03</rscale>
<asrwt>0</asrwt>
<pdfrwt beam="1">0</pdfrwt>
<pdfrwt beam="2">  1        2 0.40033498E+00 0.66360195E+03</pdfrwt>
<totfact> 0.39670712E+00</totfact>
</mgrwt>
</event>
<event>
 5    1  0.2354746E-004  0.6468920E+03  0.7818608E-02  0.9812629E-01
         13   -1    0    0    0    0  0.00000000000E+00  0.00000000000E+00  0.10000000000E+04  0.10000000000E+04  0.00000000000E+00 0. -1.
          2   -1    0    0  501    0 -0.00000000000E+00 -0.00000000000E+00 -0.10461730992E+03  0.10461730992E+03  0.00000000000E+00 0. -1.
    9000006    2    1    2  501    0  0.00000000000E+00  0.00000000000E+00  0.89538269008E+03  0.11046173099E+04  0.64689198456E+03 0.  0.
         13    1    3    3    0    0  0.30565163494E+03  0.19120128305E+02  0.62538438400E+03  0.69634339876E+03  0.00000000000E+00 0. -1.
          2    1    3    3  501    0 -0.30565163494E+03 -0.19120128305E+02  0.26999830608E+03  0.40827391116E+03  0.00000000000E+00 0. -1.
<mgrwt>
<rscale>  0 0.64689198E+03</rscale>
<asrwt>0</asrwt>
<pdfrwt beam="1">0</pdfrwt>
<pdfrwt beam="2">  1        2 0.38042738E+00 0.64689198E+03</pdfrwt>
<totfact> 0.47110318E+00</totfact>
</mgrwt>
</event>
<event>
 5    1  0.2354746E-004  0.6653987E+03  0.7818608E-02  0.9778306E-01
         13   -1    0    0    0    0  0.00000000000E+00  0.00000000000E+00  0.10000000000E+04  0.10000000000E+04  0.00000000000E+00 0. -1.
          2   -1    0    0  501    0 -0.00000000000E+00 -0.00000000000E+00 -0.11068885097E+03  0.11068885097E+03  0.00000000000E+00 0. -1.
    9000006    2    1    2  501    0  0.00000000000E+00  0.00000000000E+00  0.88931114903E+03  0.11106888510E+04  0.66539868040E+03 0.  0.
         13    1    3    3    0    0 -0.14305781818E+03 -0.68136053838E+02 -0.43657803200E+02  0.16435955997E+03  0.00000000000E+00 0. -1.
          2    1    3    3  501    0  0.14305781818E+03  0.68136053838E+02  0.93296895223E+03  0.94632929100E+03  0.00000000000E+00 0. -1.
<mgrwt>
<rscale>  0 0.66539868E+03</rscale>
<asrwt>0</asrwt>
<pdfrwt beam="1">0</pdfrwt>
<pdfrwt beam="2">  1        2 0.40250576E+00 0.66539868E+03</pdfrwt>
<totfact> 0.38927247E+00</totfact>
</mgrwt>
</event>
<event>
 5    1  0.2354746E-004  0.6459585E+03  0.7818608E-02  0.9814392E-01
         13   -1    0    0    0    0  0.00000000000E+00  0.00000000000E+00  0.10000000000E+04  0.10000000000E+04  0.00000000000E+00 0. -1.
          2   -1    0    0  501    0 -0.00000000000E+00 -0.00000000000E+00 -0.10431561008E+03  0.10431561008E+03  0.00000000000E+00 0. -1.
    9000006    2    1    2  501    0  0.00000000000E+00  0.00000000000E+00  0.89568438992E+03  0.11043156101E+04  0.64595854380E+03 0.  0.
         13    1    3    3    0    0  0.10394381720E+03 -0.70958523606E+02  0.95635482991E+03  0.96460043018E+03  0.00000000000E+00 0. -1.
          2    1    3    3  501    0 -0.10394381720E+03  0.70958523606E+02 -0.60670439987E+02  0.13971517990E+03  0.00000000000E+00 0. -1.
<mgrwt>
<rscale>  0 0.64595854E+03</rscale>
<asrwt>0</asrwt>
<pdfrwt beam="1">0</pdfrwt>
<pdfrwt beam="2">  1        2 0.37933029E+00 0.64595854E+03</pdfrwt>
<totfact> 0.47554860E+00</totfact>
</mgrwt>
</event>
<event>
 5    1  0.2354746E-004  0.6718019E+03  0.7818608E-02  0.9766708E-01
         13   -1    0    0    0    0  0.00000000000E+00  0.00000000000E+00  0.10000000000E+04  0.10000000000E+04  0.00000000000E+00 0. -1.
          2   -1    0    0  501    0 -0.00000000000E+00 -0.00000000000E+00 -0.11282943839E+03  0.11282943839E+03  0.00000000000E+00 0. -1.
    9000006    2    1    2  501    0  0.00000000000E+00  0.00000000000E+00  0.88717056161E+03  0.11128294384E+04  0.67180187075E+03 0.  0.
         13    1    3    3    0    0  0.24513460823E+03  0.20867415688E+03  0.60241406757E+03  0.68303630116E+03  0.00000000000E+00 0. -1.
          4    1    3    3  501    0 -0.24513460823E+03 -0.20867415688E+03  0.28475649405E+03  0.42979313723E+03  0.00000000000E+00 0. -1.
<mgrwt>
<rscale>  0 0.67180187E+03</rscale>
<asrwt>0</asrwt>
<pdfrwt beam="1">0</pdfrwt>
<pdfrwt beam="2">  1        2 0.41028973E+00 0.67180187E+03</pdfrwt>
<totfact> 0.36362797E+00</totfact>
</mgrwt>
</event>
<event>
 5    1  0.2354746E-004  0.6529821E+03  0.7818608E-02  0.9801199E-01
         13   -1    0    0    0    0  0.00000000000E+00  0.00000000000E+00  0.10000000000E+04  0.10000000000E+04  0.00000000000E+00 0. -1.
          2   -1    0    0  501    0 -0.00000000000E+00 -0.00000000000E+00 -0.10659642162E+03  0.10659642162E+03  0.00000000000E+00 0. -1.
    9000006    2    1    2  501    0  0.00000000000E+00  0.00000000000E+00  0.89340357838E+03  0.11065964216E+04  0.65298214866E+03 0.  0.
         13    1    3    3    0    0 -0.37166985559E+02 -0.20519673437E+02 -0.10189861079E+03  0.11038916928E+03  0.00000000000E+00 0. -1.
          2    1    3    3  501    0  0.37166985559E+02  0.20519673437E+02  0.99530218918E+03  0.99620725233E+03  0.00000000000E+00 0. -1.
<mgrwt>
<rscale>  0 0.65298215E+03</rscale>
<asrwt>0</asrwt>
<pdfrwt beam="1">0</pdfrwt>
<pdfrwt beam="2">  1        2 0.38762417E+00 0.65298215E+03</pdfrwt>
<totfact> 0.44286544E+00</totfact>
</mgrwt>
</event>
<event>
 5    1  0.2354746E-004  0.6458242E+03  0.7818608E-02  0.9814647E-01
         13   -1    0    0    0    0  0.00000000000E+00  0.00000000000E+00  0.10000000000E+04  0.10000000000E+04  0.00000000000E+00 0. -1.
          2   -1    0    0  501    0 -0.00000000000E+00 -0.00000000000E+00 -0.10427221037E+03  0.10427221037E+03  0.00000000000E+00 0. -1.
    9000006    2    1    2  501    0  0.00000000000E+00  0.00000000000E+00  0.89572778963E+03  0.11042722104E+04  0.64582415679E+03 0.  0.
         13    1    3    3    0    0 -0.26345386727E+03 -0.73955963550E+02  0.15470909705E+03  0.31434428488E+03  0.00000000000E+00 0. -1.
          2    1    3    3  501    0  0.26345386727E+03  0.73955963550E+02  0.74101869257E+03  0.78992792549E+03  0.00000000000E+00 0. -1.
<mgrwt>
<rscale>  0 0.64582416E+03</rscale>
<asrwt>0</asrwt>
<pdfrwt beam="1">0</pdfrwt>
<pdfrwt beam="2">  1        2 0.37917247E+00 0.64582416E+03</pdfrwt>
<totfact> 0.47619121E+00</totfact>
</mgrwt>
</event>
<event>
 5    1  0.2354746E-004  0.6480980E+03  0.7818608E-02  0.9810355E-01
         13   -1    0    0    0    0  0.00000000000E+00  0.00000000000E+00  0.10000000000E+04  0.10000000000E+04  0.00000000000E+00 0. -1.
          2   -1    0    0  501    0 -0.00000000000E+00 -0.00000000000E+00 -0.10500775714E+03  0.10500775714E+03  0.00000000000E+00 0. -1.
    9000006    2    1    2  501    0  0.00000000000E+00  0.00000000000E+00  0.89499224286E+03  0.11050077571E+04  0.64809800846E+03 0.  0.
         13    1    3    3    0    0  0.16510812078E+02  0.12816237835E+03 -0.59177725751E+02  0.14212742650E+03  0.00000000000E+00 0. -1.
          4    1    3    3  501    0 -0.16510812078E+02 -0.12816237835E+03  0.95416996861E+03  0.96288033064E+03  0.00000000000E+00 0. -1.
<mgrwt>
<rscale>  0 0.64809801E+03</rscale>
<asrwt>0</asrwt>
<pdfrwt beam="1">0</pdfrwt>
<pdfrwt beam="2">  1        2 0.38184719E+00 0.64809801E+03</pdfrwt>
<totfact> 0.46540623E+00</totfact>
</mgrwt>
</event>
<event>
 5    1  0.2354746E-004  0.5190716E+03  0.7818608E-02  0.1008917E+00
         13   -1    0    0    0    0  0.00000000000E+00  0.00000000000E+00  0.10000000000E+04  0.10000000000E+04  0.00000000000E+00 0. -1.
          2   -1    0    0  501    0 -0.00000000000E+00 -0.00000000000E+00 -0.67358835941E+02  0.67358835941E+02  0.00000000000E+00 0. -1.
    9000006    2    1    2  501    0  0.00000000000E+00  0.00000000000E+00  0.93264116406E+03  0.10673588359E+04  0.51907161718E+03 0.  0.
         13    1    3    3    0    0  0.59965984556E+02 -0.11983653773E+03  0.92336242706E+03  0.93303530844E+03  0.00000000000E+00 0. -1.
          4    1    3    3  501    0 -0.59965984556E+02  0.11983653773E+03  0.92787369947E+01  0.13432352750E+03  0.00000000000E+00 0. -1.
<mgrwt>
<rscale>  0 0.51907162E+03</rscale>
<asrwt>0</asrwt>
<pdfrwt beam="1">0</pdfrwt>
<pdfrwt beam="2">  1        2 0.24494174E+00 0.51907162E+03</pdfrwt>
<totfact> 0.14536491E+01</totfact>
</mgrwt>
</event>
<event>
 5    1  0.2354746E-004  0.6565598E+03  0.7818608E-02  0.9794547E-01
         13   -1    0    0    0    0  0.00000000000E+00  0.00000000000E+00  0.10000000000E+04  0.10000000000E+04  0.00000000000E+00 0. -1.
          2   -1    0    0  501    0 -0.00000000000E+00 -0.00000000000E+00 -0.10776768544E+03  0.10776768544E+03  0.00000000000E+00 0. -1.
    9000006    2    1    2  501    0  0.00000000000E+00  0.00000000000E+00  0.89223231456E+03  0.11077676854E+04  0.65655977775E+03 0.  0.
         13    1    3    3    0    0 -0.52346397648E+02 -0.13033454399E+03 -0.54512305776E+02  0.15066130951E+03  0.00000000000E+00 0. -1.
          2    1    3    3  501    0  0.52346397648E+02  0.13033454399E+03  0.94674462034E+03  0.95710637593E+03  0.00000000000E+00 0. -1.
<mgrwt>
<rscale>  0 0.65655978E+03</rscale>
<asrwt>0</asrwt>
<pdfrwt beam="1">0</pdfrwt>
<pdfrwt beam="2">  1        2 0.39188332E+00 0.65655978E+03</pdfrwt>
<totfact> 0.42688516E+00</totfact>
</mgrwt>
</event>
<event>
 5    1  0.2354746E-004  0.6321718E+03  0.7818608E-02  0.9840820E-01
         13   -1    0    0    0    0  0.00000000000E+00  0.00000000000E+00  0.10000000000E+04  0.10000000000E+04  0.00000000000E+00 0. -1.
          2   -1    0    0  501    0 -0.00000000000E+00 -0.00000000000E+00 -0.99910284434E+02  0.99910284434E+02  0.00000000000E+00 0. -1.
    9000006    2    1    2  501    0  0.00000000000E+00  0.00000000000E+00  0.90008971557E+03  0.10999102844E+04  0.63217176284E+03 0.  0.
         13    1    3    3    0    0  0.31526340513E+03  0.22001506244E+02  0.43972163340E+03  0.54150733676E+03  0.00000000000E+00 0. -1.
          4    1    3    3  501    0 -0.31526340513E+03 -0.22001506244E+02  0.46036808217E+03  0.55840294767E+03  0.00000000000E+00 0. -1.
<mgrwt>
<rscale>  0 0.63217176E+03</rscale>
<asrwt>0</asrwt>
<pdfrwt beam="1">0</pdfrwt>
<pdfrwt beam="2">  1        2 0.36331089E+00 0.63217176E+03</pdfrwt>
<totfact> 0.54498464E+00</totfact>
</mgrwt>
</event>
<event>
 5    1  0.2354746E-004  0.6610284E+03  0.7818608E-02  0.9786302E-01
         13   -1    0    0    0    0  0.00000000000E+00  0.00000000000E+00  0.10000000000E+04  0.10000000000E+04  0.00000000000E+00 0. -1.
          2   -1    0    0  501    0 -0.00000000000E+00 -0.00000000000E+00 -0.10923964696E+03  0.10923964696E+03  0.00000000000E+00 0. -1.
    9000006    2    1    2  501    0  0.00000000000E+00  0.00000000000E+00  0.89076035304E+03  0.11092396470E+04  0.66102843196E+03 0.  0.
         13    1    3    3    0    0 -0.26433427065E+03 -0.12578758259E+03  0.18789620140E+03  0.34785069365E+03  0.00000000000E+00 0. -1.
          4    1    3    3  501    0  0.26433427065E+03  0.12578758259E+03  0.70286415164E+03  0.76138895331E+03  0.00000000000E+00 0. -1.
<mgrwt>
<rscale>  0 0.66102843E+03</rscale>
<asrwt>0</asrwt>
<pdfrwt beam="1">0</pdfrwt>
<pdfrwt beam="2">  1        2 0.39723592E+00 0.66102843E+03</pdfrwt>
<totfact> 0.40754201E+00</totfact>
</mgrwt>
</event>
<event>
 5    1  0.2354746E-004  0.6565811E+03  0.7818608E-02  0.9794508E-01
         13   -1    0    0    0    0  0.00000000000E+00  0.00000000000E+00  0.10000000000E+04  0.10000000000E+04  0.00000000000E+00 0. -1.
          2   -1    0    0  501    0 -0.00000000000E+00 -0.00000000000E+00 -0.10777468743E+03  0.10777468743E+03  0.00000000000E+00 0. -1.
    9000006    2    1    2  501    0  0.00000000000E+00  0.00000000000E+00  0.89222531257E+03  0.11077746874E+04  0.65658110674E+03 0.  0.
         13    1    3    3    0    0 -0.93094757063E+02  0.23669122995E+03  0.79632197129E+03  0.83595338033E+03  0.00000000000E+00 0. -1.
          2    1    3    3  501    0  0.93094757063E+02 -0.23669122995E+03  0.95903341276E+02  0.27182130710E+03  0.00000000000E+00 0. -1.
<mgrwt>
<rscale>  0 0.65658111E+03</rscale>
<asrwt>0</asrwt>
<pdfrwt beam="1">0</pdfrwt>
<pdfrwt beam="2">  1        2 0.39190878E+00 0.65658111E+03</pdfrwt>
<totfact> 0.42679121E+00</totfact>
</mgrwt>
</event>
<event>
 5    1  0.2354746E-004  0.6351025E+03  0.7818608E-02  0.9835142E-01
         13   -1    0    0    0    0  0.00000000000E+00  0.00000000000E+00  0.10000000000E+04  0.10000000000E+04  0.00000000000E+00 0. -1.
          2   -1    0    0  501    0 -0.00000000000E+00 -0.00000000000E+00 -0.10083878931E+03  0.10083878931E+03  0.00000000000E+00 0. -1.
    9000006    2    1    2  501    0  0.00000000000E+00  0.00000000000E+00  0.89916121069E+03  0.11008387893E+04  0.63510247774E+03 0.  0.
         13    1    3    3    0    0 -0.31075070839E+02 -0.31577700588E+03  0.42779223602E+03  0.53262273203E+03  0.00000000000E+00 0. -1.
          4    1    3    3  501    0  0.31075070839E+02  0.31577700588E+03  0.47136897467E+03  0.56821605728E+03  0.00000000000E+00 0. -1.
<mgrwt>
<rscale>  0 0.63510248E+03</rscale>
<asrwt>0</asrwt>
<pdfrwt beam="1">0</pdfrwt>
<pdfrwt beam="2">  1        2 0.36668728E+00 0.63510248E+03</pdfrwt>
<totfact> 0.52962007E+00</totfact>
</mgrwt>
</event>
<event>
 5    1  0.2354746E-004  0.6430696E+03  0.7818608E-02  0.9819871E-01
         13   -1    0    0    0    0  0.00000000000E+00  0.00000000000E+00  0.10000000000E+04  0.10000000000E+04  0.00000000000E+00 0. -1.
          2   -1    0    0  501    0 -0.00000000000E+00 -0.00000000000E+00 -0.10338463322E+03  0.10338463322E+03  0.00000000000E+00 0. -1.
    9000006    2    1    2  501    0  0.00000000000E+00  0.00000000000E+00  0.89661536678E+03  0.11033846332E+04  0.64306961743E+03 0.  0.
         13    1    3    3    0    0 -0.19050979006E+03 -0.82053229367E+02  0.86984504684E+03  0.89423549363E+03  0.00000000000E+00 0. -1.
          2    1    3    3  501    0  0.19050979006E+03  0.82053229367E+02  0.26770319941E+02  0.20914913958E+03  0.00000000000E+00 0. -1.
<mgrwt>
<rscale>  0 0.64306962E+03</rscale>
<asrwt>0</asrwt>
<pdfrwt beam="1">0</pdfrwt>
<pdfrwt beam="2">  1        2 0.37594491E+00 0.64306962E+03</pdfrwt>
<totfact> 0.48950817E+00</totfact>
</mgrwt>
</event>
<event>
 5    1  0.2354746E-004  0.6448420E+03  0.7818608E-02  0.9816506E-01
         13   -1    0    0    0    0  0.00000000000E+00  0.00000000000E+00  0.10000000000E+04  0.10000000000E+04  0.00000000000E+00 0. -1.
          2   -1    0    0  501    0 -0.00000000000E+00 -0.00000000000E+00 -0.10395529232E+03  0.10395529232E+03  0.00000000000E+00 0. -1.
    9000006    2    1    2  501    0  0.00000000000E+00  0.00000000000E+00  0.89604470768E+03  0.11039552923E+04  0.64484197233E+03 0.  0.
         13    1    3    3    0    0  0.11398625011E+03  0.37240953461E+02  0.96040321819E+03  0.96786057639E+03  0.00000000000E+00 0. -1.
          2    1    3    3  501    0 -0.11398625011E+03 -0.37240953461E+02 -0.64358510510E+02  0.13609471593E+03  0.00000000000E+00 0. -1.
<mgrwt>
<rscale>  0 0.64484197E+03</rscale>
<asrwt>0</asrwt>
<pdfrwt beam="1">0</pdfrwt>
<pdfrwt beam="2">  1        2 0.37802004E+00 0.64484197E+03</pdfrwt>
<totfact> 0.48090777E+00</totfact>
</mgrwt>
</event>
<event>
 5    1  0.2354746E-004  0.6780071E+03  0.7818608E-02  0.9755600E-01
         13   -1    0    0    0    0  0.00000000000E+00  0.00000000000E+00  0.10000000000E+04  0.10000000000E+04  0.00000000000E+00 0. -1.
          2   -1    0    0  501    0 -0.00000000000E+00 -0.00000000000E+00 -0.11492341063E+03  0.11492341063E+03  0.00000000000E+00 0. -1.
    9000006    2    1    2  501    0  0.00000000000E+00  0.00000000000E+00  0.88507658937E+03  0.11149234106E+04  0.67800711095E+03 0.  0.
         13    1    3    3    0    0  0.18920019414E+03 -0.22386727307E+03  0.72262062250E+03  0.77980371471E+03  0.00000000000E+00 0. -1.
          2    1    3    3  501    0 -0.18920019414E+03  0.22386727307E+03  0.16245596687E+03  0.33511969591E+03  0.00000000000E+00 0. -1.
<mgrwt>
<rscale>  0 0.67800711E+03</rscale>
<asrwt>0</asrwt>
<pdfrwt beam="1">0</pdfrwt>
<pdfrwt beam="2">  1        2 0.41790419E+00 0.67800711E+03</pdfrwt>
<totfact> 0.34001302E+00</totfact>
</mgrwt>
</event>
<event>
 5    1  0.2354746E-004  0.6531148E+03  0.7818608E-02  0.9800952E-01
         13   -1    0    0    0    0  0.00000000000E+00  0.00000000000E+00  0.10000000000E+04  0.10000000000E+04  0.00000000000E+00 0. -1.
          2   -1    0    0  501    0 -0.00000000000E+00 -0.00000000000E+00 -0.10663974202E+03  0.10663974202E+03  0.00000000000E+00 0. -1.
    9000006    2    1    2  501    0  0.00000000000E+00  0.00000000000E+00  0.89336025798E+03  0.11066397420E+04  0.65311481999E+03 0.  0.
         13    1    3    3    0    0  0.85890530922E+02 -0.19509563935E+03  0.86585315041E+03  0.89170688562E+03  0.00000000000E+00 0. -1.
          4    1    3    3  501    0 -0.85890530922E+02  0.19509563935E+03  0.27507107570E+02  0.21493285640E+03  0.00000000000E+00 0. -1.
<mgrwt>
<rscale>  0 0.65311482E+03</rscale>
<asrwt>0</asrwt>
<pdfrwt beam="1">0</pdfrwt>
<pdfrwt beam="2">  1        2 0.38778170E+00 0.65311482E+03</pdfrwt>
<totfact> 0.44226490E+00</totfact>
</mgrwt>
</event>
<event>
 5    1  0.2354746E-004  0.6488537E+03  0.7818608E-02  0.9808933E-01
         13   -1    0    0    0    0  0.00000000000E+00  0.00000000000E+00  0.10000000000E+04  0.10000000000E+04  0.00000000000E+00 0. -1.
          2   -1    0    0  501    0 -0.00000000000E+00 -0.00000000000E+00 -0.10525277817E+03  0.10525277817E+03  0.00000000000E+00 0. -1.
    9000006    2    1    2  501    0  0.00000000000E+00  0.00000000000E+00  0.89474722183E+03  0.11052527782E+04  0.64885369127E+03 0.  0.
         13    1    3    3    0    0 -0.14247129760E+03 -0.19232979427E+03  0.82042816113E+03  0.85462926932E+03  0.00000000000E+00 0. -1.
          2    1    3    3  501    0  0.14247129760E+03  0.19232979427E+03  0.74319060701E+02  0.25062350885E+03  0.00000000000E+00 0. -1.
<mgrwt>
<rscale>  0 0.64885369E+03</rscale>
<asrwt>0</asrwt>
<pdfrwt beam="1">0</pdfrwt>
<pdfrwt beam="2">  1        2 0.38273818E+00 0.64885369E+03</pdfrwt>
<totfact> 0.46186322E+00</totfact>
</mgrwt>
</event>
<event>
 5    1  0.2354746E-004  0.6374879E+03  0.7818608E-02  0.9830545E-01
         13   -1    0    0    0    0  0.00000000000E+00  0.00000000000E+00  0.10000000000E+04  0.10000000000E+04  0.00000000000E+00 0. -1.
          2   -1    0    0  501    0 -0.00000000000E+00 -0.00000000000E+00 -0.10159770640E+03  0.10159770640E+03  0.00000000000E+00 0. -1.
    9000006    2    1    2  501    0  0.00000000000E+00  0.00000000000E+00  0.89840229360E+03  0.11015977064E+04  0.63748790231E+03 0.  0.
         13    1    3    3    0    0 -0.97819073193E+01  0.12242053444E+02 -0.10093168519E+03  0.10214087653E+03  0.00000000000E+00 0. -1.
          2    1    3    3  501    0  0.97819073193E+01 -0.12242053444E+02  0.99933397880E+03  0.99945682986E+03  0.00000000000E+00 0. -1.
<mgrwt>
<rscale>  0 0.63748790E+03</rscale>
<asrwt>0</asrwt>
<pdfrwt beam="1">0</pdfrwt>
<pdfrwt beam="2">  1        2 0.36944698E+00 0.63748790E+03</pdfrwt>
<totfact> 0.51735855E+00</totfact>
</mgrwt>
</event>
<event>
 5    1  0.2354746E-004  0.6506473E+03  0.7818608E-02  0.9805565E-01
         13   -1    0    0    0    0  0.00000000000E+00  0.00000000000E+00  0.10000000000E+04  0.10000000000E+04  0.00000000000E+00 0. -1.
          2   -1    0    0  501    0 -0.00000000000E+00 -0.00000000000E+00 -0.10583549031E+03  0.10583549031E+03  0.00000000000E+00 0. -1.
    9000006    2    1    2  501    0  0.00000000000E+00  0.00000000000E+00  0.89416450969E+03  0.11058354903E+04  0.65064734015E+03 0.  0.
         13    1    3    3    0    0 -0.11980849010E+03  0.28252063465E+03  0.63063439075E+03  0.70133566721E+03  0.00000000000E+00 0. -1.
          4    1    3    3  501    0  0.11980849010E+03 -0.28252063465E+03  0.26353011894E+03  0.40449982310E+03  0.00000000000E+00 0. -1.
<mgrwt>
<rscale>  0 0.65064734E+03</rscale>
<asrwt>0</asrwt>
<pdfrwt beam="1">0</pdfrwt>
<pdfrwt beam="2">  1        2 0.38485714E+00 0.65064734E+03</pdfrwt>
<totfact> 0.45353534E+00</totfact>
</mgrwt>
</event>
<event>
 5    1  0.2354746E-004  0.6237075E+03  0.7818608E-02  0.9857406E-01
         13   -1    0    0    0    0  0.00000000000E+00  0.00000000000E+00  0.10000000000E+04  0.10000000000E+04  0.00000000000E+00 0. -1.
          2   -1    0    0  501    0 -0.00000000000E+00 -0.00000000000E+00 -0.97252752675E+02  0.97252752675E+02  0.00000000000E+00 0. -1.
    9000006    2    1    2  501    0  0.00000000000E+00  0.00000000000E+00  0.90274724733E+03  0.10972527527E+04  0.62370747206E+03 0.  0.
         13    1    3    3    0    0 -0.12967093870E+03  0.25561909199E+03  0.66753207106E+03  0.72646730032E+03  0.00000000000E+00 0. -1.
          2    1    3    3  501    0  0.12967093870E+03 -0.25561909199E+03  0.23521517626E+03  0.37078545236E+03  0.00000000000E+00 0. -1.
<mgrwt>
<rscale>  0 0.62370747E+03</rscale>
<asrwt>0</asrwt>
<pdfrwt beam="1">0</pdfrwt>
<pdfrwt beam="2">  1        2 0.35364712E+00 0.62370747E+03</pdfrwt>
<totfact> 0.59126534E+00</totfact>
</mgrwt>
</event>
<event>
 5    1  0.2354746E-004  0.6644844E+03  0.7818608E-02  0.9779974E-01
         13   -1    0    0    0    0  0.00000000000E+00  0.00000000000E+00  0.10000000000E+04  0.10000000000E+04  0.00000000000E+00 0. -1.
          2   -1    0    0  501    0 -0.00000000000E+00 -0.00000000000E+00 -0.11038487929E+03  0.11038487929E+03  0.00000000000E+00 0. -1.
    9000006    2    1    2  501    0  0.00000000000E+00  0.00000000000E+00  0.88961512071E+03  0.11103848793E+04  0.66448439948E+03 0.  0.
         13    1    3    3    0    0 -0.13223989451E+03  0.26898006746E+03  0.20527463946E+03  0.36328410920E+03  0.00000000000E+00 0. -1.
          2    1    3    3  501    0  0.13223989451E+03 -0.26898006746E+03  0.68434048125E+03  0.74710077009E+03  0.00000000000E+00 0. -1.
<mgrwt>
<rscale>  0 0.66448440E+03</rscale>
<asrwt>0</asrwt>
<pdfrwt beam="1">0</pdfrwt>
<pdfrwt beam="2">  1        2 0.40140041E+00 0.66448440E+03</pdfrwt>
<totfact> 0.39304241E+00</totfact>
</mgrwt>
</event>
<event>
 5    1  0.2354746E-004  0.6931571E+03  0.7818608E-02  0.9729007E-01
         13   -1    0    0    0    0  0.00000000000E+00  0.00000000000E+00  0.10000000000E+04  0.10000000000E+04  0.00000000000E+00 0. -1.
          2   -1    0    0  501    0 -0.00000000000E+00 -0.00000000000E+00 -0.12011668279E+03  0.12011668279E+03  0.00000000000E+00 0. -1.
    9000006    2    1    2  501    0  0.00000000000E+00  0.00000000000E+00  0.87988331721E+03  0.11201166828E+04  0.69315707539E+03 0.  0.
         13    1    3    3    0    0  0.25028861698E+03  0.13842060595E+03  0.75624164199E+03  0.80852091935E+03  0.00000000000E+00 0. -1.
          4    1    3    3  501    0 -0.25028861698E+03 -0.13842060595E+03  0.12364167522E+03  0.31159576344E+03  0.00000000000E+00 0. -1.
<mgrwt>
<rscale>  0 0.69315708E+03</rscale>
<asrwt>0</asrwt>
<pdfrwt beam="1">0</pdfrwt>
<pdfrwt beam="2">  1        2 0.43678886E+00 0.69315708E+03</pdfrwt>
<totfact> 0.28721025E+00</totfact>
</mgrwt>
</event>
<event>
 5    1  0.2354746E-004  0.6393224E+03  0.7818608E-02  0.9827024E-01
         13   -1    0    0    0    0  0.00000000000E+00  0.00000000000E+00  0.10000000000E+04  0.10000000000E+04  0.00000000000E+00 0. -1.
          2   -1    0    0  501    0 -0.00000000000E+00 -0.00000000000E+00 -0.10218328227E+03  0.10218328227E+03  0.00000000000E+00 0. -1.
    9000006    2    1    2  501    0  0.00000000000E+00  0.00000000000E+00  0.89781671773E+03  0.11021832823E+04  0.63932239839E+03 0.  0.
         13    1    3    3    0    0  0.13258254362E+03 -0.22999009523E+03  0.75590245061E+03  0.80116296071E+03  0.00000000000E+00 0. -1.
          4    1    3    3  501    0 -0.13258254362E+03  0.22999009523E+03  0.14191426712E+03  0.30102032156E+03  0.00000000000E+00 0. -1.
<mgrwt>
<rscale>  0 0.63932240E+03</rscale>
<asrwt>0</asrwt>
<pdfrwt beam="1">0</pdfrwt>
<pdfrwt beam="2">  1        2 0.37157636E+00 0.63932240E+03</pdfrwt>
<totfact> 0.50807617E+00</totfact>
</mgrwt>
</event>
<event>
 5    1  0.2354746E-004  0.6653506E+03  0.7818608E-02  0.9778394E-01
         13   -1    0    0    0    0  0.00000000000E+00  0.00000000000E+00  0.10000000000E+04  0.10000000000E+04  0.00000000000E+00 0. -1.
          2   -1    0    0  501    0 -0.00000000000E+00 -0.00000000000E+00 -0.11067284511E+03  0.11067284511E+03  0.00000000000E+00 0. -1.
    9000006    2    1    2  501    0  0.00000000000E+00  0.00000000000E+00  0.88932715489E+03  0.11106728451E+04  0.66535056957E+03 0.  0.
         13    1    3    3    0    0  0.12521291078E+03 -0.30022640625E+03  0.56102114621E+03  0.64850512298E+03  0.00000000000E+00 0. -1.
          4    1    3    3  501    0 -0.12521291078E+03  0.30022640625E+03  0.32830600868E+03  0.46216772213E+03  0.00000000000E+00 0. -1.
<mgrwt>
<rscale>  0 0.66535057E+03</rscale>
<asrwt>0</asrwt>
<pdfrwt beam="1">0</pdfrwt>
<pdfrwt beam="2">  1        2 0.40244756E+00 0.66535057E+03</pdfrwt>
<totfact> 0.38947017E+00</totfact>
</mgrwt>
</event>
<event>
 5    1  0.2354746E-004  0.6471814E+03  0.7818608E-02  0.9812083E-01
         13   -1    0    0    0    0  0.00000000000E+00  0.00000000000E+00  0.10000000000E+04  0.10000000000E+04  0.00000000000E+00 0. -1.
          2   -1    0    0  501    0 -0.00000000000E+00 -0.00000000000E+00 -0.10471093288E+03  0.10471093288E+03  0.00000000000E+00 0. -1.
    9000006    2    1    2  501    0  0.00000000000E+00  0.00000000000E+00  0.89528906712E+03  0.11047109329E+04  0.64718137453E+03 0.  0.
         13    1    3    3    0    0 -0.14874004724E+03  0.17188124586E+03  0.84077931207E+03  0.87096303936E+03  0.00000000000E+00 0. -1.
          4    1    3    3  501    0  0.14874004724E+03 -0.17188124586E+03  0.54509755047E+02  0.23374789352E+03  0.00000000000E+00 0. -1.
<mgrwt>
<rscale>  0 0.64718137E+03</rscale>
<asrwt>0</asrwt>
<pdfrwt beam="1">0</pdfrwt>
<pdfrwt beam="2">  1        2 0.38076783E+00 0.64718137E+03</pdfrwt>
<totfact> 0.46973139E+00</totfact>
</mgrwt>
</event>
<event>
 5    1  0.2354746E-004  0.6488694E+03  0.7818608E-02  0.9808903E-01
         13   -1    0    0    0    0  0.00000000000E+00  0.00000000000E+00  0.10000000000E+04  0.10000000000E+04  0.00000000000E+00 0. -1.
          2   -1    0    0  501    0 -0.00000000000E+00 -0.00000000000E+00 -0.10525786177E+03  0.10525786177E+03  0.00000000000E+00 0. -1.
    9000006    2    1    2  501    0  0.00000000000E+00  0.00000000000E+00  0.89474213823E+03  0.11052578618E+04  0.64886936056E+03 0.  0.
         13    1    3    3    0    0 -0.20344411604E+03  0.21944770172E+03  0.66087657730E+03  0.72546857449E+03  0.00000000000E+00 0. -1.
          2    1    3    3  501    0  0.20344411604E+03 -0.21944770172E+03  0.23386556093E+03  0.37978928728E+03  0.00000000000E+00 0. -1.
<mgrwt>
<rscale>  0 0.64886936E+03</rscale>
<asrwt>0</asrwt>
<pdfrwt beam="1">0</pdfrwt>
<pdfrwt beam="2">  1        2 0.38275667E+00 0.64886936E+03</pdfrwt>
<totfact> 0.46178997E+00</totfact>
</mgrwt>
</event>
<event>
 5    1  0.2354746E-004  0.6297349E+03  0.7818608E-02  0.9845566E-01
         13   -1    0    0    0    0  0.00000000000E+00  0.00000000000E+00  0.10000000000E+04  0.10000000000E+04  0.00000000000E+00 0. -1.
          2   -1    0    0  501    0 -0.00000000000E+00 -0.00000000000E+00 -0.99141500544E+02  0.99141500544E+02  0.00000000000E+00 0. -1.
    9000006    2    1    2  501    0  0.00000000000E+00  0.00000000000E+00  0.90085849946E+03  0.10991415005E+04  0.62973486657E+03 0.  0.
         13    1    3    3    0    0  0.21555158445E+03 -0.19670082295E+03  0.65685819454E+03  0.71876031265E+03  0.00000000000E+00 0. -1.
          2    1    3    3  501    0 -0.21555158445E+03  0.19670082295E+03  0.24400030492E+03  0.38038118790E+03  0.00000000000E+00 0. -1.
<mgrwt>
<rscale>  0 0.62973487E+03</rscale>
<asrwt>0</asrwt>
<pdfrwt beam="1">0</pdfrwt>
<pdfrwt beam="2">  1        2 0.36051531E+00 0.62973487E+03</pdfrwt>
<totfact> 0.55801579E+00</totfact>
</mgrwt>
</event>
<event>
 5    1  0.2354746E-004  0.6500247E+03  0.7818608E-02  0.9806733E-01
         13   -1    0    0    0    0  0.00000000000E+00  0.00000000000E+00  0.10000000000E+04  0.10000000000E+04  0.00000000000E+00 0. -1.
          2   -1    0    0  501    0 -0.00000000000E+00 -0.00000000000E+00 -0.10563303377E+03  0.10563303377E+03  0.00000000000E+00 0. -1.
    9000006    2    1    2  501    0  0.00000000000E+00  0.00000000000E+00  0.89436696623E+03  0.11056330338E+04  0.65002471882E+03 0.  0.
         13    1    3    3    0    0  0.29276738314E+03 -0.21403334480E+02  0.68447214782E+03  0.74476369709E+03  0.00000000000E+00 0. -1.
          4    1    3    3  501    0 -0.29276738314E+03  0.21403334480E+02  0.20989481841E+03  0.36086933668E+03  0.00000000000E+00 0. -1.
<mgrwt>
<rscale>  0 0.65002472E+03</rscale>
<asrwt>0</asrwt>
<pdfrwt beam="1">0</pdfrwt>
<pdfrwt beam="2">  1        2 0.38412093E+00 0.65002472E+03</pdfrwt>
<totfact> 0.45641319E+00</totfact>
</mgrwt>
</event>
<event>
 5    1  0.2354746E-004  0.6496196E+03  0.7818608E-02  0.9807493E-01
         13   -1    0    0    0    0  0.00000000000E+00  0.00000000000E+00  0.10000000000E+04  0.10000000000E+04  0.00000000000E+00 0. -1.
          2   -1    0    0  501    0 -0.00000000000E+00 -0.00000000000E+00 -0.10550139962E+03  0.10550139962E+03  0.00000000000E+00 0. -1.
    9000006    2    1    2  501    0  0.00000000000E+00  0.00000000000E+00  0.89449860038E+03  0.11055013996E+04  0.64961957980E+03 0.  0.
         13    1    3    3    0    0  0.48912849317E+02  0.27291710039E+03  0.15932761689E+03  0.31978352055E+03  0.00000000000E+00 0. -1.
          4    1    3    3  501    0 -0.48912849317E+02 -0.27291710039E+03  0.73517098349E+03  0.78571787906E+03  0.00000000000E+00 0. -1.
<mgrwt>
<rscale>  0 0.64961958E+03</rscale>
<asrwt>0</asrwt>
<pdfrwt beam="1">0</pdfrwt>
<pdfrwt beam="2">  1        2 0.38364226E+00 0.64961958E+03</pdfrwt>
<totfact> 0.45829320E+00</totfact>
</mgrwt>
</event>
<event>
 5    1  0.2354746E-004  0.6482697E+03  0.7818608E-02  0.9810031E-01
         13   -1    0    0    0    0  0.00000000000E+00  0.00000000000E+00  0.10000000000E+04  0.10000000000E+04  0.00000000000E+00 0. -1.
          2   -1    0    0  501    0 -0.00000000000E+00 -0.00000000000E+00 -0.10506340442E+03  0.10506340442E+03  0.00000000000E+00 0. -1.
    9000006    2    1    2  501    0  0.00000000000E+00  0.00000000000E+00  0.89493659558E+03  0.11050634044E+04  0.64826971058E+03 0.  0.
         13    1    3    3    0    0  0.55338109728E+02 -0.22361438629E+03  0.83617636270E+03  0.86732727945E+03  0.00000000000E+00 0. -1.
          4    1    3    3  501    0 -0.55338109728E+02  0.22361438629E+03  0.58760232884E+02  0.23773612496E+03  0.00000000000E+00 0. -1.
<mgrwt>
<rscale>  0 0.64826971E+03</rscale>
<asrwt>0</asrwt>
<pdfrwt beam="1">0</pdfrwt>
<pdfrwt beam="2">  1        2 0.38204955E+00 0.64826971E+03</pdfrwt>
<totfact> 0.46459941E+00</totfact>
</mgrwt>
</event>
<event>
 5    1  0.2354746E-004  0.6468720E+03  0.7818608E-02  0.9812666E-01
         13   -1    0    0    0    0  0.00000000000E+00  0.00000000000E+00  0.10000000000E+04  0.10000000000E+04  0.00000000000E+00 0. -1.
          2   -1    0    0  501    0 -0.00000000000E+00 -0.00000000000E+00 -0.10461084772E+03  0.10461084772E+03  0.00000000000E+00 0. -1.
    9000006    2    1    2  501    0  0.00000000000E+00  0.00000000000E+00  0.89538915228E+03  0.11046108477E+04  0.64687200501E+03 0.  0.
         13    1    3    3    0    0  0.20186936971E+03  0.13635116171E+03  0.81101217720E+03  0.84680790815E+03  0.00000000000E+00 0. -1.
          4    1    3    3  501    0 -0.20186936971E+03 -0.13635116171E+03  0.84376975079E+02  0.25780293957E+03  0.00000000000E+00 0. -1.
<mgrwt>
<rscale>  0 0.64687201E+03</rscale>
<asrwt>0</asrwt>
<pdfrwt beam="1">0</pdfrwt>
<pdfrwt beam="2">  1        2 0.38040388E+00 0.64687201E+03</pdfrwt>
<totfact> 0.47119800E+00</totfact>
</mgrwt>
</event>
<event>
 5    1  0.2354746E-004  0.6488317E+03  0.7818608E-02  0.9808974E-01
         13   -1    0    0    0    0  0.00000000000E+00  0.00000000000E+00  0.10000000000E+04  0.10000000000E+04  0.00000000000E+00 0. -1.
          2   -1    0    0  501    0 -0.00000000000E+00 -0.00000000000E+00 -0.10524563156E+03  0.10524563156E+03  0.00000000000E+00 0. -1.
    9000006    2    1    2  501    0  0.00000000000E+00  0.00000000000E+00  0.89475436844E+03  0.11052456316E+04  0.64883166248E+03 0.  0.
         13    1    3    3    0    0 -0.30146479382E+03  0.11976045816E+03  0.43937966529E+03  0.54614840431E+03  0.00000000000E+00 0. -1.
          2    1    3    3  501    0  0.30146479382E+03 -0.11976045816E+03  0.45537470315E+03  0.55909722725E+03  0.00000000000E+00 0. -1.
<mgrwt>
<rscale>  0 0.64883166E+03</rscale>
<asrwt>0</asrwt>
<pdfrwt beam="1">0</pdfrwt>
<pdfrwt beam="2">  1        2 0.38271219E+00 0.64883166E+03</pdfrwt>
<totfact> 0.46196621E+00</totfact>
</mgrwt>
</event>
<event>
 5    1  0.2354746E-004  0.6361339E+03  0.7818608E-02  0.9833152E-01
         13   -1    0    0    0    0  0.00000000000E+00  0.00000000000E+00  0.10000000000E+04  0.10000000000E+04  0.00000000000E+00 0. -1.
          2   -1    0    0  501    0 -0.00000000000E+00 -0.00000000000E+00 -0.10116657366E+03  0.10116657366E+03  0.00000000000E+00 0. -1.
    9000006    2    1    2  501    0  0.00000000000E+00  0.00000000000E+00  0.89883342634E+03  0.11011665737E+04  0.63613386534E+03 0.  0.
         13    1    3    3    0    0 -0.22440480807E+03  0.72578647557E+01  0.83940343444E+03  0.86891214760E+03  0.00000000000E+00 0. -1.
          2    1    3    3  501    0  0.22440480807E+03 -0.72578647557E+01  0.59429991897E+02  0.23225442606E+03  0.00000000000E+00 0. -1.
<mgrwt>
<rscale>  0 0.63613387E+03</rscale>
<asrwt>0</asrwt>
<pdfrwt beam="1">0</pdfrwt>
<pdfrwt beam="2">  1        2 0.36787923E+00 0.63613387E+03</pdfrwt>
<totfact> 0.52429183E+00</totfact>
</mgrwt>
</event>
<event>
 5    1  0.2354746E-004  0.6485823E+03  0.7818608E-02  0.9809443E-01
         13   -1    0    0    0    0  0.00000000000E+00  0.00000000000E+00  0.10000000000E+04  0.10000000000E+04  0.00000000000E+00 0. -1.
          2   -1    0    0  501    0 -0.00000000000E+00 -0.00000000000E+00 -0.10516475006E+03  0.10516475006E+03  0.00000000000E+00 0. -1.
    9000006    2    1    2  501    0  0.00000000000E+00  0.00000000000E+00  0.89483524994E+03  0.11051647501E+04  0.64858230029E+03 0.  0.
         13    1    3    3    0    0 -0.11586767857E+03 -0.21399148229E+03  0.81266817119E+03  0.84832024017E+03  0.00000000000E+00 0. -1.
          4    1    3    3  501    0  0.11586767857E+03  0.21399148229E+03  0.82167078750E+02  0.25684450989E+03  0.00000000000E+00 0. -1.
<mgrwt>
<rscale>  0 0.64858230E+03</rscale>
<asrwt>0</asrwt>
<pdfrwt beam="1">0</pdfrwt>
<pdfrwt beam="2">  1        2 0.38241808E+00 0.64858230E+03</pdfrwt>
<totfact> 0.46313327E+00</totfact>
</mgrwt>
</event>
<event>
 5    1  0.2354746E-004  0.6519848E+03  0.7818608E-02  0.9803062E-01
         13   -1    0    0    0    0  0.00000000000E+00  0.00000000000E+00  0.10000000000E+04  0.10000000000E+04  0.00000000000E+00 0. -1.
          2   -1    0    0  501    0 -0.00000000000E+00 -0.00000000000E+00 -0.10627105862E+03  0.10627105862E+03  0.00000000000E+00 0. -1.
    9000006    2    1    2  501    0  0.00000000000E+00  0.00000000000E+00  0.89372894138E+03  0.11062710586E+04  0.65198484222E+03 0.  0.
         13    1    3    3    0    0 -0.29404774053E+02 -0.11567108028E+03 -0.67867075186E+02  0.13729668402E+03  0.00000000000E+00 0. -1.
          4    1    3    3  501    0  0.29404774053E+02  0.11567108028E+03  0.96159601657E+03  0.96897437460E+03  0.00000000000E+00 0. -1.
<mgrwt>
<rscale>  0 0.65198484E+03</rscale>
<asrwt>0</asrwt>
<pdfrwt beam="1">0</pdfrwt>
<pdfrwt beam="2">  1        2 0.38644103E+00 0.65198484E+03</pdfrwt>
<totfact> 0.44739959E+00</totfact>
</mgrwt>
</event>
<event>
 5    1  0.2354746E-004  0.6240374E+03  0.7818608E-02  0.9856754E-01
         13   -1    0    0    0    0  0.00000000000E+00  0.00000000000E+00  0.10000000000E+04  0.10000000000E+04  0.00000000000E+00 0. -1.
          2   -1    0    0  501    0 -0.00000000000E+00 -0.00000000000E+00 -0.97355653794E+02  0.97355653794E+02  0.00000000000E+00 0. -1.
    9000006    2    1    2  501    0  0.00000000000E+00  0.00000000000E+00  0.90264434621E+03  0.10973556538E+04  0.62403735079E+03 0.  0.
         13    1    3    3    0    0  0.94442891943E+02 -0.25876824923E+03  0.70901676224E+03  0.76064790527E+03  0.00000000000E+00 0. -1.
          4    1    3    3  501    0 -0.94442891943E+02  0.25876824923E+03  0.19362758397E+03  0.33670774853E+03  0.00000000000E+00 0. -1.
<mgrwt>
<rscale>  0 0.62403735E+03</rscale>
<asrwt>0</asrwt>
<pdfrwt beam="1">0</pdfrwt>
<pdfrwt beam="2">  1        2 0.35402131E+00 0.62403735E+03</pdfrwt>
<totfact> 0.58940751E+00</totfact>
</mgrwt>
</event>
<event>
 5    1  0.2354746E-004  0.6499685E+03  0.7818608E-02  0.9806838E-01
         13   -1    0    0    0    0  0.00000000000E+00  0.00000000000E+00  0.10000000000E+04  0.10000000000E+04  0.00000000000E+00 0. -1.
          2   -1    0    0  501    0 -0.00000000000E+00 -0.00000000000E+00 -0.10561476669E+03  0.10561476669E+03  0.00000000000E+00 0. -1.
    9000006    2    1    2  501    0  0.00000000000E+00  0.00000000000E+00  0.89438523331E+03  0.11056147667E+04  0.64996851213E+03 0.  0.
         13    1    3    3    0    0 -0.17498797047E+02  0.22862777750E+03  0.83893870204E+03  0.86970972992E+03  0.00000000000E+00 0. -1.
          2    1    3    3  501    0  0.17498797047E+02 -0.22862777750E+03  0.55446531274E+02  0.23590503677E+03  0.00000000000E+00 0. -1.
<mgrwt>
<rscale>  0 0.64996851E+03</rscale>
<asrwt>0</asrwt>
<pdfrwt beam="1">0</pdfrwt>
<pdfrwt beam="2">  1        2 0.38405451E+00 0.64996851E+03</pdfrwt>
<totfact> 0.45667366E+00</totfact>
</mgrwt>
</event>
<event>
 5    1  0.2354746E-004  0.6699765E+03  0.7818608E-02  0.9770000E-01
         13   -1    0    0    0    0  0.00000000000E+00  0.00000000000E+00  0.10000000000E+04  0.10000000000E+04  0.00000000000E+00 0. -1.
          2   -1    0    0  501    0 -0.00000000000E+00 -0.00000000000E+00 -0.11221713132E+03  0.11221713132E+03  0.00000000000E+00 0. -1.
    9000006    2    1    2  501    0  0.00000000000E+00  0.00000000000E+00  0.88778286868E+03  0.11122171313E+04  0.66997651099E+03 0.  0.
         13    1    3    3    0    0 -0.17852757454E+03 -0.23714359840E+03  0.70164824301E+03  0.76185263539E+03  0.00000000000E+00 0. -1.
          4    1    3    3  501    0  0.17852757454E+03  0.23714359840E+03  0.18613462567E+03  0.35036449593E+03  0.00000000000E+00 0. -1.
<mgrwt>
<rscale>  0 0.66997651E+03</rscale>
<asrwt>0</asrwt>
<pdfrwt beam="1">0</pdfrwt>
<pdfrwt beam="2">  1        2 0.40806316E+00 0.66997651E+03</pdfrwt>
<totfact> 0.37080457E+00</totfact>
</mgrwt>
</event>
<event>
 5    1  0.2354746E-004  0.6191725E+03  0.7818608E-02  0.9866409E-01
         13   -1    0    0    0    0  0.00000000000E+00  0.00000000000E+00  0.10000000000E+04  0.10000000000E+04  0.00000000000E+00 0. -1.
          2   -1    0    0  501    0 -0.00000000000E+00 -0.00000000000E+00 -0.95843642165E+02  0.95843642165E+02  0.00000000000E+00 0. -1.
    9000006    2    1    2  501    0  0.00000000000E+00  0.00000000000E+00  0.90415635784E+03  0.10958436422E+04  0.61917248700E+03 0.  0.
         13    1    3    3    0    0  0.20132158337E+03 -0.17103140839E+03  0.73779565787E+03  0.78366099518E+03  0.00000000000E+00 0. -1.
          2    1    3    3  501    0 -0.20132158337E+03  0.17103140839E+03  0.16636069996E+03  0.31218264698E+03  0.00000000000E+00 0. -1.
<mgrwt>
<rscale>  0 0.61917249E+03</rscale>
<asrwt>0</asrwt>
<pdfrwt beam="1">0</pdfrwt>
<pdfrwt beam="2">  1        2 0.34852307E+00 0.61917249E+03</pdfrwt>
<totfact> 0.61726008E+00</totfact>
</mgrwt>
</event>
<event>
 5    1  0.2354746E-004  0.6657712E+03  0.7818608E-02  0.9777628E-01
         13   -1    0    0    0    0  0.00000000000E+00  0.00000000000E+00  0.10000000000E+04  0.10000000000E+04  0.00000000000E+00 0. -1.
          2   -1    0    0  501    0 -0.00000000000E+00 -0.00000000000E+00 -0.11081280958E+03  0.11081280958E+03  0.00000000000E+00 0. -1.
    9000006    2    1    2  501    0  0.00000000000E+00  0.00000000000E+00  0.88918719042E+03  0.11108128096E+04  0.66577116062E+03 0.  0.
         13    1    3    3    0    0  0.24146898078E+03  0.22407222758E+03  0.36462615417E+03  0.49139379743E+03  0.00000000000E+00 0. -1.
          4    1    3    3  501    0 -0.24146898078E+03 -0.22407222758E+03  0.52456103626E+03  0.61941901215E+03  0.00000000000E+00 0. -1.
<mgrwt>
<rscale>  0 0.66577116E+03</rscale>
<asrwt>0</asrwt>
<pdfrwt beam="1">0</pdfrwt>
<pdfrwt beam="2">  1        2 0.40295652E+00 0.66577116E+03</pdfrwt>
<totfact> 0.38774444E+00</totfact>
</mgrwt>
</event>
<event>
 5    1  0.2354746E-004  0.6496029E+03  0.7818608E-02  0.9807525E-01
         13   -1    0    0    0    0  0.00000000000E+00  0.00000000000E+00  0.10000000000E+04  0.10000000000E+04  0.00000000000E+00 0. -1.
          2   -1    0    0  501    0 -0.00000000000E+00 -0.00000000000E+00 -0.10549599700E+03  0.10549599700E+03  0.00000000000E+00 0. -1.
    9000006    2    1    2  501    0  0.00000000000E+00  0.00000000000E+00  0.89450400300E+03  0.11054959970E+04  0.64960294641E+03 0.  0.
         13    1    3    3    0    0 -0.71589799005E+02 -0.24541398006E+03  0.10628415193E+03  0.27685635605E+03  0.00000000000E+00 0. -1.
          4    1    3    3  501    0  0.71589799005E+02  0.24541398006E+03  0.78821985107E+03  0.82863964095E+03  0.00000000000E+00 0. -1.
<mgrwt>
<rscale>  0 0.64960295E+03</rscale>
<asrwt>0</asrwt>
<pdfrwt beam="1">0</pdfrwt>
<pdfrwt beam="2">  1        2 0.38362262E+00 0.64960295E+03</pdfrwt>
<totfact> 0.45837051E+00</totfact>
</mgrwt>
</event>
<event>
 5    1  0.2354746E-004  0.6554134E+03  0.7818608E-02  0.9796674E-01
         13   -1    0    0    0    0  0.00000000000E+00  0.00000000000E+00  0.10000000000E+04  0.10000000000E+04  0.00000000000E+00 0. -1.
          2   -1    0    0  501    0 -0.00000000000E+00 -0.00000000000E+00 -0.10739169438E+03  0.10739169438E+03  0.00000000000E+00 0. -1.
    9000006    2    1    2  501    0  0.00000000000E+00  0.00000000000E+00  0.89260830562E+03  0.11073916944E+04  0.65541344015E+03 0.  0.
         13    1    3    3    0    0 -0.88827662221E+02 -0.12246993370E+03 -0.44853126662E+02  0.15780063753E+03  0.00000000000E+00 0. -1.
          4    1    3    3  501    0  0.88827662221E+02  0.12246993370E+03  0.93746143228E+03  0.94959105685E+03  0.00000000000E+00 0. -1.
<mgrwt>
<rscale>  0 0.65541344E+03</rscale>
<asrwt>0</asrwt>
<pdfrwt beam="1">0</pdfrwt>
<pdfrwt beam="2">  1        2 0.39051608E+00 0.65541344E+03</pdfrwt>
<totfact> 0.43195730E+00</totfact>
</mgrwt>
</event>
<event>
 5    1  0.2354746E-004  0.6374563E+03  0.7818608E-02  0.9830605E-01
         13   -1    0    0    0    0  0.00000000000E+00  0.00000000000E+00  0.10000000000E+04  0.10000000000E+04  0.00000000000E+00 0. -1.
          2   -1    0    0  501    0 -0.00000000000E+00 -0.00000000000E+00 -0.10158762990E+03  0.10158762990E+03  0.00000000000E+00 0. -1.
    9000006    2    1    2  501    0  0.00000000000E+00  0.00000000000E+00  0.89841237010E+03  0.11015876299E+04  0.63745628838E+03 0.  0.
         13    1    3    3    0    0  0.11164944290E+03  0.25869736418E+02  0.96316036818E+03  0.96995501761E+03  0.00000000000E+00 0. -1.
          2    1    3    3  501    0 -0.11164944290E+03 -0.25869736418E+02 -0.64747998080E+02  0.13163261229E+03  0.00000000000E+00 0. -1.
<mgrwt>
<rscale>  0 0.63745629E+03</rscale>
<asrwt>0</asrwt>
<pdfrwt beam="1">0</pdfrwt>
<pdfrwt beam="2">  1        2 0.36941034E+00 0.63745629E+03</pdfrwt>
<totfact> 0.51751963E+00</totfact>
</mgrwt>
</event>
<event>
 5    1  0.2354746E-004  0.6606560E+03  0.7818608E-02  0.9786987E-01
         13   -1    0    0    0    0  0.00000000000E+00  0.00000000000E+00  0.10000000000E+04  0.10000000000E+04  0.00000000000E+00 0. -1.
          2   -1    0    0  501    0 -0.00000000000E+00 -0.00000000000E+00 -0.10911660367E+03  0.10911660367E+03  0.00000000000E+00 0. -1.
    9000006    2    1    2  501    0  0.00000000000E+00  0.00000000000E+00  0.89088339633E+03  0.11091166037E+04  0.66065604870E+03 0.  0.
         13    1    3    3    0    0 -0.14313870840E+03  0.28345391476E+03  0.29266259667E+03  0.43184048805E+03  0.00000000000E+00 0. -1.
          4    1    3    3  501    0  0.14313870840E+03 -0.28345391476E+03  0.59822079966E+03  0.67727611562E+03  0.00000000000E+00 0. -1.
<mgrwt>
<rscale>  0 0.66065605E+03</rscale>
<asrwt>0</asrwt>
<pdfrwt beam="1">0</pdfrwt>
<pdfrwt beam="2">  1        2 0.39678849E+00 0.66065605E+03</pdfrwt>
<totfact> 0.40912809E+00</totfact>
</mgrwt>
</event>
<event>
 5    1  0.2354746E-004  0.6476710E+03  0.7818608E-02  0.9811159E-01
         13   -1    0    0    0    0  0.00000000000E+00  0.00000000000E+00  0.10000000000E+04  0.10000000000E+04  0.00000000000E+00 0. -1.
          2   -1    0    0  501    0 -0.00000000000E+00 -0.00000000000E+00 -0.10486942649E+03  0.10486942649E+03  0.00000000000E+00 0. -1.
    9000006    2    1    2  501    0  0.00000000000E+00  0.00000000000E+00  0.89513057351E+03  0.11048694265E+04  0.64767098587E+03 0.  0.
         13    1    3    3    0    0  0.22886250829E+03  0.12477256492E+03  0.11976743958E+03  0.28686317338E+03  0.00000000000E+00 0. -1.
          4    1    3    3  501    0 -0.22886250829E+03 -0.12477256492E+03  0.77536313393E+03  0.81800625311E+03  0.00000000000E+00 0. -1.
<mgrwt>
<rscale>  0 0.64767099E+03</rscale>
<asrwt>0</asrwt>
<pdfrwt beam="1">0</pdfrwt>
<pdfrwt beam="2">  1        2 0.38134417E+00 0.64767099E+03</pdfrwt>
<totfact> 0.46741738E+00</totfact>
</mgrwt>
</event>
<event>
 5    1  0.2354746E-004  0.6237604E+03  0.7818608E-02  0.9857301E-01
         13   -1    0    0    0    0  0.00000000000E+00  0.00000000000E+00  0.10000000000E+04  0.10000000000E+04  0.00000000000E+00 0. -1.
          2   -1    0    0  501    0 -0.00000000000E+00 -0.00000000000E+00 -0.97269273656E+02  0.97269273656E+02  0.00000000000E+00 0. -1.
    9000006    2    1    2  501    0  0.00000000000E+00  0.00000000000E+00  0.90273072634E+03  0.10972692737E+04  0.62376044651E+03 0.  0.
         13    1    3    3    0    0  0.47233232922E+02  0.28893666654E+03  0.64045148403E+03  0.70419704554E+03  0.00000000000E+00 0. -1.
          4    1    3    3  501    0 -0.47233232922E+02 -0.28893666654E+03  0.26227924232E+03  0.39307222811E+03  0.00000000000E+00 0. -1.
<mgrwt>
<rscale>  0 0.62376045E+03</rscale>
<asrwt>0</asrwt>
<pdfrwt beam="1">0</pdfrwt>
<pdfrwt beam="2">  1        2 0.35370720E+00 0.62376045E+03</pdfrwt>
<totfact> 0.59096670E+00</totfact>
</mgrwt>
</event>
<event>
 5    1  0.2354746E-004  0.6501976E+03  0.7818608E-02  0.9806408E-01
         13   -1    0    0    0    0  0.00000000000E+00  0.00000000000E+00  0.10000000000E+04  0.10000000000E+04  0.00000000000E+00 0. -1.
          2   -1    0    0  501    0 -0.00000000000E+00 -0.00000000000E+00 -0.10568922478E+03  0.10568922478E+03  0.00000000000E+00 0. -1.
    9000006    2    1    2  501    0  0.00000000000E+00  0.00000000000E+00  0.89431077522E+03  0.11056892248E+04  0.65019758469E+03 0.  0.
         13    1    3    3    0    0 -0.11545659623E+03 -0.30223097096E+03  0.39296594019E+03  0.50901474985E+03  0.00000000000E+00 0. -1.
          2    1    3    3  501    0  0.11545659623E+03  0.30223097096E+03  0.50134483503E+03  0.59667447493E+03  0.00000000000E+00 0. -1.
<mgrwt>
<rscale>  0 0.65019758E+03</rscale>
<asrwt>0</asrwt>
<pdfrwt beam="1">0</pdfrwt>
<pdfrwt beam="2">  1        2 0.38432526E+00 0.65019758E+03</pdfrwt>
<totfact> 0.45561280E+00</totfact>
</mgrwt>
</event>
<event>
 5    1  0.2354746E-004  0.6421767E+03  0.7818608E-02  0.9821571E-01
         13   -1    0    0    0    0  0.00000000000E+00  0.00000000000E+00  0.10000000000E+04  0.10000000000E+04  0.00000000000E+00 0. -1.
          2   -1    0    0  501    0 -0.00000000000E+00 -0.00000000000E+00 -0.10309773463E+03  0.10309773463E+03  0.00000000000E+00 0. -1.
    9000006    2    1    2  501    0  0.00000000000E+00  0.00000000000E+00  0.89690226537E+03  0.11030977346E+04  0.64217671908E+03 0.  0.
         13    1    3    3    0    0  0.12153678526E+03  0.20879126530E+03  0.81175685997E+03  0.84694402551E+03  0.00000000000E+00 0. -1.
          4    1    3    3  501    0 -0.12153678526E+03 -0.20879126530E+03  0.85145405402E+02  0.25615370912E+03  0.00000000000E+00 0. -1.
<mgrwt>
<rscale>  0 0.64217672E+03</rscale>
<asrwt>0</asrwt>
<pdfrwt beam="1">0</pdfrwt>
<pdfrwt beam="2">  1        2 0.37490164E+00 0.64217672E+03</pdfrwt>
<totfact> 0.49388506E+00</totfact>
</mgrwt>
</event>
<event>
 5    1  0.2354746E-004  0.6475546E+03  0.7818608E-02  0.9811379E-01
         13   -1    0    0    0    0  0.00000000000E+00  0.00000000000E+00  0.10000000000E+04  0.10000000000E+04  0.00000000000E+00 0. -1.
          2   -1    0    0  501    0 -0.00000000000E+00 -0.00000000000E+00 -0.10483175182E+03  0.10483175182E+03  0.00000000000E+00 0. -1.
    9000006    2    1    2  501    0  0.00000000000E+00  0.00000000000E+00  0.89516824818E+03  0.11048317518E+04  0.64755463651E+03 0.  0.
         13    1    3    3    0    0 -0.17562184423E+03 -0.12531755349E+03  0.85948741611E+03  0.88615243601E+03  0.00000000000E+00 0. -1.
          2    1    3    3  501    0  0.17562184423E+03  0.12531755349E+03  0.35680832069E+02  0.21867931581E+03  0.00000000000E+00 0. -1.
<mgrwt>
<rscale>  0 0.64755464E+03</rscale>
<asrwt>0</asrwt>
<pdfrwt beam="1">0</pdfrwt>
<pdfrwt beam="2">  1        2 0.38120717E+00 0.64755464E+03</pdfrwt>
<totfact> 0.46796649E+00</totfact>
</mgrwt>
</event>
<event>
 5    1  0.2354746E-004  0.6473987E+03  0.7818608E-02  0.9811673E-01
         13   -1    0    0    0    0  0.00000000000E+00  0.00000000000E+00  0.10000000000E+04  0.10000000000E+04  0.00000000000E+00 0. -1.
          2   -1    0    0  501    0 -0.00000000000E+00 -0.00000000000E+00 -0.10478127097E+03  0.10478127097E+03  0.00000000000E+00 0. -1.
    9000006    2    1    2  501    0  0.00000000000E+00  0.00000000000E+00  0.89521872903E+03  0.11047812710E+04  0.64739870549E+03 0.  0.
         13    1    3    3    0    0 -0.31258297628E+03  0.53564114109E+02  0.55825591396E+03  0.64204898322E+03  0.00000000000E+00 0. -1.
          2    1    3    3  501    0  0.31258297628E+03 -0.53564114109E+02  0.33696281507E+03  0.46273228775E+03  0.00000000000E+00 0. -1.
<mgrwt>
<rscale>  0 0.64739871E+03</rscale>
<asrwt>0</asrwt>
<pdfrwt beam="1">0</pdfrwt>
<pdfrwt beam="2">  1        2 0.38102361E+00 0.64739871E+03</pdfrwt>
<totfact> 0.46870317E+00</totfact>
</mgrwt>
</event>
<event>
 5    1  0.2354746E-004  0.6146776E+03  0.7818608E-02  0.9875414E-01
         13   -1    0    0    0    0  0.00000000000E+00  0.00000000000E+00  0.10000000000E+04  0.10000000000E+04  0.00000000000E+00 0. -1.
          2   -1    0    0  501    0 -0.00000000000E+00 -0.00000000000E+00 -0.94457126093E+02  0.94457126093E+02  0.00000000000E+00 0. -1.
    9000006    2    1    2  501    0  0.00000000000E+00  0.00000000000E+00  0.90554287391E+03  0.10944571261E+04  0.61467756131E+03 0.  0.
         13    1    3    3    0    0  0.11800184716E+03 -0.16568853750E+03  0.86299145136E+03  0.88664049790E+03  0.00000000000E+00 0. -1.
          4    1    3    3  501    0 -0.11800184716E+03  0.16568853750E+03  0.42551422543E+02  0.20781662819E+03  0.00000000000E+00 0. -1.
<mgrwt>
<rscale>  0 0.61467756E+03</rscale>
<asrwt>0</asrwt>
<pdfrwt beam="1">0</pdfrwt>
<pdfrwt beam="2">  1        2 0.34348118E+00 0.61467756E+03</pdfrwt>
<totfact> 0.64387487E+00</totfact>
</mgrwt>
</event>
<event>
 5    1  0.2354746E-004  0.6304266E+03  0.7818608E-02  0.9844217E-01
         13   -1    0    0    0    0  0.00000000000E+00  0.00000000000E+00  0.10000000000E+04  0.10000000000E+04  0.00000000000E+00 0. -1.
          2   -1    0    0  501    0 -0.00000000000E+00 -0.00000000000E+00 -0.99359435986E+02  0.99359435986E+02  0.00000000000E+00 0. -1.
    9000006    2    1    2  501    0  0.00000000000E+00  0.00000000000E+00  0.90064056401E+03  0.10993594360E+04  0.63042663645E+03 0.  0.
         13    1    3    3    0    0 -0.24557249401E+03  0.17005716533E+03  0.27477112548E+03  0.40586261308E+03  0.00000000000E+00 0. -1.
          2    1    3    3  501    0  0.24557249401E+03 -0.17005716533E+03  0.62586943853E+03  0.69349682291E+03  0.00000000000E+00 0. -1.
<mgrwt>
<rscale>  0 0.63042664E+03</rscale>
<asrwt>0</asrwt>
<pdfrwt beam="1">0</pdfrwt>
<pdfrwt beam="2">  1        2 0.36130780E+00 0.63042664E+03</pdfrwt>
<totfact> 0.55429282E+00</totfact>
</mgrwt>
</event>
<event>
 5    1  0.2354746E-004  0.7260250E+03  0.7818608E-02  0.9673733E-01
         13   -1    0    0    0    0  0.00000000000E+00  0.00000000000E+00  0.10000000000E+04  0.10000000000E+04  0.00000000000E+00 0. -1.
          2   -1    0    0  501    0 -0.00000000000E+00 -0.00000000000E+00 -0.13177807709E+03  0.13177807709E+03  0.00000000000E+00 0. -1.
    9000006    2    1    2  501    0  0.00000000000E+00  0.00000000000E+00  0.86822192291E+03  0.11317780771E+04  0.72602500533E+03 0.  0.
         13    1    3    3    0    0 -0.89462044927E+02  0.27023157741E+03  0.78528762078E+03  0.83528750156E+03  0.00000000000E+00 0. -1.
          4    1    3    3  501    0  0.89462044927E+02 -0.27023157741E+03  0.82934302127E+02  0.29649057553E+03  0.00000000000E+00 0. -1.
<mgrwt>
<rscale>  0 0.72602501E+03</rscale>
<asrwt>0</asrwt>
<pdfrwt beam="1">0</pdfrwt>
<pdfrwt beam="2">  1        2 0.47919402E+00 0.72602501E+03</pdfrwt>
<totfact> 0.19401160E+00</totfact>
</mgrwt>
</event>
<event>
 5    1  0.2354746E-004  0.6631985E+03  0.7818608E-02  0.9782324E-01
         13   -1    0    0    0    0  0.00000000000E+00  0.00000000000E+00  0.10000000000E+04  0.10000000000E+04  0.00000000000E+00 0. -1.
          2   -1    0    0  501    0 -0.00000000000E+00 -0.00000000000E+00 -0.10995806059E+03  0.10995806059E+03  0.00000000000E+00 0. -1.
    9000006    2    1    2  501    0  0.00000000000E+00  0.00000000000E+00  0.89004193941E+03  0.11099580606E+04  0.66319849392E+03 0.  0.
         13    1    3    3    0    0  0.52276599475E+02  0.12120101234E+03 -0.64095682262E+02  0.14673372049E+03  0.00000000000E+00 0. -1.
          4    1    3    3  501    0 -0.52276599475E+02 -0.12120101234E+03  0.95413762168E+03  0.96322434009E+03  0.00000000000E+00 0. -1.
<mgrwt>
<rscale>  0 0.66319849E+03</rscale>
<asrwt>0</asrwt>
<pdfrwt beam="1">0</pdfrwt>
<pdfrwt beam="2">  1        2 0.39984834E+00 0.66319849E+03</pdfrwt>
<totfact> 0.39839121E+00</totfact>
</mgrwt>
</event>
<event>
 5    1  0.2354746E-004  0.6348759E+03  0.7818608E-02  0.9835580E-01
         13   -1    0    0    0    0  0.00000000000E+00  0.00000000000E+00  0.10000000000E+04  0.10000000000E+04  0.00000000000E+00 0. -1.
          2   -1    0    0  501    0 -0.00000000000E+00 -0.00000000000E+00 -0.10076686141E+03  0.10076686141E+03  0.00000000000E+00 0. -1.
    9000006    2    1    2  501    0  0.00000000000E+00  0.00000000000E+00  0.89923313859E+03  0.11007668614E+04  0.63487592934E+03 0.  0.
         13    1    3    3    0    0  0.32158013847E+02 -0.31550218377E+03  0.47358457080E+03  0.56996325454E+03  0.00000000000E+00 0. -1.
          4    1    3    3  501    0 -0.32158013847E+02  0.31550218377E+03  0.42564856778E+03  0.53080360688E+03  0.00000000000E+00 0. -1.
<mgrwt>
<rscale>  0 0.63487593E+03</rscale>
<asrwt>0</asrwt>
<pdfrwt beam="1">0</pdfrwt>
<pdfrwt beam="2">  1        2 0.36642572E+00 0.63487593E+03</pdfrwt>
<totfact> 0.53079592E+00</totfact>
</mgrwt>
</event>
<event>
 5    1  0.2354746E-004  0.6502796E+03  0.7818608E-02  0.9806255E-01
         13   -1    0    0    0    0  0.00000000000E+00  0.00000000000E+00  0.10000000000E+04  0.10000000000E+04  0.00000000000E+00 0. -1.
          2   -1    0    0  501    0 -0.00000000000E+00 -0.00000000000E+00 -0.10571589585E+03  0.10571589585E+03  0.00000000000E+00 0. -1.
    9000006    2    1    2  501    0  0.00000000000E+00  0.00000000000E+00  0.89428410415E+03  0.11057158959E+04  0.65027961940E+03 0.  0.
         13    1    3    3    0    0  0.21570688039E+03  0.18722561922E+03  0.18299296584E+03  0.33921868505E+03  0.00000000000E+00 0. -1.
          2    1    3    3  501    0 -0.21570688039E+03 -0.18722561922E+03  0.71129113831E+03  0.76649721081E+03  0.00000000000E+00 0. -1.
<mgrwt>
<rscale>  0 0.65027962E+03</rscale>
<asrwt>0</asrwt>
<pdfrwt beam="1">0</pdfrwt>
<pdfrwt beam="2">  1        2 0.38442225E+00 0.65027962E+03</pdfrwt>
<totfact> 0.45523334E+00</totfact>
</mgrwt>
</event>
<event>
 5    1  0.2354746E-004  0.6759334E+03  0.7818608E-02  0.9759298E-01
         13   -1    0    0    0    0  0.00000000000E+00  0.00000000000E+00  0.10000000000E+04  0.10000000000E+04  0.00000000000E+00 0. -1.
          2   -1    0    0  501    0 -0.00000000000E+00 -0.00000000000E+00 -0.11422147356E+03  0.11422147356E+03  0.00000000000E+00 0. -1.
    9000006    2    1    2  501    0  0.00000000000E+00  0.00000000000E+00  0.88577852644E+03  0.11142214736E+04  0.67593335043E+03 0.  0.
         13    1    3    3    0    0 -0.33226863197E+03  0.61623803600E+02  0.45053917005E+03  0.56319222359E+03  0.00000000000E+00 0. -1.
          2    1    3    3  501    0  0.33226863197E+03 -0.61623803600E+02  0.43523935639E+03  0.55102924996E+03  0.00000000000E+00 0. -1.
<mgrwt>
<rscale>  0 0.67593335E+03</rscale>
<asrwt>0</asrwt>
<pdfrwt beam="1">0</pdfrwt>
<pdfrwt beam="2">  1        2 0.41535169E+00 0.67593335E+03</pdfrwt>
<totfact> 0.34777220E+00</totfact>
</mgrwt>
</event>
<event>
 5    1  0.2354746E-004  0.6530007E+03  0.7818608E-02  0.9801165E-01
         13   -1    0    0    0    0  0.00000000000E+00  0.00000000000E+00  0.10000000000E+04  0.10000000000E+04  0.00000000000E+00 0. -1.
          2   -1    0    0  501    0 -0.00000000000E+00 -0.00000000000E+00 -0.10660246710E+03  0.10660246710E+03  0.00000000000E+00 0. -1.
    9000006    2    1    2  501    0  0.00000000000E+00  0.00000000000E+00  0.89339753290E+03  0.11066024671E+04  0.65300066493E+03 0.  0.
         13    1    3    3    0    0 -0.26443742391E+03  0.15482787009E+03  0.63770265641E+03  0.70750512260E+03  0.00000000000E+00 0. -1.
          4    1    3    3  501    0  0.26443742391E+03 -0.15482787009E+03  0.25569487649E+03  0.39909734450E+03  0.00000000000E+00 0. -1.
<mgrwt>
<rscale>  0 0.65300066E+03</rscale>
<asrwt>0</asrwt>
<pdfrwt beam="1">0</pdfrwt>
<pdfrwt beam="2">  1        2 0.38764615E+00 0.65300066E+03</pdfrwt>
<totfact> 0.44278159E+00</totfact>
</mgrwt>
</event>
<event>
 5    1  0.2354746E-004  0.6476559E+03  0.7818608E-02  0.9811188E-01
         13   -1    0    0    0    0  0.00000000000E+00  0.00000000000E+00  0.10000000000E+04  0.10000000000E+04  0.00000000000E+00 0. -1.
          2   -1    0    0  501    0 -0.00000000000E+00 -0.00000000000E+00 -0.10486453271E+03  0.10486453271E+03  0.00000000000E+00 0. -1.
    9000006    2    1    2  501    0  0.00000000000E+00  0.00000000000E+00  0.89513546729E+03  0.11048645327E+04  0.64765587378E+03 0.  0.
         13    1    3    3    0    0  0.34924785324E+02 -0.70736165222E+02  0.98335682698E+03  0.98651608952E+03  0.00000000000E+00 0. -1.
          2    1    3    3  501    0 -0.34924785324E+02  0.70736165222E+02 -0.88221359693E+02  0.11834844319E+03  0.00000000000E+00 0. -1.
<mgrwt>
<rscale>  0 0.64765587E+03</rscale>
<asrwt>0</asrwt>
<pdfrwt beam="1">0</pdfrwt>
<pdfrwt beam="2">  1        2 0.38132638E+00 0.64765587E+03</pdfrwt>
<totfact> 0.46748868E+00</totfact>
</mgrwt>
</event>
<event>
 5    1  0.2354746E-004  0.6366540E+03  0.7818608E-02  0.9832149E-01
         13   -1    0    0    0    0  0.00000000000E+00  0.00000000000E+00  0.10000000000E+04  0.10000000000E+04  0.00000000000E+00 0. -1.
          2   -1    0    0  501    0 -0.00000000000E+00 -0.00000000000E+00 -0.10133209286E+03  0.10133209286E+03  0.00000000000E+00 0. -1.
    9000006    2    1    2  501    0  0.00000000000E+00  0.00000000000E+00  0.89866790714E+03  0.11013320929E+04  0.63665404378E+03 0.  0.
         13    1    3    3    0    0  0.27009564257E+03  0.11922507099E+03  0.24344377049E+03  0.38266322410E+03  0.00000000000E+00 0. -1.
          2    1    3    3  501    0 -0.27009564257E+03 -0.11922507099E+03  0.65522413664E+03  0.71866886876E+03  0.00000000000E+00 0. -1.
<mgrwt>
<rscale>  0 0.63665404E+03</rscale>
<asrwt>0</asrwt>
<pdfrwt beam="1">0</pdfrwt>
<pdfrwt beam="2">  1        2 0.36848111E+00 0.63665404E+03</pdfrwt>
<totfact> 0.52162001E+00</totfact>
</mgrwt>
</event>
<event>
 5    1  0.2354746E-004  0.6529746E+03  0.7818608E-02  0.9801214E-01
         13   -1    0    0    0    0  0.00000000000E+00  0.00000000000E+00  0.10000000000E+04  0.10000000000E+04  0.00000000000E+00 0. -1.
          2   -1    0    0  501    0 -0.00000000000E+00 -0.00000000000E+00 -0.10659394332E+03  0.10659394332E+03  0.00000000000E+00 0. -1.
    9000006    2    1    2  501    0  0.00000000000E+00  0.00000000000E+00  0.89340605668E+03  0.11065939433E+04  0.65297455791E+03 0.  0.
         13    1    3    3    0    0  0.54306256685E+02 -0.32193718414E+03  0.44857739127E+03  0.55481023423E+03  0.00000000000E+00 0. -1.
          4    1    3    3  501    0 -0.54306256685E+02  0.32193718414E+03  0.44482866541E+03  0.55178370909E+03  0.00000000000E+00 0. -1.
<mgrwt>
<rscale>  0 0.65297456E+03</rscale>
<asrwt>0</asrwt>
<pdfrwt beam="1">0</pdfrwt>
<pdfrwt beam="2">  1        2 0.38761516E+00 0.65297456E+03</pdfrwt>
<totfact> 0.44289982E+00</totfact>
</mgrwt>
</event>
<event>
 5    1  0.2354746E-004  0.6535292E+03  0.7818608E-02  0.9800179E-01
         13   -1    0    0    0    0  0.00000000000E+00  0.00000000000E+00  0.10000000000E+04  0.10000000000E+04  0.00000000000E+00 0. -1.
          2   -1    0    0  501    0 -0.00000000000E+00 -0.00000000000E+00 -0.10677509512E+03  0.10677509512E+03  0.00000000000E+00 0. -1.
    9000006    2    1    2  501    0  0.00000000000E+00  0.00000000000E+00  0.89322490488E+03  0.11067750951E+04  0.65352917341E+03 0.  0.
         13    1    3    3    0    0 -0.22325594260E+03  0.33735070733E+02  0.84663775628E+03  0.87622871515E+03  0.00000000000E+00 0. -1.
          4    1    3    3  501    0  0.22325594260E+03 -0.33735070733E+02  0.46587148601E+02  0.23054637997E+03  0.00000000000E+00 0. -1.
<mgrwt>
<rscale>  0 0.65352917E+03</rscale>
<asrwt>0</asrwt>
<pdfrwt beam="1">0</pdfrwt>
<pdfrwt beam="2">  1        2 0.38827389E+00 0.65352917E+03</pdfrwt>
<totfact> 0.44039325E+00</totfact>
</mgrwt>
</event>
<event>
 5    1  0.2354746E-004  0.6478476E+03  0.7818608E-02  0.9810826E-01
         13   -1    0    0    0    0  0.00000000000E+00  0.00000000000E+00  0.10000000000E+04  0.10000000000E+04  0.00000000000E+00 0. -1.
          2   -1    0    0  501    0 -0.00000000000E+00 -0.00000000000E+00 -0.10492663252E+03  0.10492663252E+03  0.00000000000E+00 0. -1.
    9000006    2    1    2  501    0  0.00000000000E+00  0.00000000000E+00  0.89507336748E+03  0.11049266325E+04  0.64784761331E+03 0.  0.
         13    1    3    3    0    0  0.88163599703E+02  0.31166047951E+03  0.45545553101E+03  0.55887817593E+03  0.00000000000E+00 0. -1.
          2    1    3    3  501    0 -0.88163599703E+02 -0.31166047951E+03  0.43961783647E+03  0.54604845659E+03  0.00000000000E+00 0. -1.
<mgrwt>
<rscale>  0 0.64784761E+03</rscale>
<asrwt>0</asrwt>
<pdfrwt beam="1">0</pdfrwt>
<pdfrwt beam="2">  1        2 0.38155220E+00 0.64784761E+03</pdfrwt>
<totfact> 0.46658472E+00</totfact>
</mgrwt>
</event>
<event>
 5    1  0.2354746E-004  0.6595291E+03  0.7818608E-02  0.9789061E-01
         13   -1    0    0    0    0  0.00000000000E+00  0.00000000000E+00  0.10000000000E+04  0.10000000000E+04  0.00000000000E+00 0. -1.
          2   -1    0    0  501    0 -0.00000000000E+00 -0.00000000000E+00 -0.10874465798E+03  0.10874465798E+03  0.00000000000E+00 0. -1.
    9000006    2    1    2  501    0  0.00000000000E+00  0.00000000000E+00  0.89125534202E+03  0.11087446580E+04  0.65952909860E+03 0.  0.
         13    1    3    3    0    0  0.29433391528E+03 -0.12180264143E+03  0.30222623547E+03  0.43910025569E+03  0.00000000000E+00 0. -1.
          2    1    3    3  501    0 -0.29433391528E+03  0.12180264143E+03  0.58902910656E+03  0.66964440229E+03  0.00000000000E+00 0. -1.
<mgrwt>
<rscale>  0 0.65952910E+03</rscale>
<asrwt>0</asrwt>
<pdfrwt beam="1">0</pdfrwt>
<pdfrwt beam="2">  1        2 0.39543595E+00 0.65952910E+03</pdfrwt>
<totfact> 0.41395648E+00</totfact>
</mgrwt>
</event>
<event>
 5    1  0.2354746E-004  0.6405959E+03  0.7818608E-02  0.9824587E-01
         13   -1    0    0    0    0  0.00000000000E+00  0.00000000000E+00  0.10000000000E+04  0.10000000000E+04  0.00000000000E+00 0. -1.
          2   -1    0    0  501    0 -0.00000000000E+00 -0.00000000000E+00 -0.10259078040E+03  0.10259078040E+03  0.00000000000E+00 0. -1.
    9000006    2    1    2  501    0  0.00000000000E+00  0.00000000000E+00  0.89740921960E+03  0.11025907804E+04  0.64059591131E+03 0.  0.
         13    1    3    3    0    0 -0.97568206591E+02  0.29734159600E+03  0.33121866715E+03  0.45567245376E+03  0.00000000000E+00 0. -1.
          2    1    3    3  501    0  0.97568206591E+02 -0.29734159600E+03  0.56619055245E+03  0.64691832663E+03  0.00000000000E+00 0. -1.
<mgrwt>
<rscale>  0 0.64059591E+03</rscale>
<asrwt>0</asrwt>
<pdfrwt beam="1">0</pdfrwt>
<pdfrwt beam="2">  1        2 0.37305817E+00 0.64059591E+03</pdfrwt>
<totfact> 0.50170690E+00</totfact>
</mgrwt>
</event>
<event>
 5    1  0.2354746E-004  0.6222192E+03  0.7818608E-02  0.9860351E-01
         13   -1    0    0    0    0  0.00000000000E+00  0.00000000000E+00  0.10000000000E+04  0.10000000000E+04  0.00000000000E+00 0. -1.
          2   -1    0    0  501    0 -0.00000000000E+00 -0.00000000000E+00 -0.96789177274E+02  0.96789177274E+02  0.00000000000E+00 0. -1.
    9000006    2    1    2  501    0  0.00000000000E+00  0.00000000000E+00  0.90321082273E+03  0.10967891773E+04  0.62221918091E+03 0.  0.
         13    1    3    3    0    0 -0.56317524596E+02  0.11710508572E+03 -0.46663492407E+02  0.13806790431E+03  0.00000000000E+00 0. -1.
          2    1    3    3  501    0  0.56317524596E+02 -0.11710508572E+03  0.94987431513E+03  0.95872127296E+03  0.00000000000E+00 0. -1.
<mgrwt>
<rscale>  0 0.62221918E+03</rscale>
<asrwt>0</asrwt>
<pdfrwt beam="1">0</pdfrwt>
<pdfrwt beam="2">  1        2 0.35196139E+00 0.62221918E+03</pdfrwt>
<totfact> 0.59970262E+00</totfact>
</mgrwt>
</event>
<event>
 5    1  0.2354746E-004  0.6513781E+03  0.7818608E-02  0.9804197E-01
         13   -1    0    0    0    0  0.00000000000E+00  0.00000000000E+00  0.10000000000E+04  0.10000000000E+04  0.00000000000E+00 0. -1.
          2   -1    0    0  501    0 -0.00000000000E+00 -0.00000000000E+00 -0.10607336380E+03  0.10607336380E+03  0.00000000000E+00 0. -1.
    9000006    2    1    2  501    0  0.00000000000E+00  0.00000000000E+00  0.89392663620E+03  0.11060733638E+04  0.65137811998E+03 0.  0.
         13    1    3    3    0    0  0.14533623972E+03 -0.26904119723E+03  0.25660295806E+03  0.39918775841E+03  0.00000000000E+00 0. -1.
          4    1    3    3  501    0 -0.14533623972E+03  0.26904119723E+03  0.63732367815E+03  0.70688560539E+03  0.00000000000E+00 0. -1.
<mgrwt>
<rscale>  0 0.65137812E+03</rscale>
<asrwt>0</asrwt>
<pdfrwt beam="1">0</pdfrwt>
<pdfrwt beam="2">  1        2 0.38572214E+00 0.65137812E+03</pdfrwt>
<totfact> 0.45017508E+00</totfact>
</mgrwt>
</event>
<event>
 5    1  0.2354746E-004  0.6411923E+03  0.7818608E-02  0.9823448E-01
         13   -1    0    0    0    0  0.00000000000E+00  0.00000000000E+00  0.10000000000E+04  0.10000000000E+04  0.00000000000E+00 0. -1.
          2   -1    0    0  501    0 -0.00000000000E+00 -0.00000000000E+00 -0.10278188322E+03  0.10278188322E+03  0.00000000000E+00 0. -1.
    9000006    2    1    2  501    0  0.00000000000E+00  0.00000000000E+00  0.89721811678E+03  0.11027818832E+04  0.64119227450E+03 0.  0.
         13    1    3    3    0    0  0.13940987068E+03  0.23253255898E+03  0.74288354699E+03  0.79081127168E+03  0.00000000000E+00 0. -1.
          4    1    3    3  501    0 -0.13940987068E+03 -0.23253255898E+03  0.15433456979E+03  0.31197061154E+03  0.00000000000E+00 0. -1.
<mgrwt>
<rscale>  0 0.64119227E+03</rscale>
<asrwt>0</asrwt>
<pdfrwt beam="1">0</pdfrwt>
<pdfrwt beam="2">  1        2 0.37375309E+00 0.64119227E+03</pdfrwt>
<totfact> 0.49874516E+00</totfact>
</mgrwt>
</event>
<event>
 5    1  0.2354746E-004  0.6455161E+03  0.7818608E-02  0.9815230E-01
         13   -1    0    0    0    0  0.00000000000E+00  0.00000000000E+00  0.10000000000E+04  0.10000000000E+04  0.00000000000E+00 0. -1.
          2   -1    0    0  501    0 -0.00000000000E+00 -0.00000000000E+00 -0.10417274734E+03  0.10417274734E+03  0.00000000000E+00 0. -1.
    9000006    2    1    2  501    0  0.00000000000E+00  0.00000000000E+00  0.89582725266E+03  0.11041727473E+04  0.64551606436E+03 0.  0.
         13    1    3    3    0    0  0.28595481718E+03  0.47260649866E+02  0.69083871877E+03  0.74917411984E+03  0.00000000000E+00 0. -1.
          4    1    3    3  501    0 -0.28595481718E+03 -0.47260649866E+02  0.20498853390E+03  0.35499862750E+03  0.00000000000E+00 0. -1.
<mgrwt>
<rscale>  0 0.64551606E+03</rscale>
<asrwt>0</asrwt>
<pdfrwt beam="1">0</pdfrwt>
<pdfrwt beam="2">  1        2 0.37881079E+00 0.64551606E+03</pdfrwt>
<totfact> 0.47766692E+00</totfact>
</mgrwt>
</event>
<event>
 5    1  0.2354746E-004  0.5976241E+03  0.7818608E-02  0.9910348E-01
         13   -1    0    0    0    0  0.00000000000E+00  0.00000000000E+00  0.10000000000E+04  0.10000000000E+04  0.00000000000E+00 0. -1.
          2   -1    0    0  501    0 -0.00000000000E+00 -0.00000000000E+00 -0.89288643722E+02  0.89288643722E+02  0.00000000000E+00 0. -1.
    9000006    2    1    2  501    0  0.00000000000E+00  0.00000000000E+00  0.91071135628E+03  0.10892886437E+04  0.59762410835E+03 0.  0.
         13    1    3    3    0    0  0.21322761356E+03  0.16315399176E+03  0.69442401221E+03  0.74451994530E+03  0.00000000000E+00 0. -1.
          4    1    3    3  501    0 -0.21322761356E+03 -0.16315399176E+03  0.21628734407E+03  0.34476869843E+03  0.00000000000E+00 0. -1.
<mgrwt>
<rscale>  0 0.59762411E+03</rscale>
<asrwt>0</asrwt>
<pdfrwt beam="1">0</pdfrwt>
<pdfrwt beam="2">  1        2 0.32468666E+00 0.59762411E+03</pdfrwt>
<totfact> 0.75291241E+00</totfact>
</mgrwt>
</event>
<event>
 5    1  0.2354746E-004  0.6484646E+03  0.7818608E-02  0.9809665E-01
         13   -1    0    0    0    0  0.00000000000E+00  0.00000000000E+00  0.10000000000E+04  0.10000000000E+04  0.00000000000E+00 0. -1.
          2   -1    0    0  501    0 -0.00000000000E+00 -0.00000000000E+00 -0.10512658017E+03  0.10512658017E+03  0.00000000000E+00 0. -1.
    9000006    2    1    2  501    0  0.00000000000E+00  0.00000000000E+00  0.89487341983E+03  0.11051265802E+04  0.64846458708E+03 0.  0.
         13    1    3    3    0    0 -0.31073996420E+03 -0.79817935009E+02  0.52730543273E+03  0.61723678397E+03  0.00000000000E+00 0. -1.
          4    1    3    3  501    0  0.31073996420E+03  0.79817935009E+02  0.36756798710E+03  0.48788979621E+03  0.00000000000E+00 0. -1.
<mgrwt>
<rscale>  0 0.64846459E+03</rscale>
<asrwt>0</asrwt>
<pdfrwt beam="1">0</pdfrwt>
<pdfrwt beam="2">  1        2 0.38227928E+00 0.64846459E+03</pdfrwt>
<totfact> 0.46368497E+00</totfact>
</mgrwt>
</event>
<event>
 5    1  0.2354746E-004  0.6467489E+03  0.7818608E-02  0.9812899E-01
         13   -1    0    0    0    0  0.00000000000E+00  0.00000000000E+00  0.10000000000E+04  0.10000000000E+04  0.00000000000E+00 0. -1.
          2   -1    0    0  501    0 -0.00000000000E+00 -0.00000000000E+00 -0.10457102102E+03  0.10457102102E+03  0.00000000000E+00 0. -1.
    9000006    2    1    2  501    0  0.00000000000E+00  0.00000000000E+00  0.89542897898E+03  0.11045710210E+04  0.64674885705E+03 0.  0.
         13    1    3    3    0    0  0.17682934648E+03  0.26994572353E+03  0.41222875271E+03  0.52351872554E+03  0.00000000000E+00 0. -1.
          4    1    3    3  501    0 -0.17682934648E+03 -0.26994572353E+03  0.48320022627E+03  0.58105229549E+03  0.00000000000E+00 0. -1.
<mgrwt>
<rscale>  0 0.64674886E+03</rscale>
<asrwt>0</asrwt>
<pdfrwt beam="1">0</pdfrwt>
<pdfrwt beam="2">  1        2 0.38025906E+00 0.64674886E+03</pdfrwt>
<totfact> 0.47178276E+00</totfact>
</mgrwt>
</event>
<event>
 5    1  0.2354746E-004  0.6488183E+03  0.7818608E-02  0.9808999E-01
         13   -1    0    0    0    0  0.00000000000E+00  0.00000000000E+00  0.10000000000E+04  0.10000000000E+04  0.00000000000E+00 0. -1.
          2   -1    0    0  501    0 -0.00000000000E+00 -0.00000000000E+00 -0.10524130149E+03  0.10524130149E+03  0.00000000000E+00 0. -1.
    9000006    2    1    2  501    0  0.00000000000E+00  0.00000000000E+00  0.89475869851E+03  0.11052413015E+04  0.64881831506E+03 0.  0.
         13    1    3    3    0    0 -0.95293560556E+02 -0.25856174806E+03  0.73899727273E+03  0.78870273827E+03  0.00000000000E+00 0. -1.
          2    1    3    3  501    0  0.95293560556E+02  0.25856174806E+03  0.15576142578E+03  0.31653856322E+03  0.00000000000E+00 0. -1.
<mgrwt>
<rscale>  0 0.64881832E+03</rscale>
<asrwt>0</asrwt>
<pdfrwt beam="1">0</pdfrwt>
<pdfrwt beam="2">  1        2 0.38269645E+00 0.64881832E+03</pdfrwt>
<totfact> 0.46202862E+00</totfact>
</mgrwt>
</event>
<event>
 5    1  0.2354746E-004  0.6479871E+03  0.7818608E-02  0.9810564E-01
         13   -1    0    0    0    0  0.00000000000E+00  0.00000000000E+00  0.10000000000E+04  0.10000000000E+04  0.00000000000E+00 0. -1.
          2   -1    0    0  501    0 -0.00000000000E+00 -0.00000000000E+00 -0.10497183391E+03  0.10497183391E+03  0.00000000000E+00 0. -1.
    9000006    2    1    2  501    0  0.00000000000E+00  0.00000000000E+00  0.89502816609E+03  0.11049718339E+04  0.64798714156E+03 0.  0.
         13    1    3    3    0    0  0.45798165388E+02 -0.30103946714E+02  0.99203806780E+03  0.99355082785E+03  0.00000000000E+00 0. -1.
          2    1    3    3  501    0 -0.45798165388E+02  0.30103946714E+02 -0.97009901709E+02  0.11142100606E+03  0.00000000000E+00 0. -1.
<mgrwt>
<rscale>  0 0.64798714E+03</rscale>
<asrwt>0</asrwt>
<pdfrwt beam="1">0</pdfrwt>
<pdfrwt beam="2">  1        2 0.38171656E+00 0.64798714E+03</pdfrwt>
<totfact> 0.46592775E+00</totfact>
</mgrwt>
</event>
<event>
 5    1  0.2354746E-004  0.6265851E+03  0.7818608E-02  0.9851736E-01
         13   -1    0    0    0    0  0.00000000000E+00  0.00000000000E+00  0.10000000000E+04  0.10000000000E+04  0.00000000000E+00 0. -1.
          2   -1    0    0  501    0 -0.00000000000E+00 -0.00000000000E+00 -0.98152211028E+02  0.98152211028E+02  0.00000000000E+00 0. -1.
    9000006    2    1    2  501    0  0.00000000000E+00  0.00000000000E+00  0.90184778897E+03  0.10981522110E+04  0.62658506534E+03 0.  0.
         13    1    3    3    0    0  0.15956132839E+03  0.38441154206E+02 -0.16775963155E+02  0.16498173473E+03  0.00000000000E+00 0. -1.
          4    1    3    3  501    0 -0.15956132839E+03 -0.38441154206E+02  0.91862375213E+03  0.93317047630E+03  0.00000000000E+00 0. -1.
<mgrwt>
<rscale>  0 0.62658507E+03</rscale>
<asrwt>0</asrwt>
<pdfrwt beam="1">0</pdfrwt>
<pdfrwt beam="2">  1        2 0.35691788E+00 0.62658507E+03</pdfrwt>
<totfact> 0.57520821E+00</totfact>
</mgrwt>
</event>
<event>
 5    1  0.2354746E-004  0.5409519E+03  0.7818608E-02  0.1003610E+00
         13   -1    0    0    0    0  0.00000000000E+00  0.00000000000E+00  0.10000000000E+04  0.10000000000E+04  0.00000000000E+00 0. -1.
          2   -1    0    0  501    0 -0.00000000000E+00 -0.00000000000E+00 -0.73157248173E+02  0.73157248173E+02  0.00000000000E+00 0. -1.
    9000006    2    1    2  501    0  0.00000000000E+00  0.00000000000E+00  0.92684275183E+03  0.10731572482E+04  0.54095193196E+03 0.  0.
         13    1    3    3    0    0 -0.13893084727E+03  0.13262998680E+03  0.84120841787E+03  0.86285809726E+03  0.00000000000E+00 0. -1.
          4    1    3    3  501    0  0.13893084727E+03 -0.13262998680E+03  0.85634333957E+02  0.21029915091E+03  0.00000000000E+00 0. -1.
<mgrwt>
<rscale>  0 0.54095193E+03</rscale>
<asrwt>0</asrwt>
<pdfrwt beam="1">0</pdfrwt>
<pdfrwt beam="2">  1        2 0.26602692E+00 0.54095193E+03</pdfrwt>
<totfact> 0.12211478E+01</totfact>
</mgrwt>
</event>
<event>
 5    1  0.2354746E-004  0.5528055E+03  0.7818608E-02  0.1000847E+00
         13   -1    0    0    0    0  0.00000000000E+00  0.00000000000E+00  0.10000000000E+04  0.10000000000E+04  0.00000000000E+00 0. -1.
          2   -1    0    0  501    0 -0.00000000000E+00 -0.00000000000E+00 -0.76398468781E+02  0.76398468781E+02  0.00000000000E+00 0. -1.
    9000006    2    1    2  501    0  0.00000000000E+00  0.00000000000E+00  0.92360153122E+03  0.10763984688E+04  0.55280545866E+03 0.  0.
         13    1    3    3    0    0  0.16103051768E+02  0.95251129546E+02 -0.42457691067E+02  0.10552128452E+03  0.00000000000E+00 0. -1.
          4    1    3    3  501    0 -0.16103051768E+02 -0.95251129546E+02  0.96605922229E+03  0.97087718426E+03  0.00000000000E+00 0. -1.
<mgrwt>
<rscale>  0 0.55280546E+03</rscale>
<asrwt>0</asrwt>
<pdfrwt beam="1">0</pdfrwt>
<pdfrwt beam="2">  1        2 0.27781320E+00 0.55280546E+03</pdfrwt>
<totfact> 0.11082240E+01</totfact>
</mgrwt>
</event>
<event>
 5    1  0.2354746E-004  0.6414121E+03  0.7818608E-02  0.9823029E-01
         13   -1    0    0    0    0  0.00000000000E+00  0.00000000000E+00  0.10000000000E+04  0.10000000000E+04  0.00000000000E+00 0. -1.
          2   -1    0    0  501    0 -0.00000000000E+00 -0.00000000000E+00 -0.10285235506E+03  0.10285235506E+03  0.00000000000E+00 0. -1.
    9000006    2    1    2  501    0  0.00000000000E+00  0.00000000000E+00  0.89714764494E+03  0.11028523551E+04  0.64141205182E+03 0.  0.
         13    1    3    3    0    0 -0.24101586046E+03 -0.21078613545E+03  0.41720147255E+03  0.52590541790E+03  0.00000000000E+00 0. -1.
          2    1    3    3  501    0  0.24101586046E+03  0.21078613545E+03  0.47994617240E+03  0.57694693715E+03  0.00000000000E+00 0. -1.
<mgrwt>
<rscale>  0 0.64141205E+03</rscale>
<asrwt>0</asrwt>
<pdfrwt beam="1">0</pdfrwt>
<pdfrwt beam="2">  1        2 0.37400935E+00 0.64141205E+03</pdfrwt>
<totfact> 0.49765701E+00</totfact>
</mgrwt>
</event>
<event>
 5    1  0.2354746E-004  0.6447905E+03  0.7818608E-02  0.9816604E-01
         13   -1    0    0    0    0  0.00000000000E+00  0.00000000000E+00  0.10000000000E+04  0.10000000000E+04  0.00000000000E+00 0. -1.
          2   -1    0    0  501    0 -0.00000000000E+00 -0.00000000000E+00 -0.10393869858E+03  0.10393869858E+03  0.00000000000E+00 0. -1.
    9000006    2    1    2  501    0  0.00000000000E+00  0.00000000000E+00  0.89606130142E+03  0.11039386986E+04  0.64479050420E+03 0.  0.
         13    1    3    3    0    0  0.16174164646E+03 -0.18181080651E+03  0.85960594454E+02  0.25807896730E+03  0.00000000000E+00 0. -1.
          4    1    3    3  501    0 -0.16174164646E+03  0.18181080651E+03  0.81010070697E+03  0.84585973128E+03  0.00000000000E+00 0. -1.
<mgrwt>
<rscale>  0 0.64479050E+03</rscale>
<asrwt>0</asrwt>
<pdfrwt beam="1">0</pdfrwt>
<pdfrwt beam="2">  1        2 0.37795970E+00 0.64479050E+03</pdfrwt>
<totfact> 0.48115589E+00</totfact>
</mgrwt>
</event>
<event>
 5    1  0.2354746E-004  0.6613709E+03  0.7818608E-02  0.9785673E-01
         13   -1    0    0    0    0  0.00000000000E+00  0.00000000000E+00  0.10000000000E+04  0.10000000000E+04  0.00000000000E+00 0. -1.
          2   -1    0    0  501    0 -0.00000000000E+00 -0.00000000000E+00 -0.10935285507E+03  0.10935285507E+03  0.00000000000E+00 0. -1.
    9000006    2    1    2  501    0  0.00000000000E+00  0.00000000000E+00  0.89064714493E+03  0.11093528551E+04  0.66137086439E+03 0.  0.
         13    1    3    3    0    0 -0.12858274584E+03 -0.29699495248E+03  0.33139518719E+03  0.46320869425E+03  0.00000000000E+00 0. -1.
          4    1    3    3  501    0  0.12858274584E+03  0.29699495248E+03  0.55925195774E+03  0.64614416082E+03  0.00000000000E+00 0. -1.
<mgrwt>
<rscale>  0 0.66137086E+03</rscale>
<asrwt>0</asrwt>
<pdfrwt beam="1">0</pdfrwt>
<pdfrwt beam="2">  1        2 0.39764758E+00 0.66137086E+03</pdfrwt>
<totfact> 0.40608760E+00</totfact>
</mgrwt>
</event>
<event>
 5    1  0.2354746E-004  0.6426461E+03  0.7818608E-02  0.9820677E-01
         13   -1    0    0    0    0  0.00000000000E+00  0.00000000000E+00  0.10000000000E+04  0.10000000000E+04  0.00000000000E+00 0. -1.
          2   -1    0    0  501    0 -0.00000000000E+00 -0.00000000000E+00 -0.10324849489E+03  0.10324849489E+03  0.00000000000E+00 0. -1.
    9000006    2    1    2  501    0  0.00000000000E+00  0.00000000000E+00  0.89675150511E+03  0.11032484949E+04  0.64264607643E+03 0.  0.
         13    1    3    3    0    0  0.24746562295E+03  0.69827530217E+02  0.77918961730E+03  0.82051909071E+03  0.00000000000E+00 0. -1.
          4    1    3    3  501    0 -0.24746562295E+03 -0.69827530217E+02  0.11756188781E+03  0.28272940418E+03  0.00000000000E+00 0. -1.
<mgrwt>
<rscale>  0 0.64264608E+03</rscale>
<asrwt>0</asrwt>
<pdfrwt beam="1">0</pdfrwt>
<pdfrwt beam="2">  1        2 0.37544986E+00 0.64264608E+03</pdfrwt>
<totfact> 0.49158056E+00</totfact>
</mgrwt>
</event>
<event>
 5    1  0.2354746E-004  0.6591305E+03  0.7818608E-02  0.9789796E-01
         13   -1    0    0    0    0  0.00000000000E+00  0.00000000000E+00  0.10000000000E+04  0.10000000000E+04  0.00000000000E+00 0. -1.
          2   -1    0    0  501    0 -0.00000000000E+00 -0.00000000000E+00 -0.10861325463E+03  0.10861325463E+03  0.00000000000E+00 0. -1.
    9000006    2    1    2  501    0  0.00000000000E+00  0.00000000000E+00  0.89138674537E+03  0.11086132546E+04  0.65913050188E+03 0.  0.
         13    1    3    3    0    0  0.23741852735E+03  0.12616100507E+03  0.12511371077E+03  0.29654274051E+03  0.00000000000E+00 0. -1.
          2    1    3    3  501    0 -0.23741852735E+03 -0.12616100507E+03  0.76627303461E+03  0.81207051412E+03  0.00000000000E+00 0. -1.
<mgrwt>
<rscale>  0 0.65913050E+03</rscale>
<asrwt>0</asrwt>
<pdfrwt beam="1">0</pdfrwt>
<pdfrwt beam="2">  1        2 0.39495812E+00 0.65913050E+03</pdfrwt>
<totfact> 0.41567451E+00</totfact>
</mgrwt>
</event>
<event>
 5    1  0.2354746E-004  0.6507385E+03  0.7818608E-02  0.9805394E-01
         13   -1    0    0    0    0  0.00000000000E+00  0.00000000000E+00  0.10000000000E+04  0.10000000000E+04  0.00000000000E+00 0. -1.
          2   -1    0    0  501    0 -0.00000000000E+00 -0.00000000000E+00 -0.10586514339E+03  0.10586514339E+03  0.00000000000E+00 0. -1.
    9000006    2    1    2  501    0  0.00000000000E+00  0.00000000000E+00  0.89413485661E+03  0.11058651434E+04  0.65073848324E+03 0.  0.
         13    1    3    3    0    0  0.85401816660E+02  0.19103852240E+03  0.87047379801E+03  0.89527304234E+03  0.00000000000E+00 0. -1.
          4    1    3    3  501    0 -0.85401816660E+02 -0.19103852240E+03  0.23661058603E+02  0.21059210105E+03  0.00000000000E+00 0. -1.
<mgrwt>
<rscale>  0 0.65073848E+03</rscale>
<asrwt>0</asrwt>
<pdfrwt beam="1">0</pdfrwt>
<pdfrwt beam="2">  1        2 0.38496497E+00 0.65073848E+03</pdfrwt>
<totfact> 0.45311522E+00</totfact>
</mgrwt>
</event>
<event>
 5    1  0.2354746E-004  0.6568234E+03  0.7818608E-02  0.9794059E-01
         13   -1    0    0    0    0  0.00000000000E+00  0.00000000000E+00  0.10000000000E+04  0.10000000000E+04  0.00000000000E+00 0. -1.
          2   -1    0    0  501    0 -0.00000000000E+00 -0.00000000000E+00 -0.10785425123E+03  0.10785425123E+03  0.00000000000E+00 0. -1.
    9000006    2    1    2  501    0  0.00000000000E+00  0.00000000000E+00  0.89214574877E+03  0.11078542512E+04  0.65682341990E+03 0.  0.
         13    1    3    3    0    0  0.87562390972E+01 -0.29828614573E+03  0.67735765181E+03  0.74017881956E+03  0.00000000000E+00 0. -1.
          2    1    3    3  501    0 -0.87562390972E+01  0.29828614573E+03  0.21478809696E+03  0.36767543167E+03  0.00000000000E+00 0. -1.
<mgrwt>
<rscale>  0 0.65682342E+03</rscale>
<asrwt>0</asrwt>
<pdfrwt beam="1">0</pdfrwt>
<pdfrwt beam="2">  1        2 0.39219810E+00 0.65682342E+03</pdfrwt>
<totfact> 0.42572502E+00</totfact>
</mgrwt>
</event>
<event>
 5    1  0.2354746E-004  0.6518443E+03  0.7818608E-02  0.9803325E-01
         13   -1    0    0    0    0  0.00000000000E+00  0.00000000000E+00  0.10000000000E+04  0.10000000000E+04  0.00000000000E+00 0. -1.
          2   -1    0    0  501    0 -0.00000000000E+00 -0.00000000000E+00 -0.10622523672E+03  0.10622523672E+03  0.00000000000E+00 0. -1.
    9000006    2    1    2  501    0  0.00000000000E+00  0.00000000000E+00  0.89377476328E+03  0.11062252367E+04  0.65184426581E+03 0.  0.
         13    1    3    3    0    0 -0.29234347813E+03 -0.14360758678E+03  0.46677922142E+03  0.56918423181E+03  0.00000000000E+00 0. -1.
          2    1    3    3  501    0  0.29234347813E+03  0.14360758678E+03  0.42699554186E+03  0.53704100491E+03  0.00000000000E+00 0. -1.
<mgrwt>
<rscale>  0 0.65184427E+03</rscale>
<asrwt>0</asrwt>
<pdfrwt beam="1">0</pdfrwt>
<pdfrwt beam="2">  1        2 0.38627440E+00 0.65184427E+03</pdfrwt>
<totfact> 0.44804151E+00</totfact>
</mgrwt>
</event>
<event>
 5    1  0.2354746E-004  0.6542160E+03  0.7818608E-02  0.9798900E-01
         13   -1    0    0    0    0  0.00000000000E+00  0.00000000000E+00  0.10000000000E+04  0.10000000000E+04  0.00000000000E+00 0. -1.
          2   -1    0    0  501    0 -0.00000000000E+00 -0.00000000000E+00 -0.10699964581E+03  0.10699964581E+03  0.00000000000E+00 0. -1.
    9000006    2    1    2  501    0  0.00000000000E+00  0.00000000000E+00  0.89300035419E+03  0.11069996458E+04  0.65421600657E+03 0.  0.
         13    1    3    3    0    0  0.24797436119E+03  0.14138238394E+03  0.17619061711E+03  0.33544507129E+03  0.00000000000E+00 0. -1.
          2    1    3    3  501    0 -0.24797436119E+03 -0.14138238394E+03  0.71680973708E+03  0.77155457452E+03  0.00000000000E+00 0. -1.
<mgrwt>
<rscale>  0 0.65421601E+03</rscale>
<asrwt>0</asrwt>
<pdfrwt beam="1">0</pdfrwt>
<pdfrwt beam="2">  1        2 0.38909044E+00 0.65421601E+03</pdfrwt>
<totfact> 0.43730399E+00</totfact>
</mgrwt>
</event>
<event>
 5    1  0.2354746E-004  0.6799253E+03  0.7818608E-02  0.9752192E-01
         13   -1    0    0    0    0  0.00000000000E+00  0.00000000000E+00  0.10000000000E+04  0.10000000000E+04  0.00000000000E+00 0. -1.
          2   -1    0    0  501    0 -0.00000000000E+00 -0.00000000000E+00 -0.11557460197E+03  0.11557460197E+03  0.00000000000E+00 0. -1.
    9000006    2    1    2  501    0  0.00000000000E+00  0.00000000000E+00  0.88442539803E+03  0.11155746020E+04  0.67992529581E+03 0.  0.
         13    1    3    3    0    0 -0.21634729474E+03 -0.95251425855E+02  0.41338008163E+02  0.23997461738E+03  0.00000000000E+00 0. -1.
          4    1    3    3  501    0  0.21634729474E+03  0.95251425855E+02  0.84308738987E+03  0.87559998459E+03  0.00000000000E+00 0. -1.
<mgrwt>
<rscale>  0 0.67992530E+03</rscale>
<asrwt>0</asrwt>
<pdfrwt beam="1">0</pdfrwt>
<pdfrwt beam="2">  1        2 0.42027217E+00 0.67992530E+03</pdfrwt>
<totfact> 0.33295268E+00</totfact>
</mgrwt>
</event>
<event>
 5    1  0.2354746E-004  0.6351742E+03  0.7818608E-02  0.9835003E-01
         13   -1    0    0    0    0  0.00000000000E+00  0.00000000000E+00  0.10000000000E+04  0.10000000000E+04  0.00000000000E+00 0. -1.
          2   -1    0    0  501    0 -0.00000000000E+00 -0.00000000000E+00 -0.10086156918E+03  0.10086156918E+03  0.00000000000E+00 0. -1.
    9000006    2    1    2  501    0  0.00000000000E+00  0.00000000000E+00  0.89913843082E+03  0.11008615692E+04  0.63517420973E+03 0.  0.
         13    1    3    3    0    0  0.14444670462E+02 -0.30948838451E+03  0.57051705533E+03  0.64921600340E+03  0.00000000000E+00 0. -1.
          2    1    3    3  501    0 -0.14444670462E+02  0.30948838451E+03  0.32862137549E+03  0.45164556577E+03  0.00000000000E+00 0. -1.
<mgrwt>
<rscale>  0 0.63517421E+03</rscale>
<asrwt>0</asrwt>
<pdfrwt beam="1">0</pdfrwt>
<pdfrwt beam="2">  1        2 0.36677012E+00 0.63517421E+03</pdfrwt>
<totfact> 0.52924817E+00</totfact>
</mgrwt>
</event>
<event>
 5    1  0.2354746E-004  0.6485755E+03  0.7818608E-02  0.9809456E-01
         13   -1    0    0    0    0  0.00000000000E+00  0.00000000000E+00  0.10000000000E+04  0.10000000000E+04  0.00000000000E+00 0. -1.
          2   -1    0    0  501    0 -0.00000000000E+00 -0.00000000000E+00 -0.10516253842E+03  0.10516253842E+03  0.00000000000E+00 0. -1.
    9000006    2    1    2  501    0  0.00000000000E+00  0.00000000000E+00  0.89483746158E+03  0.11051625384E+04  0.64857548031E+03 0.  0.
         13    1    3    3    0    0  0.17981604082E+03 -0.16293202170E+02 -0.11593255467E+02  0.18092451616E+03  0.00000000000E+00 0. -1.
          4    1    3    3  501    0 -0.17981604082E+03  0.16293202170E+02  0.90643071705E+03  0.92423802226E+03  0.00000000000E+00 0. -1.
<mgrwt>
<rscale>  0 0.64857548E+03</rscale>
<asrwt>0</asrwt>
<pdfrwt beam="1">0</pdfrwt>
<pdfrwt beam="2">  1        2 0.38241004E+00 0.64857548E+03</pdfrwt>
<totfact> 0.46316522E+00</totfact>
</mgrwt>
</event>
<event>
 5    1  0.2354746E-004  0.6027748E+03  0.7818608E-02  0.9899666E-01
         13   -1    0    0    0    0  0.00000000000E+00  0.00000000000E+00  0.10000000000E+04  0.10000000000E+04  0.00000000000E+00 0. -1.
          2   -1    0    0  501    0 -0.00000000000E+00 -0.00000000000E+00 -0.90834351350E+02  0.90834351350E+02  0.00000000000E+00 0. -1.
    9000006    2    1    2  501    0  0.00000000000E+00  0.00000000000E+00  0.90916564865E+03  0.10908343514E+04  0.60277475511E+03 0.  0.
         13    1    3    3    0    0  0.20235235614E+03 -0.59142039296E+02  0.84435997734E+03  0.87028043077E+03  0.00000000000E+00 0. -1.
          4    1    3    3  501    0 -0.20235235614E+03  0.59142039296E+02  0.64805671309E+02  0.22055392058E+03  0.00000000000E+00 0. -1.
<mgrwt>
<rscale>  0 0.60277476E+03</rscale>
<asrwt>0</asrwt>
<pdfrwt beam="1">0</pdfrwt>
<pdfrwt beam="2">  1        2 0.33030743E+00 0.60277476E+03</pdfrwt>
<totfact> 0.71859627E+00</totfact>
</mgrwt>
</event>
<event>
 5    1  0.2354746E-004  0.6419518E+03  0.7818608E-02  0.9821999E-01
         13   -1    0    0    0    0  0.00000000000E+00  0.00000000000E+00  0.10000000000E+04  0.10000000000E+04  0.00000000000E+00 0. -1.
          2   -1    0    0  501    0 -0.00000000000E+00 -0.00000000000E+00 -0.10302553986E+03  0.10302553986E+03  0.00000000000E+00 0. -1.
    9000006    2    1    2  501    0  0.00000000000E+00  0.00000000000E+00  0.89697446014E+03  0.11030255399E+04  0.64195183576E+03 0.  0.
         13    1    3    3    0    0 -0.19560893270E+03  0.16557107646E+03  0.78055142802E+03  0.82154559684E+03  0.00000000000E+00 0. -1.
          2    1    3    3  501    0  0.19560893270E+03 -0.16557107646E+03  0.11642303212E+03  0.28147994301E+03  0.00000000000E+00 0. -1.
<mgrwt>
<rscale>  0 0.64195184E+03</rscale>
<asrwt>0</asrwt>
<pdfrwt beam="1">0</pdfrwt>
<pdfrwt beam="2">  1        2 0.37463912E+00 0.64195184E+03</pdfrwt>
<totfact> 0.49499211E+00</totfact>
</mgrwt>
</event>
<event>
 5    1  0.2354746E-004  0.6521900E+03  0.7818608E-02  0.9802678E-01
         13   -1    0    0    0    0  0.00000000000E+00  0.00000000000E+00  0.10000000000E+04  0.10000000000E+04  0.00000000000E+00 0. -1.
          2   -1    0    0  501    0 -0.00000000000E+00 -0.00000000000E+00 -0.10633795913E+03  0.10633795913E+03  0.00000000000E+00 0. -1.
    9000006    2    1    2  501    0  0.00000000000E+00  0.00000000000E+00  0.89366204087E+03  0.11063379591E+04  0.65219003098E+03 0.  0.
         13    1    3    3    0    0 -0.15794014530E+03  0.12526111795E+03  0.88164618037E+03  0.90439782426E+03  0.00000000000E+00 0. -1.
          4    1    3    3  501    0  0.15794014530E+03 -0.12526111795E+03  0.12015860498E+02  0.20194013486E+03  0.00000000000E+00 0. -1.
<mgrwt>
<rscale>  0 0.65219003E+03</rscale>
<asrwt>0</asrwt>
<pdfrwt beam="1">0</pdfrwt>
<pdfrwt beam="2">  1        2 0.38668430E+00 0.65219003E+03</pdfrwt>
<totfact> 0.44646387E+00</totfact>
</mgrwt>
</event>
<event>
 5    1  0.2354746E-004  0.6541682E+03  0.7818608E-02  0.9798989E-01
         13   -1    0    0    0    0  0.00000000000E+00  0.00000000000E+00  0.10000000000E+04  0.10000000000E+04  0.00000000000E+00 0. -1.
          2   -1    0    0  501    0 -0.00000000000E+00 -0.00000000000E+00 -0.10698400241E+03  0.10698400241E+03  0.00000000000E+00 0. -1.
    9000006    2    1    2  501    0  0.00000000000E+00  0.00000000000E+00  0.89301599759E+03  0.11069840024E+04  0.65416818146E+03 0.  0.
         13    1    3    3    0    0  0.11403315647E+03  0.26141193756E+03  0.71749399558E+03  0.77209934306E+03  0.00000000000E+00 0. -1.
          2    1    3    3  501    0 -0.11403315647E+03 -0.26141193756E+03  0.17552200202E+03  0.33488465934E+03  0.00000000000E+00 0. -1.
<mgrwt>
<rscale>  0 0.65416818E+03</rscale>
<asrwt>0</asrwt>
<pdfrwt beam="1">0</pdfrwt>
<pdfrwt beam="2">  1        2 0.38903356E+00 0.65416818E+03</pdfrwt>
<totfact> 0.43751856E+00</totfact>
</mgrwt>
</event>
<event>
 5    1  0.2354746E-004  0.6572515E+03  0.7818608E-02  0.9793267E-01
         13   -1    0    0    0    0  0.00000000000E+00  0.00000000000E+00  0.10000000000E+04  0.10000000000E+04  0.00000000000E+00 0. -1.
          2   -1    0    0  501    0 -0.00000000000E+00 -0.00000000000E+00 -0.10799488155E+03  0.10799488155E+03  0.00000000000E+00 0. -1.
    9000006    2    1    2  501    0  0.00000000000E+00  0.00000000000E+00  0.89200511845E+03  0.11079948816E+04  0.65725149389E+03 0.  0.
         13    1    3    3    0    0  0.21313395686E+03  0.13844270121E+02  0.24966898431E+02  0.21503742325E+03  0.00000000000E+00 0. -1.
          2    1    3    3  501    0 -0.21313395686E+03 -0.13844270121E+02  0.86703822001E+03  0.89295745831E+03  0.00000000000E+00 0. -1.
<mgrwt>
<rscale>  0 0.65725149E+03</rscale>
<asrwt>0</asrwt>
<pdfrwt beam="1">0</pdfrwt>
<pdfrwt beam="2">  1        2 0.39270949E+00 0.65725149E+03</pdfrwt>
<totfact> 0.42384639E+00</totfact>
</mgrwt>
</event>
<event>
 5    1  0.2354746E-004  0.6464165E+03  0.7818608E-02  0.9813527E-01
         13   -1    0    0    0    0  0.00000000000E+00  0.00000000000E+00  0.10000000000E+04  0.10000000000E+04  0.00000000000E+00 0. -1.
          2   -1    0    0  501    0 -0.00000000000E+00 -0.00000000000E+00 -0.10446357551E+03  0.10446357551E+03  0.00000000000E+00 0. -1.
    9000006    2    1    2  501    0  0.00000000000E+00  0.00000000000E+00  0.89553642449E+03  0.11044635755E+04  0.64641650817E+03 0.  0.
         13    1    3    3    0    0  0.55709694573E+02 -0.79257292056E+02 -0.79072870078E+02  0.12505121829E+03  0.00000000000E+00 0. -1.
          4    1    3    3  501    0 -0.55709694573E+02  0.79257292056E+02  0.97460929457E+03  0.97941235722E+03  0.00000000000E+00 0. -1.
<mgrwt>
<rscale>  0 0.64641651E+03</rscale>
<asrwt>0</asrwt>
<pdfrwt beam="1">0</pdfrwt>
<pdfrwt beam="2">  1        2 0.37986835E+00 0.64641651E+03</pdfrwt>
<totfact> 0.47336365E+00</totfact>
</mgrwt>
</event>
<event>
 5    1  0.2354746E-004  0.5540361E+03  0.7818608E-02  0.1000564E+00
         13   -1    0    0    0    0  0.00000000000E+00  0.00000000000E+00  0.10000000000E+04  0.10000000000E+04  0.00000000000E+00 0. -1.
          2   -1    0    0  501    0 -0.00000000000E+00 -0.00000000000E+00 -0.76739001979E+02  0.76739001979E+02  0.00000000000E+00 0. -1.
    9000006    2    1    2  501    0  0.00000000000E+00  0.00000000000E+00  0.92326099802E+03  0.10767390020E+04  0.55403610705E+03 0.  0.
         13    1    3    3    0    0 -0.53357767859E+02  0.10416159288E+02  0.98953074821E+03  0.99102303173E+03  0.00000000000E+00 0. -1.
          4    1    3    3  501    0  0.53357767859E+02 -0.10416159288E+02 -0.66269750191E+02  0.85715970248E+02  0.00000000000E+00 0. -1.
<mgrwt>
<rscale>  0 0.55403611E+03</rscale>
<asrwt>0</asrwt>
<pdfrwt beam="1">0</pdfrwt>
<pdfrwt beam="2">  1        2 0.27905150E+00 0.55403611E+03</pdfrwt>
<totfact> 0.10969905E+01</totfact>
</mgrwt>
</event>
<event>
 5    1  0.2354746E-004  0.6557248E+03  0.7818608E-02  0.9796096E-01
         13   -1    0    0    0    0  0.00000000000E+00  0.00000000000E+00  0.10000000000E+04  0.10000000000E+04  0.00000000000E+00 0. -1.
          2   -1    0    0  501    0 -0.00000000000E+00 -0.00000000000E+00 -0.10749375451E+03  0.10749375451E+03  0.00000000000E+00 0. -1.
    9000006    2    1    2  501    0  0.00000000000E+00  0.00000000000E+00  0.89250624549E+03  0.11074937545E+04  0.65572480358E+03 0.  0.
         13    1    3    3    0    0 -0.15153591327E+03 -0.15540289923E+03  0.31233870241E+02  0.21929146985E+03  0.00000000000E+00 0. -1.
          2    1    3    3  501    0  0.15153591327E+03  0.15540289923E+03  0.86127237525E+03  0.88820228466E+03  0.00000000000E+00 0. -1.
<mgrwt>
<rscale>  0 0.65572480E+03</rscale>
<asrwt>0</asrwt>
<pdfrwt beam="1">0</pdfrwt>
<pdfrwt beam="2">  1        2 0.39088720E+00 0.65572480E+03</pdfrwt>
<totfact> 0.43057515E+00</totfact>
</mgrwt>
</event>
<event>
 5    1  0.2354746E-004  0.6451780E+03  0.7818608E-02  0.9815870E-01
         13   -1    0    0    0    0  0.00000000000E+00  0.00000000000E+00  0.10000000000E+04  0.10000000000E+04  0.00000000000E+00 0. -1.
          2   -1    0    0  501    0 -0.00000000000E+00 -0.00000000000E+00 -0.10406366060E+03  0.10406366060E+03  0.00000000000E+00 0. -1.
    9000006    2    1    2  501    0  0.00000000000E+00  0.00000000000E+00  0.89593633940E+03  0.11040636606E+04  0.64517799281E+03 0.  0.
         13    1    3    3    0    0 -0.72166852735E+02 -0.31406935963E+03  0.42281544828E+03  0.53162065479E+03  0.00000000000E+00 0. -1.
          2    1    3    3  501    0  0.72166852735E+02  0.31406935963E+03  0.47312089112E+03  0.57244300581E+03  0.00000000000E+00 0. -1.
<mgrwt>
<rscale>  0 0.64517799E+03</rscale>
<asrwt>0</asrwt>
<pdfrwt beam="1">0</pdfrwt>
<pdfrwt beam="2">  1        2 0.37841411E+00 0.64517799E+03</pdfrwt>
<totfact> 0.47929020E+00</totfact>
</mgrwt>
</event>
<event>
 5    1  0.2354746E-004  0.6470423E+03  0.7818608E-02  0.9812345E-01
         13   -1    0    0    0    0  0.00000000000E+00  0.00000000000E+00  0.10000000000E+04  0.10000000000E+04  0.00000000000E+00 0. -1.
          2   -1    0    0  501    0 -0.00000000000E+00 -0.00000000000E+00 -0.10466591865E+03  0.10466591865E+03  0.00000000000E+00 0. -1.
    9000006    2    1    2  501    0  0.00000000000E+00  0.00000000000E+00  0.89533408135E+03  0.11046659187E+04  0.64704225102E+03 0.  0.
         13    1    3    3    0    0 -0.31668969862E+03  0.62084392188E+02  0.48656404620E+03  0.58385906520E+03  0.00000000000E+00 0. -1.
          4    1    3    3  501    0  0.31668969862E+03 -0.62084392188E+02  0.40877003515E+03  0.52080685345E+03  0.00000000000E+00 0. -1.
<mgrwt>
<rscale>  0 0.64704225E+03</rscale>
<asrwt>0</asrwt>
<pdfrwt beam="1">0</pdfrwt>
<pdfrwt beam="2">  1        2 0.38060414E+00 0.64704225E+03</pdfrwt>
<totfact> 0.47039050E+00</totfact>
</mgrwt>
</event>
<event>
 5    1  0.2354746E-004  0.6498053E+03  0.7818608E-02  0.9807145E-01
         13   -1    0    0    0    0  0.00000000000E+00  0.00000000000E+00  0.10000000000E+04  0.10000000000E+04  0.00000000000E+00 0. -1.
          2   -1    0    0  501    0 -0.00000000000E+00 -0.00000000000E+00 -0.10556172050E+03  0.10556172050E+03  0.00000000000E+00 0. -1.
    9000006    2    1    2  501    0  0.00000000000E+00  0.00000000000E+00  0.89443827950E+03  0.11055617205E+04  0.64980526467E+03 0.  0.
         13    1    3    3    0    0 -0.31472900043E+03 -0.58371551484E+02  0.35248852967E+03  0.47614046802E+03  0.00000000000E+00 0. -1.
          4    1    3    3  501    0  0.31472900043E+03  0.58371551484E+02  0.54194974983E+03  0.62942125248E+03  0.00000000000E+00 0. -1.
<mgrwt>
<rscale>  0 0.64980526E+03</rscale>
<asrwt>0</asrwt>
<pdfrwt beam="1">0</pdfrwt>
<pdfrwt beam="2">  1        2 0.38386161E+00 0.64980526E+03</pdfrwt>
<totfact> 0.45743082E+00</totfact>
</mgrwt>
</event>
<event>
 5    1  0.2354746E-004  0.6639023E+03  0.7818608E-02  0.9781037E-01
         13   -1    0    0    0    0  0.00000000000E+00  0.00000000000E+00  0.10000000000E+04  0.10000000000E+04  0.00000000000E+00 0. -1.
          2   -1    0    0  501    0 -0.00000000000E+00 -0.00000000000E+00 -0.11019157735E+03  0.11019157735E+03  0.00000000000E+00 0. -1.
    9000006    2    1    2  501    0  0.00000000000E+00  0.00000000000E+00  0.88980842265E+03  0.11101915774E+04  0.66390233423E+03 0.  0.
         13    1    3    3    0    0 -0.15787470114E+02 -0.25046881171E+03  0.81575107266E+02  0.26389082587E+03  0.00000000000E+00 0. -1.
          2    1    3    3  501    0  0.15787470114E+02  0.25046881171E+03  0.80823331538E+03  0.84630075148E+03  0.00000000000E+00 0. -1.
<mgrwt>
<rscale>  0 0.66390233E+03</rscale>
<asrwt>0</asrwt>
<pdfrwt beam="1">0</pdfrwt>
<pdfrwt beam="2">  1        2 0.40069749E+00 0.66390233E+03</pdfrwt>
<totfact> 0.39545679E+00</totfact>
</mgrwt>
</event>
<event>
 5    1  0.2354746E-004  0.6516249E+03  0.7818608E-02  0.9803735E-01
         13   -1    0    0    0    0  0.00000000000E+00  0.00000000000E+00  0.10000000000E+04  0.10000000000E+04  0.00000000000E+00 0. -1.
          2   -1    0    0  501    0 -0.00000000000E+00 -0.00000000000E+00 -0.10615375091E+03  0.10615375091E+03  0.00000000000E+00 0. -1.
    9000006    2    1    2  501    0  0.00000000000E+00  0.00000000000E+00  0.89384624909E+03  0.11061537509E+04  0.65162489489E+03 0.  0.
         13    1    3    3    0    0 -0.24752395874E+03  0.91285159093E+02  0.12237632949E+03  0.29082134798E+03  0.00000000000E+00 0. -1.
          4    1    3    3  501    0  0.24752395874E+03 -0.91285159093E+02  0.77146991960E+03  0.81533240293E+03  0.00000000000E+00 0. -1.
<mgrwt>
<rscale>  0 0.65162489E+03</rscale>
<asrwt>0</asrwt>
<pdfrwt beam="1">0</pdfrwt>
<pdfrwt beam="2">  1        2 0.38601445E+00 0.65162489E+03</pdfrwt>
<totfact> 0.44904463E+00</totfact>
</mgrwt>
</event>
<event>
 5    1  0.2354746E-004  0.6555777E+03  0.7818608E-02  0.9796369E-01
         13   -1    0    0    0    0  0.00000000000E+00  0.00000000000E+00  0.10000000000E+04  0.10000000000E+04  0.00000000000E+00 0. -1.
          2   -1    0    0  501    0 -0.00000000000E+00 -0.00000000000E+00 -0.10744552546E+03  0.10744552546E+03  0.00000000000E+00 0. -1.
    9000006    2    1    2  501    0  0.00000000000E+00  0.00000000000E+00  0.89255447454E+03  0.11074455255E+04  0.65557768558E+03 0.  0.
         13    1    3    3    0    0 -0.26477844684E+03 -0.13333229575E+03  0.21001894596E+03  0.36330852545E+03  0.00000000000E+00 0. -1.
          2    1    3    3  501    0  0.26477844684E+03  0.13333229575E+03  0.68253552858E+03  0.74413700001E+03  0.00000000000E+00 0. -1.
<mgrwt>
<rscale>  0 0.65557769E+03</rscale>
<asrwt>0</asrwt>
<pdfrwt beam="1">0</pdfrwt>
<pdfrwt beam="2">  1        2 0.39071183E+00 0.65557769E+03</pdfrwt>
<totfact> 0.43122779E+00</totfact>
</mgrwt>
</event>
<event>
 5    1  0.2354746E-004  0.6324280E+03  0.7818608E-02  0.9840322E-01
         13   -1    0    0    0    0  0.00000000000E+00  0.00000000000E+00  0.10000000000E+04  0.10000000000E+04  0.00000000000E+00 0. -1.
          2   -1    0    0  501    0 -0.00000000000E+00 -0.00000000000E+00 -0.99991281060E+02  0.99991281060E+02  0.00000000000E+00 0. -1.
    9000006    2    1    2  501    0  0.00000000000E+00  0.00000000000E+00  0.90000871894E+03  0.10999912811E+04  0.63242795972E+03 0.  0.
         13    1    3    3    0    0  0.90783762142E+02 -0.11894032579E+03 -0.34521370354E+02  0.15355851516E+03  0.00000000000E+00 0. -1.
          2    1    3    3  501    0 -0.90783762142E+02  0.11894032579E+03  0.93453008929E+03  0.94643276590E+03  0.00000000000E+00 0. -1.
<mgrwt>
<rscale>  0 0.63242796E+03</rscale>
<asrwt>0</asrwt>
<pdfrwt beam="1">0</pdfrwt>
<pdfrwt beam="2">  1        2 0.36360543E+00 0.63242796E+03</pdfrwt>
<totfact> 0.54362818E+00</totfact>
</mgrwt>
</event>
<event>
 5    1  0.2354746E-004  0.6526123E+03  0.7818608E-02  0.9801890E-01
         13   -1    0    0    0    0  0.00000000000E+00  0.00000000000E+00  0.10000000000E+04  0.10000000000E+04  0.00000000000E+00 0. -1.
          2   -1    0    0  501    0 -0.00000000000E+00 -0.00000000000E+00 -0.10647569351E+03  0.10647569351E+03  0.00000000000E+00 0. -1.
    9000006    2    1    2  501    0  0.00000000000E+00  0.00000000000E+00  0.89352430649E+03  0.11064756935E+04  0.65261226930E+03 0.  0.
         13    1    3    3    0    0  0.86854334552E+02  0.30587515918E+03  0.32249080247E+03  0.45288365626E+03  0.00000000000E+00 0. -1.
          2    1    3    3  501    0 -0.86854334552E+02 -0.30587515918E+03  0.57103350402E+03  0.65359203725E+03  0.00000000000E+00 0. -1.
<mgrwt>
<rscale>  0 0.65261227E+03</rscale>
<asrwt>0</asrwt>
<pdfrwt beam="1">0</pdfrwt>
<pdfrwt beam="2">  1        2 0.38718516E+00 0.65261227E+03</pdfrwt>
<totfact> 0.44454299E+00</totfact>
</mgrwt>
</event>
<event>
 5    1  0.2354746E-004  0.6444433E+03  0.7818608E-02  0.9817262E-01
         13   -1    0    0    0    0  0.00000000000E+00  0.00000000000E+00  0.10000000000E+04  0.10000000000E+04  0.00000000000E+00 0. -1.
          2   -1    0    0  501    0 -0.00000000000E+00 -0.00000000000E+00 -0.10382680209E+03  0.10382680209E+03  0.00000000000E+00 0. -1.
    9000006    2    1    2  501    0  0.00000000000E+00  0.00000000000E+00  0.89617319791E+03  0.11038268021E+04  0.64444333214E+03 0.  0.
         13    1    3    3    0    0 -0.47096991062E+02 -0.74342616728E+02 -0.82842930361E+02  0.12086315543E+03  0.00000000000E+00 0. -1.
          2    1    3    3  501    0  0.47096991062E+02  0.74342616728E+02  0.97901612828E+03  0.98296364666E+03  0.00000000000E+00 0. -1.
<mgrwt>
<rscale>  0 0.64444333E+03</rscale>
<asrwt>0</asrwt>
<pdfrwt beam="1">0</pdfrwt>
<pdfrwt beam="2">  1        2 0.37755280E+00 0.64444333E+03</pdfrwt>
<totfact> 0.48283213E+00</totfact>
</mgrwt>
</event>
<event>
 5    1  0.2354746E-004  0.6472957E+03  0.7818608E-02  0.9811867E-01
         13   -1    0    0    0    0  0.00000000000E+00  0.00000000000E+00  0.10000000000E+04  0.10000000000E+04  0.00000000000E+00 0. -1.
          2   -1    0    0  501    0 -0.00000000000E+00 -0.00000000000E+00 -0.10474794070E+03  0.10474794070E+03  0.00000000000E+00 0. -1.
    9000006    2    1    2  501    0  0.00000000000E+00  0.00000000000E+00  0.89525205930E+03  0.11047479407E+04  0.64729573055E+03 0.  0.
         13    1    3    3    0    0  0.24332057490E+03 -0.20557179974E+03  0.34983162648E+03  0.47312454375E+03  0.00000000000E+00 0. -1.
          4    1    3    3  501    0 -0.24332057490E+03  0.20557179974E+03  0.54542043283E+03  0.63162339694E+03  0.00000000000E+00 0. -1.
<mgrwt>
<rscale>  0 0.64729573E+03</rscale>
<asrwt>0</asrwt>
<pdfrwt beam="1">0</pdfrwt>
<pdfrwt beam="2">  1        2 0.38090241E+00 0.64729573E+03</pdfrwt>
<totfact> 0.46919015E+00</totfact>
</mgrwt>
</event>
<event>
 5    1  0.2354746E-004  0.6726557E+03  0.7818608E-02  0.9765172E-01
         13   -1    0    0    0    0  0.00000000000E+00  0.00000000000E+00  0.10000000000E+04  0.10000000000E+04  0.00000000000E+00 0. -1.
          2   -1    0    0  501    0 -0.00000000000E+00 -0.00000000000E+00 -0.11311643447E+03  0.11311643447E+03  0.00000000000E+00 0. -1.
    9000006    2    1    2  501    0  0.00000000000E+00  0.00000000000E+00  0.88688356553E+03  0.11131164345E+04  0.67265573503E+03 0.  0.
         13    1    3    3    0    0  0.13835750317E+03 -0.17111976935E+03  0.86433496826E+03  0.89190790528E+03  0.00000000000E+00 0. -1.
          2    1    3    3  501    0 -0.13835750317E+03  0.17111976935E+03  0.22548597270E+02  0.22120852919E+03  0.00000000000E+00 0. -1.
<mgrwt>
<rscale>  0 0.67265574E+03</rscale>
<asrwt>0</asrwt>
<pdfrwt beam="1">0</pdfrwt>
<pdfrwt beam="2">  1        2 0.41133336E+00 0.67265574E+03</pdfrwt>
<totfact> 0.36030708E+00</totfact>
</mgrwt>
</event>
<event>
 5    1  0.2354746E-004  0.6354754E+03  0.7818608E-02  0.9834422E-01
         13   -1    0    0    0    0  0.00000000000E+00  0.00000000000E+00  0.10000000000E+04  0.10000000000E+04  0.00000000000E+00 0. -1.
          2   -1    0    0  501    0 -0.00000000000E+00 -0.00000000000E+00 -0.10095724785E+03  0.10095724785E+03  0.00000000000E+00 0. -1.
    9000006    2    1    2  501    0  0.00000000000E+00  0.00000000000E+00  0.89904275215E+03  0.11009572478E+04  0.63547540582E+03 0.  0.
         13    1    3    3    0    0  0.28649114741E+02 -0.27262241272E+03  0.72787387350E+03  0.77778154222E+03  0.00000000000E+00 0. -1.
          2    1    3    3  501    0 -0.28649114741E+02  0.27262241272E+03  0.17116887865E+03  0.32317570563E+03  0.00000000000E+00 0. -1.
<mgrwt>
<rscale>  0 0.63547541E+03</rscale>
<asrwt>0</asrwt>
<pdfrwt beam="1">0</pdfrwt>
<pdfrwt beam="2">  1        2 0.36711804E+00 0.63547541E+03</pdfrwt>
<totfact> 0.52768878E+00</totfact>
</mgrwt>
</event>
<event>
 5    1  0.2354746E-004  0.5852951E+03  0.7818608E-02  0.9936393E-01
         13   -1    0    0    0    0  0.00000000000E+00  0.00000000000E+00  0.10000000000E+04  0.10000000000E+04  0.00000000000E+00 0. -1.
          2   -1    0    0  501    0 -0.00000000000E+00 -0.00000000000E+00 -0.85642584238E+02  0.85642584238E+02  0.00000000000E+00 0. -1.
    9000006    2    1    2  501    0  0.00000000000E+00  0.00000000000E+00  0.91435741576E+03  0.10856425842E+04  0.58529508536E+03 0.  0.
         13    1    3    3    0    0 -0.15707675910E+03 -0.12692430296E+03  0.64316582222E+02  0.21194223193E+03  0.00000000000E+00 0. -1.
          4    1    3    3  501    0  0.15707675910E+03  0.12692430296E+03  0.85004083354E+03  0.87370035230E+03  0.00000000000E+00 0. -1.
<mgrwt>
<rscale>  0 0.58529509E+03</rscale>
<asrwt>0</asrwt>
<pdfrwt beam="1">0</pdfrwt>
<pdfrwt beam="2">  1        2 0.31142824E+00 0.58529509E+03</pdfrwt>
<totfact> 0.84022718E+00</totfact>
</mgrwt>
</event>
<event>
 5    1  0.2354746E-004  0.6635543E+03  0.7818608E-02  0.9781673E-01
         13   -1    0    0    0    0  0.00000000000E+00  0.00000000000E+00  0.10000000000E+04  0.10000000000E+04  0.00000000000E+00 0. -1.
          2   -1    0    0  501    0 -0.00000000000E+00 -0.00000000000E+00 -0.11007607406E+03  0.11007607406E+03  0.00000000000E+00 0. -1.
    9000006    2    1    2  501    0  0.00000000000E+00  0.00000000000E+00  0.88992392594E+03  0.11100760741E+04  0.66355429034E+03 0.  0.
         13    1    3    3    0    0 -0.27695918528E+03 -0.18136433586E+03  0.40843771492E+03  0.52575733908E+03  0.00000000000E+00 0. -1.
          2    1    3    3  501    0  0.27695918528E+03  0.18136433586E+03  0.48148621102E+03  0.58431873497E+03  0.00000000000E+00 0. -1.
<mgrwt>
<rscale>  0 0.66355429E+03</rscale>
<asrwt>0</asrwt>
<pdfrwt beam="1">0</pdfrwt>
<pdfrwt beam="2">  1        2 0.40027748E+00 0.66355429E+03</pdfrwt>
<totfact> 0.39690579E+00</totfact>
</mgrwt>
</event>
<event>
 5    1  0.2354746E-004  0.6478057E+03  0.7818608E-02  0.9810905E-01
         13   -1    0    0    0    0  0.00000000000E+00  0.00000000000E+00  0.10000000000E+04  0.10000000000E+04  0.00000000000E+00 0. -1.
          2   -1    0    0  501    0 -0.00000000000E+00 -0.00000000000E+00 -0.10491305901E+03  0.10491305901E+03  0.00000000000E+00 0. -1.
    9000006    2    1    2  501    0  0.00000000000E+00  0.00000000000E+00  0.89508694099E+03  0.11049130590E+04  0.64780570857E+03 0.  0.
         13    1    3    3    0    0 -0.20752599717E+03  0.21464671228E+03  0.23333440331E+03  0.37892637063E+03  0.00000000000E+00 0. -1.
          4    1    3    3  501    0  0.20752599717E+03 -0.21464671228E+03  0.66175253767E+03  0.72598668838E+03  0.00000000000E+00 0. -1.
<mgrwt>
<rscale>  0 0.64780571E+03</rscale>
<asrwt>0</asrwt>
<pdfrwt beam="1">0</pdfrwt>
<pdfrwt beam="2">  1        2 0.38150284E+00 0.64780571E+03</pdfrwt>
<totfact> 0.46678217E+00</totfact>
</mgrwt>
</event>
<event>
 5    1  0.2354746E-004  0.6483948E+03  0.7818608E-02  0.9809796E-01
         13   -1    0    0    0    0  0.00000000000E+00  0.00000000000E+00  0.10000000000E+04  0.10000000000E+04  0.00000000000E+00 0. -1.
          2   -1    0    0  501    0 -0.00000000000E+00 -0.00000000000E+00 -0.10510396376E+03  0.10510396376E+03  0.00000000000E+00 0. -1.
    9000006    2    1    2  501    0  0.00000000000E+00  0.00000000000E+00  0.89489603624E+03  0.11051039638E+04  0.64839482958E+03 0.  0.
         13    1    3    3    0    0 -0.10363861909E+03  0.28045629416E+03  0.23384178916E+03  0.37957697330E+03  0.00000000000E+00 0. -1.
          2    1    3    3  501    0  0.10363861909E+03 -0.28045629416E+03  0.66105424708E+03  0.72552699046E+03  0.00000000000E+00 0. -1.
<mgrwt>
<rscale>  0 0.64839483E+03</rscale>
<asrwt>0</asrwt>
<pdfrwt beam="1">0</pdfrwt>
<pdfrwt beam="2">  1        2 0.38219704E+00 0.64839483E+03</pdfrwt>
<totfact> 0.46401214E+00</totfact>
</mgrwt>
</event>
<event>
 5    1  0.2354746E-004  0.6504386E+03  0.7818608E-02  0.9805956E-01
         13   -1    0    0    0    0  0.00000000000E+00  0.00000000000E+00  0.10000000000E+04  0.10000000000E+04  0.00000000000E+00 0. -1.
          2   -1    0    0  501    0 -0.00000000000E+00 -0.00000000000E+00 -0.10576760757E+03  0.10576760757E+03  0.00000000000E+00 0. -1.
    9000006    2    1    2  501    0  0.00000000000E+00  0.00000000000E+00  0.89423239243E+03  0.11057676076E+04  0.65043864451E+03 0.  0.
         13    1    3    3    0    0 -0.24677086181E+02  0.14775844676E+03  0.93785232227E+03  0.94974127822E+03  0.00000000000E+00 0. -1.
          2    1    3    3  501    0  0.24677086181E+02 -0.14775844676E+03 -0.43619929837E+02  0.15602632935E+03  0.00000000000E+00 0. -1.
<mgrwt>
<rscale>  0 0.65043864E+03</rscale>
<asrwt>0</asrwt>
<pdfrwt beam="1">0</pdfrwt>
<pdfrwt beam="2">  1        2 0.38461029E+00 0.65043864E+03</pdfrwt>
<totfact> 0.45449843E+00</totfact>
</mgrwt>
</event>
<event>
 5    1  0.2354746E-004  0.6550432E+03  0.7818608E-02  0.9797362E-01
         13   -1    0    0    0    0  0.00000000000E+00  0.00000000000E+00  0.10000000000E+04  0.10000000000E+04  0.00000000000E+00 0. -1.
          2   -1    0    0  501    0 -0.00000000000E+00 -0.00000000000E+00 -0.10727039590E+03  0.10727039590E+03  0.00000000000E+00 0. -1.
    9000006    2    1    2  501    0  0.00000000000E+00  0.00000000000E+00  0.89272960410E+03  0.11072703959E+04  0.65504319217E+03 0.  0.
         13    1    3    3    0    0 -0.14187446472E+03 -0.70796297327E+01 -0.52488281877E+02  0.15143812146E+03  0.00000000000E+00 0. -1.
          2    1    3    3  501    0  0.14187446472E+03  0.70796297327E+01  0.94521788598E+03  0.95583227444E+03  0.00000000000E+00 0. -1.
<mgrwt>
<rscale>  0 0.65504319E+03</rscale>
<asrwt>0</asrwt>
<pdfrwt beam="1">0</pdfrwt>
<pdfrwt beam="2">  1        2 0.39007499E+00 0.65504319E+03</pdfrwt>
<totfact> 0.43360520E+00</totfact>
</mgrwt>
</event>
<event>
 5    1  0.2354746E-004  0.6609562E+03  0.7818608E-02  0.9786435E-01
         13   -1    0    0    0    0  0.00000000000E+00  0.00000000000E+00  0.10000000000E+04  0.10000000000E+04  0.00000000000E+00 0. -1.
          2   -1    0    0  501    0 -0.00000000000E+00 -0.00000000000E+00 -0.10921576984E+03  0.10921576984E+03  0.00000000000E+00 0. -1.
    9000006    2    1    2  501    0  0.00000000000E+00  0.00000000000E+00  0.89078423016E+03  0.11092157698E+04  0.66095618564E+03 0.  0.
         13    1    3    3    0    0 -0.22279078902E+03 -0.24311139205E+03  0.48204011636E+03  0.58403900418E+03  0.00000000000E+00 0. -1.
          4    1    3    3  501    0  0.22279078902E+03  0.24311139205E+03  0.40874411380E+03  0.52517676566E+03  0.00000000000E+00 0. -1.
<mgrwt>
<rscale>  0 0.66095619E+03</rscale>
<asrwt>0</asrwt>
<pdfrwt beam="1">0</pdfrwt>
<pdfrwt beam="2">  1        2 0.39714909E+00 0.66095619E+03</pdfrwt>
<totfact> 0.40784936E+00</totfact>
</mgrwt>
</event>
<event>
 5    1  0.2354746E-004  0.6553725E+03  0.7818608E-02  0.9796750E-01
         13   -1    0    0    0    0  0.00000000000E+00  0.00000000000E+00  0.10000000000E+04  0.10000000000E+04  0.00000000000E+00 0. -1.
          2   -1    0    0  501    0 -0.00000000000E+00 -0.00000000000E+00 -0.10737829091E+03  0.10737829091E+03  0.00000000000E+00 0. -1.
    9000006    2    1    2  501    0  0.00000000000E+00  0.00000000000E+00  0.89262170909E+03  0.11073782909E+04  0.65537253806E+03 0.  0.
         13    1    3    3    0    0  0.79108866525E+02  0.21959976435E+03  0.83492559604E+03  0.86693887916E+03  0.00000000000E+00 0. -1.
          4    1    3    3  501    0 -0.79108866525E+02 -0.21959976435E+03  0.57696113045E+02  0.24043941176E+03  0.00000000000E+00 0. -1.
<mgrwt>
<rscale>  0 0.65537254E+03</rscale>
<asrwt>0</asrwt>
<pdfrwt beam="1">0</pdfrwt>
<pdfrwt beam="2">  1        2 0.39046734E+00 0.65537254E+03</pdfrwt>
<totfact> 0.43213911E+00</totfact>
</mgrwt>
</event>
<event>
 5    1  0.2354746E-004  0.6683381E+03  0.7818608E-02  0.9772965E-01
         13   -1    0    0    0    0  0.00000000000E+00  0.00000000000E+00  0.10000000000E+04  0.10000000000E+04  0.00000000000E+00 0. -1.
          2   -1    0    0  501    0 -0.00000000000E+00 -0.00000000000E+00 -0.11166896253E+03  0.11166896253E+03  0.00000000000E+00 0. -1.
    9000006    2    1    2  501    0  0.00000000000E+00  0.00000000000E+00  0.88833103747E+03  0.11116689625E+04  0.66833812559E+03 0.  0.
         13    1    3    3    0    0  0.15287931392E+03  0.24920257196E+03  0.71337359278E+03  0.77095777405E+03  0.00000000000E+00 0. -1.
          4    1    3    3  501    0 -0.15287931392E+03 -0.24920257196E+03  0.17495744469E+03  0.34071118847E+03  0.00000000000E+00 0. -1.
<mgrwt>
<rscale>  0 0.66833813E+03</rscale>
<asrwt>0</asrwt>
<pdfrwt beam="1">0</pdfrwt>
<pdfrwt beam="2">  1        2 0.40606981E+00 0.66833813E+03</pdfrwt>
<totfact> 0.37733650E+00</totfact>
</mgrwt>
</event>
<event>
 5    1  0.2354746E-004  0.6594235E+03  0.7818608E-02  0.9789256E-01
         13   -1    0    0    0    0  0.00000000000E+00  0.00000000000E+00  0.10000000000E+04  0.10000000000E+04  0.00000000000E+00 0. -1.
          2   -1    0    0  501    0 -0.00000000000E+00 -0.00000000000E+00 -0.10870984474E+03  0.10870984474E+03  0.00000000000E+00 0. -1.
    9000006    2    1    2  501    0  0.00000000000E+00  0.00000000000E+00  0.89129015526E+03  0.11087098447E+04  0.65942352017E+03 0.  0.
         13    1    3    3    0    0 -0.99256185742E+02  0.22305180643E+02 -0.81662372925E+02  0.13045326613E+03  0.00000000000E+00 0. -1.
          2    1    3    3  501    0  0.99256185742E+02 -0.22305180643E+02  0.97295252819E+03  0.97825657861E+03  0.00000000000E+00 0. -1.
<mgrwt>
<rscale>  0 0.65942352E+03</rscale>
<asrwt>0</asrwt>
<pdfrwt beam="1">0</pdfrwt>
<pdfrwt beam="2">  1        2 0.39530936E+00 0.65942352E+03</pdfrwt>
<totfact> 0.41441102E+00</totfact>
</mgrwt>
</event>
<event>
 5    1  0.2354746E-004  0.4830322E+03  0.7818608E-02  0.1018305E+00
         13   -1    0    0    0    0  0.00000000000E+00  0.00000000000E+00  0.10000000000E+04  0.10000000000E+04  0.00000000000E+00 0. -1.
          2   -1    0    0  501    0 -0.00000000000E+00 -0.00000000000E+00 -0.58330038406E+02  0.58330038406E+02  0.00000000000E+00 0. -1.
    9000006    2    1    2  501    0  0.00000000000E+00  0.00000000000E+00  0.94166996159E+03  0.10583300384E+04  0.48303224905E+03 0.  0.
         13    1    3    3    0    0 -0.68219974410E+02 -0.17393575317E+03  0.13551383193E+03  0.23080643358E+03  0.00000000000E+00 0. -1.
          2    1    3    3  501    0  0.68219974410E+02  0.17393575317E+03  0.80615612967E+03  0.82752360482E+03  0.00000000000E+00 0. -1.
<mgrwt>
<rscale>  0 0.48303225E+03</rscale>
<asrwt>0</asrwt>
<pdfrwt beam="1">0</pdfrwt>
<pdfrwt beam="2">  1        2 0.21210968E+00 0.48303225E+03</pdfrwt>
<totfact> 0.19148718E+01</totfact>
</mgrwt>
</event>
<event>
 5    1  0.2354746E-004  0.6467116E+03  0.7818608E-02  0.9812969E-01
         13   -1    0    0    0    0  0.00000000000E+00  0.00000000000E+00  0.10000000000E+04  0.10000000000E+04  0.00000000000E+00 0. -1.
          2   -1    0    0  501    0 -0.00000000000E+00 -0.00000000000E+00 -0.10455896464E+03  0.10455896464E+03  0.00000000000E+00 0. -1.
    9000006    2    1    2  501    0  0.00000000000E+00  0.00000000000E+00  0.89544103536E+03  0.11045589646E+04  0.64671157293E+03 0.  0.
         13    1    3    3    0    0  0.14847639534E+03  0.62860089643E+02  0.92644480375E+03  0.94037046170E+03  0.00000000000E+00 0. -1.
          4    1    3    3  501    0 -0.14847639534E+03 -0.62860089643E+02 -0.31003768391E+02  0.16418850294E+03  0.00000000000E+00 0. -1.
<mgrwt>
<rscale>  0 0.64671157E+03</rscale>
<asrwt>0</asrwt>
<pdfrwt beam="1">0</pdfrwt>
<pdfrwt beam="2">  1        2 0.38021522E+00 0.64671157E+03</pdfrwt>
<totfact> 0.47195991E+00</totfact>
</mgrwt>
</event>
<event>
 5    1  0.2354746E-004  0.6946226E+03  0.7818608E-02  0.9726473E-01
         13   -1    0    0    0    0  0.00000000000E+00  0.00000000000E+00  0.10000000000E+04  0.10000000000E+04  0.00000000000E+00 0. -1.
          2   -1    0    0  501    0 -0.00000000000E+00 -0.00000000000E+00 -0.12062513325E+03  0.12062513325E+03  0.00000000000E+00 0. -1.
    9000006    2    1    2  501    0  0.00000000000E+00  0.00000000000E+00  0.87937486675E+03  0.11206251332E+04  0.69462258313E+03 0.  0.
         13    1    3    3    0    0 -0.16972119007E+03 -0.23175281371E+03  0.75463169028E+03  0.80745503714E+03  0.00000000000E+00 0. -1.
          4    1    3    3  501    0  0.16972119007E+03  0.23175281371E+03  0.12474317647E+03  0.31317009611E+03  0.00000000000E+00 0. -1.
<mgrwt>
<rscale>  0 0.69462258E+03</rscale>
<asrwt>0</asrwt>
<pdfrwt beam="1">0</pdfrwt>
<pdfrwt beam="2">  1        2 0.43863777E+00 0.69462258E+03</pdfrwt>
<totfact> 0.28245225E+00</totfact>
</mgrwt>
</event>
<event>
 5    1  0.2354746E-004  0.6526054E+03  0.7818608E-02  0.9801903E-01
         13   -1    0    0    0    0  0.00000000000E+00  0.00000000000E+00  0.10000000000E+04  0.10000000000E+04  0.00000000000E+00 0. -1.
          2   -1    0    0  501    0 -0.00000000000E+00 -0.00000000000E+00 -0.10647345111E+03  0.10647345111E+03  0.00000000000E+00 0. -1.
    9000006    2    1    2  501    0  0.00000000000E+00  0.00000000000E+00  0.89352654889E+03  0.11064734511E+04  0.65260539720E+03 0.  0.
         13    1    3    3    0    0  0.17535899411E+03 -0.75733350639E+02 -0.17749308787E+01  0.19102216519E+03  0.00000000000E+00 0. -1.
          2    1    3    3  501    0 -0.17535899411E+03  0.75733350639E+02  0.89530147977E+03  0.91545128592E+03  0.00000000000E+00 0. -1.
<mgrwt>
<rscale>  0 0.65260540E+03</rscale>
<asrwt>0</asrwt>
<pdfrwt beam="1">0</pdfrwt>
<pdfrwt beam="2">  1        2 0.38717700E+00 0.65260540E+03</pdfrwt>
<totfact> 0.44457420E+00</totfact>
</mgrwt>
</event>
<event>
 5    1  0.2354746E-004  0.6654611E+03  0.7818608E-02  0.9778192E-01
         13   -1    0    0    0    0  0.00000000000E+00  0.00000000000E+00  0.10000000000E+04  0.10000000000E+04  0.00000000000E+00 0. -1.
          2   -1    0    0  501    0 -0.00000000000E+00 -0.00000000000E+00 -0.11070963315E+03  0.11070963315E+03  0.00000000000E+00 0. -1.
    9000006    2    1    2  501    0  0.00000000000E+00  0.00000000000E+00  0.88929036685E+03  0.11107096331E+04  0.66546114281E+03 0.  0.
         13    1    3    3    0    0 -0.21000040758E+03 -0.24853420920E+03  0.32852441889E+03  0.46238265336E+03  0.00000000000E+00 0. -1.
          4    1    3    3  501    0  0.21000040758E+03  0.24853420920E+03  0.56076594796E+03  0.64832697979E+03  0.00000000000E+00 0. -1.
<mgrwt>
<rscale>  0 0.66546114E+03</rscale>
<asrwt>0</asrwt>
<pdfrwt beam="1">0</pdfrwt>
<pdfrwt beam="2">  1        2 0.40258133E+00 0.66546114E+03</pdfrwt>
<totfact> 0.38901592E+00</totfact>
</mgrwt>
</event>
<event>
 5    1  0.2354746E-004  0.6352223E+03  0.7818608E-02  0.9834911E-01
         13   -1    0    0    0    0  0.00000000000E+00  0.00000000000E+00  0.10000000000E+04  0.10000000000E+04  0.00000000000E+00 0. -1.
          2   -1    0    0  501    0 -0.00000000000E+00 -0.00000000000E+00 -0.10087684505E+03  0.10087684505E+03  0.00000000000E+00 0. -1.
    9000006    2    1    2  501    0  0.00000000000E+00  0.00000000000E+00  0.89912315495E+03  0.11008768451E+04  0.63522230771E+03 0.  0.
         13    1    3    3    0    0  0.27891821094E+02 -0.32652128144E+02  0.99494555055E+03  0.99587186110E+03  0.00000000000E+00 0. -1.
          4    1    3    3  501    0 -0.27891821094E+02  0.32652128144E+02 -0.95822395608E+02  0.10500498396E+03  0.00000000000E+00 0. -1.
<mgrwt>
<rscale>  0 0.63522231E+03</rscale>
<asrwt>0</asrwt>
<pdfrwt beam="1">0</pdfrwt>
<pdfrwt beam="2">  1        2 0.36682566E+00 0.63522231E+03</pdfrwt>
<totfact> 0.52899892E+00</totfact>
</mgrwt>
</event>
<event>
 5    1  0.2354746E-004  0.6405440E+03  0.7818608E-02  0.9824686E-01
         13   -1    0    0    0    0  0.00000000000E+00  0.00000000000E+00  0.10000000000E+04  0.10000000000E+04  0.00000000000E+00 0. -1.
          2   -1    0    0  501    0 -0.00000000000E+00 -0.00000000000E+00 -0.10257413869E+03  0.10257413869E+03  0.00000000000E+00 0. -1.
    9000006    2    1    2  501    0  0.00000000000E+00  0.00000000000E+00  0.89742586131E+03  0.11025741387E+04  0.64054395226E+03 0.  0.
         13    1    3    3    0    0  0.22204736982E+02  0.26677613119E+03  0.14607769038E+03  0.30496105676E+03  0.00000000000E+00 0. -1.
          2    1    3    3  501    0 -0.22204736982E+02 -0.26677613119E+03  0.75134817093E+03  0.79761308193E+03  0.00000000000E+00 0. -1.
<mgrwt>
<rscale>  0 0.64054395E+03</rscale>
<asrwt>0</asrwt>
<pdfrwt beam="1">0</pdfrwt>
<pdfrwt beam="2">  1        2 0.37299765E+00 0.64054395E+03</pdfrwt>
<totfact> 0.50196557E+00</totfact>
</mgrwt>
</event>
<event>
 5    1  0.2354746E-004  0.6497112E+03  0.7818608E-02  0.9807321E-01
         13   -1    0    0    0    0  0.00000000000E+00  0.00000000000E+00  0.10000000000E+04  0.10000000000E+04  0.00000000000E+00 0. -1.
          2   -1    0    0  501    0 -0.00000000000E+00 -0.00000000000E+00 -0.10553115508E+03  0.10553115508E+03  0.00000000000E+00 0. -1.
    9000006    2    1    2  501    0  0.00000000000E+00  0.00000000000E+00  0.89446884492E+03  0.11055311551E+04  0.64971118223E+03 0.  0.
         13    1    3    3    0    0 -0.49064767081E+02 -0.29831924556E+02  0.99129595902E+03  0.99295768966E+03  0.00000000000E+00 0. -1.
          4    1    3    3  501    0  0.49064767081E+02  0.29831924556E+02 -0.96827114096E+02  0.11257346542E+03  0.00000000000E+00 0. -1.
<mgrwt>
<rscale>  0 0.64971118E+03</rscale>
<asrwt>0</asrwt>
<pdfrwt beam="1">0</pdfrwt>
<pdfrwt beam="2">  1        2 0.38375046E+00 0.64971118E+03</pdfrwt>
<totfact> 0.45786761E+00</totfact>
</mgrwt>
</event>
<event>
 5    1  0.2354746E-004  0.6530789E+03  0.7818608E-02  0.9801019E-01
         13   -1    0    0    0    0  0.00000000000E+00  0.00000000000E+00  0.10000000000E+04  0.10000000000E+04  0.00000000000E+00 0. -1.
          2   -1    0    0  501    0 -0.00000000000E+00 -0.00000000000E+00 -0.10662801644E+03  0.10662801644E+03  0.00000000000E+00 0. -1.
    9000006    2    1    2  501    0  0.00000000000E+00  0.00000000000E+00  0.89337198356E+03  0.11066280164E+04  0.65307891234E+03 0.  0.
         13    1    3    3    0    0  0.84513985715E+02 -0.25268275784E+03  0.76656483135E+03  0.81154964762E+03  0.00000000000E+00 0. -1.
          4    1    3    3  501    0 -0.84513985715E+02  0.25268275784E+03  0.12680715222E+03  0.29507836882E+03  0.00000000000E+00 0. -1.
<mgrwt>
<rscale>  0 0.65307891E+03</rscale>
<asrwt>0</asrwt>
<pdfrwt beam="1">0</pdfrwt>
<pdfrwt beam="2">  1        2 0.38773906E+00 0.65307891E+03</pdfrwt>
<totfact> 0.44242737E+00</totfact>
</mgrwt>
</event>
<event>
 5    1  0.2354746E-004  0.6345184E+03  0.7818608E-02  0.9836271E-01
         13   -1    0    0    0    0  0.00000000000E+00  0.00000000000E+00  0.10000000000E+04  0.10000000000E+04  0.00000000000E+00 0. -1.
          2   -1    0    0  501    0 -0.00000000000E+00 -0.00000000000E+00 -0.10065341327E+03  0.10065341327E+03  0.00000000000E+00 0. -1.
    9000006    2    1    2  501    0  0.00000000000E+00  0.00000000000E+00  0.89934658673E+03  0.11006534133E+04  0.63451844187E+03 0.  0.
         13    1    3    3    0    0 -0.14934691154E+03 -0.27787709930E+03  0.39127965275E+03  0.50261312056E+03  0.00000000000E+00 0. -1.
          4    1    3    3  501    0  0.14934691154E+03  0.27787709930E+03  0.50806693398E+03  0.59804029271E+03  0.00000000000E+00 0. -1.
<mgrwt>
<rscale>  0 0.63451844E+03</rscale>
<asrwt>0</asrwt>
<pdfrwt beam="1">0</pdfrwt>
<pdfrwt beam="2">  1        2 0.36601318E+00 0.63451844E+03</pdfrwt>
<totfact> 0.53265539E+00</totfact>
</mgrwt>
</event>
<event>
 5    1  0.2354746E-004  0.6348494E+03  0.7818608E-02  0.9835631E-01
         13   -1    0    0    0    0  0.00000000000E+00  0.00000000000E+00  0.10000000000E+04  0.10000000000E+04  0.00000000000E+00 0. -1.
          2   -1    0    0  501    0 -0.00000000000E+00 -0.00000000000E+00 -0.10075844057E+03  0.10075844057E+03  0.00000000000E+00 0. -1.
    9000006    2    1    2  501    0  0.00000000000E+00  0.00000000000E+00  0.89924155943E+03  0.11007584406E+04  0.63484940125E+03 0.  0.
         13    1    3    3    0    0 -0.22384387596E+03  0.14837178997E+03  0.15619791402E+03  0.31067355409E+03  0.00000000000E+00 0. -1.
          2    1    3    3  501    0  0.22384387596E+03 -0.14837178997E+03  0.74304364541E+03  0.79008488648E+03  0.00000000000E+00 0. -1.
<mgrwt>
<rscale>  0 0.63484940E+03</rscale>
<asrwt>0</asrwt>
<pdfrwt beam="1">0</pdfrwt>
<pdfrwt beam="2">  1        2 0.36639510E+00 0.63484940E+03</pdfrwt>
<totfact> 0.53093373E+00</totfact>
</mgrwt>
</event>
<event>
 5    1  0.2354746E-004  0.6477680E+03  0.7818608E-02  0.9810976E-01
         13   -1    0    0    0    0  0.00000000000E+00  0.00000000000E+00  0.10000000000E+04  0.10000000000E+04  0.00000000000E+00 0. -1.
          2   -1    0    0  501    0 -0.00000000000E+00 -0.00000000000E+00 -0.10490083838E+03  0.10490083838E+03  0.00000000000E+00 0. -1.
    9000006    2    1    2  501    0  0.00000000000E+00  0.00000000000E+00  0.89509916162E+03  0.11049008384E+04  0.64776797815E+03 0.  0.
         13    1    3    3    0    0  0.24679034337E+03  0.33376376684E+02  0.80076383059E+03  0.83859535443E+03  0.00000000000E+00 0. -1.
          2    1    3    3  501    0 -0.24679034337E+03 -0.33376376684E+02  0.94335331033E+02  0.26630548395E+03  0.00000000000E+00 0. -1.
<mgrwt>
<rscale>  0 0.64776798E+03</rscale>
<asrwt>0</asrwt>
<pdfrwt beam="1">0</pdfrwt>
<pdfrwt beam="2">  1        2 0.38145840E+00 0.64776798E+03</pdfrwt>
<totfact> 0.46696000E+00</totfact>
</mgrwt>
</event>
<event>
 5    1  0.2354746E-004  0.6172051E+03  0.7818608E-02  0.9870340E-01
         13   -1    0    0    0    0  0.00000000000E+00  0.00000000000E+00  0.10000000000E+04  0.10000000000E+04  0.00000000000E+00 0. -1.
          2   -1    0    0  501    0 -0.00000000000E+00 -0.00000000000E+00 -0.95235536513E+02  0.95235536513E+02  0.00000000000E+00 0. -1.
    9000006    2    1    2  501    0  0.00000000000E+00  0.00000000000E+00  0.90476446349E+03  0.10952355365E+04  0.61720510858E+03 0.  0.
         13    1    3    3    0    0  0.16078100809E+03  0.26289912601E+03  0.42327523922E+03  0.52357273721E+03  0.00000000000E+00 0. -1.
          2    1    3    3  501    0 -0.16078100809E+03 -0.26289912601E+03  0.48148922427E+03  0.57166279930E+03  0.00000000000E+00 0. -1.
<mgrwt>
<rscale>  0 0.61720511E+03</rscale>
<asrwt>0</asrwt>
<pdfrwt beam="1">0</pdfrwt>
<pdfrwt beam="2">  1        2 0.34631177E+00 0.61720511E+03</pdfrwt>
<totfact> 0.62880379E+00</totfact>
</mgrwt>
</event>
<event>
 5    1  0.2354746E-004  0.6489235E+03  0.7818608E-02  0.9808801E-01
         13   -1    0    0    0    0  0.00000000000E+00  0.00000000000E+00  0.10000000000E+04  0.10000000000E+04  0.00000000000E+00 0. -1.
          2   -1    0    0  501    0 -0.00000000000E+00 -0.00000000000E+00 -0.10527541289E+03  0.10527541289E+03  0.00000000000E+00 0. -1.
    9000006    2    1    2  501    0  0.00000000000E+00  0.00000000000E+00  0.89472458711E+03  0.11052754129E+04  0.64892345587E+03 0.  0.
         13    1    3    3    0    0  0.40231969324E+02 -0.31673887159E+03  0.54569851254E+03  0.63224124409E+03  0.00000000000E+00 0. -1.
          2    1    3    3  501    0 -0.40231969324E+02  0.31673887159E+03  0.34902607457E+03  0.47303416881E+03  0.00000000000E+00 0. -1.
<mgrwt>
<rscale>  0 0.64892346E+03</rscale>
<asrwt>0</asrwt>
<pdfrwt beam="1">0</pdfrwt>
<pdfrwt beam="2">  1        2 0.38282049E+00 0.64892346E+03</pdfrwt>
<totfact> 0.46153716E+00</totfact>
</mgrwt>
</event>
<event>
 5    1  0.2354746E-004  0.6518498E+03  0.7818608E-02  0.9803314E-01
         13   -1    0    0    0    0  0.00000000000E+00  0.00000000000E+00  0.10000000000E+04  0.10000000000E+04  0.00000000000E+00 0. -1.
          2   -1    0    0  501    0 -0.00000000000E+00 -0.00000000000E+00 -0.10622704204E+03  0.10622704204E+03  0.00000000000E+00 0. -1.
    9000006    2    1    2  501    0  0.00000000000E+00  0.00000000000E+00  0.89377295796E+03  0.11062270420E+04  0.65184980491E+03 0.  0.
         13    1    3    3    0    0 -0.85520469220E+02  0.10912000566E+03  0.94746432036E+03  0.95755394869E+03  0.00000000000E+00 0. -1.
          2    1    3    3  501    0  0.85520469220E+02 -0.10912000566E+03 -0.53691362401E+02  0.14867309336E+03  0.00000000000E+00 0. -1.
<mgrwt>
<rscale>  0 0.65184980E+03</rscale>
<asrwt>0</asrwt>
<pdfrwt beam="1">0</pdfrwt>
<pdfrwt beam="2">  1        2 0.38628097E+00 0.65184980E+03</pdfrwt>
<totfact> 0.44801620E+00</totfact>
</mgrwt>
</event>
<event>
 5    1  0.2354746E-004  0.6519758E+03  0.7818608E-02  0.9803079E-01
         13   -1    0    0    0    0  0.00000000000E+00  0.00000000000E+00  0.10000000000E+04  0.10000000000E+04  0.00000000000E+00 0. -1.
          2   -1    0    0  501    0 -0.00000000000E+00 -0.00000000000E+00 -0.10626811934E+03  0.10626811934E+03  0.00000000000E+00 0. -1.
    9000006    2    1    2  501    0  0.00000000000E+00  0.00000000000E+00  0.89373188066E+03  0.11062681193E+04  0.65197582575E+03 0.  0.
         13    1    3    3    0    0  0.40485257886E+02 -0.29987942288E+03  0.24113094233E+03  0.38692487090E+03  0.00000000000E+00 0. -1.
          4    1    3    3  501    0 -0.40485257886E+02  0.29987942288E+03  0.65260093833E+03  0.71934324845E+03  0.00000000000E+00 0. -1.
<mgrwt>
<rscale>  0 0.65197583E+03</rscale>
<asrwt>0</asrwt>
<pdfrwt beam="1">0</pdfrwt>
<pdfrwt beam="2">  1        2 0.38643034E+00 0.65197583E+03</pdfrwt>
<totfact> 0.44744074E+00</totfact>
</mgrwt>
</event>
<event>
 5    1  0.2354746E-004  0.5919720E+03  0.7818608E-02  0.9922203E-01
         13   -1    0    0    0    0  0.00000000000E+00  0.00000000000E+00  0.10000000000E+04  0.10000000000E+04  0.00000000000E+00 0. -1.
          2   -1    0    0  501    0 -0.00000000000E+00 -0.00000000000E+00 -0.87607720084E+02  0.87607720084E+02  0.00000000000E+00 0. -1.
    9000006    2    1    2  501    0  0.00000000000E+00  0.00000000000E+00  0.91239227992E+03  0.10876077201E+04  0.59197202665E+03 0.  0.
         13    1    3    3    0    0 -0.11469824976E+03 -0.27029442739E+03  0.52476698489E+03  0.60132782607E+03  0.00000000000E+00 0. -1.
          4    1    3    3  501    0  0.11469824976E+03  0.27029442739E+03  0.38762529503E+03  0.48627989402E+03  0.00000000000E+00 0. -1.
<mgrwt>
<rscale>  0 0.59197203E+03</rscale>
<asrwt>0</asrwt>
<pdfrwt beam="1">0</pdfrwt>
<pdfrwt beam="2">  1        2 0.31857420E+00 0.59197203E+03</pdfrwt>
<totfact> 0.79202223E+00</totfact>
</mgrwt>
</event>
<event>
 5    1  0.2354746E-004  0.6079965E+03  0.7818608E-02  0.9888953E-01
         13   -1    0    0    0    0  0.00000000000E+00  0.00000000000E+00  0.10000000000E+04  0.10000000000E+04  0.00000000000E+00 0. -1.
          2   -1    0    0  501    0 -0.00000000000E+00 -0.00000000000E+00 -0.92414923716E+02  0.92414923716E+02  0.00000000000E+00 0. -1.
    9000006    2    1    2  501    0  0.00000000000E+00  0.00000000000E+00  0.90758507628E+03  0.10924149237E+04  0.60799645958E+03 0.  0.
         13    1    3    3    0    0  0.21131368817E+03 -0.10934677535E+03  0.11380986395E+03  0.26374775301E+03  0.00000000000E+00 0. -1.
          4    1    3    3  501    0 -0.21131368817E+03  0.10934677535E+03  0.79377521233E+03  0.82866717070E+03  0.00000000000E+00 0. -1.
<mgrwt>
<rscale>  0 0.60799646E+03</rscale>
<asrwt>0</asrwt>
<pdfrwt beam="1">0</pdfrwt>
<pdfrwt beam="2">  1        2 0.33605498E+00 0.60799646E+03</pdfrwt>
<totfact> 0.68504253E+00</totfact>
</mgrwt>
</event>
<event>
 5    1  0.2354746E-004  0.6533430E+03  0.7818608E-02  0.9800526E-01
         13   -1    0    0    0    0  0.00000000000E+00  0.00000000000E+00  0.10000000000E+04  0.10000000000E+04  0.00000000000E+00 0. -1.
          2   -1    0    0  501    0 -0.00000000000E+00 -0.00000000000E+00 -0.10671427848E+03  0.10671427848E+03  0.00000000000E+00 0. -1.
    9000006    2    1    2  501    0  0.00000000000E+00  0.00000000000E+00  0.89328572152E+03  0.11067142785E+04  0.65334302929E+03 0.  0.
         13    1    3    3    0    0 -0.14784078590E+03  0.25638958673E+03  0.68088131120E+03  0.74242297789E+03  0.00000000000E+00 0. -1.
          4    1    3    3  501    0  0.14784078590E+03 -0.25638958673E+03  0.21240441032E+03  0.36429130058E+03  0.00000000000E+00 0. -1.
<mgrwt>
<rscale>  0 0.65334303E+03</rscale>
<asrwt>0</asrwt>
<pdfrwt beam="1">0</pdfrwt>
<pdfrwt beam="2">  1        2 0.38805274E+00 0.65334303E+03</pdfrwt>
<totfact> 0.44123333E+00</totfact>
</mgrwt>
</event>
<event>
 5    1  0.2354746E-004  0.6559871E+03  0.7818608E-02  0.9795609E-01
         13   -1    0    0    0    0  0.00000000000E+00  0.00000000000E+00  0.10000000000E+04  0.10000000000E+04  0.00000000000E+00 0. -1.
          2   -1    0    0  501    0 -0.00000000000E+00 -0.00000000000E+00 -0.10757977690E+03  0.10757977690E+03  0.00000000000E+00 0. -1.
    9000006    2    1    2  501    0  0.00000000000E+00  0.00000000000E+00  0.89242022310E+03  0.11075797769E+04  0.65598712458E+03 0.  0.
         13    1    3    3    0    0 -0.76474145721E+01  0.24895106257E+03  0.80653847210E+03  0.84412050176E+03  0.00000000000E+00 0. -1.
          2    1    3    3  501    0  0.76474145721E+01 -0.24895106257E+03  0.85881750995E+02  0.26345927514E+03  0.00000000000E+00 0. -1.
<mgrwt>
<rscale>  0 0.65598712E+03</rscale>
<asrwt>0</asrwt>
<pdfrwt beam="1">0</pdfrwt>
<pdfrwt beam="2">  1        2 0.39120001E+00 0.65598712E+03</pdfrwt>
<totfact> 0.42941329E+00</totfact>
</mgrwt>
</event>
<event>
 5    1  0.2354746E-004  0.6435751E+03  0.7818608E-02  0.9818910E-01
         13   -1    0    0    0    0  0.00000000000E+00  0.00000000000E+00  0.10000000000E+04  0.10000000000E+04  0.00000000000E+00 0. -1.
          2   -1    0    0  501    0 -0.00000000000E+00 -0.00000000000E+00 -0.10354722444E+03  0.10354722444E+03  0.00000000000E+00 0. -1.
    9000006    2    1    2  501    0  0.00000000000E+00  0.00000000000E+00  0.89645277556E+03  0.11035472244E+04  0.64357509102E+03 0.  0.
         13    1    3    3    0    0 -0.17772215288E+03 -0.19103977856E+03  0.77114789222E+03  0.81409485460E+03  0.00000000000E+00 0. -1.
          2    1    3    3  501    0  0.17772215288E+03  0.19103977856E+03  0.12530488334E+03  0.28945236984E+03  0.00000000000E+00 0. -1.
<mgrwt>
<rscale>  0 0.64357509E+03</rscale>
<asrwt>0</asrwt>
<pdfrwt beam="1">0</pdfrwt>
<pdfrwt beam="2">  1        2 0.37653616E+00 0.64357509E+03</pdfrwt>
<totfact> 0.48704358E+00</totfact>
</mgrwt>
</event>
<event>
 5    1  0.2354746E-004  0.5481536E+03  0.7818608E-02  0.1001922E+00
         13   -1    0    0    0    0  0.00000000000E+00  0.00000000000E+00  0.10000000000E+04  0.10000000000E+04  0.00000000000E+00 0. -1.
          4   -1    0    0  501    0 -0.00000000000E+00 -0.00000000000E+00 -0.75118090761E+02  0.75118090761E+02  0.00000000000E+00 0. -1.
    9000006    2    1    2  501    0  0.00000000000E+00  0.00000000000E+00  0.92488190924E+03  0.10751180908E+04  0.54815359439E+03 0.  0.
         13    1    3    3    0    0 -0.22511083870E+03  0.15248398117E+03  0.53015242623E+03  0.59580856763E+03  0.00000000000E+00 0. -1.
          4    1    3    3  501    0  0.22511083870E+03 -0.15248398117E+03  0.39472948301E+03  0.47930952314E+03  0.00000000000E+00 0. -1.
<mgrwt>
<rscale>  0 0.54815359E+03</rscale>
<asrwt>0</asrwt>
<pdfrwt beam="1">0</pdfrwt>
<pdfrwt beam="2">  1        4 0.27315727E+00 0.54815359E+03</pdfrwt>
<totfact> 0.20807726E-01</totfact>
</mgrwt>
</event>
<event>
 5    1  0.2354746E-004  0.6564854E+03  0.7818608E-02  0.9794685E-01
         13   -1    0    0    0    0  0.00000000000E+00  0.00000000000E+00  0.10000000000E+04  0.10000000000E+04  0.00000000000E+00 0. -1.
          2   -1    0    0  501    0 -0.00000000000E+00 -0.00000000000E+00 -0.10774326657E+03  0.10774326657E+03  0.00000000000E+00 0. -1.
    9000006    2    1    2  501    0  0.00000000000E+00  0.00000000000E+00  0.89225673343E+03  0.11077432666E+04  0.65648538923E+03 0.  0.
         13    1    3    3    0    0  0.21472199187E+03  0.24189225564E+03  0.35178758488E+03  0.47788272830E+03  0.00000000000E+00 0. -1.
          4    1    3    3  501    0 -0.21472199187E+03 -0.24189225564E+03  0.54046914855E+03  0.62986053827E+03  0.00000000000E+00 0. -1.
<mgrwt>
<rscale>  0 0.65648539E+03</rscale>
<asrwt>0</asrwt>
<pdfrwt beam="1">0</pdfrwt>
<pdfrwt beam="2">  1        2 0.39179452E+00 0.65648539E+03</pdfrwt>
<totfact> 0.42721293E+00</totfact>
</mgrwt>
</event>
<event>
 5    1  0.2354746E-004  0.6459826E+03  0.7818608E-02  0.9814347E-01
         13   -1    0    0    0    0  0.00000000000E+00  0.00000000000E+00  0.10000000000E+04  0.10000000000E+04  0.00000000000E+00 0. -1.
          2   -1    0    0  501    0 -0.00000000000E+00 -0.00000000000E+00 -0.10432336961E+03  0.10432336961E+03  0.00000000000E+00 0. -1.
    9000006    2    1    2  501    0  0.00000000000E+00  0.00000000000E+00  0.89567663039E+03  0.11043233696E+04  0.64598256822E+03 0.  0.
         13    1    3    3    0    0  0.20419841476E+03 -0.23286950844E+03  0.29117483478E+03  0.42509761815E+03  0.00000000000E+00 0. -1.
          4    1    3    3  501    0 -0.20419841476E+03  0.23286950844E+03  0.60450179561E+03  0.67922575146E+03  0.00000000000E+00 0. -1.
<mgrwt>
<rscale>  0 0.64598257E+03</rscale>
<asrwt>0</asrwt>
<pdfrwt beam="1">0</pdfrwt>
<pdfrwt beam="2">  1        2 0.37935851E+00 0.64598257E+03</pdfrwt>
<totfact> 0.47543379E+00</totfact>
</mgrwt>
</event>
<event>
 5    1  0.2354746E-004  0.6316993E+03  0.7818608E-02  0.9841738E-01
         13   -1    0    0    0    0  0.00000000000E+00  0.00000000000E+00  0.10000000000E+04  0.10000000000E+04  0.00000000000E+00 0. -1.
          2   -1    0    0  501    0 -0.00000000000E+00 -0.00000000000E+00 -0.99760996518E+02  0.99760996518E+02  0.00000000000E+00 0. -1.
    9000006    2    1    2  501    0  0.00000000000E+00  0.00000000000E+00  0.90023900348E+03  0.10997609965E+04  0.63169928453E+03 0.  0.
         13    1    3    3    0    0  0.29757239016E+03  0.10003295793E+03  0.38968356892E+03  0.50040903663E+03  0.00000000000E+00 0. -1.
          2    1    3    3  501    0 -0.29757239016E+03 -0.10003295793E+03  0.51055543456E+03  0.59935195989E+03  0.00000000000E+00 0. -1.
<mgrwt>
<rscale>  0 0.63169928E+03</rscale>
<asrwt>0</asrwt>
<pdfrwt beam="1">0</pdfrwt>
<pdfrwt beam="2">  1        2 0.36276803E+00 0.63169928E+03</pdfrwt>
<totfact> 0.54749295E+00</totfact>
</mgrwt>
</event>
<event>
 5    1  0.2354746E-004  0.6526906E+03  0.7818608E-02  0.9801743E-01
         13   -1    0    0    0    0  0.00000000000E+00  0.00000000000E+00  0.10000000000E+04  0.10000000000E+04  0.00000000000E+00 0. -1.
          2   -1    0    0  501    0 -0.00000000000E+00 -0.00000000000E+00 -0.10650126347E+03  0.10650126347E+03  0.00000000000E+00 0. -1.
    9000006    2    1    2  501    0  0.00000000000E+00  0.00000000000E+00  0.89349873653E+03  0.11065012635E+04  0.65269062646E+03 0.  0.
         13    1    3    3    0    0 -0.40610683300E+02  0.16521990818E+03 -0.25365643124E+02  0.17201820110E+03  0.00000000000E+00 0. -1.
          4    1    3    3  501    0  0.40610683300E+02 -0.16521990818E+03  0.91886437966E+03  0.93448306237E+03  0.00000000000E+00 0. -1.
<mgrwt>
<rscale>  0 0.65269063E+03</rscale>
<asrwt>0</asrwt>
<pdfrwt beam="1">0</pdfrwt>
<pdfrwt beam="2">  1        2 0.38727814E+00 0.65269063E+03</pdfrwt>
<totfact> 0.44418721E+00</totfact>
</mgrwt>
</event>
<event>
 5    1  0.2354746E-004  0.6559682E+03  0.7818608E-02  0.9795644E-01
         13   -1    0    0    0    0  0.00000000000E+00  0.00000000000E+00  0.10000000000E+04  0.10000000000E+04  0.00000000000E+00 0. -1.
          2   -1    0    0  501    0 -0.00000000000E+00 -0.00000000000E+00 -0.10757355677E+03  0.10757355677E+03  0.00000000000E+00 0. -1.
    9000006    2    1    2  501    0  0.00000000000E+00  0.00000000000E+00  0.89242644323E+03  0.11075735568E+04  0.65596816012E+03 0.  0.
         13    1    3    3    0    0 -0.23845363363E+03  0.19401736756E+03  0.63924950655E+03  0.70932559938E+03  0.00000000000E+00 0. -1.
          2    1    3    3  501    0  0.23845363363E+03 -0.19401736756E+03  0.25317693667E+03  0.39824795739E+03  0.00000000000E+00 0. -1.
<mgrwt>
<rscale>  0 0.65596816E+03</rscale>
<asrwt>0</asrwt>
<pdfrwt beam="1">0</pdfrwt>
<pdfrwt beam="2">  1        2 0.39117739E+00 0.65596816E+03</pdfrwt>
<totfact> 0.42949721E+00</totfact>
</mgrwt>
</event>
<event>
 5    1  0.2354746E-004  0.6460030E+03  0.7818608E-02  0.9814308E-01
         13   -1    0    0    0    0  0.00000000000E+00  0.00000000000E+00  0.10000000000E+04  0.10000000000E+04  0.00000000000E+00 0. -1.
          2   -1    0    0  501    0 -0.00000000000E+00 -0.00000000000E+00 -0.10432997358E+03  0.10432997358E+03  0.00000000000E+00 0. -1.
    9000006    2    1    2  501    0  0.00000000000E+00  0.00000000000E+00  0.89567002642E+03  0.11043299736E+04  0.64600301416E+03 0.  0.
         13    1    3    3    0    0 -0.19333525495E+03 -0.11600598400E+03  0.52452813006E+02  0.23148910713E+03  0.00000000000E+00 0. -1.
          2    1    3    3  501    0  0.19333525495E+03  0.11600598400E+03  0.84321721342E+03  0.87284086644E+03  0.00000000000E+00 0. -1.
<mgrwt>
<rscale>  0 0.64600301E+03</rscale>
<asrwt>0</asrwt>
<pdfrwt beam="1">0</pdfrwt>
<pdfrwt beam="2">  1        2 0.37938252E+00 0.64600301E+03</pdfrwt>
<totfact> 0.47533610E+00</totfact>
</mgrwt>
</event>
<event>
 5    1  0.2354746E-004  0.6723137E+03  0.7818608E-02  0.9765787E-01
         13   -1    0    0    0    0  0.00000000000E+00  0.00000000000E+00  0.10000000000E+04  0.10000000000E+04  0.00000000000E+00 0. -1.
          2   -1    0    0  501    0 -0.00000000000E+00 -0.00000000000E+00 -0.11300141158E+03  0.11300141158E+03  0.00000000000E+00 0. -1.
    9000006    2    1    2  501    0  0.00000000000E+00  0.00000000000E+00  0.88699858842E+03  0.11130014116E+04  0.67231365173E+03 0.  0.
         13    1    3    3    0    0  0.30156531393E+01  0.56267863069E+02  0.99212588453E+03  0.99372477947E+03  0.00000000000E+00 0. -1.
          4    1    3    3  501    0 -0.30156531393E+01 -0.56267863069E+02 -0.10512729611E+03  0.11927663210E+03  0.00000000000E+00 0. -1.
<mgrwt>
<rscale>  0 0.67231365E+03</rscale>
<asrwt>0</asrwt>
<pdfrwt beam="1">0</pdfrwt>
<pdfrwt beam="2">  1        2 0.41091509E+00 0.67231365E+03</pdfrwt>
<totfact> 0.36163477E+00</totfact>
</mgrwt>
</event>
<event>
 5    1  0.2354746E-004  0.6586277E+03  0.7818608E-02  0.9790723E-01
         13   -1    0    0    0    0  0.00000000000E+00  0.00000000000E+00  0.10000000000E+04  0.10000000000E+04  0.00000000000E+00 0. -1.
          2   -1    0    0  501    0 -0.00000000000E+00 -0.00000000000E+00 -0.10844761465E+03  0.10844761465E+03  0.00000000000E+00 0. -1.
    9000006    2    1    2  501    0  0.00000000000E+00  0.00000000000E+00  0.89155238535E+03  0.11084476146E+04  0.65862770864E+03 0.  0.
         13    1    3    3    0    0  0.20535775541E+03  0.23283510144E+03  0.26092849552E+03  0.40554614033E+03  0.00000000000E+00 0. -1.
          4    1    3    3  501    0 -0.20535775541E+03 -0.23283510144E+03  0.63062388983E+03  0.70290147431E+03  0.00000000000E+00 0. -1.
<mgrwt>
<rscale>  0 0.65862771E+03</rscale>
<asrwt>0</asrwt>
<pdfrwt beam="1">0</pdfrwt>
<pdfrwt beam="2">  1        2 0.39435579E+00 0.65862771E+03</pdfrwt>
<totfact> 0.41784932E+00</totfact>
</mgrwt>
</event>
<event>
 5    1  0.2354746E-004  0.6603752E+03  0.7818608E-02  0.9787503E-01
         13   -1    0    0    0    0  0.00000000000E+00  0.00000000000E+00  0.10000000000E+04  0.10000000000E+04  0.00000000000E+00 0. -1.
          2   -1    0    0  501    0 -0.00000000000E+00 -0.00000000000E+00 -0.10902384616E+03  0.10902384616E+03  0.00000000000E+00 0. -1.
    9000006    2    1    2  501    0  0.00000000000E+00  0.00000000000E+00  0.89097615384E+03  0.11090238462E+04  0.66037518476E+03 0.  0.
         13    1    3    3    0    0  0.18571004815E+03  0.26416032603E+03  0.56129191377E+03  0.64754730507E+03  0.00000000000E+00 0. -1.
          2    1    3    3  501    0 -0.18571004815E+03 -0.26416032603E+03  0.32968424007E+03  0.46147654109E+03  0.00000000000E+00 0. -1.
<mgrwt>
<rscale>  0 0.66037518E+03</rscale>
<asrwt>0</asrwt>
<pdfrwt beam="1">0</pdfrwt>
<pdfrwt beam="2">  1        2 0.39645119E+00 0.66037518E+03</pdfrwt>
<totfact> 0.41032745E+00</totfact>
</mgrwt>
</event>
<event>
 5    1  0.2354746E-004  0.6414514E+03  0.7818608E-02  0.9822954E-01
         13   -1    0    0    0    0  0.00000000000E+00  0.00000000000E+00  0.10000000000E+04  0.10000000000E+04  0.00000000000E+00 0. -1.
          2   -1    0    0  501    0 -0.00000000000E+00 -0.00000000000E+00 -0.10286497269E+03  0.10286497269E+03  0.00000000000E+00 0. -1.
    9000006    2    1    2  501    0  0.00000000000E+00  0.00000000000E+00  0.89713502731E+03  0.11028649727E+04  0.64145139391E+03 0.  0.
         13    1    3    3    0    0 -0.25918067491E+03  0.17660979240E+03  0.33324008883E+03  0.45761839760E+03  0.00000000000E+00 0. -1.
          2    1    3    3  501    0  0.25918067491E+03 -0.17660979240E+03  0.56389493848E+03  0.64524657509E+03  0.00000000000E+00 0. -1.
<mgrwt>
<rscale>  0 0.64145139E+03</rscale>
<asrwt>0</asrwt>
<pdfrwt beam="1">0</pdfrwt>
<pdfrwt beam="2">  1        2 0.37405523E+00 0.64145139E+03</pdfrwt>
<totfact> 0.49746242E+00</totfact>
</mgrwt>
</event>
<event>
 5    1  0.2354746E-004  0.6247063E+03  0.7818608E-02  0.9855434E-01
         13   -1    0    0    0    0  0.00000000000E+00  0.00000000000E+00  0.10000000000E+04  0.10000000000E+04  0.00000000000E+00 0. -1.
          2   -1    0    0  501    0 -0.00000000000E+00 -0.00000000000E+00 -0.97564495186E+02  0.97564495186E+02  0.00000000000E+00 0. -1.
    9000006    2    1    2  501    0  0.00000000000E+00  0.00000000000E+00  0.90243550481E+03  0.10975644952E+04  0.62470631560E+03 0.  0.
         13    1    3    3    0    0 -0.20010077096E+03  0.20672092237E+03  0.23754576428E+03  0.37309763925E+03  0.00000000000E+00 0. -1.
          2    1    3    3  501    0  0.20010077096E+03 -0.20672092237E+03  0.66488974053E+03  0.72446685594E+03  0.00000000000E+00 0. -1.
<mgrwt>
<rscale>  0 0.62470632E+03</rscale>
<asrwt>0</asrwt>
<pdfrwt beam="1">0</pdfrwt>
<pdfrwt beam="2">  1        2 0.35478073E+00 0.62470632E+03</pdfrwt>
<totfact> 0.58565363E+00</totfact>
</mgrwt>
</event>
<event>
 5    1  0.2354746E-004  0.6431602E+03  0.7818608E-02  0.9819699E-01
         13   -1    0    0    0    0  0.00000000000E+00  0.00000000000E+00  0.10000000000E+04  0.10000000000E+04  0.00000000000E+00 0. -1.
          2   -1    0    0  501    0 -0.00000000000E+00 -0.00000000000E+00 -0.10341377381E+03  0.10341377381E+03  0.00000000000E+00 0. -1.
    9000006    2    1    2  501    0  0.00000000000E+00  0.00000000000E+00  0.89658622619E+03  0.11034137738E+04  0.64316024073E+03 0.  0.
         13    1    3    3    0    0 -0.31743442705E+03 -0.16188418073E+02  0.53211432251E+03  0.61981637005E+03  0.00000000000E+00 0. -1.
          4    1    3    3  501    0  0.31743442705E+03  0.16188418073E+02  0.36447190368E+03  0.48359740376E+03  0.00000000000E+00 0. -1.
<mgrwt>
<rscale>  0 0.64316024E+03</rscale>
<asrwt>0</asrwt>
<pdfrwt beam="1">0</pdfrwt>
<pdfrwt beam="2">  1        2 0.37605088E+00 0.64316024E+03</pdfrwt>
<totfact> 0.48906562E+00</totfact>
</mgrwt>
</event>
<event>
 5    1  0.2354746E-004  0.6407489E+03  0.7818608E-02  0.9824295E-01
         13   -1    0    0    0    0  0.00000000000E+00  0.00000000000E+00  0.10000000000E+04  0.10000000000E+04  0.00000000000E+00 0. -1.
          2   -1    0    0  501    0 -0.00000000000E+00 -0.00000000000E+00 -0.10263980214E+03  0.10263980214E+03  0.00000000000E+00 0. -1.
    9000006    2    1    2  501    0  0.00000000000E+00  0.00000000000E+00  0.89736019786E+03  0.11026398021E+04  0.64074894348E+03 0.  0.
         13    1    3    3    0    0 -0.20358861925E+03 -0.21102985865E+03  0.67078368260E+03  0.73207422846E+03  0.00000000000E+00 0. -1.
          4    1    3    3  501    0  0.20358861925E+03  0.21102985865E+03  0.22657651526E+03  0.37056557369E+03  0.00000000000E+00 0. -1.
<mgrwt>
<rscale>  0 0.64074894E+03</rscale>
<asrwt>0</asrwt>
<pdfrwt beam="1">0</pdfrwt>
<pdfrwt beam="2">  1        2 0.37323643E+00 0.64074894E+03</pdfrwt>
<totfact> 0.50094562E+00</totfact>
</mgrwt>
</event>
<event>
 5    1  0.2354746E-004  0.6452050E+03  0.7818608E-02  0.9815819E-01
         13   -1    0    0    0    0  0.00000000000E+00  0.00000000000E+00  0.10000000000E+04  0.10000000000E+04  0.00000000000E+00 0. -1.
          2   -1    0    0  501    0 -0.00000000000E+00 -0.00000000000E+00 -0.10407236190E+03  0.10407236190E+03  0.00000000000E+00 0. -1.
    9000006    2    1    2  501    0  0.00000000000E+00  0.00000000000E+00  0.89592763810E+03  0.11040723619E+04  0.64520496558E+03 0.  0.
         13    1    3    3    0    0 -0.23094570645E+03  0.15098633875E+03  0.16193507356E+03  0.31993087045E+03  0.00000000000E+00 0. -1.
          2    1    3    3  501    0  0.23094570645E+03 -0.15098633875E+03  0.73399256454E+03  0.78414149145E+03  0.00000000000E+00 0. -1.
<mgrwt>
<rscale>  0 0.64520497E+03</rscale>
<asrwt>0</asrwt>
<pdfrwt beam="1">0</pdfrwt>
<pdfrwt beam="2">  1        2 0.37844575E+00 0.64520497E+03</pdfrwt>
<totfact> 0.47916054E+00</totfact>
</mgrwt>
</event>
<event>
 5    1  0.2354746E-004  0.6646195E+03  0.7818608E-02  0.9779727E-01
         13   -1    0    0    0    0  0.00000000000E+00  0.00000000000E+00  0.10000000000E+04  0.10000000000E+04  0.00000000000E+00 0. -1.
          2   -1    0    0  501    0 -0.00000000000E+00 -0.00000000000E+00 -0.11042975525E+03  0.11042975525E+03  0.00000000000E+00 0. -1.
    9000006    2    1    2  501    0  0.00000000000E+00  0.00000000000E+00  0.88957024475E+03  0.11104297553E+04  0.66461945578E+03 0.  0.
         13    1    3    3    0    0 -0.11860419424E+02  0.32897965079E+03  0.52064411713E+03  0.61598585770E+03  0.00000000000E+00 0. -1.
          4    1    3    3  501    0  0.11860419424E+02 -0.32897965079E+03  0.36892612762E+03  0.49444389755E+03  0.00000000000E+00 0. -1.
<mgrwt>
<rscale>  0 0.66461946E+03</rscale>
<asrwt>0</asrwt>
<pdfrwt beam="1">0</pdfrwt>
<pdfrwt beam="2">  1        2 0.40156359E+00 0.66461946E+03</pdfrwt>
<totfact> 0.39248379E+00</totfact>
</mgrwt>
</event>
<event>
 5    1  0.2354746E-004  0.6453488E+03  0.7818608E-02  0.9815546E-01
         13   -1    0    0    0    0  0.00000000000E+00  0.00000000000E+00  0.10000000000E+04  0.10000000000E+04  0.00000000000E+00 0. -1.
          2   -1    0    0  501    0 -0.00000000000E+00 -0.00000000000E+00 -0.10411876190E+03  0.10411876190E+03  0.00000000000E+00 0. -1.
    9000006    2    1    2  501    0  0.00000000000E+00  0.00000000000E+00  0.89588123810E+03  0.11041187619E+04  0.64534877982E+03 0.  0.
         13    1    3    3    0    0  0.93747150627E+02 -0.11861043851E+03  0.93565381784E+03  0.94778955006E+03  0.00000000000E+00 0. -1.
          4    1    3    3  501    0 -0.93747150627E+02  0.11861043851E+03 -0.39772579741E+02  0.15632921184E+03  0.00000000000E+00 0. -1.
<mgrwt>
<rscale>  0 0.64534878E+03</rscale>
<asrwt>0</asrwt>
<pdfrwt beam="1">0</pdfrwt>
<pdfrwt beam="2">  1        2 0.37861448E+00 0.64534878E+03</pdfrwt>
<totfact> 0.47846963E+00</totfact>
</mgrwt>
</event>
<event>
 5    1  0.2354746E-004  0.5650376E+03  0.7818608E-02  0.9980720E-01
         13   -1    0    0    0    0  0.00000000000E+00  0.00000000000E+00  0.10000000000E+04  0.10000000000E+04  0.00000000000E+00 0. -1.
          2   -1    0    0  501    0 -0.00000000000E+00 -0.00000000000E+00 -0.79816863934E+02  0.79816863934E+02  0.00000000000E+00 0. -1.
    9000006    2    1    2  501    0  0.00000000000E+00  0.00000000000E+00  0.92018313607E+03  0.10798168639E+04  0.56503757020E+03 0.  0.
         13    1    3    3    0    0 -0.43801622332E+02 -0.36235883751E+02  0.98895717633E+03  0.99058968196E+03  0.00000000000E+00 0. -1.
          2    1    3    3  501    0  0.43801622332E+02  0.36235883751E+02 -0.68774040260E+02  0.89227181978E+02  0.00000000000E+00 0. -1.
<mgrwt>
<rscale>  0 0.56503757E+03</rscale>
<asrwt>0</asrwt>
<pdfrwt beam="1">0</pdfrwt>
<pdfrwt beam="2">  1        2 0.29024375E+00 0.56503757E+03</pdfrwt>
<totfact> 0.10004945E+01</totfact>
</mgrwt>
</event>
<event>
 5    1  0.2354746E-004  0.6612443E+03  0.7818608E-02  0.9785906E-01
         13   -1    0    0    0    0  0.00000000000E+00  0.00000000000E+00  0.10000000000E+04  0.10000000000E+04  0.00000000000E+00 0. -1.
          2   -1    0    0  501    0 -0.00000000000E+00 -0.00000000000E+00 -0.10931101541E+03  0.10931101541E+03  0.00000000000E+00 0. -1.
    9000006    2    1    2  501    0  0.00000000000E+00  0.00000000000E+00  0.89068898459E+03  0.11093110154E+04  0.66124432825E+03 0.  0.
         13    1    3    3    0    0 -0.59840955600E+02 -0.30854085022E+03  0.61751531583E+03  0.69289505808E+03  0.00000000000E+00 0. -1.
          2    1    3    3  501    0  0.59840955600E+02  0.30854085022E+03  0.27317366876E+03  0.41641595733E+03  0.00000000000E+00 0. -1.
<mgrwt>
<rscale>  0 0.66124433E+03</rscale>
<asrwt>0</asrwt>
<pdfrwt beam="1">0</pdfrwt>
<pdfrwt beam="2">  1        2 0.39749544E+00 0.66124433E+03</pdfrwt>
<totfact> 0.40662458E+00</totfact>
</mgrwt>
</event>
<event>
 5    1  0.2354746E-004  0.6361974E+03  0.7818608E-02  0.9833029E-01
         13   -1    0    0    0    0  0.00000000000E+00  0.00000000000E+00  0.10000000000E+04  0.10000000000E+04  0.00000000000E+00 0. -1.
          2   -1    0    0  501    0 -0.00000000000E+00 -0.00000000000E+00 -0.10118678842E+03  0.10118678842E+03  0.00000000000E+00 0. -1.
    9000006    2    1    2  501    0  0.00000000000E+00  0.00000000000E+00  0.89881321158E+03  0.11011867884E+04  0.63619741723E+03 0.  0.
         13    1    3    3    0    0  0.22424870417E+02 -0.14400510653E+03 -0.39998688568E+02  0.15112987993E+03  0.00000000000E+00 0. -1.
          4    1    3    3  501    0 -0.22424870417E+02  0.14400510653E+03  0.93881190015E+03  0.95005690849E+03  0.00000000000E+00 0. -1.
<mgrwt>
<rscale>  0 0.63619742E+03</rscale>
<asrwt>0</asrwt>
<pdfrwt beam="1">0</pdfrwt>
<pdfrwt beam="2">  1        2 0.36795273E+00 0.63619742E+03</pdfrwt>
<totfact> 0.52396485E+00</totfact>
</mgrwt>
</event>
<event>
 5    1  0.2354746E-004  0.6591351E+03  0.7818608E-02  0.9789787E-01
         13   -1    0    0    0    0  0.00000000000E+00  0.00000000000E+00  0.10000000000E+04  0.10000000000E+04  0.00000000000E+00 0. -1.
          2   -1    0    0  501    0 -0.00000000000E+00 -0.00000000000E+00 -0.10861477010E+03  0.10861477010E+03  0.00000000000E+00 0. -1.
    9000006    2    1    2  501    0  0.00000000000E+00  0.00000000000E+00  0.89138522990E+03  0.11086147701E+04  0.65913510026E+03 0.  0.
         13    1    3    3    0    0  0.74094761146E+02  0.17599606734E+02  0.98499760730E+03  0.98793727846E+03  0.00000000000E+00 0. -1.
          2    1    3    3  501    0 -0.74094761146E+02 -0.17599606734E+02 -0.93612377398E+02  0.12067749164E+03  0.00000000000E+00 0. -1.
<mgrwt>
<rscale>  0 0.65913510E+03</rscale>
<asrwt>0</asrwt>
<pdfrwt beam="1">0</pdfrwt>
<pdfrwt beam="2">  1        2 0.39496363E+00 0.65913510E+03</pdfrwt>
<totfact> 0.41565466E+00</totfact>
</mgrwt>
</event>
<event>
 5    1  0.2354746E-004  0.6619884E+03  0.7818608E-02  0.9784540E-01
         13   -1    0    0    0    0  0.00000000000E+00  0.00000000000E+00  0.10000000000E+04  0.10000000000E+04  0.00000000000E+00 0. -1.
          2   -1    0    0  501    0 -0.00000000000E+00 -0.00000000000E+00 -0.10955716760E+03  0.10955716760E+03  0.00000000000E+00 0. -1.
    9000006    2    1    2  501    0  0.00000000000E+00  0.00000000000E+00  0.89044283240E+03  0.11095571676E+04  0.66198842164E+03 0.  0.
         13    1    3    3    0    0 -0.40074838126E+01  0.21569640366E+03  0.86597254393E+03  0.89244016344E+03  0.00000000000E+00 0. -1.
          2    1    3    3  501    0  0.40074838126E+01 -0.21569640366E+03  0.24470288472E+02  0.21711700416E+03  0.00000000000E+00 0. -1.
<mgrwt>
<rscale>  0 0.66198842E+03</rscale>
<asrwt>0</asrwt>
<pdfrwt beam="1">0</pdfrwt>
<pdfrwt beam="2">  1        2 0.39839054E+00 0.66198842E+03</pdfrwt>
<totfact> 0.40347455E+00</totfact>
</mgrwt>
</event>
<event>
 5    1  0.2354746E-004  0.6634632E+03  0.7818608E-02  0.9781839E-01
         13   -1    0    0    0    0  0.00000000000E+00  0.00000000000E+00  0.10000000000E+04  0.10000000000E+04  0.00000000000E+00 0. -1.
          2   -1    0    0  501    0 -0.00000000000E+00 -0.00000000000E+00 -0.11004586077E+03  0.11004586077E+03  0.00000000000E+00 0. -1.
    9000006    2    1    2  501    0  0.00000000000E+00  0.00000000000E+00  0.88995413923E+03  0.11100458608E+04  0.66346321908E+03 0.  0.
         13    1    3    3    0    0 -0.26204273802E+03 -0.45735275987E+01  0.10472035295E+03  0.28222981066E+03  0.00000000000E+00 0. -1.
          2    1    3    3  501    0  0.26204273802E+03  0.45735275987E+01  0.78523378628E+03  0.82781605011E+03  0.00000000000E+00 0. -1.
<mgrwt>
<rscale>  0 0.66346322E+03</rscale>
<asrwt>0</asrwt>
<pdfrwt beam="1">0</pdfrwt>
<pdfrwt beam="2">  1        2 0.40016761E+00 0.66346322E+03</pdfrwt>
<totfact> 0.39728561E+00</totfact>
</mgrwt>
</event>
<event>
 5    1  0.2354746E-004  0.6582015E+03  0.7818608E-02  0.9791510E-01
         13   -1    0    0    0    0  0.00000000000E+00  0.00000000000E+00  0.10000000000E+04  0.10000000000E+04  0.00000000000E+00 0. -1.
          2   -1    0    0  501    0 -0.00000000000E+00 -0.00000000000E+00 -0.10830730523E+03  0.10830730523E+03  0.00000000000E+00 0. -1.
    9000006    2    1    2  501    0  0.00000000000E+00  0.00000000000E+00  0.89169269477E+03  0.11083073052E+04  0.65820150478E+03 0.  0.
         13    1    3    3    0    0 -0.54577366964E+02 -0.14150151058E+03  0.93764910349E+03  0.94983535823E+03  0.00000000000E+00 0. -1.
          4    1    3    3  501    0  0.54577366964E+02  0.14150151058E+03 -0.45956408710E+02  0.15847194699E+03  0.00000000000E+00 0. -1.
<mgrwt>
<rscale>  0 0.65820150E+03</rscale>
<asrwt>0</asrwt>
<pdfrwt beam="1">0</pdfrwt>
<pdfrwt beam="2">  1        2 0.39384558E+00 0.65820150E+03</pdfrwt>
<totfact> 0.41969958E+00</totfact>
</mgrwt>
</event>
<event>
 5    1  0.2354746E-004  0.6443405E+03  0.7818608E-02  0.9817457E-01
         13   -1    0    0    0    0  0.00000000000E+00  0.00000000000E+00  0.10000000000E+04  0.10000000000E+04  0.00000000000E+00 0. -1.
          2   -1    0    0  501    0 -0.00000000000E+00 -0.00000000000E+00 -0.10379367023E+03  0.10379367023E+03  0.00000000000E+00 0. -1.
    9000006    2    1    2  501    0  0.00000000000E+00  0.00000000000E+00  0.89620632977E+03  0.11037936702E+04  0.64434050076E+03 0.  0.
         13    1    3    3    0    0  0.27339021684E+03 -0.12867738191E+03  0.25662638715E+03  0.39643055111E+03  0.00000000000E+00 0. -1.
          2    1    3    3  501    0 -0.27339021684E+03  0.12867738191E+03  0.63957994262E+03  0.70736311911E+03  0.00000000000E+00 0. -1.
<mgrwt>
<rscale>  0 0.64434050E+03</rscale>
<asrwt>0</asrwt>
<pdfrwt beam="1">0</pdfrwt>
<pdfrwt beam="2">  1        2 0.37743232E+00 0.64434050E+03</pdfrwt>
<totfact> 0.48332947E+00</totfact>
</mgrwt>
</event>
<event>
 5    1  0.2354746E-004  0.6506030E+03  0.7818608E-02  0.9805648E-01
         13   -1    0    0    0    0  0.00000000000E+00  0.00000000000E+00  0.10000000000E+04  0.10000000000E+04  0.00000000000E+00 0. -1.
          2   -1    0    0  501    0 -0.00000000000E+00 -0.00000000000E+00 -0.10582105718E+03  0.10582105718E+03  0.00000000000E+00 0. -1.
    9000006    2    1    2  501    0  0.00000000000E+00  0.00000000000E+00  0.89417894282E+03  0.11058210572E+04  0.65060297317E+03 0.  0.
         13    1    3    3    0    0 -0.31867550819E+03 -0.60010050248E+02  0.40323322894E+03  0.51744789359E+03  0.00000000000E+00 0. -1.
          4    1    3    3  501    0  0.31867550819E+03  0.60010050248E+02  0.49094571388E+03  0.58837316359E+03  0.00000000000E+00 0. -1.
<mgrwt>
<rscale>  0 0.65060297E+03</rscale>
<asrwt>0</asrwt>
<pdfrwt beam="1">0</pdfrwt>
<pdfrwt beam="2">  1        2 0.38480466E+00 0.65060297E+03</pdfrwt>
<totfact> 0.45373995E+00</totfact>
</mgrwt>
</event>
<event>
 5    1  0.2354746E-004  0.6451554E+03  0.7818608E-02  0.9815913E-01
         13   -1    0    0    0    0  0.00000000000E+00  0.00000000000E+00  0.10000000000E+04  0.10000000000E+04  0.00000000000E+00 0. -1.
          2   -1    0    0  501    0 -0.00000000000E+00 -0.00000000000E+00 -0.10405635816E+03  0.10405635816E+03  0.00000000000E+00 0. -1.
    9000006    2    1    2  501    0  0.00000000000E+00  0.00000000000E+00  0.89594364184E+03  0.11040563582E+04  0.64515535543E+03 0.  0.
         13    1    3    3    0    0 -0.15381655099E+03  0.15593309311E+03  0.85323533959E+03  0.88090022455E+03  0.00000000000E+00 0. -1.
          4    1    3    3  501    0  0.15381655099E+03 -0.15593309311E+03  0.42708302246E+02  0.22315613361E+03  0.00000000000E+00 0. -1.
<mgrwt>
<rscale>  0 0.64515536E+03</rscale>
<asrwt>0</asrwt>
<pdfrwt beam="1">0</pdfrwt>
<pdfrwt beam="2">  1        2 0.37838755E+00 0.64515536E+03</pdfrwt>
<totfact> 0.47939904E+00</totfact>
</mgrwt>
</event>
<event>
 5    1  0.2354746E-004  0.6465198E+03  0.7818608E-02  0.9813332E-01
         13   -1    0    0    0    0  0.00000000000E+00  0.00000000000E+00  0.10000000000E+04  0.10000000000E+04  0.00000000000E+00 0. -1.
          2   -1    0    0  501    0 -0.00000000000E+00 -0.00000000000E+00 -0.10449695601E+03  0.10449695601E+03  0.00000000000E+00 0. -1.
    9000006    2    1    2  501    0  0.00000000000E+00  0.00000000000E+00  0.89550304399E+03  0.11044969560E+04  0.64651977853E+03 0.  0.
         13    1    3    3    0    0 -0.20740852150E+03  0.14686545654E+03  0.10646494081E+03  0.27554045209E+03  0.00000000000E+00 0. -1.
          4    1    3    3  501    0  0.20740852150E+03 -0.14686545654E+03  0.78903810318E+03  0.82895650392E+03  0.00000000000E+00 0. -1.
<mgrwt>
<rscale>  0 0.64651978E+03</rscale>
<asrwt>0</asrwt>
<pdfrwt beam="1">0</pdfrwt>
<pdfrwt beam="2">  1        2 0.37998973E+00 0.64651978E+03</pdfrwt>
<totfact> 0.47287199E+00</totfact>
</mgrwt>
</event>
<event>
 5    1  0.2354746E-004  0.6464625E+03  0.7818608E-02  0.9813440E-01
         13   -1    0    0    0    0  0.00000000000E+00  0.00000000000E+00  0.10000000000E+04  0.10000000000E+04  0.00000000000E+00 0. -1.
          2   -1    0    0  501    0 -0.00000000000E+00 -0.00000000000E+00 -0.10447844019E+03  0.10447844019E+03  0.00000000000E+00 0. -1.
    9000006    2    1    2  501    0  0.00000000000E+00  0.00000000000E+00  0.89552155981E+03  0.11044784402E+04  0.64646249758E+03 0.  0.
         13    1    3    3    0    0  0.41271570488E+02 -0.25624578802E+03  0.77689881458E+03  0.81910744991E+03  0.00000000000E+00 0. -1.
          4    1    3    3  501    0 -0.41271570488E+02  0.25624578802E+03  0.11862274523E+03  0.28537099028E+03  0.00000000000E+00 0. -1.
<mgrwt>
<rscale>  0 0.64646250E+03</rscale>
<asrwt>0</asrwt>
<pdfrwt beam="1">0</pdfrwt>
<pdfrwt beam="2">  1        2 0.37992240E+00 0.64646250E+03</pdfrwt>
<totfact> 0.47314465E+00</totfact>
</mgrwt>
</event>
<event>
 5    1  0.2354746E-004  0.6613399E+03  0.7818608E-02  0.9785730E-01
         13   -1    0    0    0    0  0.00000000000E+00  0.00000000000E+00  0.10000000000E+04  0.10000000000E+04  0.00000000000E+00 0. -1.
          2   -1    0    0  501    0 -0.00000000000E+00 -0.00000000000E+00 -0.10934260674E+03  0.10934260674E+03  0.00000000000E+00 0. -1.
    9000006    2    1    2  501    0  0.00000000000E+00  0.00000000000E+00  0.89065739326E+03  0.11093426067E+04  0.66133987249E+03 0.  0.
         13    1    3    3    0    0  0.27298171923E+03 -0.68890459202E+02  0.73624177258E+03  0.78823655212E+03  0.00000000000E+00 0. -1.
          4    1    3    3  501    0 -0.27298171923E+03  0.68890459202E+02  0.15441562069E+03  0.32110605462E+03  0.00000000000E+00 0. -1.
<mgrwt>
<rscale>  0 0.66133987E+03</rscale>
<asrwt>0</asrwt>
<pdfrwt beam="1">0</pdfrwt>
<pdfrwt beam="2">  1        2 0.39761032E+00 0.66133987E+03</pdfrwt>
<totfact> 0.40621907E+00</totfact>
</mgrwt>
</event>
<event>
 5    1  0.2354746E-004  0.6471865E+03  0.7818608E-02  0.9812073E-01
         13   -1    0    0    0    0  0.00000000000E+00  0.00000000000E+00  0.10000000000E+04  0.10000000000E+04  0.00000000000E+00 0. -1.
          2   -1    0    0  501    0 -0.00000000000E+00 -0.00000000000E+00 -0.10471259620E+03  0.10471259620E+03  0.00000000000E+00 0. -1.
    9000006    2    1    2  501    0  0.00000000000E+00  0.00000000000E+00  0.89528740380E+03  0.11047125962E+04  0.64718651470E+03 0.  0.
         13    1    3    3    0    0 -0.31177950872E+03 -0.86621468860E+02  0.44475938036E+03  0.55001877000E+03  0.00000000000E+00 0. -1.
          2    1    3    3  501    0  0.31177950872E+03  0.86621468860E+02  0.45052802344E+03  0.55469382621E+03  0.00000000000E+00 0. -1.
<mgrwt>
<rscale>  0 0.64718651E+03</rscale>
<asrwt>0</asrwt>
<pdfrwt beam="1">0</pdfrwt>
<pdfrwt beam="2">  1        2 0.38077388E+00 0.64718651E+03</pdfrwt>
<totfact> 0.46970706E+00</totfact>
</mgrwt>
</event>
<event>
 5    1  0.2354746E-004  0.6930149E+03  0.7818608E-02  0.9729253E-01
         13   -1    0    0    0    0  0.00000000000E+00  0.00000000000E+00  0.10000000000E+04  0.10000000000E+04  0.00000000000E+00 0. -1.
          2   -1    0    0  501    0 -0.00000000000E+00 -0.00000000000E+00 -0.12006740807E+03  0.12006740807E+03  0.00000000000E+00 0. -1.
    9000006    2    1    2  501    0  0.00000000000E+00  0.00000000000E+00  0.87993259193E+03  0.11200674081E+04  0.69301488604E+03 0.  0.
         13    1    3    3    0    0 -0.16902419274E+03 -0.38141387991E+02 -0.45018022091E+02  0.17902671735E+03  0.00000000000E+00 0. -1.
          2    1    3    3  501    0  0.16902419274E+03  0.38141387991E+02  0.92495061402E+03  0.94104069072E+03  0.00000000000E+00 0. -1.
<mgrwt>
<rscale>  0 0.69301489E+03</rscale>
<asrwt>0</asrwt>
<pdfrwt beam="1">0</pdfrwt>
<pdfrwt beam="2">  1        2 0.43660968E+00 0.69301489E+03</pdfrwt>
<totfact> 0.28767508E+00</totfact>
</mgrwt>
</event>
<event>
 5    1  0.2354746E-004  0.6293599E+03  0.7818608E-02  0.9846299E-01
         13   -1    0    0    0    0  0.00000000000E+00  0.00000000000E+00  0.10000000000E+04  0.10000000000E+04  0.00000000000E+00 0. -1.
          2   -1    0    0  501    0 -0.00000000000E+00 -0.00000000000E+00 -0.99023455370E+02  0.99023455370E+02  0.00000000000E+00 0. -1.
    9000006    2    1    2  501    0  0.00000000000E+00  0.00000000000E+00  0.90097654463E+03  0.10990234554E+04  0.62935985055E+03 0.  0.
         13    1    3    3    0    0 -0.20803775411E+03  0.14932639283E+03  0.13113161586E+03  0.28770397879E+03  0.00000000000E+00 0. -1.
          2    1    3    3  501    0  0.20803775411E+03 -0.14932639283E+03  0.76984492877E+03  0.81131947658E+03  0.00000000000E+00 0. -1.
<mgrwt>
<rscale>  0 0.62935985E+03</rscale>
<asrwt>0</asrwt>
<pdfrwt beam="1">0</pdfrwt>
<pdfrwt beam="2">  1        2 0.36008605E+00 0.62935985E+03</pdfrwt>
<totfact> 0.56004197E+00</totfact>
</mgrwt>
</event>
<event>
 5    1  0.2354746E-004  0.6520554E+03  0.7818608E-02  0.9802930E-01
         13   -1    0    0    0    0  0.00000000000E+00  0.00000000000E+00  0.10000000000E+04  0.10000000000E+04  0.00000000000E+00 0. -1.
          2   -1    0    0  501    0 -0.00000000000E+00 -0.00000000000E+00 -0.10629407515E+03  0.10629407515E+03  0.00000000000E+00 0. -1.
    9000006    2    1    2  501    0  0.00000000000E+00  0.00000000000E+00  0.89370592485E+03  0.11062940752E+04  0.65205544289E+03 0.  0.
         13    1    3    3    0    0 -0.66251640869E+02 -0.16213580882E+03  0.91339967846E+03  0.93004100610E+03  0.00000000000E+00 0. -1.
          4    1    3    3  501    0  0.66251640869E+02  0.16213580882E+03 -0.19693753610E+02  0.17625306905E+03  0.00000000000E+00 0. -1.
<mgrwt>
<rscale>  0 0.65205544E+03</rscale>
<asrwt>0</asrwt>
<pdfrwt beam="1">0</pdfrwt>
<pdfrwt beam="2">  1        2 0.38652472E+00 0.65205544E+03</pdfrwt>
<totfact> 0.44707746E+00</totfact>
</mgrwt>
</event>
<event>
 5    1  0.2354746E-004  0.6603045E+03  0.7818608E-02  0.9787633E-01
         13   -1    0    0    0    0  0.00000000000E+00  0.00000000000E+00  0.10000000000E+04  0.10000000000E+04  0.00000000000E+00 0. -1.
          2   -1    0    0  501    0 -0.00000000000E+00 -0.00000000000E+00 -0.10900049602E+03  0.10900049602E+03  0.00000000000E+00 0. -1.
    9000006    2    1    2  501    0  0.00000000000E+00  0.00000000000E+00  0.89099950398E+03  0.11090004960E+04  0.66030446316E+03 0.  0.
         13    1    3    3    0    0  0.25678207987E+02  0.25061800404E+03  0.87119030588E+02  0.26656796470E+03  0.00000000000E+00 0. -1.
          2    1    3    3  501    0 -0.25678207987E+02 -0.25061800404E+03  0.80388047339E+03  0.84243253132E+03  0.00000000000E+00 0. -1.
<mgrwt>
<rscale>  0 0.66030446E+03</rscale>
<asrwt>0</asrwt>
<pdfrwt beam="1">0</pdfrwt>
<pdfrwt beam="2">  1        2 0.39636628E+00 0.66030446E+03</pdfrwt>
<totfact> 0.41062986E+00</totfact>
</mgrwt>
</event>
<event>
 5    1  0.2354746E-004  0.6514279E+03  0.7818608E-02  0.9804103E-01
         13   -1    0    0    0    0  0.00000000000E+00  0.00000000000E+00  0.10000000000E+04  0.10000000000E+04  0.00000000000E+00 0. -1.
          2   -1    0    0  501    0 -0.00000000000E+00 -0.00000000000E+00 -0.10608958233E+03  0.10608958233E+03  0.00000000000E+00 0. -1.
    9000006    2    1    2  501    0  0.00000000000E+00  0.00000000000E+00  0.89391041767E+03  0.11060895823E+04  0.65142791567E+03 0.  0.
         13    1    3    3    0    0 -0.25510195185E+03  0.19551722397E+03  0.53657061146E+03  0.62546943314E+03  0.00000000000E+00 0. -1.
          2    1    3    3  501    0  0.25510195185E+03 -0.19551722397E+03  0.35733980621E+03  0.48062014919E+03  0.00000000000E+00 0. -1.
<mgrwt>
<rscale>  0 0.65142792E+03</rscale>
<asrwt>0</asrwt>
<pdfrwt beam="1">0</pdfrwt>
<pdfrwt beam="2">  1        2 0.38578111E+00 0.65142792E+03</pdfrwt>
<totfact> 0.44994680E+00</totfact>
</mgrwt>
</event>
<event>
 5    1  0.2354746E-004  0.6604012E+03  0.7818608E-02  0.9787456E-01
         13   -1    0    0    0    0  0.00000000000E+00  0.00000000000E+00  0.10000000000E+04  0.10000000000E+04  0.00000000000E+00 0. -1.
          2   -1    0    0  501    0 -0.00000000000E+00 -0.00000000000E+00 -0.10903242097E+03  0.10903242097E+03  0.00000000000E+00 0. -1.
    9000006    2    1    2  501    0  0.00000000000E+00  0.00000000000E+00  0.89096757903E+03  0.11090324210E+04  0.66040115374E+03 0.  0.
         13    1    3    3    0    0  0.23937970347E+03 -0.43558029812E+02  0.82036412043E+03  0.85568524265E+03  0.00000000000E+00 0. -1.
          2    1    3    3  501    0 -0.23937970347E+03  0.43558029812E+02  0.70603458605E+02  0.25334717832E+03  0.00000000000E+00 0. -1.
<mgrwt>
<rscale>  0 0.66040115E+03</rscale>
<asrwt>0</asrwt>
<pdfrwt beam="1">0</pdfrwt>
<pdfrwt beam="2">  1        2 0.39648237E+00 0.66040115E+03</pdfrwt>
<totfact> 0.41021644E+00</totfact>
</mgrwt>
</event>
<event>
 5    1  0.2354746E-004  0.6449845E+03  0.7818608E-02  0.9816236E-01
         13   -1    0    0    0    0  0.00000000000E+00  0.00000000000E+00  0.10000000000E+04  0.10000000000E+04  0.00000000000E+00 0. -1.
          2   -1    0    0  501    0 -0.00000000000E+00 -0.00000000000E+00 -0.10400125221E+03  0.10400125221E+03  0.00000000000E+00 0. -1.
    9000006    2    1    2  501    0  0.00000000000E+00  0.00000000000E+00  0.89599874779E+03  0.11040012522E+04  0.64498450278E+03 0.  0.
         13    1    3    3    0    0 -0.29704471379E+03  0.86768218368E+02  0.60334675493E+03  0.67807934078E+03  0.00000000000E+00 0. -1.
          4    1    3    3  501    0  0.29704471379E+03 -0.86768218368E+02  0.29265199287E+03  0.42592191143E+03  0.00000000000E+00 0. -1.
<mgrwt>
<rscale>  0 0.64498450E+03</rscale>
<asrwt>0</asrwt>
<pdfrwt beam="1">0</pdfrwt>
<pdfrwt beam="2">  1        2 0.37818717E+00 0.64498450E+03</pdfrwt>
<totfact> 0.48022114E+00</totfact>
</mgrwt>
</event>
<event>
 5    1  0.2354746E-004  0.6609225E+03  0.7818608E-02  0.9786497E-01
         13   -1    0    0    0    0  0.00000000000E+00  0.00000000000E+00  0.10000000000E+04  0.10000000000E+04  0.00000000000E+00 0. -1.
          2   -1    0    0  501    0 -0.00000000000E+00 -0.00000000000E+00 -0.10920465362E+03  0.10920465362E+03  0.00000000000E+00 0. -1.
    9000006    2    1    2  501    0  0.00000000000E+00  0.00000000000E+00  0.89079534638E+03  0.11092046536E+04  0.66092254803E+03 0.  0.
         13    1    3    3    0    0 -0.32524157152E+03  0.55834133654E+02  0.41608207229E+03  0.53105915038E+03  0.00000000000E+00 0. -1.
          4    1    3    3  501    0  0.32524157152E+03 -0.55834133654E+02  0.47471327408E+03  0.57814550324E+03  0.00000000000E+00 0. -1.
<mgrwt>
<rscale>  0 0.66092255E+03</rscale>
<asrwt>0</asrwt>
<pdfrwt beam="1">0</pdfrwt>
<pdfrwt beam="2">  1        2 0.39710867E+00 0.66092255E+03</pdfrwt>
<totfact> 0.40799253E+00</totfact>
</mgrwt>
</event>
<event>
 5    1  0.2354746E-004  0.6468806E+03  0.7818608E-02  0.9812650E-01
         13   -1    0    0    0    0  0.00000000000E+00  0.00000000000E+00  0.10000000000E+04  0.10000000000E+04  0.00000000000E+00 0. -1.
          2   -1    0    0  501    0 -0.00000000000E+00 -0.00000000000E+00 -0.10461363127E+03  0.10461363127E+03  0.00000000000E+00 0. -1.
    9000006    2    1    2  501    0  0.00000000000E+00  0.00000000000E+00  0.89538636873E+03  0.11046136313E+04  0.64688061114E+03 0.  0.
         13    1    3    3    0    0 -0.29762306173E+03 -0.48078909890E+02  0.24765915753E+03  0.39016166746E+03  0.00000000000E+00 0. -1.
          4    1    3    3  501    0  0.29762306173E+03  0.48078909890E+02  0.64772721120E+03  0.71445196380E+03  0.00000000000E+00 0. -1.
<mgrwt>
<rscale>  0 0.64688061E+03</rscale>
<asrwt>0</asrwt>
<pdfrwt beam="1">0</pdfrwt>
<pdfrwt beam="2">  1        2 0.38041401E+00 0.64688061E+03</pdfrwt>
<totfact> 0.47115716E+00</totfact>
</mgrwt>
</event>
<event>
 5    1  0.2354746E-004  0.6515934E+03  0.7818608E-02  0.9803794E-01
         13   -1    0    0    0    0  0.00000000000E+00  0.00000000000E+00  0.10000000000E+04  0.10000000000E+04  0.00000000000E+00 0. -1.
          2   -1    0    0  501    0 -0.00000000000E+00 -0.00000000000E+00 -0.10614349253E+03  0.10614349253E+03  0.00000000000E+00 0. -1.
    9000006    2    1    2  501    0  0.00000000000E+00  0.00000000000E+00  0.89385650747E+03  0.11061434925E+04  0.65159340860E+03 0.  0.
         13    1    3    3    0    0 -0.26240476472E+03 -0.55446634854E+02  0.76092832543E+03  0.80681008069E+03  0.00000000000E+00 0. -1.
          2    1    3    3  501    0  0.26240476472E+03  0.55446634854E+02  0.13292818204E+03  0.29933341184E+03  0.00000000000E+00 0. -1.
<mgrwt>
<rscale>  0 0.65159341E+03</rscale>
<asrwt>0</asrwt>
<pdfrwt beam="1">0</pdfrwt>
<pdfrwt beam="2">  1        2 0.38597715E+00 0.65159341E+03</pdfrwt>
<totfact> 0.44918874E+00</totfact>
</mgrwt>
</event>
<event>
 5    1  0.2354746E-004  0.6519915E+03  0.7818608E-02  0.9803049E-01
         13   -1    0    0    0    0  0.00000000000E+00  0.00000000000E+00  0.10000000000E+04  0.10000000000E+04  0.00000000000E+00 0. -1.
          2   -1    0    0  501    0 -0.00000000000E+00 -0.00000000000E+00 -0.10627323831E+03  0.10627323831E+03  0.00000000000E+00 0. -1.
    9000006    2    1    2  501    0  0.00000000000E+00  0.00000000000E+00  0.89372676169E+03  0.11062732383E+04  0.65199152852E+03 0.  0.
         13    1    3    3    0    0 -0.13238649500E+03  0.96886428808E+02 -0.31129563691E+02  0.16697968104E+03  0.00000000000E+00 0. -1.
          4    1    3    3  501    0  0.13238649500E+03 -0.96886428808E+02  0.92485632538E+03  0.93929355727E+03  0.00000000000E+00 0. -1.
<mgrwt>
<rscale>  0 0.65199153E+03</rscale>
<asrwt>0</asrwt>
<pdfrwt beam="1">0</pdfrwt>
<pdfrwt beam="2">  1        2 0.38644895E+00 0.65199153E+03</pdfrwt>
<totfact> 0.44736907E+00</totfact>
</mgrwt>
</event>
<event>
 5    1  0.2354746E-004  0.6228083E+03  0.7818608E-02  0.9859184E-01
         13   -1    0    0    0    0  0.00000000000E+00  0.00000000000E+00  0.10000000000E+04  0.10000000000E+04  0.00000000000E+00 0. -1.
          2   -1    0    0  501    0 -0.00000000000E+00 -0.00000000000E+00 -0.96972551171E+02  0.96972551171E+02  0.00000000000E+00 0. -1.
    9000006    2    1    2  501    0  0.00000000000E+00  0.00000000000E+00  0.90302744883E+03  0.10969725512E+04  0.62280832098E+03 0.  0.
         13    1    3    3    0    0  0.29770680436E+03  0.52902960277E+02  0.58266485037E+03  0.65644984000E+03  0.00000000000E+00 0. -1.
          2    1    3    3  501    0 -0.29770680436E+03 -0.52902960277E+02  0.32036259846E+03  0.44052271117E+03  0.00000000000E+00 0. -1.
<mgrwt>
<rscale>  0 0.62280832E+03</rscale>
<asrwt>0</asrwt>
<pdfrwt beam="1">0</pdfrwt>
<pdfrwt beam="2">  1        2 0.35262820E+00 0.62280832E+03</pdfrwt>
<totfact> 0.59635185E+00</totfact>
</mgrwt>
</event>
<event>
 5    1  0.2354746E-004  0.6536369E+03  0.7818608E-02  0.9799979E-01
         13   -1    0    0    0    0  0.00000000000E+00  0.00000000000E+00  0.10000000000E+04  0.10000000000E+04  0.00000000000E+00 0. -1.
          2   -1    0    0  501    0 -0.00000000000E+00 -0.00000000000E+00 -0.10681030900E+03  0.10681030900E+03  0.00000000000E+00 0. -1.
    9000006    2    1    2  501    0  0.00000000000E+00  0.00000000000E+00  0.89318969100E+03  0.11068103090E+04  0.65363692981E+03 0.  0.
         13    1    3    3    0    0  0.18582844345E+03  0.18405268231E+03  0.77842629447E+03  0.82119126650E+03  0.00000000000E+00 0. -1.
          2    1    3    3  501    0 -0.18582844345E+03 -0.18405268231E+03  0.11476339653E+03  0.28561904250E+03  0.00000000000E+00 0. -1.
<mgrwt>
<rscale>  0 0.65363693E+03</rscale>
<asrwt>0</asrwt>
<pdfrwt beam="1">0</pdfrwt>
<pdfrwt beam="2">  1        2 0.38840194E+00 0.65363693E+03</pdfrwt>
<totfact> 0.43990749E+00</totfact>
</mgrwt>
</event>
<event>
 5    1  0.2354746E-004  0.6509327E+03  0.7818608E-02  0.9805031E-01
         13   -1    0    0    0    0  0.00000000000E+00  0.00000000000E+00  0.10000000000E+04  0.10000000000E+04  0.00000000000E+00 0. -1.
          2   -1    0    0  501    0 -0.00000000000E+00 -0.00000000000E+00 -0.10592833362E+03  0.10592833362E+03  0.00000000000E+00 0. -1.
    9000006    2    1    2  501    0  0.00000000000E+00  0.00000000000E+00  0.89407166638E+03  0.11059283336E+04  0.65093266510E+03 0.  0.
         13    1    3    3    0    0 -0.25949596156E+03  0.19573270109E+03  0.41866273044E+03  0.53002634481E+03  0.00000000000E+00 0. -1.
          4    1    3    3  501    0  0.25949596156E+03 -0.19573270109E+03  0.47540893594E+03  0.57590198881E+03  0.00000000000E+00 0. -1.
<mgrwt>
<rscale>  0 0.65093267E+03</rscale>
<asrwt>0</asrwt>
<pdfrwt beam="1">0</pdfrwt>
<pdfrwt beam="2">  1        2 0.38519475E+00 0.65093267E+03</pdfrwt>
<totfact> 0.45222112E+00</totfact>
</mgrwt>
</event>
<event>
 5    1  0.2354746E-004  0.6499480E+03  0.7818608E-02  0.9806877E-01
         13   -1    0    0    0    0  0.00000000000E+00  0.00000000000E+00  0.10000000000E+04  0.10000000000E+04  0.00000000000E+00 0. -1.
          2   -1    0    0  501    0 -0.00000000000E+00 -0.00000000000E+00 -0.10560810270E+03  0.10560810270E+03  0.00000000000E+00 0. -1.
    9000006    2    1    2  501    0  0.00000000000E+00  0.00000000000E+00  0.89439189730E+03  0.11056081027E+04  0.64994800623E+03 0.  0.
         13    1    3    3    0    0  0.17575390588E+03  0.10181843654E+01  0.91217580887E+03  0.92895380855E+03  0.00000000000E+00 0. -1.
          4    1    3    3  501    0 -0.17575390588E+03 -0.10181843654E+01 -0.17783911567E+02  0.17665429415E+03  0.00000000000E+00 0. -1.
<mgrwt>
<rscale>  0 0.64994801E+03</rscale>
<asrwt>0</asrwt>
<pdfrwt beam="1">0</pdfrwt>
<pdfrwt beam="2">  1        2 0.38403027E+00 0.64994801E+03</pdfrwt>
<totfact> 0.45676872E+00</totfact>
</mgrwt>
</event>
<event>
 5    1  0.2354746E-004  0.6247019E+03  0.7818608E-02  0.9855443E-01
         13   -1    0    0    0    0  0.00000000000E+00  0.00000000000E+00  0.10000000000E+04  0.10000000000E+04  0.00000000000E+00 0. -1.
          2   -1    0    0  501    0 -0.00000000000E+00 -0.00000000000E+00 -0.97563113914E+02  0.97563113914E+02  0.00000000000E+00 0. -1.
    9000006    2    1    2  501    0  0.00000000000E+00  0.00000000000E+00  0.90243688609E+03  0.10975631139E+04  0.62470189343E+03 0.  0.
         13    1    3    3    0    0 -0.48589923018E+02 -0.26599322628E+03  0.17649623041E+03  0.32289982409E+03  0.00000000000E+00 0. -1.
          2    1    3    3  501    0  0.48589923018E+02  0.26599322628E+03  0.72594065567E+03  0.77466328983E+03  0.00000000000E+00 0. -1.
<mgrwt>
<rscale>  0 0.62470189E+03</rscale>
<asrwt>0</asrwt>
<pdfrwt beam="1">0</pdfrwt>
<pdfrwt beam="2">  1        2 0.35477571E+00 0.62470189E+03</pdfrwt>
<totfact> 0.58567838E+00</totfact>
</mgrwt>
</event>
<event>
 5    1  0.2354746E-004  0.6493407E+03  0.7818608E-02  0.9808017E-01
         13   -1    0    0    0    0  0.00000000000E+00  0.00000000000E+00  0.10000000000E+04  0.10000000000E+04  0.00000000000E+00 0. -1.
          2   -1    0    0  501    0 -0.00000000000E+00 -0.00000000000E+00 -0.10541084423E+03  0.10541084423E+03  0.00000000000E+00 0. -1.
    9000006    2    1    2  501    0  0.00000000000E+00  0.00000000000E+00  0.89458915577E+03  0.11054108442E+04  0.64934072482E+03 0.  0.
         13    1    3    3    0    0  0.13164486810E+03 -0.28006773842E+03  0.28012906415E+03  0.41742137222E+03  0.00000000000E+00 0. -1.
          4    1    3    3  501    0 -0.13164486810E+03  0.28006773842E+03  0.61446009162E+03  0.68798947201E+03  0.00000000000E+00 0. -1.
<mgrwt>
<rscale>  0 0.64934072E+03</rscale>
<asrwt>0</asrwt>
<pdfrwt beam="1">0</pdfrwt>
<pdfrwt beam="2">  1        2 0.38331297E+00 0.64934072E+03</pdfrwt>
<totfact> 0.45959059E+00</totfact>
</mgrwt>
</event>
<event>
 5    1  0.2354746E-004  0.6402547E+03  0.7818608E-02  0.9825239E-01
         13   -1    0    0    0    0  0.00000000000E+00  0.00000000000E+00  0.10000000000E+04  0.10000000000E+04  0.00000000000E+00 0. -1.
          2   -1    0    0  501    0 -0.00000000000E+00 -0.00000000000E+00 -0.10248152998E+03  0.10248152998E+03  0.00000000000E+00 0. -1.
    9000006    2    1    2  501    0  0.00000000000E+00  0.00000000000E+00  0.89751847002E+03  0.11024815300E+04  0.64025473049E+03 0.  0.
         13    1    3    3    0    0 -0.60431149754E+02  0.25403409910E+03  0.76765007985E+03  0.81084640498E+03  0.00000000000E+00 0. -1.
          4    1    3    3  501    0  0.60431149754E+02 -0.25403409910E+03  0.12986839017E+03  0.29163512500E+03  0.00000000000E+00 0. -1.
<mgrwt>
<rscale>  0 0.64025473E+03</rscale>
<asrwt>0</asrwt>
<pdfrwt beam="1">0</pdfrwt>
<pdfrwt beam="2">  1        2 0.37266089E+00 0.64025473E+03</pdfrwt>
<totfact> 0.50340730E+00</totfact>
</mgrwt>
</event>
<event>
 5    1  0.2354746E-004  0.6539940E+03  0.7818608E-02  0.9799314E-01
         13   -1    0    0    0    0  0.00000000000E+00  0.00000000000E+00  0.10000000000E+04  0.10000000000E+04  0.00000000000E+00 0. -1.
          2   -1    0    0  501    0 -0.00000000000E+00 -0.00000000000E+00 -0.10692702331E+03  0.10692702331E+03  0.00000000000E+00 0. -1.
    9000006    2    1    2  501    0  0.00000000000E+00  0.00000000000E+00  0.89307297669E+03  0.11069270233E+04  0.65399395505E+03 0.  0.
         13    1    3    3    0    0 -0.64831743809E+02  0.85013494825E+00 -0.95938114814E+02  0.11579291692E+03  0.00000000000E+00 0. -1.
          4    1    3    3  501    0  0.64831743809E+02 -0.85013494825E+00  0.98901109150E+03  0.99113410639E+03  0.00000000000E+00 0. -1.
<mgrwt>
<rscale>  0 0.65399396E+03</rscale>
<asrwt>0</asrwt>
<pdfrwt beam="1">0</pdfrwt>
<pdfrwt beam="2">  1        2 0.38882636E+00 0.65399396E+03</pdfrwt>
<totfact> 0.43830094E+00</totfact>
</mgrwt>
</event>
<event>
 5    1  0.2354746E-004  0.6576339E+03  0.7818608E-02  0.9792559E-01
         13   -1    0    0    0    0  0.00000000000E+00  0.00000000000E+00  0.10000000000E+04  0.10000000000E+04  0.00000000000E+00 0. -1.
          2   -1    0    0  501    0 -0.00000000000E+00 -0.00000000000E+00 -0.10812058216E+03  0.10812058216E+03  0.00000000000E+00 0. -1.
    9000006    2    1    2  501    0  0.00000000000E+00  0.00000000000E+00  0.89187941784E+03  0.11081205822E+04  0.65763388647E+03 0.  0.
         13    1    3    3    0    0 -0.24719868069E+03  0.18257146012E+03  0.24885058713E+03  0.39543158763E+03  0.00000000000E+00 0. -1.
          2    1    3    3  501    0  0.24719868069E+03 -0.18257146012E+03  0.64302883072E+03  0.71268899452E+03  0.00000000000E+00 0. -1.
<mgrwt>
<rscale>  0 0.65763389E+03</rscale>
<asrwt>0</asrwt>
<pdfrwt beam="1">0</pdfrwt>
<pdfrwt beam="2">  1        2 0.39316658E+00 0.65763389E+03</pdfrwt>
<totfact> 0.42217354E+00</totfact>
</mgrwt>
</event>
<event>
 5    1  0.2354746E-004  0.6176944E+03  0.7818608E-02  0.9869361E-01
         13   -1    0    0    0    0  0.00000000000E+00  0.00000000000E+00  0.10000000000E+04  0.10000000000E+04  0.00000000000E+00 0. -1.
          2   -1    0    0  501    0 -0.00000000000E+00 -0.00000000000E+00 -0.95386581567E+02  0.95386581567E+02  0.00000000000E+00 0. -1.
    9000006    2    1    2  501    0  0.00000000000E+00  0.00000000000E+00  0.90461341843E+03  0.10953865816E+04  0.61769436315E+03 0.  0.
         13    1    3    3    0    0  0.30316824306E+03  0.50206029638E+02  0.39750618973E+03  0.50243686159E+03  0.00000000000E+00 0. -1.
          4    1    3    3  501    0 -0.30316824306E+03 -0.50206029638E+02  0.50710722871E+03  0.59294971998E+03  0.00000000000E+00 0. -1.
<mgrwt>
<rscale>  0 0.61769436E+03</rscale>
<asrwt>0</asrwt>
<pdfrwt beam="1">0</pdfrwt>
<pdfrwt beam="2">  1        2 0.34686103E+00 0.61769436E+03</pdfrwt>
<totfact> 0.62591783E+00</totfact>
</mgrwt>
</event>
<event>
 5    1  0.2354746E-004  0.6507941E+03  0.7818608E-02  0.9805290E-01
         13   -1    0    0    0    0  0.00000000000E+00  0.00000000000E+00  0.10000000000E+04  0.10000000000E+04  0.00000000000E+00 0. -1.
          2   -1    0    0  501    0 -0.00000000000E+00 -0.00000000000E+00 -0.10588324174E+03  0.10588324174E+03  0.00000000000E+00 0. -1.
    9000006    2    1    2  501    0  0.00000000000E+00  0.00000000000E+00  0.89411675826E+03  0.11058832417E+04  0.65079410489E+03 0.  0.
         13    1    3    3    0    0  0.12890294471E+03  0.23184502573E+03  0.76729613507E+03  0.81185678787E+03  0.00000000000E+00 0. -1.
          4    1    3    3  501    0 -0.12890294471E+03 -0.23184502573E+03  0.12682062319E+03  0.29402645387E+03  0.00000000000E+00 0. -1.
<mgrwt>
<rscale>  0 0.65079410E+03</rscale>
<asrwt>0</asrwt>
<pdfrwt beam="1">0</pdfrwt>
<pdfrwt beam="2">  1        2 0.38503078E+00 0.65079410E+03</pdfrwt>
<totfact> 0.45285897E+00</totfact>
</mgrwt>
</event>
<event>
 5    1  0.2354746E-004  0.6300164E+03  0.7818608E-02  0.9845017E-01
         13   -1    0    0    0    0  0.00000000000E+00  0.00000000000E+00  0.10000000000E+04  0.10000000000E+04  0.00000000000E+00 0. -1.
          2   -1    0    0  501    0 -0.00000000000E+00 -0.00000000000E+00 -0.99230170755E+02  0.99230170755E+02  0.00000000000E+00 0. -1.
    9000006    2    1    2  501    0  0.00000000000E+00  0.00000000000E+00  0.90076982925E+03  0.10992301708E+04  0.63001641488E+03 0.  0.
         13    1    3    3    0    0  0.28903382163E+03 -0.83924015766E+02  0.61262342178E+03  0.68256226631E+03  0.00000000000E+00 0. -1.
          2    1    3    3  501    0 -0.28903382163E+03  0.83924015766E+02  0.28814640746E+03  0.41666790445E+03  0.00000000000E+00 0. -1.
<mgrwt>
<rscale>  0 0.63001641E+03</rscale>
<asrwt>0</asrwt>
<pdfrwt beam="1">0</pdfrwt>
<pdfrwt beam="2">  1        2 0.36083775E+00 0.63001641E+03</pdfrwt>
<totfact> 0.55649827E+00</totfact>
</mgrwt>
</event>
<event>
 5    1  0.2354746E-004  0.6452440E+03  0.7818608E-02  0.9815745E-01
         13   -1    0    0    0    0  0.00000000000E+00  0.00000000000E+00  0.10000000000E+04  0.10000000000E+04  0.00000000000E+00 0. -1.
          2   -1    0    0  501    0 -0.00000000000E+00 -0.00000000000E+00 -0.10408496010E+03  0.10408496010E+03  0.00000000000E+00 0. -1.
    9000006    2    1    2  501    0  0.00000000000E+00  0.00000000000E+00  0.89591503990E+03  0.11040849601E+04  0.64524401616E+03 0.  0.
         13    1    3    3    0    0  0.10997558728E+03 -0.16294679500E+03  0.10238167696E+02  0.19685301084E+03  0.00000000000E+00 0. -1.
          4    1    3    3  501    0 -0.10997558728E+03  0.16294679500E+03  0.88567687221E+03  0.90723194926E+03  0.00000000000E+00 0. -1.
<mgrwt>
<rscale>  0 0.64524402E+03</rscale>
<asrwt>0</asrwt>
<pdfrwt beam="1">0</pdfrwt>
<pdfrwt beam="2">  1        2 0.37849156E+00 0.64524402E+03</pdfrwt>
<totfact> 0.47897286E+00</totfact>
</mgrwt>
</event>
<event>
 5    1  0.2354746E-004  0.6486767E+03  0.7818608E-02  0.9809265E-01
         13   -1    0    0    0    0  0.00000000000E+00  0.00000000000E+00  0.10000000000E+04  0.10000000000E+04  0.00000000000E+00 0. -1.
          2   -1    0    0  501    0 -0.00000000000E+00 -0.00000000000E+00 -0.10519536906E+03  0.10519536906E+03  0.00000000000E+00 0. -1.
    9000006    2    1    2  501    0  0.00000000000E+00  0.00000000000E+00  0.89480463094E+03  0.11051953691E+04  0.64867671166E+03 0.  0.
         13    1    3    3    0    0  0.24459493876E+03  0.16170548190E+03  0.21119807414E+03  0.36135851098E+03  0.00000000000E+00 0. -1.
          4    1    3    3  501    0 -0.24459493876E+03 -0.16170548190E+03  0.68360655680E+03  0.74383685808E+03  0.00000000000E+00 0. -1.
<mgrwt>
<rscale>  0 0.64867671E+03</rscale>
<asrwt>0</asrwt>
<pdfrwt beam="1">0</pdfrwt>
<pdfrwt beam="2">  1        2 0.38252942E+00 0.64867671E+03</pdfrwt>
<totfact> 0.46269115E+00</totfact>
</mgrwt>
</event>
<event>
 5    1  0.2354746E-004  0.6614682E+03  0.7818608E-02  0.9785495E-01
         13   -1    0    0    0    0  0.00000000000E+00  0.00000000000E+00  0.10000000000E+04  0.10000000000E+04  0.00000000000E+00 0. -1.
          2   -1    0    0  501    0 -0.00000000000E+00 -0.00000000000E+00 -0.10938505136E+03  0.10938505136E+03  0.00000000000E+00 0. -1.
    9000006    2    1    2  501    0  0.00000000000E+00  0.00000000000E+00  0.89061494864E+03  0.11093850514E+04  0.66146821954E+03 0.  0.
         13    1    3    3    0    0 -0.22727229126E+03 -0.46793254218E+02  0.50043703785E+02  0.23737454645E+03  0.00000000000E+00 0. -1.
          4    1    3    3  501    0  0.22727229126E+03  0.46793254218E+02  0.84057124485E+03  0.87201050492E+03  0.00000000000E+00 0. -1.
<mgrwt>
<rscale>  0 0.66146822E+03</rscale>
<asrwt>0</asrwt>
<pdfrwt beam="1">0</pdfrwt>
<pdfrwt beam="2">  1        2 0.39776466E+00 0.66146822E+03</pdfrwt>
<totfact> 0.40567481E+00</totfact>
</mgrwt>
</event>
<event>
 5    1  0.2354746E-004  0.6563810E+03  0.7818608E-02  0.9794879E-01
         13   -1    0    0    0    0  0.00000000000E+00  0.00000000000E+00  0.10000000000E+04  0.10000000000E+04  0.00000000000E+00 0. -1.
          2   -1    0    0  501    0 -0.00000000000E+00 -0.00000000000E+00 -0.10770901621E+03  0.10770901621E+03  0.00000000000E+00 0. -1.
    9000006    2    1    2  501    0  0.00000000000E+00  0.00000000000E+00  0.89229098379E+03  0.11077090162E+04  0.65638103631E+03 0.  0.
         13    1    3    3    0    0  0.94199349599E+02  0.30506492508E+03  0.31794459247E+03  0.45058505286E+03  0.00000000000E+00 0. -1.
          2    1    3    3  501    0 -0.94199349599E+02 -0.30506492508E+03  0.57434639132E+03  0.65712396335E+03  0.00000000000E+00 0. -1.
<mgrwt>
<rscale>  0 0.65638104E+03</rscale>
<asrwt>0</asrwt>
<pdfrwt beam="1">0</pdfrwt>
<pdfrwt beam="2">  1        2 0.39166998E+00 0.65638104E+03</pdfrwt>
<totfact> 0.42767305E+00</totfact>
</mgrwt>
</event>
<event>
 5    1  0.2354746E-004  0.6491086E+03  0.7818608E-02  0.9808453E-01
         13   -1    0    0    0    0  0.00000000000E+00  0.00000000000E+00  0.10000000000E+04  0.10000000000E+04  0.00000000000E+00 0. -1.
          2   -1    0    0  501    0 -0.00000000000E+00 -0.00000000000E+00 -0.10533548813E+03  0.10533548813E+03  0.00000000000E+00 0. -1.
    9000006    2    1    2  501    0  0.00000000000E+00  0.00000000000E+00  0.89466451187E+03  0.11053354881E+04  0.64910858301E+03 0.  0.
         13    1    3    3    0    0  0.19185558554E+03 -0.22128630381E+03  0.20918073942E+03  0.35990662081E+03  0.00000000000E+00 0. -1.
          4    1    3    3  501    0 -0.19185558554E+03  0.22128630381E+03  0.68548377244E+03  0.74542886733E+03  0.00000000000E+00 0. -1.
<mgrwt>
<rscale>  0 0.64910858E+03</rscale>
<asrwt>0</asrwt>
<pdfrwt beam="1">0</pdfrwt>
<pdfrwt beam="2">  1        2 0.38303895E+00 0.64910858E+03</pdfrwt>
<totfact> 0.46067277E+00</totfact>
</mgrwt>
</event>
<event>
 5    1  0.2354746E-004  0.6381780E+03  0.7818608E-02  0.9829219E-01
         13   -1    0    0    0    0  0.00000000000E+00  0.00000000000E+00  0.10000000000E+04  0.10000000000E+04  0.00000000000E+00 0. -1.
          2   -1    0    0  501    0 -0.00000000000E+00 -0.00000000000E+00 -0.10181778302E+03  0.10181778302E+03  0.00000000000E+00 0. -1.
    9000006    2    1    2  501    0  0.00000000000E+00  0.00000000000E+00  0.89818221698E+03  0.11018177830E+04  0.63817797836E+03 0.  0.
         13    1    3    3    0    0  0.37385748569E+02  0.19609541098E+03  0.87887197086E+03  0.90125858974E+03  0.00000000000E+00 0. -1.
          4    1    3    3  501    0 -0.37385748569E+02 -0.19609541098E+03  0.19310246120E+02  0.20055919328E+03  0.00000000000E+00 0. -1.
<mgrwt>
<rscale>  0 0.63817798E+03</rscale>
<asrwt>0</asrwt>
<pdfrwt beam="1">0</pdfrwt>
<pdfrwt beam="2">  1        2 0.37024726E+00 0.63817798E+03</pdfrwt>
<totfact> 0.51385189E+00</totfact>
</mgrwt>
</event>
<event>
 5    1  0.2354746E-004  0.6401636E+03  0.7818608E-02  0.9825414E-01
         13   -1    0    0    0    0  0.00000000000E+00  0.00000000000E+00  0.10000000000E+04  0.10000000000E+04  0.00000000000E+00 0. -1.
          2   -1    0    0  501    0 -0.00000000000E+00 -0.00000000000E+00 -0.10245234827E+03  0.10245234827E+03  0.00000000000E+00 0. -1.
    9000006    2    1    2  501    0  0.00000000000E+00  0.00000000000E+00  0.89754765173E+03  0.11024523483E+04  0.64016356745E+03 0.  0.
         13    1    3    3    0    0  0.31856148757E+03  0.30423753695E+02  0.43718007473E+03  0.54178726812E+03  0.00000000000E+00 0. -1.
          4    1    3    3  501    0 -0.31856148757E+03 -0.30423753695E+02  0.46036757700E+03  0.56066508015E+03  0.00000000000E+00 0. -1.
<mgrwt>
<rscale>  0 0.64016357E+03</rscale>
<asrwt>0</asrwt>
<pdfrwt beam="1">0</pdfrwt>
<pdfrwt beam="2">  1        2 0.37255478E+00 0.64016357E+03</pdfrwt>
<totfact> 0.50386238E+00</totfact>
</mgrwt>
</event>
<event>
 5    1  0.2354746E-004  0.6685195E+03  0.7818608E-02  0.9772636E-01
         13   -1    0    0    0    0  0.00000000000E+00  0.00000000000E+00  0.10000000000E+04  0.10000000000E+04  0.00000000000E+00 0. -1.
          2   -1    0    0  501    0 -0.00000000000E+00 -0.00000000000E+00 -0.11172956758E+03  0.11172956758E+03  0.00000000000E+00 0. -1.
    9000006    2    1    2  501    0  0.00000000000E+00  0.00000000000E+00  0.88827043242E+03  0.11117295676E+04  0.66851946142E+03 0.  0.
         13    1    3    3    0    0  0.23430969065E+03 -0.22589905102E+03  0.31750713696E+03  0.45468911842E+03  0.00000000000E+00 0. -1.
          2    1    3    3  501    0 -0.23430969065E+03  0.22589905102E+03  0.57076329546E+03  0.65704044916E+03  0.00000000000E+00 0. -1.
<mgrwt>
<rscale>  0 0.66851946E+03</rscale>
<asrwt>0</asrwt>
<pdfrwt beam="1">0</pdfrwt>
<pdfrwt beam="2">  1        2 0.40629019E+00 0.66851946E+03</pdfrwt>
<totfact> 0.37660931E+00</totfact>
</mgrwt>
</event>
<event>
 5    1  0.2354746E-004  0.6405827E+03  0.7818608E-02  0.9824612E-01
         13   -1    0    0    0    0  0.00000000000E+00  0.00000000000E+00  0.10000000000E+04  0.10000000000E+04  0.00000000000E+00 0. -1.
          2   -1    0    0  501    0 -0.00000000000E+00 -0.00000000000E+00 -0.10258655715E+03  0.10258655715E+03  0.00000000000E+00 0. -1.
    9000006    2    1    2  501    0  0.00000000000E+00  0.00000000000E+00  0.89741344285E+03  0.11025865571E+04  0.64058272579E+03 0.  0.
         13    1    3    3    0    0 -0.80612059809E+02 -0.21937144783E+03  0.71745155844E+02  0.24447802293E+03  0.00000000000E+00 0. -1.
          4    1    3    3  501    0  0.80612059809E+02  0.21937144783E+03  0.82566828701E+03  0.85810853421E+03  0.00000000000E+00 0. -1.
<mgrwt>
<rscale>  0 0.64058273E+03</rscale>
<asrwt>0</asrwt>
<pdfrwt beam="1">0</pdfrwt>
<pdfrwt beam="2">  1        2 0.37304281E+00 0.64058273E+03</pdfrwt>
<totfact> 0.50177253E+00</totfact>
</mgrwt>
</event>
<event>
 5    1  0.2354746E-004  0.6738034E+03  0.7818608E-02  0.9763111E-01
         13   -1    0    0    0    0  0.00000000000E+00  0.00000000000E+00  0.10000000000E+04  0.10000000000E+04  0.00000000000E+00 0. -1.
          2   -1    0    0  501    0 -0.00000000000E+00 -0.00000000000E+00 -0.11350276153E+03  0.11350276153E+03  0.00000000000E+00 0. -1.
    9000006    2    1    2  501    0  0.00000000000E+00  0.00000000000E+00  0.88649723847E+03  0.11135027615E+04  0.67380341801E+03 0.  0.
         13    1    3    3    0    0 -0.21870403572E+03 -0.19527591306E+03  0.16900962498E+03  0.33842043496E+03  0.00000000000E+00 0. -1.
          4    1    3    3  501    0  0.21870403572E+03  0.19527591306E+03  0.71748761349E+03  0.77508232657E+03  0.00000000000E+00 0. -1.
<mgrwt>
<rscale>  0 0.67380342E+03</rscale>
<asrwt>0</asrwt>
<pdfrwt beam="1">0</pdfrwt>
<pdfrwt beam="2">  1        2 0.41273819E+00 0.67380342E+03</pdfrwt>
<totfact> 0.35587966E+00</totfact>
</mgrwt>
</event>
<event>
 5    1  0.2354746E-004  0.6563834E+03  0.7818608E-02  0.9794874E-01
         13   -1    0    0    0    0  0.00000000000E+00  0.00000000000E+00  0.10000000000E+04  0.10000000000E+04  0.00000000000E+00 0. -1.
          2   -1    0    0  501    0 -0.00000000000E+00 -0.00000000000E+00 -0.10770978345E+03  0.10770978345E+03  0.00000000000E+00 0. -1.
    9000006    2    1    2  501    0  0.00000000000E+00  0.00000000000E+00  0.89229021655E+03  0.11077097835E+04  0.65638337412E+03 0.  0.
         13    1    3    3    0    0  0.23511764703E+03  0.88829812031E+02  0.89991471978E+02  0.26696349653E+03  0.00000000000E+00 0. -1.
          4    1    3    3  501    0 -0.23511764703E+03 -0.88829812031E+02  0.80229874457E+03  0.84074628693E+03  0.00000000000E+00 0. -1.
<mgrwt>
<rscale>  0 0.65638337E+03</rscale>
<asrwt>0</asrwt>
<pdfrwt beam="1">0</pdfrwt>
<pdfrwt beam="2">  1        2 0.39167277E+00 0.65638337E+03</pdfrwt>
<totfact> 0.42766274E+00</totfact>
</mgrwt>
</event>
<event>
 5    1  0.2354746E-004  0.6554970E+03  0.7818608E-02  0.9796519E-01
         13   -1    0    0    0    0  0.00000000000E+00  0.00000000000E+00  0.10000000000E+04  0.10000000000E+04  0.00000000000E+00 0. -1.
          2   -1    0    0  501    0 -0.00000000000E+00 -0.00000000000E+00 -0.10741909067E+03  0.10741909067E+03  0.00000000000E+00 0. -1.
    9000006    2    1    2  501    0  0.00000000000E+00  0.00000000000E+00  0.89258090933E+03  0.11074190907E+04  0.65549703482E+03 0.  0.
         13    1    3    3    0    0  0.13122033621E+03 -0.51221646787E+02 -0.53669771591E+02  0.15074109631E+03  0.00000000000E+00 0. -1.
          2    1    3    3  501    0 -0.13122033621E+03  0.51221646787E+02  0.94625068093E+03  0.95667799436E+03  0.00000000000E+00 0. -1.
<mgrwt>
<rscale>  0 0.65549703E+03</rscale>
<asrwt>0</asrwt>
<pdfrwt beam="1">0</pdfrwt>
<pdfrwt beam="2">  1        2 0.39061570E+00 0.65549703E+03</pdfrwt>
<totfact> 0.43158589E+00</totfact>
</mgrwt>
</event>
<event>
 5    1  0.2354746E-004  0.6529389E+03  0.7818608E-02  0.9801280E-01
         13   -1    0    0    0    0  0.00000000000E+00  0.00000000000E+00  0.10000000000E+04  0.10000000000E+04  0.00000000000E+00 0. -1.
          2   -1    0    0  501    0 -0.00000000000E+00 -0.00000000000E+00 -0.10658229566E+03  0.10658229566E+03  0.00000000000E+00 0. -1.
    9000006    2    1    2  501    0  0.00000000000E+00  0.00000000000E+00  0.89341770434E+03  0.11065822957E+04  0.65293888124E+03 0.  0.
         13    1    3    3    0    0 -0.20393147390E+03  0.15766823996E+03  0.10718312414E+03  0.27916937877E+03  0.00000000000E+00 0. -1.
          4    1    3    3  501    0  0.20393147390E+03 -0.15766823996E+03  0.78623458020E+03  0.82741291689E+03  0.00000000000E+00 0. -1.
<mgrwt>
<rscale>  0 0.65293888E+03</rscale>
<asrwt>0</asrwt>
<pdfrwt beam="1">0</pdfrwt>
<pdfrwt beam="2">  1        2 0.38757280E+00 0.65293888E+03</pdfrwt>
<totfact> 0.44306143E+00</totfact>
</mgrwt>
</event>
<event>
 5    1  0.2354746E-004  0.6457512E+03  0.7818608E-02  0.9814784E-01
         13   -1    0    0    0    0  0.00000000000E+00  0.00000000000E+00  0.10000000000E+04  0.10000000000E+04  0.00000000000E+00 0. -1.
          2   -1    0    0  501    0 -0.00000000000E+00 -0.00000000000E+00 -0.10424866904E+03  0.10424866904E+03  0.00000000000E+00 0. -1.
    9000006    2    1    2  501    0  0.00000000000E+00  0.00000000000E+00  0.89575133096E+03  0.11042486690E+04  0.64575124944E+03 0.  0.
         13    1    3    3    0    0 -0.35929561396E+02 -0.31446357962E+03  0.33877691235E+03  0.46362492667E+03  0.00000000000E+00 0. -1.
          4    1    3    3  501    0  0.35929561396E+02  0.31446357962E+03  0.55697441861E+03  0.64062374236E+03  0.00000000000E+00 0. -1.
<mgrwt>
<rscale>  0 0.64575125E+03</rscale>
<asrwt>0</asrwt>
<pdfrwt beam="1">0</pdfrwt>
<pdfrwt beam="2">  1        2 0.37908687E+00 0.64575125E+03</pdfrwt>
<totfact> 0.47654011E+00</totfact>
</mgrwt>
</event>
<event>
 5    1  0.2354746E-004  0.6478949E+03  0.7818608E-02  0.9810737E-01
         13   -1    0    0    0    0  0.00000000000E+00  0.00000000000E+00  0.10000000000E+04  0.10000000000E+04  0.00000000000E+00 0. -1.
          2   -1    0    0  501    0 -0.00000000000E+00 -0.00000000000E+00 -0.10494195270E+03  0.10494195270E+03  0.00000000000E+00 0. -1.
    9000006    2    1    2  501    0  0.00000000000E+00  0.00000000000E+00  0.89505804730E+03  0.11049419527E+04  0.64789490721E+03 0.  0.
         13    1    3    3    0    0 -0.29362910259E+03 -0.13371858808E+03  0.39800555973E+03  0.51235450253E+03  0.00000000000E+00 0. -1.
          2    1    3    3  501    0  0.29362910259E+03  0.13371858808E+03  0.49705248757E+03  0.59258745017E+03  0.00000000000E+00 0. -1.
<mgrwt>
<rscale>  0 0.64789491E+03</rscale>
<asrwt>0</asrwt>
<pdfrwt beam="1">0</pdfrwt>
<pdfrwt beam="2">  1        2 0.38160791E+00 0.64789491E+03</pdfrwt>
<totfact> 0.46636196E+00</totfact>
</mgrwt>
</event>
<event>
 5    1  0.2354746E-004  0.6559643E+03  0.7818608E-02  0.9795652E-01
         13   -1    0    0    0    0  0.00000000000E+00  0.00000000000E+00  0.10000000000E+04  0.10000000000E+04  0.00000000000E+00 0. -1.
          2   -1    0    0  501    0 -0.00000000000E+00 -0.00000000000E+00 -0.10757227680E+03  0.10757227680E+03  0.00000000000E+00 0. -1.
    9000006    2    1    2  501    0  0.00000000000E+00  0.00000000000E+00  0.89242772320E+03  0.11075722768E+04  0.65596425757E+03 0.  0.
         13    1    3    3    0    0  0.83267308924E+00  0.12297059694E+03  0.95960093046E+03  0.96744840007E+03  0.00000000000E+00 0. -1.
          4    1    3    3  501    0 -0.83267308924E+00 -0.12297059694E+03 -0.67173207264E+02  0.14012387673E+03  0.00000000000E+00 0. -1.
<mgrwt>
<rscale>  0 0.65596426E+03</rscale>
<asrwt>0</asrwt>
<pdfrwt beam="1">0</pdfrwt>
<pdfrwt beam="2">  1        2 0.39117274E+00 0.65596426E+03</pdfrwt>
<totfact> 0.42951448E+00</totfact>
</mgrwt>
</event>
<event>
 5    1  0.2354746E-004  0.6822647E+03  0.7818608E-02  0.9748052E-01
         13   -1    0    0    0    0  0.00000000000E+00  0.00000000000E+00  0.10000000000E+04  0.10000000000E+04  0.00000000000E+00 0. -1.
          2   -1    0    0  501    0 -0.00000000000E+00 -0.00000000000E+00 -0.11637127118E+03  0.11637127118E+03  0.00000000000E+00 0. -1.
    9000006    2    1    2  501    0  0.00000000000E+00  0.00000000000E+00  0.88362872882E+03  0.11163712712E+04  0.68226467352E+03 0.  0.
         13    1    3    3    0    0  0.16132755994E+03 -0.10033591947E+03  0.90542393918E+03  0.92514128001E+03  0.00000000000E+00 0. -1.
          4    1    3    3  501    0 -0.16132755994E+03  0.10033591947E+03 -0.21795210367E+02  0.19122999118E+03  0.00000000000E+00 0. -1.
<mgrwt>
<rscale>  0 0.68226467E+03</rscale>
<asrwt>0</asrwt>
<pdfrwt beam="1">0</pdfrwt>
<pdfrwt beam="2">  1        2 0.42316915E+00 0.68226467E+03</pdfrwt>
<totfact> 0.32449209E+00</totfact>
</mgrwt>
</event>
<event>
 5    1  0.2354746E-004  0.6479842E+03  0.7818608E-02  0.9810569E-01
         13   -1    0    0    0    0  0.00000000000E+00  0.00000000000E+00  0.10000000000E+04  0.10000000000E+04  0.00000000000E+00 0. -1.
          2   -1    0    0  501    0 -0.00000000000E+00 -0.00000000000E+00 -0.10497087873E+03  0.10497087873E+03  0.00000000000E+00 0. -1.
    9000006    2    1    2  501    0  0.00000000000E+00  0.00000000000E+00  0.89502912127E+03  0.11049708787E+04  0.64798419342E+03 0.  0.
         13    1    3    3    0    0 -0.28319186172E+03 -0.77534579196E+02  0.68108710270E+03  0.74167977118E+03  0.00000000000E+00 0. -1.
          4    1    3    3  501    0  0.28319186172E+03  0.77534579196E+02  0.21394201857E+03  0.36329110755E+03  0.00000000000E+00 0. -1.
<mgrwt>
<rscale>  0 0.64798419E+03</rscale>
<asrwt>0</asrwt>
<pdfrwt beam="1">0</pdfrwt>
<pdfrwt beam="2">  1        2 0.38171309E+00 0.64798419E+03</pdfrwt>
<totfact> 0.46594162E+00</totfact>
</mgrwt>
</event>
<event>
 5    1  0.2354746E-004  0.6484527E+03  0.7818608E-02  0.9809687E-01
         13   -1    0    0    0    0  0.00000000000E+00  0.00000000000E+00  0.10000000000E+04  0.10000000000E+04  0.00000000000E+00 0. -1.
          2   -1    0    0  501    0 -0.00000000000E+00 -0.00000000000E+00 -0.10512272621E+03  0.10512272621E+03  0.00000000000E+00 0. -1.
    9000006    2    1    2  501    0  0.00000000000E+00  0.00000000000E+00  0.89487727379E+03  0.11051227262E+04  0.64845270056E+03 0.  0.
         13    1    3    3    0    0  0.61462006004E+02 -0.10853293579E+03  0.95747740711E+03  0.96556717087E+03  0.00000000000E+00 0. -1.
          2    1    3    3  501    0 -0.61462006004E+02  0.10853293579E+03 -0.62600133330E+02  0.13955555534E+03  0.00000000000E+00 0. -1.
<mgrwt>
<rscale>  0 0.64845270E+03</rscale>
<asrwt>0</asrwt>
<pdfrwt beam="1">0</pdfrwt>
<pdfrwt beam="2">  1        2 0.38226527E+00 0.64845270E+03</pdfrwt>
<totfact> 0.46374071E+00</totfact>
</mgrwt>
</event>
<event>
 5    1  0.2354746E-004  0.6387609E+03  0.7818608E-02  0.9828100E-01
         13   -1    0    0    0    0  0.00000000000E+00  0.00000000000E+00  0.10000000000E+04  0.10000000000E+04  0.00000000000E+00 0. -1.
          2   -1    0    0  501    0 -0.00000000000E+00 -0.00000000000E+00 -0.10200388214E+03  0.10200388214E+03  0.00000000000E+00 0. -1.
    9000006    2    1    2  501    0  0.00000000000E+00  0.00000000000E+00  0.89799611786E+03  0.11020038821E+04  0.63876093225E+03 0.  0.
         13    1    3    3    0    0 -0.24733665442E+03  0.15722452105E+03  0.66796465961E+03  0.72943248976E+03  0.00000000000E+00 0. -1.
          2    1    3    3  501    0  0.24733665442E+03 -0.15722452105E+03  0.23003145825E+03  0.37257139238E+03  0.00000000000E+00 0. -1.
<mgrwt>
<rscale>  0 0.63876093E+03</rscale>
<asrwt>0</asrwt>
<pdfrwt beam="1">0</pdfrwt>
<pdfrwt beam="2">  1        2 0.37092399E+00 0.63876093E+03</pdfrwt>
<totfact> 0.51090363E+00</totfact>
</mgrwt>
</event>
<event>
 5    1  0.2354746E-004  0.6389911E+03  0.7818608E-02  0.9827659E-01
         13   -1    0    0    0    0  0.00000000000E+00  0.00000000000E+00  0.10000000000E+04  0.10000000000E+04  0.00000000000E+00 0. -1.
          2   -1    0    0  501    0 -0.00000000000E+00 -0.00000000000E+00 -0.10207741043E+03  0.10207741043E+03  0.00000000000E+00 0. -1.
    9000006    2    1    2  501    0  0.00000000000E+00  0.00000000000E+00  0.89792258957E+03  0.11020774104E+04  0.63899111240E+03 0.  0.
         13    1    3    3    0    0  0.33553194847E+02 -0.19287942226E+03  0.88442742988E+03  0.90583672212E+03  0.00000000000E+00 0. -1.
          2    1    3    3  501    0 -0.33553194847E+02  0.19287942226E+03  0.13495159688E+02  0.19624068831E+03  0.00000000000E+00 0. -1.
<mgrwt>
<rscale>  0 0.63899111E+03</rscale>
<asrwt>0</asrwt>
<pdfrwt beam="1">0</pdfrwt>
<pdfrwt beam="2">  1        2 0.37119137E+00 0.63899111E+03</pdfrwt>
<totfact> 0.50974304E+00</totfact>
</mgrwt>
</event>
<event>
 5    1  0.2354746E-004  0.6428340E+03  0.7818608E-02  0.9820319E-01
         13   -1    0    0    0    0  0.00000000000E+00  0.00000000000E+00  0.10000000000E+04  0.10000000000E+04  0.00000000000E+00 0. -1.
          2   -1    0    0  501    0 -0.00000000000E+00 -0.00000000000E+00 -0.10330888277E+03  0.10330888277E+03  0.00000000000E+00 0. -1.
    9000006    2    1    2  501    0  0.00000000000E+00  0.00000000000E+00  0.89669111723E+03  0.11033088828E+04  0.64283398408E+03 0.  0.
         13    1    3    3    0    0 -0.17504583554E+03  0.25727350950E+03  0.31020386480E+03  0.43938268169E+03  0.00000000000E+00 0. -1.
          4    1    3    3  501    0  0.17504583554E+03 -0.25727350950E+03  0.58648725243E+03  0.66392620108E+03  0.00000000000E+00 0. -1.
<mgrwt>
<rscale>  0 0.64283398E+03</rscale>
<asrwt>0</asrwt>
<pdfrwt beam="1">0</pdfrwt>
<pdfrwt beam="2">  1        2 0.37566946E+00 0.64283398E+03</pdfrwt>
<totfact> 0.49066030E+00</totfact>
</mgrwt>
</event>
<event>
 5    1  0.2354746E-004  0.6359558E+03  0.7818608E-02  0.9833495E-01
         13   -1    0    0    0    0  0.00000000000E+00  0.00000000000E+00  0.10000000000E+04  0.10000000000E+04  0.00000000000E+00 0. -1.
          2   -1    0    0  501    0 -0.00000000000E+00 -0.00000000000E+00 -0.10110993964E+03  0.10110993964E+03  0.00000000000E+00 0. -1.
    9000006    2    1    2  501    0  0.00000000000E+00  0.00000000000E+00  0.89889006036E+03  0.11011099396E+04  0.63595578348E+03 0.  0.
         13    1    3    3    0    0 -0.12435615259E+03 -0.28371634160E+03  0.57370449783E+03  0.65199406900E+03  0.00000000000E+00 0. -1.
          4    1    3    3  501    0  0.12435615259E+03  0.28371634160E+03  0.32518556253E+03  0.44911587063E+03  0.00000000000E+00 0. -1.
<mgrwt>
<rscale>  0 0.63595578E+03</rscale>
<asrwt>0</asrwt>
<pdfrwt beam="1">0</pdfrwt>
<pdfrwt beam="2">  1        2 0.36767328E+00 0.63595578E+03</pdfrwt>
<totfact> 0.52520890E+00</totfact>
</mgrwt>
</event>
<event>
 5    1  0.2354746E-004  0.6545200E+03  0.7818608E-02  0.9798334E-01
         13   -1    0    0    0    0  0.00000000000E+00  0.00000000000E+00  0.10000000000E+04  0.10000000000E+04  0.00000000000E+00 0. -1.
          2   -1    0    0  501    0 -0.00000000000E+00 -0.00000000000E+00 -0.10709912261E+03  0.10709912261E+03  0.00000000000E+00 0. -1.
    9000006    2    1    2  501    0  0.00000000000E+00  0.00000000000E+00  0.89290087739E+03  0.11070991226E+04  0.65452004587E+03 0.  0.
         13    1    3    3    0    0  0.18292627599E+02  0.32283964211E+03  0.36121882536E+03  0.48480830700E+03  0.00000000000E+00 0. -1.
          2    1    3    3  501    0 -0.18292627599E+02 -0.32283964211E+03  0.53168205203E+03  0.62229081561E+03  0.00000000000E+00 0. -1.
<mgrwt>
<rscale>  0 0.65452005E+03</rscale>
<asrwt>0</asrwt>
<pdfrwt beam="1">0</pdfrwt>
<pdfrwt beam="2">  1        2 0.38945218E+00 0.65452005E+03</pdfrwt>
<totfact> 0.43594171E+00</totfact>
</mgrwt>
</event>
<event>
 5    1  0.2354746E-004  0.6427153E+03  0.7818608E-02  0.9820545E-01
         13   -1    0    0    0    0  0.00000000000E+00  0.00000000000E+00  0.10000000000E+04  0.10000000000E+04  0.00000000000E+00 0. -1.
          2   -1    0    0  501    0 -0.00000000000E+00 -0.00000000000E+00 -0.10327074652E+03  0.10327074652E+03  0.00000000000E+00 0. -1.
    9000006    2    1    2  501    0  0.00000000000E+00  0.00000000000E+00  0.89672925348E+03  0.11032707465E+04  0.64271532273E+03 0.  0.
         13    1    3    3    0    0  0.39638829447E+02 -0.84305686911E+02  0.97631219372E+03  0.98074674878E+03  0.00000000000E+00 0. -1.
          4    1    3    3  501    0 -0.39638829447E+02  0.84305686911E+02 -0.79582940234E+02  0.12252399774E+03  0.00000000000E+00 0. -1.
<mgrwt>
<rscale>  0 0.64271532E+03</rscale>
<asrwt>0</asrwt>
<pdfrwt beam="1">0</pdfrwt>
<pdfrwt beam="2">  1        2 0.37553078E+00 0.64271532E+03</pdfrwt>
<totfact> 0.49124127E+00</totfact>
</mgrwt>
</event>
<event>
 5    1  0.2354746E-004  0.5057378E+03  0.7818608E-02  0.1012292E+00
         13   -1    0    0    0    0  0.00000000000E+00  0.00000000000E+00  0.10000000000E+04  0.10000000000E+04  0.00000000000E+00 0. -1.
          2   -1    0    0  501    0 -0.00000000000E+00 -0.00000000000E+00 -0.63942670034E+02  0.63942670034E+02  0.00000000000E+00 0. -1.
    9000006    2    1    2  501    0  0.00000000000E+00  0.00000000000E+00  0.93605732997E+03  0.10639426700E+04  0.50573775826E+03 0.  0.
         13    1    3    3    0    0 -0.14185580012E+03  0.19860427168E+03  0.32886406075E+03  0.40953424180E+03  0.00000000000E+00 0. -1.
          2    1    3    3  501    0  0.14185580012E+03 -0.19860427168E+03  0.60719326922E+03  0.65440842823E+03  0.00000000000E+00 0. -1.
<mgrwt>
<rscale>  0 0.50573776E+03</rscale>
<asrwt>0</asrwt>
<pdfrwt beam="1">0</pdfrwt>
<pdfrwt beam="2">  1        2 0.23251929E+00 0.50573776E+03</pdfrwt>
<totfact> 0.16121021E+01</totfact>
</mgrwt>
</event>
<event>
 5    1  0.2354746E-004  0.6508459E+03  0.7818608E-02  0.9805193E-01
         13   -1    0    0    0    0  0.00000000000E+00  0.00000000000E+00  0.10000000000E+04  0.10000000000E+04  0.00000000000E+00 0. -1.
          2   -1    0    0  501    0 -0.00000000000E+00 -0.00000000000E+00 -0.10590010698E+03  0.10590010698E+03  0.00000000000E+00 0. -1.
    9000006    2    1    2  501    0  0.00000000000E+00  0.00000000000E+00  0.89409989302E+03  0.11059001070E+04  0.65084593255E+03 0.  0.
         13    1    3    3    0    0  0.59442535415E+02  0.22372961998E+03  0.58419048858E+02  0.23874912176E+03  0.00000000000E+00 0. -1.
          2    1    3    3  501    0 -0.59442535415E+02 -0.22372961998E+03  0.83568084416E+03  0.86715098522E+03  0.00000000000E+00 0. -1.
<mgrwt>
<rscale>  0 0.65084593E+03</rscale>
<asrwt>0</asrwt>
<pdfrwt beam="1">0</pdfrwt>
<pdfrwt beam="2">  1        2 0.38509211E+00 0.65084593E+03</pdfrwt>
<totfact> 0.45262031E+00</totfact>
</mgrwt>
</event>
<event>
 5    1  0.2354746E-004  0.6460224E+03  0.7818608E-02  0.9814272E-01
         13   -1    0    0    0    0  0.00000000000E+00  0.00000000000E+00  0.10000000000E+04  0.10000000000E+04  0.00000000000E+00 0. -1.
          2   -1    0    0  501    0 -0.00000000000E+00 -0.00000000000E+00 -0.10433624163E+03  0.10433624163E+03  0.00000000000E+00 0. -1.
    9000006    2    1    2  501    0  0.00000000000E+00  0.00000000000E+00  0.89566375837E+03  0.11043362416E+04  0.64602241950E+03 0.  0.
         13    1    3    3    0    0 -0.21616433140E+03  0.15439720767E+03  0.76197237994E+03  0.80694945548E+03  0.00000000000E+00 0. -1.
          2    1    3    3  501    0  0.21616433140E+03 -0.15439720767E+03  0.13369137843E+03  0.29738678615E+03  0.00000000000E+00 0. -1.
<mgrwt>
<rscale>  0 0.64602242E+03</rscale>
<asrwt>0</asrwt>
<pdfrwt beam="1">0</pdfrwt>
<pdfrwt beam="2">  1        2 0.37940532E+00 0.64602242E+03</pdfrwt>
<totfact> 0.47524339E+00</totfact>
</mgrwt>
</event>
<event>
 5    1  0.2354746E-004  0.6483766E+03  0.7818608E-02  0.9809830E-01
         13   -1    0    0    0    0  0.00000000000E+00  0.00000000000E+00  0.10000000000E+04  0.10000000000E+04  0.00000000000E+00 0. -1.
          2   -1    0    0  501    0 -0.00000000000E+00 -0.00000000000E+00 -0.10509806782E+03  0.10509806782E+03  0.00000000000E+00 0. -1.
    9000006    2    1    2  501    0  0.00000000000E+00  0.00000000000E+00  0.89490193218E+03  0.11050980678E+04  0.64837664307E+03 0.  0.
         13    1    3    3    0    0  0.27048402567E+03 -0.10439388426E+03  0.69466867119E+03  0.75274448118E+03  0.00000000000E+00 0. -1.
          4    1    3    3  501    0 -0.27048402567E+03  0.10439388426E+03  0.20023326099E+03  0.35235358664E+03  0.00000000000E+00 0. -1.
<mgrwt>
<rscale>  0 0.64837664E+03</rscale>
<asrwt>0</asrwt>
<pdfrwt beam="1">0</pdfrwt>
<pdfrwt beam="2">  1        2 0.38217560E+00 0.64837664E+03</pdfrwt>
<totfact> 0.46409747E+00</totfact>
</mgrwt>
</event>
<event>
 5    1  0.2354746E-004  0.6464623E+03  0.7818608E-02  0.9813440E-01
         13   -1    0    0    0    0  0.00000000000E+00  0.00000000000E+00  0.10000000000E+04  0.10000000000E+04  0.00000000000E+00 0. -1.
          2   -1    0    0  501    0 -0.00000000000E+00 -0.00000000000E+00 -0.10447837943E+03  0.10447837943E+03  0.00000000000E+00 0. -1.
    9000006    2    1    2  501    0  0.00000000000E+00  0.00000000000E+00  0.89552162057E+03  0.11044783794E+04  0.64646230959E+03 0.  0.
         13    1    3    3    0    0  0.12537118221E+03 -0.23148380568E+03  0.76819241554E+03  0.81204819618E+03  0.00000000000E+00 0. -1.
          4    1    3    3  501    0 -0.12537118221E+03  0.23148380568E+03  0.12732920503E+03  0.29243018325E+03  0.00000000000E+00 0. -1.
<mgrwt>
<rscale>  0 0.64646231E+03</rscale>
<asrwt>0</asrwt>
<pdfrwt beam="1">0</pdfrwt>
<pdfrwt beam="2">  1        2 0.37992218E+00 0.64646231E+03</pdfrwt>
<totfact> 0.47314554E+00</totfact>
</mgrwt>
</event>
<event>
 5    1  0.2354746E-004  0.5629700E+03  0.7818608E-02  0.9985357E-01
         13   -1    0    0    0    0  0.00000000000E+00  0.00000000000E+00  0.10000000000E+04  0.10000000000E+04  0.00000000000E+00 0. -1.
          2   -1    0    0  501    0 -0.00000000000E+00 -0.00000000000E+00 -0.79233800079E+02  0.79233800079E+02  0.00000000000E+00 0. -1.
    9000006    2    1    2  501    0  0.00000000000E+00  0.00000000000E+00  0.92076619992E+03  0.10792338001E+04  0.56296998172E+03 0.  0.
         13    1    3    3    0    0 -0.70077101526E+01  0.22196299230E+03  0.12880166461E+03  0.25672270402E+03  0.00000000000E+00 0. -1.
          2    1    3    3  501    0  0.70077101526E+01 -0.22196299230E+03  0.79196453531E+03  0.82251109606E+03  0.00000000000E+00 0. -1.
<mgrwt>
<rscale>  0 0.56296998E+03</rscale>
<asrwt>0</asrwt>
<pdfrwt beam="1">0</pdfrwt>
<pdfrwt beam="2">  1        2 0.28812352E+00 0.56296998E+03</pdfrwt>
<totfact> 0.10181007E+01</totfact>
</mgrwt>
</event>
<event>
 5    1  0.2354746E-004  0.6398169E+03  0.7818608E-02  0.9826077E-01
         13   -1    0    0    0    0  0.00000000000E+00  0.00000000000E+00  0.10000000000E+04  0.10000000000E+04  0.00000000000E+00 0. -1.
          2   -1    0    0  501    0 -0.00000000000E+00 -0.00000000000E+00 -0.10234141013E+03  0.10234141013E+03  0.00000000000E+00 0. -1.
    9000006    2    1    2  501    0  0.00000000000E+00  0.00000000000E+00  0.89765858987E+03  0.11023414101E+04  0.63981688045E+03 0.  0.
         13    1    3    3    0    0 -0.16923615844E+03  0.23182178855E+03  0.20542294880E+03  0.35296006412E+03  0.00000000000E+00 0. -1.
          2    1    3    3  501    0  0.16923615844E+03 -0.23182178855E+03  0.69223564108E+03  0.74938134601E+03  0.00000000000E+00 0. -1.
<mgrwt>
<rscale>  0 0.63981688E+03</rscale>
<asrwt>0</asrwt>
<pdfrwt beam="1">0</pdfrwt>
<pdfrwt beam="2">  1        2 0.37215137E+00 0.63981688E+03</pdfrwt>
<totfact> 0.50559587E+00</totfact>
</mgrwt>
</event>
<event>
 5    1  0.2354746E-004  0.6504911E+03  0.7818608E-02  0.9805858E-01
         13   -1    0    0    0    0  0.00000000000E+00  0.00000000000E+00  0.10000000000E+04  0.10000000000E+04  0.00000000000E+00 0. -1.
          2   -1    0    0  501    0 -0.00000000000E+00 -0.00000000000E+00 -0.10578467885E+03  0.10578467885E+03  0.00000000000E+00 0. -1.
    9000006    2    1    2  501    0  0.00000000000E+00  0.00000000000E+00  0.89421532115E+03  0.11057846789E+04  0.65049113400E+03 0.  0.
         13    1    3    3    0    0 -0.18493697236E+03 -0.22495217462E+03  0.20088563439E+03  0.35377987890E+03  0.00000000000E+00 0. -1.
          4    1    3    3  501    0  0.18493697236E+03  0.22495217462E+03  0.69332968676E+03  0.75200479995E+03  0.00000000000E+00 0. -1.
<mgrwt>
<rscale>  0 0.65049113E+03</rscale>
<asrwt>0</asrwt>
<pdfrwt beam="1">0</pdfrwt>
<pdfrwt beam="2">  1        2 0.38467237E+00 0.65049113E+03</pdfrwt>
<totfact> 0.45425605E+00</totfact>
</mgrwt>
</event>
<event>
 5    1  0.2354746E-004  0.6472898E+03  0.7818608E-02  0.9811878E-01
         13   -1    0    0    0    0  0.00000000000E+00  0.00000000000E+00  0.10000000000E+04  0.10000000000E+04  0.00000000000E+00 0. -1.
          2   -1    0    0  501    0 -0.00000000000E+00 -0.00000000000E+00 -0.10474603690E+03  0.10474603690E+03  0.00000000000E+00 0. -1.
    9000006    2    1    2  501    0  0.00000000000E+00  0.00000000000E+00  0.89525396310E+03  0.11047460369E+04  0.64728984822E+03 0.  0.
         13    1    3    3    0    0  0.50186075251E+02  0.29322185902E+03  0.23007246495E+03  0.37607318422E+03  0.00000000000E+00 0. -1.
          4    1    3    3  501    0 -0.50186075251E+02 -0.29322185902E+03  0.66518149815E+03  0.72867285268E+03  0.00000000000E+00 0. -1.
<mgrwt>
<rscale>  0 0.64728985E+03</rscale>
<asrwt>0</asrwt>
<pdfrwt beam="1">0</pdfrwt>
<pdfrwt beam="2">  1        2 0.38089548E+00 0.64728985E+03</pdfrwt>
<totfact> 0.46921798E+00</totfact>
</mgrwt>
</event>
<event>
 5    1  0.2354746E-004  0.6267999E+03  0.7818608E-02  0.9851314E-01
         13   -1    0    0    0    0  0.00000000000E+00  0.00000000000E+00  0.10000000000E+04  0.10000000000E+04  0.00000000000E+00 0. -1.
          2   -1    0    0  501    0 -0.00000000000E+00 -0.00000000000E+00 -0.98219527699E+02  0.98219527699E+02  0.00000000000E+00 0. -1.
    9000006    2    1    2  501    0  0.00000000000E+00  0.00000000000E+00  0.90178047230E+03  0.10982195277E+04  0.62679989693E+03 0.  0.
         13    1    3    3    0    0  0.28055096359E+02 -0.28872516496E+03  0.65872139750E+03  0.71976606536E+03  0.00000000000E+00 0. -1.
          2    1    3    3  501    0 -0.28055096359E+02  0.28872516496E+03  0.24305907480E+03  0.37845346234E+03  0.00000000000E+00 0. -1.
<mgrwt>
<rscale>  0 0.62679990E+03</rscale>
<asrwt>0</asrwt>
<pdfrwt beam="1">0</pdfrwt>
<pdfrwt beam="2">  1        2 0.35716267E+00 0.62679990E+03</pdfrwt>
<totfact> 0.57402289E+00</totfact>
</mgrwt>
</event>
<event>
 5    1  0.2354746E-004  0.6432500E+03  0.7818608E-02  0.9819528E-01
         13   -1    0    0    0    0  0.00000000000E+00  0.00000000000E+00  0.10000000000E+04  0.10000000000E+04  0.00000000000E+00 0. -1.
          2   -1    0    0  501    0 -0.00000000000E+00 -0.00000000000E+00 -0.10344264744E+03  0.10344264744E+03  0.00000000000E+00 0. -1.
    9000006    2    1    2  501    0  0.00000000000E+00  0.00000000000E+00  0.89655735256E+03  0.11034426474E+04  0.64325002118E+03 0.  0.
         13    1    3    3    0    0 -0.71136515816E+02  0.25243879901E+03  0.12893024328E+03  0.29224776947E+03  0.00000000000E+00 0. -1.
          4    1    3    3  501    0  0.71136515816E+02 -0.25243879901E+03  0.76762710929E+03  0.81119487797E+03  0.00000000000E+00 0. -1.
<mgrwt>
<rscale>  0 0.64325002E+03</rscale>
<asrwt>0</asrwt>
<pdfrwt beam="1">0</pdfrwt>
<pdfrwt beam="2">  1        2 0.37615587E+00 0.64325002E+03</pdfrwt>
<totfact> 0.48862747E+00</totfact>
</mgrwt>
</event>
<event>
 5    1  0.2354746E-004  0.6487033E+03  0.7818608E-02  0.9809215E-01
         13   -1    0    0    0    0  0.00000000000E+00  0.00000000000E+00  0.10000000000E+04  0.10000000000E+04  0.00000000000E+00 0. -1.
          2   -1    0    0  501    0 -0.00000000000E+00 -0.00000000000E+00 -0.10520400895E+03  0.10520400895E+03  0.00000000000E+00 0. -1.
    9000006    2    1    2  501    0  0.00000000000E+00  0.00000000000E+00  0.89479599105E+03  0.11052040089E+04  0.64870334961E+03 0.  0.
         13    1    3    3    0    0  0.85839834372E+02 -0.27899926010E+03  0.68830887567E+03  0.74764842849E+03  0.00000000000E+00 0. -1.
          2    1    3    3  501    0 -0.85839834372E+02  0.27899926010E+03  0.20648711538E+03  0.35755558046E+03  0.00000000000E+00 0. -1.
<mgrwt>
<rscale>  0 0.64870335E+03</rscale>
<asrwt>0</asrwt>
<pdfrwt beam="1">0</pdfrwt>
<pdfrwt beam="2">  1        2 0.38256084E+00 0.64870335E+03</pdfrwt>
<totfact> 0.46256646E+00</totfact>
</mgrwt>
</event>
<event>
 5    1  0.2354746E-004  0.6245338E+03  0.7818608E-02  0.9855774E-01
         13   -1    0    0    0    0  0.00000000000E+00  0.00000000000E+00  0.10000000000E+04  0.10000000000E+04  0.00000000000E+00 0. -1.
          2   -1    0    0  501    0 -0.00000000000E+00 -0.00000000000E+00 -0.97510603838E+02  0.97510603838E+02  0.00000000000E+00 0. -1.
    9000006    2    1    2  501    0  0.00000000000E+00  0.00000000000E+00  0.90248939616E+03  0.10975106038E+04  0.62453375838E+03 0.  0.
         13    1    3    3    0    0  0.13646053168E+02  0.94303744922E+02  0.97382802309E+03  0.97847863013E+03  0.00000000000E+00 0. -1.
          4    1    3    3  501    0 -0.13646053168E+02 -0.94303744922E+02 -0.71338626925E+02  0.11903197371E+03  0.00000000000E+00 0. -1.
<mgrwt>
<rscale>  0 0.62453376E+03</rscale>
<asrwt>0</asrwt>
<pdfrwt beam="1">0</pdfrwt>
<pdfrwt beam="2">  1        2 0.35458476E+00 0.62453376E+03</pdfrwt>
<totfact> 0.58662018E+00</totfact>
</mgrwt>
</event>
<event>
 5    1  0.2354746E-004  0.6300130E+03  0.7818608E-02  0.9845023E-01
         13   -1    0    0    0    0  0.00000000000E+00  0.00000000000E+00  0.10000000000E+04  0.10000000000E+04  0.00000000000E+00 0. -1.
          2   -1    0    0  501    0 -0.00000000000E+00 -0.00000000000E+00 -0.99229088935E+02  0.99229088935E+02  0.00000000000E+00 0. -1.
    9000006    2    1    2  501    0  0.00000000000E+00  0.00000000000E+00  0.90077091106E+03  0.10992290889E+04  0.63001298061E+03 0.  0.
         13    1    3    3    0    0  0.19880676474E+03 -0.15504934786E+03  0.77988722618E+03  0.81962705881E+03  0.00000000000E+00 0. -1.
          2    1    3    3  501    0 -0.19880676474E+03  0.15504934786E+03  0.12088368488E+03  0.27960203012E+03  0.00000000000E+00 0. -1.
<mgrwt>
<rscale>  0 0.63001298E+03</rscale>
<asrwt>0</asrwt>
<pdfrwt beam="1">0</pdfrwt>
<pdfrwt beam="2">  1        2 0.36083381E+00 0.63001298E+03</pdfrwt>
<totfact> 0.55651676E+00</totfact>
</mgrwt>
</event>
<event>
 5    1  0.2354746E-004  0.6550056E+03  0.7818608E-02  0.9797432E-01
         13   -1    0    0    0    0  0.00000000000E+00  0.00000000000E+00  0.10000000000E+04  0.10000000000E+04  0.00000000000E+00 0. -1.
          2   -1    0    0  501    0 -0.00000000000E+00 -0.00000000000E+00 -0.10725809054E+03  0.10725809054E+03  0.00000000000E+00 0. -1.
    9000006    2    1    2  501    0  0.00000000000E+00  0.00000000000E+00  0.89274190946E+03  0.11072580905E+04  0.65500561995E+03 0.  0.
         13    1    3    3    0    0 -0.65993440202E+02  0.15556844116E+03  0.92060760084E+03  0.93598879735E+03  0.00000000000E+00 0. -1.
          2    1    3    3  501    0  0.65993440202E+02 -0.15556844116E+03 -0.27865691381E+02  0.17126929319E+03  0.00000000000E+00 0. -1.
<mgrwt>
<rscale>  0 0.65500562E+03</rscale>
<asrwt>0</asrwt>
<pdfrwt beam="1">0</pdfrwt>
<pdfrwt beam="2">  1        2 0.39003024E+00 0.65500562E+03</pdfrwt>
<totfact> 0.43377269E+00</totfact>
</mgrwt>
</event>
<event>
 5    1  0.2354746E-004  0.6544742E+03  0.7818608E-02  0.9798420E-01
         13   -1    0    0    0    0  0.00000000000E+00  0.00000000000E+00  0.10000000000E+04  0.10000000000E+04  0.00000000000E+00 0. -1.
          2   -1    0    0  501    0 -0.00000000000E+00 -0.00000000000E+00 -0.10708413021E+03  0.10708413021E+03  0.00000000000E+00 0. -1.
    9000006    2    1    2  501    0  0.00000000000E+00  0.00000000000E+00  0.89291586979E+03  0.11070841302E+04  0.65447423237E+03 0.  0.
         13    1    3    3    0    0  0.30014718256E+03  0.18896478742E+02  0.22826129568E+03  0.37755612458E+03  0.00000000000E+00 0. -1.
          2    1    3    3  501    0 -0.30014718256E+03 -0.18896478742E+02  0.66465457411E+03  0.72952800562E+03  0.00000000000E+00 0. -1.
<mgrwt>
<rscale>  0 0.65447423E+03</rscale>
<asrwt>0</asrwt>
<pdfrwt beam="1">0</pdfrwt>
<pdfrwt beam="2">  1        2 0.38939766E+00 0.65447423E+03</pdfrwt>
<totfact> 0.43614677E+00</totfact>
</mgrwt>
</event>
<event>
 5    1  0.2354746E-004  0.6209356E+03  0.7818608E-02  0.9862899E-01
         13   -1    0    0    0    0  0.00000000000E+00  0.00000000000E+00  0.10000000000E+04  0.10000000000E+04  0.00000000000E+00 0. -1.
          2   -1    0    0  501    0 -0.00000000000E+00 -0.00000000000E+00 -0.96390270076E+02  0.96390270076E+02  0.00000000000E+00 0. -1.
    9000006    2    1    2  501    0  0.00000000000E+00  0.00000000000E+00  0.90360972992E+03  0.10963902701E+04  0.62093564908E+03 0.  0.
         13    1    3    3    0    0  0.22153215333E+03 -0.21117601214E+03  0.54386690880E+03  0.62406972170E+03  0.00000000000E+00 0. -1.
          2    1    3    3  501    0 -0.22153215333E+03  0.21117601214E+03  0.35974282113E+03  0.47232054837E+03  0.00000000000E+00 0. -1.
<mgrwt>
<rscale>  0 0.62093565E+03</rscale>
<asrwt>0</asrwt>
<pdfrwt beam="1">0</pdfrwt>
<pdfrwt beam="2">  1        2 0.35051081E+00 0.62093565E+03</pdfrwt>
<totfact> 0.60705237E+00</totfact>
</mgrwt>
</event>
<event>
 5    1  0.2354746E-004  0.6332478E+03  0.7818608E-02  0.9838731E-01
         13   -1    0    0    0    0  0.00000000000E+00  0.00000000000E+00  0.10000000000E+04  0.10000000000E+04  0.00000000000E+00 0. -1.
          2   -1    0    0  501    0 -0.00000000000E+00 -0.00000000000E+00 -0.10025070539E+03  0.10025070539E+03  0.00000000000E+00 0. -1.
    9000006    2    1    2  501    0  0.00000000000E+00  0.00000000000E+00  0.89974929461E+03  0.11002507054E+04  0.63324783583E+03 0.  0.
         13    1    3    3    0    0  0.16668311801E+03  0.16746624445E+03  0.83673717991E+02  0.25065812562E+03  0.00000000000E+00 0. -1.
          2    1    3    3  501    0 -0.16668311801E+03 -0.16746624445E+03  0.81607557661E+03  0.84959257977E+03  0.00000000000E+00 0. -1.
<mgrwt>
<rscale>  0 0.63324784E+03</rscale>
<asrwt>0</asrwt>
<pdfrwt beam="1">0</pdfrwt>
<pdfrwt beam="2">  1        2 0.36454879E+00 0.63324784E+03</pdfrwt>
<totfact> 0.53930448E+00</totfact>
</mgrwt>
</event>
<event>
 5    1  0.2354746E-004  0.6545880E+03  0.7818608E-02  0.9798208E-01
         13   -1    0    0    0    0  0.00000000000E+00  0.00000000000E+00  0.10000000000E+04  0.10000000000E+04  0.00000000000E+00 0. -1.
          2   -1    0    0  501    0 -0.00000000000E+00 -0.00000000000E+00 -0.10712134821E+03  0.10712134821E+03  0.00000000000E+00 0. -1.
    9000006    2    1    2  501    0  0.00000000000E+00  0.00000000000E+00  0.89287865179E+03  0.11071213482E+04  0.65458795655E+03 0.  0.
         13    1    3    3    0    0 -0.19741157239E+03  0.21676974507E+03  0.69247282904E+03  0.75198342418E+03  0.00000000000E+00 0. -1.
          4    1    3    3  501    0  0.19741157239E+03 -0.21676974507E+03  0.20040582275E+03  0.35513792403E+03  0.00000000000E+00 0. -1.
<mgrwt>
<rscale>  0 0.65458796E+03</rscale>
<asrwt>0</asrwt>
<pdfrwt beam="1">0</pdfrwt>
<pdfrwt beam="2">  1        2 0.38953300E+00 0.65458796E+03</pdfrwt>
<totfact> 0.43563786E+00</totfact>
</mgrwt>
</event>
<event>
 5    1  0.2354746E-004  0.6382264E+03  0.7818608E-02  0.9829126E-01
         13   -1    0    0    0    0  0.00000000000E+00  0.00000000000E+00  0.10000000000E+04  0.10000000000E+04  0.00000000000E+00 0. -1.
          2   -1    0    0  501    0 -0.00000000000E+00 -0.00000000000E+00 -0.10183323108E+03  0.10183323108E+03  0.00000000000E+00 0. -1.
    9000006    2    1    2  501    0  0.00000000000E+00  0.00000000000E+00  0.89816676892E+03  0.11018332311E+04  0.63822638956E+03 0.  0.
         13    1    3    3    0    0 -0.15615451996E+03 -0.13704433037E+02  0.92895138753E+03  0.94208424570E+03  0.00000000000E+00 0. -1.
          2    1    3    3  501    0  0.15615451996E+03  0.13704433037E+02 -0.30784618615E+02  0.15974898539E+03  0.00000000000E+00 0. -1.
<mgrwt>
<rscale>  0 0.63822639E+03</rscale>
<asrwt>0</asrwt>
<pdfrwt beam="1">0</pdfrwt>
<pdfrwt beam="2">  1        2 0.37030344E+00 0.63822639E+03</pdfrwt>
<totfact> 0.51360656E+00</totfact>
</mgrwt>
</event>
<event>
 5    1  0.2354746E-004  0.6438770E+03  0.7818608E-02  0.9818337E-01
         13   -1    0    0    0    0  0.00000000000E+00  0.00000000000E+00  0.10000000000E+04  0.10000000000E+04  0.00000000000E+00 0. -1.
          2   -1    0    0  501    0 -0.00000000000E+00 -0.00000000000E+00 -0.10364439626E+03  0.10364439626E+03  0.00000000000E+00 0. -1.
    9000006    2    1    2  501    0  0.00000000000E+00  0.00000000000E+00  0.89635560374E+03  0.11036443963E+04  0.64387699527E+03 0.  0.
         13    1    3    3    0    0  0.18095378784E+03 -0.24401179257E+03  0.26550065427E+03  0.40345585342E+03  0.00000000000E+00 0. -1.
          4    1    3    3  501    0 -0.18095378784E+03  0.24401179257E+03  0.63085494947E+03  0.70018854284E+03  0.00000000000E+00 0. -1.
<mgrwt>
<rscale>  0 0.64387700E+03</rscale>
<asrwt>0</asrwt>
<pdfrwt beam="1">0</pdfrwt>
<pdfrwt beam="2">  1        2 0.37688951E+00 0.64387700E+03</pdfrwt>
<totfact> 0.48557603E+00</totfact>
</mgrwt>
</event>
<event>
 5    1  0.2354746E-004  0.6468652E+03  0.7818608E-02  0.9812679E-01
         13   -1    0    0    0    0  0.00000000000E+00  0.00000000000E+00  0.10000000000E+04  0.10000000000E+04  0.00000000000E+00 0. -1.
          2   -1    0    0  501    0 -0.00000000000E+00 -0.00000000000E+00 -0.10460865423E+03  0.10460865423E+03  0.00000000000E+00 0. -1.
    9000006    2    1    2  501    0  0.00000000000E+00  0.00000000000E+00  0.89539134577E+03  0.11046086542E+04  0.64686522314E+03 0.  0.
         13    1    3    3    0    0  0.10374103903E+03  0.99653928668E+02  0.94236598808E+03  0.95328210104E+03  0.00000000000E+00 0. -1.
          2    1    3    3  501    0 -0.10374103903E+03 -0.99653928668E+02 -0.46974642309E+02  0.15132655318E+03  0.00000000000E+00 0. -1.
<mgrwt>
<rscale>  0 0.64686522E+03</rscale>
<asrwt>0</asrwt>
<pdfrwt beam="1">0</pdfrwt>
<pdfrwt beam="2">  1        2 0.38039591E+00 0.64686522E+03</pdfrwt>
<totfact> 0.47123019E+00</totfact>
</mgrwt>
</event>
<event>
 5    1  0.2354746E-004  0.6526722E+03  0.7818608E-02  0.9801778E-01
         13   -1    0    0    0    0  0.00000000000E+00  0.00000000000E+00  0.10000000000E+04  0.10000000000E+04  0.00000000000E+00 0. -1.
          2   -1    0    0  501    0 -0.00000000000E+00 -0.00000000000E+00 -0.10649526167E+03  0.10649526167E+03  0.00000000000E+00 0. -1.
    9000006    2    1    2  501    0  0.00000000000E+00  0.00000000000E+00  0.89350473833E+03  0.11064952617E+04  0.65267223525E+03 0.  0.
         13    1    3    3    0    0  0.23604779033E+03  0.18972964372E+03  0.65285441488E+03  0.71967686085E+03  0.00000000000E+00 0. -1.
          4    1    3    3  501    0 -0.23604779033E+03 -0.18972964372E+03  0.24065032346E+03  0.38681840081E+03  0.00000000000E+00 0. -1.
<mgrwt>
<rscale>  0 0.65267224E+03</rscale>
<asrwt>0</asrwt>
<pdfrwt beam="1">0</pdfrwt>
<pdfrwt beam="2">  1        2 0.38725631E+00 0.65267224E+03</pdfrwt>
<totfact> 0.44427070E+00</totfact>
</mgrwt>
</event>
<event>
 5    1  0.2354746E-004  0.6470809E+03  0.7818608E-02  0.9812272E-01
         13   -1    0    0    0    0  0.00000000000E+00  0.00000000000E+00  0.10000000000E+04  0.10000000000E+04  0.00000000000E+00 0. -1.
          2   -1    0    0  501    0 -0.00000000000E+00 -0.00000000000E+00 -0.10467842933E+03  0.10467842933E+03  0.00000000000E+00 0. -1.
    9000006    2    1    2  501    0  0.00000000000E+00  0.00000000000E+00  0.89532157067E+03  0.11046784293E+04  0.64708092024E+03 0.  0.
         13    1    3    3    0    0  0.30271857593E+03  0.11043721186E+03  0.49724275505E+03  0.59252449015E+03  0.00000000000E+00 0. -1.
          2    1    3    3  501    0 -0.30271857593E+03 -0.11043721186E+03  0.39807881561E+03  0.51215393918E+03  0.00000000000E+00 0. -1.
<mgrwt>
<rscale>  0 0.64708092E+03</rscale>
<asrwt>0</asrwt>
<pdfrwt beam="1">0</pdfrwt>
<pdfrwt beam="2">  1        2 0.38064964E+00 0.64708092E+03</pdfrwt>
<totfact> 0.47020723E+00</totfact>
</mgrwt>
</event>
<event>
 5    1  0.2354746E-004  0.6516677E+03  0.7818608E-02  0.9803655E-01
         13   -1    0    0    0    0  0.00000000000E+00  0.00000000000E+00  0.10000000000E+04  0.10000000000E+04  0.00000000000E+00 0. -1.
          2   -1    0    0  501    0 -0.00000000000E+00 -0.00000000000E+00 -0.10616770256E+03  0.10616770256E+03  0.00000000000E+00 0. -1.
    9000006    2    1    2  501    0  0.00000000000E+00  0.00000000000E+00  0.89383229744E+03  0.11061677026E+04  0.65166771460E+03 0.  0.
         13    1    3    3    0    0  0.25549051950E+02 -0.13066269341E+03 -0.57889910778E+02  0.14517828789E+03  0.00000000000E+00 0. -1.
          2    1    3    3  501    0 -0.25549051950E+02  0.13066269341E+03  0.95172220821E+03  0.96098941467E+03  0.00000000000E+00 0. -1.
<mgrwt>
<rscale>  0 0.65166771E+03</rscale>
<asrwt>0</asrwt>
<pdfrwt beam="1">0</pdfrwt>
<pdfrwt beam="2">  1        2 0.38606519E+00 0.65166771E+03</pdfrwt>
<totfact> 0.44884869E+00</totfact>
</mgrwt>
</event>
<event>
 5    1  0.2354746E-004  0.6541706E+03  0.7818608E-02  0.9798985E-01
         13   -1    0    0    0    0  0.00000000000E+00  0.00000000000E+00  0.10000000000E+04  0.10000000000E+04  0.00000000000E+00 0. -1.
          2   -1    0    0  501    0 -0.00000000000E+00 -0.00000000000E+00 -0.10698479821E+03  0.10698479821E+03  0.00000000000E+00 0. -1.
    9000006    2    1    2  501    0  0.00000000000E+00  0.00000000000E+00  0.89301520179E+03  0.11069847982E+04  0.65417061447E+03 0.  0.
         13    1    3    3    0    0 -0.89060968227E+02  0.21419085620E+03  0.83672377813E+03  0.86828351351E+03  0.00000000000E+00 0. -1.
          2    1    3    3  501    0  0.89060968227E+02 -0.21419085620E+03  0.56291423658E+02  0.23870128470E+03  0.00000000000E+00 0. -1.
<mgrwt>
<rscale>  0 0.65417061E+03</rscale>
<asrwt>0</asrwt>
<pdfrwt beam="1">0</pdfrwt>
<pdfrwt beam="2">  1        2 0.38903645E+00 0.65417061E+03</pdfrwt>
<totfact> 0.43750765E+00</totfact>
</mgrwt>
</event>
<event>
 5    1  0.2354746E-004  0.6457725E+03  0.7818608E-02  0.9814744E-01
         13   -1    0    0    0    0  0.00000000000E+00  0.00000000000E+00  0.10000000000E+04  0.10000000000E+04  0.00000000000E+00 0. -1.
          2   -1    0    0  501    0 -0.00000000000E+00 -0.00000000000E+00 -0.10425553443E+03  0.10425553443E+03  0.00000000000E+00 0. -1.
    9000006    2    1    2  501    0  0.00000000000E+00  0.00000000000E+00  0.89574446557E+03  0.11042555344E+04  0.64577251237E+03 0.  0.
         13    1    3    3    0    0  0.31698017481E+03 -0.46014057793E+02  0.37816454558E+03  0.49558263515E+03  0.00000000000E+00 0. -1.
          4    1    3    3  501    0 -0.31698017481E+03  0.46014057793E+02  0.51757991999E+03  0.60867289928E+03  0.00000000000E+00 0. -1.
<mgrwt>
<rscale>  0 0.64577251E+03</rscale>
<asrwt>0</asrwt>
<pdfrwt beam="1">0</pdfrwt>
<pdfrwt beam="2">  1        2 0.37911183E+00 0.64577251E+03</pdfrwt>
<totfact> 0.47643834E+00</totfact>
</mgrwt>
</event>
<event>
 5    1  0.2354746E-004  0.6509691E+03  0.7818608E-02  0.9804962E-01
         13   -1    0    0    0    0  0.00000000000E+00  0.00000000000E+00  0.10000000000E+04  0.10000000000E+04  0.00000000000E+00 0. -1.
          2   -1    0    0  501    0 -0.00000000000E+00 -0.00000000000E+00 -0.10594018282E+03  0.10594018282E+03  0.00000000000E+00 0. -1.
    9000006    2    1    2  501    0  0.00000000000E+00  0.00000000000E+00  0.89405981718E+03  0.11059401828E+04  0.65096907091E+03 0.  0.
         13    1    3    3    0    0 -0.94982470333E+02  0.22080062210E+03  0.81988473005E+03  0.85439192116E+03  0.00000000000E+00 0. -1.
          2    1    3    3  501    0  0.94982470333E+02 -0.22080062210E+03  0.74175087135E+02  0.25154826166E+03  0.00000000000E+00 0. -1.
<mgrwt>
<rscale>  0 0.65096907E+03</rscale>
<asrwt>0</asrwt>
<pdfrwt beam="1">0</pdfrwt>
<pdfrwt beam="2">  1        2 0.38523784E+00 0.65096907E+03</pdfrwt>
<totfact> 0.45205364E+00</totfact>
</mgrwt>
</event>
<event>
 5    1  0.2354746E-004  0.6396717E+03  0.7818608E-02  0.9826355E-01
         13   -1    0    0    0    0  0.00000000000E+00  0.00000000000E+00  0.10000000000E+04  0.10000000000E+04  0.00000000000E+00 0. -1.
          2   -1    0    0  501    0 -0.00000000000E+00 -0.00000000000E+00 -0.10229495770E+03  0.10229495770E+03  0.00000000000E+00 0. -1.
    9000006    2    1    2  501    0  0.00000000000E+00  0.00000000000E+00  0.89770504230E+03  0.11022949577E+04  0.63967165859E+03 0.  0.
         13    1    3    3    0    0 -0.12370884254E+03 -0.24562074686E+03  0.73022604852E+03  0.78029706583E+03  0.00000000000E+00 0. -1.
          2    1    3    3  501    0  0.12370884254E+03  0.24562074686E+03  0.16747899378E+03  0.32199789187E+03  0.00000000000E+00 0. -1.
<mgrwt>
<rscale>  0 0.63967166E+03</rscale>
<asrwt>0</asrwt>
<pdfrwt beam="1">0</pdfrwt>
<pdfrwt beam="2">  1        2 0.37198245E+00 0.63967166E+03</pdfrwt>
<totfact> 0.50632334E+00</totfact>
</mgrwt>
</event>
<event>
 5    1  0.2354746E-004  0.6487204E+03  0.7818608E-02  0.9809183E-01
         13   -1    0    0    0    0  0.00000000000E+00  0.00000000000E+00  0.10000000000E+04  0.10000000000E+04  0.00000000000E+00 0. -1.
          2   -1    0    0  501    0 -0.00000000000E+00 -0.00000000000E+00 -0.10520954038E+03  0.10520954038E+03  0.00000000000E+00 0. -1.
    9000006    2    1    2  501    0  0.00000000000E+00  0.00000000000E+00  0.89479045962E+03  0.11052095404E+04  0.64872040319E+03 0.  0.
         13    1    3    3    0    0  0.97391822121E+02 -0.22476101087E+03  0.85161201414E+02  0.25933590042E+03  0.00000000000E+00 0. -1.
          2    1    3    3  501    0 -0.97391822121E+02  0.22476101087E+03  0.80962925821E+03  0.84587363995E+03  0.00000000000E+00 0. -1.
<mgrwt>
<rscale>  0 0.64872040E+03</rscale>
<asrwt>0</asrwt>
<pdfrwt beam="1">0</pdfrwt>
<pdfrwt beam="2">  1        2 0.38258095E+00 0.64872040E+03</pdfrwt>
<totfact> 0.46248665E+00</totfact>
</mgrwt>
</event>
<event>
 5    1  0.2354746E-004  0.6746374E+03  0.7818608E-02  0.9761616E-01
         13   -1    0    0    0    0  0.00000000000E+00  0.00000000000E+00  0.10000000000E+04  0.10000000000E+04  0.00000000000E+00 0. -1.
          2   -1    0    0  501    0 -0.00000000000E+00 -0.00000000000E+00 -0.11378390102E+03  0.11378390102E+03  0.00000000000E+00 0. -1.
    9000006    2    1    2  501    0  0.00000000000E+00  0.00000000000E+00  0.88621609898E+03  0.11137839010E+04  0.67463738712E+03 0.  0.
         13    1    3    3    0    0 -0.17046922770E+03  0.29017917807E+02 -0.35043082409E+02  0.17643643267E+03  0.00000000000E+00 0. -1.
          4    1    3    3  501    0  0.17046922770E+03 -0.29017917807E+02  0.92125918139E+03  0.93734746836E+03  0.00000000000E+00 0. -1.
<mgrwt>
<rscale>  0 0.67463739E+03</rscale>
<asrwt>0</asrwt>
<pdfrwt beam="1">0</pdfrwt>
<pdfrwt beam="2">  1        2 0.41376051E+00 0.67463739E+03</pdfrwt>
<totfact> 0.35268843E+00</totfact>
</mgrwt>
</event>
<event>
 5    1  0.2354746E-004  0.6382271E+03  0.7818608E-02  0.9829124E-01
         13   -1    0    0    0    0  0.00000000000E+00  0.00000000000E+00  0.10000000000E+04  0.10000000000E+04  0.00000000000E+00 0. -1.
          2   -1    0    0  501    0 -0.00000000000E+00 -0.00000000000E+00 -0.10183346135E+03  0.10183346135E+03  0.00000000000E+00 0. -1.
    9000006    2    1    2  501    0  0.00000000000E+00  0.00000000000E+00  0.89816653865E+03  0.11018334613E+04  0.63822711114E+03 0.  0.
         13    1    3    3    0    0 -0.25409419093E+03 -0.13953583135E+03  0.21875733361E+03  0.36316508244E+03  0.00000000000E+00 0. -1.
          4    1    3    3  501    0  0.25409419093E+03  0.13953583135E+03  0.67940920504E+03  0.73866837891E+03  0.00000000000E+00 0. -1.
<mgrwt>
<rscale>  0 0.63822711E+03</rscale>
<asrwt>0</asrwt>
<pdfrwt beam="1">0</pdfrwt>
<pdfrwt beam="2">  1        2 0.37030428E+00 0.63822711E+03</pdfrwt>
<totfact> 0.51360290E+00</totfact>
</mgrwt>
</event>
<event>
 5    1  0.2354746E-004  0.6482590E+03  0.7818608E-02  0.9810052E-01
         13   -1    0    0    0    0  0.00000000000E+00  0.00000000000E+00  0.10000000000E+04  0.10000000000E+04  0.00000000000E+00 0. -1.
          2   -1    0    0  501    0 -0.00000000000E+00 -0.00000000000E+00 -0.10505993737E+03  0.10505993737E+03  0.00000000000E+00 0. -1.
    9000006    2    1    2  501    0  0.00000000000E+00  0.00000000000E+00  0.89494006263E+03  0.11050599374E+04  0.64825901420E+03 0.  0.
         13    1    3    3    0    0  0.60225702589E+02  0.21683373483E+03  0.49820649098E+02  0.23049099959E+03  0.00000000000E+00 0. -1.
          2    1    3    3  501    0 -0.60225702589E+02 -0.21683373483E+03  0.84511941353E+03  0.87456893779E+03  0.00000000000E+00 0. -1.
<mgrwt>
<rscale>  0 0.64825901E+03</rscale>
<asrwt>0</asrwt>
<pdfrwt beam="1">0</pdfrwt>
<pdfrwt beam="2">  1        2 0.38203694E+00 0.64825901E+03</pdfrwt>
<totfact> 0.46464964E+00</totfact>
</mgrwt>
</event>
<event>
 5    1  0.2354746E-004  0.6003642E+03  0.7818608E-02  0.9904651E-01
         13   -1    0    0    0    0  0.00000000000E+00  0.00000000000E+00  0.10000000000E+04  0.10000000000E+04  0.00000000000E+00 0. -1.
          2   -1    0    0  501    0 -0.00000000000E+00 -0.00000000000E+00 -0.90109304696E+02  0.90109304696E+02  0.00000000000E+00 0. -1.
    9000006    2    1    2  501    0  0.00000000000E+00  0.00000000000E+00  0.90989069530E+03  0.10901093047E+04  0.60036423843E+03 0.  0.
         13    1    3    3    0    0  0.24005974172E+03 -0.70902487789E+02  0.75579796463E+03  0.79616983472E+03  0.00000000000E+00 0. -1.
          4    1    3    3  501    0 -0.24005974172E+03  0.70902487789E+02  0.15409273067E+03  0.29393946998E+03  0.00000000000E+00 0. -1.
<mgrwt>
<rscale>  0 0.60036424E+03</rscale>
<asrwt>0</asrwt>
<pdfrwt beam="1">0</pdfrwt>
<pdfrwt beam="2">  1        2 0.32767089E+00 0.60036424E+03</pdfrwt>
<totfact> 0.73450358E+00</totfact>
</mgrwt>
</event>
<event>
 5    1  0.2354746E-004  0.6526382E+03  0.7818608E-02  0.9801841E-01
         13   -1    0    0    0    0  0.00000000000E+00  0.00000000000E+00  0.10000000000E+04  0.10000000000E+04  0.00000000000E+00 0. -1.
          2   -1    0    0  501    0 -0.00000000000E+00 -0.00000000000E+00 -0.10648416096E+03  0.10648416096E+03  0.00000000000E+00 0. -1.
    9000006    2    1    2  501    0  0.00000000000E+00  0.00000000000E+00  0.89351583904E+03  0.11064841610E+04  0.65263821818E+03 0.  0.
         13    1    3    3    0    0 -0.30443805156E+03 -0.96631219906E+02  0.33348221042E+03  0.46176888652E+03  0.00000000000E+00 0. -1.
          2    1    3    3  501    0  0.30443805156E+03  0.96631219906E+02  0.56003362863E+03  0.64471527443E+03  0.00000000000E+00 0. -1.
<mgrwt>
<rscale>  0 0.65263822E+03</rscale>
<asrwt>0</asrwt>
<pdfrwt beam="1">0</pdfrwt>
<pdfrwt beam="2">  1        2 0.38721595E+00 0.65263822E+03</pdfrwt>
<totfact> 0.44442515E+00</totfact>
</mgrwt>
</event>
<event>
 5    1  0.2354746E-004  0.6409300E+03  0.7818608E-02  0.9823949E-01
         13   -1    0    0    0    0  0.00000000000E+00  0.00000000000E+00  0.10000000000E+04  0.10000000000E+04  0.00000000000E+00 0. -1.
          2   -1    0    0  501    0 -0.00000000000E+00 -0.00000000000E+00 -0.10269780781E+03  0.10269780781E+03  0.00000000000E+00 0. -1.
    9000006    2    1    2  501    0  0.00000000000E+00  0.00000000000E+00  0.89730219219E+03  0.11026978078E+04  0.64092997375E+03 0.  0.
         13    1    3    3    0    0  0.10344413969E+02  0.65020715848E+02  0.98823880569E+03  0.99042952171E+03  0.00000000000E+00 0. -1.
          2    1    3    3  501    0 -0.10344413969E+02 -0.65020715848E+02 -0.90936613505E+02  0.11226828611E+03  0.00000000000E+00 0. -1.
<mgrwt>
<rscale>  0 0.64092997E+03</rscale>
<asrwt>0</asrwt>
<pdfrwt beam="1">0</pdfrwt>
<pdfrwt beam="2">  1        2 0.37344736E+00 0.64092997E+03</pdfrwt>
<totfact> 0.50004620E+00</totfact>
</mgrwt>
</event>
<event>
 5    1  0.2354746E-004  0.6515953E+03  0.7818608E-02  0.9803790E-01
         13   -1    0    0    0    0  0.00000000000E+00  0.00000000000E+00  0.10000000000E+04  0.10000000000E+04  0.00000000000E+00 0. -1.
          2   -1    0    0  501    0 -0.00000000000E+00 -0.00000000000E+00 -0.10614409351E+03  0.10614409351E+03  0.00000000000E+00 0. -1.
    9000006    2    1    2  501    0  0.00000000000E+00  0.00000000000E+00  0.89385590649E+03  0.11061440935E+04  0.65159525323E+03 0.  0.
         13    1    3    3    0    0 -0.14989416567E+02 -0.31699032256E+03  0.57209653702E+03  0.65421861398E+03  0.00000000000E+00 0. -1.
          4    1    3    3  501    0  0.14989416567E+02  0.31699032256E+03  0.32175936947E+03  0.45192547953E+03  0.00000000000E+00 0. -1.
<mgrwt>
<rscale>  0 0.65159525E+03</rscale>
<asrwt>0</asrwt>
<pdfrwt beam="1">0</pdfrwt>
<pdfrwt beam="2">  1        2 0.38597934E+00 0.65159525E+03</pdfrwt>
<totfact> 0.44918030E+00</totfact>
</mgrwt>
</event>
<event>
 5    1  0.2354746E-004  0.5808423E+03  0.7818608E-02  0.9945969E-01
         13   -1    0    0    0    0  0.00000000000E+00  0.00000000000E+00  0.10000000000E+04  0.10000000000E+04  0.00000000000E+00 0. -1.
          2   -1    0    0  501    0 -0.00000000000E+00 -0.00000000000E+00 -0.84344430099E+02  0.84344430099E+02  0.00000000000E+00 0. -1.
    9000006    2    1    2  501    0  0.00000000000E+00  0.00000000000E+00  0.91565556990E+03  0.10843444301E+04  0.58084225087E+03 0.  0.
         13    1    3    3    0    0  0.23040976864E+03 -0.28709619284E+02  0.13216290875E+03  0.26717024193E+03  0.00000000000E+00 0. -1.
          2    1    3    3  501    0 -0.23040976864E+03  0.28709619284E+02  0.78349266115E+03  0.81717418817E+03  0.00000000000E+00 0. -1.
<mgrwt>
<rscale>  0 0.58084225E+03</rscale>
<asrwt>0</asrwt>
<pdfrwt beam="1">0</pdfrwt>
<pdfrwt beam="2">  1        2 0.30670767E+00 0.58084225E+03</pdfrwt>
<totfact> 0.87361136E+00</totfact>
</mgrwt>
</event>
<event>
 5    1  0.2354746E-004  0.6490682E+03  0.7818608E-02  0.9808529E-01
         13   -1    0    0    0    0  0.00000000000E+00  0.00000000000E+00  0.10000000000E+04  0.10000000000E+04  0.00000000000E+00 0. -1.
          2   -1    0    0  501    0 -0.00000000000E+00 -0.00000000000E+00 -0.10532237644E+03  0.10532237644E+03  0.00000000000E+00 0. -1.
    9000006    2    1    2  501    0  0.00000000000E+00  0.00000000000E+00  0.89467762356E+03  0.11053223764E+04  0.64906818268E+03 0.  0.
         13    1    3    3    0    0  0.28795582661E+03  0.12111420702E+03  0.29756582348E+03  0.43143090817E+03  0.00000000000E+00 0. -1.
          2    1    3    3  501    0 -0.28795582661E+03 -0.12111420702E+03  0.59711180007E+03  0.67389146827E+03  0.00000000000E+00 0. -1.
<mgrwt>
<rscale>  0 0.64906818E+03</rscale>
<asrwt>0</asrwt>
<pdfrwt beam="1">0</pdfrwt>
<pdfrwt beam="2">  1        2 0.38299127E+00 0.64906818E+03</pdfrwt>
<totfact> 0.46086130E+00</totfact>
</mgrwt>
</event>
<event>
 5    1  0.2354746E-004  0.6567037E+03  0.7818608E-02  0.9794281E-01
         13   -1    0    0    0    0  0.00000000000E+00  0.00000000000E+00  0.10000000000E+04  0.10000000000E+04  0.00000000000E+00 0. -1.
          2   -1    0    0  501    0 -0.00000000000E+00 -0.00000000000E+00 -0.10781493003E+03  0.10781493003E+03  0.00000000000E+00 0. -1.
    9000006    2    1    2  501    0  0.00000000000E+00  0.00000000000E+00  0.89218506997E+03  0.11078149300E+04  0.65670367755E+03 0.  0.
         13    1    3    3    0    0 -0.15779775829E+03 -0.26049557516E+03  0.23909514564E+03  0.38720093733E+03  0.00000000000E+00 0. -1.
          2    1    3    3  501    0  0.15779775829E+03  0.26049557516E+03  0.65308992434E+03  0.72061399270E+03  0.00000000000E+00 0. -1.
<mgrwt>
<rscale>  0 0.65670368E+03</rscale>
<asrwt>0</asrwt>
<pdfrwt beam="1">0</pdfrwt>
<pdfrwt beam="2">  1        2 0.39205512E+00 0.65670368E+03</pdfrwt>
<totfact> 0.42625164E+00</totfact>
</mgrwt>
</event>
<event>
 5    1  0.2354746E-004  0.6688030E+03  0.7818608E-02  0.9772123E-01
         13   -1    0    0    0    0  0.00000000000E+00  0.00000000000E+00  0.10000000000E+04  0.10000000000E+04  0.00000000000E+00 0. -1.
          2   -1    0    0  501    0 -0.00000000000E+00 -0.00000000000E+00 -0.11182435562E+03  0.11182435562E+03  0.00000000000E+00 0. -1.
    9000006    2    1    2  501    0  0.00000000000E+00  0.00000000000E+00  0.88817564438E+03  0.11118243556E+04  0.66880297733E+03 0.  0.
         13    1    3    3    0    0 -0.19277521421E+03  0.26260716491E+03  0.56959201785E+03  0.65617061277E+03  0.00000000000E+00 0. -1.
          2    1    3    3  501    0  0.19277521421E+03 -0.26260716491E+03  0.31858362653E+03  0.45565374285E+03  0.00000000000E+00 0. -1.
<mgrwt>
<rscale>  0 0.66880298E+03</rscale>
<asrwt>0</asrwt>
<pdfrwt beam="1">0</pdfrwt>
<pdfrwt beam="2">  1        2 0.40663488E+00 0.66880298E+03</pdfrwt>
<totfact> 0.37547448E+00</totfact>
</mgrwt>
</event>
<event>
 5    1  0.2354746E-004  0.6194644E+03  0.7818608E-02  0.9865827E-01
         13   -1    0    0    0    0  0.00000000000E+00  0.00000000000E+00  0.10000000000E+04  0.10000000000E+04  0.00000000000E+00 0. -1.
          4   -1    0    0  501    0 -0.00000000000E+00 -0.00000000000E+00 -0.95934030187E+02  0.95934030187E+02  0.00000000000E+00 0. -1.
    9000006    2    1    2  501    0  0.00000000000E+00  0.00000000000E+00  0.90406596981E+03  0.10959340302E+04  0.61946438214E+03 0.  0.
         13    1    3    3    0    0  0.16056005892E+03  0.25334621617E+03  0.31533496105E+03  0.43520107471E+03  0.00000000000E+00 0. -1.
          4    1    3    3  501    0 -0.16056005892E+03 -0.25334621617E+03  0.58873100877E+03  0.66073295548E+03  0.00000000000E+00 0. -1.
<mgrwt>
<rscale>  0 0.61946438E+03</rscale>
<asrwt>0</asrwt>
<pdfrwt beam="1">0</pdfrwt>
<pdfrwt beam="2">  1        4 0.34885175E+00 0.61946438E+03</pdfrwt>
<totfact> 0.70331220E-02</totfact>
</mgrwt>
</event>
<event>
 5    1  0.2354746E-004  0.6263090E+03  0.7818608E-02  0.9852278E-01
         13   -1    0    0    0    0  0.00000000000E+00  0.00000000000E+00  0.10000000000E+04  0.10000000000E+04  0.00000000000E+00 0. -1.
          2   -1    0    0  501    0 -0.00000000000E+00 -0.00000000000E+00 -0.98065727841E+02  0.98065727841E+02  0.00000000000E+00 0. -1.
    9000006    2    1    2  501    0  0.00000000000E+00  0.00000000000E+00  0.90193427216E+03  0.10980657278E+04  0.62630895839E+03 0.  0.
         13    1    3    3    0    0  0.74378017595E+02  0.22120223130E+03  0.84867792290E+02  0.24832450302E+03  0.00000000000E+00 0. -1.
          4    1    3    3  501    0 -0.74378017595E+02 -0.22120223130E+03  0.81706647987E+03  0.84974122482E+03  0.00000000000E+00 0. -1.
<mgrwt>
<rscale>  0 0.62630896E+03</rscale>
<asrwt>0</asrwt>
<pdfrwt beam="1">0</pdfrwt>
<pdfrwt beam="2">  1        2 0.35660340E+00 0.62630896E+03</pdfrwt>
<totfact> 0.57673435E+00</totfact>
</mgrwt>
</event>
<event>
 5    1  0.2354746E-004  0.6839869E+03  0.7818608E-02  0.9745015E-01
         13   -1    0    0    0    0  0.00000000000E+00  0.00000000000E+00  0.10000000000E+04  0.10000000000E+04  0.00000000000E+00 0. -1.
          2   -1    0    0  501    0 -0.00000000000E+00 -0.00000000000E+00 -0.11695951755E+03  0.11695951755E+03  0.00000000000E+00 0. -1.
    9000006    2    1    2  501    0  0.00000000000E+00  0.00000000000E+00  0.88304048245E+03  0.11169595175E+04  0.68398689329E+03 0.  0.
         13    1    3    3    0    0 -0.52279022740E+01 -0.21603819228E+03  0.87437555745E+03  0.90068443251E+03  0.00000000000E+00 0. -1.
          2    1    3    3  501    0  0.52279022740E+01  0.21603819228E+03  0.86649249971E+01  0.21627508504E+03  0.00000000000E+00 0. -1.
<mgrwt>
<rscale>  0 0.68398689E+03</rscale>
<asrwt>0</asrwt>
<pdfrwt beam="1">0</pdfrwt>
<pdfrwt beam="2">  1        2 0.42530823E+00 0.68398689E+03</pdfrwt>
<totfact> 0.31836771E+00</totfact>
</mgrwt>
</event>
<event>
 5    1  0.2354746E-004  0.6017435E+03  0.7818608E-02  0.9901795E-01
         13   -1    0    0    0    0  0.00000000000E+00  0.00000000000E+00  0.10000000000E+04  0.10000000000E+04  0.00000000000E+00 0. -1.
          2   -1    0    0  501    0 -0.00000000000E+00 -0.00000000000E+00 -0.90523818955E+02  0.90523818955E+02  0.00000000000E+00 0. -1.
    9000006    2    1    2  501    0  0.00000000000E+00  0.00000000000E+00  0.90947618104E+03  0.10905238190E+04  0.60174352994E+03 0.  0.
         13    1    3    3    0    0 -0.11715371943E+03 -0.25022874588E+03  0.67057673606E+03  0.72526724605E+03  0.00000000000E+00 0. -1.
          4    1    3    3  501    0  0.11715371943E+03  0.25022874588E+03  0.23889944498E+03  0.36525657291E+03  0.00000000000E+00 0. -1.
<mgrwt>
<rscale>  0 0.60174353E+03</rscale>
<asrwt>0</asrwt>
<pdfrwt beam="1">0</pdfrwt>
<pdfrwt beam="2">  1        2 0.32917822E+00 0.60174353E+03</pdfrwt>
<totfact> 0.72536881E+00</totfact>
</mgrwt>
</event>
<event>
 5    1  0.2354746E-004  0.6624212E+03  0.7818608E-02  0.9783747E-01
         13   -1    0    0    0    0  0.00000000000E+00  0.00000000000E+00  0.10000000000E+04  0.10000000000E+04  0.00000000000E+00 0. -1.
          2   -1    0    0  501    0 -0.00000000000E+00 -0.00000000000E+00 -0.10970046161E+03  0.10970046161E+03  0.00000000000E+00 0. -1.
    9000006    2    1    2  501    0  0.00000000000E+00  0.00000000000E+00  0.89029953839E+03  0.11097004616E+04  0.66242120018E+03 0.  0.
         13    1    3    3    0    0  0.72731171038E+02 -0.32289631105E+03  0.42472785011E+03  0.53846596698E+03  0.00000000000E+00 0. -1.
          4    1    3    3  501    0 -0.72731171038E+02  0.32289631105E+03  0.46557168828E+03  0.57123449463E+03  0.00000000000E+00 0. -1.
<mgrwt>
<rscale>  0 0.66242120E+03</rscale>
<asrwt>0</asrwt>
<pdfrwt beam="1">0</pdfrwt>
<pdfrwt beam="2">  1        2 0.39891161E+00 0.66242120E+03</pdfrwt>
<totfact> 0.40165092E+00</totfact>
</mgrwt>
</event>
<event>
 5    1  0.2354746E-004  0.6422128E+03  0.7818608E-02  0.9821502E-01
         13   -1    0    0    0    0  0.00000000000E+00  0.00000000000E+00  0.10000000000E+04  0.10000000000E+04  0.00000000000E+00 0. -1.
          2   -1    0    0  501    0 -0.00000000000E+00 -0.00000000000E+00 -0.10310930690E+03  0.10310930690E+03  0.00000000000E+00 0. -1.
    9000006    2    1    2  501    0  0.00000000000E+00  0.00000000000E+00  0.89689069310E+03  0.11031093069E+04  0.64221275884E+03 0.  0.
         13    1    3    3    0    0  0.30835838632E+03 -0.29835501139E+02  0.59352748373E+03  0.66951469400E+03  0.00000000000E+00 0. -1.
          2    1    3    3  501    0 -0.30835838632E+03  0.29835501139E+02  0.30336320936E+03  0.43359461290E+03  0.00000000000E+00 0. -1.
<mgrwt>
<rscale>  0 0.64221276E+03</rscale>
<asrwt>0</asrwt>
<pdfrwt beam="1">0</pdfrwt>
<pdfrwt beam="2">  1        2 0.37494372E+00 0.64221276E+03</pdfrwt>
<totfact> 0.49370782E+00</totfact>
</mgrwt>
</event>
<event>
 5    1  0.2354746E-004  0.6499244E+03  0.7818608E-02  0.9806921E-01
         13   -1    0    0    0    0  0.00000000000E+00  0.00000000000E+00  0.10000000000E+04  0.10000000000E+04  0.00000000000E+00 0. -1.
          2   -1    0    0  501    0 -0.00000000000E+00 -0.00000000000E+00 -0.10560042711E+03  0.10560042711E+03  0.00000000000E+00 0. -1.
    9000006    2    1    2  501    0  0.00000000000E+00  0.00000000000E+00  0.89439957289E+03  0.11056004271E+04  0.64992438672E+03 0.  0.
         13    1    3    3    0    0  0.18947899013E+03  0.23121505932E+03  0.66396924840E+03  0.72816059642E+03  0.00000000000E+00 0. -1.
          4    1    3    3  501    0 -0.18947899013E+03 -0.23121505932E+03  0.23043032449E+03  0.37743983070E+03  0.00000000000E+00 0. -1.
<mgrwt>
<rscale>  0 0.64992439E+03</rscale>
<asrwt>0</asrwt>
<pdfrwt beam="1">0</pdfrwt>
<pdfrwt beam="2">  1        2 0.38400236E+00 0.64992439E+03</pdfrwt>
<totfact> 0.45687822E+00</totfact>
</mgrwt>
</event>
<event>
 5    1  0.2354746E-004  0.6485967E+03  0.7818608E-02  0.9809416E-01
         13   -1    0    0    0    0  0.00000000000E+00  0.00000000000E+00  0.10000000000E+04  0.10000000000E+04  0.00000000000E+00 0. -1.
          2   -1    0    0  501    0 -0.00000000000E+00 -0.00000000000E+00 -0.10516940977E+03  0.10516940977E+03  0.00000000000E+00 0. -1.
    9000006    2    1    2  501    0  0.00000000000E+00  0.00000000000E+00  0.89483059023E+03  0.11051694098E+04  0.64859666904E+03 0.  0.
         13    1    3    3    0    0  0.11890647288E+03 -0.59322758296E+02 -0.56649809439E+02  0.14445462905E+03  0.00000000000E+00 0. -1.
          4    1    3    3  501    0 -0.11890647288E+03  0.59322758296E+02  0.95148039967E+03  0.96071478072E+03  0.00000000000E+00 0. -1.
<mgrwt>
<rscale>  0 0.64859667E+03</rscale>
<asrwt>0</asrwt>
<pdfrwt beam="1">0</pdfrwt>
<pdfrwt beam="2">  1        2 0.38243502E+00 0.64859667E+03</pdfrwt>
<totfact> 0.46306597E+00</totfact>
</mgrwt>
</event>
<event>
 5    1  0.2354746E-004  0.7063036E+03  0.7818608E-02  0.9706513E-01
         13   -1    0    0    0    0  0.00000000000E+00  0.00000000000E+00  0.10000000000E+04  0.10000000000E+04  0.00000000000E+00 0. -1.
          2   -1    0    0  501    0 -0.00000000000E+00 -0.00000000000E+00 -0.12471618708E+03  0.12471618708E+03  0.00000000000E+00 0. -1.
    9000006    2    1    2  501    0  0.00000000000E+00  0.00000000000E+00  0.87528381292E+03  0.11247161871E+04  0.70630358084E+03 0.  0.
         13    1    3    3    0    0  0.22145291078E+03  0.20723672148E+03  0.14956428439E+03  0.33816848699E+03  0.00000000000E+00 0. -1.
          2    1    3    3  501    0 -0.22145291078E+03 -0.20723672148E+03  0.72571952853E+03  0.78654770009E+03  0.00000000000E+00 0. -1.
<mgrwt>
<rscale>  0 0.70630358E+03</rscale>
<asrwt>0</asrwt>
<pdfrwt beam="1">0</pdfrwt>
<pdfrwt beam="2">  1        2 0.45351436E+00 0.70630358E+03</pdfrwt>
<totfact> 0.24661535E+00</totfact>
</mgrwt>
</event>
<event>
 5    1  0.2354746E-004  0.6529815E+03  0.7818608E-02  0.9801201E-01
         13   -1    0    0    0    0  0.00000000000E+00  0.00000000000E+00  0.10000000000E+04  0.10000000000E+04  0.00000000000E+00 0. -1.
          2   -1    0    0  501    0 -0.00000000000E+00 -0.00000000000E+00 -0.10659619818E+03  0.10659619818E+03  0.00000000000E+00 0. -1.
    9000006    2    1    2  501    0  0.00000000000E+00  0.00000000000E+00  0.89340380182E+03  0.11065961982E+04  0.65298146429E+03 0.  0.
         13    1    3    3    0    0  0.11686522049E+03  0.15071500718E+03  0.89578859747E+03  0.91586554936E+03  0.00000000000E+00 0. -1.
          4    1    3    3  501    0 -0.11686522049E+03 -0.15071500718E+03 -0.23847956461E+01  0.19073064882E+03  0.00000000000E+00 0. -1.
<mgrwt>
<rscale>  0 0.65298146E+03</rscale>
<asrwt>0</asrwt>
<pdfrwt beam="1">0</pdfrwt>
<pdfrwt beam="2">  1        2 0.38762336E+00 0.65298146E+03</pdfrwt>
<totfact> 0.44286854E+00</totfact>
</mgrwt>
</event>
<event>
 5    1  0.2354746E-004  0.6558233E+03  0.7818608E-02  0.9795913E-01
         13   -1    0    0    0    0  0.00000000000E+00  0.00000000000E+00  0.10000000000E+04  0.10000000000E+04  0.00000000000E+00 0. -1.
          2   -1    0    0  501    0 -0.00000000000E+00 -0.00000000000E+00 -0.10752604681E+03  0.10752604681E+03  0.00000000000E+00 0. -1.
    9000006    2    1    2  501    0  0.00000000000E+00  0.00000000000E+00  0.89247395319E+03  0.11075260468E+04  0.65582328966E+03 0.  0.
         13    1    3    3    0    0 -0.64985961673E+02 -0.69527810912E+02  0.97616432994E+03  0.98079258294E+03  0.00000000000E+00 0. -1.
          2    1    3    3  501    0  0.64985961673E+02  0.69527810912E+02 -0.83690376753E+02  0.12673346388E+03  0.00000000000E+00 0. -1.
<mgrwt>
<rscale>  0 0.65582329E+03</rscale>
<asrwt>0</asrwt>
<pdfrwt beam="1">0</pdfrwt>
<pdfrwt beam="2">  1        2 0.39100463E+00 0.65582329E+03</pdfrwt>
<totfact> 0.43013866E+00</totfact>
</mgrwt>
</event>
<event>
 5    1  0.2354746E-004  0.6454974E+03  0.7818608E-02  0.9815265E-01
         13   -1    0    0    0    0  0.00000000000E+00  0.00000000000E+00  0.10000000000E+04  0.10000000000E+04  0.00000000000E+00 0. -1.
          2   -1    0    0  501    0 -0.00000000000E+00 -0.00000000000E+00 -0.10416670964E+03  0.10416670964E+03  0.00000000000E+00 0. -1.
    9000006    2    1    2  501    0  0.00000000000E+00  0.00000000000E+00  0.89583329036E+03  0.11041667096E+04  0.64549735751E+03 0.  0.
         13    1    3    3    0    0  0.68950351073E+02  0.69986022500E+02  0.97380001395E+03  0.97874340939E+03  0.00000000000E+00 0. -1.
          2    1    3    3  501    0 -0.68950351073E+02 -0.69986022500E+02 -0.77966723588E+02  0.12542330025E+03  0.00000000000E+00 0. -1.
<mgrwt>
<rscale>  0 0.64549736E+03</rscale>
<asrwt>0</asrwt>
<pdfrwt beam="1">0</pdfrwt>
<pdfrwt beam="2">  1        2 0.37878883E+00 0.64549736E+03</pdfrwt>
<totfact> 0.47775663E+00</totfact>
</mgrwt>
</event>
<event>
 5    1  0.2354746E-004  0.6487952E+03  0.7818608E-02  0.9809043E-01
         13   -1    0    0    0    0  0.00000000000E+00  0.00000000000E+00  0.10000000000E+04  0.10000000000E+04  0.00000000000E+00 0. -1.
          2   -1    0    0  501    0 -0.00000000000E+00 -0.00000000000E+00 -0.10523380007E+03  0.10523380007E+03  0.00000000000E+00 0. -1.
    9000006    2    1    2  501    0  0.00000000000E+00  0.00000000000E+00  0.89476619993E+03  0.11052338001E+04  0.64879519132E+03 0.  0.
         13    1    3    3    0    0  0.10673890709E+03  0.30211440737E+03  0.36106517925E+03  0.48273633911E+03  0.00000000000E+00 0. -1.
          4    1    3    3  501    0 -0.10673890709E+03 -0.30211440737E+03  0.53370102068E+03  0.62249746096E+03  0.00000000000E+00 0. -1.
<mgrwt>
<rscale>  0 0.64879519E+03</rscale>
<asrwt>0</asrwt>
<pdfrwt beam="1">0</pdfrwt>
<pdfrwt beam="2">  1        2 0.38266917E+00 0.64879519E+03</pdfrwt>
<totfact> 0.46213676E+00</totfact>
</mgrwt>
</event>
<event>
 5    1  0.2354746E-004  0.6464592E+03  0.7818608E-02  0.9813446E-01
         13   -1    0    0    0    0  0.00000000000E+00  0.00000000000E+00  0.10000000000E+04  0.10000000000E+04  0.00000000000E+00 0. -1.
          2   -1    0    0  501    0 -0.00000000000E+00 -0.00000000000E+00 -0.10447738059E+03  0.10447738059E+03  0.00000000000E+00 0. -1.
    9000006    2    1    2  501    0  0.00000000000E+00  0.00000000000E+00  0.89552261941E+03  0.11044773806E+04  0.64645921942E+03 0.  0.
         13    1    3    3    0    0 -0.31478765840E+03 -0.19771959163E+01  0.57310303417E+03  0.65386716308E+03  0.00000000000E+00 0. -1.
          4    1    3    3  501    0  0.31478765840E+03  0.19771959163E+01  0.32241958524E+03  0.45061021752E+03  0.00000000000E+00 0. -1.
<mgrwt>
<rscale>  0 0.64645922E+03</rscale>
<asrwt>0</asrwt>
<pdfrwt beam="1">0</pdfrwt>
<pdfrwt beam="2">  1        2 0.37991855E+00 0.64645922E+03</pdfrwt>
<totfact> 0.47316026E+00</totfact>
</mgrwt>
</event>
<event>
 5    1  0.2354746E-004  0.6104278E+03  0.7818608E-02  0.9884005E-01
         13   -1    0    0    0    0  0.00000000000E+00  0.00000000000E+00  0.10000000000E+04  0.10000000000E+04  0.00000000000E+00 0. -1.
          2   -1    0    0  501    0 -0.00000000000E+00 -0.00000000000E+00 -0.93155530874E+02  0.93155530874E+02  0.00000000000E+00 0. -1.
    9000006    2    1    2  501    0  0.00000000000E+00  0.00000000000E+00  0.90684446913E+03  0.10931555309E+04  0.61042782005E+03 0.  0.
         13    1    3    3    0    0  0.59623084047E+02 -0.27891714471E+03  0.25884313976E+03  0.38516159825E+03  0.00000000000E+00 0. -1.
          2    1    3    3  501    0 -0.59623084047E+02  0.27891714471E+03  0.64800132937E+03  0.70799393262E+03  0.00000000000E+00 0. -1.
<mgrwt>
<rscale>  0 0.61042782E+03</rscale>
<asrwt>0</asrwt>
<pdfrwt beam="1">0</pdfrwt>
<pdfrwt beam="2">  1        2 0.33874810E+00 0.61042782E+03</pdfrwt>
<totfact> 0.66983426E+00</totfact>
</mgrwt>
</event>
<event>
 5    1  0.2354746E-004  0.6645384E+03  0.7818608E-02  0.9779875E-01
         13   -1    0    0    0    0  0.00000000000E+00  0.00000000000E+00  0.10000000000E+04  0.10000000000E+04  0.00000000000E+00 0. -1.
          2   -1    0    0  501    0 -0.00000000000E+00 -0.00000000000E+00 -0.11040281804E+03  0.11040281804E+03  0.00000000000E+00 0. -1.
    9000006    2    1    2  501    0  0.00000000000E+00  0.00000000000E+00  0.88959718196E+03  0.11104028180E+04  0.66453839029E+03 0.  0.
         13    1    3    3    0    0  0.41146290645E+02 -0.30037989888E+03  0.21763870611E+03  0.37321268372E+03  0.00000000000E+00 0. -1.
          2    1    3    3  501    0 -0.41146290645E+02  0.30037989888E+03  0.67195847584E+03  0.73719013433E+03  0.00000000000E+00 0. -1.
<mgrwt>
<rscale>  0 0.66453839E+03</rscale>
<asrwt>0</asrwt>
<pdfrwt beam="1">0</pdfrwt>
<pdfrwt beam="2">  1        2 0.40146564E+00 0.66453839E+03</pdfrwt>
<totfact> 0.39281902E+00</totfact>
</mgrwt>
</event>
<event>
 5    1  0.2354746E-004  0.6865011E+03  0.7818608E-02  0.9740600E-01
         13   -1    0    0    0    0  0.00000000000E+00  0.00000000000E+00  0.10000000000E+04  0.10000000000E+04  0.00000000000E+00 0. -1.
          2   -1    0    0  501    0 -0.00000000000E+00 -0.00000000000E+00 -0.11782093590E+03  0.11782093590E+03  0.00000000000E+00 0. -1.
    9000006    2    1    2  501    0  0.00000000000E+00  0.00000000000E+00  0.88217906410E+03  0.11178209359E+04  0.68650108784E+03 0.  0.
         13    1    3    3    0    0 -0.29833961871E+03 -0.11794266612E+03  0.24230550331E+03  0.40203104049E+03  0.00000000000E+00 0. -1.
          2    1    3    3  501    0  0.29833961871E+03  0.11794266612E+03  0.63987356079E+03  0.71578989541E+03  0.00000000000E+00 0. -1.
<mgrwt>
<rscale>  0 0.68650109E+03</rscale>
<asrwt>0</asrwt>
<pdfrwt beam="1">0</pdfrwt>
<pdfrwt beam="2">  1        2 0.42844067E+00 0.68650109E+03</pdfrwt>
<totfact> 0.30958369E+00</totfact>
</mgrwt>
</event>
<event>
 5    1  0.2354746E-004  0.6524411E+03  0.7818608E-02  0.9802209E-01
         13   -1    0    0    0    0  0.00000000000E+00  0.00000000000E+00  0.10000000000E+04  0.10000000000E+04  0.00000000000E+00 0. -1.
          2   -1    0    0  501    0 -0.00000000000E+00 -0.00000000000E+00 -0.10641984886E+03  0.10641984886E+03  0.00000000000E+00 0. -1.
    9000006    2    1    2  501    0  0.00000000000E+00  0.00000000000E+00  0.89358015114E+03  0.11064198489E+04  0.65244110497E+03 0.  0.
         13    1    3    3    0    0  0.10743650384E+03  0.25376160024E+03  0.74286558627E+03  0.79233000157E+03  0.00000000000E+00 0. -1.
          2    1    3    3  501    0 -0.10743650384E+03 -0.25376160024E+03  0.15071456486E+03  0.31408984730E+03  0.00000000000E+00 0. -1.
<mgrwt>
<rscale>  0 0.65244110E+03</rscale>
<asrwt>0</asrwt>
<pdfrwt beam="1">0</pdfrwt>
<pdfrwt beam="2">  1        2 0.38698208E+00 0.65244110E+03</pdfrwt>
<totfact> 0.44532091E+00</totfact>
</mgrwt>
</event>
<event>
 5    1  0.2354746E-004  0.6233683E+03  0.7818608E-02  0.9858076E-01
         13   -1    0    0    0    0  0.00000000000E+00  0.00000000000E+00  0.10000000000E+04  0.10000000000E+04  0.00000000000E+00 0. -1.
          2   -1    0    0  501    0 -0.00000000000E+00 -0.00000000000E+00 -0.97147000273E+02  0.97147000273E+02  0.00000000000E+00 0. -1.
    9000006    2    1    2  501    0  0.00000000000E+00  0.00000000000E+00  0.90285299973E+03  0.10971470003E+04  0.62336827084E+03 0.  0.
         13    1    3    3    0    0  0.63327297908E+02  0.27299009260E+02  0.98640452415E+03  0.98881214992E+03  0.00000000000E+00 0. -1.
          2    1    3    3  501    0 -0.63327297908E+02 -0.27299009260E+02 -0.83551524424E+02  0.10833485035E+03  0.00000000000E+00 0. -1.
<mgrwt>
<rscale>  0 0.62336827E+03</rscale>
<asrwt>0</asrwt>
<pdfrwt beam="1">0</pdfrwt>
<pdfrwt beam="2">  1        2 0.35326256E+00 0.62336827E+03</pdfrwt>
<totfact> 0.59318031E+00</totfact>
</mgrwt>
</event>
<event>
 5    1  0.2354746E-004  0.7458919E+03  0.7818608E-02  0.9641818E-01
         13   -1    0    0    0    0  0.00000000000E+00  0.00000000000E+00  0.10000000000E+04  0.10000000000E+04  0.00000000000E+00 0. -1.
          2   -1    0    0  501    0 -0.00000000000E+00 -0.00000000000E+00 -0.13908866406E+03  0.13908866406E+03  0.00000000000E+00 0. -1.
    9000006    2    1    2  501    0  0.00000000000E+00  0.00000000000E+00  0.86091133594E+03  0.11390886641E+04  0.74589185290E+03 0.  0.
         13    1    3    3    0    0 -0.18936983741E+03 -0.31212872764E+03  0.31411745206E+03  0.48161712141E+03  0.00000000000E+00 0. -1.
          2    1    3    3  501    0  0.18936983741E+03  0.31212872764E+03  0.54679388388E+03  0.65747154265E+03  0.00000000000E+00 0. -1.
<mgrwt>
<rscale>  0 0.74589185E+03</rscale>
<asrwt>0</asrwt>
<pdfrwt beam="1">0</pdfrwt>
<pdfrwt beam="2">  1        2 0.50577803E+00 0.74589185E+03</pdfrwt>
<totfact> 0.15005359E+00</totfact>
</mgrwt>
</event>
<event>
 5    1  0.2354746E-004  0.6538303E+03  0.7818608E-02  0.9799618E-01
         13   -1    0    0    0    0  0.00000000000E+00  0.00000000000E+00  0.10000000000E+04  0.10000000000E+04  0.00000000000E+00 0. -1.
          2   -1    0    0  501    0 -0.00000000000E+00 -0.00000000000E+00 -0.10687350038E+03  0.10687350038E+03  0.00000000000E+00 0. -1.
    9000006    2    1    2  501    0  0.00000000000E+00  0.00000000000E+00  0.89312649962E+03  0.11068735004E+04  0.65383025437E+03 0.  0.
         13    1    3    3    0    0 -0.29340808607E+03 -0.91304988870E+02  0.63544636480E+03  0.70584487566E+03  0.00000000000E+00 0. -1.
          2    1    3    3  501    0  0.29340808607E+03  0.91304988870E+02  0.25768013482E+03  0.40102862472E+03  0.00000000000E+00 0. -1.
<mgrwt>
<rscale>  0 0.65383025E+03</rscale>
<asrwt>0</asrwt>
<pdfrwt beam="1">0</pdfrwt>
<pdfrwt beam="2">  1        2 0.38863173E+00 0.65383025E+03</pdfrwt>
<totfact> 0.43903701E+00</totfact>
</mgrwt>
</event>
<event>
 5    1  0.2354746E-004  0.6214023E+03  0.7818608E-02  0.9861972E-01
         13   -1    0    0    0    0  0.00000000000E+00  0.00000000000E+00  0.10000000000E+04  0.10000000000E+04  0.00000000000E+00 0. -1.
          2   -1    0    0  501    0 -0.00000000000E+00 -0.00000000000E+00 -0.96535193598E+02  0.96535193598E+02  0.00000000000E+00 0. -1.
    9000006    2    1    2  501    0  0.00000000000E+00  0.00000000000E+00  0.90346480640E+03  0.10965351936E+04  0.62140226455E+03 0.  0.
         13    1    3    3    0    0 -0.22263867216E+03  0.17172180198E+03  0.21843708587E+03  0.35604931695E+03  0.00000000000E+00 0. -1.
          2    1    3    3  501    0  0.22263867216E+03 -0.17172180198E+03  0.68502772054E+03  0.74048587665E+03  0.00000000000E+00 0. -1.
<mgrwt>
<rscale>  0 0.62140226E+03</rscale>
<asrwt>0</asrwt>
<pdfrwt beam="1">0</pdfrwt>
<pdfrwt beam="2">  1        2 0.35103781E+00 0.62140226E+03</pdfrwt>
<totfact> 0.60437256E+00</totfact>
</mgrwt>
</event>
<event>
 5    1  0.2354746E-004  0.6313381E+03  0.7818608E-02  0.9842441E-01
         13   -1    0    0    0    0  0.00000000000E+00  0.00000000000E+00  0.10000000000E+04  0.10000000000E+04  0.00000000000E+00 0. -1.
          2   -1    0    0  501    0 -0.00000000000E+00 -0.00000000000E+00 -0.99646955285E+02  0.99646955285E+02  0.00000000000E+00 0. -1.
    9000006    2    1    2  501    0  0.00000000000E+00  0.00000000000E+00  0.90035304472E+03  0.10996469553E+04  0.63133811950E+03 0.  0.
         13    1    3    3    0    0 -0.28039674735E+03  0.11701212576E+03  0.59932734203E+03  0.67194303062E+03  0.00000000000E+00 0. -1.
          4    1    3    3  501    0  0.28039674735E+03 -0.11701212576E+03  0.30102570269E+03  0.42770392467E+03  0.00000000000E+00 0. -1.
<mgrwt>
<rscale>  0 0.63133812E+03</rscale>
<asrwt>0</asrwt>
<pdfrwt beam="1">0</pdfrwt>
<pdfrwt beam="2">  1        2 0.36235333E+00 0.63133812E+03</pdfrwt>
<totfact> 0.54941621E+00</totfact>
</mgrwt>
</event>
<event>
 5    1  0.2354746E-004  0.6559819E+03  0.7818608E-02  0.9795619E-01
         13   -1    0    0    0    0  0.00000000000E+00  0.00000000000E+00  0.10000000000E+04  0.10000000000E+04  0.00000000000E+00 0. -1.
          2   -1    0    0  501    0 -0.00000000000E+00 -0.00000000000E+00 -0.10757806514E+03  0.10757806514E+03  0.00000000000E+00 0. -1.
    9000006    2    1    2  501    0  0.00000000000E+00  0.00000000000E+00  0.89242193486E+03  0.11075780651E+04  0.65598190568E+03 0.  0.
         13    1    3    3    0    0 -0.21167885447E+03  0.24548227285E+03  0.53077712300E+03  0.62192751830E+03  0.00000000000E+00 0. -1.
          4    1    3    3  501    0  0.21167885447E+03 -0.24548227285E+03  0.36164481185E+03  0.48565054685E+03  0.00000000000E+00 0. -1.
<mgrwt>
<rscale>  0 0.65598191E+03</rscale>
<asrwt>0</asrwt>
<pdfrwt beam="1">0</pdfrwt>
<pdfrwt beam="2">  1        2 0.39119379E+00 0.65598191E+03</pdfrwt>
<totfact> 0.42943638E+00</totfact>
</mgrwt>
</event>
<event>
 5    1  0.2354746E-004  0.6417461E+03  0.7818608E-02  0.9822391E-01
         13   -1    0    0    0    0  0.00000000000E+00  0.00000000000E+00  0.10000000000E+04  0.10000000000E+04  0.00000000000E+00 0. -1.
          4   -1    0    0  501    0 -0.00000000000E+00 -0.00000000000E+00 -0.10295952515E+03  0.10295952515E+03  0.00000000000E+00 0. -1.
    9000006    2    1    2  501    0  0.00000000000E+00  0.00000000000E+00  0.89704047485E+03  0.11029595251E+04  0.64174613407E+03 0.  0.
         13    1    3    3    0    0 -0.23513971613E+03 -0.80266272410E+02  0.99554506352E+02  0.26766482833E+03  0.00000000000E+00 0. -1.
          2    1    3    3  501    0  0.23513971613E+03  0.80266272410E+02  0.79748596850E+03  0.83529469682E+03  0.00000000000E+00 0. -1.
<mgrwt>
<rscale>  0 0.64174613E+03</rscale>
<asrwt>0</asrwt>
<pdfrwt beam="1">0</pdfrwt>
<pdfrwt beam="2">  1        4 0.37439906E+00 0.64174613E+03</pdfrwt>
<totfact> 0.47830862E-02</totfact>
</mgrwt>
</event>
<event>
 5    1  0.2354746E-004  0.6506447E+03  0.7818608E-02  0.9805570E-01
         13   -1    0    0    0    0  0.00000000000E+00  0.00000000000E+00  0.10000000000E+04  0.10000000000E+04  0.00000000000E+00 0. -1.
          2   -1    0    0  501    0 -0.00000000000E+00 -0.00000000000E+00 -0.10583464375E+03  0.10583464375E+03  0.00000000000E+00 0. -1.
    9000006    2    1    2  501    0  0.00000000000E+00  0.00000000000E+00  0.89416535625E+03  0.11058346437E+04  0.65064473793E+03 0.  0.
         13    1    3    3    0    0  0.35094139354E+02  0.31744332154E+03  0.34186144890E+03  0.46783662880E+03  0.00000000000E+00 0. -1.
          4    1    3    3  501    0 -0.35094139354E+02 -0.31744332154E+03  0.55230390735E+03  0.63799801494E+03  0.00000000000E+00 0. -1.
<mgrwt>
<rscale>  0 0.65064474E+03</rscale>
<asrwt>0</asrwt>
<pdfrwt beam="1">0</pdfrwt>
<pdfrwt beam="2">  1        2 0.38485406E+00 0.65064474E+03</pdfrwt>
<totfact> 0.45354734E+00</totfact>
</mgrwt>
</event>
<event>
 5    1  0.2354746E-004  0.6751364E+03  0.7818608E-02  0.9760723E-01
         13   -1    0    0    0    0  0.00000000000E+00  0.00000000000E+00  0.10000000000E+04  0.10000000000E+04  0.00000000000E+00 0. -1.
          2   -1    0    0  501    0 -0.00000000000E+00 -0.00000000000E+00 -0.11395229633E+03  0.11395229633E+03  0.00000000000E+00 0. -1.
    9000006    2    1    2  501    0  0.00000000000E+00  0.00000000000E+00  0.88604770367E+03  0.11139522963E+04  0.67513641977E+03 0.  0.
         13    1    3    3    0    0  0.19727112248E+03 -0.22091669218E+03  0.17578934013E+03  0.34441540725E+03  0.00000000000E+00 0. -1.
          4    1    3    3  501    0 -0.19727112248E+03  0.22091669218E+03  0.71025836355E+03  0.76953688907E+03  0.00000000000E+00 0. -1.
<mgrwt>
<rscale>  0 0.67513642E+03</rscale>
<asrwt>0</asrwt>
<pdfrwt beam="1">0</pdfrwt>
<pdfrwt beam="2">  1        2 0.41437286E+00 0.67513642E+03</pdfrwt>
<totfact> 0.35078920E+00</totfact>
</mgrwt>
</event>
<event>
 5    1  0.2354746E-004  0.6171257E+03  0.7818608E-02  0.9870499E-01
         13   -1    0    0    0    0  0.00000000000E+00  0.00000000000E+00  0.10000000000E+04  0.10000000000E+04  0.00000000000E+00 0. -1.
          2   -1    0    0  501    0 -0.00000000000E+00 -0.00000000000E+00 -0.95211038844E+02  0.95211038844E+02  0.00000000000E+00 0. -1.
    9000006    2    1    2  501    0  0.00000000000E+00  0.00000000000E+00  0.90478896116E+03  0.10952110388E+04  0.61712572088E+03 0.  0.
         13    1    3    3    0    0  0.28793452190E+03  0.38321754059E+02  0.26765380271E+03  0.39498532105E+03  0.00000000000E+00 0. -1.
          2    1    3    3  501    0 -0.28793452190E+03 -0.38321754059E+02  0.63713515844E+03  0.70022571779E+03  0.00000000000E+00 0. -1.
<mgrwt>
<rscale>  0 0.61712572E+03</rscale>
<asrwt>0</asrwt>
<pdfrwt beam="1">0</pdfrwt>
<pdfrwt beam="2">  1        2 0.34622269E+00 0.61712572E+03</pdfrwt>
<totfact> 0.62927303E+00</totfact>
</mgrwt>
</event>
<event>
 5    1  0.2354746E-004  0.6611747E+03  0.7818608E-02  0.9786034E-01
         13   -1    0    0    0    0  0.00000000000E+00  0.00000000000E+00  0.10000000000E+04  0.10000000000E+04  0.00000000000E+00 0. -1.
          2   -1    0    0  501    0 -0.00000000000E+00 -0.00000000000E+00 -0.10928800036E+03  0.10928800036E+03  0.00000000000E+00 0. -1.
    9000006    2    1    2  501    0  0.00000000000E+00  0.00000000000E+00  0.89071199964E+03  0.11092880004E+04  0.66117471326E+03 0.  0.
         13    1    3    3    0    0 -0.20897275444E+03  0.23666588395E+03  0.28090496409E+03  0.42259667719E+03  0.00000000000E+00 0. -1.
          2    1    3    3  501    0  0.20897275444E+03 -0.23666588395E+03  0.60980703554E+03  0.68669132317E+03  0.00000000000E+00 0. -1.
<mgrwt>
<rscale>  0 0.66117471E+03</rscale>
<asrwt>0</asrwt>
<pdfrwt beam="1">0</pdfrwt>
<pdfrwt beam="2">  1        2 0.39741175E+00 0.66117471E+03</pdfrwt>
<totfact> 0.40692023E+00</totfact>
</mgrwt>
</event>
<event>
 5    1  0.2354746E-004  0.6222070E+03  0.7818608E-02  0.9860375E-01
         13   -1    0    0    0    0  0.00000000000E+00  0.00000000000E+00  0.10000000000E+04  0.10000000000E+04  0.00000000000E+00 0. -1.
          2   -1    0    0  501    0 -0.00000000000E+00 -0.00000000000E+00 -0.96785377674E+02  0.96785377674E+02  0.00000000000E+00 0. -1.
    9000006    2    1    2  501    0  0.00000000000E+00  0.00000000000E+00  0.90321462233E+03  0.10967853777E+04  0.62220696773E+03 0.  0.
         13    1    3    3    0    0 -0.22668418630E+03  0.63367918440E+02  0.93012603071E+02  0.25308606784E+03  0.00000000000E+00 0. -1.
          2    1    3    3  501    0  0.22668418630E+03 -0.63367918440E+02  0.81020201925E+03  0.84369930983E+03  0.00000000000E+00 0. -1.
<mgrwt>
<rscale>  0 0.62220697E+03</rscale>
<asrwt>0</asrwt>
<pdfrwt beam="1">0</pdfrwt>
<pdfrwt beam="2">  1        2 0.35194757E+00 0.62220697E+03</pdfrwt>
<totfact> 0.59977223E+00</totfact>
</mgrwt>
</event>
<event>
 5    1  0.2354746E-004  0.6318621E+03  0.7818608E-02  0.9841422E-01
         13   -1    0    0    0    0  0.00000000000E+00  0.00000000000E+00  0.10000000000E+04  0.10000000000E+04  0.00000000000E+00 0. -1.
          2   -1    0    0  501    0 -0.00000000000E+00 -0.00000000000E+00 -0.99812441232E+02  0.99812441232E+02  0.00000000000E+00 0. -1.
    9000006    2    1    2  501    0  0.00000000000E+00  0.00000000000E+00  0.90018755877E+03  0.10998124412E+04  0.63186214076E+03 0.  0.
         13    1    3    3    0    0  0.27922120298E+03 -0.13080584648E+03  0.33028620685E+03  0.45184469467E+03  0.00000000000E+00 0. -1.
          4    1    3    3  501    0 -0.27922120298E+03  0.13080584648E+03  0.56990135191E+03  0.64796774656E+03  0.00000000000E+00 0. -1.
<mgrwt>
<rscale>  0 0.63186214E+03</rscale>
<asrwt>0</asrwt>
<pdfrwt beam="1">0</pdfrwt>
<pdfrwt beam="2">  1        2 0.36295510E+00 0.63186214E+03</pdfrwt>
<totfact> 0.54662738E+00</totfact>
</mgrwt>
</event>
<event>
 5    1  0.2354746E-004  0.6658130E+03  0.7818608E-02  0.9777551E-01
         13   -1    0    0    0    0  0.00000000000E+00  0.00000000000E+00  0.10000000000E+04  0.10000000000E+04  0.00000000000E+00 0. -1.
          2   -1    0    0  501    0 -0.00000000000E+00 -0.00000000000E+00 -0.11082673150E+03  0.11082673150E+03  0.00000000000E+00 0. -1.
    9000006    2    1    2  501    0  0.00000000000E+00  0.00000000000E+00  0.88917326850E+03  0.11108267315E+04  0.66581298125E+03 0.  0.
         13    1    3    3    0    0 -0.13664471406E+03  0.19309597043E+03  0.53784263063E+02  0.24259138202E+03  0.00000000000E+00 0. -1.
          2    1    3    3  501    0  0.13664471406E+03 -0.19309597043E+03  0.83538900544E+03  0.86823534948E+03  0.00000000000E+00 0. -1.
<mgrwt>
<rscale>  0 0.66581298E+03</rscale>
<asrwt>0</asrwt>
<pdfrwt beam="1">0</pdfrwt>
<pdfrwt beam="2">  1        2 0.40300715E+00 0.66581298E+03</pdfrwt>
<totfact> 0.38757316E+00</totfact>
</mgrwt>
</event>
<event>
 5    1  0.2354746E-004  0.6524119E+03  0.7818608E-02  0.9802264E-01
         13   -1    0    0    0    0  0.00000000000E+00  0.00000000000E+00  0.10000000000E+04  0.10000000000E+04  0.00000000000E+00 0. -1.
          2   -1    0    0  501    0 -0.00000000000E+00 -0.00000000000E+00 -0.10641031303E+03  0.10641031303E+03  0.00000000000E+00 0. -1.
    9000006    2    1    2  501    0  0.00000000000E+00  0.00000000000E+00  0.89358968697E+03  0.11064103130E+04  0.65241187306E+03 0.  0.
         13    1    3    3    0    0 -0.22410036272E+02  0.30594061847E+03  0.25864845424E+03  0.40124916777E+03  0.00000000000E+00 0. -1.
          4    1    3    3  501    0  0.22410036272E+02 -0.30594061847E+03  0.63494123273E+03  0.70516114525E+03  0.00000000000E+00 0. -1.
<mgrwt>
<rscale>  0 0.65241187E+03</rscale>
<asrwt>0</asrwt>
<pdfrwt beam="1">0</pdfrwt>
<pdfrwt beam="2">  1        2 0.38694741E+00 0.65241187E+03</pdfrwt>
<totfact> 0.44545387E+00</totfact>
</mgrwt>
</event>
<event>
 5    1  0.2354746E-004  0.6371246E+03  0.7818608E-02  0.9831244E-01
         13   -1    0    0    0    0  0.00000000000E+00  0.00000000000E+00  0.10000000000E+04  0.10000000000E+04  0.00000000000E+00 0. -1.
          2   -1    0    0  501    0 -0.00000000000E+00 -0.00000000000E+00 -0.10148192348E+03  0.10148192348E+03  0.00000000000E+00 0. -1.
    9000006    2    1    2  501    0  0.00000000000E+00  0.00000000000E+00  0.89851807652E+03  0.11014819235E+04  0.63712455133E+03 0.  0.
         13    1    3    3    0    0 -0.30303743448E+03  0.98137045889E+02  0.44165276180E+03  0.54453625084E+03  0.00000000000E+00 0. -1.
          2    1    3    3  501    0  0.30303743448E+03 -0.98137045889E+02  0.45686531473E+03  0.55694567264E+03  0.00000000000E+00 0. -1.
<mgrwt>
<rscale>  0 0.63712455E+03</rscale>
<asrwt>0</asrwt>
<pdfrwt beam="1">0</pdfrwt>
<pdfrwt beam="2">  1        2 0.36902595E+00 0.63712455E+03</pdfrwt>
<totfact> 0.51921221E+00</totfact>
</mgrwt>
</event>
<event>
 5    1  0.2354746E-004  0.6421304E+03  0.7818608E-02  0.9821659E-01
         13   -1    0    0    0    0  0.00000000000E+00  0.00000000000E+00  0.10000000000E+04  0.10000000000E+04  0.00000000000E+00 0. -1.
          2   -1    0    0  501    0 -0.00000000000E+00 -0.00000000000E+00 -0.10308287221E+03  0.10308287221E+03  0.00000000000E+00 0. -1.
    9000006    2    1    2  501    0  0.00000000000E+00  0.00000000000E+00  0.89691712779E+03  0.11030828722E+04  0.64213042978E+03 0.  0.
         13    1    3    3    0    0 -0.11582258769E+03  0.26804431422E+03  0.67777846075E+03  0.73800153663E+03  0.00000000000E+00 0. -1.
          4    1    3    3  501    0  0.11582258769E+03 -0.26804431422E+03  0.21913866703E+03  0.36508133559E+03  0.00000000000E+00 0. -1.
<mgrwt>
<rscale>  0 0.64213043E+03</rscale>
<asrwt>0</asrwt>
<pdfrwt beam="1">0</pdfrwt>
<pdfrwt beam="2">  1        2 0.37484760E+00 0.64213043E+03</pdfrwt>
<totfact> 0.49411278E+00</totfact>
</mgrwt>
</event>
<event>
 5    1  0.2354746E-004  0.6595482E+03  0.7818608E-02  0.9789026E-01
         13   -1    0    0    0    0  0.00000000000E+00  0.00000000000E+00  0.10000000000E+04  0.10000000000E+04  0.00000000000E+00 0. -1.
          2   -1    0    0  501    0 -0.00000000000E+00 -0.00000000000E+00 -0.10875095286E+03  0.10875095286E+03  0.00000000000E+00 0. -1.
    9000006    2    1    2  501    0  0.00000000000E+00  0.00000000000E+00  0.89124904714E+03  0.11087509529E+04  0.65954818737E+03 0.  0.
         13    1    3    3    0    0  0.15013252339E+03 -0.28147863357E+03  0.30516701505E+03  0.44147129330E+03  0.00000000000E+00 0. -1.
          4    1    3    3  501    0 -0.15013252339E+03  0.28147863357E+03  0.58608203209E+03  0.66727965957E+03  0.00000000000E+00 0. -1.
<mgrwt>
<rscale>  0 0.65954819E+03</rscale>
<asrwt>0</asrwt>
<pdfrwt beam="1">0</pdfrwt>
<pdfrwt beam="2">  1        2 0.39545884E+00 0.65954819E+03</pdfrwt>
<totfact> 0.41387434E+00</totfact>
</mgrwt>
</event>
<event>
 5    1  0.2354746E-004  0.6479203E+03  0.7818608E-02  0.9810689E-01
         13   -1    0    0    0    0  0.00000000000E+00  0.00000000000E+00  0.10000000000E+04  0.10000000000E+04  0.00000000000E+00 0. -1.
          2   -1    0    0  501    0 -0.00000000000E+00 -0.00000000000E+00 -0.10495019240E+03  0.10495019240E+03  0.00000000000E+00 0. -1.
    9000006    2    1    2  501    0  0.00000000000E+00  0.00000000000E+00  0.89504980760E+03  0.11049501924E+04  0.64792034201E+03 0.  0.
         13    1    3    3    0    0  0.19105988305E+03 -0.26974258779E+02  0.37370599307E+01  0.19299081627E+03  0.00000000000E+00 0. -1.
          2    1    3    3  501    0 -0.19105988305E+03  0.26974258779E+02  0.89131274767E+03  0.91195937613E+03  0.00000000000E+00 0. -1.
<mgrwt>
<rscale>  0 0.64792034E+03</rscale>
<asrwt>0</asrwt>
<pdfrwt beam="1">0</pdfrwt>
<pdfrwt beam="2">  1        2 0.38163787E+00 0.64792034E+03</pdfrwt>
<totfact> 0.46624219E+00</totfact>
</mgrwt>
</event>
<event>
 5    1  0.2354746E-004  0.6553385E+03  0.7818608E-02  0.9796813E-01
         13   -1    0    0    0    0  0.00000000000E+00  0.00000000000E+00  0.10000000000E+04  0.10000000000E+04  0.00000000000E+00 0. -1.
          2   -1    0    0  501    0 -0.00000000000E+00 -0.00000000000E+00 -0.10736714670E+03  0.10736714670E+03  0.00000000000E+00 0. -1.
    9000006    2    1    2  501    0  0.00000000000E+00  0.00000000000E+00  0.89263285330E+03  0.11073671467E+04  0.65533852838E+03 0.  0.
         13    1    3    3    0    0 -0.15676575283E+03 -0.12884075049E+03  0.11578307669E+02  0.20324737994E+03  0.00000000000E+00 0. -1.
          4    1    3    3  501    0  0.15676575283E+03  0.12884075049E+03  0.88105454564E+03  0.90411976675E+03  0.00000000000E+00 0. -1.
<mgrwt>
<rscale>  0 0.65533853E+03</rscale>
<asrwt>0</asrwt>
<pdfrwt beam="1">0</pdfrwt>
<pdfrwt beam="2">  1        2 0.39042681E+00 0.65533853E+03</pdfrwt>
<totfact> 0.43229033E+00</totfact>
</mgrwt>
</event>
<event>
 5    1  0.2354746E-004  0.6445929E+03  0.7818608E-02  0.9816979E-01
         13   -1    0    0    0    0  0.00000000000E+00  0.00000000000E+00  0.10000000000E+04  0.10000000000E+04  0.00000000000E+00 0. -1.
          2   -1    0    0  501    0 -0.00000000000E+00 -0.00000000000E+00 -0.10387499242E+03  0.10387499242E+03  0.00000000000E+00 0. -1.
    9000006    2    1    2  501    0  0.00000000000E+00  0.00000000000E+00  0.89612500758E+03  0.11038749924E+04  0.64459287126E+03 0.  0.
         13    1    3    3    0    0  0.12761625366E+03  0.52007387992E+02  0.94700227417E+03  0.95697648032E+03  0.00000000000E+00 0. -1.
          2    1    3    3  501    0 -0.12761625366E+03 -0.52007387992E+02 -0.50877266587E+02  0.14689851210E+03  0.00000000000E+00 0. -1.
<mgrwt>
<rscale>  0 0.64459287E+03</rscale>
<asrwt>0</asrwt>
<pdfrwt beam="1">0</pdfrwt>
<pdfrwt beam="2">  1        2 0.37772804E+00 0.64459287E+03</pdfrwt>
<totfact> 0.48210958E+00</totfact>
</mgrwt>
</event>
<event>
 5    1  0.2354746E-004  0.6454614E+03  0.7818608E-02  0.9815333E-01
         13   -1    0    0    0    0  0.00000000000E+00  0.00000000000E+00  0.10000000000E+04  0.10000000000E+04  0.00000000000E+00 0. -1.
          2   -1    0    0  501    0 -0.00000000000E+00 -0.00000000000E+00 -0.10415509183E+03  0.10415509183E+03  0.00000000000E+00 0. -1.
    9000006    2    1    2  501    0  0.00000000000E+00  0.00000000000E+00  0.89584490817E+03  0.11041550918E+04  0.64546136005E+03 0.  0.
         13    1    3    3    0    0  0.14977663031E+03  0.20941755184E+01 -0.41087625672E+02  0.15532423360E+03  0.00000000000E+00 0. -1.
          2    1    3    3  501    0 -0.14977663031E+03 -0.20941755184E+01  0.93693253384E+03  0.94883085823E+03  0.00000000000E+00 0. -1.
<mgrwt>
<rscale>  0 0.64546136E+03</rscale>
<asrwt>0</asrwt>
<pdfrwt beam="1">0</pdfrwt>
<pdfrwt beam="2">  1        2 0.37874659E+00 0.64546136E+03</pdfrwt>
<totfact> 0.47792930E+00</totfact>
</mgrwt>
</event>
<event>
 5    1  0.2354746E-004  0.6522970E+03  0.7818608E-02  0.9802479E-01
         13   -1    0    0    0    0  0.00000000000E+00  0.00000000000E+00  0.10000000000E+04  0.10000000000E+04  0.00000000000E+00 0. -1.
          2   -1    0    0  501    0 -0.00000000000E+00 -0.00000000000E+00 -0.10637283732E+03  0.10637283732E+03  0.00000000000E+00 0. -1.
    9000006    2    1    2  501    0  0.00000000000E+00  0.00000000000E+00  0.89362716268E+03  0.11063728373E+04  0.65229697935E+03 0.  0.
         13    1    3    3    0    0  0.30957570359E+03 -0.47362452166E+02  0.60126765956E+03  0.67794034882E+03  0.00000000000E+00 0. -1.
          2    1    3    3  501    0 -0.30957570359E+03  0.47362452166E+02  0.29235950313E+03  0.42843248850E+03  0.00000000000E+00 0. -1.
<mgrwt>
<rscale>  0 0.65229698E+03</rscale>
<asrwt>0</asrwt>
<pdfrwt beam="1">0</pdfrwt>
<pdfrwt beam="2">  1        2 0.38681113E+00 0.65229698E+03</pdfrwt>
<totfact> 0.44597674E+00</totfact>
</mgrwt>
</event>
<event>
 5    1  0.2354746E-004  0.6438298E+03  0.7818608E-02  0.9818426E-01
         13   -1    0    0    0    0  0.00000000000E+00  0.00000000000E+00  0.10000000000E+04  0.10000000000E+04  0.00000000000E+00 0. -1.
          2   -1    0    0  501    0 -0.00000000000E+00 -0.00000000000E+00 -0.10362920347E+03  0.10362920347E+03  0.00000000000E+00 0. -1.
    9000006    2    1    2  501    0  0.00000000000E+00  0.00000000000E+00  0.89637079653E+03  0.11036292035E+04  0.64382980195E+03 0.  0.
         13    1    3    3    0    0 -0.18285318195E+03  0.26445970019E+03  0.42081325376E+03  0.52958286766E+03  0.00000000000E+00 0. -1.
          4    1    3    3  501    0  0.18285318195E+03 -0.26445970019E+03  0.47555754277E+03  0.57404633581E+03  0.00000000000E+00 0. -1.
<mgrwt>
<rscale>  0 0.64382980E+03</rscale>
<asrwt>0</asrwt>
<pdfrwt beam="1">0</pdfrwt>
<pdfrwt beam="2">  1        2 0.37683426E+00 0.64382980E+03</pdfrwt>
<totfact> 0.48580522E+00</totfact>
</mgrwt>
</event>
<event>
 5    1  0.2354746E-004  0.6349303E+03  0.7818608E-02  0.9835475E-01
         13   -1    0    0    0    0  0.00000000000E+00  0.00000000000E+00  0.10000000000E+04  0.10000000000E+04  0.00000000000E+00 0. -1.
          2   -1    0    0  501    0 -0.00000000000E+00 -0.00000000000E+00 -0.10078412430E+03  0.10078412430E+03  0.00000000000E+00 0. -1.
    9000006    2    1    2  501    0  0.00000000000E+00  0.00000000000E+00  0.89921587570E+03  0.11007841243E+04  0.63493030893E+03 0.  0.
         13    1    3    3    0    0  0.33531663872E+02  0.26312453281E+03  0.14720009651E+03  0.30335912820E+03  0.00000000000E+00 0. -1.
          4    1    3    3  501    0 -0.33531663872E+02 -0.26312453281E+03  0.75201577919E+03  0.79742499610E+03  0.00000000000E+00 0. -1.
<mgrwt>
<rscale>  0 0.63493031E+03</rscale>
<asrwt>0</asrwt>
<pdfrwt beam="1">0</pdfrwt>
<pdfrwt beam="2">  1        2 0.36648850E+00 0.63493031E+03</pdfrwt>
<totfact> 0.53051349E+00</totfact>
</mgrwt>
</event>
<event>
 5    1  0.2354746E-004  0.6415709E+03  0.7818608E-02  0.9822726E-01
         13   -1    0    0    0    0  0.00000000000E+00  0.00000000000E+00  0.10000000000E+04  0.10000000000E+04  0.00000000000E+00 0. -1.
          2   -1    0    0  501    0 -0.00000000000E+00 -0.00000000000E+00 -0.10290332043E+03  0.10290332043E+03  0.00000000000E+00 0. -1.
    9000006    2    1    2  501    0  0.00000000000E+00  0.00000000000E+00  0.89709667957E+03  0.11029033204E+04  0.64157094831E+03 0.  0.
         13    1    3    3    0    0  0.21937013845E+03 -0.13222074598E+03  0.78054521499E+03  0.82149644915E+03  0.00000000000E+00 0. -1.
          2    1    3    3  501    0 -0.21937013845E+03  0.13222074598E+03  0.11655146458E+03  0.28140687128E+03  0.00000000000E+00 0. -1.
<mgrwt>
<rscale>  0 0.64157095E+03</rscale>
<asrwt>0</asrwt>
<pdfrwt beam="1">0</pdfrwt>
<pdfrwt beam="2">  1        2 0.37419468E+00 0.64157095E+03</pdfrwt>
<totfact> 0.49687142E+00</totfact>
</mgrwt>
</event>
<event>
 5    1  0.2354746E-004  0.6814590E+03  0.7818608E-02  0.9749476E-01
         13   -1    0    0    0    0  0.00000000000E+00  0.00000000000E+00  0.10000000000E+04  0.10000000000E+04  0.00000000000E+00 0. -1.
          2   -1    0    0  501    0 -0.00000000000E+00 -0.00000000000E+00 -0.11609659377E+03  0.11609659377E+03  0.00000000000E+00 0. -1.
    9000006    2    1    2  501    0  0.00000000000E+00  0.00000000000E+00  0.88390340623E+03  0.11160965938E+04  0.68145900469E+03 0.  0.
         13    1    3    3    0    0  0.38829413172E+02 -0.19344835529E+03  0.89691539860E+03  0.91836116084E+03  0.00000000000E+00 0. -1.
          4    1    3    3  501    0 -0.38829413172E+02  0.19344835529E+03 -0.13011992364E+02  0.19773543293E+03  0.00000000000E+00 0. -1.
<mgrwt>
<rscale>  0 0.68145900E+03</rscale>
<asrwt>0</asrwt>
<pdfrwt beam="1">0</pdfrwt>
<pdfrwt beam="2">  1        2 0.42217032E+00 0.68145900E+03</pdfrwt>
<totfact> 0.32738738E+00</totfact>
</mgrwt>
</event>
<event>
 5    1  0.2354746E-004  0.6268824E+03  0.7818608E-02  0.9851152E-01
         13   -1    0    0    0    0  0.00000000000E+00  0.00000000000E+00  0.10000000000E+04  0.10000000000E+04  0.00000000000E+00 0. -1.
          2   -1    0    0  501    0 -0.00000000000E+00 -0.00000000000E+00 -0.98245379379E+02  0.98245379379E+02  0.00000000000E+00 0. -1.
    9000006    2    1    2  501    0  0.00000000000E+00  0.00000000000E+00  0.90175462062E+03  0.10982453794E+04  0.62688237933E+03 0.  0.
         13    1    3    3    0    0  0.65585962267E+02  0.10503325640E+03  0.95533145301E+03  0.96332325234E+03  0.00000000000E+00 0. -1.
          4    1    3    3  501    0 -0.65585962267E+02 -0.10503325640E+03 -0.53576832386E+02  0.13492212704E+03  0.00000000000E+00 0. -1.
<mgrwt>
<rscale>  0 0.62688238E+03</rscale>
<asrwt>0</asrwt>
<pdfrwt beam="1">0</pdfrwt>
<pdfrwt beam="2">  1        2 0.35725668E+00 0.62688238E+03</pdfrwt>
<totfact> 0.57356833E+00</totfact>
</mgrwt>
</event>
<event>
 5    1  0.2354746E-004  0.6499091E+03  0.7818608E-02  0.9806950E-01
         13   -1    0    0    0    0  0.00000000000E+00  0.00000000000E+00  0.10000000000E+04  0.10000000000E+04  0.00000000000E+00 0. -1.
          2   -1    0    0  501    0 -0.00000000000E+00 -0.00000000000E+00 -0.10559544714E+03  0.10559544714E+03  0.00000000000E+00 0. -1.
    9000006    2    1    2  501    0  0.00000000000E+00  0.00000000000E+00  0.89440455286E+03  0.11055954471E+04  0.64990906175E+03 0.  0.
         13    1    3    3    0    0 -0.85345441803E+02  0.19155923608E+03  0.86947471089E+03  0.89440765775E+03  0.00000000000E+00 0. -1.
          2    1    3    3  501    0  0.85345441803E+02 -0.19155923608E+03  0.24929841978E+02  0.21118778939E+03  0.00000000000E+00 0. -1.
<mgrwt>
<rscale>  0 0.64990906E+03</rscale>
<asrwt>0</asrwt>
<pdfrwt beam="1">0</pdfrwt>
<pdfrwt beam="2">  1        2 0.38398425E+00 0.64990906E+03</pdfrwt>
<totfact> 0.45694929E+00</totfact>
</mgrwt>
</event>
<event>
 5    1  0.2354746E-004  0.6655894E+03  0.7818608E-02  0.9777959E-01
         13   -1    0    0    0    0  0.00000000000E+00  0.00000000000E+00  0.10000000000E+04  0.10000000000E+04  0.00000000000E+00 0. -1.
          2   -1    0    0  501    0 -0.00000000000E+00 -0.00000000000E+00 -0.11075230999E+03  0.11075230999E+03  0.00000000000E+00 0. -1.
    9000006    2    1    2  501    0  0.00000000000E+00  0.00000000000E+00  0.88924769001E+03  0.11107523100E+04  0.66558939292E+03 0.  0.
         13    1    3    3    0    0  0.15675979473E+03  0.17638736743E+03  0.53014288259E+02  0.24186080995E+03  0.00000000000E+00 0. -1.
          4    1    3    3  501    0 -0.15675979473E+03 -0.17638736743E+03  0.83623340175E+03  0.86889150004E+03  0.00000000000E+00 0. -1.
<mgrwt>
<rscale>  0 0.66558939E+03</rscale>
<asrwt>0</asrwt>
<pdfrwt beam="1">0</pdfrwt>
<pdfrwt beam="2">  1        2 0.40273652E+00 0.66558939E+03</pdfrwt>
<totfact> 0.38848954E+00</totfact>
</mgrwt>
</event>
<event>
 5    1  0.2354746E-004  0.5464308E+03  0.7818608E-02  0.1002323E+00
         13   -1    0    0    0    0  0.00000000000E+00  0.00000000000E+00  0.10000000000E+04  0.10000000000E+04  0.00000000000E+00 0. -1.
          2   -1    0    0  501    0 -0.00000000000E+00 -0.00000000000E+00 -0.74646660516E+02  0.74646660516E+02  0.00000000000E+00 0. -1.
    9000006    2    1    2  501    0  0.00000000000E+00  0.00000000000E+00  0.92535333948E+03  0.10746466605E+04  0.54643082093E+03 0.  0.
         13    1    3    3    0    0  0.19934073521E+02 -0.81476862056E+02 -0.48697266396E+02  0.96991082538E+02  0.00000000000E+00 0. -1.
          2    1    3    3  501    0 -0.19934073521E+02  0.81476862056E+02  0.97405060588E+03  0.97765557798E+03  0.00000000000E+00 0. -1.
<mgrwt>
<rscale>  0 0.54643082E+03</rscale>
<asrwt>0</asrwt>
<pdfrwt beam="1">0</pdfrwt>
<pdfrwt beam="2">  1        2 0.27144297E+00 0.54643082E+03</pdfrwt>
<totfact> 0.11678738E+01</totfact>
</mgrwt>
</event>
<event>
 5    1  0.2354746E-004  0.6487746E+03  0.7818608E-02  0.9809081E-01
         13   -1    0    0    0    0  0.00000000000E+00  0.00000000000E+00  0.10000000000E+04  0.10000000000E+04  0.00000000000E+00 0. -1.
          2   -1    0    0  501    0 -0.00000000000E+00 -0.00000000000E+00 -0.10522712712E+03  0.10522712712E+03  0.00000000000E+00 0. -1.
    9000006    2    1    2  501    0  0.00000000000E+00  0.00000000000E+00  0.89477287288E+03  0.11052271271E+04  0.64877462072E+03 0.  0.
         13    1    3    3    0    0 -0.61590927722E+01 -0.25077390093E+03  0.79776401173E+03  0.83627322224E+03  0.00000000000E+00 0. -1.
          4    1    3    3  501    0  0.61590927722E+01  0.25077390093E+03  0.97008861143E+02  0.26895390489E+03  0.00000000000E+00 0. -1.
<mgrwt>
<rscale>  0 0.64877462E+03</rscale>
<asrwt>0</asrwt>
<pdfrwt beam="1">0</pdfrwt>
<pdfrwt beam="2">  1        2 0.38264491E+00 0.64877462E+03</pdfrwt>
<totfact> 0.46223298E+00</totfact>
</mgrwt>
</event>
<event>
 5    1  0.2354746E-004  0.6462379E+03  0.7818608E-02  0.9813864E-01
         13   -1    0    0    0    0  0.00000000000E+00  0.00000000000E+00  0.10000000000E+04  0.10000000000E+04  0.00000000000E+00 0. -1.
          2   -1    0    0  501    0 -0.00000000000E+00 -0.00000000000E+00 -0.10440585220E+03  0.10440585220E+03  0.00000000000E+00 0. -1.
    9000006    2    1    2  501    0  0.00000000000E+00  0.00000000000E+00  0.89559414780E+03  0.11044058522E+04  0.64623788870E+03 0.  0.
         13    1    3    3    0    0  0.97940729272E+01 -0.18183895692E+03  0.90395163429E+03  0.92211164577E+03  0.00000000000E+00 0. -1.
          2    1    3    3  501    0 -0.97940729272E+01  0.18183895692E+03 -0.83574864887E+01  0.18229420643E+03  0.00000000000E+00 0. -1.
<mgrwt>
<rscale>  0 0.64623789E+03</rscale>
<asrwt>0</asrwt>
<pdfrwt beam="1">0</pdfrwt>
<pdfrwt beam="2">  1        2 0.37965844E+00 0.64623789E+03</pdfrwt>
<totfact> 0.47421494E+00</totfact>
</mgrwt>
</event>
<event>
 5    1  0.2354746E-004  0.6343002E+03  0.7818608E-02  0.9836693E-01
         13   -1    0    0    0    0  0.00000000000E+00  0.00000000000E+00  0.10000000000E+04  0.10000000000E+04  0.00000000000E+00 0. -1.
          2   -1    0    0  501    0 -0.00000000000E+00 -0.00000000000E+00 -0.10058417655E+03  0.10058417655E+03  0.00000000000E+00 0. -1.
    9000006    2    1    2  501    0  0.00000000000E+00  0.00000000000E+00  0.89941582345E+03  0.11005841765E+04  0.63430017041E+03 0.  0.
         13    1    3    3    0    0  0.74582236582E+02 -0.22186590112E+03  0.82102748692E+03  0.85374066459E+03  0.00000000000E+00 0. -1.
          4    1    3    3  501    0 -0.74582236582E+02  0.22186590112E+03  0.78388336536E+02  0.24684351196E+03  0.00000000000E+00 0. -1.
<mgrwt>
<rscale>  0 0.63430017E+03</rscale>
<asrwt>0</asrwt>
<pdfrwt beam="1">0</pdfrwt>
<pdfrwt beam="2">  1        2 0.36576141E+00 0.63430017E+03</pdfrwt>
<totfact> 0.53379316E+00</totfact>
</mgrwt>
</event>
<event>
 5    1  0.2354746E-004  0.6548443E+03  0.7818608E-02  0.9797731E-01
         13   -1    0    0    0    0  0.00000000000E+00  0.00000000000E+00  0.10000000000E+04  0.10000000000E+04  0.00000000000E+00 0. -1.
          2   -1    0    0  501    0 -0.00000000000E+00 -0.00000000000E+00 -0.10720525517E+03  0.10720525517E+03  0.00000000000E+00 0. -1.
    9000006    2    1    2  501    0  0.00000000000E+00  0.00000000000E+00  0.89279474483E+03  0.11072052552E+04  0.65484427208E+03 0.  0.
         13    1    3    3    0    0 -0.25789359159E+03  0.16838064585E+03  0.25854357710E+03  0.40212675582E+03  0.00000000000E+00 0. -1.
          4    1    3    3  501    0  0.25789359159E+03 -0.16838064585E+03  0.63425116773E+03  0.70507849935E+03  0.00000000000E+00 0. -1.
<mgrwt>
<rscale>  0 0.65484427E+03</rscale>
<asrwt>0</asrwt>
<pdfrwt beam="1">0</pdfrwt>
<pdfrwt beam="2">  1        2 0.38983811E+00 0.65484427E+03</pdfrwt>
<totfact> 0.43449251E+00</totfact>
</mgrwt>
</event>
<event>
 5    1  0.2354746E-004  0.6424162E+03  0.7818608E-02  0.9821115E-01
         13   -1    0    0    0    0  0.00000000000E+00  0.00000000000E+00  0.10000000000E+04  0.10000000000E+04  0.00000000000E+00 0. -1.
          2   -1    0    0  501    0 -0.00000000000E+00 -0.00000000000E+00 -0.10317465209E+03  0.10317465209E+03  0.00000000000E+00 0. -1.
    9000006    2    1    2  501    0  0.00000000000E+00  0.00000000000E+00  0.89682534791E+03  0.11031746521E+04  0.64241622671E+03 0.  0.
         13    1    3    3    0    0 -0.87927509213E+02  0.65706532474E+02 -0.69968309344E+02  0.13016973380E+03  0.00000000000E+00 0. -1.
          2    1    3    3  501    0  0.87927509213E+02 -0.65706532474E+02  0.96679365726E+03  0.97300491828E+03  0.00000000000E+00 0. -1.
<mgrwt>
<rscale>  0 0.64241623E+03</rscale>
<asrwt>0</asrwt>
<pdfrwt beam="1">0</pdfrwt>
<pdfrwt beam="2">  1        2 0.37518134E+00 0.64241623E+03</pdfrwt>
<totfact> 0.49270808E+00</totfact>
</mgrwt>
</event>
<event>
 5    1  0.2354746E-004  0.6466416E+03  0.7818608E-02  0.9813101E-01
         13   -1    0    0    0    0  0.00000000000E+00  0.00000000000E+00  0.10000000000E+04  0.10000000000E+04  0.00000000000E+00 0. -1.
          2   -1    0    0  501    0 -0.00000000000E+00 -0.00000000000E+00 -0.10453633580E+03  0.10453633580E+03  0.00000000000E+00 0. -1.
    9000006    2    1    2  501    0  0.00000000000E+00  0.00000000000E+00  0.89546366420E+03  0.11045363358E+04  0.64664158789E+03 0.  0.
         13    1    3    3    0    0  0.19643529519E+03  0.62128782160E+02  0.87335527842E+03  0.89732728317E+03  0.00000000000E+00 0. -1.
          2    1    3    3  501    0 -0.19643529519E+03 -0.62128782160E+02  0.22108385784E+02  0.20720905263E+03  0.00000000000E+00 0. -1.
<mgrwt>
<rscale>  0 0.64664159E+03</rscale>
<asrwt>0</asrwt>
<pdfrwt beam="1">0</pdfrwt>
<pdfrwt beam="2">  1        2 0.38013293E+00 0.64664159E+03</pdfrwt>
<totfact> 0.47229257E+00</totfact>
</mgrwt>
</event>
<event>
 5    1  0.2354746E-004  0.6562705E+03  0.7818608E-02  0.9795084E-01
         13   -1    0    0    0    0  0.00000000000E+00  0.00000000000E+00  0.10000000000E+04  0.10000000000E+04  0.00000000000E+00 0. -1.
          2   -1    0    0  501    0 -0.00000000000E+00 -0.00000000000E+00 -0.10767272965E+03  0.10767272965E+03  0.00000000000E+00 0. -1.
    9000006    2    1    2  501    0  0.00000000000E+00  0.00000000000E+00  0.89232727035E+03  0.11076727297E+04  0.65627046147E+03 0.  0.
         13    1    3    3    0    0  0.16907718065E+03 -0.88841045231E+02  0.89651031443E+03  0.91663000618E+03  0.00000000000E+00 0. -1.
          2    1    3    3  501    0 -0.16907718065E+03  0.88841045231E+02 -0.41830440847E+01  0.19104272347E+03  0.00000000000E+00 0. -1.
<mgrwt>
<rscale>  0 0.65627046E+03</rscale>
<asrwt>0</asrwt>
<pdfrwt beam="1">0</pdfrwt>
<pdfrwt beam="2">  1        2 0.39153802E+00 0.65627046E+03</pdfrwt>
<totfact> 0.42816101E+00</totfact>
</mgrwt>
</event>
<event>
 5    1  0.2354746E-004  0.6154176E+03  0.7818608E-02  0.9873926E-01
         13   -1    0    0    0    0  0.00000000000E+00  0.00000000000E+00  0.10000000000E+04  0.10000000000E+04  0.00000000000E+00 0. -1.
          2   -1    0    0  501    0 -0.00000000000E+00 -0.00000000000E+00 -0.94684710837E+02  0.94684710837E+02  0.00000000000E+00 0. -1.
    9000006    2    1    2  501    0  0.00000000000E+00  0.00000000000E+00  0.90531528916E+03  0.10946847108E+04  0.61541761703E+03 0.  0.
         13    1    3    3    0    0 -0.17196848657E+03 -0.24999452662E+03  0.54360619266E+03  0.62255772135E+03  0.00000000000E+00 0. -1.
          4    1    3    3  501    0  0.17196848657E+03  0.24999452662E+03  0.36170909650E+03  0.47212698949E+03  0.00000000000E+00 0. -1.
<mgrwt>
<rscale>  0 0.61541762E+03</rscale>
<asrwt>0</asrwt>
<pdfrwt beam="1">0</pdfrwt>
<pdfrwt beam="2">  1        2 0.34430877E+00 0.61541762E+03</pdfrwt>
<totfact> 0.63943393E+00</totfact>
</mgrwt>
</event>
<event>
 5    1  0.2354746E-004  0.6661957E+03  0.7818608E-02  0.9776855E-01
         13   -1    0    0    0    0  0.00000000000E+00  0.00000000000E+00  0.10000000000E+04  0.10000000000E+04  0.00000000000E+00 0. -1.
          2   -1    0    0  501    0 -0.00000000000E+00 -0.00000000000E+00 -0.11095418872E+03  0.11095418872E+03  0.00000000000E+00 0. -1.
    9000006    2    1    2  501    0  0.00000000000E+00  0.00000000000E+00  0.88904581128E+03  0.11109541887E+04  0.66619573315E+03 0.  0.
         13    1    3    3    0    0  0.22557180601E+03  0.24462859556E+03  0.46972529267E+03  0.57564541170E+03  0.00000000000E+00 0. -1.
          4    1    3    3  501    0 -0.22557180601E+03 -0.24462859556E+03  0.41932051861E+03  0.53530877702E+03  0.00000000000E+00 0. -1.
<mgrwt>
<rscale>  0 0.66619573E+03</rscale>
<asrwt>0</asrwt>
<pdfrwt beam="1">0</pdfrwt>
<pdfrwt beam="2">  1        2 0.40347063E+00 0.66619573E+03</pdfrwt>
<totfact> 0.38600822E+00</totfact>
</mgrwt>
</event>
<event>
 5    1  0.2354746E-004  0.6469221E+03  0.7818608E-02  0.9812572E-01
         13   -1    0    0    0    0  0.00000000000E+00  0.00000000000E+00  0.10000000000E+04  0.10000000000E+04  0.00000000000E+00 0. -1.
          2   -1    0    0  501    0 -0.00000000000E+00 -0.00000000000E+00 -0.10462703740E+03  0.10462703740E+03  0.00000000000E+00 0. -1.
    9000006    2    1    2  501    0  0.00000000000E+00  0.00000000000E+00  0.89537296260E+03  0.11046270374E+04  0.64692205836E+03 0.  0.
         13    1    3    3    0    0 -0.24130153878E+03 -0.24802744176E+02  0.82321136653E+02  0.25616084454E+03  0.00000000000E+00 0. -1.
          4    1    3    3  501    0  0.24130153878E+03  0.24802744176E+02  0.81305182595E+03  0.84846619285E+03  0.00000000000E+00 0. -1.
<mgrwt>
<rscale>  0 0.64692206E+03</rscale>
<asrwt>0</asrwt>
<pdfrwt beam="1">0</pdfrwt>
<pdfrwt beam="2">  1        2 0.38046276E+00 0.64692206E+03</pdfrwt>
<totfact> 0.47096048E+00</totfact>
</mgrwt>
</event>
<event>
 5    1  0.2354746E-004  0.6783576E+03  0.7818608E-02  0.9754977E-01
         13   -1    0    0    0    0  0.00000000000E+00  0.00000000000E+00  0.10000000000E+04  0.10000000000E+04  0.00000000000E+00 0. -1.
          2   -1    0    0  501    0 -0.00000000000E+00 -0.00000000000E+00 -0.11504225567E+03  0.11504225567E+03  0.00000000000E+00 0. -1.
    9000006    2    1    2  501    0  0.00000000000E+00  0.00000000000E+00  0.88495774433E+03  0.11150422557E+04  0.67835759203E+03 0.  0.
         13    1    3    3    0    0 -0.22357184757E+02  0.33790705286E+03  0.41123765826E+03  0.53272641351E+03  0.00000000000E+00 0. -1.
          2    1    3    3  501    0  0.22357184757E+02 -0.33790705286E+03  0.47372008607E+03  0.58231584215E+03  0.00000000000E+00 0. -1.
<mgrwt>
<rscale>  0 0.67835759E+03</rscale>
<asrwt>0</asrwt>
<pdfrwt beam="1">0</pdfrwt>
<pdfrwt beam="2">  1        2 0.41833636E+00 0.67835759E+03</pdfrwt>
<totfact> 0.33871465E+00</totfact>
</mgrwt>
</event>
<event>
 5    1  0.2354746E-004  0.6486922E+03  0.7818608E-02  0.9809236E-01
         13   -1    0    0    0    0  0.00000000000E+00  0.00000000000E+00  0.10000000000E+04  0.10000000000E+04  0.00000000000E+00 0. -1.
          2   -1    0    0  501    0 -0.00000000000E+00 -0.00000000000E+00 -0.10520039100E+03  0.10520039100E+03  0.00000000000E+00 0. -1.
    9000006    2    1    2  501    0  0.00000000000E+00  0.00000000000E+00  0.89479960900E+03  0.11052003910E+04  0.64869219510E+03 0.  0.
         13    1    3    3    0    0 -0.30200887397E+03 -0.38422253959E+01  0.24598194679E+03  0.38952694489E+03  0.00000000000E+00 0. -1.
          4    1    3    3  501    0  0.30200887397E+03  0.38422253959E+01  0.64881766221E+03  0.71567344610E+03  0.00000000000E+00 0. -1.
<mgrwt>
<rscale>  0 0.64869220E+03</rscale>
<asrwt>0</asrwt>
<pdfrwt beam="1">0</pdfrwt>
<pdfrwt beam="2">  1        2 0.38254768E+00 0.64869220E+03</pdfrwt>
<totfact> 0.46261867E+00</totfact>
</mgrwt>
</event>
<event>
 5    1  0.2354746E-004  0.6473725E+03  0.7818608E-02  0.9811722E-01
         13   -1    0    0    0    0  0.00000000000E+00  0.00000000000E+00  0.10000000000E+04  0.10000000000E+04  0.00000000000E+00 0. -1.
          2   -1    0    0  501    0 -0.00000000000E+00 -0.00000000000E+00 -0.10477279249E+03  0.10477279249E+03  0.00000000000E+00 0. -1.
    9000006    2    1    2  501    0  0.00000000000E+00  0.00000000000E+00  0.89522720751E+03  0.11047727925E+04  0.64737251251E+03 0.  0.
         13    1    3    3    0    0 -0.18131088328E+03 -0.25011801509E+03  0.61254194183E+03  0.68603227939E+03  0.00000000000E+00 0. -1.
          4    1    3    3  501    0  0.18131088328E+03  0.25011801509E+03  0.28268526568E+03  0.41874051309E+03  0.00000000000E+00 0. -1.
<mgrwt>
<rscale>  0 0.64737251E+03</rscale>
<asrwt>0</asrwt>
<pdfrwt beam="1">0</pdfrwt>
<pdfrwt beam="2">  1        2 0.38099278E+00 0.64737251E+03</pdfrwt>
<totfact> 0.46882701E+00</totfact>
</mgrwt>
</event>
<event>
 5    1  0.2354746E-004  0.6564346E+03  0.7818608E-02  0.9794779E-01
         13   -1    0    0    0    0  0.00000000000E+00  0.00000000000E+00  0.10000000000E+04  0.10000000000E+04  0.00000000000E+00 0. -1.
          2   -1    0    0  501    0 -0.00000000000E+00 -0.00000000000E+00 -0.10772659848E+03  0.10772659848E+03  0.00000000000E+00 0. -1.
    9000006    2    1    2  501    0  0.00000000000E+00  0.00000000000E+00  0.89227340152E+03  0.11077265985E+04  0.65643460749E+03 0.  0.
         13    1    3    3    0    0  0.19261109858E+03  0.44094615153E+02  0.88838529816E+03  0.91009439531E+03  0.00000000000E+00 0. -1.
          2    1    3    3  501    0 -0.19261109858E+03 -0.44094615153E+02  0.38881033589E+01  0.19763220317E+03  0.00000000000E+00 0. -1.
<mgrwt>
<rscale>  0 0.65643461E+03</rscale>
<asrwt>0</asrwt>
<pdfrwt beam="1">0</pdfrwt>
<pdfrwt beam="2">  1        2 0.39173391E+00 0.65643461E+03</pdfrwt>
<totfact> 0.42743679E+00</totfact>
</mgrwt>
</event>
<event>
 5    1  0.2354746E-004  0.5275170E+03  0.7818608E-02  0.1006836E+00
         13   -1    0    0    0    0  0.00000000000E+00  0.00000000000E+00  0.10000000000E+04  0.10000000000E+04  0.00000000000E+00 0. -1.
          2   -1    0    0  501    0 -0.00000000000E+00 -0.00000000000E+00 -0.69568542298E+02  0.69568542298E+02  0.00000000000E+00 0. -1.
    9000006    2    1    2  501    0  0.00000000000E+00  0.00000000000E+00  0.93043145770E+03  0.10695685423E+04  0.52751698474E+03 0.  0.
         13    1    3    3    0    0  0.24062833172E+03  0.48272509040E+02  0.26930425196E+03  0.36435835284E+03  0.00000000000E+00 0. -1.
          4    1    3    3  501    0 -0.24062833172E+03 -0.48272509040E+02  0.66112720574E+03  0.70521018946E+03  0.00000000000E+00 0. -1.
<mgrwt>
<rscale>  0 0.52751698E+03</rscale>
<asrwt>0</asrwt>
<pdfrwt beam="1">0</pdfrwt>
<pdfrwt beam="2">  1        2 0.25297705E+00 0.52751698E+03</pdfrwt>
<totfact> 0.13600307E+01</totfact>
</mgrwt>
</event>
<event>
 5    1  0.2354746E-004  0.6412767E+03  0.7818608E-02  0.9823287E-01
         13   -1    0    0    0    0  0.00000000000E+00  0.00000000000E+00  0.10000000000E+04  0.10000000000E+04  0.00000000000E+00 0. -1.
          2   -1    0    0  501    0 -0.00000000000E+00 -0.00000000000E+00 -0.10280894835E+03  0.10280894835E+03  0.00000000000E+00 0. -1.
    9000006    2    1    2  501    0  0.00000000000E+00  0.00000000000E+00  0.89719105165E+03  0.11028089484E+04  0.64127669021E+03 0.  0.
         13    1    3    3    0    0  0.15346558584E+03  0.44071756887E+02  0.92677017305E+03  0.94042381906E+03  0.00000000000E+00 0. -1.
          4    1    3    3  501    0 -0.15346558584E+03 -0.44071756887E+02 -0.29579121400E+02  0.16238512929E+03  0.00000000000E+00 0. -1.
<mgrwt>
<rscale>  0 0.64127669E+03</rscale>
<asrwt>0</asrwt>
<pdfrwt beam="1">0</pdfrwt>
<pdfrwt beam="2">  1        2 0.37385151E+00 0.64127669E+03</pdfrwt>
<totfact> 0.49832699E+00</totfact>
</mgrwt>
</event>
<event>
 5    1  0.2354746E-004  0.4747486E+03  0.7818608E-02  0.1020588E+00
         13   -1    0    0    0    0  0.00000000000E+00  0.00000000000E+00  0.10000000000E+04  0.10000000000E+04  0.00000000000E+00 0. -1.
          2   -1    0    0  501    0 -0.00000000000E+00 -0.00000000000E+00 -0.56346552767E+02  0.56346552767E+02  0.00000000000E+00 0. -1.
    9000006    2    1    2  501    0  0.00000000000E+00  0.00000000000E+00  0.94365344723E+03  0.10563465528E+04  0.47474857669E+03 0.  0.
         13    1    3    3    0    0  0.11371115306E+03 -0.13863648891E+03  0.12571462318E+03  0.21898508823E+03  0.00000000000E+00 0. -1.
          2    1    3    3  501    0 -0.11371115306E+03  0.13863648891E+03  0.81793882406E+03  0.83736146453E+03  0.00000000000E+00 0. -1.
<mgrwt>
<rscale>  0 0.47474858E+03</rscale>
<asrwt>0</asrwt>
<pdfrwt beam="1">0</pdfrwt>
<pdfrwt beam="2">  1        2 0.20489699E+00 0.47474858E+03</pdfrwt>
<totfact> 0.20366999E+01</totfact>
</mgrwt>
</event>
<event>
 5    1  0.2354746E-004  0.6444954E+03  0.7818608E-02  0.9817163E-01
         13   -1    0    0    0    0  0.00000000000E+00  0.00000000000E+00  0.10000000000E+04  0.10000000000E+04  0.00000000000E+00 0. -1.
          2   -1    0    0  501    0 -0.00000000000E+00 -0.00000000000E+00 -0.10384358927E+03  0.10384358927E+03  0.00000000000E+00 0. -1.
    9000006    2    1    2  501    0  0.00000000000E+00  0.00000000000E+00  0.89615641073E+03  0.11038435893E+04  0.64449542827E+03 0.  0.
         13    1    3    3    0    0  0.63992835572E+02 -0.29864320266E+03  0.27206917458E+03  0.40902870469E+03  0.00000000000E+00 0. -1.
          4    1    3    3  501    0 -0.63992835572E+02  0.29864320266E+03  0.62408723615E+03  0.69481488458E+03  0.00000000000E+00 0. -1.
<mgrwt>
<rscale>  0 0.64449543E+03</rscale>
<asrwt>0</asrwt>
<pdfrwt beam="1">0</pdfrwt>
<pdfrwt beam="2">  1        2 0.37761385E+00 0.64449543E+03</pdfrwt>
<totfact> 0.48258032E+00</totfact>
</mgrwt>
</event>
<event>
 5    1  0.2354746E-004  0.6524064E+03  0.7818608E-02  0.9802274E-01
         13   -1    0    0    0    0  0.00000000000E+00  0.00000000000E+00  0.10000000000E+04  0.10000000000E+04  0.00000000000E+00 0. -1.
          2   -1    0    0  501    0 -0.00000000000E+00 -0.00000000000E+00 -0.10640851395E+03  0.10640851395E+03  0.00000000000E+00 0. -1.
    9000006    2    1    2  501    0  0.00000000000E+00  0.00000000000E+00  0.89359148605E+03  0.11064085140E+04  0.65240635789E+03 0.  0.
         13    1    3    3    0    0  0.13900020053E+03 -0.84835231909E+02 -0.32545431091E+02  0.16606407620E+03  0.00000000000E+00 0. -1.
          2    1    3    3  501    0 -0.13900020053E+03  0.84835231909E+02  0.92613691714E+03  0.94034443775E+03  0.00000000000E+00 0. -1.
<mgrwt>
<rscale>  0 0.65240636E+03</rscale>
<asrwt>0</asrwt>
<pdfrwt beam="1">0</pdfrwt>
<pdfrwt beam="2">  1        2 0.38694087E+00 0.65240636E+03</pdfrwt>
<totfact> 0.44547895E+00</totfact>
</mgrwt>
</event>
<event>
 5    1  0.2354746E-004  0.6476235E+03  0.7818608E-02  0.9811249E-01
         13   -1    0    0    0    0  0.00000000000E+00  0.00000000000E+00  0.10000000000E+04  0.10000000000E+04  0.00000000000E+00 0. -1.
          2   -1    0    0  501    0 -0.00000000000E+00 -0.00000000000E+00 -0.10485404541E+03  0.10485404541E+03  0.00000000000E+00 0. -1.
    9000006    2    1    2  501    0  0.00000000000E+00  0.00000000000E+00  0.89514595459E+03  0.11048540454E+04  0.64762348757E+03 0.  0.
         13    1    3    3    0    0  0.97303653481E+02  0.30643570726E+03  0.38187039583E+03  0.49919519516E+03  0.00000000000E+00 0. -1.
          2    1    3    3  501    0 -0.97303653481E+02 -0.30643570726E+03  0.51327555876E+03  0.60565885025E+03  0.00000000000E+00 0. -1.
<mgrwt>
<rscale>  0 0.64762349E+03</rscale>
<asrwt>0</asrwt>
<pdfrwt beam="1">0</pdfrwt>
<pdfrwt beam="2">  1        2 0.38128824E+00 0.64762349E+03</pdfrwt>
<totfact> 0.46764149E+00</totfact>
</mgrwt>
</event>
<event>
 5    1  0.2354746E-004  0.6300023E+03  0.7818608E-02  0.9845044E-01
         13   -1    0    0    0    0  0.00000000000E+00  0.00000000000E+00  0.10000000000E+04  0.10000000000E+04  0.00000000000E+00 0. -1.
          2   -1    0    0  501    0 -0.00000000000E+00 -0.00000000000E+00 -0.99225722808E+02  0.99225722808E+02  0.00000000000E+00 0. -1.
    9000006    2    1    2  501    0  0.00000000000E+00  0.00000000000E+00  0.90077427719E+03  0.10992257228E+04  0.63000229462E+03 0.  0.
         13    1    3    3    0    0  0.15247568422E+03 -0.74533320714E+02  0.91340518631E+03  0.92903879605E+03  0.00000000000E+00 0. -1.
          2    1    3    3  501    0 -0.15247568422E+03  0.74533320714E+02 -0.12630909120E+02  0.17018692676E+03  0.00000000000E+00 0. -1.
<mgrwt>
<rscale>  0 0.63000229E+03</rscale>
<asrwt>0</asrwt>
<pdfrwt beam="1">0</pdfrwt>
<pdfrwt beam="2">  1        2 0.36082157E+00 0.63000229E+03</pdfrwt>
<totfact> 0.55657430E+00</totfact>
</mgrwt>
</event>
<event>
 5    1  0.2354746E-004  0.6452806E+03  0.7818608E-02  0.9815675E-01
         13   -1    0    0    0    0  0.00000000000E+00  0.00000000000E+00  0.10000000000E+04  0.10000000000E+04  0.00000000000E+00 0. -1.
          2   -1    0    0  501    0 -0.00000000000E+00 -0.00000000000E+00 -0.10409675237E+03  0.10409675237E+03  0.00000000000E+00 0. -1.
    9000006    2    1    2  501    0  0.00000000000E+00  0.00000000000E+00  0.89590324763E+03  0.11040967524E+04  0.64528056649E+03 0.  0.
         13    1    3    3    0    0  0.44032130082E+01 -0.27905284122E+03  0.72494295184E+03  0.77680895973E+03  0.00000000000E+00 0. -1.
          4    1    3    3  501    0 -0.44032130082E+01  0.27905284122E+03  0.17096029578E+03  0.32728779265E+03  0.00000000000E+00 0. -1.
<mgrwt>
<rscale>  0 0.64528057E+03</rscale>
<asrwt>0</asrwt>
<pdfrwt beam="1">0</pdfrwt>
<pdfrwt beam="2">  1        2 0.37853444E+00 0.64528057E+03</pdfrwt>
<totfact> 0.47879724E+00</totfact>
</mgrwt>
</event>
<event>
 5    1  0.2354746E-004  0.6463229E+03  0.7818608E-02  0.9813703E-01
         13   -1    0    0    0    0  0.00000000000E+00  0.00000000000E+00  0.10000000000E+04  0.10000000000E+04  0.00000000000E+00 0. -1.
          2   -1    0    0  501    0 -0.00000000000E+00 -0.00000000000E+00 -0.10443333630E+03  0.10443333630E+03  0.00000000000E+00 0. -1.
    9000006    2    1    2  501    0  0.00000000000E+00  0.00000000000E+00  0.89556666370E+03  0.11044333363E+04  0.64632294188E+03 0.  0.
         13    1    3    3    0    0  0.17711849020E+03  0.20725739645E+03  0.15128526834E+03  0.31179130901E+03  0.00000000000E+00 0. -1.
          4    1    3    3  501    0 -0.17711849020E+03 -0.20725739645E+03  0.74428139536E+03  0.79264202729E+03  0.00000000000E+00 0. -1.
<mgrwt>
<rscale>  0 0.64632294E+03</rscale>
<asrwt>0</asrwt>
<pdfrwt beam="1">0</pdfrwt>
<pdfrwt beam="2">  1        2 0.37975839E+00 0.64632294E+03</pdfrwt>
<totfact> 0.47380943E+00</totfact>
</mgrwt>
</event>
<event>
 5    1  0.2354746E-004  0.6401347E+03  0.7818608E-02  0.9825469E-01
         13   -1    0    0    0    0  0.00000000000E+00  0.00000000000E+00  0.10000000000E+04  0.10000000000E+04  0.00000000000E+00 0. -1.
          2   -1    0    0  501    0 -0.00000000000E+00 -0.00000000000E+00 -0.10244311119E+03  0.10244311119E+03  0.00000000000E+00 0. -1.
    9000006    2    1    2  501    0  0.00000000000E+00  0.00000000000E+00  0.89755688881E+03  0.11024431112E+04  0.64013470829E+03 0.  0.
         13    1    3    3    0    0 -0.23881591780E+03  0.72923186719E+02  0.10394039795E+03  0.27047077491E+03  0.00000000000E+00 0. -1.
          2    1    3    3  501    0  0.23881591780E+03 -0.72923186719E+02  0.79361649086E+03  0.83197233627E+03  0.00000000000E+00 0. -1.
<mgrwt>
<rscale>  0 0.64013471E+03</rscale>
<asrwt>0</asrwt>
<pdfrwt beam="1">0</pdfrwt>
<pdfrwt beam="2">  1        2 0.37252119E+00 0.64013471E+03</pdfrwt>
<totfact> 0.50400651E+00</totfact>
</mgrwt>
</event>
<event>
 5    1  0.2354746E-004  0.6436622E+03  0.7818608E-02  0.9818745E-01
         13   -1    0    0    0    0  0.00000000000E+00  0.00000000000E+00  0.10000000000E+04  0.10000000000E+04  0.00000000000E+00 0. -1.
          2   -1    0    0  501    0 -0.00000000000E+00 -0.00000000000E+00 -0.10357524448E+03  0.10357524448E+03  0.00000000000E+00 0. -1.
    9000006    2    1    2  501    0  0.00000000000E+00  0.00000000000E+00  0.89642475552E+03  0.11035752445E+04  0.64366216131E+03 0.  0.
         13    1    3    3    0    0 -0.29890173795E+03  0.38781373896E+02  0.25477467611E+03  0.39465982757E+03  0.00000000000E+00 0. -1.
          4    1    3    3  501    0  0.29890173795E+03 -0.38781373896E+02  0.64165007942E+03  0.70891541691E+03  0.00000000000E+00 0. -1.
<mgrwt>
<rscale>  0 0.64366216E+03</rscale>
<asrwt>0</asrwt>
<pdfrwt beam="1">0</pdfrwt>
<pdfrwt beam="2">  1        2 0.37663805E+00 0.64366216E+03</pdfrwt>
<totfact> 0.48661999E+00</totfact>
</mgrwt>
</event>
<event>
 5    1  0.2354746E-004  0.6535438E+03  0.7818608E-02  0.9800152E-01
         13   -1    0    0    0    0  0.00000000000E+00  0.00000000000E+00  0.10000000000E+04  0.10000000000E+04  0.00000000000E+00 0. -1.
          2   -1    0    0  501    0 -0.00000000000E+00 -0.00000000000E+00 -0.10677988403E+03  0.10677988403E+03  0.00000000000E+00 0. -1.
    9000006    2    1    2  501    0  0.00000000000E+00  0.00000000000E+00  0.89322011597E+03  0.11067798840E+04  0.65354382876E+03 0.  0.
         13    1    3    3    0    0  0.16163367412E+03 -0.10924656805E+03  0.89055277447E+03  0.91167126825E+03  0.00000000000E+00 0. -1.
          2    1    3    3  501    0 -0.16163367412E+03  0.10924656805E+03  0.26673414982E+01  0.19510861577E+03  0.00000000000E+00 0. -1.
<mgrwt>
<rscale>  0 0.65354383E+03</rscale>
<asrwt>0</asrwt>
<pdfrwt beam="1">0</pdfrwt>
<pdfrwt beam="2">  1        2 0.38829131E+00 0.65354383E+03</pdfrwt>
<totfact> 0.44032716E+00</totfact>
</mgrwt>
</event>
<event>
 5    1  0.2354746E-004  0.6489727E+03  0.7818608E-02  0.9808709E-01
         13   -1    0    0    0    0  0.00000000000E+00  0.00000000000E+00  0.10000000000E+04  0.10000000000E+04  0.00000000000E+00 0. -1.
          2   -1    0    0  501    0 -0.00000000000E+00 -0.00000000000E+00 -0.10529139538E+03  0.10529139538E+03  0.00000000000E+00 0. -1.
    9000006    2    1    2  501    0  0.00000000000E+00  0.00000000000E+00  0.89470860462E+03  0.11052913954E+04  0.64897271246E+03 0.  0.
         13    1    3    3    0    0 -0.65394022997E+01  0.31617765443E+02  0.99725743579E+03  0.99777995576E+03  0.00000000000E+00 0. -1.
          4    1    3    3  501    0  0.65394022997E+01 -0.31617765443E+02 -0.10254883117E+03  0.10751143962E+03  0.00000000000E+00 0. -1.
<mgrwt>
<rscale>  0 0.64897271E+03</rscale>
<asrwt>0</asrwt>
<pdfrwt beam="1">0</pdfrwt>
<pdfrwt beam="2">  1        2 0.38287861E+00 0.64897271E+03</pdfrwt>
<totfact> 0.46130705E+00</totfact>
</mgrwt>
</event>
<event>
 5    1  0.2354746E-004  0.6436478E+03  0.7818608E-02  0.9818772E-01
         13   -1    0    0    0    0  0.00000000000E+00  0.00000000000E+00  0.10000000000E+04  0.10000000000E+04  0.00000000000E+00 0. -1.
          2   -1    0    0  501    0 -0.00000000000E+00 -0.00000000000E+00 -0.10357061914E+03  0.10357061914E+03  0.00000000000E+00 0. -1.
    9000006    2    1    2  501    0  0.00000000000E+00  0.00000000000E+00  0.89642938086E+03  0.11035706191E+04  0.64364778920E+03 0.  0.
         13    1    3    3    0    0 -0.57146671248E+02 -0.21355257301E+03  0.84921638526E+03  0.87751861090E+03  0.00000000000E+00 0. -1.
          4    1    3    3  501    0  0.57146671248E+02  0.21355257301E+03  0.47212995600E+02  0.22605200824E+03  0.00000000000E+00 0. -1.
<mgrwt>
<rscale>  0 0.64364779E+03</rscale>
<asrwt>0</asrwt>
<pdfrwt beam="1">0</pdfrwt>
<pdfrwt beam="2">  1        2 0.37662123E+00 0.64364779E+03</pdfrwt>
<totfact> 0.48668989E+00</totfact>
</mgrwt>
</event>
<event>
 5    1  0.2354746E-004  0.6614019E+03  0.7818608E-02  0.9785616E-01
         13   -1    0    0    0    0  0.00000000000E+00  0.00000000000E+00  0.10000000000E+04  0.10000000000E+04  0.00000000000E+00 0. -1.
          2   -1    0    0  501    0 -0.00000000000E+00 -0.00000000000E+00 -0.10936311076E+03  0.10936311076E+03  0.00000000000E+00 0. -1.
    9000006    2    1    2  501    0  0.00000000000E+00  0.00000000000E+00  0.89063688924E+03  0.11093631108E+04  0.66140187711E+03 0.  0.
         13    1    3    3    0    0 -0.11524640905E+03 -0.90955576344E+02 -0.51704542573E+02  0.15565349784E+03  0.00000000000E+00 0. -1.
          2    1    3    3  501    0  0.11524640905E+03  0.90955576344E+02  0.94234143181E+03  0.95370961292E+03  0.00000000000E+00 0. -1.
<mgrwt>
<rscale>  0 0.66140188E+03</rscale>
<asrwt>0</asrwt>
<pdfrwt beam="1">0</pdfrwt>
<pdfrwt beam="2">  1        2 0.39768488E+00 0.66140188E+03</pdfrwt>
<totfact> 0.40595607E+00</totfact>
</mgrwt>
</event>
<event>
 5    1  0.2354746E-004  0.6291794E+03  0.7818608E-02  0.9846651E-01
         13   -1    0    0    0    0  0.00000000000E+00  0.00000000000E+00  0.10000000000E+04  0.10000000000E+04  0.00000000000E+00 0. -1.
          2   -1    0    0  501    0 -0.00000000000E+00 -0.00000000000E+00 -0.98966685630E+02  0.98966685630E+02  0.00000000000E+00 0. -1.
    9000006    2    1    2  501    0  0.00000000000E+00  0.00000000000E+00  0.90103331437E+03  0.10989666856E+04  0.62917941997E+03 0.  0.
         13    1    3    3    0    0  0.49012541335E+02 -0.31032169621E+03  0.47894503323E+03  0.57279152333E+03  0.00000000000E+00 0. -1.
          4    1    3    3  501    0 -0.49012541335E+02  0.31032169621E+03  0.42208828114E+03  0.52617516230E+03  0.00000000000E+00 0. -1.
<mgrwt>
<rscale>  0 0.62917942E+03</rscale>
<asrwt>0</asrwt>
<pdfrwt beam="1">0</pdfrwt>
<pdfrwt beam="2">  1        2 0.35987962E+00 0.62917942E+03</pdfrwt>
<totfact> 0.56101881E+00</totfact>
</mgrwt>
</event>
<event>
 5    1  0.2354746E-004  0.6506338E+03  0.7818608E-02  0.9805591E-01
         13   -1    0    0    0    0  0.00000000000E+00  0.00000000000E+00  0.10000000000E+04  0.10000000000E+04  0.00000000000E+00 0. -1.
          2   -1    0    0  501    0 -0.00000000000E+00 -0.00000000000E+00 -0.10583108956E+03  0.10583108956E+03  0.00000000000E+00 0. -1.
    9000006    2    1    2  501    0  0.00000000000E+00  0.00000000000E+00  0.89416891044E+03  0.11058310896E+04  0.65063381272E+03 0.  0.
         13    1    3    3    0    0  0.23532173832E+03  0.21449744248E+03  0.33376143256E+03  0.46128317465E+03  0.00000000000E+00 0. -1.
          2    1    3    3  501    0 -0.23532173832E+03 -0.21449744248E+03  0.56040747788E+03  0.64454791491E+03  0.00000000000E+00 0. -1.
<mgrwt>
<rscale>  0 0.65063381E+03</rscale>
<asrwt>0</asrwt>
<pdfrwt beam="1">0</pdfrwt>
<pdfrwt beam="2">  1        2 0.38484114E+00 0.65063381E+03</pdfrwt>
<totfact> 0.45359772E+00</totfact>
</mgrwt>
</event>
<event>
 5    1  0.2354746E-004  0.6534251E+03  0.7818608E-02  0.9800373E-01
         13   -1    0    0    0    0  0.00000000000E+00  0.00000000000E+00  0.10000000000E+04  0.10000000000E+04  0.00000000000E+00 0. -1.
          2   -1    0    0  501    0 -0.00000000000E+00 -0.00000000000E+00 -0.10674109549E+03  0.10674109549E+03  0.00000000000E+00 0. -1.
    9000006    2    1    2  501    0  0.00000000000E+00  0.00000000000E+00  0.89325890451E+03  0.11067410955E+04  0.65342511581E+03 0.  0.
         13    1    3    3    0    0 -0.14917910343E+02 -0.15744105480E+03  0.93085005334E+03  0.94418856781E+03  0.00000000000E+00 0. -1.
          4    1    3    3  501    0  0.14917910343E+02  0.15744105480E+03 -0.37591148830E+02  0.16255252768E+03  0.00000000000E+00 0. -1.
<mgrwt>
<rscale>  0 0.65342512E+03</rscale>
<asrwt>0</asrwt>
<pdfrwt beam="1">0</pdfrwt>
<pdfrwt beam="2">  1        2 0.38815026E+00 0.65342512E+03</pdfrwt>
<totfact> 0.44086272E+00</totfact>
</mgrwt>
</event>
<event>
 5    1  0.2354746E-004  0.6495907E+03  0.7818608E-02  0.9807548E-01
         13   -1    0    0    0    0  0.00000000000E+00  0.00000000000E+00  0.10000000000E+04  0.10000000000E+04  0.00000000000E+00 0. -1.
          2   -1    0    0  501    0 -0.00000000000E+00 -0.00000000000E+00 -0.10549200677E+03  0.10549200677E+03  0.00000000000E+00 0. -1.
    9000006    2    1    2  501    0  0.00000000000E+00  0.00000000000E+00  0.89450799323E+03  0.11054920068E+04  0.64959066118E+03 0.  0.
         13    1    3    3    0    0  0.32018415004E+02 -0.26905624714E+03  0.75204558919E+03  0.79936788230E+03  0.00000000000E+00 0. -1.
          2    1    3    3  501    0 -0.32018415004E+02  0.26905624714E+03  0.14246240403E+03  0.30612412448E+03  0.00000000000E+00 0. -1.
<mgrwt>
<rscale>  0 0.64959066E+03</rscale>
<asrwt>0</asrwt>
<pdfrwt beam="1">0</pdfrwt>
<pdfrwt beam="2">  1        2 0.38360811E+00 0.64959066E+03</pdfrwt>
<totfact> 0.45842761E+00</totfact>
</mgrwt>
</event>
<event>
 5    1  0.2354746E-004  0.6909722E+03  0.7818608E-02  0.9732797E-01
         13   -1    0    0    0    0  0.00000000000E+00  0.00000000000E+00  0.10000000000E+04  0.10000000000E+04  0.00000000000E+00 0. -1.
          2   -1    0    0  501    0 -0.00000000000E+00 -0.00000000000E+00 -0.11936064693E+03  0.11936064693E+03  0.00000000000E+00 0. -1.
    9000006    2    1    2  501    0  0.00000000000E+00  0.00000000000E+00  0.88063935307E+03  0.11193606469E+04  0.69097220472E+03 0.  0.
         13    1    3    3    0    0  0.28427657136E+03 -0.16642260756E+03  0.60906984316E+03  0.69244185834E+03  0.00000000000E+00 0. -1.
          4    1    3    3  501    0 -0.28427657136E+03  0.16642260756E+03  0.27156950992E+03  0.42691878859E+03  0.00000000000E+00 0. -1.
<mgrwt>
<rscale>  0 0.69097220E+03</rscale>
<asrwt>0</asrwt>
<pdfrwt beam="1">0</pdfrwt>
<pdfrwt beam="2">  1        2 0.43403963E+00 0.69097220E+03</pdfrwt>
<totfact> 0.29441541E+00</totfact>
</mgrwt>
</event>
<event>
 5    1  0.2354746E-004  0.6481655E+03  0.7818608E-02  0.9810228E-01
         13   -1    0    0    0    0  0.00000000000E+00  0.00000000000E+00  0.10000000000E+04  0.10000000000E+04  0.00000000000E+00 0. -1.
          2   -1    0    0  501    0 -0.00000000000E+00 -0.00000000000E+00 -0.10502962584E+03  0.10502962584E+03  0.00000000000E+00 0. -1.
    9000006    2    1    2  501    0  0.00000000000E+00  0.00000000000E+00  0.89497037416E+03  0.11050296258E+04  0.64816549073E+03 0.  0.
         13    1    3    3    0    0 -0.24520621247E+03 -0.97209406262E+02  0.12647423916E+03  0.29252604751E+03  0.00000000000E+00 0. -1.
          4    1    3    3  501    0  0.24520621247E+03  0.97209406262E+02  0.76849613500E+03  0.81250357834E+03  0.00000000000E+00 0. -1.
<mgrwt>
<rscale>  0 0.64816549E+03</rscale>
<asrwt>0</asrwt>
<pdfrwt beam="1">0</pdfrwt>
<pdfrwt beam="2">  1        2 0.38192672E+00 0.64816549E+03</pdfrwt>
<totfact> 0.46508900E+00</totfact>
</mgrwt>
</event>
<event>
 5    1  0.2354746E-004  0.6703604E+03  0.7818608E-02  0.9769307E-01
         13   -1    0    0    0    0  0.00000000000E+00  0.00000000000E+00  0.10000000000E+04  0.10000000000E+04  0.00000000000E+00 0. -1.
          2   -1    0    0  501    0 -0.00000000000E+00 -0.00000000000E+00 -0.11234576929E+03  0.11234576929E+03  0.00000000000E+00 0. -1.
    9000006    2    1    2  501    0  0.00000000000E+00  0.00000000000E+00  0.88765423071E+03  0.11123457693E+04  0.67036040840E+03 0.  0.
         13    1    3    3    0    0  0.10759407463E+03 -0.21417217081E+03  0.83261784826E+03  0.86642869579E+03  0.00000000000E+00 0. -1.
          4    1    3    3  501    0 -0.10759407463E+03  0.21417217081E+03  0.55036382454E+02  0.24591707350E+03  0.00000000000E+00 0. -1.
<mgrwt>
<rscale>  0 0.67036041E+03</rscale>
<asrwt>0</asrwt>
<pdfrwt beam="1">0</pdfrwt>
<pdfrwt beam="2">  1        2 0.40853093E+00 0.67036041E+03</pdfrwt>
<totfact> 0.36928645E+00</totfact>
</mgrwt>
</event>
<event>
 5    1  0.2354746E-004  0.6313890E+03  0.7818608E-02  0.9842342E-01
         13   -1    0    0    0    0  0.00000000000E+00  0.00000000000E+00  0.10000000000E+04  0.10000000000E+04  0.00000000000E+00 0. -1.
          2   -1    0    0  501    0 -0.00000000000E+00 -0.00000000000E+00 -0.99663025282E+02  0.99663025282E+02  0.00000000000E+00 0. -1.
    9000006    2    1    2  501    0  0.00000000000E+00  0.00000000000E+00  0.90033697472E+03  0.10996630253E+04  0.63138902519E+03 0.  0.
         13    1    3    3    0    0 -0.45125628758E+02  0.23982138542E+03  0.10134802755E+03  0.26423860801E+03  0.00000000000E+00 0. -1.
          2    1    3    3  501    0  0.45125628758E+02 -0.23982138542E+03  0.79898894717E+03  0.83542441727E+03  0.00000000000E+00 0. -1.
<mgrwt>
<rscale>  0 0.63138903E+03</rscale>
<asrwt>0</asrwt>
<pdfrwt beam="1">0</pdfrwt>
<pdfrwt beam="2">  1        2 0.36241177E+00 0.63138903E+03</pdfrwt>
<totfact> 0.54914482E+00</totfact>
</mgrwt>
</event>
<event>
 5    1  0.2354746E-004  0.6537539E+03  0.7818608E-02  0.9799761E-01
         13   -1    0    0    0    0  0.00000000000E+00  0.00000000000E+00  0.10000000000E+04  0.10000000000E+04  0.00000000000E+00 0. -1.
          2   -1    0    0  501    0 -0.00000000000E+00 -0.00000000000E+00 -0.10684853755E+03  0.10684853755E+03  0.00000000000E+00 0. -1.
    9000006    2    1    2  501    0  0.00000000000E+00  0.00000000000E+00  0.89315146245E+03  0.11068485375E+04  0.65375389115E+03 0.  0.
         13    1    3    3    0    0  0.12513983067E+03  0.17885103036E+03  0.34631950440E+02  0.22101366536E+03  0.00000000000E+00 0. -1.
          4    1    3    3  501    0 -0.12513983067E+03 -0.17885103036E+03  0.85851951201E+03  0.88583487219E+03  0.00000000000E+00 0. -1.
<mgrwt>
<rscale>  0 0.65375389E+03</rscale>
<asrwt>0</asrwt>
<pdfrwt beam="1">0</pdfrwt>
<pdfrwt beam="2">  1        2 0.38854096E+00 0.65375389E+03</pdfrwt>
<totfact> 0.43938070E+00</totfact>
</mgrwt>
</event>
<event>
 5    1  0.2354746E-004  0.6447360E+03  0.7818608E-02  0.9816707E-01
         13   -1    0    0    0    0  0.00000000000E+00  0.00000000000E+00  0.10000000000E+04  0.10000000000E+04  0.00000000000E+00 0. -1.
          2   -1    0    0  501    0 -0.00000000000E+00 -0.00000000000E+00 -0.10392114265E+03  0.10392114265E+03  0.00000000000E+00 0. -1.
    9000006    2    1    2  501    0  0.00000000000E+00  0.00000000000E+00  0.89607885735E+03  0.11039211427E+04  0.64473604725E+03 0.  0.
         13    1    3    3    0    0  0.19648661258E+03  0.17255904865E+03  0.77081429437E+03  0.81396455120E+03  0.00000000000E+00 0. -1.
          4    1    3    3  501    0 -0.19648661258E+03 -0.17255904865E+03  0.12526456297E+03  0.28995659146E+03  0.00000000000E+00 0. -1.
<mgrwt>
<rscale>  0 0.64473605E+03</rscale>
<asrwt>0</asrwt>
<pdfrwt beam="1">0</pdfrwt>
<pdfrwt beam="2">  1        2 0.37789586E+00 0.64473605E+03</pdfrwt>
<totfact> 0.48141853E+00</totfact>
</mgrwt>
</event>
<event>
 5    1  0.2354746E-004  0.6461092E+03  0.7818608E-02  0.9814108E-01
         13   -1    0    0    0    0  0.00000000000E+00  0.00000000000E+00  0.10000000000E+04  0.10000000000E+04  0.00000000000E+00 0. -1.
          2   -1    0    0  501    0 -0.00000000000E+00 -0.00000000000E+00 -0.10436426225E+03  0.10436426225E+03  0.00000000000E+00 0. -1.
    9000006    2    1    2  501    0  0.00000000000E+00  0.00000000000E+00  0.89563573775E+03  0.11043642622E+04  0.64610916182E+03 0.  0.
         13    1    3    3    0    0  0.18295108001E+02 -0.31456096535E+03  0.32598094639E+03  0.45337279286E+03  0.00000000000E+00 0. -1.
          2    1    3    3  501    0 -0.18295108001E+02  0.31456096535E+03  0.56965479136E+03  0.65099146939E+03  0.00000000000E+00 0. -1.
<mgrwt>
<rscale>  0 0.64610916E+03</rscale>
<asrwt>0</asrwt>
<pdfrwt beam="1">0</pdfrwt>
<pdfrwt beam="2">  1        2 0.37950721E+00 0.64610916E+03</pdfrwt>
<totfact> 0.47482916E+00</totfact>
</mgrwt>
</event>
<event>
 5    1  0.2354746E-004  0.6712753E+03  0.7818608E-02  0.9767657E-01
         13   -1    0    0    0    0  0.00000000000E+00  0.00000000000E+00  0.10000000000E+04  0.10000000000E+04  0.00000000000E+00 0. -1.
          2   -1    0    0  501    0 -0.00000000000E+00 -0.00000000000E+00 -0.11265262446E+03  0.11265262446E+03  0.00000000000E+00 0. -1.
    9000006    2    1    2  501    0  0.00000000000E+00  0.00000000000E+00  0.88734737554E+03  0.11126526245E+04  0.67127527723E+03 0.  0.
         13    1    3    3    0    0 -0.39071586545E+02  0.32825738253E+03  0.53994020311E+03  0.63309945585E+03  0.00000000000E+00 0. -1.
          2    1    3    3  501    0  0.39071586545E+02 -0.32825738253E+03  0.34740717243E+03  0.47955316860E+03  0.00000000000E+00 0. -1.
<mgrwt>
<rscale>  0 0.67127528E+03</rscale>
<asrwt>0</asrwt>
<pdfrwt beam="1">0</pdfrwt>
<pdfrwt beam="2">  1        2 0.40964677E+00 0.67127528E+03</pdfrwt>
<totfact> 0.36568749E+00</totfact>
</mgrwt>
</event>
<event>
 5    1  0.2354746E-004  0.6549451E+03  0.7818608E-02  0.9797544E-01
         13   -1    0    0    0    0  0.00000000000E+00  0.00000000000E+00  0.10000000000E+04  0.10000000000E+04  0.00000000000E+00 0. -1.
          2   -1    0    0  501    0 -0.00000000000E+00 -0.00000000000E+00 -0.10723828364E+03  0.10723828364E+03  0.00000000000E+00 0. -1.
    9000006    2    1    2  501    0  0.00000000000E+00  0.00000000000E+00  0.89276171636E+03  0.11072382836E+04  0.65494513858E+03 0.  0.
         13    1    3    3    0    0 -0.64137836814E+02  0.29383008241E+03  0.66543031084E+03  0.73023782293E+03  0.00000000000E+00 0. -1.
          4    1    3    3  501    0  0.64137836814E+02 -0.29383008241E+03  0.22733140552E+03  0.37700046071E+03  0.00000000000E+00 0. -1.
<mgrwt>
<rscale>  0 0.65494514E+03</rscale>
<asrwt>0</asrwt>
<pdfrwt beam="1">0</pdfrwt>
<pdfrwt beam="2">  1        2 0.38995822E+00 0.65494514E+03</pdfrwt>
<totfact> 0.43404241E+00</totfact>
</mgrwt>
</event>
<event>
 5    1  0.2354746E-004  0.6484957E+03  0.7818608E-02  0.9809606E-01
         13   -1    0    0    0    0  0.00000000000E+00  0.00000000000E+00  0.10000000000E+04  0.10000000000E+04  0.00000000000E+00 0. -1.
          2   -1    0    0  501    0 -0.00000000000E+00 -0.00000000000E+00 -0.10513667771E+03  0.10513667771E+03  0.00000000000E+00 0. -1.
    9000006    2    1    2  501    0  0.00000000000E+00  0.00000000000E+00  0.89486332229E+03  0.11051366777E+04  0.64849572922E+03 0.  0.
         13    1    3    3    0    0  0.16943735749E+03 -0.24719608052E+03  0.23648961094E+03  0.38176204162E+03  0.00000000000E+00 0. -1.
          4    1    3    3  501    0 -0.16943735749E+03  0.24719608052E+03  0.65837371135E+03  0.72337463609E+03  0.00000000000E+00 0. -1.
<mgrwt>
<rscale>  0 0.64849573E+03</rscale>
<asrwt>0</asrwt>
<pdfrwt beam="1">0</pdfrwt>
<pdfrwt beam="2">  1        2 0.38231600E+00 0.64849573E+03</pdfrwt>
<totfact> 0.46353897E+00</totfact>
</mgrwt>
</event>
<event>
 5    1  0.2354746E-004  0.6476824E+03  0.7818608E-02  0.9811138E-01
         13   -1    0    0    0    0  0.00000000000E+00  0.00000000000E+00  0.10000000000E+04  0.10000000000E+04  0.00000000000E+00 0. -1.
          2   -1    0    0  501    0 -0.00000000000E+00 -0.00000000000E+00 -0.10487313100E+03  0.10487313100E+03  0.00000000000E+00 0. -1.
    9000006    2    1    2  501    0  0.00000000000E+00  0.00000000000E+00  0.89512686900E+03  0.11048731310E+04  0.64768242528E+03 0.  0.
         13    1    3    3    0    0 -0.61680125684E+02 -0.72974191622E+02  0.97540654762E+03  0.98007530511E+03  0.00000000000E+00 0. -1.
          4    1    3    3  501    0  0.61680125684E+02  0.72974191622E+02 -0.80279678625E+02  0.12479782589E+03  0.00000000000E+00 0. -1.
<mgrwt>
<rscale>  0 0.64768243E+03</rscale>
<asrwt>0</asrwt>
<pdfrwt beam="1">0</pdfrwt>
<pdfrwt beam="2">  1        2 0.38135764E+00 0.64768243E+03</pdfrwt>
<totfact> 0.46736342E+00</totfact>
</mgrwt>
</event>
<event>
 5    1  0.2354746E-004  0.6536049E+03  0.7818608E-02  0.9800038E-01
         13   -1    0    0    0    0  0.00000000000E+00  0.00000000000E+00  0.10000000000E+04  0.10000000000E+04  0.00000000000E+00 0. -1.
          2   -1    0    0  501    0 -0.00000000000E+00 -0.00000000000E+00 -0.10679985136E+03  0.10679985136E+03  0.00000000000E+00 0. -1.
    9000006    2    1    2  501    0  0.00000000000E+00  0.00000000000E+00  0.89320014864E+03  0.11067998514E+04  0.65360493070E+03 0.  0.
         13    1    3    3    0    0  0.30991970520E+03 -0.54607789480E+02  0.29735580140E+03  0.43295808916E+03  0.00000000000E+00 0. -1.
          4    1    3    3  501    0 -0.30991970520E+03  0.54607789480E+02  0.59584434724E+03  0.67384176220E+03  0.00000000000E+00 0. -1.
<mgrwt>
<rscale>  0 0.65360493E+03</rscale>
<asrwt>0</asrwt>
<pdfrwt beam="1">0</pdfrwt>
<pdfrwt beam="2">  1        2 0.38836391E+00 0.65360493E+03</pdfrwt>
<totfact> 0.44005170E+00</totfact>
</mgrwt>
</event>
<event>
 5    1  0.2354746E-004  0.6463112E+03  0.7818608E-02  0.9813726E-01
         13   -1    0    0    0    0  0.00000000000E+00  0.00000000000E+00  0.10000000000E+04  0.10000000000E+04  0.00000000000E+00 0. -1.
          2   -1    0    0  501    0 -0.00000000000E+00 -0.00000000000E+00 -0.10442952988E+03  0.10442952988E+03  0.00000000000E+00 0. -1.
    9000006    2    1    2  501    0  0.00000000000E+00  0.00000000000E+00  0.89557047012E+03  0.11044295299E+04  0.64631116309E+03 0.  0.
         13    1    3    3    0    0  0.24779319315E+03  0.17879091046E+03  0.62751114863E+03  0.69795264731E+03  0.00000000000E+00 0. -1.
          2    1    3    3  501    0 -0.24779319315E+03 -0.17879091046E+03  0.26805932148E+03  0.40647688257E+03  0.00000000000E+00 0. -1.
<mgrwt>
<rscale>  0 0.64631116E+03</rscale>
<asrwt>0</asrwt>
<pdfrwt beam="1">0</pdfrwt>
<pdfrwt beam="2">  1        2 0.37974455E+00 0.64631116E+03</pdfrwt>
<totfact> 0.47386557E+00</totfact>
</mgrwt>
</event>
<event>
 5    1  0.2354746E-004  0.6820678E+03  0.7818608E-02  0.9748400E-01
         13   -1    0    0    0    0  0.00000000000E+00  0.00000000000E+00  0.10000000000E+04  0.10000000000E+04  0.00000000000E+00 0. -1.
          2   -1    0    0  501    0 -0.00000000000E+00 -0.00000000000E+00 -0.11630412634E+03  0.11630412634E+03  0.00000000000E+00 0. -1.
    9000006    2    1    2  501    0  0.00000000000E+00  0.00000000000E+00  0.88369587366E+03  0.11163041263E+04  0.68206781581E+03 0.  0.
         13    1    3    3    0    0 -0.10147829323E+03  0.14433276219E+03  0.91949746307E+03  0.93627206241E+03  0.00000000000E+00 0. -1.
          4    1    3    3  501    0  0.10147829323E+03 -0.14433276219E+03 -0.35801589416E+02  0.18003206394E+03  0.00000000000E+00 0. -1.
<mgrwt>
<rscale>  0 0.68206782E+03</rscale>
<asrwt>0</asrwt>
<pdfrwt beam="1">0</pdfrwt>
<pdfrwt beam="2">  1        2 0.42292499E+00 0.68206782E+03</pdfrwt>
<totfact> 0.32519774E+00</totfact>
</mgrwt>
</event>
<event>
 5    1  0.2354746E-004  0.6449443E+03  0.7818608E-02  0.9816312E-01
         13   -1    0    0    0    0  0.00000000000E+00  0.00000000000E+00  0.10000000000E+04  0.10000000000E+04  0.00000000000E+00 0. -1.
          2   -1    0    0  501    0 -0.00000000000E+00 -0.00000000000E+00 -0.10398829737E+03  0.10398829737E+03  0.00000000000E+00 0. -1.
    9000006    2    1    2  501    0  0.00000000000E+00  0.00000000000E+00  0.89601170263E+03  0.11039882974E+04  0.64494433053E+03 0.  0.
         13    1    3    3    0    0 -0.32186858466E+03 -0.14234133424E+02  0.47136999461E+03  0.57095680061E+03  0.00000000000E+00 0. -1.
          2    1    3    3  501    0  0.32186858466E+03  0.14234133424E+02  0.42464170802E+03  0.53303149676E+03  0.00000000000E+00 0. -1.
<mgrwt>
<rscale>  0 0.64494433E+03</rscale>
<asrwt>0</asrwt>
<pdfrwt beam="1">0</pdfrwt>
<pdfrwt beam="2">  1        2 0.37814006E+00 0.64494433E+03</pdfrwt>
<totfact> 0.48041459E+00</totfact>
</mgrwt>
</event>
<event>
 5    1  0.2354746E-004  0.6534158E+03  0.7818608E-02  0.9800391E-01
         13   -1    0    0    0    0  0.00000000000E+00  0.00000000000E+00  0.10000000000E+04  0.10000000000E+04  0.00000000000E+00 0. -1.
          2   -1    0    0  501    0 -0.00000000000E+00 -0.00000000000E+00 -0.10673806411E+03  0.10673806411E+03  0.00000000000E+00 0. -1.
    9000006    2    1    2  501    0  0.00000000000E+00  0.00000000000E+00  0.89326193589E+03  0.11067380641E+04  0.65341583731E+03 0.  0.
         13    1    3    3    0    0 -0.18932676646E+03  0.40687737218E+02  0.94672150893E+00  0.19365178217E+03  0.00000000000E+00 0. -1.
          2    1    3    3  501    0  0.18932676646E+03 -0.40687737218E+02  0.89231521438E+03  0.91308628194E+03  0.00000000000E+00 0. -1.
<mgrwt>
<rscale>  0 0.65341584E+03</rscale>
<asrwt>0</asrwt>
<pdfrwt beam="1">0</pdfrwt>
<pdfrwt beam="2">  1        2 0.38813923E+00 0.65341584E+03</pdfrwt>
<totfact> 0.44090460E+00</totfact>
</mgrwt>
</event>
<event>
 5    1  0.2354746E-004  0.6523660E+03  0.7818608E-02  0.9802350E-01
         13   -1    0    0    0    0  0.00000000000E+00  0.00000000000E+00  0.10000000000E+04  0.10000000000E+04  0.00000000000E+00 0. -1.
          2   -1    0    0  501    0 -0.00000000000E+00 -0.00000000000E+00 -0.10639533369E+03  0.10639533369E+03  0.00000000000E+00 0. -1.
    9000006    2    1    2  501    0  0.00000000000E+00  0.00000000000E+00  0.89360466631E+03  0.11063953337E+04  0.65236595157E+03 0.  0.
         13    1    3    3    0    0  0.32150797696E+03 -0.45241634145E+02  0.39367885183E+03  0.51029131199E+03  0.00000000000E+00 0. -1.
          4    1    3    3  501    0 -0.32150797696E+03  0.45241634145E+02  0.49992581448E+03  0.59610402171E+03  0.00000000000E+00 0. -1.
<mgrwt>
<rscale>  0 0.65236595E+03</rscale>
<asrwt>0</asrwt>
<pdfrwt beam="1">0</pdfrwt>
<pdfrwt beam="2">  1        2 0.38689294E+00 0.65236595E+03</pdfrwt>
<totfact> 0.44566280E+00</totfact>
</mgrwt>
</event>
<event>
 5    1  0.2354746E-004  0.6344692E+03  0.7818608E-02  0.9836366E-01
         13   -1    0    0    0    0  0.00000000000E+00  0.00000000000E+00  0.10000000000E+04  0.10000000000E+04  0.00000000000E+00 0. -1.
          2   -1    0    0  501    0 -0.00000000000E+00 -0.00000000000E+00 -0.10063779980E+03  0.10063779980E+03  0.00000000000E+00 0. -1.
    9000006    2    1    2  501    0  0.00000000000E+00  0.00000000000E+00  0.89936220020E+03  0.11006377998E+04  0.63446922637E+03 0.  0.
         13    1    3    3    0    0  0.35694002683E+02  0.27975571822E+03  0.70166917510E+03  0.75622546571E+03  0.00000000000E+00 0. -1.
          2    1    3    3  501    0 -0.35694002683E+02 -0.27975571822E+03  0.19769302510E+03  0.34441233410E+03  0.00000000000E+00 0. -1.
<mgrwt>
<rscale>  0 0.63446923E+03</rscale>
<asrwt>0</asrwt>
<pdfrwt beam="1">0</pdfrwt>
<pdfrwt beam="2">  1        2 0.36595641E+00 0.63446923E+03</pdfrwt>
<totfact> 0.53291178E+00</totfact>
</mgrwt>
</event>
<event>
 5    1  0.2354746E-004  0.6514787E+03  0.7818608E-02  0.9804008E-01
         13   -1    0    0    0    0  0.00000000000E+00  0.00000000000E+00  0.10000000000E+04  0.10000000000E+04  0.00000000000E+00 0. -1.
          2   -1    0    0  501    0 -0.00000000000E+00 -0.00000000000E+00 -0.10610613488E+03  0.10610613488E+03  0.00000000000E+00 0. -1.
    9000006    2    1    2  501    0  0.00000000000E+00  0.00000000000E+00  0.89389386512E+03  0.11061061349E+04  0.65147873297E+03 0.  0.
         13    1    3    3    0    0  0.27970011024E+03  0.13156682174E+03  0.62145436659E+03  0.69408033397E+03  0.00000000000E+00 0. -1.
          2    1    3    3  501    0 -0.27970011024E+03 -0.13156682174E+03  0.27243949853E+03  0.41202580091E+03  0.00000000000E+00 0. -1.
<mgrwt>
<rscale>  0 0.65147873E+03</rscale>
<asrwt>0</asrwt>
<pdfrwt beam="1">0</pdfrwt>
<pdfrwt beam="2">  1        2 0.38584130E+00 0.65147873E+03</pdfrwt>
<totfact> 0.44971392E+00</totfact>
</mgrwt>
</event>
<event>
 5    1  0.2354746E-004  0.6197396E+03  0.7818608E-02  0.9865278E-01
         13   -1    0    0    0    0  0.00000000000E+00  0.00000000000E+00  0.10000000000E+04  0.10000000000E+04  0.00000000000E+00 0. -1.
          2   -1    0    0  501    0 -0.00000000000E+00 -0.00000000000E+00 -0.96019293622E+02  0.96019293622E+02  0.00000000000E+00 0. -1.
    9000006    2    1    2  501    0  0.00000000000E+00  0.00000000000E+00  0.90398070638E+03  0.10960192936E+04  0.61973960216E+03 0.  0.
         13    1    3    3    0    0 -0.28420550149E+03  0.30589915641E+02  0.66355381155E+03  0.72250409745E+03  0.00000000000E+00 0. -1.
          2    1    3    3  501    0  0.28420550149E+03 -0.30589915641E+02  0.24042689483E+03  0.37351519617E+03  0.00000000000E+00 0. -1.
<mgrwt>
<rscale>  0 0.61973960E+03</rscale>
<asrwt>0</asrwt>
<pdfrwt beam="1">0</pdfrwt>
<pdfrwt beam="2">  1        2 0.34916180E+00 0.61973960E+03</pdfrwt>
<totfact> 0.61396266E+00</totfact>
</mgrwt>
</event>
<event>
 5    1  0.2354746E-004  0.6533795E+03  0.7818608E-02  0.9800458E-01
         13   -1    0    0    0    0  0.00000000000E+00  0.00000000000E+00  0.10000000000E+04  0.10000000000E+04  0.00000000000E+00 0. -1.
          2   -1    0    0  501    0 -0.00000000000E+00 -0.00000000000E+00 -0.10672619426E+03  0.10672619426E+03  0.00000000000E+00 0. -1.
    9000006    2    1    2  501    0  0.00000000000E+00  0.00000000000E+00  0.89327380574E+03  0.11067261943E+04  0.65337950461E+03 0.  0.
         13    1    3    3    0    0 -0.21763216545E+03  0.12831830449E+03  0.95814458238E+02  0.27020317747E+03  0.00000000000E+00 0. -1.
          2    1    3    3  501    0  0.21763216545E+03 -0.12831830449E+03  0.79745934750E+03  0.83652301679E+03  0.00000000000E+00 0. -1.
<mgrwt>
<rscale>  0 0.65337950E+03</rscale>
<asrwt>0</asrwt>
<pdfrwt beam="1">0</pdfrwt>
<pdfrwt beam="2">  1        2 0.38809607E+00 0.65337950E+03</pdfrwt>
<totfact> 0.44106862E+00</totfact>
</mgrwt>
</event>
<event>
 5    1  0.2354746E-004  0.4950267E+03  0.7818608E-02  0.1015085E+00
         13   -1    0    0    0    0  0.00000000000E+00  0.00000000000E+00  0.10000000000E+04  0.10000000000E+04  0.00000000000E+00 0. -1.
          2   -1    0    0  501    0 -0.00000000000E+00 -0.00000000000E+00 -0.61262851209E+02  0.61262851209E+02  0.00000000000E+00 0. -1.
    9000006    2    1    2  501    0  0.00000000000E+00  0.00000000000E+00  0.93873714879E+03  0.10612628512E+04  0.49502667083E+03 0.  0.
         13    1    3    3    0    0 -0.22687176400E+03 -0.92295810146E+02  0.39286174489E+03  0.46295751907E+03  0.00000000000E+00 0. -1.
          2    1    3    3  501    0  0.22687176400E+03  0.92295810146E+02  0.54587540390E+03  0.59830533213E+03  0.00000000000E+00 0. -1.
<mgrwt>
<rscale>  0 0.49502667E+03</rscale>
<asrwt>0</asrwt>
<pdfrwt beam="1">0</pdfrwt>
<pdfrwt beam="2">  1        2 0.22277447E+00 0.49502667E+03</pdfrwt>
<totfact> 0.17494712E+01</totfact>
</mgrwt>
</event>
<event>
 5    1  0.2354746E-004  0.6381331E+03  0.7818608E-02  0.9829305E-01
         13   -1    0    0    0    0  0.00000000000E+00  0.00000000000E+00  0.10000000000E+04  0.10000000000E+04  0.00000000000E+00 0. -1.
          2   -1    0    0  501    0 -0.00000000000E+00 -0.00000000000E+00 -0.10180346895E+03  0.10180346895E+03  0.00000000000E+00 0. -1.
    9000006    2    1    2  501    0  0.00000000000E+00  0.00000000000E+00  0.89819653105E+03  0.11018034689E+04  0.63813311761E+03 0.  0.
         13    1    3    3    0    0  0.17926106189E+03 -0.12491427233E+03  0.85056764041E+03  0.87818188017E+03  0.00000000000E+00 0. -1.
          2    1    3    3  501    0 -0.17926106189E+03  0.12491427233E+03  0.47628890638E+02  0.22362158878E+03  0.00000000000E+00 0. -1.
<mgrwt>
<rscale>  0 0.63813312E+03</rscale>
<asrwt>0</asrwt>
<pdfrwt beam="1">0</pdfrwt>
<pdfrwt beam="2">  1        2 0.37019521E+00 0.63813312E+03</pdfrwt>
<totfact> 0.51407930E+00</totfact>
</mgrwt>
</event>
<event>
 5    1  0.2354746E-004  0.6542129E+03  0.7818608E-02  0.9798906E-01
         13   -1    0    0    0    0  0.00000000000E+00  0.00000000000E+00  0.10000000000E+04  0.10000000000E+04  0.00000000000E+00 0. -1.
          2   -1    0    0  501    0 -0.00000000000E+00 -0.00000000000E+00 -0.10699863050E+03  0.10699863050E+03  0.00000000000E+00 0. -1.
    9000006    2    1    2  501    0  0.00000000000E+00  0.00000000000E+00  0.89300136950E+03  0.11069986305E+04  0.65421290266E+03 0.  0.
         13    1    3    3    0    0  0.31941151719E+03 -0.70459342789E+02  0.45195604673E+03  0.55790008467E+03  0.00000000000E+00 0. -1.
          4    1    3    3  501    0 -0.31941151719E+03  0.70459342789E+02  0.44104532277E+03  0.54909854583E+03  0.00000000000E+00 0. -1.
<mgrwt>
<rscale>  0 0.65421290E+03</rscale>
<asrwt>0</asrwt>
<pdfrwt beam="1">0</pdfrwt>
<pdfrwt beam="2">  1        2 0.38908675E+00 0.65421290E+03</pdfrwt>
<totfact> 0.43731791E+00</totfact>
</mgrwt>
</event>
<event>
 5    1  0.2354746E-004  0.6397165E+03  0.7818608E-02  0.9826269E-01
         13   -1    0    0    0    0  0.00000000000E+00  0.00000000000E+00  0.10000000000E+04  0.10000000000E+04  0.00000000000E+00 0. -1.
          2   -1    0    0  501    0 -0.00000000000E+00 -0.00000000000E+00 -0.10230929724E+03  0.10230929724E+03  0.00000000000E+00 0. -1.
    9000006    2    1    2  501    0  0.00000000000E+00  0.00000000000E+00  0.89769070276E+03  0.11023092972E+04  0.63971649107E+03 0.  0.
         13    1    3    3    0    0  0.15907681377E+03  0.10612951731E+03  0.70388906607E+01  0.19135948659E+03  0.00000000000E+00 0. -1.
          4    1    3    3  501    0 -0.15907681377E+03 -0.10612951731E+03  0.89065181210E+03  0.91094981065E+03  0.00000000000E+00 0. -1.
<mgrwt>
<rscale>  0 0.63971649E+03</rscale>
<asrwt>0</asrwt>
<pdfrwt beam="1">0</pdfrwt>
<pdfrwt beam="2">  1        2 0.37203459E+00 0.63971649E+03</pdfrwt>
<totfact> 0.50609868E+00</totfact>
</mgrwt>
</event>
<event>
 5    1  0.2354746E-004  0.6422466E+03  0.7818608E-02  0.9821438E-01
         13   -1    0    0    0    0  0.00000000000E+00  0.00000000000E+00  0.10000000000E+04  0.10000000000E+04  0.00000000000E+00 0. -1.
          2   -1    0    0  501    0 -0.00000000000E+00 -0.00000000000E+00 -0.10312018691E+03  0.10312018691E+03  0.00000000000E+00 0. -1.
    9000006    2    1    2  501    0  0.00000000000E+00  0.00000000000E+00  0.89687981309E+03  0.11031201869E+04  0.64224664082E+03 0.  0.
         13    1    3    3    0    0 -0.40356299880E+01 -0.32102356961E+03  0.46031101144E+03  0.56121176556E+03  0.00000000000E+00 0. -1.
          4    1    3    3  501    0  0.40356299880E+01  0.32102356961E+03  0.43656880165E+03  0.54190842135E+03  0.00000000000E+00 0. -1.
<mgrwt>
<rscale>  0 0.64224664E+03</rscale>
<asrwt>0</asrwt>
<pdfrwt beam="1">0</pdfrwt>
<pdfrwt beam="2">  1        2 0.37498329E+00 0.64224664E+03</pdfrwt>
<totfact> 0.49354123E+00</totfact>
</mgrwt>
</event>
<event>
 5    1  0.2354746E-004  0.6491924E+03  0.7818608E-02  0.9808296E-01
         13   -1    0    0    0    0  0.00000000000E+00  0.00000000000E+00  0.10000000000E+04  0.10000000000E+04  0.00000000000E+00 0. -1.
          2   -1    0    0  501    0 -0.00000000000E+00 -0.00000000000E+00 -0.10536267741E+03  0.10536267741E+03  0.00000000000E+00 0. -1.
    9000006    2    1    2  501    0  0.00000000000E+00  0.00000000000E+00  0.89463732259E+03  0.11053626774E+04  0.64919235182E+03 0.  0.
         13    1    3    3    0    0 -0.49785340514E+02  0.19440367344E+03  0.12915572493E+02  0.20109246726E+03  0.00000000000E+00 0. -1.
          4    1    3    3  501    0  0.49785340514E+02 -0.19440367344E+03  0.88172175009E+03  0.90427021015E+03  0.00000000000E+00 0. -1.
<mgrwt>
<rscale>  0 0.64919235E+03</rscale>
<asrwt>0</asrwt>
<pdfrwt beam="1">0</pdfrwt>
<pdfrwt beam="2">  1        2 0.38313782E+00 0.64919235E+03</pdfrwt>
<totfact> 0.46028204E+00</totfact>
</mgrwt>
</event>
<event>
 5    1  0.2354746E-004  0.6572563E+03  0.7818608E-02  0.9793258E-01
         13   -1    0    0    0    0  0.00000000000E+00  0.00000000000E+00  0.10000000000E+04  0.10000000000E+04  0.00000000000E+00 0. -1.
          2   -1    0    0  501    0 -0.00000000000E+00 -0.00000000000E+00 -0.10799645502E+03  0.10799645502E+03  0.00000000000E+00 0. -1.
    9000006    2    1    2  501    0  0.00000000000E+00  0.00000000000E+00  0.89200354498E+03  0.11079964550E+04  0.65725628190E+03 0.  0.
         13    1    3    3    0    0 -0.28091320407E+03  0.68759213941E+02  0.18290825340E+03  0.34219217829E+03  0.00000000000E+00 0. -1.
          4    1    3    3  501    0  0.28091320407E+03 -0.68759213941E+02  0.70909529158E+03  0.76580427673E+03  0.00000000000E+00 0. -1.
<mgrwt>
<rscale>  0 0.65725628E+03</rscale>
<asrwt>0</asrwt>
<pdfrwt beam="1">0</pdfrwt>
<pdfrwt beam="2">  1        2 0.39271521E+00 0.65725628E+03</pdfrwt>
<totfact> 0.42382542E+00</totfact>
</mgrwt>
</event>
<event>
 5    1  0.2354746E-004  0.6545347E+03  0.7818608E-02  0.9798307E-01
         13   -1    0    0    0    0  0.00000000000E+00  0.00000000000E+00  0.10000000000E+04  0.10000000000E+04  0.00000000000E+00 0. -1.
          2   -1    0    0  501    0 -0.00000000000E+00 -0.00000000000E+00 -0.10710391019E+03  0.10710391019E+03  0.00000000000E+00 0. -1.
    9000006    2    1    2  501    0  0.00000000000E+00  0.00000000000E+00  0.89289608981E+03  0.11071039102E+04  0.65453467498E+03 0.  0.
         13    1    3    3    0    0 -0.25621454108E+02 -0.24422391189E+03  0.81237006511E+03  0.84867361261E+03  0.00000000000E+00 0. -1.
          4    1    3    3  501    0  0.25621454108E+02  0.24422391189E+03  0.80526024703E+02  0.25843029758E+03  0.00000000000E+00 0. -1.
<mgrwt>
<rscale>  0 0.65453467E+03</rscale>
<asrwt>0</asrwt>
<pdfrwt beam="1">0</pdfrwt>
<pdfrwt beam="2">  1        2 0.38946959E+00 0.65453467E+03</pdfrwt>
<totfact> 0.43587624E+00</totfact>
</mgrwt>
</event>
<event>
 5    1  0.2354746E-004  0.6468567E+03  0.7818608E-02  0.9812695E-01
         13   -1    0    0    0    0  0.00000000000E+00  0.00000000000E+00  0.10000000000E+04  0.10000000000E+04  0.00000000000E+00 0. -1.
          2   -1    0    0  501    0 -0.00000000000E+00 -0.00000000000E+00 -0.10460590591E+03  0.10460590591E+03  0.00000000000E+00 0. -1.
    9000006    2    1    2  501    0  0.00000000000E+00  0.00000000000E+00  0.89539409409E+03  0.11046059059E+04  0.64685672574E+03 0.  0.
         13    1    3    3    0    0 -0.29300278240E+03 -0.11557569679E+03  0.57315463831E+03  0.65399893854E+03  0.00000000000E+00 0. -1.
          2    1    3    3  501    0  0.29300278240E+03  0.11557569679E+03  0.32223945578E+03  0.45060696737E+03  0.00000000000E+00 0. -1.
<mgrwt>
<rscale>  0 0.64685673E+03</rscale>
<asrwt>0</asrwt>
<pdfrwt beam="1">0</pdfrwt>
<pdfrwt beam="2">  1        2 0.38038591E+00 0.64685673E+03</pdfrwt>
<totfact> 0.47127052E+00</totfact>
</mgrwt>
</event>
<event>
 5    1  0.2354746E-004  0.5884304E+03  0.7818608E-02  0.9929704E-01
         13   -1    0    0    0    0  0.00000000000E+00  0.00000000000E+00  0.10000000000E+04  0.10000000000E+04  0.00000000000E+00 0. -1.
          2   -1    0    0  501    0 -0.00000000000E+00 -0.00000000000E+00 -0.86562594037E+02  0.86562594037E+02  0.00000000000E+00 0. -1.
    9000006    2    1    2  501    0  0.00000000000E+00  0.00000000000E+00  0.91343740596E+03  0.10865625940E+04  0.58843043442E+03 0.  0.
         13    1    3    3    0    0 -0.11549716669E+03  0.14566819576E+03  0.35626636315E+02  0.18928305784E+03  0.00000000000E+00 0. -1.
          4    1    3    3  501    0  0.11549716669E+03 -0.14566819576E+03  0.87781076965E+03  0.89727953620E+03  0.00000000000E+00 0. -1.
<mgrwt>
<rscale>  0 0.58843043E+03</rscale>
<asrwt>0</asrwt>
<pdfrwt beam="1">0</pdfrwt>
<pdfrwt beam="2">  1        2 0.31477373E+00 0.58843043E+03</pdfrwt>
<totfact> 0.81731782E+00</totfact>
</mgrwt>
</event>
<event>
 5    1  0.2354746E-004  0.6527413E+03  0.7818608E-02  0.9801649E-01
         13   -1    0    0    0    0  0.00000000000E+00  0.00000000000E+00  0.10000000000E+04  0.10000000000E+04  0.00000000000E+00 0. -1.
          2   -1    0    0  501    0 -0.00000000000E+00 -0.00000000000E+00 -0.10651779062E+03  0.10651779062E+03  0.00000000000E+00 0. -1.
    9000006    2    1    2  501    0  0.00000000000E+00  0.00000000000E+00  0.89348220938E+03  0.11065177906E+04  0.65274126763E+03 0.  0.
         13    1    3    3    0    0  0.28455312955E+02  0.32508506387E+03  0.45567700702E+03  0.56047438685E+03  0.00000000000E+00 0. -1.
          4    1    3    3  501    0 -0.28455312955E+02 -0.32508506387E+03  0.43780520236E+03  0.54604340377E+03  0.00000000000E+00 0. -1.
<mgrwt>
<rscale>  0 0.65274127E+03</rscale>
<asrwt>0</asrwt>
<pdfrwt beam="1">0</pdfrwt>
<pdfrwt beam="2">  1        2 0.38733824E+00 0.65274127E+03</pdfrwt>
<totfact> 0.44395739E+00</totfact>
</mgrwt>
</event>
<event>
 5    1  0.2354746E-004  0.6416992E+03  0.7818608E-02  0.9822481E-01
         13   -1    0    0    0    0  0.00000000000E+00  0.00000000000E+00  0.10000000000E+04  0.10000000000E+04  0.00000000000E+00 0. -1.
          2   -1    0    0  501    0 -0.00000000000E+00 -0.00000000000E+00 -0.10294446467E+03  0.10294446467E+03  0.00000000000E+00 0. -1.
    9000006    2    1    2  501    0  0.00000000000E+00  0.00000000000E+00  0.89705553533E+03  0.11029444647E+04  0.64169919643E+03 0.  0.
         13    1    3    3    0    0  0.27739779273E+03  0.59450125449E+02  0.70612010589E+03  0.76097927486E+03  0.00000000000E+00 0. -1.
          2    1    3    3  501    0 -0.27739779273E+03 -0.59450125449E+02  0.19093542944E+03  0.34196518981E+03  0.00000000000E+00 0. -1.
<mgrwt>
<rscale>  0 0.64169920E+03</rscale>
<asrwt>0</asrwt>
<pdfrwt beam="1">0</pdfrwt>
<pdfrwt beam="2">  1        2 0.37434430E+00 0.64169920E+03</pdfrwt>
<totfact> 0.49623804E+00</totfact>
</mgrwt>
</event>
<event>
 5    1  0.2354746E-004  0.6382223E+03  0.7818608E-02  0.9829134E-01
         13   -1    0    0    0    0  0.00000000000E+00  0.00000000000E+00  0.10000000000E+04  0.10000000000E+04  0.00000000000E+00 0. -1.
          2   -1    0    0  501    0 -0.00000000000E+00 -0.00000000000E+00 -0.10183193643E+03  0.10183193643E+03  0.00000000000E+00 0. -1.
    9000006    2    1    2  501    0  0.00000000000E+00  0.00000000000E+00  0.89816806357E+03  0.11018319364E+04  0.63822233252E+03 0.  0.
         13    1    3    3    0    0 -0.26887014816E+03  0.10539297244E+03  0.68347591227E+03  0.74198258595E+03  0.00000000000E+00 0. -1.
          4    1    3    3  501    0  0.26887014816E+03 -0.10539297244E+03  0.21469215130E+03  0.35984935048E+03  0.00000000000E+00 0. -1.
<mgrwt>
<rscale>  0 0.63822233E+03</rscale>
<asrwt>0</asrwt>
<pdfrwt beam="1">0</pdfrwt>
<pdfrwt beam="2">  1        2 0.37029873E+00 0.63822233E+03</pdfrwt>
<totfact> 0.51362712E+00</totfact>
</mgrwt>
</event>
<event>
 5    1  0.2354746E-004  0.4759414E+03  0.7818608E-02  0.1020257E+00
         13   -1    0    0    0    0  0.00000000000E+00  0.00000000000E+00  0.10000000000E+04  0.10000000000E+04  0.00000000000E+00 0. -1.
          2   -1    0    0  501    0 -0.00000000000E+00 -0.00000000000E+00 -0.56630050628E+02  0.56630050628E+02  0.00000000000E+00 0. -1.
    9000006    2    1    2  501    0  0.00000000000E+00  0.00000000000E+00  0.94336994937E+03  0.10566300506E+04  0.47594138558E+03 0.  0.
         13    1    3    3    0    0  0.53269596047E+02 -0.37698718650E+02 -0.36375933785E+02  0.74713130102E+02  0.00000000000E+00 0. -1.
          4    1    3    3  501    0 -0.53269596047E+02  0.37698718650E+02  0.97974588316E+03  0.98191692053E+03  0.00000000000E+00 0. -1.
<mgrwt>
<rscale>  0 0.47594139E+03</rscale>
<asrwt>0</asrwt>
<pdfrwt beam="1">0</pdfrwt>
<pdfrwt beam="2">  1        2 0.20592789E+00 0.47594139E+03</pdfrwt>
<totfact> 0.20187583E+01</totfact>
</mgrwt>
</event>
<event>
 5    1  0.2354746E-004  0.6442412E+03  0.7818608E-02  0.9817646E-01
         13   -1    0    0    0    0  0.00000000000E+00  0.00000000000E+00  0.10000000000E+04  0.10000000000E+04  0.00000000000E+00 0. -1.
          2   -1    0    0  501    0 -0.00000000000E+00 -0.00000000000E+00 -0.10376167683E+03  0.10376167683E+03  0.00000000000E+00 0. -1.
    9000006    2    1    2  501    0  0.00000000000E+00  0.00000000000E+00  0.89623832317E+03  0.11037616768E+04  0.64424118723E+03 0.  0.
         13    1    3    3    0    0 -0.10161616706E+03  0.97070535031E+02 -0.48473662879E+02  0.14865473478E+03  0.00000000000E+00 0. -1.
          4    1    3    3  501    0  0.10161616706E+03 -0.97070535031E+02  0.94471198605E+03  0.95510694205E+03  0.00000000000E+00 0. -1.
<mgrwt>
<rscale>  0 0.64424119E+03</rscale>
<asrwt>0</asrwt>
<pdfrwt beam="1">0</pdfrwt>
<pdfrwt beam="2">  1        2 0.37731598E+00 0.64424119E+03</pdfrwt>
<totfact> 0.48381017E+00</totfact>
</mgrwt>
</event>
<event>
 5    1  0.2354746E-004  0.6513421E+03  0.7818608E-02  0.9804264E-01
         13   -1    0    0    0    0  0.00000000000E+00  0.00000000000E+00  0.10000000000E+04  0.10000000000E+04  0.00000000000E+00 0. -1.
          2   -1    0    0  501    0 -0.00000000000E+00 -0.00000000000E+00 -0.10606162726E+03  0.10606162726E+03  0.00000000000E+00 0. -1.
    9000006    2    1    2  501    0  0.00000000000E+00  0.00000000000E+00  0.89393837274E+03  0.11060616273E+04  0.65134208295E+03 0.  0.
         13    1    3    3    0    0 -0.29450079577E+03  0.40217309868E+02  0.22096208254E+03  0.37036791524E+03  0.00000000000E+00 0. -1.
          2    1    3    3  501    0  0.29450079577E+03 -0.40217309868E+02  0.67297629020E+03  0.73569371201E+03  0.00000000000E+00 0. -1.
<mgrwt>
<rscale>  0 0.65134208E+03</rscale>
<asrwt>0</asrwt>
<pdfrwt beam="1">0</pdfrwt>
<pdfrwt beam="2">  1        2 0.38567946E+00 0.65134208E+03</pdfrwt>
<totfact> 0.45034034E+00</totfact>
</mgrwt>
</event>
<event>
 5    1  0.2354746E-004  0.6549678E+03  0.7818608E-02  0.9797502E-01
         13   -1    0    0    0    0  0.00000000000E+00  0.00000000000E+00  0.10000000000E+04  0.10000000000E+04  0.00000000000E+00 0. -1.
          2   -1    0    0  501    0 -0.00000000000E+00 -0.00000000000E+00 -0.10724569396E+03  0.10724569396E+03  0.00000000000E+00 0. -1.
    9000006    2    1    2  501    0  0.00000000000E+00  0.00000000000E+00  0.89275430604E+03  0.11072456940E+04  0.65496776703E+03 0.  0.
         13    1    3    3    0    0 -0.19509591218E+03 -0.16911013337E+03  0.10580661827E+03  0.27902632964E+03  0.00000000000E+00 0. -1.
          4    1    3    3  501    0  0.19509591218E+03  0.16911013337E+03  0.78694768777E+03  0.82821936433E+03  0.00000000000E+00 0. -1.
<mgrwt>
<rscale>  0 0.65496777E+03</rscale>
<asrwt>0</asrwt>
<pdfrwt beam="1">0</pdfrwt>
<pdfrwt beam="2">  1        2 0.38998516E+00 0.65496777E+03</pdfrwt>
<totfact> 0.43394148E+00</totfact>
</mgrwt>
</event>
<event>
 5    1  0.2354746E-004  0.6480831E+03  0.7818608E-02  0.9810383E-01
         13   -1    0    0    0    0  0.00000000000E+00  0.00000000000E+00  0.10000000000E+04  0.10000000000E+04  0.00000000000E+00 0. -1.
          2   -1    0    0  501    0 -0.00000000000E+00 -0.00000000000E+00 -0.10500294005E+03  0.10500294005E+03  0.00000000000E+00 0. -1.
    9000006    2    1    2  501    0  0.00000000000E+00  0.00000000000E+00  0.89499705995E+03  0.11050029400E+04  0.64808314296E+03 0.  0.
         13    1    3    3    0    0  0.36255414443E+02  0.30738671764E+03  0.28394073553E+03  0.42002784497E+03  0.00000000000E+00 0. -1.
          4    1    3    3  501    0 -0.36255414443E+02 -0.30738671764E+03  0.61105632442E+03  0.68497509507E+03  0.00000000000E+00 0. -1.
<mgrwt>
<rscale>  0 0.64808314E+03</rscale>
<asrwt>0</asrwt>
<pdfrwt beam="1">0</pdfrwt>
<pdfrwt beam="2">  1        2 0.38182968E+00 0.64808314E+03</pdfrwt>
<totfact> 0.46547613E+00</totfact>
</mgrwt>
</event>
<event>
 5    1  0.2354746E-004  0.6544328E+03  0.7818608E-02  0.9798497E-01
         13   -1    0    0    0    0  0.00000000000E+00  0.00000000000E+00  0.10000000000E+04  0.10000000000E+04  0.00000000000E+00 0. -1.
          2   -1    0    0  501    0 -0.00000000000E+00 -0.00000000000E+00 -0.10707057936E+03  0.10707057936E+03  0.00000000000E+00 0. -1.
    9000006    2    1    2  501    0  0.00000000000E+00  0.00000000000E+00  0.89292942064E+03  0.11070705794E+04  0.65443282117E+03 0.  0.
         13    1    3    3    0    0 -0.77101019167E+02  0.25335339524E+03  0.12134197997E+03  0.29130119488E+03  0.00000000000E+00 0. -1.
          4    1    3    3  501    0  0.77101019167E+02 -0.25335339524E+03  0.77158744067E+03  0.81576938447E+03  0.00000000000E+00 0. -1.
<mgrwt>
<rscale>  0 0.65443282E+03</rscale>
<asrwt>0</asrwt>
<pdfrwt beam="1">0</pdfrwt>
<pdfrwt beam="2">  1        2 0.38934838E+00 0.65443282E+03</pdfrwt>
<totfact> 0.43633220E+00</totfact>
</mgrwt>
</event>
<event>
 5    1  0.2354746E-004  0.6462604E+03  0.7818608E-02  0.9813822E-01
         13   -1    0    0    0    0  0.00000000000E+00  0.00000000000E+00  0.10000000000E+04  0.10000000000E+04  0.00000000000E+00 0. -1.
          2   -1    0    0  501    0 -0.00000000000E+00 -0.00000000000E+00 -0.10441313875E+03  0.10441313875E+03  0.00000000000E+00 0. -1.
    9000006    2    1    2  501    0  0.00000000000E+00  0.00000000000E+00  0.89558686125E+03  0.11044131387E+04  0.64626043898E+03 0.  0.
         13    1    3    3    0    0  0.31555207118E+03  0.22404442249E+02  0.56035037007E+03  0.64348085122E+03  0.00000000000E+00 0. -1.
          2    1    3    3  501    0 -0.31555207118E+03 -0.22404442249E+02  0.33523649119E+03  0.46093228752E+03  0.00000000000E+00 0. -1.
<mgrwt>
<rscale>  0 0.64626044E+03</rscale>
<asrwt>0</asrwt>
<pdfrwt beam="1">0</pdfrwt>
<pdfrwt beam="2">  1        2 0.37968494E+00 0.64626044E+03</pdfrwt>
<totfact> 0.47410740E+00</totfact>
</mgrwt>
</event>
<event>
 5    1  0.2354746E-004  0.6476975E+03  0.7818608E-02  0.9811109E-01
         13   -1    0    0    0    0  0.00000000000E+00  0.00000000000E+00  0.10000000000E+04  0.10000000000E+04  0.00000000000E+00 0. -1.
          2   -1    0    0  501    0 -0.00000000000E+00 -0.00000000000E+00 -0.10487802720E+03  0.10487802720E+03  0.00000000000E+00 0. -1.
    9000006    2    1    2  501    0  0.00000000000E+00  0.00000000000E+00  0.89512197280E+03  0.11048780272E+04  0.64769754422E+03 0.  0.
         13    1    3    3    0    0  0.14506718817E+03 -0.22703657643E+03  0.75408337074E+03  0.80076952124E+03  0.00000000000E+00 0. -1.
          4    1    3    3  501    0 -0.14506718817E+03  0.22703657643E+03  0.14103860206E+03  0.30410850595E+03  0.00000000000E+00 0. -1.
<mgrwt>
<rscale>  0 0.64769754E+03</rscale>
<asrwt>0</asrwt>
<pdfrwt beam="1">0</pdfrwt>
<pdfrwt beam="2">  1        2 0.38137545E+00 0.64769754E+03</pdfrwt>
<totfact> 0.46729211E+00</totfact>
</mgrwt>
</event>
<event>
 5    1  0.2354746E-004  0.6362888E+03  0.7818608E-02  0.9832853E-01
         13   -1    0    0    0    0  0.00000000000E+00  0.00000000000E+00  0.10000000000E+04  0.10000000000E+04  0.00000000000E+00 0. -1.
          2   -1    0    0  501    0 -0.00000000000E+00 -0.00000000000E+00 -0.10121585896E+03  0.10121585896E+03  0.00000000000E+00 0. -1.
    9000006    2    1    2  501    0  0.00000000000E+00  0.00000000000E+00  0.89878414104E+03  0.11012158590E+04  0.63628879908E+03 0.  0.
         13    1    3    3    0    0 -0.10665309550E+03 -0.28584861268E+03  0.29332734164E+03  0.42323190038E+03  0.00000000000E+00 0. -1.
          2    1    3    3  501    0  0.10665309550E+03  0.28584861268E+03  0.60545679940E+03  0.67798395858E+03  0.00000000000E+00 0. -1.
<mgrwt>
<rscale>  0 0.63628880E+03</rscale>
<asrwt>0</asrwt>
<pdfrwt beam="1">0</pdfrwt>
<pdfrwt beam="2">  1        2 0.36805845E+00 0.63628880E+03</pdfrwt>
<totfact> 0.52349495E+00</totfact>
</mgrwt>
</event>
<event>
 5    1  0.2354746E-004  0.6647563E+03  0.7818608E-02  0.9779477E-01
         13   -1    0    0    0    0  0.00000000000E+00  0.00000000000E+00  0.10000000000E+04  0.10000000000E+04  0.00000000000E+00 0. -1.
          2   -1    0    0  501    0 -0.00000000000E+00 -0.00000000000E+00 -0.11047522088E+03  0.11047522088E+03  0.00000000000E+00 0. -1.
    9000006    2    1    2  501    0  0.00000000000E+00  0.00000000000E+00  0.88952477912E+03  0.11104752209E+04  0.66475625874E+03 0.  0.
         13    1    3    3    0    0 -0.20309356489E+03  0.53954760963E+02  0.14573461590E+02  0.21064305855E+03  0.00000000000E+00 0. -1.
          4    1    3    3  501    0  0.20309356489E+03 -0.53954760963E+02  0.87495131753E+03  0.89983216234E+03  0.00000000000E+00 0. -1.
<mgrwt>
<rscale>  0 0.66475626E+03</rscale>
<asrwt>0</asrwt>
<pdfrwt beam="1">0</pdfrwt>
<pdfrwt beam="2">  1        2 0.40172892E+00 0.66475626E+03</pdfrwt>
<totfact> 0.39191856E+00</totfact>
</mgrwt>
</event>
<event>
 5    1  0.2354746E-004  0.6464821E+03  0.7818608E-02  0.9813403E-01
         13   -1    0    0    0    0  0.00000000000E+00  0.00000000000E+00  0.10000000000E+04  0.10000000000E+04  0.00000000000E+00 0. -1.
          2   -1    0    0  501    0 -0.00000000000E+00 -0.00000000000E+00 -0.10448477096E+03  0.10448477096E+03  0.00000000000E+00 0. -1.
    9000006    2    1    2  501    0  0.00000000000E+00  0.00000000000E+00  0.89551522904E+03  0.11044847710E+04  0.64648208317E+03 0.  0.
         13    1    3    3    0    0  0.28098148328E+03  0.12636983997E+03  0.61484440100E+03  0.68771619716E+03  0.00000000000E+00 0. -1.
          4    1    3    3  501    0 -0.28098148328E+03 -0.12636983997E+03  0.28067082803E+03  0.41676857380E+03  0.00000000000E+00 0. -1.
<mgrwt>
<rscale>  0 0.64648208E+03</rscale>
<asrwt>0</asrwt>
<pdfrwt beam="1">0</pdfrwt>
<pdfrwt beam="2">  1        2 0.37994542E+00 0.64648208E+03</pdfrwt>
<totfact> 0.47305141E+00</totfact>
</mgrwt>
</event>
<event>
 5    1  0.2354746E-004  0.6417449E+03  0.7818608E-02  0.9822394E-01
         13   -1    0    0    0    0  0.00000000000E+00  0.00000000000E+00  0.10000000000E+04  0.10000000000E+04  0.00000000000E+00 0. -1.
          2   -1    0    0  501    0 -0.00000000000E+00 -0.00000000000E+00 -0.10295913128E+03  0.10295913128E+03  0.00000000000E+00 0. -1.
    9000006    2    1    2  501    0  0.00000000000E+00  0.00000000000E+00  0.89704086872E+03  0.11029591313E+04  0.64174490658E+03 0.  0.
         13    1    3    3    0    0  0.67951652594E+02  0.22537160164E+03  0.73746600773E+02  0.24667457721E+03  0.00000000000E+00 0. -1.
          4    1    3    3  501    0 -0.67951652594E+02 -0.22537160164E+03  0.82329426795E+03  0.85628455407E+03  0.00000000000E+00 0. -1.
<mgrwt>
<rscale>  0 0.64174491E+03</rscale>
<asrwt>0</asrwt>
<pdfrwt beam="1">0</pdfrwt>
<pdfrwt beam="2">  1        2 0.37439763E+00 0.64174491E+03</pdfrwt>
<totfact> 0.49601244E+00</totfact>
</mgrwt>
</event>
<event>
 5    1  0.2354746E-004  0.6692944E+03  0.7818608E-02  0.9771233E-01
         13   -1    0    0    0    0  0.00000000000E+00  0.00000000000E+00  0.10000000000E+04  0.10000000000E+04  0.00000000000E+00 0. -1.
          2   -1    0    0  501    0 -0.00000000000E+00 -0.00000000000E+00 -0.11198873802E+03  0.11198873802E+03  0.00000000000E+00 0. -1.
    9000006    2    1    2  501    0  0.00000000000E+00  0.00000000000E+00  0.88801126198E+03  0.11119887380E+04  0.66929436879E+03 0.  0.
         13    1    3    3    0    0  0.24814489530E+03  0.10868131149E+03  0.77043087816E+03  0.81667083611E+03  0.00000000000E+00 0. -1.
          2    1    3    3  501    0 -0.24814489530E+03 -0.10868131149E+03  0.11758038381E+03  0.29531790191E+03  0.00000000000E+00 0. -1.
<mgrwt>
<rscale>  0 0.66929437E+03</rscale>
<asrwt>0</asrwt>
<pdfrwt beam="1">0</pdfrwt>
<pdfrwt beam="2">  1        2 0.40723263E+00 0.66929437E+03</pdfrwt>
<totfact> 0.37351370E+00</totfact>
</mgrwt>
</event>
<event>
 5    1  0.2354746E-004  0.6486745E+03  0.7818608E-02  0.9809269E-01
         13   -1    0    0    0    0  0.00000000000E+00  0.00000000000E+00  0.10000000000E+04  0.10000000000E+04  0.00000000000E+00 0. -1.
          2   -1    0    0  501    0 -0.00000000000E+00 -0.00000000000E+00 -0.10519466628E+03  0.10519466628E+03  0.00000000000E+00 0. -1.
    9000006    2    1    2  501    0  0.00000000000E+00  0.00000000000E+00  0.89480533372E+03  0.11051946663E+04  0.64867454483E+03 0.  0.
         13    1    3    3    0    0  0.23285008746E+03  0.85678924004E+02  0.91503026880E+02  0.26444818997E+03  0.00000000000E+00 0. -1.
          2    1    3    3  501    0 -0.23285008746E+03 -0.85678924004E+02  0.80330230684E+03  0.84074647631E+03  0.00000000000E+00 0. -1.
<mgrwt>
<rscale>  0 0.64867454E+03</rscale>
<asrwt>0</asrwt>
<pdfrwt beam="1">0</pdfrwt>
<pdfrwt beam="2">  1        2 0.38252687E+00 0.64867454E+03</pdfrwt>
<totfact> 0.46270129E+00</totfact>
</mgrwt>
</event>
<event>
 5    1  0.2354746E-004  0.6561101E+03  0.7818608E-02  0.9795381E-01
         13   -1    0    0    0    0  0.00000000000E+00  0.00000000000E+00  0.10000000000E+04  0.10000000000E+04  0.00000000000E+00 0. -1.
          2   -1    0    0  501    0 -0.00000000000E+00 -0.00000000000E+00 -0.10762011590E+03  0.10762011590E+03  0.00000000000E+00 0. -1.
    9000006    2    1    2  501    0  0.00000000000E+00  0.00000000000E+00  0.89237988410E+03  0.11076201159E+04  0.65611010020E+03 0.  0.
         13    1    3    3    0    0 -0.18254213669E+03 -0.26685193513E+03  0.35237112577E+03  0.47822274855E+03  0.00000000000E+00 0. -1.
          4    1    3    3  501    0  0.18254213669E+03  0.26685193513E+03  0.54000875833E+03  0.62939736735E+03  0.00000000000E+00 0. -1.
<mgrwt>
<rscale>  0 0.65611010E+03</rscale>
<asrwt>0</asrwt>
<pdfrwt beam="1">0</pdfrwt>
<pdfrwt beam="2">  1        2 0.39134670E+00 0.65611010E+03</pdfrwt>
<totfact> 0.42886943E+00</totfact>
</mgrwt>
</event>
<event>
 5    1  0.2354746E-004  0.6188220E+03  0.7818608E-02  0.9867108E-01
         13   -1    0    0    0    0  0.00000000000E+00  0.00000000000E+00  0.10000000000E+04  0.10000000000E+04  0.00000000000E+00 0. -1.
          2   -1    0    0  501    0 -0.00000000000E+00 -0.00000000000E+00 -0.95735172211E+02  0.95735172211E+02  0.00000000000E+00 0. -1.
    9000006    2    1    2  501    0  0.00000000000E+00  0.00000000000E+00  0.90426482779E+03  0.10957351722E+04  0.61882201710E+03 0.  0.
         13    1    3    3    0    0 -0.25816270857E+03 -0.14281284832E+03  0.61721135382E+03  0.68410039396E+03  0.00000000000E+00 0. -1.
          2    1    3    3  501    0  0.25816270857E+03  0.14281284832E+03  0.28705347397E+03  0.41163477825E+03  0.00000000000E+00 0. -1.
<mgrwt>
<rscale>  0 0.61882202E+03</rscale>
<asrwt>0</asrwt>
<pdfrwt beam="1">0</pdfrwt>
<pdfrwt beam="2">  1        2 0.34812863E+00 0.61882202E+03</pdfrwt>
<totfact> 0.61930458E+00</totfact>
</mgrwt>
</event>
<event>
 5    1  0.2354746E-004  0.6470027E+03  0.7818608E-02  0.9812420E-01
         13   -1    0    0    0    0  0.00000000000E+00  0.00000000000E+00  0.10000000000E+04  0.10000000000E+04  0.00000000000E+00 0. -1.
          2   -1    0    0  501    0 -0.00000000000E+00 -0.00000000000E+00 -0.10465313911E+03  0.10465313911E+03  0.00000000000E+00 0. -1.
    9000006    2    1    2  501    0  0.00000000000E+00  0.00000000000E+00  0.89534686089E+03  0.11046531391E+04  0.64700274841E+03 0.  0.
         13    1    3    3    0    0  0.17617454146E+03  0.21885606679E+03  0.72147491695E+03  0.77424899277E+03  0.00000000000E+00 0. -1.
          4    1    3    3  501    0 -0.17617454146E+03 -0.21885606679E+03  0.17387194394E+03  0.33040414634E+03  0.00000000000E+00 0. -1.
<mgrwt>
<rscale>  0 0.64700275E+03</rscale>
<asrwt>0</asrwt>
<pdfrwt beam="1">0</pdfrwt>
<pdfrwt beam="2">  1        2 0.38055767E+00 0.64700275E+03</pdfrwt>
<totfact> 0.47057777E+00</totfact>
</mgrwt>
</event>
<event>
 5    1  0.2354746E-004  0.6464163E+03  0.7818608E-02  0.9813527E-01
         13   -1    0    0    0    0  0.00000000000E+00  0.00000000000E+00  0.10000000000E+04  0.10000000000E+04  0.00000000000E+00 0. -1.
          2   -1    0    0  501    0 -0.00000000000E+00 -0.00000000000E+00 -0.10446350486E+03  0.10446350486E+03  0.00000000000E+00 0. -1.
    9000006    2    1    2  501    0  0.00000000000E+00  0.00000000000E+00  0.89553649514E+03  0.11044635049E+04  0.64641628958E+03 0.  0.
         13    1    3    3    0    0 -0.30822815930E+03 -0.67248926383E+02  0.32772212255E+03  0.45489427991E+03  0.00000000000E+00 0. -1.
          4    1    3    3  501    0  0.30822815930E+03  0.67248926383E+02  0.56781437259E+03  0.64956922495E+03  0.00000000000E+00 0. -1.
<mgrwt>
<rscale>  0 0.64641629E+03</rscale>
<asrwt>0</asrwt>
<pdfrwt beam="1">0</pdfrwt>
<pdfrwt beam="2">  1        2 0.37986809E+00 0.64641629E+03</pdfrwt>
<totfact> 0.47336469E+00</totfact>
</mgrwt>
</event>
<event>
 5    1  0.2354746E-004  0.6501741E+03  0.7818608E-02  0.9806453E-01
         13   -1    0    0    0    0  0.00000000000E+00  0.00000000000E+00  0.10000000000E+04  0.10000000000E+04  0.00000000000E+00 0. -1.
          2   -1    0    0  501    0 -0.00000000000E+00 -0.00000000000E+00 -0.10568159225E+03  0.10568159225E+03  0.00000000000E+00 0. -1.
    9000006    2    1    2  501    0  0.00000000000E+00  0.00000000000E+00  0.89431840775E+03  0.11056815922E+04  0.65017410668E+03 0.  0.
         13    1    3    3    0    0 -0.25917664554E+03 -0.18896201267E+03  0.53718495309E+03  0.62565713427E+03  0.00000000000E+00 0. -1.
          4    1    3    3  501    0  0.25917664554E+03  0.18896201267E+03  0.35713345466E+03  0.48002445798E+03  0.00000000000E+00 0. -1.
<mgrwt>
<rscale>  0 0.65017411E+03</rscale>
<asrwt>0</asrwt>
<pdfrwt beam="1">0</pdfrwt>
<pdfrwt beam="2">  1        2 0.38429751E+00 0.65017411E+03</pdfrwt>
<totfact> 0.45572144E+00</totfact>
</mgrwt>
</event>
<event>
 5    1  0.2354746E-004  0.5726552E+03  0.7818608E-02  0.9963820E-01
         13   -1    0    0    0    0  0.00000000000E+00  0.00000000000E+00  0.10000000000E+04  0.10000000000E+04  0.00000000000E+00 0. -1.
          2   -1    0    0  501    0 -0.00000000000E+00 -0.00000000000E+00 -0.81983487349E+02  0.81983487349E+02  0.00000000000E+00 0. -1.
    9000006    2    1    2  501    0  0.00000000000E+00  0.00000000000E+00  0.91801651265E+03  0.10819834873E+04  0.57265517495E+03 0.  0.
         13    1    3    3    0    0 -0.30877047646E+02 -0.28461840392E+03  0.45005405642E+03  0.53339448968E+03  0.00000000000E+00 0. -1.
          2    1    3    3  501    0  0.30877047646E+02  0.28461840392E+03  0.46796245623E+03  0.54858899767E+03  0.00000000000E+00 0. -1.
<mgrwt>
<rscale>  0 0.57265517E+03</rscale>
<asrwt>0</asrwt>
<pdfrwt beam="1">0</pdfrwt>
<pdfrwt beam="2">  1        2 0.29812240E+00 0.57265517E+03</pdfrwt>
<totfact> 0.93766732E+00</totfact>
</mgrwt>
</event>
<event>
 5    1  0.2354746E-004  0.6652734E+03  0.7818608E-02  0.9778534E-01
         13   -1    0    0    0    0  0.00000000000E+00  0.00000000000E+00  0.10000000000E+04  0.10000000000E+04  0.00000000000E+00 0. -1.
          2   -1    0    0  501    0 -0.00000000000E+00 -0.00000000000E+00 -0.11064718182E+03  0.11064718182E+03  0.00000000000E+00 0. -1.
    9000006    2    1    2  501    0  0.00000000000E+00  0.00000000000E+00  0.88935281818E+03  0.11106471818E+04  0.66527342294E+03 0.  0.
         13    1    3    3    0    0 -0.32883454345E+03  0.29822783706E+02  0.51198745195E+03  0.60922303498E+03  0.00000000000E+00 0. -1.
          4    1    3    3  501    0  0.32883454345E+03 -0.29822783706E+02  0.37736536624E+03  0.50142414684E+03  0.00000000000E+00 0. -1.
<mgrwt>
<rscale>  0 0.66527342E+03</rscale>
<asrwt>0</asrwt>
<pdfrwt beam="1">0</pdfrwt>
<pdfrwt beam="2">  1        2 0.40235424E+00 0.66527342E+03</pdfrwt>
<totfact> 0.38978734E+00</totfact>
</mgrwt>
</event>
<event>
 5    1  0.2354746E-004  0.6261016E+03  0.7818608E-02  0.9852686E-01
         13   -1    0    0    0    0  0.00000000000E+00  0.00000000000E+00  0.10000000000E+04  0.10000000000E+04  0.00000000000E+00 0. -1.
          2   -1    0    0  501    0 -0.00000000000E+00 -0.00000000000E+00 -0.98000794399E+02  0.98000794399E+02  0.00000000000E+00 0. -1.
    9000006    2    1    2  501    0  0.00000000000E+00  0.00000000000E+00  0.90199920560E+03  0.10980007944E+04  0.62610157131E+03 0.  0.
         13    1    3    3    0    0 -0.63033921524E+02 -0.20615558307E+03  0.52913558442E+02  0.22197577426E+03  0.00000000000E+00 0. -1.
          4    1    3    3  501    0  0.63033921524E+02  0.20615558307E+03  0.84908564716E+03  0.87602502014E+03  0.00000000000E+00 0. -1.
<mgrwt>
<rscale>  0 0.62610157E+03</rscale>
<asrwt>0</asrwt>
<pdfrwt beam="1">0</pdfrwt>
<pdfrwt beam="2">  1        2 0.35636728E+00 0.62610157E+03</pdfrwt>
<totfact> 0.57788268E+00</totfact>
</mgrwt>
</event>
<event>
 5    1  0.2354746E-004  0.5911137E+03  0.7818608E-02  0.9924016E-01
         13   -1    0    0    0    0  0.00000000000E+00  0.00000000000E+00  0.10000000000E+04  0.10000000000E+04  0.00000000000E+00 0. -1.
          2   -1    0    0  501    0 -0.00000000000E+00 -0.00000000000E+00 -0.87353848639E+02  0.87353848639E+02  0.00000000000E+00 0. -1.
    9000006    2    1    2  501    0  0.00000000000E+00  0.00000000000E+00  0.91264615136E+03  0.10873538486E+04  0.59111369004E+03 0.  0.
         13    1    3    3    0    0  0.70957753316E+02  0.28415215562E+03  0.38328776806E+03  0.48237637115E+03  0.00000000000E+00 0. -1.
          2    1    3    3  501    0 -0.70957753316E+02 -0.28415215562E+03  0.52935838330E+03  0.60497747749E+03  0.00000000000E+00 0. -1.
<mgrwt>
<rscale>  0 0.59111369E+03</rscale>
<asrwt>0</asrwt>
<pdfrwt beam="1">0</pdfrwt>
<pdfrwt beam="2">  1        2 0.31765103E+00 0.59111369E+03</pdfrwt>
<totfact> 0.79809672E+00</totfact>
</mgrwt>
</event>
<event>
 5    1  0.2354746E-004  0.6431594E+03  0.7818608E-02  0.9819700E-01
         13   -1    0    0    0    0  0.00000000000E+00  0.00000000000E+00  0.10000000000E+04  0.10000000000E+04  0.00000000000E+00 0. -1.
          2   -1    0    0  501    0 -0.00000000000E+00 -0.00000000000E+00 -0.10341351509E+03  0.10341351509E+03  0.00000000000E+00 0. -1.
    9000006    2    1    2  501    0  0.00000000000E+00  0.00000000000E+00  0.89658648491E+03  0.11034135151E+04  0.64315943618E+03 0.  0.
         13    1    3    3    0    0 -0.16933241178E+03 -0.23076640566E+03  0.19681136701E+03  0.34736337436E+03  0.00000000000E+00 0. -1.
          4    1    3    3  501    0  0.16933241178E+03  0.23076640566E+03  0.69977511790E+03  0.75605014073E+03  0.00000000000E+00 0. -1.
<mgrwt>
<rscale>  0 0.64315944E+03</rscale>
<asrwt>0</asrwt>
<pdfrwt beam="1">0</pdfrwt>
<pdfrwt beam="2">  1        2 0.37604994E+00 0.64315944E+03</pdfrwt>
<totfact> 0.48906954E+00</totfact>
</mgrwt>
</event>
<event>
 5    1  0.2354746E-004  0.6561065E+03  0.7818608E-02  0.9795388E-01
         13   -1    0    0    0    0  0.00000000000E+00  0.00000000000E+00  0.10000000000E+04  0.10000000000E+04  0.00000000000E+00 0. -1.
          2   -1    0    0  501    0 -0.00000000000E+00 -0.00000000000E+00 -0.10761893585E+03  0.10761893585E+03  0.00000000000E+00 0. -1.
    9000006    2    1    2  501    0  0.00000000000E+00  0.00000000000E+00  0.89238106415E+03  0.11076189358E+04  0.65610650309E+03 0.  0.
         13    1    3    3    0    0 -0.24402899948E+03 -0.20193899311E+03  0.30205777146E+03  0.43768528285E+03  0.00000000000E+00 0. -1.
          4    1    3    3  501    0  0.24402899948E+03  0.20193899311E+03  0.59032329269E+03  0.66993365300E+03  0.00000000000E+00 0. -1.
<mgrwt>
<rscale>  0 0.65610650E+03</rscale>
<asrwt>0</asrwt>
<pdfrwt beam="1">0</pdfrwt>
<pdfrwt beam="2">  1        2 0.39134241E+00 0.65610650E+03</pdfrwt>
<totfact> 0.42888533E+00</totfact>
</mgrwt>
</event>
<event>
 5    1  0.2354746E-004  0.6562527E+03  0.7818608E-02  0.9795117E-01
         13   -1    0    0    0    0  0.00000000000E+00  0.00000000000E+00  0.10000000000E+04  0.10000000000E+04  0.00000000000E+00 0. -1.
          2   -1    0    0  501    0 -0.00000000000E+00 -0.00000000000E+00 -0.10766691568E+03  0.10766691568E+03  0.00000000000E+00 0. -1.
    9000006    2    1    2  501    0  0.00000000000E+00  0.00000000000E+00  0.89233308432E+03  0.11076669157E+04  0.65625274302E+03 0.  0.
         13    1    3    3    0    0 -0.22632597078E+03 -0.20962506199E+03  0.63488180476E+03  0.70586189703E+03  0.00000000000E+00 0. -1.
          2    1    3    3  501    0  0.22632597078E+03  0.20962506199E+03  0.25745127955E+03  0.40180501865E+03  0.00000000000E+00 0. -1.
<mgrwt>
<rscale>  0 0.65625274E+03</rscale>
<asrwt>0</asrwt>
<pdfrwt beam="1">0</pdfrwt>
<pdfrwt beam="2">  1        2 0.39151688E+00 0.65625274E+03</pdfrwt>
<totfact> 0.42823925E+00</totfact>
</mgrwt>
</event>
<event>
 5    1  0.2354746E-004  0.6553616E+03  0.7818608E-02  0.9796770E-01
         13   -1    0    0    0    0  0.00000000000E+00  0.00000000000E+00  0.10000000000E+04  0.10000000000E+04  0.00000000000E+00 0. -1.
          2   -1    0    0  501    0 -0.00000000000E+00 -0.00000000000E+00 -0.10737469733E+03  0.10737469733E+03  0.00000000000E+00 0. -1.
    9000006    2    1    2  501    0  0.00000000000E+00  0.00000000000E+00  0.89262530267E+03  0.11073746973E+04  0.65536157144E+03 0.  0.
         13    1    3    3    0    0  0.11997481784E+03 -0.41603465068E+02  0.95673514369E+03  0.96512534958E+03  0.00000000000E+00 0. -1.
          2    1    3    3  501    0 -0.11997481784E+03  0.41603465068E+02 -0.64109841021E+02  0.14224934775E+03  0.00000000000E+00 0. -1.
<mgrwt>
<rscale>  0 0.65536157E+03</rscale>
<asrwt>0</asrwt>
<pdfrwt beam="1">0</pdfrwt>
<pdfrwt beam="2">  1        2 0.39045427E+00 0.65536157E+03</pdfrwt>
<totfact> 0.43218787E+00</totfact>
</mgrwt>
</event>
<event>
 5    1  0.2354746E-004  0.6375563E+03  0.7818608E-02  0.9830413E-01
         13   -1    0    0    0    0  0.00000000000E+00  0.00000000000E+00  0.10000000000E+04  0.10000000000E+04  0.00000000000E+00 0. -1.
          2   -1    0    0  501    0 -0.00000000000E+00 -0.00000000000E+00 -0.10161951513E+03  0.10161951513E+03  0.00000000000E+00 0. -1.
    9000006    2    1    2  501    0  0.00000000000E+00  0.00000000000E+00  0.89838048487E+03  0.11016195151E+04  0.63755631950E+03 0.  0.
         13    1    3    3    0    0  0.22237974746E+02  0.25784808857E+03  0.12760364682E+03  0.28855303669E+03  0.00000000000E+00 0. -1.
          4    1    3    3  501    0 -0.22237974746E+02 -0.25784808857E+03  0.77077683804E+03  0.81306647844E+03  0.00000000000E+00 0. -1.
<mgrwt>
<rscale>  0 0.63755632E+03</rscale>
<asrwt>0</asrwt>
<pdfrwt beam="1">0</pdfrwt>
<pdfrwt beam="2">  1        2 0.36952629E+00 0.63755632E+03</pdfrwt>
<totfact> 0.51701007E+00</totfact>
</mgrwt>
</event>
<event>
 5    1  0.2354746E-004  0.6592896E+03  0.7818608E-02  0.9789502E-01
         13   -1    0    0    0    0  0.00000000000E+00  0.00000000000E+00  0.10000000000E+04  0.10000000000E+04  0.00000000000E+00 0. -1.
          2   -1    0    0  501    0 -0.00000000000E+00 -0.00000000000E+00 -0.10866569552E+03  0.10866569552E+03  0.00000000000E+00 0. -1.
    9000006    2    1    2  501    0  0.00000000000E+00  0.00000000000E+00  0.89133430448E+03  0.11086656955E+04  0.65928960411E+03 0.  0.
         13    1    3    3    0    0  0.10440478134E+03  0.31104497580E+03  0.39205685633E+03  0.51123176146E+03  0.00000000000E+00 0. -1.
          2    1    3    3  501    0 -0.10440478134E+03 -0.31104497580E+03  0.49927744815E+03  0.59743393406E+03  0.00000000000E+00 0. -1.
<mgrwt>
<rscale>  0 0.65928960E+03</rscale>
<asrwt>0</asrwt>
<pdfrwt beam="1">0</pdfrwt>
<pdfrwt beam="2">  1        2 0.39514882E+00 0.65928960E+03</pdfrwt>
<totfact> 0.41498811E+00</totfact>
</mgrwt>
</event>
<event>
 5    1  0.2354746E-004  0.6380741E+03  0.7818608E-02  0.9829418E-01
         13   -1    0    0    0    0  0.00000000000E+00  0.00000000000E+00  0.10000000000E+04  0.10000000000E+04  0.00000000000E+00 0. -1.
          2   -1    0    0  501    0 -0.00000000000E+00 -0.00000000000E+00 -0.10178463901E+03  0.10178463901E+03  0.00000000000E+00 0. -1.
    9000006    2    1    2  501    0  0.00000000000E+00  0.00000000000E+00  0.89821536099E+03  0.11017846390E+04  0.63807409917E+03 0.  0.
         13    1    3    3    0    0  0.34254960455E+02  0.11748241301E+03 -0.59646829692E+02  0.13613693097E+03  0.00000000000E+00 0. -1.
          4    1    3    3  501    0 -0.34254960455E+02 -0.11748241301E+03  0.95786219069E+03  0.96564770803E+03  0.00000000000E+00 0. -1.
<mgrwt>
<rscale>  0 0.63807410E+03</rscale>
<asrwt>0</asrwt>
<pdfrwt beam="1">0</pdfrwt>
<pdfrwt beam="2">  1        2 0.37012674E+00 0.63807410E+03</pdfrwt>
<totfact> 0.51437860E+00</totfact>
</mgrwt>
</event>
<event>
 5    1  0.2354746E-004  0.6441935E+03  0.7818608E-02  0.9817736E-01
         13   -1    0    0    0    0  0.00000000000E+00  0.00000000000E+00  0.10000000000E+04  0.10000000000E+04  0.00000000000E+00 0. -1.
          2   -1    0    0  501    0 -0.00000000000E+00 -0.00000000000E+00 -0.10374630566E+03  0.10374630566E+03  0.00000000000E+00 0. -1.
    9000006    2    1    2  501    0  0.00000000000E+00  0.00000000000E+00  0.89625369434E+03  0.11037463057E+04  0.64419346678E+03 0.  0.
         13    1    3    3    0    0  0.20110288160E+03  0.48867703134E+02  0.25245797904E+02  0.20848926042E+03  0.00000000000E+00 0. -1.
          2    1    3    3  501    0 -0.20110288160E+03 -0.48867703134E+02  0.87100789644E+03  0.89525704524E+03  0.00000000000E+00 0. -1.
<mgrwt>
<rscale>  0 0.64419347E+03</rscale>
<asrwt>0</asrwt>
<pdfrwt beam="1">0</pdfrwt>
<pdfrwt beam="2">  1        2 0.37726009E+00 0.64419347E+03</pdfrwt>
<totfact> 0.48404128E+00</totfact>
</mgrwt>
</event>
<event>
 5    1  0.2354746E-004  0.6590147E+03  0.7818608E-02  0.9790009E-01
         13   -1    0    0    0    0  0.00000000000E+00  0.00000000000E+00  0.10000000000E+04  0.10000000000E+04  0.00000000000E+00 0. -1.
          2   -1    0    0  501    0 -0.00000000000E+00 -0.00000000000E+00 -0.10857510269E+03  0.10857510269E+03  0.00000000000E+00 0. -1.
    9000006    2    1    2  501    0  0.00000000000E+00  0.00000000000E+00  0.89142489731E+03  0.11085751027E+04  0.65901472728E+03 0.  0.
         13    1    3    3    0    0 -0.12156799916E+03  0.16958534668E+03  0.87470593643E+03  0.89924882178E+03  0.00000000000E+00 0. -1.
          4    1    3    3  501    0  0.12156799916E+03 -0.16958534668E+03  0.16718960872E+02  0.20932628092E+03  0.00000000000E+00 0. -1.
<mgrwt>
<rscale>  0 0.65901473E+03</rscale>
<asrwt>0</asrwt>
<pdfrwt beam="1">0</pdfrwt>
<pdfrwt beam="2">  1        2 0.39481939E+00 0.65901473E+03</pdfrwt>
<totfact> 0.41617453E+00</totfact>
</mgrwt>
</event>
<event>
 5    1  0.2354746E-004  0.5945019E+03  0.7818608E-02  0.9916879E-01
         13   -1    0    0    0    0  0.00000000000E+00  0.00000000000E+00  0.10000000000E+04  0.10000000000E+04  0.00000000000E+00 0. -1.
          2   -1    0    0  501    0 -0.00000000000E+00 -0.00000000000E+00 -0.88358126831E+02  0.88358126831E+02  0.00000000000E+00 0. -1.
    9000006    2    1    2  501    0  0.00000000000E+00  0.00000000000E+00  0.91164187317E+03  0.10883581268E+04  0.59450189850E+03 0.  0.
         13    1    3    3    0    0  0.13087006109E+03 -0.24906454234E+03  0.28024481036E+03  0.39711115935E+03  0.00000000000E+00 0. -1.
          2    1    3    3  501    0 -0.13087006109E+03  0.24906454234E+03  0.63139706280E+03  0.69124696749E+03  0.00000000000E+00 0. -1.
<mgrwt>
<rscale>  0 0.59450190E+03</rscale>
<asrwt>0</asrwt>
<pdfrwt beam="1">0</pdfrwt>
<pdfrwt beam="2">  1        2 0.32130296E+00 0.59450190E+03</pdfrwt>
<totfact> 0.77432544E+00</totfact>
</mgrwt>
</event>
<event>
 5    1  0.2354746E-004  0.6481863E+03  0.7818608E-02  0.9810188E-01
         13   -1    0    0    0    0  0.00000000000E+00  0.00000000000E+00  0.10000000000E+04  0.10000000000E+04  0.00000000000E+00 0. -1.
          2   -1    0    0  501    0 -0.00000000000E+00 -0.00000000000E+00 -0.10503636475E+03  0.10503636475E+03  0.00000000000E+00 0. -1.
    9000006    2    1    2  501    0  0.00000000000E+00  0.00000000000E+00  0.89496363525E+03  0.11050363647E+04  0.64818628418E+03 0.  0.
         13    1    3    3    0    0  0.24301820509E+03  0.16090642273E+03  0.68910644093E+03  0.74820880228E+03  0.00000000000E+00 0. -1.
          2    1    3    3  501    0 -0.24301820509E+03 -0.16090642273E+03  0.20585719432E+03  0.35682756247E+03  0.00000000000E+00 0. -1.
<mgrwt>
<rscale>  0 0.64818628E+03</rscale>
<asrwt>0</asrwt>
<pdfrwt beam="1">0</pdfrwt>
<pdfrwt beam="2">  1        2 0.38195122E+00 0.64818628E+03</pdfrwt>
<totfact> 0.46499129E+00</totfact>
</mgrwt>
</event>
<event>
 5    1  0.2354746E-004  0.6432572E+03  0.7818608E-02  0.9819515E-01
         13   -1    0    0    0    0  0.00000000000E+00  0.00000000000E+00  0.10000000000E+04  0.10000000000E+04  0.00000000000E+00 0. -1.
          2   -1    0    0  501    0 -0.00000000000E+00 -0.00000000000E+00 -0.10344494117E+03  0.10344494117E+03  0.00000000000E+00 0. -1.
    9000006    2    1    2  501    0  0.00000000000E+00  0.00000000000E+00  0.89655505883E+03  0.11034449412E+04  0.64325715283E+03 0.  0.
         13    1    3    3    0    0  0.16586566664E+03  0.59005019481E+02 -0.13455584377E+02  0.17656178648E+03  0.00000000000E+00 0. -1.
          4    1    3    3  501    0 -0.16586566664E+03 -0.59005019481E+02  0.91001064321E+03  0.92688315469E+03  0.00000000000E+00 0. -1.
<mgrwt>
<rscale>  0 0.64325715E+03</rscale>
<asrwt>0</asrwt>
<pdfrwt beam="1">0</pdfrwt>
<pdfrwt beam="2">  1        2 0.37616422E+00 0.64325715E+03</pdfrwt>
<totfact> 0.48859268E+00</totfact>
</mgrwt>
</event>
