<event>
 6    1  0.8234624E-003  0.6335837E+03  0.7818608E-02  0.9838080E-01
          1   -1    0    0  502    0  0.00000000000E+00  0.00000000000E+00  0.10036694941E+03  0.10036694941E+03  0.00000000000E+00 0.  1.
         13   -1    0    0    0    0 -0.00000000000E+00 -0.00000000000E+00 -0.10000000000E+04  0.10000000000E+04  0.00000000000E+00 0.  1.
    9000005    2    1    2  501    0  0.74552516175E-02 -0.56369150761E-02 -0.89964043148E+03  0.11003550400E+04  0.63358370253E+03 0.  0.
         13    1    3    3    0    0 -0.39974317632E+02 -0.89839364120E+02  0.73182458767E+02  0.12257540409E+03  0.00000000000E+00 0.  1.
          3    1    3    3  501    0  0.39981772884E+02  0.89833727205E+02 -0.97282289024E+03  0.97777963595E+03  0.00000000000E+00 0.  1.
         21    1    1    2  502  501 -0.74552516175E-02  0.56369150761E-02  0.73808841948E-02  0.11909367731E-01  0.00000000000E+00 0.  1.
<mgrwt>
<rscale>  1 0.63358370E+03</rscale>
<asrwt>0</asrwt>
<pdfrwt beam="1">  1        1 0.36497149E+00 0.63358370E+03</pdfrwt>
<pdfrwt beam="2">0</pdfrwt>
<totfact> 0.19163889E+00</totfact>
</mgrwt>
</event>
<event>
 6    1  0.8234624E-003  0.7083016E+03  0.7818608E-02  0.9703140E-01
          1   -1    0    0  502    0  0.00000000000E+00  0.00000000000E+00  0.12543448918E+03  0.12543448918E+03  0.00000000000E+00 0.  1.
         13   -1    0    0    0    0 -0.00000000000E+00 -0.00000000000E+00 -0.10000000000E+04  0.10000000000E+04  0.00000000000E+00 0.  1.
    9000005    2    1    2  501    0  0.11568565364E-02  0.45849899308E-03 -0.87457717705E+03  0.11254227568E+04  0.70830159030E+03 0.  0.
         13    1    3    3    0    0  0.15705954913E+03 -0.22555136481E+03 -0.82419539558E+02  0.28693919329E+03  0.00000000000E+00 0.  1.
          1    1    3    3  501    0 -0.15705839228E+03  0.22555182331E+03 -0.79215763750E+03  0.83848356348E+03  0.00000000000E+00 0.  1.
         21    1    1    2  502  501 -0.11568565364E-02 -0.45849899308E-03  0.11666232044E-01  0.11732412730E-01  0.00000000000E+00 0. -1.
<mgrwt>
<rscale>  1 0.70830159E+03</rscale>
<asrwt>0</asrwt>
<pdfrwt beam="1">  1        1 0.45612638E+00 0.70830159E+03</pdfrwt>
<pdfrwt beam="2">0</pdfrwt>
<totfact> 0.73563089E-01</totfact>
</mgrwt>
</event>
<event>
 6    1  0.8234624E-003  0.6325042E+03  0.7818608E-02  0.9840174E-01
          1   -1    0    0  502    0  0.00000000000E+00  0.00000000000E+00  0.10001548685E+03  0.10001548685E+03  0.00000000000E+00 0.  1.
         13   -1    0    0    0    0 -0.00000000000E+00 -0.00000000000E+00 -0.10000000000E+04  0.10000000000E+04  0.00000000000E+00 0.  1.
    9000005    2    1    2  501    0 -0.10105356800E-03  0.28129593773E-04 -0.89998459298E+03  0.11000153550E+04  0.63250416101E+03 0.  0.
         13    1    3    3    0    0  0.32811994610E+02  0.20518562006E+03 -0.35369402557E+02  0.21078130920E+03  0.00000000000E+00 0.  1.
          1    1    3    3  501    0 -0.32812095663E+02 -0.20518559193E+03 -0.86461519042E+03  0.88923404583E+03  0.00000000000E+00 0.  1.
         21    1    1    2  502  501  0.10105356799E-03 -0.28129593780E-04  0.79831489321E-04  0.13181867977E-03  0.00000000000E+00 0. -1.
<mgrwt>
<rscale>  1 0.63250416E+03</rscale>
<asrwt>0</asrwt>
<pdfrwt beam="1">  1        1 0.36369345E+00 0.63250416E+03</pdfrwt>
<pdfrwt beam="2">0</pdfrwt>
<totfact> 0.19416365E+00</totfact>
</mgrwt>
</event>
<event>
 6    1  0.8234624E-003  0.6494577E+03  0.7818608E-02  0.9807797E-01
          1   -1    0    0  502    0  0.00000000000E+00  0.00000000000E+00  0.10544912555E+03  0.10544912555E+03  0.00000000000E+00 0.  1.
         13   -1    0    0    0    0 -0.00000000000E+00 -0.00000000000E+00 -0.10000000000E+04  0.10000000000E+04  0.00000000000E+00 0.  1.
    9000005    2    1    2  501    0 -0.45070267390E-03 -0.60127013157E-04 -0.89455094936E+03  0.11054486647E+04  0.64945773485E+03 0.  0.
         13    1    3    3    0    0 -0.29220663401E+03 -0.84620605195E+02 -0.25392615233E+03  0.39626235579E+03  0.00000000000E+00 0.  1.
          3    1    3    3  501    0  0.29220618331E+03  0.84620545068E+02 -0.64062479703E+03  0.70918630894E+03  0.00000000000E+00 0.  1.
         21    1    1    2  502  501  0.45070267390E-03  0.60127013155E-04  0.74913489389E-04  0.46082555145E-03  0.00000000000E+00 0.  1.
<mgrwt>
<rscale>  1 0.64945773E+03</rscale>
<asrwt>0</asrwt>
<pdfrwt beam="1">  1        1 0.38345217E+00 0.64945773E+03</pdfrwt>
<pdfrwt beam="2">0</pdfrwt>
<totfact> 0.15845261E+00</totfact>
</mgrwt>
</event>
<event>
 6    1  0.8234624E-003  0.6664395E+03  0.7818608E-02  0.9776411E-01
          1   -1    0    0  502    0  0.00000000000E+00  0.00000000000E+00  0.11103544919E+03  0.11103544919E+03  0.00000000000E+00 0.  1.
         13   -1    0    0    0    0 -0.00000000000E+00 -0.00000000000E+00 -0.10000000000E+04  0.10000000000E+04  0.00000000000E+00 0.  1.
    9000005    2    1    2  501    0 -0.21684776456E-04 -0.53308300778E-04 -0.88896454819E+03  0.11110353916E+04  0.66643954970E+03 0.  0.
         13    1    3    3    0    0 -0.10278590265E+03  0.27315856978E+03 -0.17641841450E+03  0.34103372708E+03  0.00000000000E+00 0.  1.
          1    1    3    3  501    0  0.10278588097E+03 -0.27315862309E+03 -0.71254613369E+03  0.77000166450E+03  0.00000000000E+00 0.  1.
         21    1    1    2  502  501  0.21684776460E-04  0.53308300744E-04 -0.26175295886E-05  0.57609512404E-04  0.00000000000E+00 0.  1.
<mgrwt>
<rscale>  1 0.66643955E+03</rscale>
<asrwt>0</asrwt>
<pdfrwt beam="1">  1        1 0.40376612E+00 0.66643955E+03</pdfrwt>
<pdfrwt beam="2">0</pdfrwt>
<totfact> 0.12830900E+00</totfact>
</mgrwt>
</event>
<event>
 6    1  0.8234624E-003  0.6473580E+03  0.7818608E-02  0.9811749E-01
          1   -1    0    0  502    0  0.00000000000E+00  0.00000000000E+00  0.10477681400E+03  0.10477681400E+03  0.00000000000E+00 0.  1.
         13   -1    0    0    0    0 -0.00000000000E+00 -0.00000000000E+00 -0.10000000000E+04  0.10000000000E+04  0.00000000000E+00 0.  1.
    9000005    2    1    2  501    0 -0.10906344284E-03  0.81042481938E-04 -0.89523189522E+03  0.11047681037E+04  0.64735802827E+03 0.  0.
         13    1    3    3    0    0  0.19635241959E+03 -0.96480652582E+02 -0.40514205957E+02  0.22249537048E+03  0.00000000000E+00 0.  1.
          1    1    3    3  501    0 -0.19635252865E+03  0.96480733625E+02 -0.85471768927E+03  0.88227273324E+03  0.00000000000E+00 0.  1.
         21    1    1    2  502  501  0.10906344283E-03 -0.81042481932E-04  0.87092294777E-02  0.87102893645E-02  0.00000000000E+00 0.  1.
<mgrwt>
<rscale>  1 0.64735803E+03</rscale>
<asrwt>0</asrwt>
<pdfrwt beam="1">  1        1 0.38100740E+00 0.64735803E+03</pdfrwt>
<pdfrwt beam="2">0</pdfrwt>
<totfact> 0.16250478E+00</totfact>
</mgrwt>
</event>
<event>
 6    1  0.8234624E-003  0.6572750E+03  0.7818608E-02  0.9793223E-01
          1   -1    0    0  502    0  0.00000000000E+00  0.00000000000E+00  0.11002445253E+03  0.11002445253E+03  0.00000000000E+00 0.  1.
         13   -1    0    0    0    0 -0.00000000000E+00 -0.00000000000E+00 -0.10000000000E+04  0.10000000000E+04  0.00000000000E+00 0.  1.
    9000005    2    1    2  501    0  0.88973157689E+00  0.93267200624E+00 -0.89176720607E+03  0.11078172960E+04  0.65727372533E+03 0.  0.
         13    1    3    3    0    0 -0.13021602240E+02 -0.31143927122E+03 -0.27225371256E+03  0.41386720791E+03  0.00000000000E+00 0.  1.
          3    1    3    3  501    0  0.13911333817E+02  0.31237194323E+03 -0.61951349351E+03  0.69395008810E+03  0.00000000000E+00 0.  1.
         21    1    1    2  502  501 -0.88973157689E+00 -0.93267200624E+00  0.17916586037E+01  0.22071565196E+01  0.00000000000E+00 0. -1.
<mgrwt>
<rscale>  1 0.65727499E+03</rscale>
<asrwt>0</asrwt>
<pdfrwt beam="1">  1        1 0.40008976E+00 0.65727499E+03</pdfrwt>
<pdfrwt beam="2">0</pdfrwt>
<totfact> 0.13348003E+00</totfact>
</mgrwt>
</event>
<event>
 6    1  0.8234624E-003  0.6614122E+03  0.7818608E-02  0.9785598E-01
          3   -1    0    0  502    0  0.00000000000E+00  0.00000000000E+00  0.10936675336E+03  0.10936675336E+03  0.00000000000E+00 0.  1.
         13   -1    0    0    0    0 -0.00000000000E+00 -0.00000000000E+00 -0.10000000000E+04  0.10000000000E+04  0.00000000000E+00 0.  1.
    9000005    2    1    2  501    0  0.42912429990E-04 -0.33885175696E-04 -0.89063347041E+03  0.11093665230E+04  0.66141220413E+03 0.  0.
         13    1    3    3    0    0 -0.19797714766E+03  0.13997474635E+03 -0.68103933783E+02  0.25184524298E+03  0.00000000000E+00 0.  1.
          1    1    3    3  501    0  0.19797719058E+03 -0.13997478024E+03 -0.82252953662E+03  0.85752128003E+03  0.00000000000E+00 0.  1.
         21    1    1    2  502  501 -0.42912429998E-04  0.33885175680E-04  0.22376777887E-03  0.23035125491E-03  0.00000000000E+00 0.  1.
<mgrwt>
<rscale>  1 0.66141220E+03</rscale>
<asrwt>0</asrwt>
<pdfrwt beam="1">  1        3 0.39769812E+00 0.66141220E+03</pdfrwt>
<pdfrwt beam="2">0</pdfrwt>
<totfact> 0.60789704E-02</totfact>
</mgrwt>
</event>
<event>
 6    1  0.8234624E-003  0.6555902E+03  0.7818608E-02  0.9796346E-01
          3   -1    0    0  502    0  0.00000000000E+00  0.00000000000E+00  0.10744964198E+03  0.10744964198E+03  0.00000000000E+00 0.  1.
         13   -1    0    0    0    0 -0.00000000000E+00 -0.00000000000E+00 -0.10000000000E+04  0.10000000000E+04  0.00000000000E+00 0.  1.
    9000005    2    1    2  501    0 -0.34087456541E-04 -0.16589051299E-04 -0.89255034040E+03  0.11074496002E+04  0.65559019730E+03 0.  0.
         13    1    3    3    0    0  0.39652923424E+02  0.79926414860E+02 -0.97909346769E+03  0.98315034690E+03  0.00000000000E+00 0.  1.
          1    1    3    3  501    0 -0.39652957511E+02 -0.79926431449E+02  0.86543127296E+02  0.12429925328E+03  0.00000000000E+00 0.  1.
         21    1    1    2  502  501  0.34087456540E-04  0.16589051298E-04 -0.17618148071E-04  0.41803713445E-04  0.00000000000E+00 0. -1.
<mgrwt>
<rscale>  1 0.65559020E+03</rscale>
<asrwt>0</asrwt>
<pdfrwt beam="1">  1        3 0.39072679E+00 0.65559020E+03</pdfrwt>
<pdfrwt beam="2">0</pdfrwt>
<totfact> 0.66202928E-02</totfact>
</mgrwt>
</event>
<event>
 6    1  0.8234624E-003  0.6473376E+03  0.7818608E-02  0.9811788E-01
          1   -1    0    0  502    0  0.00000000000E+00  0.00000000000E+00  0.10520198916E+03  0.10520198916E+03  0.00000000000E+00 0.  1.
         13   -1    0    0    0    0 -0.00000000000E+00 -0.00000000000E+00 -0.10000000000E+04  0.10000000000E+04  0.00000000000E+00 0.  1.
    9000005    2    1    2  501    0  0.12479025249E-01  0.28242549744E-02 -0.89523840731E+03  0.11047614069E+04  0.64733759356E+03 0.  0.
         13    1    3    3    0    0  0.64969599545E+02  0.25206354671E+03 -0.11932059919E+03  0.28634679296E+03  0.00000000000E+00 0.  1.
          3    1    3    3  501    0 -0.64957120520E+02 -0.25206072246E+03 -0.77591780812E+03  0.81841461391E+03  0.00000000000E+00 0.  1.
         21    1    1    2  502  501 -0.12479025249E-01 -0.28242549744E-02  0.44039646558E+00  0.44058228447E+00  0.00000000000E+00 0. -1.
<mgrwt>
<rscale>  1 0.64733759E+03</rscale>
<asrwt>0</asrwt>
<pdfrwt beam="1">  1        1 0.38255349E+00 0.64733759E+03</pdfrwt>
<pdfrwt beam="2">0</pdfrwt>
<totfact> 0.15997061E+00</totfact>
</mgrwt>
</event>
<event>
 6    1  0.8234624E-003  0.6542562E+03  0.7818608E-02  0.9798825E-01
          1   -1    0    0  502    0  0.00000000000E+00  0.00000000000E+00  0.10701282235E+03  0.10701282235E+03  0.00000000000E+00 0.  1.
         13   -1    0    0    0    0 -0.00000000000E+00 -0.00000000000E+00 -0.10000000000E+04  0.10000000000E+04  0.00000000000E+00 0.  1.
    9000005    2    1    2  501    0 -0.53962320976E-04  0.39312381119E-05 -0.89298708234E+03  0.11070127128E+04  0.65425623191E+03 0.  0.
         13    1    3    3    0    0  0.29549314061E+03 -0.80791460678E+02 -0.64066550942E+03  0.71013783959E+03  0.00000000000E+00 0.  1.
          1    1    3    3  501    0 -0.29549319457E+03  0.80791464609E+02 -0.25232157292E+03  0.39687487317E+03  0.00000000000E+00 0.  1.
         21    1    1    2  502  501  0.53962321001E-04 -0.39312381100E-05 -0.95303563205E-04  0.10959085674E-03  0.00000000000E+00 0.  1.
<mgrwt>
<rscale>  1 0.65425623E+03</rscale>
<asrwt>0</asrwt>
<pdfrwt beam="1">  1        1 0.38913836E+00 0.65425623E+03</pdfrwt>
<pdfrwt beam="2">0</pdfrwt>
<totfact> 0.14939838E+00</totfact>
</mgrwt>
</event>
<event>
 6    1  0.8234624E-003  0.6516778E+03  0.7818608E-02  0.9803636E-01
          1   -1    0    0  502    0  0.00000000000E+00  0.00000000000E+00  0.10641770792E+03  0.10641770792E+03  0.00000000000E+00 0.  1.
         13   -1    0    0    0    0 -0.00000000000E+00 -0.00000000000E+00 -0.10000000000E+04  0.10000000000E+04  0.00000000000E+00 0.  1.
    9000005    2    1    2  501    0 -0.65835210275E-02  0.47305216928E-02 -0.89382894910E+03  0.11061709177E+04  0.65167776459E+03 0.  0.
         13    1    3    3    0    0  0.76044092710E+02 -0.22511796513E+03 -0.68464115651E+02  0.24728149424E+03  0.00000000000E+00 0.  1.
          1    1    3    3  501    0 -0.76050676231E+02  0.22512269565E+03 -0.82536483345E+03  0.85888942347E+03  0.00000000000E+00 0.  1.
         21    1    1    2  502  501  0.65835210275E-02 -0.47305216928E-02  0.24665702498E+00  0.24679021163E+00  0.00000000000E+00 0.  1.
<mgrwt>
<rscale>  1 0.65167776E+03</rscale>
<asrwt>0</asrwt>
<pdfrwt beam="1">  1        1 0.38697430E+00 0.65167776E+03</pdfrwt>
<pdfrwt beam="2">0</pdfrwt>
<totfact> 0.15280601E+00</totfact>
</mgrwt>
</event>
<event>
 6    1  0.8234624E-003  0.6737210E+03  0.7818608E-02  0.9763259E-01
          1   -1    0    0  502    0  0.00000000000E+00  0.00000000000E+00  0.11482075622E+03  0.11482075622E+03  0.00000000000E+00 0.  1.
         13   -1    0    0    0    0 -0.00000000000E+00 -0.00000000000E+00 -0.10000000000E+04  0.10000000000E+04  0.00000000000E+00 0.  1.
    9000005    2    1    2  501    0  0.27537620433E-01  0.10154473561E-01 -0.88652481439E+03  0.11134748655E+04  0.67372103190E+03 0.  0.
         13    1    3    3    0    0 -0.89705885726E+02  0.44420056574E+02 -0.97484163949E+03  0.97996760632E+03  0.00000000000E+00 0.  1.
          3    1    3    3  501    0  0.89733423346E+02 -0.44409902101E+02  0.88316825102E+02  0.13350725923E+03  0.00000000000E+00 0.  1.
         21    1    1    2  502  501 -0.27537620433E-01 -0.10154473561E-01  0.13455706126E+01  0.13458906744E+01  0.00000000000E+00 0. -1.
<mgrwt>
<rscale>  1 0.67372103E+03</rscale>
<asrwt>0</asrwt>
<pdfrwt beam="1">  1        1 0.41753090E+00 0.67372103E+03</pdfrwt>
<pdfrwt beam="2">0</pdfrwt>
<totfact> 0.11114444E+00</totfact>
</mgrwt>
</event>
<event>
 6    1  0.8234624E-003  0.6278840E+03  0.7818608E-02  0.9849187E-01
          1   -1    0    0  502    0  0.00000000000E+00  0.00000000000E+00  0.98559594700E+02  0.98559594700E+02  0.00000000000E+00 0.  1.
         13   -1    0    0    0    0 -0.00000000000E+00 -0.00000000000E+00 -0.10000000000E+04  0.10000000000E+04  0.00000000000E+00 0.  1.
    9000005    2    1    2  501    0  0.25192824239E-04 -0.46248590024E-05 -0.90144042221E+03  0.10985595640E+04  0.62788397088E+03 0.  0.
         13    1    3    3    0    0  0.17517735338E+03  0.20584321341E+03 -0.17132230472E+03  0.32001541484E+03  0.00000000000E+00 0.  1.
          3    1    3    3  501    0 -0.17517732818E+03 -0.20584321803E+03 -0.73011811749E+03  0.77854414917E+03  0.00000000000E+00 0.  1.
         21    1    1    2  502  501 -0.25192824255E-04  0.46248590071E-05  0.16907198679E-04  0.30690732835E-04  0.00000000000E+00 0. -1.
<mgrwt>
<rscale>  1 0.62788397E+03</rscale>
<asrwt>0</asrwt>
<pdfrwt beam="1">  1        1 0.35839928E+00 0.62788397E+03</pdfrwt>
<pdfrwt beam="2">0</pdfrwt>
<totfact> 0.20497171E+00</totfact>
</mgrwt>
</event>
<event>
 6    1  0.8234624E-003  0.6504237E+03  0.7818608E-02  0.9805984E-01
          1   -1    0    0  502    0  0.00000000000E+00  0.00000000000E+00  0.10584312720E+03  0.10584312720E+03  0.00000000000E+00 0.  1.
         13   -1    0    0    0    0 -0.00000000000E+00 -0.00000000000E+00 -0.10000000000E+04  0.10000000000E+04  0.00000000000E+00 0.  1.
    9000005    2    1    2  501    0  0.48420850204E-02 -0.54676183319E-02 -0.89423705359E+03  0.11057626145E+04  0.65042374764E+03 0.  0.
         13    1    3    3    0    0  0.22540488929E+03 -0.58852404433E+01 -0.48703558331E+02  0.23068167843E+03  0.00000000000E+00 0.  1.
          1    1    3    3  501    0 -0.22540004721E+03  0.58797728250E+01 -0.84553349526E+03  0.87508093604E+03  0.00000000000E+00 0.  1.
         21    1    1    2  502  501 -0.48420850204E-02  0.54676183319E-02  0.80180792909E-01  0.80512733086E-01  0.00000000000E+00 0. -1.
<mgrwt>
<rscale>  1 0.65042375E+03</rscale>
<asrwt>0</asrwt>
<pdfrwt beam="1">  1        1 0.38488491E+00 0.65042375E+03</pdfrwt>
<pdfrwt beam="2">0</pdfrwt>
<totfact> 0.15613034E+00</totfact>
</mgrwt>
</event>
<event>
 6    1  0.8234624E-003  0.5901128E+03  0.7818608E-02  0.9926134E-01
          1   -1    0    0  502    0  0.00000000000E+00  0.00000000000E+00  0.87058293740E+02  0.87058293740E+02  0.00000000000E+00 0.  1.
         13   -1    0    0    0    0 -0.00000000000E+00 -0.00000000000E+00 -0.10000000000E+04  0.10000000000E+04  0.00000000000E+00 0.  1.
    9000005    2    1    2  501    0 -0.20890668694E-04 -0.52366304431E-04 -0.91294169897E+03  0.10870582369E+04  0.59011275589E+03 0.  0.
         13    1    3    3    0    0 -0.67732267040E+02 -0.15313327409E+03 -0.90399908116E+03  0.91937576560E+03  0.00000000000E+00 0.  1.
          1    1    3    3  501    0  0.67732246149E+02  0.15313322173E+03 -0.89426178139E+01  0.16768247129E+03  0.00000000000E+00 0.  1.
         21    1    1    2  502  501  0.20890668694E-04  0.52366304429E-04 -0.72860840777E-05  0.56848367604E-04  0.00000000000E+00 0. -1.
<mgrwt>
<rscale>  1 0.59011276E+03</rscale>
<asrwt>0</asrwt>
<pdfrwt beam="1">  1        1 0.31657628E+00 0.59011276E+03</pdfrwt>
<pdfrwt beam="2">0</pdfrwt>
<totfact> 0.31348085E+00</totfact>
</mgrwt>
</event>
<event>
 6    1  0.8234624E-003  0.6411984E+03  0.7818608E-02  0.9823436E-01
          1   -1    0    0  502    0  0.00000000000E+00  0.00000000000E+00  0.10278394126E+03  0.10278394126E+03  0.00000000000E+00 0.  1.
         13   -1    0    0    0    0 -0.00000000000E+00 -0.00000000000E+00 -0.10000000000E+04  0.10000000000E+04  0.00000000000E+00 0.  1.
    9000005    2    1    2  501    0  0.14389030696E-04 -0.15045466370E-04 -0.89721614641E+03  0.11027838511E+04  0.64119841623E+03 0.  0.
         13    1    3    3    0    0 -0.13760697908E+03  0.91219481402E+02  0.24052723026E+02  0.16683886827E+03  0.00000000000E+00 0.  1.
          3    1    3    3  501    0  0.13760699347E+03 -0.91219496448E+02 -0.92126886944E+03  0.93594498288E+03  0.00000000000E+00 0.  1.
         21    1    1    2  502  501 -0.14389030704E-04  0.15045466370E-04  0.87673852556E-04  0.90111678960E-04  0.00000000000E+00 0.  1.
<mgrwt>
<rscale>  1 0.64119842E+03</rscale>
<asrwt>0</asrwt>
<pdfrwt beam="1">  1        1 0.37376057E+00 0.64119842E+03</pdfrwt>
<pdfrwt beam="2">0</pdfrwt>
<totfact> 0.17510221E+00</totfact>
</mgrwt>
</event>
<event>
 6    1  0.8234624E-003  0.6454673E+03  0.7818608E-02  0.9815322E-01
          1   -1    0    0  502    0  0.00000000000E+00  0.00000000000E+00  0.10415854035E+03  0.10415854035E+03  0.00000000000E+00 0.  1.
         13   -1    0    0    0    0 -0.00000000000E+00 -0.00000000000E+00 -0.10000000000E+04  0.10000000000E+04  0.00000000000E+00 0.  1.
    9000005    2    1    2  501    0  0.88838169182E-03  0.54730261672E-03 -0.89584278745E+03  0.11041568516E+04  0.64546731378E+03 0.  0.
         13    1    3    3    0    0 -0.15752896246E+03  0.19829995361E+03 -0.79012778493E+03  0.82972294300E+03  0.00000000000E+00 0.  1.
          1    1    3    3  501    0  0.15752985084E+03 -0.19829940630E+03 -0.10571500252E+03  0.27443390863E+03  0.00000000000E+00 0.  1.
         21    1    1    2  502  501 -0.88838169180E-03 -0.54730261672E-03  0.13277942653E-02  0.16887272709E-02  0.00000000000E+00 0. -1.
<mgrwt>
<rscale>  1 0.64546731E+03</rscale>
<asrwt>0</asrwt>
<pdfrwt beam="1">  1        1 0.37875913E+00 0.64546731E+03</pdfrwt>
<pdfrwt beam="2">0</pdfrwt>
<totfact> 0.16631692E+00</totfact>
</mgrwt>
</event>
<event>
 6    1  0.8234624E-003  0.6488196E+03  0.7818608E-02  0.9808997E-01
          1   -1    0    0  502    0  0.00000000000E+00  0.00000000000E+00  0.10525812043E+03  0.10525812043E+03  0.00000000000E+00 0.  1.
         13   -1    0    0    0    0 -0.00000000000E+00 -0.00000000000E+00 -0.10000000000E+04  0.10000000000E+04  0.00000000000E+00 0.  1.
    9000005    2    1    2  501    0  0.11631053529E-01  0.47166457400E-01 -0.89469612232E+03  0.11051913845E+04  0.64881957643E+03 0.  0.
         13    1    3    3    0    0 -0.80441556561E+02 -0.30549827545E+03 -0.57279312058E+03  0.65413454221E+03  0.00000000000E+00 0.  1.
          3    1    3    3  501    0  0.80453187615E+02  0.30554544190E+03 -0.32190300174E+03  0.45105684231E+03  0.00000000000E+00 0.  1.
         21    1    1    2  502  501 -0.11631053529E-01 -0.47166457400E-01 -0.45757246034E-01  0.66735909932E-01  0.00000000000E+00 0.  1.
<mgrwt>
<rscale>  1 0.64881958E+03</rscale>
<asrwt>0</asrwt>
<pdfrwt beam="1">  1        1 0.38275761E+00 0.64881958E+03</pdfrwt>
<pdfrwt beam="2">0</pdfrwt>
<totfact> 0.15959518E+00</totfact>
</mgrwt>
</event>
<event>
 6    1  0.8234624E-003  0.6073344E+03  0.7818608E-02  0.9890305E-01
          3   -1    0    0  502    0  0.00000000000E+00  0.00000000000E+00  0.92215710590E+02  0.92215710590E+02  0.00000000000E+00 0.  1.
         13   -1    0    0    0    0 -0.00000000000E+00 -0.00000000000E+00 -0.10000000000E+04  0.10000000000E+04  0.00000000000E+00 0.  1.
    9000005    2    1    2  501    0 -0.34638156160E-03  0.17831498136E-02 -0.90778577080E+03  0.10922133666E+04  0.60733436639E+03 0.  0.
         13    1    3    3    0    0 -0.29284117206E+03 -0.24186606003E+02 -0.59171070305E+03  0.66065308602E+03  0.00000000000E+00 0.  1.
          1    1    3    3  501    0  0.29284082568E+03  0.24188389152E+02 -0.31607506775E+03  0.43156028062E+03  0.00000000000E+00 0.  1.
         21    1    1    2  502  501  0.34638156161E-03 -0.17831498136E-02  0.14813881019E-02  0.23439526771E-02  0.00000000000E+00 0.  1.
<mgrwt>
<rscale>  1 0.60733437E+03</rscale>
<asrwt>0</asrwt>
<pdfrwt beam="1">  1        3 0.33533056E+00 0.60733437E+03</pdfrwt>
<pdfrwt beam="2">0</pdfrwt>
<totfact> 0.13128482E-01</totfact>
</mgrwt>
</event>
<event>
 6    1  0.8234624E-003  0.6415675E+03  0.7818608E-02  0.9822732E-01
          1   -1    0    0  502    0  0.00000000000E+00  0.00000000000E+00  0.10595260285E+03  0.10595260285E+03  0.00000000000E+00 0.  1.
         13   -1    0    0    0    0 -0.00000000000E+00 -0.00000000000E+00 -0.10000000000E+04  0.10000000000E+04  0.00000000000E+00 0.  1.
    9000005    2    1    2  501    0 -0.18129310751E+01 -0.57256762749E-01 -0.89679765574E+03  0.11026580741E+04  0.64156488606E+03 0.  0.
         13    1    3    3    0    0 -0.28834287983E+03  0.27551075006E+02 -0.20939470356E+03  0.35741687141E+03  0.00000000000E+00 0.  1.
          1    1    3    3  501    0  0.28652994876E+03 -0.27608331768E+02 -0.68740295218E+03  0.74524120269E+03  0.00000000000E+00 0.  1.
         21    1    1    2  502  501  0.18129310751E+01  0.57256762749E-01  0.27502585856E+01  0.32945287535E+01  0.00000000000E+00 0.  1.
<mgrwt>
<rscale>  1 0.64156745E+03</rscale>
<asrwt>0</asrwt>
<pdfrwt beam="1">  1        1 0.38528300E+00 0.64156745E+03</pdfrwt>
<pdfrwt beam="2">0</pdfrwt>
<totfact> 0.15575473E+00</totfact>
</mgrwt>
</event>
<event>
 6    1  0.8234624E-003  0.6024069E+03  0.7818608E-02  0.9900425E-01
          1   -1    0    0  502    0  0.00000000000E+00  0.00000000000E+00  0.90726927874E+02  0.90726927874E+02  0.00000000000E+00 0.  1.
         13   -1    0    0    0    0 -0.00000000000E+00 -0.00000000000E+00 -0.10000000000E+04  0.10000000000E+04  0.00000000000E+00 0.  1.
    9000005    2    1    2  501    0  0.68117748809E-03  0.32944476760E-03 -0.90927643935E+03  0.10907234767E+04  0.60240688861E+03 0.  0.
         13    1    3    3    0    0 -0.81011714576E+02 -0.28943312733E+03 -0.49034548186E+03  0.57512878964E+03  0.00000000000E+00 0.  1.
          3    1    3    3  501    0  0.81012395753E+02  0.28943345678E+03 -0.41893095749E+03  0.51559468705E+03  0.00000000000E+00 0.  1.
         21    1    1    2  502  501 -0.68117748810E-03 -0.32944476760E-03  0.33672198373E-02  0.34511890788E-02  0.00000000000E+00 0.  1.
<mgrwt>
<rscale>  1 0.60240689E+03</rscale>
<asrwt>0</asrwt>
<pdfrwt beam="1">  1        1 0.32991680E+00 0.60240689E+03</pdfrwt>
<pdfrwt beam="2">0</pdfrwt>
<totfact> 0.27387544E+00</totfact>
</mgrwt>
</event>
<event>
 6    1  0.8234624E-003  0.6492235E+03  0.7818608E-02  0.9808237E-01
          1   -1    0    0  502    0  0.00000000000E+00  0.00000000000E+00  0.17782999403E+03  0.17782999403E+03  0.00000000000E+00 0.  1.
         13   -1    0    0    0    0 -0.00000000000E+00 -0.00000000000E+00 -0.10000000000E+04  0.10000000000E+04  0.00000000000E+00 0.  1.
    9000005    2    1    2  501    0  0.80665256661E+00 -0.75732370757E+00 -0.89462255871E+03  0.11053689933E+04  0.64922250775E+03 0.  0.
         13    1    3    3    0    0 -0.27738789835E+03 -0.15939831155E+02 -0.73156938877E+03  0.78255472330E+03  0.00000000000E+00 0.  1.
          1    1    3    3  501    0  0.27819455092E+03  0.15182507447E+02 -0.16305316994E+03  0.32281427001E+03  0.00000000000E+00 0.  1.
         21    1    1    2  502  501 -0.80665256661E+00  0.75732370757E+00  0.72452552743E+02  0.72461000728E+02  0.00000000000E+00 0. -1.
<mgrwt>
<rscale>  1 0.64922345E+03</rscale>
<asrwt>0</asrwt>
<pdfrwt beam="1">  1        1 0.64665589E+00 0.64922345E+03</pdfrwt>
<pdfrwt beam="2">0</pdfrwt>
<totfact> 0.77770462E-02</totfact>
</mgrwt>
</event>
<event>
 6    1  0.8234624E-003  0.6072403E+03  0.7818608E-02  0.9890498E-01
          1   -1    0    0  502    0  0.00000000000E+00  0.00000000000E+00  0.10630435175E+03  0.10630435175E+03  0.00000000000E+00 0.  1.
         13   -1    0    0    0    0 -0.00000000000E+00 -0.00000000000E+00 -0.10000000000E+04  0.10000000000E+04  0.00000000000E+00 0.  1.
    9000005    2    1    2  501    0 -0.12107128767E+01 -0.92431113896E+00 -0.90776991535E+03  0.10921478984E+04  0.60723841498E+03 0.  0.
         13    1    3    3    0    0  0.10132241412E+03 -0.88518684315E+02 -0.94317500517E+03  0.95272287652E+03  0.00000000000E+00 0.  1.
          3    1    3    3  501    0 -0.10253312700E+03  0.87594373176E+02  0.35405089819E+02  0.13942502189E+03  0.00000000000E+00 0.  1.
         21    1    1    2  502  501  0.12107128767E+01  0.92431113896E+00  0.14074267099E+02  0.14156453338E+02  0.00000000000E+00 0.  1.
<mgrwt>
<rscale>  1 0.60724033E+03</rscale>
<asrwt>0</asrwt>
<pdfrwt beam="1">  1        1 0.38656209E+00 0.60724033E+03</pdfrwt>
<pdfrwt beam="2">0</pdfrwt>
<totfact> 0.15475538E+00</totfact>
</mgrwt>
</event>
<event>
 6    1  0.8234624E-003  0.6458879E+03  0.7818608E-02  0.9814526E-01
          1   -1    0    0  502    0  0.00000000000E+00  0.00000000000E+00  0.10431549915E+03  0.10431549915E+03  0.00000000000E+00 0.  1.
         13   -1    0    0    0    0 -0.00000000000E+00 -0.00000000000E+00 -0.10000000000E+04  0.10000000000E+04  0.00000000000E+00 0.  1.
    9000005    2    1    2  501    0  0.49663371476E-03  0.23372423262E-02 -0.89570715030E+03  0.11042927240E+04  0.64588785496E+03 0.  0.
         13    1    3    3    0    0 -0.29382697450E+03  0.52392721744E+02 -0.23697069846E+03  0.38109631350E+03  0.00000000000E+00 0.  1.
          1    1    3    3  501    0  0.29382747114E+03 -0.52390384502E+02 -0.65873645184E+03  0.72319641051E+03  0.00000000000E+00 0.  1.
         21    1    1    2  502  501 -0.49663371475E-03 -0.23372423262E-02  0.22649456312E-01  0.22775144741E-01  0.00000000000E+00 0.  1.
<mgrwt>
<rscale>  1 0.64588785E+03</rscale>
<asrwt>0</asrwt>
<pdfrwt beam="1">  1        1 0.37932989E+00 0.64588785E+03</pdfrwt>
<pdfrwt beam="2">0</pdfrwt>
<totfact> 0.16534296E+00</totfact>
</mgrwt>
</event>
<event>
 6    1  0.8234624E-003  0.7041842E+03  0.7818608E-02  0.9710103E-01
          3   -1    0    0  502    0  0.00000000000E+00  0.00000000000E+00  0.12398489765E+03  0.12398489765E+03  0.00000000000E+00 0.  1.
         13   -1    0    0    0    0 -0.00000000000E+00 -0.00000000000E+00 -0.10000000000E+04  0.10000000000E+04  0.00000000000E+00 0.  1.
    9000005    2    1    2  501    0 -0.84934387587E-04 -0.10324946831E-02 -0.87603111952E+03  0.11239688470E+04  0.70418424200E+03 0.  0.
         13    1    3    3    0    0 -0.22158904310E+03  0.25447228233E+01 -0.13038067577E+01  0.22160748983E+03  0.00000000000E+00 0.  1.
          1    1    3    3  501    0  0.22158895816E+03 -0.25457553180E+01 -0.87472731276E+03  0.90236135719E+03  0.00000000000E+00 0.  1.
         21    1    1    2  502  501  0.84934387565E-04  0.10324946831E-02  0.16017170142E-01  0.16050638569E-01  0.00000000000E+00 0.  1.
<mgrwt>
<rscale>  1 0.70418424E+03</rscale>
<asrwt>0</asrwt>
<pdfrwt beam="1">  1        3 0.45085512E+00 0.70418424E+03</pdfrwt>
<pdfrwt beam="2">0</pdfrwt>
<totfact> 0.32054328E-02</totfact>
</mgrwt>
</event>
<event>
 6    1  0.8234624E-003  0.6232890E+03  0.7818608E-02  0.9858233E-01
          1   -1    0    0  502    0  0.00000000000E+00  0.00000000000E+00  0.97541319996E+02  0.97541319996E+02  0.00000000000E+00 0.  1.
         13   -1    0    0    0    0 -0.00000000000E+00 -0.00000000000E+00 -0.10000000000E+04  0.10000000000E+04  0.00000000000E+00 0.  1.
    9000005    2    1    2  501    0  0.10764958708E-01 -0.65098003611E-03 -0.90287761758E+03  0.10971222436E+04  0.62328903810E+03 0.  0.
         13    1    3    3    0    0  0.29058303170E+03 -0.87940213339E+02 -0.32756023509E+03  0.44661805500E+03  0.00000000000E+00 0.  1.
          3    1    3    3  501    0 -0.29057226675E+03  0.87939562359E+02 -0.57531738249E+03  0.65050418863E+03  0.00000000000E+00 0.  1.
         21    1    1    2  502  501 -0.10764958708E-01  0.65098003612E-03  0.41893757847E+00  0.41907636865E+00  0.00000000000E+00 0. -1.
<mgrwt>
<rscale>  1 0.62328904E+03</rscale>
<asrwt>0</asrwt>
<pdfrwt beam="1">  1        1 0.35469646E+00 0.62328904E+03</pdfrwt>
<pdfrwt beam="2">0</pdfrwt>
<totfact> 0.21292451E+00</totfact>
</mgrwt>
</event>
<event>
 6    1  0.9675556E-003  0.5896819E+03  0.7818608E-02  0.9927047E-01
          1   -1    0    0  502    0  0.00000000000E+00  0.00000000000E+00  0.86931175725E+02  0.86931175725E+02  0.00000000000E+00 0.  1.
         13   -1    0    0    0    0 -0.00000000000E+00 -0.00000000000E+00 -0.10000000000E+04  0.10000000000E+04  0.00000000000E+00 0.  1.
    9000005    2    1    2  501    0  0.18099559327E-05  0.60247336791E-05 -0.91306882646E+03  0.10869311691E+04  0.58968185017E+03 0.  0.
         13    1    3    3    0    0  0.22756330917E+03 -0.76486695912E+02 -0.77202592550E+03  0.80849199376E+03  0.00000000000E+00 0.  1.
          3    1    3    3  501    0 -0.22756330736E+03  0.76486701937E+02 -0.14104290096E+03  0.27843917530E+03  0.00000000000E+00 0.  1.
         21    1    1    2  502  501 -0.18099559348E-05 -0.60247336862E-05  0.21897125168E-05  0.66609456822E-05  0.00000000000E+00 0.  1.
<mgrwt>
<rscale>  1 0.58968185E+03</rscale>
<asrwt>0</asrwt>
<pdfrwt beam="1">  1        1 0.31611403E+00 0.58968185E+03</pdfrwt>
<pdfrwt beam="2">0</pdfrwt>
<totfact> 0.31495014E+00</totfact>
</mgrwt>
</event>
<event>
 6    1  0.8234624E-003  0.6261573E+03  0.7818608E-02  0.9852576E-01
          1   -1    0    0  502    0  0.00000000000E+00  0.00000000000E+00  0.98019221988E+02  0.98019221988E+02  0.00000000000E+00 0.  1.
         13   -1    0    0    0    0 -0.00000000000E+00 -0.00000000000E+00 -0.10000000000E+04  0.10000000000E+04  0.00000000000E+00 0.  1.
    9000005    2    1    2  501    0 -0.78209248500E-05 -0.65035922081E-03 -0.90198164155E+03  0.10980181409E+04  0.62615729340E+03 0.  0.
         13    1    3    3    0    0  0.13981132810E+03  0.26732239877E+02 -0.93997421167E+03  0.95069097961E+03  0.00000000000E+00 0.  1.
          3    1    3    3  501    0 -0.13981133592E+03 -0.26732890236E+02  0.37992570123E+02  0.14732716130E+03  0.00000000000E+00 0.  1.
         21    1    1    2  502  501  0.78209248564E-05  0.65035922081E-03  0.86353610822E-03  0.10810748786E-02  0.00000000000E+00 0.  1.
<mgrwt>
<rscale>  1 0.62615729E+03</rscale>
<asrwt>0</asrwt>
<pdfrwt beam="1">  1        1 0.35643429E+00 0.62615729E+03</pdfrwt>
<pdfrwt beam="2">0</pdfrwt>
<totfact> 0.20912897E+00</totfact>
</mgrwt>
</event>
<event>
 6    1  0.8234624E-003  0.6323800E+03  0.7818608E-02  0.9840415E-01
          1   -1    0    0  502    0  0.00000000000E+00  0.00000000000E+00  0.10001647829E+03  0.10001647829E+03  0.00000000000E+00 0.  1.
         13   -1    0    0    0    0 -0.00000000000E+00 -0.00000000000E+00 -0.10000000000E+04  0.10000000000E+04  0.00000000000E+00 0.  1.
    9000005    2    1    2  501    0 -0.11845397249E-01  0.38272473260E-01 -0.90001264896E+03  0.10999669456E+04  0.63238003717E+03 0.  0.
         13    1    3    3    0    0  0.15338846075E+03 -0.11890531391E+02  0.30480010539E+02  0.15683888443E+03  0.00000000000E+00 0.  1.
          1    1    3    3  501    0 -0.15340030615E+03  0.11928803864E+02 -0.93049265950E+03  0.94312806112E+03  0.00000000000E+00 0.  1.
         21    1    1    2  502  501  0.11845397249E-01 -0.38272473260E-01  0.29127254181E-01  0.49532742520E-01  0.00000000000E+00 0.  1.
<mgrwt>
<rscale>  1 0.63238004E+03</rscale>
<asrwt>0</asrwt>
<pdfrwt beam="1">  1        1 0.36369705E+00 0.63238004E+03</pdfrwt>
<pdfrwt beam="2">0</pdfrwt>
<totfact> 0.19416096E+00</totfact>
</mgrwt>
</event>
<event>
 6    1  0.8234624E-003  0.6032519E+03  0.7818608E-02  0.9898682E-01
          1   -1    0    0  502    0  0.00000000000E+00  0.00000000000E+00  0.98880498558E+02  0.98880498558E+02  0.00000000000E+00 0.  1.
         13   -1    0    0    0    0 -0.00000000000E+00 -0.00000000000E+00 -0.10000000000E+04  0.10000000000E+04  0.00000000000E+00 0.  1.
    9000005    2    1    2  501    0 -0.16952418129E+01  0.86905226901E+00 -0.90889634799E+03  0.10908737240E+04  0.60324893802E+03 0.  0.
         13    1    3    3    0    0  0.18540052414E+03  0.86811197546E+02 -0.54260397370E+02  0.21178698990E+03  0.00000000000E+00 0.  1.
          3    1    3    3  501    0 -0.18709576595E+03 -0.85942145277E+02 -0.85463595062E+03  0.87908673409E+03  0.00000000000E+00 0.  1.
         21    1    1    2  502  501  0.16952418129E+01 -0.86905226901E+00  0.77768465474E+01  0.80067745611E+01  0.00000000000E+00 0. -1.
<mgrwt>
<rscale>  1 0.60325195E+03</rscale>
<asrwt>0</asrwt>
<pdfrwt beam="1">  1        1 0.35956621E+00 0.60325195E+03</pdfrwt>
<pdfrwt beam="2">0</pdfrwt>
<totfact> 0.20349768E+00</totfact>
</mgrwt>
</event>
<event>
 6    1  0.8234624E-003  0.6519387E+03  0.7818608E-02  0.9803148E-01
          1   -1    0    0  502    0  0.00000000000E+00  0.00000000000E+00  0.10625603071E+03  0.10625603071E+03  0.00000000000E+00 0.  1.
         13   -1    0    0    0    0 -0.00000000000E+00 -0.00000000000E+00 -0.10000000000E+04  0.10000000000E+04  0.00000000000E+00 0.  1.
    9000005    2    1    2  501    0  0.14887866556E-04  0.32995973299E-04 -0.89374395949E+03  0.11062559932E+04  0.65193869143E+03 0.  0.
         13    1    3    3    0    0 -0.54354223367E+02  0.24573616331E+03 -0.79839629472E+03  0.83712441547E+03  0.00000000000E+00 0.  1.
          3    1    3    3  501    0  0.54354238255E+02 -0.24573613031E+03 -0.95347664769E+02  0.26913157774E+03  0.00000000000E+00 0.  1.
         21    1    1    2  502  501 -0.14887866557E-04 -0.32995973290E-04 -0.97961473778E-05  0.37501297677E-04  0.00000000000E+00 0. -1.
<mgrwt>
<rscale>  1 0.65193869E+03</rscale>
<asrwt>0</asrwt>
<pdfrwt beam="1">  1        1 0.38638638E+00 0.65193869E+03</pdfrwt>
<pdfrwt beam="2">0</pdfrwt>
<totfact> 0.15371712E+00</totfact>
</mgrwt>
</event>
<event>
 6    1  0.8234624E-003  0.6510461E+03  0.7818608E-02  0.9804818E-01
          1   -1    0    0  502    0  0.00000000000E+00  0.00000000000E+00  0.10626999197E+03  0.10626999197E+03  0.00000000000E+00 0.  1.
         13   -1    0    0    0    0 -0.00000000000E+00 -0.00000000000E+00 -0.10000000000E+04  0.10000000000E+04  0.00000000000E+00 0.  1.
    9000005    2    1    2  501    0 -0.24714478454E-01 -0.56701764470E-01 -0.89403127205E+03  0.11059624438E+04  0.65104608728E+03 0.  0.
         13    1    3    3    0    0 -0.17094573065E+03  0.27682354049E+03 -0.46398436844E+03  0.56668792960E+03  0.00000000000E+00 0.  1.
          3    1    3    3  501    0  0.17092101617E+03 -0.27688024225E+03 -0.43004690361E+03  0.53927451416E+03  0.00000000000E+00 0.  1.
         21    1    1    2  502  501  0.24714478454E-01  0.56701764470E-01  0.30126401555E+00  0.30754821184E+00  0.00000000000E+00 0. -1.
<mgrwt>
<rscale>  1 0.65104609E+03</rscale>
<asrwt>0</asrwt>
<pdfrwt beam="1">  1        1 0.38643715E+00 0.65104609E+03</pdfrwt>
<pdfrwt beam="2">0</pdfrwt>
<totfact> 0.15366296E+00</totfact>
</mgrwt>
</event>
<event>
 6    1  0.8234624E-003  0.6534906E+03  0.7818608E-02  0.9800251E-01
          1   -1    0    0  502    0  0.00000000000E+00  0.00000000000E+00  0.10714313554E+03  0.10714313554E+03  0.00000000000E+00 0.  1.
         13   -1    0    0    0    0 -0.00000000000E+00 -0.00000000000E+00 -0.10000000000E+04  0.10000000000E+04  0.00000000000E+00 0.  1.
    9000005    2    1    2  501    0 -0.91565617947E-01 -0.40330420385E-01 -0.89323021101E+03  0.11067566146E+04  0.65349061513E+03 0.  0.
         13    1    3    3    0    0 -0.29711942789E+03  0.12793424254E+03 -0.36836201155E+03  0.49024248735E+03  0.00000000000E+00 0.  1.
          1    1    3    3  501    0  0.29702786227E+03 -0.12797457296E+03 -0.52486819945E+03  0.61651412724E+03  0.00000000000E+00 0.  1.
         21    1    1    2  502  501  0.91565617947E-01  0.40330420385E-01  0.37334654618E+00  0.38652095512E+00  0.00000000000E+00 0. -1.
<mgrwt>
<rscale>  1 0.65349062E+03</rscale>
<asrwt>0</asrwt>
<pdfrwt beam="1">  1        1 0.38961222E+00 0.65349062E+03</pdfrwt>
<pdfrwt beam="2">0</pdfrwt>
<totfact> 0.14869856E+00</totfact>
</mgrwt>
</event>
<event>
 6    1  0.8234624E-003  0.6679288E+03  0.7818608E-02  0.9773707E-01
          3   -1    0    0  502    0  0.00000000000E+00  0.00000000000E+00  0.11209284334E+03  0.11209284334E+03  0.00000000000E+00 0.  1.
         13   -1    0    0    0    0 -0.00000000000E+00 -0.00000000000E+00 -0.10000000000E+04  0.10000000000E+04  0.00000000000E+00 0.  1.
    9000005    2    1    2  501    0 -0.23384586104E-02  0.85105486412E-02 -0.88846774636E+03  0.11115321842E+04  0.66792878366E+03 0.  0.
         13    1    3    3    0    0  0.14027206057E+03 -0.26298584944E+03 -0.69491283839E+03  0.75613600691E+03  0.00000000000E+00 0.  1.
          3    1    3    3  501    0 -0.14027439903E+03  0.26299435999E+03 -0.19355490797E+03  0.35539617726E+03  0.00000000000E+00 0.  1.
         21    1    1    2  502  501  0.23384586104E-02 -0.85105486412E-02  0.56058969990E+00  0.56065917407E+00  0.00000000000E+00 0.  1.
<mgrwt>
<rscale>  1 0.66792878E+03</rscale>
<asrwt>0</asrwt>
<pdfrwt beam="1">  1        3 0.40761120E+00 0.66792878E+03</pdfrwt>
<pdfrwt beam="2">0</pdfrwt>
<totfact> 0.53885310E-02</totfact>
</mgrwt>
</event>
<event>
 6    1  0.8234624E-003  0.6470926E+03  0.7818608E-02  0.9812250E-01
          1   -1    0    0  502    0  0.00000000000E+00  0.00000000000E+00  0.10468790716E+03  0.10468790716E+03  0.00000000000E+00 0.  1.
         13   -1    0    0    0    0 -0.00000000000E+00 -0.00000000000E+00 -0.10000000000E+04  0.10000000000E+04  0.00000000000E+00 0.  1.
    9000005    2    1    2  501    0  0.48415960947E-02  0.21837445387E-03 -0.89531661631E+03  0.11046812776E+04  0.64709263765E+03 0.  0.
         13    1    3    3    0    0 -0.26277974599E+03  0.20341582963E+02 -0.12730312695E+03  0.29269960887E+03  0.00000000000E+00 0.  1.
          3    1    3    3  501    0  0.26278458759E+03 -0.20341364589E+02 -0.76801348936E+03  0.81198166877E+03  0.00000000000E+00 0.  1.
         21    1    1    2  502  501 -0.48415960947E-02 -0.21837445387E-03  0.45234741261E-02  0.66295217260E-02  0.00000000000E+00 0.  1.
<mgrwt>
<rscale>  1 0.64709264E+03</rscale>
<asrwt>0</asrwt>
<pdfrwt beam="1">  1        1 0.38068410E+00 0.64709264E+03</pdfrwt>
<pdfrwt beam="2">0</pdfrwt>
<totfact> 0.16304760E+00</totfact>
</mgrwt>
</event>
<event>
 6    1  0.8234624E-003  0.6496160E+03  0.7818608E-02  0.9807500E-01
          1   -1    0    0  502    0  0.00000000000E+00  0.00000000000E+00  0.10606686838E+03  0.10606686838E+03  0.00000000000E+00 0.  1.
         13   -1    0    0    0    0 -0.00000000000E+00 -0.00000000000E+00 -0.10000000000E+04  0.10000000000E+04  0.00000000000E+00 0.  1.
    9000005    2    1    2  501    0  0.19884876450E+00  0.78089109792E-01 -0.89447742763E+03  0.11054821489E+04  0.64961593831E+03 0.  0.
         13    1    3    3    0    0 -0.12918681498E+03 -0.17889359482E+03 -0.41694280852E+02  0.22456750542E+03  0.00000000000E+00 0.  1.
          1    1    3    3  501    0  0.12938566375E+03  0.17897168393E+03 -0.85278314678E+03  0.88091464346E+03  0.00000000000E+00 0.  1.
         21    1    1    2  502  501 -0.19884876450E+00 -0.78089109792E-01  0.54429600882E+00  0.58471949294E+00  0.00000000000E+00 0. -1.
<mgrwt>
<rscale>  1 0.64961597E+03</rscale>
<asrwt>0</asrwt>
<pdfrwt beam="1">  1        1 0.38569852E+00 0.64961597E+03</pdfrwt>
<pdfrwt beam="2">0</pdfrwt>
<totfact> 0.15486488E+00</totfact>
</mgrwt>
</event>
<event>
 6    1  0.8234624E-003  0.6132258E+03  0.7818608E-02  0.9878340E-01
          1   -1    0    0  502    0  0.00000000000E+00  0.00000000000E+00  0.96044059282E+02  0.96044059282E+02  0.00000000000E+00 0.  1.
         13   -1    0    0    0    0 -0.00000000000E+00 -0.00000000000E+00 -0.10000000000E+04  0.10000000000E+04  0.00000000000E+00 0.  1.
    9000005    2    1    2  501    0 -0.51252895018E-01  0.15969977895E-01 -0.90598812965E+03  0.10940111614E+04  0.61322583715E+03 0.  0.
         13    1    3    3    0    0 -0.20729807140E+03 -0.22592407289E+03 -0.45671931729E+03  0.55009700227E+03  0.00000000000E+00 0.  1.
          3    1    3    3  501    0  0.20724681851E+03  0.22594004287E+03 -0.44926881236E+03  0.54391415914E+03  0.00000000000E+00 0.  1.
         21    1    1    2  502  501  0.51252895018E-01 -0.15969977895E-01  0.20321889315E+01  0.20328978707E+01  0.00000000000E+00 0. -1.
<mgrwt>
<rscale>  1 0.61322584E+03</rscale>
<asrwt>0</asrwt>
<pdfrwt beam="1">  1        1 0.34925186E+00 0.61322584E+03</pdfrwt>
<pdfrwt beam="2">0</pdfrwt>
<totfact> 0.22529416E+00</totfact>
</mgrwt>
</event>
<event>
 6    1  0.8234624E-003  0.6460582E+03  0.7818608E-02  0.9814204E-01
          1   -1    0    0  502    0  0.00000000000E+00  0.00000000000E+00  0.10442484697E+03  0.10442484697E+03  0.00000000000E+00 0.  1.
         13   -1    0    0    0    0 -0.00000000000E+00 -0.00000000000E+00 -0.10000000000E+04  0.10000000000E+04  0.00000000000E+00 0.  1.
    9000005    2    1    2  501    0 -0.17016602185E-01 -0.30686051885E-01 -0.89564777678E+03  0.11043441909E+04  0.64605816348E+03 0.  0.
         13    1    3    3    0    0  0.19119245089E+03 -0.26034828554E+03 -0.45482779607E+03  0.55785670843E+03  0.00000000000E+00 0.  1.
          1    1    3    3  501    0 -0.19120946749E+03  0.26031759949E+03 -0.44081998071E+03  0.54648748243E+03  0.00000000000E+00 0.  1.
         21    1    1    2  502  501  0.17016602185E-01  0.30686051885E-01  0.72623749319E-01  0.80656106374E-01  0.00000000000E+00 0.  1.
<mgrwt>
<rscale>  1 0.64605816E+03</rscale>
<asrwt>0</asrwt>
<pdfrwt beam="1">  1        1 0.37972752E+00 0.64605816E+03</pdfrwt>
<pdfrwt beam="2">0</pdfrwt>
<totfact> 0.16467137E+00</totfact>
</mgrwt>
</event>
<event>
 6    1  0.8234624E-003  0.6481754E+03  0.7818608E-02  0.9810209E-01
          1   -1    0    0  502    0  0.00000000000E+00  0.00000000000E+00  0.11337574384E+03  0.11337574384E+03  0.00000000000E+00 0.  1.
         13   -1    0    0    0    0 -0.00000000000E+00 -0.00000000000E+00 -0.10000000000E+04  0.10000000000E+04  0.00000000000E+00 0.  1.
    9000005    2    1    2  501    0 -0.46200095773E+01 -0.89597414544E+00 -0.89422753208E+03  0.11044338725E+04  0.64815827724E+03 0.  0.
         13    1    3    3    0    0 -0.15206785625E+03 -0.24461166887E+03 -0.70738413088E+03  0.76377471160E+03  0.00000000000E+00 0.  1.
          3    1    3    3  501    0  0.14744784668E+03  0.24371569472E+03 -0.18684340120E+03  0.34065916091E+03  0.00000000000E+00 0.  1.
         21    1    1    2  502  501  0.46200095773E+01  0.89597414544E+00  0.76032759180E+01  0.89418713281E+01  0.00000000000E+00 0. -1.
<mgrwt>
<rscale>  1 0.64817536E+03</rscale>
<asrwt>0</asrwt>
<pdfrwt beam="1">  1        1 0.41227630E+00 0.64817536E+03</pdfrwt>
<pdfrwt beam="2">0</pdfrwt>
<totfact> 0.11794013E+00</totfact>
</mgrwt>
</event>
<event>
 6    1  0.8234624E-003  0.6551803E+03  0.7818608E-02  0.9797107E-01
          1   -1    0    0  502    0  0.00000000000E+00  0.00000000000E+00  0.10931418258E+03  0.10931418258E+03  0.00000000000E+00 0.  1.
         13   -1    0    0    0    0 -0.00000000000E+00 -0.00000000000E+00 -0.10000000000E+04  0.10000000000E+04  0.00000000000E+00 0.  1.
    9000005    2    1    2  501    0 -0.28810301884E+01 -0.35708170295E+01 -0.88916651343E+03  0.11044810310E+04  0.65516426051E+03 0.  0.
         13    1    3    3    0    0  0.32401898277E+03 -0.38217839727E+02 -0.42981297807E+03  0.53961847687E+03  0.00000000000E+00 0.  1.
          1    1    3    3  501    0 -0.32690001295E+03  0.34647022697E+02 -0.45935353537E+03  0.56486255417E+03  0.00000000000E+00 0.  1.
         21    1    1    2  502  501  0.28810301884E+01  0.35708170295E+01 -0.15193039836E+01  0.48331515390E+01  0.00000000000E+00 0. -1.
<mgrwt>
<rscale>  1 0.65518033E+03</rscale>
<asrwt>0</asrwt>
<pdfrwt beam="1">  1        1 0.39750696E+00 0.65518033E+03</pdfrwt>
<pdfrwt beam="2">0</pdfrwt>
<totfact> 0.13711814E+00</totfact>
</mgrwt>
</event>
<event>
 6    1  0.8234624E-003  0.6476691E+03  0.7818608E-02  0.9811163E-01
          1   -1    0    0  502    0  0.00000000000E+00  0.00000000000E+00  0.10486882170E+03  0.10486882170E+03  0.00000000000E+00 0.  1.
         13   -1    0    0    0    0 -0.00000000000E+00 -0.00000000000E+00 -0.10000000000E+04  0.10000000000E+04  0.00000000000E+00 0.  1.
    9000005    2    1    2  501    0  0.87164721663E-07  0.96391624425E-05 -0.89513117942E+03  0.11048688120E+04  0.64766910020E+03 0.  0.
         13    1    3    3    0    0  0.28459394724E+03  0.13414751330E+03 -0.31675904862E+03  0.44645891750E+03  0.00000000000E+00 0.  1.
          3    1    3    3  501    0 -0.28459394715E+03 -0.13414750366E+03 -0.57837213080E+03  0.65840989450E+03  0.00000000000E+00 0.  1.
         21    1    1    2  502  501 -0.87164722025E-07 -0.96391624456E-05  0.11169108919E-05  0.97040476236E-05  0.00000000000E+00 0.  1.
<mgrwt>
<rscale>  1 0.64766910E+03</rscale>
<asrwt>0</asrwt>
<pdfrwt beam="1">  1        1 0.38134197E+00 0.64766910E+03</pdfrwt>
<pdfrwt beam="2">0</pdfrwt>
<totfact> 0.16194376E+00</totfact>
</mgrwt>
</event>
<event>
 6    1  0.8234624E-003  0.6560542E+03  0.7818608E-02  0.9795485E-01
          3   -1    0    0  502    0  0.00000000000E+00  0.00000000000E+00  0.11543796852E+03  0.11543796852E+03  0.00000000000E+00 0.  1.
         13   -1    0    0    0    0 -0.00000000000E+00 -0.00000000000E+00 -0.10000000000E+04  0.10000000000E+04  0.00000000000E+00 0.  1.
    9000005    2    1    2  501    0  0.68385224651E+00  0.61950809348E+00 -0.89236812066E+03  0.11075775314E+04  0.65605356012E+03 0.  0.
         13    1    3    3    0    0  0.15184561833E+03 -0.15980101857E+03 -0.36076660743E+02  0.22337184871E+03  0.00000000000E+00 0.  1.
          3    1    3    3  501    0 -0.15116176609E+03  0.16042052667E+03 -0.85629145991E+03  0.88420568265E+03  0.00000000000E+00 0.  1.
         21    1    1    2  502  501 -0.68385224651E+00 -0.61950809348E+00  0.78060891762E+01  0.78604371634E+01  0.00000000000E+00 0.  1.
<mgrwt>
<rscale>  1 0.65605421E+03</rscale>
<asrwt>0</asrwt>
<pdfrwt beam="1">  1        3 0.41977532E+00 0.65605421E+03</pdfrwt>
<pdfrwt beam="2">0</pdfrwt>
<totfact> 0.46675068E-02</totfact>
</mgrwt>
</event>
<event>
 6    1  0.8234624E-003  0.6488484E+03  0.7818608E-02  0.9808943E-01
          1   -1    0    0  502    0  0.00000000000E+00  0.00000000000E+00  0.10545107038E+03  0.10545107038E+03  0.00000000000E+00 0.  1.
         13   -1    0    0    0    0 -0.00000000000E+00 -0.00000000000E+00 -0.10000000000E+04  0.10000000000E+04  0.00000000000E+00 0.  1.
    9000005    2    1    2  501    0 -0.65932551855E-02  0.10545494125E-02 -0.89474888063E+03  0.11052510079E+04  0.64884838835E+03 0.  0.
         13    1    3    3    0    0  0.10635507988E+02 -0.15117828212E+03 -0.93599517835E+03  0.94818508790E+03  0.00000000000E+00 0.  1.
          3    1    3    3  501    0 -0.10642101243E+02  0.15117933667E+03  0.41246297722E+02  0.15706592001E+03  0.00000000000E+00 0.  1.
         21    1    1    2  502  501  0.65932551855E-02 -0.10545494124E-02  0.19995101227E+00  0.20006246624E+00  0.00000000000E+00 0.  1.
<mgrwt>
<rscale>  1 0.64884839E+03</rscale>
<asrwt>0</asrwt>
<pdfrwt beam="1">  1        1 0.38345925E+00 0.64884839E+03</pdfrwt>
<pdfrwt beam="2">0</pdfrwt>
<totfact> 0.15845901E+00</totfact>
</mgrwt>
</event>
<event>
 6    1  0.8234624E-003  0.6431409E+03  0.7818608E-02  0.9819736E-01
          1   -1    0    0  502    0  0.00000000000E+00  0.00000000000E+00  0.10341204799E+03  0.10341204799E+03  0.00000000000E+00 0.  1.
         13   -1    0    0    0    0 -0.00000000000E+00 -0.00000000000E+00 -0.10000000000E+04  0.10000000000E+04  0.00000000000E+00 0.  1.
    9000005    2    1    2  501    0  0.26250108922E-02  0.12572751450E-03 -0.89659201276E+03  0.11034072110E+04  0.64314091459E+03 0.  0.
         13    1    3    3    0    0 -0.89175139551E+02  0.28263269855E+03 -0.23418971982E+03  0.37772777588E+03  0.00000000000E+00 0.  1.
          3    1    3    3  501    0  0.89177764562E+02 -0.28263257282E+03 -0.66240229294E+03  0.72567943515E+03  0.00000000000E+00 0.  1.
         21    1    1    2  502  501 -0.26250108922E-02 -0.12572751449E-03  0.40607512679E-02  0.48369608693E-02  0.00000000000E+00 0. -1.
<mgrwt>
<rscale>  1 0.64314091E+03</rscale>
<asrwt>0</asrwt>
<pdfrwt beam="1">  1        1 0.37604460E+00 0.64314091E+03</pdfrwt>
<pdfrwt beam="2">0</pdfrwt>
<totfact> 0.17103456E+00</totfact>
</mgrwt>
</event>
<event>
 6    1  0.8234624E-003  0.6584643E+03  0.7818608E-02  0.9791025E-01
          1   -1    0    0  502    0  0.00000000000E+00  0.00000000000E+00  0.11128044593E+03  0.11128044593E+03  0.00000000000E+00 0.  1.
         13   -1    0    0    0    0 -0.00000000000E+00 -0.00000000000E+00 -0.10000000000E+04  0.10000000000E+04  0.00000000000E+00 0.  1.
    9000005    2    1    2  501    0  0.10989216370E+01  0.11761535410E+01 -0.89135533647E+03  0.11081920297E+04  0.65846233597E+03 0.  0.
         13    1    3    3    0    0  0.60545279496E+00  0.32692846434E+03 -0.37319471876E+03  0.49614200132E+03  0.00000000000E+00 0.  1.
          3    1    3    3  501    0  0.49346884208E+00 -0.32575231080E+03 -0.51816061771E+03  0.61205002838E+03  0.00000000000E+00 0.  1.
         21    1    1    2  502  501 -0.10989216370E+01 -0.11761535410E+01  0.26357824008E+01  0.30884162253E+01  0.00000000000E+00 0.  1.
<mgrwt>
<rscale>  1 0.65846430E+03</rscale>
<asrwt>0</asrwt>
<pdfrwt beam="1">  1        1 0.40465702E+00 0.65846430E+03</pdfrwt>
<pdfrwt beam="2">0</pdfrwt>
<totfact> 0.12732941E+00</totfact>
</mgrwt>
</event>
<event>
 6    1  0.8234624E-003  0.6541864E+03  0.7818608E-02  0.9798955E-01
          1   -1    0    0  502    0  0.00000000000E+00  0.00000000000E+00  0.10700552513E+03  0.10700552513E+03  0.00000000000E+00 0.  1.
         13   -1    0    0    0    0 -0.00000000000E+00 -0.00000000000E+00 -0.10000000000E+04  0.10000000000E+04  0.00000000000E+00 0.  1.
    9000005    2    1    2  501    0 -0.12394686037E-02  0.24514834058E-03 -0.89301001437E+03  0.11069899344E+04  0.65418638705E+03 0.  0.
         13    1    3    3    0    0 -0.14635420695E+03  0.10493942197E+03  0.15545917524E+02  0.18075815812E+03  0.00000000000E+00 0.  1.
          3    1    3    3  501    0  0.14635296748E+03 -0.10493917683E+03 -0.90855593189E+03  0.92623177623E+03  0.00000000000E+00 0.  1.
         21    1    1    2  502  501  0.12394686037E-02 -0.24514834057E-03  0.15539498041E-01  0.15590778669E-01  0.00000000000E+00 0.  1.
<mgrwt>
<rscale>  1 0.65418639E+03</rscale>
<asrwt>0</asrwt>
<pdfrwt beam="1">  1        1 0.38911182E+00 0.65418639E+03</pdfrwt>
<pdfrwt beam="2">0</pdfrwt>
<totfact> 0.14944078E+00</totfact>
</mgrwt>
</event>
<event>
 6    1  0.8234624E-003  0.6537048E+03  0.7818608E-02  0.9799852E-01
          1   -1    0    0  502    0  0.00000000000E+00  0.00000000000E+00  0.10683587891E+03  0.10683587891E+03  0.00000000000E+00 0.  1.
         13   -1    0    0    0    0 -0.00000000000E+00 -0.00000000000E+00 -0.10000000000E+04  0.10000000000E+04  0.00000000000E+00 0.  1.
    9000005    2    1    2  501    0  0.24229299220E-03  0.29603508853E-04 -0.89316749268E+03  0.11068324985E+04  0.65370483381E+03 0.  0.
         13    1    3    3    0    0 -0.29394879913E+03  0.30187313008E+02 -0.21005296525E+03  0.36254574688E+03  0.00000000000E+00 0.  1.
          3    1    3    3  501    0  0.29394904142E+03 -0.30187283404E+02 -0.68311452743E+03  0.74428675161E+03  0.00000000000E+00 0.  1.
         21    1    1    2  502  501 -0.24229299217E-03 -0.29603508855E-04  0.33715954685E-02  0.33804198356E-02  0.00000000000E+00 0.  1.
<mgrwt>
<rscale>  1 0.65370483E+03</rscale>
<asrwt>0</asrwt>
<pdfrwt beam="1">  1        1 0.38849492E+00 0.65370483E+03</pdfrwt>
<pdfrwt beam="2">0</pdfrwt>
<totfact> 0.15039796E+00</totfact>
</mgrwt>
</event>
<event>
 6    1  0.8234624E-003  0.6393535E+03  0.7818608E-02  0.9826964E-01
          1   -1    0    0  502    0  0.00000000000E+00  0.00000000000E+00  0.10523959052E+03  0.10523959052E+03  0.00000000000E+00 0.  1.
         13   -1    0    0    0    0 -0.00000000000E+00 -0.00000000000E+00 -0.10000000000E+04  0.10000000000E+04  0.00000000000E+00 0.  1.
    9000005    2    1    2  501    0 -0.32592520275E+01 -0.15606607559E+01 -0.89657960404E+03  0.11011938700E+04  0.63934333072E+03 0.  0.
         13    1    3    3    0    0 -0.16009575728E+03 -0.27153698119E+03 -0.34457590818E+03  0.46700700225E+03  0.00000000000E+00 0.  1.
          1    1    3    3  501    0  0.15683650525E+03  0.26997632044E+03 -0.55200369586E+03  0.63418686774E+03  0.00000000000E+00 0.  1.
         21    1    1    2  502  501  0.32592520275E+01  0.15606607559E+01  0.18191945597E+01  0.40457205317E+01  0.00000000000E+00 0.  1.
<mgrwt>
<rscale>  1 0.63935354E+03</rscale>
<asrwt>0</asrwt>
<pdfrwt beam="1">  1        1 0.38269023E+00 0.63935354E+03</pdfrwt>
<pdfrwt beam="2">0</pdfrwt>
<totfact> 0.15998511E+00</totfact>
</mgrwt>
</event>
<event>
 6    1  0.8234624E-003  0.5697403E+03  0.7818608E-02  0.9970254E-01
          1   -1    0    0  502    0  0.00000000000E+00  0.00000000000E+00  0.81151906719E+02  0.81151906719E+02  0.00000000000E+00 0.  1.
         13   -1    0    0    0    0 -0.00000000000E+00 -0.00000000000E+00 -0.10000000000E+04  0.10000000000E+04  0.00000000000E+00 0.  1.
    9000005    2    1    2  501    0 -0.42259436555E-05  0.51290819158E-04 -0.91884900526E+03  0.10811509933E+04  0.56974027048E+03 0.  0.
         13    1    3    3    0    0 -0.20357107320E+03 -0.17365631832E+03 -0.64489968094E+03  0.69820720221E+03  0.00000000000E+00 0.  1.
          3    1    3    3  501    0  0.20357106897E+03  0.17365636961E+03 -0.27394932432E+03  0.38294379108E+03  0.00000000000E+00 0.  1.
         21    1    1    2  502  501  0.42259436438E-05 -0.51290819169E-04  0.91198300550E-03  0.91343396535E-03  0.00000000000E+00 0.  1.
<mgrwt>
<rscale>  1 0.56974027E+03</rscale>
<asrwt>0</asrwt>
<pdfrwt beam="1">  1        1 0.29509846E+00 0.56974027E+03</pdfrwt>
<pdfrwt beam="2">0</pdfrwt>
<totfact> 0.38947077E+00</totfact>
</mgrwt>
</event>
<event>
 6    1  0.8234624E-003  0.6472641E+03  0.7818608E-02  0.9811926E-01
          1   -1    0    0  502    0  0.00000000000E+00  0.00000000000E+00  0.10546813041E+03  0.10546813041E+03  0.00000000000E+00 0.  1.
         13   -1    0    0    0    0 -0.00000000000E+00 -0.00000000000E+00 -0.10000000000E+04  0.10000000000E+04  0.00000000000E+00 0.  1.
    9000005    2    1    2  501    0 -0.50546691236E-02  0.17696266719E-01 -0.89526215862E+03  0.11047376095E+04  0.64726412916E+03 0.  0.
         13    1    3    3    0    0 -0.26568440407E+03  0.18469715339E+03 -0.45858078892E+03  0.56124645300E+03  0.00000000000E+00 0.  1.
          1    1    3    3  501    0  0.26567934940E+03 -0.18467945712E+03 -0.43668136969E+03  0.54349115652E+03  0.00000000000E+00 0.  1.
         21    1    1    2  502  501  0.50546691236E-02 -0.17696266719E-01  0.73028902748E+00  0.73052089032E+00  0.00000000000E+00 0.  1.
<mgrwt>
<rscale>  1 0.64726413E+03</rscale>
<asrwt>0</asrwt>
<pdfrwt beam="1">  1        1 0.38352128E+00 0.64726413E+03</pdfrwt>
<pdfrwt beam="2">0</pdfrwt>
<totfact> 0.15840534E+00</totfact>
</mgrwt>
</event>
<event>
 6    1  0.8234624E-003  0.6503517E+03  0.7818608E-02  0.9806119E-01
          1   -1    0    0  502    0  0.00000000000E+00  0.00000000000E+00  0.11482429176E+03  0.11482429176E+03  0.00000000000E+00 0.  1.
         13   -1    0    0    0    0 -0.00000000000E+00 -0.00000000000E+00 -0.10000000000E+04  0.10000000000E+04  0.00000000000E+00 0.  1.
    9000005    2    1    2  501    0  0.64452375485E-01 -0.87786689611E+00 -0.89423707863E+03  0.11057202686E+04  0.65035112424E+03 0.  0.
         13    1    3    3    0    0 -0.21629773534E+03 -0.11920590091E+03 -0.87307274158E+02  0.26194907376E+03  0.00000000000E+00 0.  1.
          1    1    3    3  501    0  0.21636218771E+03  0.11832803401E+03 -0.80692980447E+03  0.84377119484E+03  0.00000000000E+00 0.  1.
         21    1    1    2  502  501 -0.64452375485E-01  0.87786689611E+00  0.90613703894E+01  0.91040231618E+01  0.00000000000E+00 0.  1.
<mgrwt>
<rscale>  1 0.65035172E+03</rscale>
<asrwt>0</asrwt>
<pdfrwt beam="1">  1        1 0.41754376E+00 0.65035172E+03</pdfrwt>
<pdfrwt beam="2">0</pdfrwt>
<totfact> 0.11163371E+00</totfact>
</mgrwt>
</event>
<event>
 6    1  0.8234624E-003  0.6614648E+03  0.7818608E-02  0.9785501E-01
          1   -1    0    0  502    0  0.00000000000E+00  0.00000000000E+00  0.10938395943E+03  0.10938395943E+03  0.00000000000E+00 0.  1.
         13   -1    0    0    0    0 -0.00000000000E+00 -0.00000000000E+00 -0.10000000000E+04  0.10000000000E+04  0.00000000000E+00 0.  1.
    9000005    2    1    2  501    0  0.75772859418E-05  0.32385560758E-05 -0.89061606350E+03  0.11093839351E+04  0.66146484624E+03 0.  0.
         13    1    3    3    0    0 -0.13668165521E+03 -0.24253324402E+03 -0.74476340246E+03  0.79509545022E+03  0.00000000000E+00 0.  1.
          3    1    3    3  501    0  0.13668166279E+03  0.24253324726E+03 -0.14585266105E+03  0.31428848484E+03  0.00000000000E+00 0.  1.
         21    1    1    2  502  501 -0.75772859383E-05 -0.32385560776E-05  0.22928634503E-04  0.24364436949E-04  0.00000000000E+00 0. -1.
<mgrwt>
<rscale>  1 0.66146485E+03</rscale>
<asrwt>0</asrwt>
<pdfrwt beam="1">  1        1 0.39776069E+00 0.66146485E+03</pdfrwt>
<pdfrwt beam="2">0</pdfrwt>
<totfact> 0.13660096E+00</totfact>
</mgrwt>
</event>
<event>
 6    1  0.8234624E-003  0.6750276E+03  0.7818608E-02  0.9760918E-01
          1   -1    0    0  502    0  0.00000000000E+00  0.00000000000E+00  0.11391687662E+03  0.11391687662E+03  0.00000000000E+00 0.  1.
         13   -1    0    0    0    0 -0.00000000000E+00 -0.00000000000E+00 -0.10000000000E+04  0.10000000000E+04  0.00000000000E+00 0.  1.
    9000005    2    1    2  501    0 -0.45189465993E-04 -0.77079093330E-05 -0.88608442974E+03  0.11139155695E+04  0.67502761368E+03 0.  0.
         13    1    3    3    0    0 -0.15068803491E+03  0.27826778193E+03 -0.63672369724E+03  0.71102525198E+03  0.00000000000E+00 0.  1.
          1    1    3    3  501    0  0.15068798972E+03 -0.27826778964E+03 -0.24936073251E+03  0.40289031747E+03  0.00000000000E+00 0.  1.
         21    1    1    2  502  501  0.45189466017E-04  0.77079093003E-05  0.13063633787E-02  0.13071674632E-02  0.00000000000E+00 0.  1.
<mgrwt>
<rscale>  1 0.67502761E+03</rscale>
<asrwt>0</asrwt>
<pdfrwt beam="1">  1        1 0.41424406E+00 0.67502761E+03</pdfrwt>
<pdfrwt beam="2">0</pdfrwt>
<totfact> 0.11496838E+00</totfact>
</mgrwt>
</event>
<event>
 6    1  0.8234624E-003  0.6479053E+03  0.7818608E-02  0.9810718E-01
          1   -1    0    0  502    0  0.00000000000E+00  0.00000000000E+00  0.10496095361E+03  0.10496095361E+03  0.00000000000E+00 0.  1.
         13   -1    0    0    0    0 -0.00000000000E+00 -0.00000000000E+00 -0.10000000000E+04  0.10000000000E+04  0.00000000000E+00 0.  1.
    9000005    2    1    2  501    0 -0.28002527966E-03  0.99384070683E-03 -0.89505466143E+03  0.11049453045E+04  0.64790530088E+03 0.  0.
         13    1    3    3    0    0  0.27997381149E+03  0.15872508318E+03 -0.38448693894E+03  0.50140721312E+03  0.00000000000E+00 0.  1.
          1    1    3    3  501    0 -0.27997409152E+03 -0.15872408934E+03 -0.51056772249E+03  0.60353809135E+03  0.00000000000E+00 0.  1.
         21    1    1    2  502  501  0.28002527968E-03 -0.99384070683E-03  0.15615046585E-01  0.15649147369E-01  0.00000000000E+00 0.  1.
<mgrwt>
<rscale>  1 0.64790530E+03</rscale>
<asrwt>0</asrwt>
<pdfrwt beam="1">  1        1 0.38167700E+00 0.64790530E+03</pdfrwt>
<pdfrwt beam="2">0</pdfrwt>
<totfact> 0.16138606E+00</totfact>
</mgrwt>
</event>
<event>
 6    1  0.8234624E-003  0.6367533E+03  0.7818608E-02  0.9831958E-01
          1   -1    0    0  502    0  0.00000000000E+00  0.00000000000E+00  0.14471190784E+03  0.14471190784E+03  0.00000000000E+00 0.  1.
         13   -1    0    0    0    0 -0.00000000000E+00 -0.00000000000E+00 -0.10000000000E+04  0.10000000000E+04  0.00000000000E+00 0.  1.
    9000005    2    1    2  501    0 -0.69683953341E+00 -0.14820966062E+00 -0.89863307033E+03  0.11013610753E+04  0.63675294698E+03 0.  0.
         13    1    3    3    0    0  0.32641051300E+02  0.28446797506E+03 -0.20881229694E+03  0.35438685418E+03  0.00000000000E+00 0.  1.
          1    1    3    3  501    0 -0.33337890834E+02 -0.28461618472E+03 -0.68982077340E+03  0.74697422109E+03  0.00000000000E+00 0.  1.
         21    1    1    2  502  501  0.69683953341E+00  0.14820966062E+00  0.43344978168E+02  0.43350832562E+02  0.00000000000E+00 0.  1.
<mgrwt>
<rscale>  1 0.63675335E+03</rscale>
<asrwt>0</asrwt>
<pdfrwt beam="1">  1        1 0.52622623E+00 0.63675335E+03</pdfrwt>
<pdfrwt beam="2">0</pdfrwt>
<totfact> 0.34556086E-01</totfact>
</mgrwt>
</event>
<event>
 6    1  0.1127894E-002  0.5049661E+03  0.7818608E-02  0.1012491E+00
          1   -1    0    0  502    0  0.00000000000E+00  0.00000000000E+00  0.63747685679E+02  0.63747685679E+02  0.00000000000E+00 0.  1.
         13   -1    0    0    0    0 -0.00000000000E+00 -0.00000000000E+00 -0.10000000000E+04  0.10000000000E+04  0.00000000000E+00 0.  1.
    9000005    2    1    2  501    0  0.59359894067E-06 -0.28589888075E-05 -0.93625231422E+03  0.10637476828E+04  0.50496607478E+03 0.  0.
         13    1    3    3    0    0  0.43722010739E+02 -0.21016425573E+03 -0.18812584413E+03  0.28543293755E+03  0.00000000000E+00 0.  1.
          1    1    3    3  501    0 -0.43722010146E+02  0.21016425287E+03 -0.74812647009E+03  0.77831474521E+03  0.00000000000E+00 0.  1.
         21    1    1    2  502  501 -0.59359893690E-06  0.28589888164E-05 -0.97480069513E-07  0.29215884573E-05  0.00000000000E+00 0. -1.
<mgrwt>
<rscale>  1 0.50496607E+03</rscale>
<asrwt>0</asrwt>
<pdfrwt beam="1">  1        1 0.23181025E+00 0.50496607E+03</pdfrwt>
<pdfrwt beam="2">0</pdfrwt>
<totfact> 0.74104282E+00</totfact>
</mgrwt>
</event>
<event>
 6    1  0.8234624E-003  0.6353684E+03  0.7818608E-02  0.9834628E-01
          1   -1    0    0  502    0  0.00000000000E+00  0.00000000000E+00  0.10191873671E+03  0.10191873671E+03  0.00000000000E+00 0.  1.
         13   -1    0    0    0    0 -0.00000000000E+00 -0.00000000000E+00 -0.10000000000E+04  0.10000000000E+04  0.00000000000E+00 0.  1.
    9000005    2    1    2  501    0 -0.29744862115E+01 -0.52323558063E+00 -0.89507275458E+03  0.10976558189E+04  0.63536126683E+03 0.  0.
         13    1    3    3    0    0  0.31460033153E+03 -0.27665005180E+02 -0.47338333433E+03  0.56906107083E+03  0.00000000000E+00 0.  1.
          1    1    3    3  501    0 -0.31757481774E+03  0.27141769600E+02 -0.42168942025E+03  0.52859474805E+03  0.00000000000E+00 0.  1.
         21    1    1    2  502  501  0.29744862115E+01  0.52323558063E+00 -0.30085087139E+01  0.42629178244E+01  0.00000000000E+00 0. -1.
<mgrwt>
<rscale>  1 0.63536844E+03</rscale>
<asrwt>0</asrwt>
<pdfrwt beam="1">  1        1 0.37061437E+00 0.63536844E+03</pdfrwt>
<pdfrwt beam="2">0</pdfrwt>
<totfact> 0.18096104E+00</totfact>
</mgrwt>
</event>
<event>
 6    1  0.8234624E-003  0.6482376E+03  0.7818608E-02  0.9810092E-01
          1   -1    0    0  502    0  0.00000000000E+00  0.00000000000E+00  0.10741557696E+03  0.10741557696E+03  0.00000000000E+00 0.  1.
         13   -1    0    0    0    0 -0.00000000000E+00 -0.00000000000E+00 -0.10000000000E+04  0.10000000000E+04  0.00000000000E+00 0.  1.
    9000005    2    1    2  501    0  0.48932444263E+01 -0.35185512187E+01 -0.88949706180E+03  0.11006438827E+04  0.64820954137E+03 0.  0.
         13    1    3    3    0    0  0.53478667749E+02  0.87984722365E+02 -0.96624239859E+03  0.97171274156E+03  0.00000000000E+00 0.  1.
          3    1    3    3  501    0 -0.48585423323E+02 -0.91503273584E+02  0.76745336792E+02  0.12893114114E+03  0.00000000000E+00 0.  1.
         21    1    1    2  502  501 -0.48932444263E+01  0.35185512187E+01 -0.30873612467E+01  0.67716942608E+01  0.00000000000E+00 0.  1.
<mgrwt>
<rscale>  1 0.64823756E+03</rscale>
<asrwt>0</asrwt>
<pdfrwt beam="1">  1        1 0.39060292E+00 0.64823756E+03</pdfrwt>
<pdfrwt beam="2">0</pdfrwt>
<totfact> 0.14734620E+00</totfact>
</mgrwt>
</event>
<event>
 6    1  0.8234624E-003  0.6308021E+03  0.7818608E-02  0.9843485E-01
          1   -1    0    0  502    0  0.00000000000E+00  0.00000000000E+00  0.10323411505E+03  0.10323411505E+03  0.00000000000E+00 0.  1.
         13   -1    0    0    0    0 -0.00000000000E+00 -0.00000000000E+00 -0.10000000000E+04  0.10000000000E+04  0.00000000000E+00 0.  1.
    9000005    2    1    2  501    0  0.26729678082E+01  0.39069494407E+01 -0.89881155238E+03  0.10980772007E+04  0.63078437114E+03 0.  0.
         13    1    3    3    0    0 -0.63600134816E+02 -0.10316969122E+03 -0.95322370850E+03  0.96089770568E+03  0.00000000000E+00 0.  1.
          1    1    3    3  501    0  0.66273102624E+02  0.10707664066E+03  0.54412156120E+02  0.13717949497E+03  0.00000000000E+00 0.  1.
         21    1    1    2  502  501 -0.26729678082E+01 -0.39069494407E+01  0.20456674317E+01  0.51569143950E+01  0.00000000000E+00 0. -1.
<mgrwt>
<rscale>  1 0.63080213E+03</rscale>
<asrwt>0</asrwt>
<pdfrwt beam="1">  1        1 0.37539757E+00 0.63080213E+03</pdfrwt>
<pdfrwt beam="2">0</pdfrwt>
<totfact> 0.17255248E+00</totfact>
</mgrwt>
</event>
<event>
 6    1  0.8234624E-003  0.6487873E+03  0.7818608E-02  0.9809057E-01
          1   -1    0    0  502    0  0.00000000000E+00  0.00000000000E+00  0.10523908120E+03  0.10523908120E+03  0.00000000000E+00 0.  1.
         13   -1    0    0    0    0 -0.00000000000E+00 -0.00000000000E+00 -0.10000000000E+04  0.10000000000E+04  0.00000000000E+00 0.  1.
    9000005    2    1    2  501    0  0.35823994147E-02 -0.10119319043E-03 -0.89476829326E+03  0.11052308820E+04  0.64878733338E+03 0.  0.
         13    1    3    3    0    0 -0.25554907075E+03 -0.36413619957E+02 -0.78206933867E+03  0.82356768378E+03  0.00000000000E+00 0.  1.
          3    1    3    3  501    0  0.25555265315E+03  0.36413518764E+02 -0.11269895459E+03  0.28166319825E+03  0.00000000000E+00 0.  1.
         21    1    1    2  502  501 -0.35823994147E-02  0.10119319043E-03  0.73744560722E-02  0.81991723966E-02  0.00000000000E+00 0. -1.
<mgrwt>
<rscale>  1 0.64878733E+03</rscale>
<asrwt>0</asrwt>
<pdfrwt beam="1">  1        1 0.38268837E+00 0.64878733E+03</pdfrwt>
<pdfrwt beam="2">0</pdfrwt>
<totfact> 0.15970858E+00</totfact>
</mgrwt>
</event>
<event>
 6    1  0.8234624E-003  0.6476831E+03  0.7818608E-02  0.9811136E-01
          1   -1    0    0  502    0  0.00000000000E+00  0.00000000000E+00  0.11119065016E+03  0.11119065016E+03  0.00000000000E+00 0.  1.
         13   -1    0    0    0    0 -0.00000000000E+00 -0.00000000000E+00 -0.10000000000E+04  0.10000000000E+04  0.00000000000E+00 0.  1.
    9000005    2    1    2  501    0  0.17484364851E+00 -0.25561647445E+00 -0.89512244798E+03  0.11048699605E+04  0.64768305270E+03 0.  0.
         13    1    3    3    0    0  0.25053771807E+03 -0.21049876395E+02 -0.99272600904E+02  0.27030962758E+03  0.00000000000E+00 0.  1.
          1    1    3    3  501    0 -0.25036287442E+03  0.20794259921E+02 -0.79584984708E+03  0.83456033288E+03  0.00000000000E+00 0.  1.
         21    1    1    2  502  501 -0.17484364851E+00  0.25561647445E+00  0.63130981425E+01  0.63206896965E+01  0.00000000000E+00 0.  1.
<mgrwt>
<rscale>  1 0.64768313E+03</rscale>
<asrwt>0</asrwt>
<pdfrwt beam="1">  1        1 0.40433049E+00 0.64768313E+03</pdfrwt>
<pdfrwt beam="2">0</pdfrwt>
<totfact> 0.12802156E+00</totfact>
</mgrwt>
</event>
<event>
 6    1  0.8234624E-003  0.6045689E+03  0.7818608E-02  0.9895972E-01
          1   -1    0    0  502    0  0.00000000000E+00  0.00000000000E+00  0.91390097928E+02  0.91390097928E+02  0.00000000000E+00 0.  1.
         13   -1    0    0    0    0 -0.00000000000E+00 -0.00000000000E+00 -0.10000000000E+04  0.10000000000E+04  0.00000000000E+00 0.  1.
    9000005    2    1    2  501    0  0.20253403419E-03 -0.10097463061E-04 -0.90862412249E+03  0.10913758761E+04  0.60456886033E+03 0.  0.
         13    1    3    3    0    0  0.27256707377E+02  0.10192476632E+03  0.57058413702E+02  0.11994685765E+03  0.00000000000E+00 0.  1.
          3    1    3    3  501    0 -0.27256504843E+02 -0.10192477642E+03 -0.96568253619E+03  0.97142901841E+03  0.00000000000E+00 0.  1.
         21    1    1    2  502  501 -0.20253403419E-03  0.10097463053E-04  0.14220419584E-01  0.14221865389E-01  0.00000000000E+00 0.  1.
<mgrwt>
<rscale>  1 0.60456886E+03</rscale>
<asrwt>0</asrwt>
<pdfrwt beam="1">  1        1 0.33232833E+00 0.60456886E+03</pdfrwt>
<pdfrwt beam="2">0</pdfrwt>
<totfact> 0.26726283E+00</totfact>
</mgrwt>
</event>
<event>
 6    1  0.8234624E-003  0.6524164E+03  0.7818608E-02  0.9802256E-01
          1   -1    0    0  502    0  0.00000000000E+00  0.00000000000E+00  0.10641194363E+03  0.10641194363E+03  0.00000000000E+00 0.  1.
         13   -1    0    0    0    0 -0.00000000000E+00 -0.00000000000E+00 -0.10000000000E+04  0.10000000000E+04  0.00000000000E+00 0.  1.
    9000005    2    1    2  501    0  0.79928304331E-05  0.50157622113E-04 -0.89358820811E+03  0.11064117836E+04  0.65241639255E+03 0.  0.
         13    1    3    3    0    0 -0.32197467723E+03 -0.21762188276E+02 -0.36598644335E+03  0.48794196615E+03  0.00000000000E+00 0.  1.
          1    1    3    3  501    0  0.32197468522E+03  0.21762238433E+02 -0.52760176476E+03  0.61846981747E+03  0.00000000000E+00 0.  1.
         21    1    1    2  502  501 -0.79928304367E-05 -0.50157622113E-04  0.15173892358E-03  0.16001366605E-03  0.00000000000E+00 0.  1.
<mgrwt>
<rscale>  1 0.65241639E+03</rscale>
<asrwt>0</asrwt>
<pdfrwt beam="1">  1        1 0.38695334E+00 0.65241639E+03</pdfrwt>
<pdfrwt beam="2">0</pdfrwt>
<totfact> 0.15281779E+00</totfact>
</mgrwt>
</event>
<event>
 6    1  0.8234624E-003  0.6587566E+03  0.7818608E-02  0.9790485E-01
          1   -1    0    0  502    0  0.00000000000E+00  0.00000000000E+00  0.10849060648E+03  0.10849060648E+03  0.00000000000E+00 0.  1.
         13   -1    0    0    0    0 -0.00000000000E+00 -0.00000000000E+00 -0.10000000000E+04  0.10000000000E+04  0.00000000000E+00 0.  1.
    9000005    2    1    2  501    0  0.98327050090E-04  0.17300695657E-03 -0.89150991468E+03  0.11084900486E+04  0.65875660142E+03 0.  0.
         13    1    3    3    0    0  0.31822162230E+02  0.30677917269E+03 -0.64027998163E+03  0.71069301789E+03  0.00000000000E+00 0.  1.
          1    1    3    3  501    0 -0.31822063903E+02 -0.30677899968E+03 -0.25122993306E+03  0.39779703073E+03  0.00000000000E+00 0.  1.
         21    1    1    2  502  501 -0.98327050087E-04 -0.17300695658E-03  0.52115738315E-03  0.55785718048E-03  0.00000000000E+00 0. -1.
<mgrwt>
<rscale>  1 0.65875660E+03</rscale>
<asrwt>0</asrwt>
<pdfrwt beam="1">  1        1 0.39451213E+00 0.65875660E+03</pdfrwt>
<pdfrwt beam="2">0</pdfrwt>
<totfact> 0.14129537E+00</totfact>
</mgrwt>
</event>
<event>
 6    1  0.8234624E-003  0.6700489E+03  0.7818608E-02  0.9769869E-01
          1   -1    0    0  502    0  0.00000000000E+00  0.00000000000E+00  0.11267237580E+03  0.11267237580E+03  0.00000000000E+00 0.  1.
         13   -1    0    0    0    0 -0.00000000000E+00 -0.00000000000E+00 -0.10000000000E+04  0.10000000000E+04  0.00000000000E+00 0.  1.
    9000005    2    1    2  501    0  0.58511952518E+00  0.31939859815E+00 -0.88744952424E+03  0.11119947034E+04  0.67004859363E+03 0.  0.
         13    1    3    3    0    0  0.33747007667E+01 -0.26130746130E+03 -0.79115045471E+03  0.83319386695E+03  0.00000000000E+00 0.  1.
          3    1    3    3  501    0 -0.27895812415E+01  0.26162685990E+03 -0.96299069529E+02  0.27880083640E+03  0.00000000000E+00 0.  1.
         21    1    1    2  502  501 -0.58511952518E+00 -0.31939859815E+00  0.12190003450E+00  0.67767244422E+00  0.00000000000E+00 0. -1.
<mgrwt>
<rscale>  1 0.67004893E+03</rscale>
<asrwt>0</asrwt>
<pdfrwt beam="1">  1        1 0.40971859E+00 0.67004893E+03</pdfrwt>
<pdfrwt beam="2">0</pdfrwt>
<totfact> 0.12059044E+00</totfact>
</mgrwt>
</event>
<event>
 6    1  0.8234624E-003  0.6905685E+03  0.7818608E-02  0.9733499E-01
          1   -1    0    0  502    0  0.00000000000E+00  0.00000000000E+00  0.11957697837E+03  0.11957697837E+03  0.00000000000E+00 0.  1.
         13   -1    0    0    0    0 -0.00000000000E+00 -0.00000000000E+00 -0.10000000000E+04  0.10000000000E+04  0.00000000000E+00 0.  1.
    9000005    2    1    2  501    0  0.71661731735E-01  0.36572986878E+00 -0.88066573799E+03  0.11191322257E+04  0.69056835835E+03 0.  0.
         13    1    3    3    0    0 -0.22490378169E+02 -0.15790250293E+03  0.55908829725E+02  0.16901128596E+03  0.00000000000E+00 0.  1.
          1    1    3    3  501    0  0.22562039901E+02  0.15826823280E+03 -0.93657456772E+03  0.95012093970E+03  0.00000000000E+00 0.  1.
         21    1    1    2  502  501 -0.71661731735E-01 -0.36572986878E+00  0.24271636490E+00  0.44475271163E+00  0.00000000000E+00 0.  1.
<mgrwt>
<rscale>  1 0.69056846E+03</rscale>
<asrwt>0</asrwt>
<pdfrwt beam="1">  1        1 0.43482629E+00 0.69056846E+03</pdfrwt>
<pdfrwt beam="2">0</pdfrwt>
<totfact> 0.92487054E-01</totfact>
</mgrwt>
</event>
