<event>
 6    1  0.8864941E-003  0.6477363E+03  0.7818608E-02  0.9811036E-01
          1   -1    0    0  502    0  0.00000000000E+00  0.00000000000E+00  0.10542995856E+03  0.10542995856E+03  0.00000000000E+00 0.  1.
         13   -1    0    0    0    0 -0.00000000000E+00 -0.00000000000E+00 -0.10000000000E+04  0.10000000000E+04  0.00000000000E+00 0.  1.
    9000005    2    1    2  501    0 -0.67432650270E-02  0.39320730477E+00 -0.89502909144E+03  0.11048254882E+04  0.64773615793E+03 0.  0.
         13    1    3    3    0    0  0.31593349995E+03  0.15380618855E+02 -0.56623395761E+03  0.64859188600E+03  0.00000000000E+00 0.  1.
          3    1    3    3  501    0 -0.31594024322E+03 -0.14987411550E+02 -0.32879513383E+03  0.45623360225E+03  0.00000000000E+00 0.  1.
         21    1    1    2  502  501  0.67432650269E-02 -0.39320730477E+00  0.45904999684E+00  0.60447031007E+00  0.00000000000E+00 0. -1.
<mgrwt>
<rscale>  1 0.64773628E+03</rscale>
<asrwt>0</asrwt>
<pdfrwt beam="1">  1        1 0.38338248E+00 0.64773628E+03</pdfrwt>
<pdfrwt beam="2">0</pdfrwt>
<totfact> 0.15861541E+00</totfact>
</mgrwt>
</event>
<event>
 6    1  0.8864941E-003  0.6367474E+03  0.7818608E-02  0.9831970E-01
          1   -1    0    0  502    0  0.00000000000E+00  0.00000000000E+00  0.10283284037E+03  0.10283284037E+03  0.00000000000E+00 0.  1.
         13   -1    0    0    0    0 -0.00000000000E+00 -0.00000000000E+00 -0.10000000000E+04  0.10000000000E+04  0.00000000000E+00 0.  1.
    9000005    2    1    2  501    0 -0.10859498181E+00 -0.37017539255E+01 -0.89542128738E+03  0.10987385950E+04  0.63673660452E+03 0.  0.
         13    1    3    3    0    0 -0.25483822917E+03  0.18430191284E+03 -0.51929060690E+03  0.60710168220E+03  0.00000000000E+00 0.  1.
          1    1    3    3  501    0  0.25472963419E+03 -0.18800366676E+03 -0.37613068048E+03  0.49163691282E+03  0.00000000000E+00 0.  1.
         21    1    1    2  502  501  0.10859498181E+00  0.37017539255E+01 -0.17458722490E+01  0.40942453401E+01  0.00000000000E+00 0. -1.
<mgrwt>
<rscale>  1 0.63674737E+03</rscale>
<asrwt>0</asrwt>
<pdfrwt beam="1">  1        1 0.37393839E+00 0.63674737E+03</pdfrwt>
<pdfrwt beam="2">0</pdfrwt>
<totfact> 0.17492979E+00</totfact>
</mgrwt>
</event>
<event>
 6    1  0.8864941E-003  0.6536785E+03  0.7818608E-02  0.9799901E-01
          1   -1    0    0  502    0  0.00000000000E+00  0.00000000000E+00  0.10683302412E+03  0.10683302412E+03  0.00000000000E+00 0.  1.
         13   -1    0    0    0    0 -0.00000000000E+00 -0.00000000000E+00 -0.10000000000E+04  0.10000000000E+04  0.00000000000E+00 0.  1.
    9000005    2    1    2  501    0 -0.16387107228E-02 -0.68258028895E-03 -0.89317599346E+03  0.11068238335E+04  0.65367854717E+03 0.  0.
         13    1    3    3    0    0 -0.21477608393E+03  0.24581113910E+03 -0.47452464886E+03  0.57595618298E+03  0.00000000000E+00 0.  1.
          3    1    3    3  501    0  0.21477444522E+03 -0.24581182168E+03 -0.41865134461E+03  0.53086765049E+03  0.00000000000E+00 0.  1.
         21    1    1    2  502  501  0.16387107228E-02  0.68258028895E-03  0.90175802219E-02  0.91906496910E-02  0.00000000000E+00 0. -1.
<mgrwt>
<rscale>  1 0.65367855E+03</rscale>
<asrwt>0</asrwt>
<pdfrwt beam="1">  1        1 0.38848454E+00 0.65367855E+03</pdfrwt>
<pdfrwt beam="2">0</pdfrwt>
<totfact> 0.15041462E+00</totfact>
</mgrwt>
</event>
<event>
 6    1  0.8864941E-003  0.5478809E+03  0.7818608E-02  0.1001986E+00
          1   -1    0    0  502    0  0.00000000000E+00  0.00000000000E+00  0.75088525776E+02  0.75088525776E+02  0.00000000000E+00 0.  1.
         13   -1    0    0    0    0 -0.00000000000E+00 -0.00000000000E+00 -0.10000000000E+04  0.10000000000E+04  0.00000000000E+00 0.  1.
    9000005    2    1    2  501    0  0.14522324642E-01  0.15304441606E-01 -0.92495397635E+03  0.10750410752E+04  0.54788087631E+03 0.  0.
         13    1    3    3    0    0  0.17156061001E+03 -0.21183618085E+03 -0.51567120885E+03  0.58328758436E+03  0.00000000000E+00 0.  1.
          3    1    3    3  501    0 -0.17154608769E+03  0.21185148529E+03 -0.40928276749E+03  0.49175349087E+03  0.00000000000E+00 0.  1.
         21    1    1    2  502  501 -0.14522324642E-01 -0.15304441606E-01  0.42502123481E-01  0.47450546322E-01  0.00000000000E+00 0.  1.
<mgrwt>
<rscale>  1 0.54788088E+03</rscale>
<asrwt>0</asrwt>
<pdfrwt beam="1">  1        1 0.27304976E+00 0.54788088E+03</pdfrwt>
<pdfrwt beam="2">0</pdfrwt>
<totfact> 0.48672176E+00</totfact>
</mgrwt>
</event>
<event>
 6    1  0.8864941E-003  0.6612830E+03  0.7818608E-02  0.9785835E-01
          1   -1    0    0  502    0  0.00000000000E+00  0.00000000000E+00  0.10932477088E+03  0.10932477088E+03  0.00000000000E+00 0.  1.
         13   -1    0    0    0    0 -0.00000000000E+00 -0.00000000000E+00 -0.10000000000E+04  0.10000000000E+04  0.00000000000E+00 0.  1.
    9000005    2    1    2  501    0 -0.18718612272E-03  0.54870570796E-03 -0.89067609403E+03  0.11093237296E+04  0.66128302010E+03 0.  0.
         13    1    3    3    0    0 -0.68760977672E+02  0.28536384259E+03 -0.19002598223E+03  0.34967194430E+03  0.00000000000E+00 0.  1.
          1    1    3    3  501    0  0.68760790486E+02 -0.28536329389E+03 -0.70065011180E+03  0.75965178534E+03  0.00000000000E+00 0.  1.
         21    1    1    2  502  501  0.18718612271E-03 -0.54870570799E-03  0.86491122730E-03  0.10412435016E-02  0.00000000000E+00 0. -1.
<mgrwt>
<rscale>  1 0.66128302E+03</rscale>
<asrwt>0</asrwt>
<pdfrwt beam="1">  1        1 0.39754546E+00 0.66128302E+03</pdfrwt>
<pdfrwt beam="2">0</pdfrwt>
<totfact> 0.13690742E+00</totfact>
</mgrwt>
</event>
<event>
 6    1  0.8864941E-003  0.6661967E+03  0.7818608E-02  0.9776853E-01
          1   -1    0    0  502    0  0.00000000000E+00  0.00000000000E+00  0.11095830438E+03  0.11095830438E+03  0.00000000000E+00 0.  1.
         13   -1    0    0    0    0 -0.00000000000E+00 -0.00000000000E+00 -0.10000000000E+04  0.10000000000E+04  0.00000000000E+00 0.  1.
    9000005    2    1    2  501    0  0.27766213954E-02  0.26057028435E-02 -0.88904437558E+03  0.11109536480E+04  0.66619674747E+03 0.  0.
         13    1    3    3    0    0 -0.43494207246E+02 -0.31590910396E+03 -0.60502054245E+03  0.68391531991E+03  0.00000000000E+00 0.  1.
          1    1    3    3  501    0  0.43496983867E+02  0.31591170966E+03 -0.28402383313E+03  0.42703832813E+03  0.00000000000E+00 0.  1.
         21    1    1    2  502  501 -0.27766213954E-02 -0.26057028434E-02  0.26799631981E-02  0.46563415280E-02  0.00000000000E+00 0.  1.
<mgrwt>
<rscale>  1 0.66619675E+03</rscale>
<asrwt>0</asrwt>
<pdfrwt beam="1">  1        1 0.40348559E+00 0.66619675E+03</pdfrwt>
<pdfrwt beam="2">0</pdfrwt>
<totfact> 0.12868577E+00</totfact>
</mgrwt>
</event>
<event>
 6    1  0.8864941E-003  0.6517678E+03  0.7818608E-02  0.9803468E-01
          1   -1    0    0  502    0  0.00000000000E+00  0.00000000000E+00  0.10641056128E+03  0.10641056128E+03  0.00000000000E+00 0.  1.
         13   -1    0    0    0    0 -0.00000000000E+00 -0.00000000000E+00 -0.10000000000E+04  0.10000000000E+04  0.00000000000E+00 0.  1.
    9000005    2    1    2  501    0  0.32255708044E-01 -0.17110041700E-01 -0.89379792051E+03  0.11061989063E+04  0.65176782384E+03 0.  0.
         13    1    3    3    0    0  0.17816082767E+03 -0.96570187323E+02 -0.13736596065E+02  0.20311517833E+03  0.00000000000E+00 0.  1.
          3    1    3    3  501    0 -0.17812857196E+03  0.96553077281E+02 -0.88006132445E+03  0.90308372794E+03  0.00000000000E+00 0.  1.
         21    1    1    2  502  501 -0.32255708044E-01  0.17110041700E-01  0.20848179205E+00  0.21165500666E+00  0.00000000000E+00 0. -1.
<mgrwt>
<rscale>  1 0.65176782E+03</rscale>
<asrwt>0</asrwt>
<pdfrwt beam="1">  1        1 0.38694831E+00 0.65176782E+03</pdfrwt>
<pdfrwt beam="2">0</pdfrwt>
<totfact> 0.15284396E+00</totfact>
</mgrwt>
</event>
<event>
 6    1  0.8864941E-003  0.6625558E+03  0.7818608E-02  0.9783500E-01
          1   -1    0    0  502    0  0.00000000000E+00  0.00000000000E+00  0.10975276524E+03  0.10975276524E+03  0.00000000000E+00 0.  1.
         13   -1    0    0    0    0 -0.00000000000E+00 -0.00000000000E+00 -0.10000000000E+04  0.10000000000E+04  0.00000000000E+00 0.  1.
    9000005    2    1    2  501    0 -0.27785729617E-02  0.25684909288E-02 -0.89025444519E+03  0.11097446223E+04  0.66255577083E+03 0.  0.
         13    1    3    3    0    0 -0.39970371252E+02 -0.16865210347E+03 -0.91799404959E+03  0.93421316500E+03  0.00000000000E+00 0.  1.
          1    1    3    3  501    0  0.39967592679E+02  0.16865467196E+03  0.27739604397E+02  0.17553145727E+03  0.00000000000E+00 0.  1.
         21    1    1    2  502  501  0.27785729617E-02 -0.25684909288E-02  0.72104363936E-02  0.81429728196E-02  0.00000000000E+00 0. -1.
<mgrwt>
<rscale>  1 0.66255577E+03</rscale>
<asrwt>0</asrwt>
<pdfrwt beam="1">  1        1 0.39910181E+00 0.66255577E+03</pdfrwt>
<pdfrwt beam="2">0</pdfrwt>
<totfact> 0.13470698E+00</totfact>
</mgrwt>
</event>
<event>
 6    1  0.8864941E-003  0.6421114E+03  0.7818608E-02  0.9821695E-01
          1   -1    0    0  502    0  0.00000000000E+00  0.00000000000E+00  0.10307702763E+03  0.10307702763E+03  0.00000000000E+00 0.  1.
         13   -1    0    0    0    0 -0.00000000000E+00 -0.00000000000E+00 -0.10000000000E+04  0.10000000000E+04  0.00000000000E+00 0.  1.
    9000005    2    1    2  501    0  0.12309327474E-03 -0.74650524063E-04 -0.89692321644E+03  0.11030767443E+04  0.64211139809E+03 0.  0.
         13    1    3    3    0    0  0.31275108886E+03 -0.26700387437E+02 -0.33257542853E+03  0.45731014633E+03  0.00000000000E+00 0.  1.
          3    1    3    3  501    0 -0.31275096577E+03  0.26700312786E+02 -0.56434778791E+03  0.64576659794E+03  0.00000000000E+00 0.  1.
         21    1    1    2  502  501 -0.12309327471E-03  0.74650524063E-04  0.24406822178E-03  0.28336187447E-03  0.00000000000E+00 0.  1.
<mgrwt>
<rscale>  1 0.64211140E+03</rscale>
<asrwt>0</asrwt>
<pdfrwt beam="1">  1        1 0.37482635E+00 0.64211140E+03</pdfrwt>
<pdfrwt beam="2">0</pdfrwt>
<totfact> 0.17319260E+00</totfact>
</mgrwt>
</event>
<event>
 6    1  0.8864941E-003  0.4906546E+03  0.7818608E-02  0.1016247E+00
          1   -1    0    0  502    0  0.00000000000E+00  0.00000000000E+00  0.60185530681E+02  0.60185530681E+02  0.00000000000E+00 0.  1.
         13   -1    0    0    0    0 -0.00000000000E+00 -0.00000000000E+00 -0.10000000000E+04  0.10000000000E+04  0.00000000000E+00 0.  1.
    9000005    2    1    2  501    0 -0.14753651627E-04 -0.17685767261E-04 -0.93981450764E+03  0.10601854860E+04  0.49065461976E+03 0.  0.
         13    1    3    3    0    0 -0.11606683379E+03 -0.21479566587E+03 -0.52180173984E+03  0.57609525574E+03  0.00000000000E+00 0.  1.
          3    1    3    3  501    0  0.11606681904E+03  0.21479564819E+03 -0.41801276780E+03  0.48409023023E+03  0.00000000000E+00 0.  1.
         21    1    1    2  502  501  0.14753651616E-04  0.17685767256E-04  0.38322648228E-04  0.44711094447E-04  0.00000000000E+00 0.  1.
<mgrwt>
<rscale>  1 0.49065462E+03</rscale>
<asrwt>0</asrwt>
<pdfrwt beam="1">  1        1 0.21885694E+00 0.49065462E+03</pdfrwt>
<pdfrwt beam="2">0</pdfrwt>
<totfact> 0.84736858E+00</totfact>
</mgrwt>
</event>
<event>
 6    1  0.8864941E-003  0.6428067E+03  0.7818608E-02  0.9820371E-01
          1   -1    0    0  502    0  0.00000000000E+00  0.00000000000E+00  0.11202293766E+03  0.11202293766E+03  0.00000000000E+00 0.  1.
         13   -1    0    0    0    0 -0.00000000000E+00 -0.00000000000E+00 -0.10000000000E+04  0.10000000000E+04  0.00000000000E+00 0.  1.
    9000005    2    1    2  501    0 -0.82355188485E+00 -0.81879795464E+00 -0.89665720527E+03  0.11032654523E+04  0.64280569841E+03 0.  0.
         13    1    3    3    0    0  0.25446620605E+03  0.13692854443E+03 -0.68715053190E+03  0.74543834741E+03  0.00000000000E+00 0.  1.
          3    1    3    3  501    0 -0.25528975793E+03 -0.13774734238E+03 -0.20950667337E+03  0.35782710493E+03  0.00000000000E+00 0.  1.
         21    1    1    2  502  501  0.82355188485E+00  0.81879795464E+00  0.86801429260E+01  0.87574853134E+01  0.00000000000E+00 0. -1.
<mgrwt>
<rscale>  1 0.64280675E+03</rscale>
<asrwt>0</asrwt>
<pdfrwt beam="1">  1        1 0.40735700E+00 0.64280675E+03</pdfrwt>
<pdfrwt beam="2">0</pdfrwt>
<totfact> 0.12421149E+00</totfact>
</mgrwt>
</event>
<event>
 6    1  0.8864941E-003  0.6534683E+03  0.7818608E-02  0.9800293E-01
          1   -1    0    0  502    0  0.00000000000E+00  0.00000000000E+00  0.10682057573E+03  0.10682057573E+03  0.00000000000E+00 0.  1.
         13   -1    0    0    0    0 -0.00000000000E+00 -0.00000000000E+00 -0.10000000000E+04  0.10000000000E+04  0.00000000000E+00 0.  1.
    9000005    2    1    2  501    0  0.11778989595E+00  0.15306215416E+00 -0.89299405789E+03  0.11065528759E+04  0.65346831793E+03 0.  0.
         13    1    3    3    0    0  0.76130996278E+02  0.93956412090E+02  0.67505684585E+02  0.13849459707E+03  0.00000000000E+00 0.  1.
          1    1    3    3  501    0 -0.76013206382E+02 -0.93803349936E+02 -0.96049974247E+03  0.96805827887E+03  0.00000000000E+00 0.  1.
         21    1    1    2  502  501 -0.11778989595E+00 -0.15306215416E+00 -0.18536637568E+00  0.26769978681E+00  0.00000000000E+00 0.  1.
<mgrwt>
<rscale>  1 0.65346835E+03</rscale>
<asrwt>0</asrwt>
<pdfrwt beam="1">  1        1 0.38843928E+00 0.65346835E+03</pdfrwt>
<pdfrwt beam="2">0</pdfrwt>
<totfact> 0.15048997E+00</totfact>
</mgrwt>
</event>
<event>
 6    1  0.8864941E-003  0.6570124E+03  0.7818608E-02  0.9793709E-01
          1   -1    0    0  502    0  0.00000000000E+00  0.00000000000E+00  0.11051591909E+03  0.11051591909E+03  0.00000000000E+00 0.  1.
         13   -1    0    0    0    0 -0.00000000000E+00 -0.00000000000E+00 -0.10000000000E+04  0.10000000000E+04  0.00000000000E+00 0.  1.
    9000005    2    1    2  501    0 -0.19192281747E+01 -0.13466447321E+01 -0.89148449038E+03  0.11074339511E+04  0.65700826671E+03 0.  0.
         13    1    3    3    0    0  0.29394040433E+03 -0.31297561439E+02 -0.68310267554E+03  0.74431832167E+03  0.00000000000E+00 0.  1.
          1    1    3    3  501    0 -0.29585963251E+03  0.29950916707E+02 -0.20838181484E+03  0.36311562940E+03  0.00000000000E+00 0.  1.
         21    1    1    2  502  501  0.19192281747E+01  0.13466447321E+01  0.20004094683E+01  0.30819680177E+01  0.00000000000E+00 0. -1.
<mgrwt>
<rscale>  1 0.65701245E+03</rscale>
<asrwt>0</asrwt>
<pdfrwt beam="1">  1        1 0.40187692E+00 0.65701245E+03</pdfrwt>
<pdfrwt beam="2">0</pdfrwt>
<totfact> 0.13105865E+00</totfact>
</mgrwt>
</event>
<event>
 6    1  0.1189391E-002  0.5737185E+03  0.7818608E-02  0.9961484E-01
          1   -1    0    0  502    0  0.00000000000E+00  0.00000000000E+00  0.82288330533E+02  0.82288330533E+02  0.00000000000E+00 0.  1.
         13   -1    0    0    0    0 -0.00000000000E+00 -0.00000000000E+00 -0.10000000000E+04  0.10000000000E+04  0.00000000000E+00 0.  1.
    9000005    2    1    2  501    0  0.28581524049E-03  0.10509708602E-04 -0.91771142520E+03  0.10822879544E+04  0.57371853406E+03 0.  0.
         13    1    3    3    0    0 -0.12976601326E+03 -0.24443647308E+03 -0.31643479481E+03  0.42038005059E+03  0.00000000000E+00 0.  1.
          3    1    3    3  501    0  0.12976629907E+03  0.24443648359E+03 -0.60127663038E+03  0.66190790381E+03  0.00000000000E+00 0.  1.
         21    1    1    2  502  501 -0.28581524047E-03 -0.10509708597E-04 -0.24427189659E-03  0.37612440113E-03  0.00000000000E+00 0.  1.
<mgrwt>
<rscale>  1 0.57371853E+03</rscale>
<asrwt>0</asrwt>
<pdfrwt beam="1">  1        1 0.29923092E+00 0.57371853E+03</pdfrwt>
<pdfrwt beam="2">0</pdfrwt>
<totfact> 0.37354774E+00</totfact>
</mgrwt>
</event>
<event>
 6    1  0.8864941E-003  0.6526215E+03  0.7818608E-02  0.9801872E-01
          1   -1    0    0  502    0  0.00000000000E+00  0.00000000000E+00  0.10648624848E+03  0.10648624848E+03  0.00000000000E+00 0.  1.
         13   -1    0    0    0    0 -0.00000000000E+00 -0.00000000000E+00 -0.10000000000E+04  0.10000000000E+04  0.00000000000E+00 0.  1.
    9000005    2    1    2  501    0  0.13617446960E-01  0.48313107597E-02 -0.89351267831E+03  0.11064717596E+04  0.65262151990E+03 0.  0.
         13    1    3    3    0    0 -0.22118309236E+03 -0.23111415682E+03 -0.55582132110E+03  0.64130574208E+03  0.00000000000E+00 0.  1.
          1    1    3    3  501    0  0.22119670980E+03  0.23111898814E+03 -0.33769135721E+03  0.46516601750E+03  0.00000000000E+00 0.  1.
         21    1    1    2  502  501 -0.13617446960E-01 -0.48313107597E-02 -0.10732159116E-02  0.14488899812E-01  0.00000000000E+00 0. -1.
<mgrwt>
<rscale>  1 0.65262152E+03</rscale>
<asrwt>0</asrwt>
<pdfrwt beam="1">  1        1 0.38722354E+00 0.65262152E+03</pdfrwt>
<pdfrwt beam="2">0</pdfrwt>
<totfact> 0.15239159E+00</totfact>
</mgrwt>
</event>
<event>
 6    1  0.8864941E-003  0.5632886E+03  0.7818608E-02  0.9984641E-01
          1   -1    0    0  502    0  0.00000000000E+00  0.00000000000E+00  0.82334248827E+02  0.82334248827E+02  0.00000000000E+00 0.  1.
         13   -1    0    0    0    0 -0.00000000000E+00 -0.00000000000E+00 -0.10000000000E+04  0.10000000000E+04  0.00000000000E+00 0.  1.
    9000005    2    1    2  501    0 -0.56965234889E-01  0.19249849050E-01 -0.92067617060E+03  0.10793232289E+04  0.56328857421E+03 0.  0.
         13    1    3    3    0    0 -0.14700343420E+03  0.23840746369E+03 -0.40326598455E+03  0.49099040999E+03  0.00000000000E+00 0.  1.
          3    1    3    3  501    0  0.14694646897E+03 -0.23838821384E+03 -0.51741018605E+03  0.58833281896E+03  0.00000000000E+00 0.  1.
         21    1    1    2  502  501  0.56965234889E-01 -0.19249849050E-01  0.30104194238E+01  0.30110198773E+01  0.00000000000E+00 0.  1.
<mgrwt>
<rscale>  1 0.56328858E+03</rscale>
<asrwt>0</asrwt>
<pdfrwt beam="1">  1        1 0.29939790E+00 0.56328858E+03</pdfrwt>
<pdfrwt beam="2">0</pdfrwt>
<totfact> 0.37361937E+00</totfact>
</mgrwt>
</event>
<event>
 6    1  0.8864941E-003  0.6418256E+03  0.7818608E-02  0.9822240E-01
          1   -1    0    0  502    0  0.00000000000E+00  0.00000000000E+00  0.10334595393E+03  0.10334595393E+03  0.00000000000E+00 0.  1.
         13   -1    0    0    0    0 -0.00000000000E+00 -0.00000000000E+00 -0.10000000000E+04  0.10000000000E+04  0.00000000000E+00 0.  1.
    9000005    2    1    2  501    0  0.80627176075E-01  0.19236300027E-01 -0.89700972803E+03  0.11029807411E+04  0.64182556519E+03 0.  0.
         13    1    3    3    0    0  0.82225502255E+02 -0.24627827663E+03 -0.12438553797E+03  0.28789891424E+03  0.00000000000E+00 0.  1.
          3    1    3    3  501    0 -0.82144875079E+02  0.24629751293E+03 -0.77262419005E+03  0.81508182683E+03  0.00000000000E+00 0.  1.
         21    1    1    2  502  501 -0.80627176075E-01 -0.19236300027E-01  0.35568195628E+00  0.36521285682E+00  0.00000000000E+00 0.  1.
<mgrwt>
<rscale>  1 0.64182557E+03</rscale>
<asrwt>0</asrwt>
<pdfrwt beam="1">  1        1 0.37580426E+00 0.64182557E+03</pdfrwt>
<pdfrwt beam="2">0</pdfrwt>
<totfact> 0.17149320E+00</totfact>
</mgrwt>
</event>
<event>
 6    1  0.8864941E-003  0.5052513E+03  0.7818608E-02  0.1012417E+00
          1   -1    0    0  502    0  0.00000000000E+00  0.00000000000E+00  0.63837418332E+02  0.63837418332E+02  0.00000000000E+00 0.  1.
         13   -1    0    0    0    0 -0.00000000000E+00 -0.00000000000E+00 -0.10000000000E+04  0.10000000000E+04  0.00000000000E+00 0.  1.
    9000005    2    1    2  501    0 -0.38811902739E-01 -0.35119435346E-01 -0.93613085347E+03  0.10637762103E+04  0.50525127229E+03 0.  0.
         13    1    3    3    0    0  0.23351354645E+03 -0.12116351666E+02 -0.66927340616E+03  0.70894447917E+03  0.00000000000E+00 0.  1.
          3    1    3    3  501    0 -0.23355235836E+03  0.12081232231E+02 -0.26685744730E+03  0.35483173117E+03  0.00000000000E+00 0.  1.
         21    1    1    2  502  501  0.38811902739E-01  0.35119435346E-01 -0.31728200968E-01  0.61207983710E-01  0.00000000000E+00 0.  1.
<mgrwt>
<rscale>  1 0.50525128E+03</rscale>
<asrwt>0</asrwt>
<pdfrwt beam="1">  1        1 0.23213656E+00 0.50525128E+03</pdfrwt>
<pdfrwt beam="2">0</pdfrwt>
<totfact> 0.73856517E+00</totfact>
</mgrwt>
</event>
<event>
 6    1  0.8864941E-003  0.6228281E+03  0.7818608E-02  0.9859145E-01
          1   -1    0    0  502    0  0.00000000000E+00  0.00000000000E+00  0.96982741757E+02  0.96982741757E+02  0.00000000000E+00 0.  1.
         13   -1    0    0    0    0 -0.00000000000E+00 -0.00000000000E+00 -0.10000000000E+04  0.10000000000E+04  0.00000000000E+00 0.  1.
    9000005    2    1    2  501    0  0.77992357319E-05 -0.72541916637E-04 -0.90302128465E+03  0.10969787147E+04  0.62282811429E+03 0.  0.
         13    1    3    3    0    0  0.26380189095E+03 -0.42788255487E+02 -0.16994463822E+03  0.31670720316E+03  0.00000000000E+00 0.  1.
          1    1    3    3  501    0 -0.26380188315E+03  0.42788182946E+02 -0.73307664643E+03  0.78027151153E+03  0.00000000000E+00 0.  1.
         21    1    1    2  502  501 -0.77992357354E-05  0.72541916636E-04  0.40264065636E-02  0.40270675402E-02  0.00000000000E+00 0.  1.
<mgrwt>
<rscale>  1 0.62282811E+03</rscale>
<asrwt>0</asrwt>
<pdfrwt beam="1">  1        1 0.35266526E+00 0.62282811E+03</pdfrwt>
<pdfrwt beam="2">0</pdfrwt>
<totfact> 0.21733200E+00</totfact>
</mgrwt>
</event>
<event>
 6    1  0.8864941E-003  0.6477763E+03  0.7818608E-02  0.9810961E-01
          1   -1    0    0  502    0  0.00000000000E+00  0.00000000000E+00  0.10490352961E+03  0.10490352961E+03  0.00000000000E+00 0.  1.
         13   -1    0    0    0    0 -0.00000000000E+00 -0.00000000000E+00 -0.10000000000E+04  0.10000000000E+04  0.00000000000E+00 0.  1.
    9000005    2    1    2  501    0 -0.15559575104E-05 -0.20521248985E-05 -0.89509647073E+03  0.11049035270E+04  0.64777628244E+03 0.  0.
         13    1    3    3    0    0 -0.26216603334E+03 -0.17485496224E+03 -0.57517012010E+03  0.65583988436E+03  0.00000000000E+00 0.  1.
          1    1    3    3  501    0  0.26216603179E+03  0.17485496019E+03 -0.31992635063E+03  0.44906364265E+03  0.00000000000E+00 0.  1.
         21    1    1    2  502  501  0.15559575606E-05  0.20521249200E-05  0.33313006406E-06  0.25967665004E-05  0.00000000000E+00 0.  1.
<mgrwt>
<rscale>  1 0.64777628E+03</rscale>
<asrwt>0</asrwt>
<pdfrwt beam="1">  1        1 0.38146818E+00 0.64777628E+03</pdfrwt>
<pdfrwt beam="2">0</pdfrwt>
<totfact> 0.16173290E+00</totfact>
</mgrwt>
</event>
<event>
 6    1  0.8864941E-003  0.6539757E+03  0.7818608E-02  0.9799347E-01
          1   -1    0    0  502    0  0.00000000000E+00  0.00000000000E+00  0.10693238678E+03  0.10693238678E+03  0.00000000000E+00 0.  1.
         13   -1    0    0    0    0 -0.00000000000E+00 -0.00000000000E+00 -0.10000000000E+04  0.10000000000E+04  0.00000000000E+00 0.  1.
    9000005    2    1    2  501    0  0.86256294082E-04  0.20974604945E-03 -0.89307893051E+03  0.11069210672E+04  0.65397574338E+03 0.  0.
         13    1    3    3    0    0 -0.40629637828E+02 -0.32048914523E+03 -0.36095088026E+03  0.48440643848E+03  0.00000000000E+00 0.  1.
          3    1    3    3  501    0  0.40629724084E+02  0.32048935497E+03 -0.53212805025E+03  0.62251462874E+03  0.00000000000E+00 0.  1.
         21    1    1    2  502  501 -0.86256294079E-04 -0.20974604949E-03  0.11317292795E-01  0.11319564911E-01  0.00000000000E+00 0. -1.
<mgrwt>
<rscale>  1 0.65397574E+03</rscale>
<asrwt>0</asrwt>
<pdfrwt beam="1">  1        1 0.38884586E+00 0.65397574E+03</pdfrwt>
<pdfrwt beam="2">0</pdfrwt>
<totfact> 0.14985281E+00</totfact>
</mgrwt>
</event>
<event>
 6    1  0.8864941E-003  0.5774195E+03  0.7818608E-02  0.9953393E-01
          1   -1    0    0  502    0  0.00000000000E+00  0.00000000000E+00  0.85684915702E+02  0.85684915702E+02  0.00000000000E+00 0.  1.
         13   -1    0    0    0    0 -0.00000000000E+00 -0.00000000000E+00 -0.10000000000E+04  0.10000000000E+04  0.00000000000E+00 0.  1.
    9000005    2    1    2  501    0 -0.48020423207E+00  0.81506615986E+00 -0.91654235046E+03  0.10832650720E+04  0.57741877449E+03 0.  0.
         13    1    3    3    0    0  0.12283422962E+03  0.24492088991E+03 -0.28651886211E+03  0.39644362604E+03  0.00000000000E+00 0.  1.
          1    1    3    3  501    0 -0.12331443386E+03 -0.24410582375E+03 -0.63002348834E+03  0.68682144597E+03  0.00000000000E+00 0.  1.
         21    1    1    2  502  501  0.48020423207E+00 -0.81506615986E+00  0.22272661577E+01  0.24198436906E+01  0.00000000000E+00 0. -1.
<mgrwt>
<rscale>  1 0.57741955E+03</rscale>
<asrwt>0</asrwt>
<pdfrwt beam="1">  1        1 0.31158217E+00 0.57741955E+03</pdfrwt>
<pdfrwt beam="2">0</pdfrwt>
<totfact> 0.33019480E+00</totfact>
</mgrwt>
</event>
<event>
 6    1  0.8864941E-003  0.6524017E+03  0.7818608E-02  0.9802283E-01
          1   -1    0    0  502    0  0.00000000000E+00  0.00000000000E+00  0.10640704695E+03  0.10640704695E+03  0.00000000000E+00 0.  1.
         13   -1    0    0    0    0 -0.00000000000E+00 -0.00000000000E+00 -0.10000000000E+04  0.10000000000E+04  0.00000000000E+00 0.  1.
    9000005    2    1    2  501    0  0.50080760218E-04  0.23351060150E-04 -0.89359297518E+03  0.11064069874E+04  0.65240172940E+03 0.  0.
         13    1    3    3    0    0  0.14714600687E+03 -0.21848407111E+03 -0.12049680115E+03  0.28966655961E+03  0.00000000000E+00 0.  1.
          3    1    3    3  501    0 -0.14714595679E+03  0.21848409446E+03 -0.77309617403E+03  0.81674042782E+03  0.00000000000E+00 0.  1.
         21    1    1    2  502  501 -0.50080760209E-04 -0.23351060148E-04  0.22132538594E-04  0.59524816823E-04  0.00000000000E+00 0.  1.
<mgrwt>
<rscale>  1 0.65240173E+03</rscale>
<asrwt>0</asrwt>
<pdfrwt beam="1">  1        1 0.38693553E+00 0.65240173E+03</pdfrwt>
<pdfrwt beam="2">0</pdfrwt>
<totfact> 0.15284595E+00</totfact>
</mgrwt>
</event>
<event>
 6    1  0.8864941E-003  0.6155379E+03  0.7818608E-02  0.9873684E-01
          1   -1    0    0  502    0  0.00000000000E+00  0.00000000000E+00  0.11776878609E+03  0.11776878609E+03  0.00000000000E+00 0.  1.
         13   -1    0    0    0    0 -0.00000000000E+00 -0.00000000000E+00 -0.10000000000E+04  0.10000000000E+04  0.00000000000E+00 0.  1.
    9000005    2    1    2  501    0 -0.45384166744E+01  0.10001213852E+02 -0.90383793811E+03  0.10935309637E+04  0.61543994725E+03 0.  0.
         13    1    3    3    0    0 -0.12413191818E+02 -0.19833018758E+03 -0.37200920453E+02  0.20217037151E+03  0.00000000000E+00 0.  1.
          3    1    3    3  501    0  0.78747751441E+01  0.20833140143E+03 -0.86663701765E+03  0.89136059217E+03  0.00000000000E+00 0.  1.
         21    1    1    2  502  501  0.45384166744E+01 -0.10001213852E+02  0.21606724201E+02  0.24237822409E+02  0.00000000000E+00 0. -1.
<mgrwt>
<rscale>  1 0.61553794E+03</rscale>
<asrwt>0</asrwt>
<pdfrwt beam="1">  1        1 0.42825103E+00 0.61553794E+03</pdfrwt>
<pdfrwt beam="2">0</pdfrwt>
<totfact> 0.10058220E+00</totfact>
</mgrwt>
</event>
<event>
 6    1  0.8864941E-003  0.6530348E+03  0.7818608E-02  0.9801101E-01
          1   -1    0    0  502    0  0.00000000000E+00  0.00000000000E+00  0.10661384196E+03  0.10661384196E+03  0.00000000000E+00 0.  1.
         13   -1    0    0    0    0 -0.00000000000E+00 -0.00000000000E+00 -0.10000000000E+04  0.10000000000E+04  0.00000000000E+00 0.  1.
    9000005    2    1    2  501    0  0.25622655556E-04  0.48881167704E-04 -0.89338639032E+03  0.11066136032E+04  0.65303478041E+03 0.  0.
         13    1    3    3    0    0  0.24521934959E+03 -0.33421559772E+01 -0.81198980045E+03  0.84821644375E+03  0.00000000000E+00 0.  1.
          3    1    3    3  501    0 -0.24521932396E+03  0.33422048584E+01 -0.81396589868E+02  0.25839715947E+03  0.00000000000E+00 0.  1.
         21    1    1    2  502  501 -0.25622655545E-04 -0.48881167704E-04  0.23227358739E-03  0.23874025306E-03  0.00000000000E+00 0.  1.
<mgrwt>
<rscale>  1 0.65303478E+03</rscale>
<asrwt>0</asrwt>
<pdfrwt beam="1">  1        1 0.38768752E+00 0.65303478E+03</pdfrwt>
<pdfrwt beam="2">0</pdfrwt>
<totfact> 0.15166065E+00</totfact>
</mgrwt>
</event>
<event>
 6    1  0.8864941E-003  0.6584671E+03  0.7818608E-02  0.9791020E-01
          1   -1    0    0  502    0  0.00000000000E+00  0.00000000000E+00  0.10839644356E+03  0.10839644356E+03  0.00000000000E+00 0.  1.
         13   -1    0    0    0    0 -0.00000000000E+00 -0.00000000000E+00 -0.10000000000E+04  0.10000000000E+04  0.00000000000E+00 0.  1.
    9000005    2    1    2  501    0  0.55463509727E-03 -0.60900996050E-03 -0.89160515952E+03  0.11083946412E+04  0.65846709881E+03 0.  0.
         13    1    3    3    0    0  0.42947386136E+02  0.25645787090E+03 -0.78572580018E+03  0.82763527631E+03  0.00000000000E+00 0.  1.
          3    1    3    3  501    0 -0.42946831501E+02 -0.25645847991E+03 -0.10587935934E+03  0.28075936492E+03  0.00000000000E+00 0.  1.
         21    1    1    2  502  501 -0.55463509727E-03  0.60900996047E-03  0.16030800692E-02  0.18023259781E-02  0.00000000000E+00 0. -1.
<mgrwt>
<rscale>  1 0.65846710E+03</rscale>
<asrwt>0</asrwt>
<pdfrwt beam="1">  1        1 0.39416972E+00 0.65846710E+03</pdfrwt>
<pdfrwt beam="2">0</pdfrwt>
<totfact> 0.14179908E+00</totfact>
</mgrwt>
</event>
<event>
 6    1  0.8864941E-003  0.6692381E+03  0.7818608E-02  0.9771335E-01
          1   -1    0    0  502    0  0.00000000000E+00  0.00000000000E+00  0.11196996668E+03  0.11196996668E+03  0.00000000000E+00 0.  1.
         13   -1    0    0    0    0 -0.00000000000E+00 -0.00000000000E+00 -0.10000000000E+04  0.10000000000E+04  0.00000000000E+00 0.  1.
    9000005    2    1    2  501    0 -0.31840386669E-04  0.93671841004E-05 -0.88803009115E+03  0.11119699000E+04  0.66923808598E+03 0.  0.
         13    1    3    3    0    0  0.29166649936E+03  0.14750201357E+02 -0.71542733925E+03  0.77273746708E+03  0.00000000000E+00 0.  1.
          3    1    3    3  501    0 -0.29166653120E+03 -0.14750191990E+02 -0.17260275190E+03  0.33923243292E+03  0.00000000000E+00 0.  1.
         21    1    1    2  502  501  0.31840386637E-04 -0.93671841011E-05  0.57832414080E-04  0.66679400698E-04  0.00000000000E+00 0.  1.
<mgrwt>
<rscale>  1 0.66923809E+03</rscale>
<asrwt>0</asrwt>
<pdfrwt beam="1">  1        1 0.40716437E+00 0.66923809E+03</pdfrwt>
<pdfrwt beam="2">0</pdfrwt>
<totfact> 0.12383009E+00</totfact>
</mgrwt>
</event>
<event>
 6    1  0.8864941E-003  0.6483677E+03  0.7818608E-02  0.9809847E-01
          1   -1    0    0  502    0  0.00000000000E+00  0.00000000000E+00  0.10509723665E+03  0.10509723665E+03  0.00000000000E+00 0.  1.
         13   -1    0    0    0    0 -0.00000000000E+00 -0.00000000000E+00 -0.10000000000E+04  0.10000000000E+04  0.00000000000E+00 0.  1.
    9000005    2    1    2  501    0  0.10040818885E-02 -0.26387077941E-03 -0.89490470218E+03  0.11050950374E+04  0.64836765466E+03 0.  0.
         13    1    3    3    0    0  0.13755342545E+03  0.29336721869E+03 -0.46532416719E+03  0.56702014992E+03  0.00000000000E+00 0.  1.
          1    1    3    3  501    0 -0.13755242136E+03 -0.29336748256E+03 -0.42958053499E+03  0.53807488744E+03  0.00000000000E+00 0.  1.
         21    1    1    2  502  501 -0.10040818886E-02  0.26387077942E-03  0.19388347328E-02  0.21992926927E-02  0.00000000000E+00 0.  1.
<mgrwt>
<rscale>  1 0.64836765E+03</rscale>
<asrwt>0</asrwt>
<pdfrwt beam="1">  1        1 0.38217258E+00 0.64836765E+03</pdfrwt>
<pdfrwt beam="2">0</pdfrwt>
<totfact> 0.16056112E+00</totfact>
</mgrwt>
</event>
<event>
 6    1  0.8864941E-003  0.6380389E+03  0.7818608E-02  0.9829486E-01
          1   -1    0    0  502    0  0.00000000000E+00  0.00000000000E+00  0.10177398058E+03  0.10177398058E+03  0.00000000000E+00 0.  1.
         13   -1    0    0    0    0 -0.00000000000E+00 -0.00000000000E+00 -0.10000000000E+04  0.10000000000E+04  0.00000000000E+00 0.  1.
    9000005    2    1    2  501    0  0.15055362249E-02  0.78800396956E-03 -0.89822281528E+03  0.11017703537E+04  0.63803893804E+03 0.  0.
         13    1    3    3    0    0 -0.30775415086E+03  0.82353225522E+02 -0.42030067129E+03  0.52739674384E+03  0.00000000000E+00 0.  1.
          1    1    3    3  501    0  0.30775565640E+03 -0.82352437518E+02 -0.47792214398E+03  0.57437360987E+03  0.00000000000E+00 0.  1.
         21    1    1    2  502  501 -0.15055362249E-02 -0.78800396956E-03 -0.32041435492E-02  0.36268616550E-02  0.00000000000E+00 0. -1.
<mgrwt>
<rscale>  1 0.63803894E+03</rscale>
<asrwt>0</asrwt>
<pdfrwt beam="1">  1        1 0.37008798E+00 0.63803894E+03</pdfrwt>
<pdfrwt beam="2">0</pdfrwt>
<totfact> 0.18183831E+00</totfact>
</mgrwt>
</event>
<event>
 6    1  0.8864941E-003  0.6527875E+03  0.7818608E-02  0.9801563E-01
          1   -1    0    0  502    0  0.00000000000E+00  0.00000000000E+00  0.10660305769E+03  0.10660305769E+03  0.00000000000E+00 0.  1.
         13   -1    0    0    0    0 -0.00000000000E+00 -0.00000000000E+00 -0.10000000000E+04  0.10000000000E+04  0.00000000000E+00 0.  1.
    9000005    2    1    2  501    0  0.12669522048E-02 -0.13012587326E-02 -0.89346709678E+03  0.11065328797E+04  0.65278753119E+03 0.  0.
         13    1    3    3    0    0  0.28879422889E+03  0.13286334064E+03 -0.32127093032E+03  0.45196214952E+03  0.00000000000E+00 0.  1.
          1    1    3    3  501    0 -0.28879296194E+03 -0.13286464190E+03 -0.57219616645E+03  0.65457073020E+03  0.00000000000E+00 0.  1.
         21    1    1    2  502  501 -0.12669522048E-02  0.13012587326E-02  0.70154464360E-01  0.70177968849E-01  0.00000000000E+00 0.  1.
<mgrwt>
<rscale>  1 0.65278753E+03</rscale>
<asrwt>0</asrwt>
<pdfrwt beam="1">  1        1 0.38764830E+00 0.65278753E+03</pdfrwt>
<pdfrwt beam="2">0</pdfrwt>
<totfact> 0.15172826E+00</totfact>
</mgrwt>
</event>
<event>
 6    1  0.8864941E-003  0.6582564E+03  0.7818608E-02  0.9791409E-01
          1   -1    0    0  502    0  0.00000000000E+00  0.00000000000E+00  0.10832568720E+03  0.10832568720E+03  0.00000000000E+00 0.  1.
         13   -1    0    0    0    0 -0.00000000000E+00 -0.00000000000E+00 -0.10000000000E+04  0.10000000000E+04  0.00000000000E+00 0.  1.
    9000005    2    1    2  501    0 -0.17518100221E-03 -0.37918222619E-03 -0.89167447693E+03  0.11083252384E+04  0.65825637961E+03 0.  0.
         13    1    3    3    0    0  0.46055363245E+02 -0.31326187335E+02 -0.99200665028E+03  0.99356913232E+03  0.00000000000E+00 0.  1.
          1    1    3    3  501    0 -0.46055538426E+02  0.31325808153E+02  0.10033217335E+03  0.11475610609E+03  0.00000000000E+00 0.  1.
         21    1    1    2  502  501  0.17518100221E-03  0.37918222619E-03  0.16412663120E-03  0.44878179025E-03  0.00000000000E+00 0.  1.
<mgrwt>
<rscale>  1 0.65825638E+03</rscale>
<asrwt>0</asrwt>
<pdfrwt beam="1">  1        1 0.39391242E+00 0.65825638E+03</pdfrwt>
<pdfrwt beam="2">0</pdfrwt>
<totfact> 0.14217852E+00</totfact>
</mgrwt>
</event>
<event>
 6    1  0.8864941E-003  0.6454155E+03  0.7818608E-02  0.9815420E-01
          1   -1    0    0  502    0  0.00000000000E+00  0.00000000000E+00  0.10414628439E+03  0.10414628439E+03  0.00000000000E+00 0.  1.
         13   -1    0    0    0    0 -0.00000000000E+00 -0.00000000000E+00 -0.10000000000E+04  0.10000000000E+04  0.00000000000E+00 0.  1.
    9000005    2    1    2  501    0 -0.71709000956E-03  0.13199784865E-03 -0.89585969238E+03  0.11041402633E+04  0.64541547289E+03 0.  0.
         13    1    3    3    0    0 -0.69733095110E+02  0.30505831827E+03 -0.58281965001E+03  0.66151494809E+03  0.00000000000E+00 0.  1.
          3    1    3    3  501    0  0.69732378020E+02 -0.30505818627E+03 -0.31304004236E+03  0.44262531523E+03  0.00000000000E+00 0.  1.
         21    1    1    2  502  501  0.71709000956E-03 -0.13199784862E-03  0.59767657315E-02  0.60210771563E-02  0.00000000000E+00 0.  1.
<mgrwt>
<rscale>  1 0.64541547E+03</rscale>
<asrwt>0</asrwt>
<pdfrwt beam="1">  1        1 0.37871456E+00 0.64541547E+03</pdfrwt>
<pdfrwt beam="2">0</pdfrwt>
<totfact> 0.16639378E+00</totfact>
</mgrwt>
</event>
<event>
 6    1  0.8864941E-003  0.6543424E+03  0.7818608E-02  0.9798665E-01
          1   -1    0    0  502    0  0.00000000000E+00  0.00000000000E+00  0.10704273618E+03  0.10704273618E+03  0.00000000000E+00 0.  1.
         13   -1    0    0    0    0 -0.00000000000E+00 -0.00000000000E+00 -0.10000000000E+04  0.10000000000E+04  0.00000000000E+00 0.  1.
    9000005    2    1    2  501    0 -0.14820978055E-02  0.44856445660E-02 -0.89295407847E+03  0.11070370385E+04  0.65434243194E+03 0.  0.
         13    1    3    3    0    0 -0.20969726346E+03 -0.14688689980E+03 -0.79109514463E+03  0.83149277297E+03  0.00000000000E+00 0.  1.
          1    1    3    3  501    0  0.20969578136E+03  0.14689138545E+03 -0.10185893384E+03  0.27554426549E+03  0.00000000000E+00 0.  1.
         21    1    1    2  502  501  0.14820978055E-02 -0.44856445660E-02 -0.31853435421E-02  0.56977218744E-02  0.00000000000E+00 0.  1.
<mgrwt>
<rscale>  1 0.65434243E+03</rscale>
<asrwt>0</asrwt>
<pdfrwt beam="1">  1        1 0.38924713E+00 0.65434243E+03</pdfrwt>
<pdfrwt beam="2">0</pdfrwt>
<totfact> 0.14923021E+00</totfact>
</mgrwt>
</event>
<event>
 6    1  0.8864941E-003  0.6788974E+03  0.7818608E-02  0.9754017E-01
          1   -1    0    0  502    0  0.00000000000E+00  0.00000000000E+00  0.11561584721E+03  0.11561584721E+03  0.00000000000E+00 0.  1.
         13   -1    0    0    0    0 -0.00000000000E+00 -0.00000000000E+00 -0.10000000000E+04  0.10000000000E+04  0.00000000000E+00 0.  1.
    9000005    2    1    2  501    0 -0.97464236441E-01 -0.16274457059E+00 -0.88474868812E+03  0.11152049079E+04  0.67889742199E+03 0.  0.
         13    1    3    3    0    0 -0.31140910216E+03  0.10371342681E+03 -0.58472397919E+03  0.67054771318E+03  0.00000000000E+00 0.  1.
          3    1    3    3  501    0  0.31131163793E+03 -0.10387617138E+03 -0.30002470893E+03  0.44465719476E+03  0.00000000000E+00 0.  1.
         21    1    1    2  502  501  0.97464236441E-01  0.16274457059E+00  0.36453532862E+00  0.41093926371E+00  0.00000000000E+00 0. -1.
<mgrwt>
<rscale>  1 0.67889745E+03</rscale>
<asrwt>0</asrwt>
<pdfrwt beam="1">  1        1 0.42042215E+00 0.67889745E+03</pdfrwt>
<pdfrwt beam="2">0</pdfrwt>
<totfact> 0.10774973E+00</totfact>
</mgrwt>
</event>
<event>
 6    1  0.8864941E-003  0.6541935E+03  0.7818608E-02  0.9798942E-01
          1   -1    0    0  502    0  0.00000000000E+00  0.00000000000E+00  0.10699234691E+03  0.10699234691E+03  0.00000000000E+00 0.  1.
         13   -1    0    0    0    0 -0.00000000000E+00 -0.00000000000E+00 -0.10000000000E+04  0.10000000000E+04  0.00000000000E+00 0.  1.
    9000005    2    1    2  501    0 -0.65439936861E-04 -0.14464606652E-03 -0.89300751662E+03  0.11069921376E+04  0.65419352479E+03 0.  0.
         13    1    3    3    0    0  0.30104152507E+03  0.12718420503E+03 -0.46985483071E+03  0.57233328033E+03  0.00000000000E+00 0.  1.
          3    1    3    3  501    0 -0.30104159051E+03 -0.12718434968E+03 -0.42315268590E+03  0.53465885723E+03  0.00000000000E+00 0.  1.
         21    1    1    2  502  501  0.65439936835E-04  0.14464606653E-03 -0.13647440232E-03  0.20935647203E-03  0.00000000000E+00 0.  1.
<mgrwt>
<rscale>  1 0.65419352E+03</rscale>
<asrwt>0</asrwt>
<pdfrwt beam="1">  1        1 0.38906390E+00 0.65419352E+03</pdfrwt>
<pdfrwt beam="2">0</pdfrwt>
<totfact> 0.14951369E+00</totfact>
</mgrwt>
</event>
<event>
 6    1  0.8864941E-003  0.6393287E+03  0.7818608E-02  0.9827012E-01
          1   -1    0    0  502    0  0.00000000000E+00  0.00000000000E+00  0.10899466550E+03  0.10899466550E+03  0.00000000000E+00 0.  1.
         13   -1    0    0    0    0 -0.00000000000E+00 -0.00000000000E+00 -0.10000000000E+04  0.10000000000E+04  0.00000000000E+00 0.  1.
    9000005    2    1    2  501    0 -0.13765700556E+01  0.10394567035E+02 -0.89305428504E+03  0.10983110253E+04  0.63924268502E+03 0.  0.
         13    1    3    3    0    0 -0.86613108111E+02 -0.30042884864E+03 -0.37578957518E+03  0.48885286990E+03  0.00000000000E+00 0.  1.
          1    1    3    3  501    0  0.85236538056E+02  0.31082341568E+03 -0.51726470986E+03  0.60945815543E+03  0.00000000000E+00 0.  1.
         21    1    1    2  502  501  0.13765700556E+01 -0.10394567035E+02  0.20489505387E+01  0.10683640170E+02  0.00000000000E+00 0. -1.
<mgrwt>
<rscale>  1 0.63932867E+03</rscale>
<asrwt>0</asrwt>
<pdfrwt beam="1">  1        1 0.39634507E+00 0.63932867E+03</pdfrwt>
<pdfrwt beam="2">0</pdfrwt>
<totfact> 0.13917841E+00</totfact>
</mgrwt>
</event>
<event>
 6    1  0.8864941E-003  0.6504584E+03  0.7818608E-02  0.9805919E-01
          1   -1    0    0  502    0  0.00000000000E+00  0.00000000000E+00  0.10577423793E+03  0.10577423793E+03  0.00000000000E+00 0.  1.
         13   -1    0    0    0    0 -0.00000000000E+00 -0.00000000000E+00 -0.10000000000E+04  0.10000000000E+04  0.00000000000E+00 0.  1.
    9000005    2    1    2  501    0  0.27203725125E-04  0.75635227859E-05 -0.89422598065E+03  0.11057740175E+04  0.65045835638E+03 0.  0.
         13    1    3    3    0    0 -0.67097947095E+02  0.28818621946E+03 -0.21764185430E+03  0.36731649614E+03  0.00000000000E+00 0.  1.
          1    1    3    3  501    0  0.67097974299E+02 -0.28818621190E+03 -0.67658412635E+03  0.73845752140E+03  0.00000000000E+00 0.  1.
         21    1    1    2  502  501 -0.27203725129E-04 -0.75635228046E-05  0.21857454016E-03  0.22039074196E-03  0.00000000000E+00 0.  1.
<mgrwt>
<rscale>  1 0.65045836E+03</rscale>
<asrwt>0</asrwt>
<pdfrwt beam="1">  1        1 0.38463440E+00 0.65045836E+03</pdfrwt>
<pdfrwt beam="2">0</pdfrwt>
<totfact> 0.15652815E+00</totfact>
</mgrwt>
</event>
<event>
 6    1  0.8864941E-003  0.6390432E+03  0.7818608E-02  0.9827559E-01
          1   -1    0    0  502    0  0.00000000000E+00  0.00000000000E+00  0.10211497997E+03  0.10211497997E+03  0.00000000000E+00 0.  1.
         13   -1    0    0    0    0 -0.00000000000E+00 -0.00000000000E+00 -0.10000000000E+04  0.10000000000E+04  0.00000000000E+00 0.  1.
    9000005    2    1    2  501    0  0.19423704087E-03  0.49233232215E-03 -0.89790595733E+03  0.11020940360E+04  0.63904315654E+03 0.  0.
         13    1    3    3    0    0 -0.12758467443E+03  0.27326077598E+03 -0.63101783059E+03  0.69938029952E+03  0.00000000000E+00 0.  1.
          1    1    3    3  501    0  0.12758486867E+03 -0.27326028365E+03 -0.26688812674E+03  0.40271373646E+03  0.00000000000E+00 0.  1.
         21    1    1    2  502  501 -0.19423704087E-03 -0.49233232211E-03  0.20937303222E-01  0.20943991629E-01  0.00000000000E+00 0. -1.
<mgrwt>
<rscale>  1 0.63904316E+03</rscale>
<asrwt>0</asrwt>
<pdfrwt beam="1">  1        1 0.37132798E+00 0.63904316E+03</pdfrwt>
<pdfrwt beam="2">0</pdfrwt>
<totfact> 0.17953879E+00</totfact>
</mgrwt>
</event>
<event>
 6    1  0.8864941E-003  0.6605799E+03  0.7818608E-02  0.9787127E-01
          1   -1    0    0  502    0  0.00000000000E+00  0.00000000000E+00  0.10946548717E+03  0.10946548717E+03  0.00000000000E+00 0.  1.
         13   -1    0    0    0    0 -0.00000000000E+00 -0.00000000000E+00 -0.10000000000E+04  0.10000000000E+04  0.00000000000E+00 0.  1.
    9000005    2    1    2  501    0  0.11128892630E-01 -0.61938258937E-02 -0.89090842578E+03  0.11090913574E+04  0.66057990863E+03 0.  0.
         13    1    3    3    0    0 -0.29387190532E+03 -0.65450384555E+02 -0.21742930033E+03  0.37137575341E+03  0.00000000000E+00 0.  1.
          1    1    3    3  501    0  0.29388303422E+03  0.65444190729E+02 -0.67347912545E+03  0.73771560395E+03  0.00000000000E+00 0.  1.
         21    1    1    2  502  501 -0.11128892630E-01  0.61938258937E-02  0.37391295036E+00  0.37412980391E+00  0.00000000000E+00 0. -1.
<mgrwt>
<rscale>  1 0.66057991E+03</rscale>
<asrwt>0</asrwt>
<pdfrwt beam="1">  1        1 0.39805716E+00 0.66057991E+03</pdfrwt>
<pdfrwt beam="2">0</pdfrwt>
<totfact> 0.13620877E+00</totfact>
</mgrwt>
</event>
<event>
 6    1  0.8864941E-003  0.6585610E+03  0.7818608E-02  0.9790846E-01
          1   -1    0    0  502    0  0.00000000000E+00  0.00000000000E+00  0.10843586335E+03  0.10843586335E+03  0.00000000000E+00 0.  1.
         13   -1    0    0    0    0 -0.00000000000E+00 -0.00000000000E+00 -0.10000000000E+04  0.10000000000E+04  0.00000000000E+00 0.  1.
    9000005    2    1    2  501    0  0.32806905668E-02  0.58853503396E-03 -0.89157406570E+03  0.11084253898E+04  0.65856095397E+03 0.  0.
         13    1    3    3    0    0  0.17101597851E+03  0.25118512647E+03 -0.65925673907E+03  0.72592002360E+03  0.00000000000E+00 0.  1.
          1    1    3    3  501    0 -0.17101269782E+03 -0.25118453793E+03 -0.23231732664E+03  0.38250536619E+03  0.00000000000E+00 0.  1.
         21    1    1    2  502  501 -0.32806905668E-02 -0.58853503397E-03  0.99290547447E-02  0.10473558717E-01  0.00000000000E+00 0. -1.
<mgrwt>
<rscale>  1 0.65856095E+03</rscale>
<asrwt>0</asrwt>
<pdfrwt beam="1">  1        1 0.39431306E+00 0.65856095E+03</pdfrwt>
<pdfrwt beam="2">0</pdfrwt>
<totfact> 0.14158872E+00</totfact>
</mgrwt>
</event>
<event>
 6    1  0.8864941E-003  0.6502944E+03  0.7818608E-02  0.9806227E-01
          1   -1    0    0  502    0  0.00000000000E+00  0.00000000000E+00  0.10619769964E+03  0.10619769964E+03  0.00000000000E+00 0.  1.
         13   -1    0    0    0    0 -0.00000000000E+00 -0.00000000000E+00 -0.10000000000E+04  0.10000000000E+04  0.00000000000E+00 0.  1.
    9000005    2    1    2  501    0  0.21599894531E+00  0.10992371268E+01 -0.89339510805E+03  0.11050057335E+04  0.65029346982E+03 0.  0.
         13    1    3    3    0    0 -0.20527974899E+03  0.25150555263E+03 -0.48730874309E+03  0.58554643662E+03  0.00000000000E+00 0.  1.
          3    1    3    3  501    0  0.20549574793E+03 -0.25040631550E+03 -0.40608636496E+03  0.51945929684E+03  0.00000000000E+00 0.  1.
         21    1    1    2  502  501 -0.21599894531E+00 -0.10992371268E+01 -0.40719231159E+00  0.11919661841E+01  0.00000000000E+00 0.  1.
<mgrwt>
<rscale>  1 0.65029443E+03</rscale>
<asrwt>0</asrwt>
<pdfrwt beam="1">  1        1 0.38617427E+00 0.65029443E+03</pdfrwt>
<pdfrwt beam="2">0</pdfrwt>
<totfact> 0.15409663E+00</totfact>
</mgrwt>
</event>
<event>
 6    1  0.8864941E-003  0.6437379E+03  0.7818608E-02  0.9818601E-01
          1   -1    0    0  502    0  0.00000000000E+00  0.00000000000E+00  0.11090394500E+03  0.11090394500E+03  0.00000000000E+00 0.  1.
         13   -1    0    0    0    0 -0.00000000000E+00 -0.00000000000E+00 -0.10000000000E+04  0.10000000000E+04  0.00000000000E+00 0.  1.
    9000005    2    1    2  501    0 -0.12534508455E+01 -0.11779764613E+01 -0.89628847124E+03  0.11035087020E+04  0.64373556135E+03 0.  0.
         13    1    3    3    0    0  0.17107351240E+03  0.24392379383E+03 -0.24183552429E+03  0.38373087529E+03  0.00000000000E+00 0.  1.
          3    1    3    3  501    0 -0.17232696324E+03 -0.24510177029E+03 -0.65445294695E+03  0.71977782672E+03  0.00000000000E+00 0.  1.
         21    1    1    2  502  501  0.12534508455E+01  0.11779764613E+01  0.71924162480E+01  0.73952430014E+01  0.00000000000E+00 0. -1.
<mgrwt>
<rscale>  1 0.64373786E+03</rscale>
<asrwt>0</asrwt>
<pdfrwt beam="1">  1        1 0.40328792E+00 0.64373786E+03</pdfrwt>
<pdfrwt beam="2">0</pdfrwt>
<totfact> 0.12949995E+00</totfact>
</mgrwt>
</event>
<event>
 6    1  0.8864941E-003  0.6552960E+03  0.7818608E-02  0.9796892E-01
          1   -1    0    0  502    0  0.00000000000E+00  0.00000000000E+00  0.10735326494E+03  0.10735326494E+03  0.00000000000E+00 0.  1.
         13   -1    0    0    0    0 -0.00000000000E+00 -0.00000000000E+00 -0.10000000000E+04  0.10000000000E+04  0.00000000000E+00 0.  1.
    9000005    2    1    2  501    0 -0.27224290932E-04  0.11898501604E-03 -0.89264659300E+03  0.11073530776E+04  0.65529603887E+03 0.  0.
         13    1    3    3    0    0  0.30099280225E+03 -0.12155022156E+03 -0.52155635888E+03  0.61432252023E+03  0.00000000000E+00 0.  1.
          1    1    3    3  501    0 -0.30099282948E+03  0.12155034054E+03 -0.37109023412E+03  0.49303055741E+03  0.00000000000E+00 0.  1.
         21    1    1    2  502  501  0.27224290956E-04 -0.11898501605E-03 -0.14206438516E-03  0.18729892043E-03  0.00000000000E+00 0. -1.
<mgrwt>
<rscale>  1 0.65529604E+03</rscale>
<asrwt>0</asrwt>
<pdfrwt beam="1">  1        1 0.39037633E+00 0.65529604E+03</pdfrwt>
<pdfrwt beam="2">0</pdfrwt>
<totfact> 0.14749344E+00</totfact>
</mgrwt>
</event>
<event>
 6    1  0.8864941E-003  0.6438841E+03  0.7818608E-02  0.9818323E-01
          1   -1    0    0  502    0  0.00000000000E+00  0.00000000000E+00  0.10364744160E+03  0.10364744160E+03  0.00000000000E+00 0.  1.
         13   -1    0    0    0    0 -0.00000000000E+00 -0.00000000000E+00 -0.10000000000E+04  0.10000000000E+04  0.00000000000E+00 0.  1.
    9000005    2    1    2  501    0 -0.65074799522E-05  0.22429684066E-04 -0.89635331303E+03  0.11036466866E+04  0.64388410997E+03 0.  0.
         13    1    3    3    0    0 -0.25471579818E+03 -0.16430413583E+03 -0.26221497168E+03  0.40079006757E+03  0.00000000000E+00 0.  1.
          1    1    3    3  501    0  0.25471579167E+03  0.16430415826E+03 -0.63413834135E+03  0.70285661903E+03  0.00000000000E+00 0.  1.
         21    1    1    2  502  501  0.65074799505E-05 -0.22429684075E-04  0.75463015698E-03  0.75499146475E-03  0.00000000000E+00 0. -1.
<mgrwt>
<rscale>  1 0.64388411E+03</rscale>
<asrwt>0</asrwt>
<pdfrwt beam="1">  1        1 0.37690058E+00 0.64388411E+03</pdfrwt>
<pdfrwt beam="2">0</pdfrwt>
<totfact> 0.16953303E+00</totfact>
</mgrwt>
</event>
<event>
 6    1  0.8864941E-003  0.6402550E+03  0.7818608E-02  0.9825239E-01
          1   -1    0    0  502    0  0.00000000000E+00  0.00000000000E+00  0.10504236119E+03  0.10504236119E+03  0.00000000000E+00 0.  1.
         13   -1    0    0    0    0 -0.00000000000E+00 -0.00000000000E+00 -0.10000000000E+04  0.10000000000E+04  0.00000000000E+00 0.  1.
    9000005    2    1    2  501    0  0.26080555055E+01  0.51917394550E+01 -0.89320645193E+03  0.10989741846E+04  0.64022865951E+03 0.  0.
         13    1    3    3    0    0 -0.18378660962E+03 -0.25828005904E+03 -0.46475678221E+03  0.56256997199E+03  0.00000000000E+00 0.  1.
          1    1    3    3  501    0  0.18639466512E+03  0.26347179849E+03 -0.42844966972E+03  0.53640421258E+03  0.00000000000E+00 0.  1.
         21    1    1    2  502  501 -0.26080555055E+01 -0.51917394550E+01 -0.17511868765E+01  0.60681766260E+01  0.00000000000E+00 0. -1.
<mgrwt>
<rscale>  1 0.64025502E+03</rscale>
<asrwt>0</asrwt>
<pdfrwt beam="1">  1        1 0.38197303E+00 0.64025502E+03</pdfrwt>
<pdfrwt beam="2">0</pdfrwt>
<totfact> 0.16112900E+00</totfact>
</mgrwt>
</event>
<event>
 6    1  0.8864941E-003  0.6468351E+03  0.7818608E-02  0.9812736E-01
          3   -1    0    0  502    0  0.00000000000E+00  0.00000000000E+00  0.10460074348E+03  0.10460074348E+03  0.00000000000E+00 0.  1.
         13   -1    0    0    0    0 -0.00000000000E+00 -0.00000000000E+00 -0.10000000000E+04  0.10000000000E+04  0.00000000000E+00 0.  1.
    9000005    2    1    2  501    0  0.70382545162E-03  0.41791516225E-04 -0.89540101534E+03  0.11045988486E+04  0.64683509340E+03 0.  0.
         13    1    3    3    0    0 -0.83962503812E+02 -0.46633999225E+02 -0.97508438835E+03  0.97980303956E+03  0.00000000000E+00 0.  1.
          1    1    3    3  501    0  0.83963207637E+02  0.46634041017E+02  0.79683373012E+02  0.12479580904E+03  0.00000000000E+00 0.  1.
         21    1    1    2  502  501 -0.70382545162E-03 -0.41791516224E-04  0.17588229828E-02  0.18948812844E-02  0.00000000000E+00 0. -1.
<mgrwt>
<rscale>  1 0.64683509E+03</rscale>
<asrwt>0</asrwt>
<pdfrwt beam="1">  1        3 0.38036714E+00 0.64683509E+03</pdfrwt>
<pdfrwt beam="2">0</pdfrwt>
<totfact> 0.75182247E-02</totfact>
</mgrwt>
</event>
<event>
 6    1  0.8864941E-003  0.6271873E+03  0.7818608E-02  0.9850553E-01
          1   -1    0    0  502    0  0.00000000000E+00  0.00000000000E+00  0.98363640454E+02  0.98363640454E+02  0.00000000000E+00 0.  1.
         13   -1    0    0    0    0 -0.00000000000E+00 -0.00000000000E+00 -0.10000000000E+04  0.10000000000E+04  0.00000000000E+00 0.  1.
    9000005    2    1    2  501    0 -0.62722705012E-02 -0.45654132889E-02 -0.90165830487E+03  0.10983403643E+04  0.62718725827E+03 0.  0.
         13    1    3    3    0    0 -0.49560470604E+02 -0.17869421324E+03 -0.89369978561E+03  0.91273608940E+03  0.00000000000E+00 0.  1.
          3    1    3    3  501    0  0.49554198333E+02  0.17868964783E+03 -0.79585192557E+01  0.18560427485E+03  0.00000000000E+00 0.  1.
         21    1    1    2  502  501  0.62722705012E-02  0.45654132889E-02  0.21945324358E-01  0.23276203233E-01  0.00000000000E+00 0. -1.
<mgrwt>
<rscale>  1 0.62718726E+03</rscale>
<asrwt>0</asrwt>
<pdfrwt beam="1">  1        1 0.35768672E+00 0.62718726E+03</pdfrwt>
<pdfrwt beam="2">0</pdfrwt>
<totfact> 0.20647258E+00</totfact>
</mgrwt>
</event>
<event>
 6    1  0.8864941E-003  0.6534970E+03  0.7818608E-02  0.9800239E-01
          1   -1    0    0  502    0  0.00000000000E+00  0.00000000000E+00  0.10679846798E+03  0.10679846798E+03  0.00000000000E+00 0.  1.
         13   -1    0    0    0    0 -0.00000000000E+00 -0.00000000000E+00 -0.10000000000E+04  0.10000000000E+04  0.00000000000E+00 0.  1.
    9000005    2    1    2  501    0  0.40186357506E-02 -0.51710208165E-02 -0.89323508221E+03  0.11067642846E+04  0.65349695446E+03 0.  0.
         13    1    3    3    0    0  0.39279637548E+02  0.24348759958E+03 -0.80959334090E+03  0.84632764265E+03  0.00000000000E+00 0.  1.
          1    1    3    3  501    0 -0.39275618913E+02 -0.24349277060E+03 -0.83641741312E+02  0.26043664194E+03  0.00000000000E+00 0.  1.
         21    1    1    2  502  501 -0.40186357506E-02  0.51710208165E-02  0.33550196023E-01  0.34183395717E-01  0.00000000000E+00 0.  1.
<mgrwt>
<rscale>  1 0.65349695E+03</rscale>
<asrwt>0</asrwt>
<pdfrwt beam="1">  1        1 0.38835888E+00 0.65349695E+03</pdfrwt>
<pdfrwt beam="2">0</pdfrwt>
<totfact> 0.15061266E+00</totfact>
</mgrwt>
</event>
<event>
 6    1  0.8864941E-003  0.6801025E+03  0.7818608E-02  0.9751878E-01
          1   -1    0    0  502    0  0.00000000000E+00  0.00000000000E+00  0.11572233508E+03  0.11572233508E+03  0.00000000000E+00 0.  1.
         13   -1    0    0    0    0 -0.00000000000E+00 -0.00000000000E+00 -0.10000000000E+04  0.10000000000E+04  0.00000000000E+00 0.  1.
    9000005    2    1    2  501    0 -0.24884449353E-01 -0.13600910146E+00 -0.88429903498E+03  0.11155824266E+04  0.68010245411E+03 0.  0.
         13    1    3    3    0    0 -0.24875255804E+03  0.38829243399E+02 -0.67203035302E+02  0.26057972529E+03  0.00000000000E+00 0.  1.
          1    1    3    3  501    0  0.24872767359E+03 -0.38965252501E+02 -0.81709599968E+03  0.85500270129E+03  0.00000000000E+00 0.  1.
         21    1    1    2  502  501  0.24884449353E-01  0.13600910146E+00  0.21370065662E-01  0.13990851012E+00  0.00000000000E+00 0. -1.
<mgrwt>
<rscale>  1 0.68010247E+03</rscale>
<asrwt>0</asrwt>
<pdfrwt beam="1">  1        1 0.42080938E+00 0.68010247E+03</pdfrwt>
<pdfrwt beam="2">0</pdfrwt>
<totfact> 0.10729208E+00</totfact>
</mgrwt>
</event>
<event>
 6    1  0.8864941E-003  0.6483604E+03  0.7818608E-02  0.9809861E-01
          1   -1    0    0  502    0  0.00000000000E+00  0.00000000000E+00  0.10510707588E+03  0.10510707588E+03  0.00000000000E+00 0.  1.
         13   -1    0    0    0    0 -0.00000000000E+00 -0.00000000000E+00 -0.10000000000E+04  0.10000000000E+04  0.00000000000E+00 0.  1.
    9000005    2    1    2  501    0  0.90832576527E-02 -0.32221397796E-01 -0.89488092072E+03  0.11050715118E+04  0.64836038030E+03 0.  0.
         13    1    3    3    0    0 -0.31754051582E+03  0.22994722668E+02 -0.34335996808E+03  0.46824865631E+03  0.00000000000E+00 0.  1.
          3    1    3    3  501    0  0.31754959908E+03 -0.23026944066E+02 -0.55152095264E+03  0.63682285546E+03  0.00000000000E+00 0.  1.
         21    1    1    2  502  501 -0.90832576527E-02  0.32221397796E-01 -0.12003402043E-01  0.35564106992E-01  0.00000000000E+00 0. -1.
<mgrwt>
<rscale>  1 0.64836038E+03</rscale>
<asrwt>0</asrwt>
<pdfrwt beam="1">  1        1 0.38220835E+00 0.64836038E+03</pdfrwt>
<pdfrwt beam="2">0</pdfrwt>
<totfact> 0.16050291E+00</totfact>
</mgrwt>
</event>
<event>
 6    1  0.8864941E-003  0.5607341E+03  0.7818608E-02  0.9990395E-01
          1   -1    0    0  502    0  0.00000000000E+00  0.00000000000E+00  0.78607252560E+02  0.78607252560E+02  0.00000000000E+00 0.  1.
         13   -1    0    0    0    0 -0.00000000000E+00 -0.00000000000E+00 -0.10000000000E+04  0.10000000000E+04  0.00000000000E+00 0.  1.
    9000005    2    1    2  501    0  0.16417681202E-02 -0.19049904595E-02 -0.92139316677E+03  0.10786047030E+04  0.56073410594E+03 0.  0.
         13    1    3    3    0    0 -0.73628519085E+02 -0.26582331886E+03 -0.36408080445E+03  0.45676911875E+03  0.00000000000E+00 0.  1.
          3    1    3    3  501    0  0.73630160853E+02  0.26582141387E+03 -0.55731236232E+03  0.62183558426E+03  0.00000000000E+00 0.  1.
         21    1    1    2  502  501 -0.16417681202E-02  0.19049904595E-02  0.41933100691E-03  0.25495548052E-02  0.00000000000E+00 0.  1.
<mgrwt>
<rscale>  1 0.56073411E+03</rscale>
<asrwt>0</asrwt>
<pdfrwt beam="1">  1        1 0.28584516E+00 0.56073411E+03</pdfrwt>
<pdfrwt beam="2">0</pdfrwt>
<totfact> 0.42763437E+00</totfact>
</mgrwt>
</event>
<event>
 6    1  0.8864941E-003  0.6496126E+03  0.7818608E-02  0.9807506E-01
          1   -1    0    0  502    0  0.00000000000E+00  0.00000000000E+00  0.10553517202E+03  0.10553517202E+03  0.00000000000E+00 0.  1.
         13   -1    0    0    0    0 -0.00000000000E+00 -0.00000000000E+00 -0.10000000000E+04  0.10000000000E+04  0.00000000000E+00 0.  1.
    9000005    2    1    2  501    0 -0.58880878237E-02 -0.29245743494E-01 -0.89449392143E+03  0.11054935017E+04  0.64961258148E+03 0.  0.
         13    1    3    3    0    0 -0.13390611817E+03 -0.29447500673E+03 -0.39729877483E+03  0.51234040887E+03  0.00000000000E+00 0.  1.
          3    1    3    3  501    0  0.13390023009E+03  0.29444576099E+03 -0.49719514660E+03  0.59315309288E+03  0.00000000000E+00 0.  1.
         21    1    1    2  502  501  0.58880878237E-02  0.29245743494E-01  0.29093453486E-01  0.41670278694E-01  0.00000000000E+00 0. -1.
<mgrwt>
<rscale>  1 0.64961258E+03</rscale>
<asrwt>0</asrwt>
<pdfrwt beam="1">  1        1 0.38376507E+00 0.64961258E+03</pdfrwt>
<pdfrwt beam="2">0</pdfrwt>
<totfact> 0.15794429E+00</totfact>
</mgrwt>
</event>
<event>
 6    1  0.8864941E-003  0.6206469E+03  0.7818608E-02  0.9863473E-01
          1   -1    0    0  502    0  0.00000000000E+00  0.00000000000E+00  0.97946703142E+02  0.97946703142E+02  0.00000000000E+00 0.  1.
         13   -1    0    0    0    0 -0.00000000000E+00 -0.00000000000E+00 -0.10000000000E+04  0.10000000000E+04  0.00000000000E+00 0.  1.
    9000005    2    1    2  501    0 -0.76541802659E+00  0.60377788845E-01 -0.90360068786E+03  0.10962192978E+04  0.62064640199E+03 0.  0.
         13    1    3    3    0    0 -0.22044748479E+03 -0.11019168932E+03 -0.11834784797E+03  0.27339626015E+03  0.00000000000E+00 0.  1.
          3    1    3    3  501    0  0.21968206676E+03  0.11025206711E+03 -0.78525283989E+03  0.82282303767E+03  0.00000000000E+00 0.  1.
         21    1    1    2  502  501  0.76541802659E+00 -0.60377788845E-01  0.15473910027E+01  0.17274053225E+01  0.00000000000E+00 0. -1.
<mgrwt>
<rscale>  1 0.62064688E+03</rscale>
<asrwt>0</asrwt>
<pdfrwt beam="1">  1        1 0.35617058E+00 0.62064688E+03</pdfrwt>
<pdfrwt beam="2">0</pdfrwt>
<totfact> 0.20989290E+00</totfact>
</mgrwt>
</event>
<event>
 6    1  0.8864941E-003  0.5999204E+03  0.7818608E-02  0.9905571E-01
          1   -1    0    0  502    0  0.00000000000E+00  0.00000000000E+00  0.89977319270E+02  0.89977319270E+02  0.00000000000E+00 0.  1.
         13   -1    0    0    0    0 -0.00000000000E+00 -0.00000000000E+00 -0.10000000000E+04  0.10000000000E+04  0.00000000000E+00 0.  1.
    9000005    2    1    2  501    0 -0.25131602440E-02  0.12208673197E-02 -0.91002177302E+03  0.10899743815E+04  0.59992043220E+03 0.  0.
         13    1    3    3    0    0  0.38608206682E+02  0.27366782460E+03 -0.24319514044E+03  0.36814202175E+03  0.00000000000E+00 0.  1.
          3    1    3    3  501    0 -0.38610719842E+02 -0.27366660373E+03 -0.66682663258E+03  0.72183235976E+03  0.00000000000E+00 0.  1.
         21    1    1    2  502  501  0.25131602440E-02 -0.12208673196E-02 -0.90770652562E-03  0.29377580841E-02  0.00000000000E+00 0.  1.
<mgrwt>
<rscale>  1 0.59992043E+03</rscale>
<asrwt>0</asrwt>
<pdfrwt beam="1">  1        1 0.32719094E+00 0.59992043E+03</pdfrwt>
<pdfrwt beam="2">0</pdfrwt>
<totfact> 0.28154427E+00</totfact>
</mgrwt>
</event>
<event>
 6    1  0.8864941E-003  0.6622514E+03  0.7818608E-02  0.9784058E-01
          1   -1    0    0  502    0  0.00000000000E+00  0.00000000000E+00  0.10964425506E+03  0.10964425506E+03  0.00000000000E+00 0.  1.
         13   -1    0    0    0    0 -0.00000000000E+00 -0.00000000000E+00 -0.10000000000E+04  0.10000000000E+04  0.00000000000E+00 0.  1.
    9000005    2    1    2  501    0  0.97645631740E-05  0.72481377629E-05 -0.89035575371E+03  0.11096442401E+04  0.66225144119E+03 0.  0.
         13    1    3    3    0    0 -0.16179621423E+03 -0.28564618429E+03 -0.37267258910E+03  0.49664536261E+03  0.00000000000E+00 0.  1.
          3    1    3    3  501    0  0.16179622400E+03  0.28564619154E+03 -0.51768316461E+03  0.61299887745E+03  0.00000000000E+00 0.  1.
         21    1    1    2  502  501 -0.97645631861E-05 -0.72481377494E-05  0.87609849320E-05  0.14987896851E-04  0.00000000000E+00 0.  1.
<mgrwt>
<rscale>  1 0.66225144E+03</rscale>
<asrwt>0</asrwt>
<pdfrwt beam="1">  1        1 0.39870722E+00 0.66225144E+03</pdfrwt>
<pdfrwt beam="2">0</pdfrwt>
<totfact> 0.13526121E+00</totfact>
</mgrwt>
</event>
<event>
 6    1  0.8864941E-003  0.6381617E+03  0.7818608E-02  0.9829250E-01
          1   -1    0    0  502    0  0.00000000000E+00  0.00000000000E+00  0.10190507516E+03  0.10190507516E+03  0.00000000000E+00 0.  1.
         13   -1    0    0    0    0 -0.00000000000E+00 -0.00000000000E+00 -0.10000000000E+04  0.10000000000E+04  0.00000000000E+00 0.  1.
    9000005    2    1    2  501    0 -0.15766547090E-02 -0.24818298821E-02 -0.89818737733E+03  0.11018125759E+04  0.63816172532E+03 0.  0.
         13    1    3    3    0    0  0.62124266768E+02  0.19401583148E+03 -0.25085186057E+02  0.20525796927E+03  0.00000000000E+00 0.  1.
          3    1    3    3  501    0 -0.62125843423E+02 -0.19401831331E+03 -0.87310219127E+03  0.89655460666E+03  0.00000000000E+00 0.  1.
         21    1    1    2  502  501  0.15766547090E-02  0.24818298821E-02  0.92452491275E-01  0.92499234930E-01  0.00000000000E+00 0. -1.
<mgrwt>
<rscale>  1 0.63816173E+03</rscale>
<asrwt>0</asrwt>
<pdfrwt beam="1">  1        1 0.37056469E+00 0.63816173E+03</pdfrwt>
<pdfrwt beam="2">0</pdfrwt>
<totfact> 0.18095965E+00</totfact>
</mgrwt>
</event>
<event>
 6    1  0.8864941E-003  0.6323056E+03  0.7818608E-02  0.9840560E-01
          3   -1    0    0  502    0  0.00000000000E+00  0.00000000000E+00  0.99989039022E+02  0.99989039022E+02  0.00000000000E+00 0.  1.
         13   -1    0    0    0    0 -0.00000000000E+00 -0.00000000000E+00 -0.10000000000E+04  0.10000000000E+04  0.00000000000E+00 0.  1.
    9000005    2    1    2  501    0 -0.52707550883E-01  0.10244321842E+00 -0.89985299856E+03  0.10997935273E+04  0.63230559894E+03 0.  0.
         13    1    3    3    0    0 -0.11360627864E+02  0.30362391831E+03 -0.60230419060E+03  0.67460127902E+03  0.00000000000E+00 0.  1.
          1    1    3    3  501    0  0.11307920313E+02 -0.30352147509E+03 -0.29754880796E+03  0.42519224831E+03  0.00000000000E+00 0.  1.
         21    1    1    2  502  501  0.52707550883E-01 -0.10244321842E+00 -0.15796242127E+00  0.19551170157E+00  0.00000000000E+00 0.  1.
<mgrwt>
<rscale>  1 0.63230561E+03</rscale>
<asrwt>0</asrwt>
<pdfrwt beam="1">  1        3 0.36359727E+00 0.63230561E+03</pdfrwt>
<pdfrwt beam="2">0</pdfrwt>
<totfact> 0.92456720E-02</totfact>
</mgrwt>
</event>
<event>
 6    1  0.8864941E-003  0.6427323E+03  0.7818608E-02  0.9820513E-01
          1   -1    0    0  502    0  0.00000000000E+00  0.00000000000E+00  0.10327717900E+03  0.10327717900E+03  0.00000000000E+00 0.  1.
         13   -1    0    0    0    0 -0.00000000000E+00 -0.00000000000E+00 -0.10000000000E+04  0.10000000000E+04  0.00000000000E+00 0.  1.
    9000005    2    1    2  501    0  0.14410984824E-02  0.22757549819E-02 -0.89671633109E+03  0.11032701523E+04  0.64273233189E+03 0.  0.
         13    1    3    3    0    0  0.18234388111E+03 -0.67576180812E+02 -0.91796208924E+01  0.19467947152E+03  0.00000000000E+00 0.  1.
          3    1    3    3  501    0 -0.18234244001E+03  0.67578456567E+02 -0.88753671020E+03  0.90859068076E+03  0.00000000000E+00 0.  1.
         21    1    1    2  502  501 -0.14410984825E-02 -0.22757549819E-02 -0.64899107281E-02  0.70267180698E-02  0.00000000000E+00 0.  1.
<mgrwt>
<rscale>  1 0.64273233E+03</rscale>
<asrwt>0</asrwt>
<pdfrwt beam="1">  1        1 0.37555417E+00 0.64273233E+03</pdfrwt>
<pdfrwt beam="2">0</pdfrwt>
<totfact> 0.17190002E+00</totfact>
</mgrwt>
</event>
<event>
 6    1  0.8864941E-003  0.6548658E+03  0.7818608E-02  0.9797691E-01
          1   -1    0    0  502    0  0.00000000000E+00  0.00000000000E+00  0.10721236007E+03  0.10721236007E+03  0.00000000000E+00 0.  1.
         13   -1    0    0    0    0 -0.00000000000E+00 -0.00000000000E+00 -0.10000000000E+04  0.10000000000E+04  0.00000000000E+00 0.  1.
    9000005    2    1    2  501    0  0.14751341141E-04  0.73197697930E-05 -0.89278768828E+03  0.11072123090E+04  0.65486581895E+03 0.  0.
         13    1    3    3    0    0  0.82741602802E+02  0.29967063484E+03 -0.27261952514E+03  0.41348526904E+03  0.00000000000E+00 0.  1.
          1    1    3    3  501    0 -0.82741588050E+02 -0.29967062752E+03 -0.62016816314E+03  0.69372703995E+03  0.00000000000E+00 0.  1.
         21    1    1    2  502  501 -0.14751341146E-04 -0.73197697584E-05  0.48354512045E-04  0.51081698583E-04  0.00000000000E+00 0.  1.
<mgrwt>
<rscale>  1 0.65486582E+03</rscale>
<asrwt>0</asrwt>
<pdfrwt beam="1">  1        1 0.38986395E+00 0.65486582E+03</pdfrwt>
<pdfrwt beam="2">0</pdfrwt>
<totfact> 0.14827905E+00</totfact>
</mgrwt>
</event>
<event>
 6    1  0.8864941E-003  0.6849304E+03  0.7818608E-02  0.9743356E-01
          1   -1    0    0  502    0  0.00000000000E+00  0.00000000000E+00  0.11728243024E+03  0.11728243024E+03  0.00000000000E+00 0.  1.
         13   -1    0    0    0    0 -0.00000000000E+00 -0.00000000000E+00 -0.10000000000E+04  0.10000000000E+04  0.00000000000E+00 0.  1.
    9000005    2    1    2  501    0  0.14638741277E-05  0.11297231595E-06 -0.88271757231E+03  0.11172824273E+04  0.68493044163E+03 0.  0.
         13    1    3    3    0    0 -0.34887890607E+02  0.24415032329E+03 -0.53770093661E+02  0.25242378701E+03  0.00000000000E+00 0.  1.
          1    1    3    3  501    0  0.34887892071E+02 -0.24415032318E+03 -0.82894747865E+03  0.86485864029E+03  0.00000000000E+00 0.  1.
         21    1    1    2  502  501 -0.14638741227E-05 -0.11297230792E-06  0.25490803193E-05  0.29416833045E-05  0.00000000000E+00 0. -1.
<mgrwt>
<rscale>  1 0.68493044E+03</rscale>
<asrwt>0</asrwt>
<pdfrwt beam="1">  1        1 0.42648246E+00 0.68493044E+03</pdfrwt>
<pdfrwt beam="2">0</pdfrwt>
<totfact> 0.10104011E+00</totfact>
</mgrwt>
</event>
<event>
 6    1  0.8864941E-003  0.6548456E+03  0.7818608E-02  0.9797729E-01
          1   -1    0    0  502    0  0.00000000000E+00  0.00000000000E+00  0.10780105477E+03  0.10780105477E+03  0.00000000000E+00 0.  1.
         13   -1    0    0    0    0 -0.00000000000E+00 -0.00000000000E+00 -0.10000000000E+04  0.10000000000E+04  0.00000000000E+00 0.  1.
    9000005    2    1    2  501    0 -0.80399564959E-01 -0.60001706669E-02 -0.89279127943E+03  0.11072032589E+04  0.65484561648E+03 0.  0.
         13    1    3    3    0    0  0.15393838265E+03 -0.26214139683E+03 -0.65192528438E+03  0.71932031390E+03  0.00000000000E+00 0.  1.
          3    1    3    3  501    0 -0.15401878222E+03  0.26213539665E+03 -0.24086599505E+03  0.38788294501E+03  0.00000000000E+00 0.  1.
         21    1    1    2  502  501  0.80399564959E-01  0.60001706670E-02  0.59233419807E+00  0.59779586340E+00  0.00000000000E+00 0.  1.
<mgrwt>
<rscale>  1 0.65484562E+03</rscale>
<asrwt>0</asrwt>
<pdfrwt beam="1">  1        1 0.39200466E+00 0.65484562E+03</pdfrwt>
<pdfrwt beam="2">0</pdfrwt>
<totfact> 0.14507192E+00</totfact>
</mgrwt>
</event>
<event>
 6    1  0.8864941E-003  0.6262311E+03  0.7818608E-02  0.9852431E-01
          1   -1    0    0  502    0  0.00000000000E+00  0.00000000000E+00  0.10065930271E+03  0.10065930271E+03  0.00000000000E+00 0.  1.
         13   -1    0    0    0    0 -0.00000000000E+00 -0.00000000000E+00 -0.10000000000E+04  0.10000000000E+04  0.00000000000E+00 0.  1.
    9000005    2    1    2  501    0  0.21824701634E+01 -0.26966624993E+01 -0.90063692029E+03  0.10969558774E+04  0.62622144620E+03 0.  0.
         13    1    3    3    0    0  0.41216063100E+01 -0.98668608984E+02  0.70340776876E+02  0.12124482228E+03  0.00000000000E+00 0.  1.
          3    1    3    3  501    0 -0.19391361466E+01  0.95971946485E+02 -0.97097769717E+03  0.97571105516E+03  0.00000000000E+00 0.  1.
         21    1    1    2  502  501 -0.21824701634E+01  0.26966624993E+01  0.12962230024E+01  0.37034252687E+01  0.00000000000E+00 0. -1.
<mgrwt>
<rscale>  1 0.62623106E+03</rscale>
<asrwt>0</asrwt>
<pdfrwt beam="1">  1        1 0.36603460E+00 0.62623106E+03</pdfrwt>
<pdfrwt beam="2">0</pdfrwt>
<totfact> 0.18984844E+00</totfact>
</mgrwt>
</event>
<event>
 6    1  0.8864941E-003  0.6475375E+03  0.7818608E-02  0.9811411E-01
          1   -1    0    0  502    0  0.00000000000E+00  0.00000000000E+00  0.10668632186E+03  0.10668632186E+03  0.00000000000E+00 0.  1.
         13   -1    0    0    0    0 -0.00000000000E+00 -0.00000000000E+00 -0.10000000000E+04  0.10000000000E+04  0.00000000000E+00 0.  1.
    9000005    2    1    2  501    0  0.23790362297E+00 -0.99779499802E-01 -0.89516391839E+03  0.11048181829E+04  0.64753741977E+03 0.  0.
         13    1    3    3    0    0 -0.22454255426E+03 -0.22661546396E+03 -0.35373140791E+03  0.47634004254E+03  0.00000000000E+00 0.  1.
          1    1    3    3  501    0  0.22478045789E+03  0.22651568446E+03 -0.54143251047E+03  0.62847814039E+03  0.00000000000E+00 0.  1.
         21    1    1    2  502  501 -0.23790362297E+00  0.99779499802E-01  0.18502402516E+01  0.18681389324E+01  0.00000000000E+00 0.  1.
<mgrwt>
<rscale>  1 0.64753747E+03</rscale>
<asrwt>0</asrwt>
<pdfrwt beam="1">  1        1 0.38795108E+00 0.64753747E+03</pdfrwt>
<pdfrwt beam="2">0</pdfrwt>
<totfact> 0.15140803E+00</totfact>
</mgrwt>
</event>
<event>
 6    1  0.8864941E-003  0.6498971E+03  0.7818608E-02  0.9806972E-01
          1   -1    0    0  502    0  0.00000000000E+00  0.00000000000E+00  0.10559713764E+03  0.10559713764E+03  0.00000000000E+00 0.  1.
         13   -1    0    0    0    0 -0.00000000000E+00 -0.00000000000E+00 -0.10000000000E+04  0.10000000000E+04  0.00000000000E+00 0.  1.
    9000005    2    1    2  501    0 -0.19037654559E-02 -0.16171385601E-02 -0.89440812243E+03  0.11055913146E+04  0.64989711913E+03 0.  0.
         13    1    3    3    0    0  0.12171019244E+03  0.22274298271E+03 -0.10205557338E+03  0.27357475641E+03  0.00000000000E+00 0.  1.
          3    1    3    3  501    0 -0.12171209620E+03 -0.22274459985E+03 -0.79235254904E+03  0.83201655819E+03  0.00000000000E+00 0.  1.
         21    1    1    2  502  501  0.19037654559E-02  0.16171385600E-02  0.52600645755E-02  0.58230352370E-02  0.00000000000E+00 0.  1.
<mgrwt>
<rscale>  1 0.64989712E+03</rscale>
<asrwt>0</asrwt>
<pdfrwt beam="1">  1        1 0.38399040E+00 0.64989712E+03</pdfrwt>
<pdfrwt beam="2">0</pdfrwt>
<totfact> 0.15757417E+00</totfact>
</mgrwt>
</event>
<event>
 6    1  0.8864941E-003  0.6491820E+03  0.7818608E-02  0.9808315E-01
          3   -1    0    0  502    0  0.00000000000E+00  0.00000000000E+00  0.10549921671E+03  0.10549921671E+03  0.00000000000E+00 0.  1.
         13   -1    0    0    0    0 -0.00000000000E+00 -0.00000000000E+00 -0.10000000000E+04  0.10000000000E+04  0.00000000000E+00 0.  1.
    9000005    2    1    2  501    0  0.73484407357E-02 -0.24324121158E-03 -0.89464058735E+03  0.11053592194E+04  0.64918196480E+03 0.  0.
         13    1    3    3    0    0 -0.28305789343E+03  0.89667766368E+02 -0.67059060456E+03  0.73338519093E+03  0.00000000000E+00 0.  1.
          1    1    3    3  501    0  0.28306524187E+03 -0.89668009609E+02 -0.22404998279E+03  0.37197402851E+03  0.00000000000E+00 0.  1.
         21    1    1    2  502  501 -0.73484407357E-02  0.24324121157E-03  0.13980406044E+00  0.13999726448E+00  0.00000000000E+00 0.  1.
<mgrwt>
<rscale>  1 0.64918196E+03</rscale>
<asrwt>0</asrwt>
<pdfrwt beam="1">  1        3 0.38363432E+00 0.64918196E+03</pdfrwt>
<pdfrwt beam="2">0</pdfrwt>
<totfact> 0.72227330E-02</totfact>
</mgrwt>
</event>
