<event>
 6    1  0.2236758E-003  0.6541626E+03  0.7818608E-02  0.9799000E-01
          1   -1    0    0  502    0  0.00000000000E+00  0.00000000000E+00  0.10709681528E+03  0.10709681528E+03  0.00000000000E+00 0.  1.
         13   -1    0    0    0    0 -0.00000000000E+00 -0.00000000000E+00 -0.10000000000E+04  0.10000000000E+04  0.00000000000E+00 0.  1.
    9000005    2    1    2  501    0  0.15485168348E+00 -0.19524735984E+00 -0.89284178495E+03  0.11068401628E+04  0.65416254164E+03 0.  0.
         13    1    3    3    0    0  0.12141122049E+03  0.25849365747E+03 -0.17674377705E+03  0.33585416201E+03  0.00000000000E+00 0.  1.
          1    1    3    3  501    0 -0.12125636881E+03 -0.25868890483E+03 -0.71609800790E+03  0.77098600077E+03  0.00000000000E+00 0.  1.
         21    1    1    2  502  501 -0.15485168348E+00  0.19524735984E+00 -0.61399763638E-01  0.25665250121E+00  0.00000000000E+00 0.  1.
<mgrwt>
<rscale>  1 0.65416259E+03</rscale>
<asrwt>0</asrwt>
<pdfrwt beam="1">  1        1 0.38944379E+00 0.65416259E+03</pdfrwt>
<pdfrwt beam="2">0</pdfrwt>
<totfact> 0.14893591E+00</totfact>
</mgrwt>
</event>
<event>
 6    1  0.2236758E-003  0.6494404E+03  0.7818608E-02  0.9807830E-01
          1   -1    0    0  502    0  0.00000000000E+00  0.00000000000E+00  0.10545650665E+03  0.10545650665E+03  0.00000000000E+00 0.  1.
         13   -1    0    0    0    0 -0.00000000000E+00 -0.00000000000E+00 -0.10000000000E+04  0.10000000000E+04  0.00000000000E+00 0.  1.
    9000005    2    1    2  501    0 -0.32016875805E-02  0.83994061926E-02 -0.89455508718E+03  0.11054418363E+04  0.64944041255E+03 0.  0.
         13    1    3    3    0    0 -0.40560100396E+02  0.24819151050E+03 -0.97611418061E+02  0.26976311194E+03  0.00000000000E+00 0.  1.
          1    1    3    3  501    0  0.40556898709E+02 -0.24818311109E+03 -0.79694366912E+03  0.83567872440E+03  0.00000000000E+00 0.  1.
         21    1    1    2  502  501  0.32016875805E-02 -0.83994061926E-02  0.11593838839E-01  0.14670307658E-01  0.00000000000E+00 0. -1.
<mgrwt>
<rscale>  1 0.64944041E+03</rscale>
<asrwt>0</asrwt>
<pdfrwt beam="1">  1        1 0.38347901E+00 0.64944041E+03</pdfrwt>
<pdfrwt beam="2">0</pdfrwt>
<totfact> 0.15840984E+00</totfact>
</mgrwt>
</event>
<event>
 6    1  0.2236758E-003  0.6564447E+03  0.7818608E-02  0.9794761E-01
          1   -1    0    0  502    0  0.00000000000E+00  0.00000000000E+00  0.10773244961E+03  0.10773244961E+03  0.00000000000E+00 0.  1.
         13   -1    0    0    0    0 -0.00000000000E+00 -0.00000000000E+00 -0.10000000000E+04  0.10000000000E+04  0.00000000000E+00 0.  1.
    9000005    2    1    2  501    0  0.62302161069E-04 -0.21687702149E-03 -0.89227008081E+03  0.11077299091E+04  0.65644470789E+03 0.  0.
         13    1    3    3    0    0 -0.64128542143E+02 -0.22172726231E+02  0.95765302081E+02  0.11736734123E+03  0.00000000000E+00 0.  1.
          1    1    3    3  501    0  0.64128604445E+02  0.22172509354E+02 -0.98803538289E+03  0.99036256791E+03  0.00000000000E+00 0.  1.
         21    1    1    2  502  501 -0.62302161057E-04  0.21687702149E-03  0.25304222161E-02  0.25404633029E-02  0.00000000000E+00 0.  1.
<mgrwt>
<rscale>  1 0.65644471E+03</rscale>
<asrwt>0</asrwt>
<pdfrwt beam="1">  1        1 0.39175519E+00 0.65644471E+03</pdfrwt>
<pdfrwt beam="2">0</pdfrwt>
<totfact> 0.14539909E+00</totfact>
</mgrwt>
</event>
<event>
 6    1  0.2236758E-003  0.6525014E+03  0.7818608E-02  0.9802097E-01
          1   -1    0    0  502    0  0.00000000000E+00  0.00000000000E+00  0.10649885398E+03  0.10649885398E+03  0.00000000000E+00 0.  1.
         13   -1    0    0    0    0 -0.00000000000E+00 -0.00000000000E+00 -0.10000000000E+04  0.10000000000E+04  0.00000000000E+00 0.  1.
    9000005    2    1    2  501    0 -0.19715971486E-01 -0.56836996549E-02 -0.89355851683E+03  0.11064379242E+04  0.65250138448E+03 0.  0.
         13    1    3    3    0    0  0.88989769419E+02 -0.12809596353E+03  0.39121419639E+02  0.16080497632E+03  0.00000000000E+00 0.  1.
          3    1    3    3  501    0 -0.89009485391E+02  0.12809027983E+03 -0.93267993647E+03  0.94563294791E+03  0.00000000000E+00 0.  1.
         21    1    1    2  502  501  0.19715971486E-01  0.56836996549E-02  0.57370812731E-01  0.60929747471E-01  0.00000000000E+00 0. -1.
<mgrwt>
<rscale>  1 0.65250138E+03</rscale>
<asrwt>0</asrwt>
<pdfrwt beam="1">  1        1 0.38726938E+00 0.65250138E+03</pdfrwt>
<pdfrwt beam="2">0</pdfrwt>
<totfact> 0.15232376E+00</totfact>
</mgrwt>
</event>
<event>
 6    1  0.2236758E-003  0.6489499E+03  0.7818608E-02  0.9808752E-01
          1   -1    0    0  502    0  0.00000000000E+00  0.00000000000E+00  0.10611348780E+03  0.10611348780E+03  0.00000000000E+00 0.  1.
         13   -1    0    0    0    0 -0.00000000000E+00 -0.00000000000E+00 -0.10000000000E+04  0.10000000000E+04  0.00000000000E+00 0.  1.
    9000005    2    1    2  501    0 -0.47300656407E-01  0.22495636169E+00 -0.89469836550E+03  0.11052697174E+04  0.64894986718E+03 0.  0.
         13    1    3    3    0    0 -0.25959706210E+03  0.58277935054E+02 -0.76385491181E+03  0.80886419049E+03  0.00000000000E+00 0.  1.
          3    1    3    3  501    0  0.25954976145E+03 -0.58052978693E+02 -0.13084345369E+03  0.29640552690E+03  0.00000000000E+00 0.  1.
         21    1    1    2  502  501  0.47300656407E-01 -0.22495636169E+00  0.81185330654E+00  0.84377041196E+00  0.00000000000E+00 0. -1.
<mgrwt>
<rscale>  1 0.64894991E+03</rscale>
<asrwt>0</asrwt>
<pdfrwt beam="1">  1        1 0.38586804E+00 0.64894991E+03</pdfrwt>
<pdfrwt beam="2">0</pdfrwt>
<totfact> 0.15461671E+00</totfact>
</mgrwt>
</event>
<event>
 6    1  0.2236758E-003  0.6797039E+03  0.7818608E-02  0.9752585E-01
          1   -1    0    0  502    0  0.00000000000E+00  0.00000000000E+00  0.11550365800E+03  0.11550365800E+03  0.00000000000E+00 0.  1.
         13   -1    0    0    0    0 -0.00000000000E+00 -0.00000000000E+00 -0.10000000000E+04  0.10000000000E+04  0.00000000000E+00 0.  1.
    9000005    2    1    2  501    0  0.62192633936E-03 -0.17956693285E-02 -0.88450041115E+03  0.11154991670E+04  0.67970391657E+03 0.  0.
         13    1    3    3    0    0 -0.93363157481E+02  0.28979933078E+03 -0.19444865439E+03  0.36126252295E+03  0.00000000000E+00 0.  1.
          1    1    3    3  501    0  0.93363779407E+02 -0.28980112644E+03 -0.69005175676E+03  0.75423664403E+03  0.00000000000E+00 0.  1.
         21    1    1    2  502  501 -0.62192633935E-03  0.17956693285E-02  0.40691487999E-02  0.44910124320E-02  0.00000000000E+00 0.  1.
<mgrwt>
<rscale>  1 0.67970392E+03</rscale>
<asrwt>0</asrwt>
<pdfrwt beam="1">  1        1 0.42001419E+00 0.67970392E+03</pdfrwt>
<pdfrwt beam="2">0</pdfrwt>
<totfact> 0.10819111E+00</totfact>
</mgrwt>
</event>
<event>
 6    1  0.2236758E-003  0.6759076E+03  0.7818608E-02  0.9759344E-01
          1   -1    0    0  502    0  0.00000000000E+00  0.00000000000E+00  0.11421592490E+03  0.11421592490E+03  0.00000000000E+00 0.  1.
         13   -1    0    0    0    0 -0.00000000000E+00 -0.00000000000E+00 -0.10000000000E+04  0.10000000000E+04  0.00000000000E+00 0.  1.
    9000005    2    1    2  501    0 -0.47943099980E-03 -0.43720721123E-05 -0.88578721166E+03  0.11142127519E+04  0.67590759144E+03 0.  0.
         13    1    3    3    0    0  0.78830521829E+02 -0.31316305369E+03 -0.27864626039E+03  0.42653146168E+03  0.00000000000E+00 0.  1.
          1    1    3    3  501    0 -0.78831001260E+02  0.31316304932E+03 -0.60714095127E+03  0.68768129023E+03  0.00000000000E+00 0.  1.
         21    1    1    2  502  501  0.47943099981E-03  0.43720721019E-05  0.31365646207E-02  0.31729971350E-02  0.00000000000E+00 0.  1.
<mgrwt>
<rscale>  1 0.67590759E+03</rscale>
<asrwt>0</asrwt>
<pdfrwt beam="1">  1        1 0.41533151E+00 0.67590759E+03</pdfrwt>
<pdfrwt beam="2">0</pdfrwt>
<totfact> 0.11366143E+00</totfact>
</mgrwt>
</event>
<event>
 6    1  0.2236758E-003  0.6084382E+03  0.7818608E-02  0.9888053E-01
          1   -1    0    0  502    0  0.00000000000E+00  0.00000000000E+00  0.92549305707E+02  0.92549305707E+02  0.00000000000E+00 0.  1.
         13   -1    0    0    0    0 -0.00000000000E+00 -0.00000000000E+00 -0.10000000000E+04  0.10000000000E+04  0.00000000000E+00 0.  1.
    9000005    2    1    2  501    0  0.50530553324E-05  0.20260410849E-04 -0.90745073966E+03  0.10925492558E+04  0.60843819024E+03 0.  0.
         13    1    3    3    0    0  0.21953925661E+03  0.17175530783E+03 -0.23489105644E+03  0.36451499195E+03  0.00000000000E+00 0.  1.
          1    1    3    3  501    0 -0.21953925156E+03 -0.17175528757E+03 -0.67255968322E+03  0.72803426381E+03  0.00000000000E+00 0.  1.
         21    1    1    2  502  501 -0.50530553349E-05 -0.20260410840E-04  0.45370888678E-04  0.49945321653E-04  0.00000000000E+00 0.  1.
<mgrwt>
<rscale>  1 0.60843819E+03</rscale>
<asrwt>0</asrwt>
<pdfrwt beam="1">  1        1 0.33654364E+00 0.60843819E+03</pdfrwt>
<pdfrwt beam="2">0</pdfrwt>
<totfact> 0.25607155E+00</totfact>
</mgrwt>
</event>
<event>
 6    1  0.2236758E-003  0.6497909E+03  0.7818608E-02  0.9807172E-01
          1   -1    0    0  502    0  0.00000000000E+00  0.00000000000E+00  0.10570693294E+03  0.10570693294E+03  0.00000000000E+00 0.  1.
         13   -1    0    0    0    0 -0.00000000000E+00 -0.00000000000E+00 -0.10000000000E+04  0.10000000000E+04  0.00000000000E+00 0.  1.
    9000005    2    1    2  501    0 -0.16767546419E-01 -0.16153065286E-01 -0.89444193064E+03  0.11055562597E+04  0.64979094750E+03 0.  0.
         13    1    3    3    0    0  0.25298614862E+02  0.13836572509E+03  0.51064333210E+02  0.14964177198E+03  0.00000000000E+00 0.  1.
          3    1    3    3  501    0 -0.25315382408E+02 -0.13838187816E+03 -0.94550626385E+03  0.95591448768E+03  0.00000000000E+00 0.  1.
         21    1    1    2  502  501  0.16767546419E-01  0.16153065286E-01  0.14886357590E+00  0.15067327686E+00  0.00000000000E+00 0. -1.
<mgrwt>
<rscale>  1 0.64979095E+03</rscale>
<asrwt>0</asrwt>
<pdfrwt beam="1">  1        1 0.38438966E+00 0.64979095E+03</pdfrwt>
<pdfrwt beam="2">0</pdfrwt>
<totfact> 0.15693805E+00</totfact>
</mgrwt>
</event>
<event>
 6    1  0.2236758E-003  0.6467991E+03  0.7818608E-02  0.9812804E-01
          1   -1    0    0  502    0  0.00000000000E+00  0.00000000000E+00  0.11610816459E+03  0.11610816459E+03  0.00000000000E+00 0.  1.
         13   -1    0    0    0    0 -0.00000000000E+00 -0.00000000000E+00 -0.10000000000E+04  0.10000000000E+04  0.00000000000E+00 0.  1.
    9000005    2    1    2  501    0  0.31353322535E+01  0.43241326470E+01 -0.89472499378E+03  0.11040298472E+04  0.64677705628E+03 0.  0.
         13    1    3    3    0    0 -0.85563977331E+02 -0.27413204685E+03 -0.68953758107E+03  0.74694822379E+03  0.00000000000E+00 0.  1.
          1    1    3    3  501    0  0.88699309584E+02  0.27845617950E+03 -0.20518741271E+03  0.35708162338E+03  0.00000000000E+00 0.  1.
         21    1    1    2  502  501 -0.31353322535E+01 -0.43241326470E+01  0.10833158364E+02  0.12078317417E+02  0.00000000000E+00 0.  1.
<mgrwt>
<rscale>  1 0.64679911E+03</rscale>
<asrwt>0</asrwt>
<pdfrwt beam="1">  1        1 0.42221240E+00 0.64679911E+03</pdfrwt>
<pdfrwt beam="2">0</pdfrwt>
<totfact> 0.10642605E+00</totfact>
</mgrwt>
</event>
<event>
 6    1  0.2236758E-003  0.6990097E+03  0.7818608E-02  0.9718927E-01
          1   -1    0    0  502    0  0.00000000000E+00  0.00000000000E+00  0.13030346345E+03  0.13030346345E+03  0.00000000000E+00 0.  1.
         13   -1    0    0    0    0 -0.00000000000E+00 -0.00000000000E+00 -0.10000000000E+04  0.10000000000E+04  0.00000000000E+00 0.  1.
    9000005    2    1    2  501    0 -0.12279003359E+01 -0.18617295199E+01 -0.87767474796E+03  0.11220194045E+04  0.69900615662E+03 0.  0.
         13    1    3    3    0    0  0.69059411418E+02  0.32617542029E+03 -0.27468043106E+03  0.43198257640E+03  0.00000000000E+00 0.  1.
          3    1    3    3  501    0 -0.70287311753E+02 -0.32803714981E+03 -0.60299431691E+03  0.69003682806E+03  0.00000000000E+00 0.  1.
         21    1    1    2  502  501  0.12279003359E+01  0.18617295199E+01  0.79782114088E+01  0.82840589884E+01  0.00000000000E+00 0. -1.
<mgrwt>
<rscale>  1 0.69900971E+03</rscale>
<asrwt>0</asrwt>
<pdfrwt beam="1">  1        1 0.47383178E+00 0.69900971E+03</pdfrwt>
<pdfrwt beam="2">0</pdfrwt>
<totfact> 0.60927439E-01</totfact>
</mgrwt>
</event>
<event>
 6    1  0.2236758E-003  0.6524744E+03  0.7818608E-02  0.9802147E-01
          1   -1    0    0  502    0  0.00000000000E+00  0.00000000000E+00  0.10659535598E+03  0.10659535598E+03  0.00000000000E+00 0.  1.
         13   -1    0    0    0    0 -0.00000000000E+00 -0.00000000000E+00 -0.10000000000E+04  0.10000000000E+04  0.00000000000E+00 0.  1.
    9000005    2    1    2  501    0  0.29871045103E-01 -0.12952313454E-01 -0.89356750582E+03  0.11064292716E+04  0.65247440152E+03 0.  0.
         13    1    3    3    0    0  0.23291150098E+03  0.19585561865E+03 -0.64619935759E+03  0.71426941724E+03  0.00000000000E+00 0.  1.
          3    1    3    3  501    0 -0.23288162994E+03 -0.19586857096E+03 -0.24736814822E+03  0.39215985441E+03  0.00000000000E+00 0.  1.
         21    1    1    2  502  501 -0.29871045103E-01  0.12952313454E-01  0.16286179195E+00  0.16608433110E+00  0.00000000000E+00 0.  1.
<mgrwt>
<rscale>  1 0.65247440E+03</rscale>
<asrwt>0</asrwt>
<pdfrwt beam="1">  1        1 0.38762029E+00 0.65247440E+03</pdfrwt>
<pdfrwt beam="2">0</pdfrwt>
<totfact> 0.15178040E+00</totfact>
</mgrwt>
</event>
<event>
 6    1  0.2236758E-003  0.6517472E+03  0.7818608E-02  0.9803506E-01
          1   -1    0    0  502    0  0.00000000000E+00  0.00000000000E+00  0.11138220375E+03  0.11138220375E+03  0.00000000000E+00 0.  1.
         13   -1    0    0    0    0 -0.00000000000E+00 -0.00000000000E+00 -0.10000000000E+04  0.10000000000E+04  0.00000000000E+00 0.  1.
    9000005    2    1    2  501    0  0.10679777024E+01 -0.22342104436E+01 -0.89347752529E+03  0.11059279175E+04  0.65174253977E+03 0.  0.
         13    1    3    3    0    0 -0.10867897943E+03 -0.28715407252E+03 -0.63715886840E+03  0.70727647035E+03  0.00000000000E+00 0.  1.
          1    1    3    3  501    0  0.10974695713E+03  0.28491986208E+03 -0.25631865689E+03  0.39865144710E+03  0.00000000000E+00 0.  1.
         21    1    1    2  502  501 -0.10679777024E+01  0.22342104436E+01  0.48597290364E+01  0.54542862948E+01  0.00000000000E+00 0. -1.
<mgrwt>
<rscale>  1 0.65174724E+03</rscale>
<asrwt>0</asrwt>
<pdfrwt beam="1">  1        1 0.40502705E+00 0.65174724E+03</pdfrwt>
<pdfrwt beam="2">0</pdfrwt>
<totfact> 0.12700805E+00</totfact>
</mgrwt>
</event>
<event>
 6    1  0.2236758E-003  0.6481468E+03  0.7818608E-02  0.9810263E-01
          1   -1    0    0  502    0  0.00000000000E+00  0.00000000000E+00  0.10502359022E+03  0.10502359022E+03  0.00000000000E+00 0.  1.
         13   -1    0    0    0    0 -0.00000000000E+00 -0.00000000000E+00 -0.10000000000E+04  0.10000000000E+04  0.00000000000E+00 0.  1.
    9000005    2    1    2  501    0  0.14356383076E-04 -0.39947357607E-04 -0.89497638776E+03  0.11050235424E+04  0.64814681563E+03 0.  0.
         13    1    3    3    0    0  0.20275039115E+03 -0.41165124064E+02 -0.87276103952E+03  0.89694711140E+03  0.00000000000E+00 0.  1.
          3    1    3    3  501    0 -0.20275037679E+03  0.41165084117E+02 -0.22215348242E+02  0.20807643100E+03  0.00000000000E+00 0.  1.
         21    1    1    2  502  501 -0.14356383073E-04  0.39947357610E-04 -0.22013494283E-04  0.47817267232E-04  0.00000000000E+00 0. -1.
<mgrwt>
<rscale>  1 0.64814682E+03</rscale>
<asrwt>0</asrwt>
<pdfrwt beam="1">  1        1 0.38190477E+00 0.64814682E+03</pdfrwt>
<pdfrwt beam="2">0</pdfrwt>
<totfact> 0.16100555E+00</totfact>
</mgrwt>
</event>
<event>
 6    1  0.2236758E-003  0.6370562E+03  0.7818608E-02  0.9831375E-01
          3   -1    0    0  502    0  0.00000000000E+00  0.00000000000E+00  0.10147994428E+03  0.10147994428E+03  0.00000000000E+00 0.  1.
         13   -1    0    0    0    0 -0.00000000000E+00 -0.00000000000E+00 -0.10000000000E+04  0.10000000000E+04  0.00000000000E+00 0.  1.
    9000005    2    1    2  501    0 -0.32180465470E-02  0.25047992157E-02 -0.89853962206E+03  0.11014599575E+04  0.63705618713E+03 0.  0.
         13    1    3    3    0    0 -0.23204145364E+03  0.21584524663E+03 -0.39380953150E+03  0.50548823309E+03  0.00000000000E+00 0.  1.
          1    1    3    3  501    0  0.23203823559E+03 -0.21584274183E+03 -0.50473009056E+03  0.59597172441E+03  0.00000000000E+00 0.  1.
         21    1    1    2  502  501  0.32180465470E-02 -0.25047992157E-02  0.19566332863E-01  0.19986776238E-01  0.00000000000E+00 0.  1.
<mgrwt>
<rscale>  1 0.63705619E+03</rscale>
<asrwt>0</asrwt>
<pdfrwt beam="1">  1        3 0.36901876E+00 0.63705619E+03</pdfrwt>
<pdfrwt beam="2">0</pdfrwt>
<totfact> 0.86466855E-02</totfact>
</mgrwt>
</event>
<event>
 6    1  0.2236758E-003  0.6444290E+03  0.7818608E-02  0.9817289E-01
          1   -1    0    0  502    0  0.00000000000E+00  0.00000000000E+00  0.11464793664E+03  0.11464793664E+03  0.00000000000E+00 0.  1.
         13   -1    0    0    0    0 -0.00000000000E+00 -0.00000000000E+00 -0.10000000000E+04  0.10000000000E+04  0.00000000000E+00 0.  1.
    9000005    2    1    2  501    0 -0.13056645147E+01  0.22119012189E+01 -0.89600939568E+03  0.11036854552E+04  0.64442388972E+03 0.  0.
         13    1    3    3    0    0  0.21098039911E+02 -0.23082555162E+03 -0.82809374176E+03  0.85992139624E+03  0.00000000000E+00 0.  1.
          3    1    3    3  501    0 -0.22403704426E+02  0.23303745284E+03 -0.67915653916E+02  0.24376405897E+03  0.00000000000E+00 0.  1.
         21    1    1    2  502  501  0.13056645147E+01 -0.22119012189E+01  0.10657332322E+02  0.10962481427E+02  0.00000000000E+00 0.  1.
<mgrwt>
<rscale>  1 0.64442901E+03</rscale>
<asrwt>0</asrwt>
<pdfrwt beam="1">  1        1 0.41690247E+00 0.64442901E+03</pdfrwt>
<pdfrwt beam="2">0</pdfrwt>
<totfact> 0.11250969E+00</totfact>
</mgrwt>
</event>
<event>
 6    1  0.2236758E-003  0.6429537E+03  0.7818608E-02  0.9820092E-01
          1   -1    0    0  502    0  0.00000000000E+00  0.00000000000E+00  0.10334754901E+03  0.10334754901E+03  0.00000000000E+00 0.  1.
         13   -1    0    0    0    0 -0.00000000000E+00 -0.00000000000E+00 -0.10000000000E+04  0.10000000000E+04  0.00000000000E+00 0.  1.
    9000005    2    1    2  501    0 -0.10370543870E-03 -0.32869983841E-04 -0.89665262794E+03  0.11033473413E+04  0.64295366890E+03 0.  0.
         13    1    3    3    0    0 -0.19963834683E+03  0.86592654274E+02 -0.42255488365E+02  0.22167382253E+03  0.00000000000E+00 0.  1.
          1    1    3    3  501    0  0.19963824312E+03 -0.86592687144E+02 -0.85439713957E+03  0.88167351877E+03  0.00000000000E+00 0.  1.
         21    1    1    2  502  501  0.10370543871E-03  0.32869983847E-04  0.17695243815E-03  0.20771956870E-03  0.00000000000E+00 0. -1.
<mgrwt>
<rscale>  1 0.64295367E+03</rscale>
<asrwt>0</asrwt>
<pdfrwt beam="1">  1        1 0.37581006E+00 0.64295367E+03</pdfrwt>
<pdfrwt beam="2">0</pdfrwt>
<totfact> 0.17144768E+00</totfact>
</mgrwt>
</event>
<event>
 6    1  0.2236758E-003  0.6538911E+03  0.7818608E-02  0.9799505E-01
          1   -1    0    0  502    0  0.00000000000E+00  0.00000000000E+00  0.10689858710E+03  0.10689858710E+03  0.00000000000E+00 0.  1.
         13   -1    0    0    0    0 -0.00000000000E+00 -0.00000000000E+00 -0.10000000000E+04  0.10000000000E+04  0.00000000000E+00 0.  1.
    9000005    2    1    2  501    0 -0.98045919623E-03  0.30318768466E-04 -0.89310655997E+03  0.11068933474E+04  0.65389108806E+03 0.  0.
         13    1    3    3    0    0 -0.26344231448E+03  0.17967069927E+03 -0.56874200993E+03  0.65203595537E+03  0.00000000000E+00 0.  1.
          1    1    3    3  501    0  0.26344133402E+03 -0.17967066895E+03 -0.32436455004E+03  0.45485739202E+03  0.00000000000E+00 0.  1.
         21    1    1    2  502  501  0.98045919622E-03 -0.30318768462E-04  0.51470722504E-02  0.52397110812E-02  0.00000000000E+00 0.  1.
<mgrwt>
<rscale>  1 0.65389109E+03</rscale>
<asrwt>0</asrwt>
<pdfrwt beam="1">  1        1 0.38872295E+00 0.65389109E+03</pdfrwt>
<pdfrwt beam="2">0</pdfrwt>
<totfact> 0.15004324E+00</totfact>
</mgrwt>
</event>
<event>
 6    1  0.2236758E-003  0.6527217E+03  0.7818608E-02  0.9801686E-01
          1   -1    0    0  502    0  0.00000000000E+00  0.00000000000E+00  0.12636019489E+03  0.12636019489E+03  0.00000000000E+00 0.  1.
         13   -1    0    0    0    0 -0.00000000000E+00 -0.00000000000E+00 -0.10000000000E+04  0.10000000000E+04  0.00000000000E+00 0.  1.
    9000005    2    1    2  501    0 -0.24189684902E+01 -0.12142450986E+01 -0.89338645423E+03  0.11064289142E+04  0.65271606361E+03 0.  0.
         13    1    3    3    0    0  0.10255433357E+02  0.16826265616E+03 -0.91919966943E+03  0.93452957559E+03  0.00000000000E+00 0.  1.
          3    1    3    3  501    0 -0.12674401847E+02 -0.16947690126E+03  0.25813215202E+02  0.17189933857E+03  0.00000000000E+00 0.  1.
         21    1    1    2  502  501  0.24189684902E+01  0.12142450986E+01  0.19746649124E+02  0.19931280725E+02  0.00000000000E+00 0. -1.
<mgrwt>
<rscale>  1 0.65272168E+03</rscale>
<asrwt>0</asrwt>
<pdfrwt beam="1">  1        1 0.45949259E+00 0.65272168E+03</pdfrwt>
<pdfrwt beam="2">0</pdfrwt>
<totfact> 0.71772507E-01</totfact>
</mgrwt>
</event>
<event>
 6    1  0.2236758E-003  0.4955616E+03  0.7818608E-02  0.1014944E+00
          1   -1    0    0  502    0  0.00000000000E+00  0.00000000000E+00  0.63928319066E+02  0.63928319066E+02  0.00000000000E+00 0.  1.
         13   -1    0    0    0    0 -0.00000000000E+00 -0.00000000000E+00 -0.10000000000E+04  0.10000000000E+04  0.00000000000E+00 0.  1.
    9000005    2    1    2  501    0 -0.10294066159E+01  0.39478063753E+00 -0.93847697789E+03  0.10612823820E+04  0.49556033002E+03 0.  0.
         13    1    3    3    0    0 -0.15189736740E+03 -0.19587666902E+03 -0.48189408266E+03  0.54190625259E+03  0.00000000000E+00 0.  1.
          3    1    3    3  501    0  0.15086796078E+03  0.19627144966E+03 -0.45658289523E+03  0.51937612937E+03  0.00000000000E+00 0.  1.
         21    1    1    2  502  501  0.10294066159E+01 -0.39478063753E+00  0.24052969566E+01  0.26459371085E+01  0.00000000000E+00 0.  1.
<mgrwt>
<rscale>  1 0.49556156E+03</rscale>
<asrwt>0</asrwt>
<pdfrwt beam="1">  1        1 0.23246710E+00 0.49556156E+03</pdfrwt>
<pdfrwt beam="2">0</pdfrwt>
<totfact> 0.73725354E+00</totfact>
</mgrwt>
</event>
<event>
 6    1  0.2236758E-003  0.6356837E+03  0.7818608E-02  0.9834020E-01
          1   -1    0    0  502    0  0.00000000000E+00  0.00000000000E+00  0.10111441403E+03  0.10111441403E+03  0.00000000000E+00 0.  1.
         13   -1    0    0    0    0 -0.00000000000E+00 -0.00000000000E+00 -0.10000000000E+04  0.10000000000E+04  0.00000000000E+00 0.  1.
    9000005    2    1    2  501    0 -0.15484081686E-03  0.18239029636E-02 -0.89897654160E+03  0.11010234400E+04  0.63568372093E+03 0.  0.
         13    1    3    3    0    0  0.23621269659E+03  0.17731109713E+03 -0.65286844135E+03  0.71657020933E+03  0.00000000000E+00 0.  1.
          3    1    3    3  501    0 -0.23621285143E+03 -0.17730927322E+03 -0.24610810025E+03  0.38445323065E+03  0.00000000000E+00 0.  1.
         21    1    1    2  502  501  0.15484081686E-03 -0.18239029636E-02  0.90955628875E-01  0.90974045868E-01  0.00000000000E+00 0.  1.
<mgrwt>
<rscale>  1 0.63568372E+03</rscale>
<asrwt>0</asrwt>
<pdfrwt beam="1">  1        1 0.36768955E+00 0.63568372E+03</pdfrwt>
<pdfrwt beam="2">0</pdfrwt>
<totfact> 0.18638023E+00</totfact>
</mgrwt>
</event>
<event>
 6    1  0.2236758E-003  0.6372326E+03  0.7818608E-02  0.9831036E-01
          1   -1    0    0  502    0  0.00000000000E+00  0.00000000000E+00  0.10730152561E+03  0.10730152561E+03  0.00000000000E+00 0.  1.
         13   -1    0    0    0    0 -0.00000000000E+00 -0.00000000000E+00 -0.10000000000E+04  0.10000000000E+04  0.00000000000E+00 0.  1.
    9000005    2    1    2  501    0  0.36895065690E+00 -0.25708144144E+00 -0.89847401507E+03  0.11015085052E+04  0.63723247643E+03 0.  0.
         13    1    3    3    0    0  0.17357065772E+03  0.21130093469E+03 -0.73198106262E+03  0.78139051329E+03  0.00000000000E+00 0.  1.
          1    1    3    3  501    0 -0.17320170706E+03 -0.21155801613E+03 -0.16649295245E+03  0.32011799189E+03  0.00000000000E+00 0.  1.
         21    1    1    2  502  501 -0.36895065690E+00  0.25708144144E+00  0.57755406818E+01  0.57930204230E+01  0.00000000000E+00 0. -1.
<mgrwt>
<rscale>  1 0.63723264E+03</rscale>
<asrwt>0</asrwt>
<pdfrwt beam="1">  1        1 0.39018819E+00 0.63723264E+03</pdfrwt>
<pdfrwt beam="2">0</pdfrwt>
<totfact> 0.14827884E+00</totfact>
</mgrwt>
</event>
<event>
 6    1  0.2236758E-003  0.6517872E+03  0.7818608E-02  0.9803431E-01
          1   -1    0    0  502    0  0.00000000000E+00  0.00000000000E+00  0.10621989766E+03  0.10621989766E+03  0.00000000000E+00 0.  1.
         13   -1    0    0    0    0 -0.00000000000E+00 -0.00000000000E+00 -0.10000000000E+04  0.10000000000E+04  0.00000000000E+00 0.  1.
    9000005    2    1    2  501    0  0.88720576670E-02  0.70908349141E-02 -0.89379061654E+03  0.11062044205E+04  0.65178719965E+03 0.  0.
         13    1    3    3    0    0 -0.31933039847E+03 -0.95034096821E+01 -0.55611103065E+03  0.64134366497E+03  0.00000000000E+00 0.  1.
          1    1    3    3  501    0  0.31933927053E+03  0.95105005171E+01 -0.33767958590E+03  0.46486075555E+03  0.00000000000E+00 0.  1.
         21    1    1    2  502  501 -0.88720576671E-02 -0.70908349141E-02  0.10514204305E-01  0.15477139245E-01  0.00000000000E+00 0.  1.
<mgrwt>
<rscale>  1 0.65178720E+03</rscale>
<asrwt>0</asrwt>
<pdfrwt beam="1">  1        1 0.38625499E+00 0.65178720E+03</pdfrwt>
<pdfrwt beam="2">0</pdfrwt>
<totfact> 0.15392741E+00</totfact>
</mgrwt>
</event>
<event>
 6    1  0.2236758E-003  0.6470579E+03  0.7818608E-02  0.9812316E-01
          1   -1    0    0  502    0  0.00000000000E+00  0.00000000000E+00  0.10470245784E+03  0.10470245784E+03  0.00000000000E+00 0.  1.
         13   -1    0    0    0    0 -0.00000000000E+00 -0.00000000000E+00 -0.10000000000E+04  0.10000000000E+04  0.00000000000E+00 0.  1.
    9000005    2    1    2  501    0 -0.20535396305E-01  0.22260802985E-03 -0.89532528881E+03  0.11046679379E+04  0.64705786428E+03 0.  0.
         13    1    3    3    0    0  0.31286134117E+03  0.55944687585E+01 -0.58792176193E+03  0.66600714338E+03  0.00000000000E+00 0.  1.
          3    1    3    3  501    0 -0.31288187657E+03 -0.55942461504E+01 -0.30740352689E+03  0.43866079449E+03  0.00000000000E+00 0.  1.
         21    1    1    2  502  501  0.20535396305E-01 -0.22260802985E-03  0.27746651482E-01  0.34519975727E-01  0.00000000000E+00 0. -1.
<mgrwt>
<rscale>  1 0.64705786E+03</rscale>
<asrwt>0</asrwt>
<pdfrwt beam="1">  1        1 0.38073701E+00 0.64705786E+03</pdfrwt>
<pdfrwt beam="2">0</pdfrwt>
<totfact> 0.16296098E+00</totfact>
</mgrwt>
</event>
<event>
 6    1  0.2236758E-003  0.6581505E+03  0.7818608E-02  0.9791604E-01
          1   -1    0    0  502    0  0.00000000000E+00  0.00000000000E+00  0.12820237330E+03  0.12820237330E+03  0.00000000000E+00 0.  1.
         13   -1    0    0    0    0 -0.00000000000E+00 -0.00000000000E+00 -0.10000000000E+04  0.10000000000E+04  0.00000000000E+00 0.  1.
    9000005    2    1    2  501    0 -0.83013774872E+00 -0.40392418344E+00 -0.89169761795E+03  0.11082809794E+04  0.65814985765E+03 0.  0.
         13    1    3    3    0    0 -0.15740016408E+03 -0.16285172356E+03 -0.84895916859E+03  0.87865076421E+03  0.00000000000E+00 0.  1.
          3    1    3    3  501    0  0.15657002634E+03  0.16244779938E+03 -0.42738449369E+02  0.22963021518E+03  0.00000000000E+00 0.  1.
         21    1    1    2  502  501  0.83013774872E+00  0.40392418344E+00  0.19899991256E+02  0.19921393912E+02  0.00000000000E+00 0. -1.
<mgrwt>
<rscale>  1 0.65815051E+03</rscale>
<asrwt>0</asrwt>
<pdfrwt beam="1">  1        1 0.46619143E+00 0.65815051E+03</pdfrwt>
<pdfrwt beam="2">0</pdfrwt>
<totfact> 0.66725704E-01</totfact>
</mgrwt>
</event>
<event>
 6    1  0.2912326E-003  0.6135371E+03  0.7818608E-02  0.9877712E-01
          1   -1    0    0  502    0  0.00000000000E+00  0.00000000000E+00  0.94106950591E+02  0.94106950591E+02  0.00000000000E+00 0.  1.
         13   -1    0    0    0    0 -0.00000000000E+00 -0.00000000000E+00 -0.10000000000E+04  0.10000000000E+04  0.00000000000E+00 0.  1.
    9000005    2    1    2  501    0 -0.20400562590E-04 -0.17593640152E-04 -0.90589305899E+03  0.10941069220E+04  0.61353705874E+03 0.  0.
         13    1    3    3    0    0  0.10162508308E+03 -0.91391691677E+02 -0.94270493278E+03  0.95256112093E+03  0.00000000000E+00 0.  1.
          3    1    3    3  501    0 -0.10162510348E+03  0.91391674084E+02  0.36811873793E+02  0.14154580107E+03  0.00000000000E+00 0.  1.
         21    1    1    2  502  501  0.20400562593E-04  0.17593640161E-04  0.95763592267E-05  0.28590659039E-04  0.00000000000E+00 0. -1.
<mgrwt>
<rscale>  1 0.61353706E+03</rscale>
<asrwt>0</asrwt>
<pdfrwt beam="1">  1        1 0.34220781E+00 0.61353706E+03</pdfrwt>
<pdfrwt beam="2">0</pdfrwt>
<totfact> 0.24175280E+00</totfact>
</mgrwt>
</event>
<event>
 6    1  0.5033642E-003  0.6604487E+03  0.7818608E-02  0.9787368E-01
          1   -1    0    0  502    0  0.00000000000E+00  0.00000000000E+00  0.10904813262E+03  0.10904813262E+03  0.00000000000E+00 0.  1.
         13   -1    0    0    0    0 -0.00000000000E+00 -0.00000000000E+00 -0.10000000000E+04  0.10000000000E+04  0.00000000000E+00 0.  1.
    9000005    2    1    2  501    0 -0.41051392827E-05 -0.85668488268E-05 -0.89095186350E+03  0.11090481224E+04  0.66044872219E+03 0.  0.
         13    1    3    3    0    0  0.26258751461E+03 -0.46849888682E+02 -0.77239232146E+03  0.81715176874E+03  0.00000000000E+00 0.  1.
          1    1    3    3  501    0 -0.26258751872E+03  0.46849880115E+02 -0.11855954204E+03  0.29189635363E+03  0.00000000000E+00 0.  1.
         21    1    1    2  502  501  0.41051393289E-05  0.85668488268E-05 -0.38766294964E-05  0.10260181479E-04  0.00000000000E+00 0.  1.
<mgrwt>
<rscale>  1 0.66044872E+03</rscale>
<asrwt>0</asrwt>
<pdfrwt beam="1">  1        1 0.39653950E+00 0.66044872E+03</pdfrwt>
<pdfrwt beam="2">0</pdfrwt>
<totfact> 0.13834804E+00</totfact>
</mgrwt>
</event>
<event>
 6    1  0.2236758E-003  0.6704092E+03  0.7818608E-02  0.9769219E-01
          1   -1    0    0  502    0  0.00000000000E+00  0.00000000000E+00  0.11247669382E+03  0.11247669382E+03  0.00000000000E+00 0.  1.
         13   -1    0    0    0    0 -0.00000000000E+00 -0.00000000000E+00 -0.10000000000E+04  0.10000000000E+04  0.00000000000E+00 0.  1.
    9000005    2    1    2  501    0 -0.27328174778E+00 -0.19995053662E+00 -0.88714763011E+03  0.11119709314E+04  0.67040906913E+03 0.  0.
         13    1    3    3    0    0  0.17716231518E+03 -0.12398518196E+02 -0.91488829662E+03  0.93196609620E+03  0.00000000000E+00 0.  1.
          3    1    3    3  501    0 -0.17743559693E+03  0.12198567660E+02  0.27740666512E+02  0.18000483518E+03  0.00000000000E+00 0.  1.
         21    1    1    2  502  501  0.27328174778E+00  0.19995053662E+00 -0.37567607615E+00  0.50576243925E+00  0.00000000000E+00 0.  1.
<mgrwt>
<rscale>  1 0.67040915E+03</rscale>
<asrwt>0</asrwt>
<pdfrwt beam="1">  1        1 0.40900702E+00 0.67040915E+03</pdfrwt>
<pdfrwt beam="2">0</pdfrwt>
<totfact> 0.12147142E+00</totfact>
</mgrwt>
</event>
<event>
 6    1  0.2236758E-003  0.6512618E+03  0.7818608E-02  0.9804414E-01
          1   -1    0    0  502    0  0.00000000000E+00  0.00000000000E+00  0.10646969459E+03  0.10646969459E+03  0.00000000000E+00 0.  1.
         13   -1    0    0    0    0 -0.00000000000E+00 -0.00000000000E+00 -0.10000000000E+04  0.10000000000E+04  0.00000000000E+00 0.  1.
    9000005    2    1    2  501    0  0.77870653770E-02 -0.38774629331E-04 -0.89396448032E+03  0.11060354499E+04  0.65126179390E+03 0.  0.
         13    1    3    3    0    0 -0.12887194564E+03 -0.67094235853E+02 -0.94189542923E+03  0.95303547388E+03  0.00000000000E+00 0.  1.
          3    1    3    3  501    0  0.12887973271E+03  0.67094197079E+02  0.47930948913E+02  0.15299997597E+03  0.00000000000E+00 0.  1.
         21    1    1    2  502  501 -0.77870653770E-02  0.38774629337E-04  0.43417491040E+00  0.43424473826E+00  0.00000000000E+00 0. -1.
<mgrwt>
<rscale>  1 0.65126179E+03</rscale>
<asrwt>0</asrwt>
<pdfrwt beam="1">  1        1 0.38716334E+00 0.65126179E+03</pdfrwt>
<pdfrwt beam="2">0</pdfrwt>
<totfact> 0.15252353E+00</totfact>
</mgrwt>
</event>
<event>
 6    1  0.2236758E-003  0.6062291E+03  0.7818608E-02  0.9892566E-01
          1   -1    0    0  502    0  0.00000000000E+00  0.00000000000E+00  0.91880258300E+02  0.91880258300E+02  0.00000000000E+00 0.  1.
         13   -1    0    0    0    0 -0.00000000000E+00 -0.00000000000E+00 -0.10000000000E+04  0.10000000000E+04  0.00000000000E+00 0.  1.
    9000005    2    1    2  501    0 -0.14900468759E-03 -0.28861901999E-02 -0.90810121258E+03  0.10918615051E+04  0.60622911026E+03 0.  0.
         13    1    3    3    0    0 -0.15158232366E+03  0.26248774873E+03 -0.45256419076E+03  0.54469382761E+03  0.00000000000E+00 0.  1.
          1    1    3    3  501    0  0.15158217466E+03 -0.26249063492E+03 -0.45553702182E+03  0.54716767754E+03  0.00000000000E+00 0.  1.
         21    1    1    2  502  501  0.14900468759E-03  0.28861901999E-02 -0.18529124516E-01  0.18753153110E-01  0.00000000000E+00 0. -1.
<mgrwt>
<rscale>  1 0.60622911E+03</rscale>
<asrwt>0</asrwt>
<pdfrwt beam="1">  1        1 0.33411073E+00 0.60622911E+03</pdfrwt>
<pdfrwt beam="2">0</pdfrwt>
<totfact> 0.26247269E+00</totfact>
</mgrwt>
</event>
<event>
 6    1  0.2236758E-003  0.6440970E+03  0.7818608E-02  0.9817919E-01
          1   -1    0    0  502    0  0.00000000000E+00  0.00000000000E+00  0.10371790033E+03  0.10371790033E+03  0.00000000000E+00 0.  1.
         13   -1    0    0    0    0 -0.00000000000E+00 -0.00000000000E+00 -0.10000000000E+04  0.10000000000E+04  0.00000000000E+00 0.  1.
    9000005    2    1    2  501    0 -0.29194346272E-02  0.65104468148E-02 -0.89627768133E+03  0.11037095080E+04  0.64409703928E+03 0.  0.
         13    1    3    3    0    0 -0.20083348142E+03 -0.62604156787E+02 -0.86599216125E+03  0.89117663292E+03  0.00000000000E+00 0.  1.
          3    1    3    3  501    0  0.20083056198E+03  0.62610667234E+02 -0.30285520079E+02  0.21253287512E+03  0.00000000000E+00 0.  1.
         21    1    1    2  502  501  0.29194346272E-02 -0.65104468148E-02 -0.44183373522E-02  0.83923013071E-02  0.00000000000E+00 0.  1.
<mgrwt>
<rscale>  1 0.64409704E+03</rscale>
<asrwt>0</asrwt>
<pdfrwt beam="1">  1        1 0.37715680E+00 0.64409704E+03</pdfrwt>
<pdfrwt beam="2">0</pdfrwt>
<totfact> 0.16908634E+00</totfact>
</mgrwt>
</event>
<event>
 6    1  0.2236758E-003  0.6509426E+03  0.7818608E-02  0.9805012E-01
          1   -1    0    0  502    0  0.00000000000E+00  0.00000000000E+00  0.10593171216E+03  0.10593171216E+03  0.00000000000E+00 0.  1.
         13   -1    0    0    0    0 -0.00000000000E+00 -0.00000000000E+00 -0.10000000000E+04  0.10000000000E+04  0.00000000000E+00 0.  1.
    9000005    2    1    2  501    0 -0.97885146687E-04  0.23939648486E-05 -0.89406840823E+03  0.11059315570E+04  0.65094261661E+03 0.  0.
         13    1    3    3    0    0  0.50666327152E+02 -0.31282929032E+03 -0.57305976306E+03  0.65484863413E+03  0.00000000000E+00 0.  1.
          3    1    3    3  501    0 -0.50666425037E+02  0.31282929271E+03 -0.32100864517E+03  0.45108292284E+03  0.00000000000E+00 0.  1.
         21    1    1    2  502  501  0.97885146686E-04 -0.23939648218E-05  0.12039579998E-03  0.15518499174E-03  0.00000000000E+00 0. -1.
<mgrwt>
<rscale>  1 0.65094262E+03</rscale>
<asrwt>0</asrwt>
<pdfrwt beam="1">  1        1 0.38520704E+00 0.65094262E+03</pdfrwt>
<pdfrwt beam="2">0</pdfrwt>
<totfact> 0.15560402E+00</totfact>
</mgrwt>
</event>
<event>
 6    1  0.2236758E-003  0.6504464E+03  0.7818608E-02  0.9805942E-01
          1   -1    0    0  502    0  0.00000000000E+00  0.00000000000E+00  0.10815564369E+03  0.10815564369E+03  0.00000000000E+00 0.  1.
         13   -1    0    0    0    0 -0.00000000000E+00 -0.00000000000E+00 -0.10000000000E+04  0.10000000000E+04  0.00000000000E+00 0.  1.
    9000005    2    1    2  501    0  0.24809420873E+01 -0.71032449752E-01 -0.89349425713E+03  0.11051753263E+04  0.65044166082E+03 0.  0.
         13    1    3    3    0    0 -0.42053561448E+02  0.15010741878E+02 -0.99358655014E+03  0.99458939117E+03  0.00000000000E+00 0.  1.
          1    1    3    3  501    0  0.44534503535E+02 -0.15081774328E+02  0.10009229300E+03  0.11058593510E+03  0.00000000000E+00 0.  1.
         21    1    1    2  502  501 -0.24809420873E+01  0.71032449752E-01  0.16499008269E+01  0.29803174307E+01  0.00000000000E+00 0. -1.
<mgrwt>
<rscale>  1 0.65044640E+03</rscale>
<asrwt>0</asrwt>
<pdfrwt beam="1">  1        1 0.39329408E+00 0.65044640E+03</pdfrwt>
<pdfrwt beam="2">0</pdfrwt>
<totfact> 0.14328969E+00</totfact>
</mgrwt>
</event>
<event>
 6    1  0.2236758E-003  0.6534687E+03  0.7818608E-02  0.9800292E-01
          1   -1    0    0  502    0  0.00000000000E+00  0.00000000000E+00  0.11148522436E+03  0.11148522436E+03  0.00000000000E+00 0.  1.
         13   -1    0    0    0    0 -0.00000000000E+00 -0.00000000000E+00 -0.10000000000E+04  0.10000000000E+04  0.00000000000E+00 0.  1.
    9000005    2    1    2  501    0  0.10928320193E-01  0.22056717163E+00 -0.89324182564E+03  0.11067530186E+04  0.65346861931E+03 0.  0.
         13    1    3    3    0    0 -0.19520691608E+02  0.31177838838E+03 -0.28398750138E+03  0.42217972690E+03  0.00000000000E+00 0.  1.
          3    1    3    3  501    0  0.19531619928E+02 -0.31155782121E+03 -0.60925432426E+03  0.68457329174E+03  0.00000000000E+00 0.  1.
         21    1    1    2  502  501 -0.10928320193E-01 -0.22056717163E+00  0.47270500017E+01  0.47322057251E+01  0.00000000000E+00 0. -1.
<mgrwt>
<rscale>  1 0.65346866E+03</rscale>
<asrwt>0</asrwt>
<pdfrwt beam="1">  1        1 0.40540167E+00 0.65346866E+03</pdfrwt>
<pdfrwt beam="2">0</pdfrwt>
<totfact> 0.12647750E+00</totfact>
</mgrwt>
</event>
<event>
 6    1  0.2236758E-003  0.6467267E+03  0.7818608E-02  0.9812941E-01
          1   -1    0    0  502    0  0.00000000000E+00  0.00000000000E+00  0.10456389825E+03  0.10456389825E+03  0.00000000000E+00 0.  1.
         13   -1    0    0    0    0 -0.00000000000E+00 -0.00000000000E+00 -0.10000000000E+04  0.10000000000E+04  0.00000000000E+00 0.  1.
    9000005    2    1    2  501    0  0.25158170672E-04  0.54123763505E-04 -0.89543613766E+03  0.11045638286E+04  0.64672666159E+03 0.  0.
         13    1    3    3    0    0 -0.15727202546E+03  0.25429684845E+03 -0.23741041557E+03  0.38179193620E+03  0.00000000000E+00 0.  1.
          1    1    3    3  501    0  0.15727205061E+03 -0.25429679433E+03 -0.65802572209E+03  0.72277189240E+03  0.00000000000E+00 0.  1.
         21    1    1    2  502  501 -0.25158170680E-04 -0.54123763509E-04  0.35913233133E-04  0.69656842036E-04  0.00000000000E+00 0.  1.
<mgrwt>
<rscale>  1 0.64672666E+03</rscale>
<asrwt>0</asrwt>
<pdfrwt beam="1">  1        1 0.38023316E+00 0.64672666E+03</pdfrwt>
<pdfrwt beam="2">0</pdfrwt>
<totfact> 0.16380749E+00</totfact>
</mgrwt>
</event>
<event>
 6    1  0.2236758E-003  0.6690925E+03  0.7818608E-02  0.9771599E-01
          1   -1    0    0  502    0  0.00000000000E+00  0.00000000000E+00  0.11228053545E+03  0.11228053545E+03  0.00000000000E+00 0.  1.
         13   -1    0    0    0    0 -0.00000000000E+00 -0.00000000000E+00 -0.10000000000E+04  0.10000000000E+04  0.00000000000E+00 0.  1.
    9000005    2    1    2  501    0 -0.13481660728E+00 -0.36833224420E-01 -0.88806361579E+03  0.11119090892E+04  0.66909253285E+03 0.  0.
         13    1    3    3    0    0  0.20074713237E+03 -0.26063404158E+03 -0.54472874844E+03  0.63636383002E+03  0.00000000000E+00 0.  1.
          3    1    3    3  501    0 -0.20088194898E+03  0.26059720836E+03 -0.34333486736E+03  0.47554525923E+03  0.00000000000E+00 0.  1.
         21    1    1    2  502  501  0.13481660728E+00  0.36833224420E-01  0.34415124268E+00  0.37144620318E+00  0.00000000000E+00 0.  1.
<mgrwt>
<rscale>  1 0.66909255E+03</rscale>
<asrwt>0</asrwt>
<pdfrwt beam="1">  1        1 0.40829372E+00 0.66909255E+03</pdfrwt>
<pdfrwt beam="2">0</pdfrwt>
<totfact> 0.12239933E+00</totfact>
</mgrwt>
</event>
<event>
 6    1  0.2236758E-003  0.6510916E+03  0.7818608E-02  0.9804733E-01
          1   -1    0    0  502    0  0.00000000000E+00  0.00000000000E+00  0.10598074152E+03  0.10598074152E+03  0.00000000000E+00 0.  1.
         13   -1    0    0    0    0 -0.00000000000E+00 -0.00000000000E+00 -0.10000000000E+04  0.10000000000E+04  0.00000000000E+00 0.  1.
    9000005    2    1    2  501    0  0.21128739246E-03  0.57442378676E-04 -0.89401991609E+03  0.11059800484E+04  0.65109158889E+03 0.  0.
         13    1    3    3    0    0  0.27984307819E+03  0.16119998171E+03 -0.37733313859E+03  0.49666676957E+03  0.00000000000E+00 0.  1.
          1    1    3    3  501    0 -0.27984286690E+03 -0.16119992427E+03 -0.51668677750E+03  0.60931327885E+03  0.00000000000E+00 0.  1.
         21    1    1    2  502  501 -0.21128739244E-03 -0.57442378679E-04  0.65761379239E-03  0.69310741521E-03  0.00000000000E+00 0.  1.
<mgrwt>
<rscale>  1 0.65109159E+03</rscale>
<asrwt>0</asrwt>
<pdfrwt beam="1">  1        1 0.38538533E+00 0.65109159E+03</pdfrwt>
<pdfrwt beam="2">0</pdfrwt>
<totfact> 0.15531741E+00</totfact>
</mgrwt>
</event>
<event>
 6    1  0.2236758E-003  0.6314371E+03  0.7818608E-02  0.9842248E-01
          1   -1    0    0  502    0  0.00000000000E+00  0.00000000000E+00  0.99678498432E+02  0.99678498432E+02  0.00000000000E+00 0.  1.
         13   -1    0    0    0    0 -0.00000000000E+00 -0.00000000000E+00 -0.10000000000E+04  0.10000000000E+04  0.00000000000E+00 0.  1.
    9000005    2    1    2  501    0  0.65561662041E-04 -0.21766143703E-04 -0.90032178810E+03  0.10996782037E+04  0.63143711448E+03 0.  0.
         13    1    3    3    0    0  0.21692013109E+03  0.17943922798E+03 -0.20126303596E+03  0.34606298481E+03  0.00000000000E+00 0.  1.
          3    1    3    3  501    0 -0.21692006553E+03 -0.17943924975E+03 -0.69905875214E+03  0.75361521888E+03  0.00000000000E+00 0.  1.
         21    1    1    2  502  501 -0.65561662042E-04  0.21766143703E-04  0.28653353489E-03  0.29474321563E-03  0.00000000000E+00 0.  1.
<mgrwt>
<rscale>  1 0.63143711E+03</rscale>
<asrwt>0</asrwt>
<pdfrwt beam="1">  1        1 0.36246803E+00 0.63143711E+03</pdfrwt>
<pdfrwt beam="2">0</pdfrwt>
<totfact> 0.19661550E+00</totfact>
</mgrwt>
</event>
<event>
 6    1  0.2236758E-003  0.6488628E+03  0.7818608E-02  0.9808915E-01
          1   -1    0    0  502    0  0.00000000000E+00  0.00000000000E+00  0.10527363732E+03  0.10527363732E+03  0.00000000000E+00 0.  1.
         13   -1    0    0    0    0 -0.00000000000E+00 -0.00000000000E+00 -0.10000000000E+04  0.10000000000E+04  0.00000000000E+00 0.  1.
    9000005    2    1    2  501    0  0.19378250209E-03  0.12617735450E-02 -0.89474425674E+03  0.11052556978E+04  0.64886275321E+03 0.  0.
         13    1    3    3    0    0 -0.15349568264E+03  0.33278356804E+02 -0.93092436502E+03  0.94408079475E+03  0.00000000000E+00 0.  1.
          1    1    3    3  501    0  0.15349587642E+03 -0.33277095030E+02  0.36180108284E+02  0.16117490303E+03  0.00000000000E+00 0.  1.
         21    1    1    2  502  501 -0.19378250210E-03 -0.12617735450E-02  0.17894055699E-01  0.17939533258E-01  0.00000000000E+00 0.  1.
<mgrwt>
<rscale>  1 0.64886275E+03</rscale>
<asrwt>0</asrwt>
<pdfrwt beam="1">  1        1 0.38281403E+00 0.64886275E+03</pdfrwt>
<pdfrwt beam="2">0</pdfrwt>
<totfact> 0.15950232E+00</totfact>
</mgrwt>
</event>
<event>
 6    1  0.2236758E-003  0.6245799E+03  0.7818608E-02  0.9855683E-01
          1   -1    0    0  502    0  0.00000000000E+00  0.00000000000E+00  0.97633989901E+02  0.97633989901E+02  0.00000000000E+00 0.  1.
         13   -1    0    0    0    0 -0.00000000000E+00 -0.00000000000E+00 -0.10000000000E+04  0.10000000000E+04  0.00000000000E+00 0.  1.
    9000005    2    1    2  501    0  0.26778393905E-01 -0.57228645030E-01 -0.90246484316E+03  0.10975166861E+04  0.62457992219E+03 0.  0.
         13    1    3    3    0    0 -0.52056269005E+02  0.30751170065E+03 -0.42438163817E+03  0.52666220293E+03  0.00000000000E+00 0.  1.
          3    1    3    3  501    0  0.52083047399E+02 -0.30756892930E+03 -0.47808320499E+03  0.57085448320E+03  0.00000000000E+00 0.  1.
         21    1    1    2  502  501 -0.26778393905E-01  0.57228645030E-01  0.98833063241E-01  0.11730377054E+00  0.00000000000E+00 0. -1.
<mgrwt>
<rscale>  1 0.62457993E+03</rscale>
<asrwt>0</asrwt>
<pdfrwt beam="1">  1        1 0.35503344E+00 0.62457993E+03</pdfrwt>
<pdfrwt beam="2">0</pdfrwt>
<totfact> 0.21215535E+00</totfact>
</mgrwt>
</event>
<event>
 6    1  0.2236758E-003  0.6494921E+03  0.7818608E-02  0.9807733E-01
          1   -1    0    0  502    0  0.00000000000E+00  0.00000000000E+00  0.10546210179E+03  0.10546210179E+03  0.00000000000E+00 0.  1.
         13   -1    0    0    0    0 -0.00000000000E+00 -0.00000000000E+00 -0.10000000000E+04  0.10000000000E+04  0.00000000000E+00 0.  1.
    9000005    2    1    2  501    0  0.13150158355E-03  0.41835741844E-03 -0.89453999040E+03  0.11054599641E+04  0.64949206144E+03 0.  0.
         13    1    3    3    0    0  0.25373594035E+03  0.10379240687E+03 -0.74356783804E+03  0.79249474504E+03  0.00000000000E+00 0.  1.
          1    1    3    3  501    0 -0.25373580885E+03 -0.10379198852E+03 -0.15097215236E+03  0.31296521909E+03  0.00000000000E+00 0.  1.
         21    1    1    2  502  501 -0.13150158355E-03 -0.41835741843E-03  0.20921875633E-02  0.21376539468E-02  0.00000000000E+00 0. -1.
<mgrwt>
<rscale>  1 0.64949206E+03</rscale>
<asrwt>0</asrwt>
<pdfrwt beam="1">  1        1 0.38349936E+00 0.64949206E+03</pdfrwt>
<pdfrwt beam="2">0</pdfrwt>
<totfact> 0.15837553E+00</totfact>
</mgrwt>
</event>
<event>
 6    1  0.2236758E-003  0.6498057E+03  0.7818608E-02  0.9807144E-01
          1   -1    0    0  502    0  0.00000000000E+00  0.00000000000E+00  0.12309571004E+03  0.12309571004E+03  0.00000000000E+00 0.  1.
         13   -1    0    0    0    0 -0.00000000000E+00 -0.00000000000E+00 -0.10000000000E+04  0.10000000000E+04  0.00000000000E+00 0.  1.
    9000005    2    1    2  501    0 -0.46600658693E+00  0.98643346768E+00 -0.89441936478E+03  0.11055466913E+04  0.64980481402E+03 0.  0.
         13    1    3    3    0    0  0.25729440866E+03  0.19594100911E+03 -0.50226710473E+03  0.59738223632E+03  0.00000000000E+00 0.  1.
          3    1    3    3  501    0 -0.25776041525E+03 -0.19495457564E+03 -0.39215226005E+03  0.50816445497E+03  0.00000000000E+00 0.  1.
         21    1    1    2  502  501  0.46600658693E+00 -0.98643346768E+00  0.17515074815E+02  0.17549018744E+02  0.00000000000E+00 0.  1.
<mgrwt>
<rscale>  1 0.64980573E+03</rscale>
<asrwt>0</asrwt>
<pdfrwt beam="1">  1        1 0.44762171E+00 0.64980573E+03</pdfrwt>
<pdfrwt beam="2">0</pdfrwt>
<totfact> 0.81478193E-01</totfact>
</mgrwt>
</event>
<event>
 6    1  0.2236758E-003  0.6469385E+03  0.7818608E-02  0.9812541E-01
          1   -1    0    0  502    0  0.00000000000E+00  0.00000000000E+00  0.10472229864E+03  0.10472229864E+03  0.00000000000E+00 0.  1.
         13   -1    0    0    0    0 -0.00000000000E+00 -0.00000000000E+00 -0.10000000000E+04  0.10000000000E+04  0.00000000000E+00 0.  1.
    9000005    2    1    2  501    0  0.71805570664E-02  0.17887330585E-01 -0.89536650759E+03  0.11046314248E+04  0.64693848338E+03 0.  0.
         13    1    3    3    0    0 -0.19553176309E+03 -0.86436925765E+02 -0.33194983434E+02  0.21634675740E+03  0.00000000000E+00 0.  1.
          1    1    3    3  501    0  0.19553894365E+03  0.86454813095E+02 -0.86217152415E+03  0.88828466735E+03  0.00000000000E+00 0.  1.
         21    1    1    2  502  501 -0.71805570664E-02 -0.17887330585E-01  0.88806225648E-01  0.90873883537E-01  0.00000000000E+00 0. -1.
<mgrwt>
<rscale>  1 0.64693848E+03</rscale>
<asrwt>0</asrwt>
<pdfrwt beam="1">  1        1 0.38080916E+00 0.64693848E+03</pdfrwt>
<pdfrwt beam="2">0</pdfrwt>
<totfact> 0.16284511E+00</totfact>
</mgrwt>
</event>
<event>
 6    1  0.2236758E-003  0.6479897E+03  0.7818608E-02  0.9810559E-01
          1   -1    0    0  502    0  0.00000000000E+00  0.00000000000E+00  0.10497524545E+03  0.10497524545E+03  0.00000000000E+00 0.  1.
         13   -1    0    0    0    0 -0.00000000000E+00 -0.00000000000E+00 -0.10000000000E+04  0.10000000000E+04  0.00000000000E+00 0.  1.
    9000005    2    1    2  501    0  0.20589920885E-03  0.17983329485E-03 -0.89502732481E+03  0.11049726607E+04  0.64798971343E+03 0.  0.
         13    1    3    3    0    0  0.15345251962E+03  0.24684123062E+03 -0.69163295352E+03  0.75022290775E+03  0.00000000000E+00 0.  1.
          3    1    3    3  501    0 -0.15345231372E+03 -0.24684105078E+03 -0.20339437129E+03  0.35474975294E+03  0.00000000000E+00 0.  1.
         21    1    1    2  502  501 -0.20589920884E-03 -0.17983329485E-03  0.25702639912E-02  0.25847613976E-02  0.00000000000E+00 0.  1.
<mgrwt>
<rscale>  1 0.64798971E+03</rscale>
<asrwt>0</asrwt>
<pdfrwt beam="1">  1        1 0.38172897E+00 0.64798971E+03</pdfrwt>
<pdfrwt beam="2">0</pdfrwt>
<totfact> 0.16129829E+00</totfact>
</mgrwt>
</event>
<event>
 6    1  0.2236758E-003  0.6428605E+03  0.7818608E-02  0.9820269E-01
          1   -1    0    0  502    0  0.00000000000E+00  0.00000000000E+00  0.10751382474E+03  0.10751382474E+03  0.00000000000E+00 0.  1.
         13   -1    0    0    0    0 -0.00000000000E+00 -0.00000000000E+00 -0.10000000000E+04  0.10000000000E+04  0.00000000000E+00 0.  1.
    9000005    2    1    2  501    0 -0.89433823115E+01 -0.12624059283E+01 -0.89044500397E+03  0.10982540118E+04  0.64279700646E+03 0.  0.
         13    1    3    3    0    0 -0.28051130799E+03  0.13957127455E+03 -0.59766743598E+03  0.67481338059E+03  0.00000000000E+00 0.  1.
          1    1    3    3  501    0  0.27156792568E+03 -0.14083368048E+03 -0.29277756800E+03  0.42344063118E+03  0.00000000000E+00 0.  1.
         21    1    1    2  502  501  0.89433823115E+01  0.12624059283E+01 -0.20411712881E+01  0.92598129638E+01  0.00000000000E+00 0. -1.
<mgrwt>
<rscale>  1 0.64286046E+03</rscale>
<asrwt>0</asrwt>
<pdfrwt beam="1">  1        1 0.39096019E+00 0.64286046E+03</pdfrwt>
<pdfrwt beam="2">0</pdfrwt>
<totfact> 0.14695810E+00</totfact>
</mgrwt>
</event>
<event>
 6    1  0.2236758E-003  0.6227391E+03  0.7818608E-02  0.9859321E-01
          1   -1    0    0  502    0  0.00000000000E+00  0.00000000000E+00  0.97262947784E+02  0.97262947784E+02  0.00000000000E+00 0.  1.
         13   -1    0    0    0    0 -0.00000000000E+00 -0.00000000000E+00 -0.10000000000E+04  0.10000000000E+04  0.00000000000E+00 0.  1.
    9000005    2    1    2  501    0 -0.89944632062E-02  0.41015230531E-02 -0.90304892379E+03  0.10969509196E+04  0.62273907948E+03 0.  0.
         13    1    3    3    0    0  0.13866976096E+03 -0.10179387982E+03 -0.90868851914E+03  0.92482761712E+03  0.00000000000E+00 0.  1.
          1    1    3    3  501    0 -0.13867875542E+03  0.10179798135E+03  0.56395953527E+01  0.17212330246E+03  0.00000000000E+00 0.  1.
         21    1    1    2  502  501  0.89944632062E-02 -0.41015230531E-02  0.31187157311E+00  0.31202820541E+00  0.00000000000E+00 0. -1.
<mgrwt>
<rscale>  1 0.62273908E+03</rscale>
<asrwt>0</asrwt>
<pdfrwt beam="1">  1        1 0.35368419E+00 0.62273908E+03</pdfrwt>
<pdfrwt beam="2">0</pdfrwt>
<totfact> 0.21512249E+00</totfact>
</mgrwt>
</event>
<event>
 6    1  0.2236758E-003  0.6531006E+03  0.7818608E-02  0.9800979E-01
          1   -1    0    0  502    0  0.00000000000E+00  0.00000000000E+00  0.10664033304E+03  0.10664033304E+03  0.00000000000E+00 0.  1.
         13   -1    0    0    0    0 -0.00000000000E+00 -0.00000000000E+00 -0.10000000000E+04  0.10000000000E+04  0.00000000000E+00 0.  1.
    9000005    2    1    2  501    0  0.73751289118E-02 -0.23371648487E-02 -0.89336154294E+03  0.11066323722E+04  0.65310057484E+03 0.  0.
         13    1    3    3    0    0 -0.20163332289E+03 -0.18036872398E+03 -0.13680115204E+03  0.30315578288E+03  0.00000000000E+00 0.  1.
          3    1    3    3  501    0  0.20164069802E+03  0.18036638682E+03 -0.75656039090E+03  0.80347658937E+03  0.00000000000E+00 0.  1.
         21    1    1    2  502  501 -0.73751289118E-02  0.23371648487E-02  0.18759755051E-02  0.79607882833E-02  0.00000000000E+00 0.  1.
<mgrwt>
<rscale>  1 0.65310057E+03</rscale>
<asrwt>0</asrwt>
<pdfrwt beam="1">  1        1 0.38778385E+00 0.65310057E+03</pdfrwt>
<pdfrwt beam="2">0</pdfrwt>
<totfact> 0.15150986E+00</totfact>
</mgrwt>
</event>
<event>
 6    1  0.2236758E-003  0.6367683E+03  0.7818608E-02  0.9831929E-01
          1   -1    0    0  502    0  0.00000000000E+00  0.00000000000E+00  0.10331822473E+03  0.10331822473E+03  0.00000000000E+00 0.  1.
         13   -1    0    0    0    0 -0.00000000000E+00 -0.00000000000E+00 -0.10000000000E+04  0.10000000000E+04  0.00000000000E+00 0.  1.
    9000005    2    1    2  501    0 -0.33371417091E+01  0.47233437614E+01 -0.88489958089E+03  0.10901931878E+04  0.63674207644E+03 0.  0.
         13    1    3    3    0    0 -0.37402458157E+02  0.31187122794E+03 -0.33372114747E+03  0.45829293139E+03  0.00000000000E+00 0.  1.
          3    1    3    3  501    0  0.34065316448E+02 -0.30714788418E+03 -0.55117843342E+03  0.63190025637E+03  0.00000000000E+00 0.  1.
         21    1    1    2  502  501  0.33371417091E+01 -0.47233437614E+01 -0.11782194378E+02  0.13125036969E+02  0.00000000000E+00 0.  1.
<mgrwt>
<rscale>  1 0.63676834E+03</rscale>
<asrwt>0</asrwt>
<pdfrwt beam="1">  1        1 0.37570343E+00 0.63676834E+03</pdfrwt>
<pdfrwt beam="2">0</pdfrwt>
<totfact> 0.17182838E+00</totfact>
</mgrwt>
</event>
<event>
 6    1  0.2236758E-003  0.6509419E+03  0.7818608E-02  0.9805013E-01
          1   -1    0    0  502    0  0.00000000000E+00  0.00000000000E+00  0.13468641410E+03  0.13468641410E+03  0.00000000000E+00 0.  1.
         13   -1    0    0    0    0 -0.00000000000E+00 -0.00000000000E+00 -0.10000000000E+04  0.10000000000E+04  0.00000000000E+00 0.  1.
    9000005    2    1    2  501    0 -0.31871614682E+02 -0.60138217637E+01 -0.88357464935E+03  0.10974650182E+04  0.65013332427E+03 0.  0.
         13    1    3    3    0    0  0.26784783070E+03  0.97405888951E+02 -0.21331527999E+03  0.35599687680E+03  0.00000000000E+00 0.  1.
          1    1    3    3  501    0 -0.29971944538E+03 -0.10341971071E+03 -0.67025936936E+03  0.74146814140E+03  0.00000000000E+00 0.  1.
         21    1    1    2  502  501  0.31871614682E+02  0.60138217637E+01  0.18261063453E+02  0.37221395904E+02  0.00000000000E+00 0.  1.
<mgrwt>
<rscale>  1 0.65094186E+03</rscale>
<asrwt>0</asrwt>
<pdfrwt beam="1">  1        1 0.48976981E+00 0.65094186E+03</pdfrwt>
<pdfrwt beam="2">0</pdfrwt>
<totfact> 0.51743046E-01</totfact>
</mgrwt>
</event>
<event>
 6    1  0.2236758E-003  0.6416925E+03  0.7818608E-02  0.9822494E-01
          3   -1    0    0  502    0  0.00000000000E+00  0.00000000000E+00  0.10584986841E+03  0.10584986841E+03  0.00000000000E+00 0.  1.
         13   -1    0    0    0    0 -0.00000000000E+00 -0.00000000000E+00 -0.10000000000E+04  0.10000000000E+04  0.00000000000E+00 0.  1.
    9000005    2    1    2  501    0  0.40222539145E-01 -0.37242188131E-02 -0.89705752226E+03  0.11029421971E+04  0.64169252010E+03 0.  0.
         13    1    3    3    0    0 -0.11467033630E+03  0.14469119414E+03 -0.89952646381E+03  0.91827702072E+03  0.00000000000E+00 0.  1.
          1    1    3    3  501    0  0.11471055884E+03 -0.14469491836E+03  0.24689415475E+01  0.18466517642E+03  0.00000000000E+00 0.  1.
         21    1    1    2  502  501 -0.40222539145E-01  0.37242188131E-02  0.29073906661E+01  0.29076712688E+01  0.00000000000E+00 0.  1.
<mgrwt>
<rscale>  1 0.64169252E+03</rscale>
<asrwt>0</asrwt>
<pdfrwt beam="1">  1        3 0.38490942E+00 0.64169252E+03</pdfrwt>
<pdfrwt beam="2">0</pdfrwt>
<totfact> 0.71206843E-02</totfact>
</mgrwt>
</event>
<event>
 6    1  0.2236758E-003  0.6473776E+03  0.7818608E-02  0.9811712E-01
          1   -1    0    0  502    0  0.00000000000E+00  0.00000000000E+00  0.10485447877E+03  0.10485447877E+03  0.00000000000E+00 0.  1.
         13   -1    0    0    0    0 -0.00000000000E+00 -0.00000000000E+00 -0.10000000000E+04  0.10000000000E+04  0.00000000000E+00 0.  1.
    9000005    2    1    2  501    0  0.99022770762E-01 -0.44809375637E-02 -0.89519015533E+03  0.11047457691E+04  0.64737762576E+03 0.  0.
         13    1    3    3    0    0  0.43069567386E+02 -0.26508428466E+03 -0.75598305082E+03  0.80226868239E+03  0.00000000000E+00 0.  1.
          3    1    3    3  501    0 -0.42970544615E+02  0.26507980372E+03 -0.13920710451E+03  0.30247708672E+03  0.00000000000E+00 0.  1.
         21    1    1    2  502  501 -0.99022770762E-01  0.44809375637E-02  0.44634108058E-01  0.10870966624E+00  0.00000000000E+00 0.  1.
<mgrwt>
<rscale>  1 0.64737763E+03</rscale>
<asrwt>0</asrwt>
<pdfrwt beam="1">  1        1 0.38128982E+00 0.64737763E+03</pdfrwt>
<pdfrwt beam="2">0</pdfrwt>
<totfact> 0.16203834E+00</totfact>
</mgrwt>
</event>
<event>
 6    1  0.2236758E-003  0.6511734E+03  0.7818608E-02  0.9804580E-01
          1   -1    0    0  502    0  0.00000000000E+00  0.00000000000E+00  0.10601681107E+03  0.10601681107E+03  0.00000000000E+00 0.  1.
         13   -1    0    0    0    0 -0.00000000000E+00 -0.00000000000E+00 -0.10000000000E+04  0.10000000000E+04  0.00000000000E+00 0.  1.
    9000005    2    1    2  501    0  0.23312685646E-01 -0.93089316834E-02 -0.89397156690E+03  0.11059891487E+04  0.65117342843E+03 0.  0.
         13    1    3    3    0    0 -0.11026985285E+03 -0.19465701265E+03 -0.45217191793E+02  0.22824414002E+03  0.00000000000E+00 0.  1.
          1    1    3    3  501    0  0.11029316553E+03  0.19464770372E+03 -0.84875437511E+03  0.87774500864E+03  0.00000000000E+00 0.  1.
         21    1    1    2  502  501 -0.23312685646E-01  0.93089316834E-02 -0.11622029305E-01  0.27662412879E-01  0.00000000000E+00 0. -1.
<mgrwt>
<rscale>  1 0.65117343E+03</rscale>
<asrwt>0</asrwt>
<pdfrwt beam="1">  1        1 0.38551649E+00 0.65117343E+03</pdfrwt>
<pdfrwt beam="2">0</pdfrwt>
<totfact> 0.15510767E+00</totfact>
</mgrwt>
</event>
<event>
 6    1  0.2236758E-003  0.6374909E+03  0.7818608E-02  0.9830539E-01
          1   -1    0    0  502    0  0.00000000000E+00  0.00000000000E+00  0.10159935313E+03  0.10159935313E+03  0.00000000000E+00 0.  1.
         13   -1    0    0    0    0 -0.00000000000E+00 -0.00000000000E+00 -0.10000000000E+04  0.10000000000E+04  0.00000000000E+00 0.  1.
    9000005    2    1    2  501    0 -0.80139630541E-04  0.18161950138E-04 -0.89840133685E+03  0.11015986583E+04  0.63749089551E+03 0.  0.
         13    1    3    3    0    0  0.26818294699E+03 -0.10073640798E+03 -0.69068347259E+03  0.74773897602E+03  0.00000000000E+00 0.  1.
          1    1    3    3  501    0 -0.26818302713E+03  0.10073642614E+03 -0.20771786426E+03  0.35385968225E+03  0.00000000000E+00 0.  1.
         21    1    1    2  502  501  0.80139630541E-04 -0.18161950138E-04  0.68998249604E-03  0.69485830329E-03  0.00000000000E+00 0.  1.
<mgrwt>
<rscale>  1 0.63749090E+03</rscale>
<asrwt>0</asrwt>
<pdfrwt beam="1">  1        1 0.36945297E+00 0.63749090E+03</pdfrwt>
<pdfrwt beam="2">0</pdfrwt>
<totfact> 0.18302790E+00</totfact>
</mgrwt>
</event>
<event>
 6    1  0.2236758E-003  0.6486561E+03  0.7818608E-02  0.9809304E-01
          1   -1    0    0  502    0  0.00000000000E+00  0.00000000000E+00  0.10749701229E+03  0.10749701229E+03  0.00000000000E+00 0.  1.
         13   -1    0    0    0    0 -0.00000000000E+00 -0.00000000000E+00 -0.10000000000E+04  0.10000000000E+04  0.00000000000E+00 0.  1.
    9000005    2    1    2  501    0 -0.46095000624E+01  0.17070302493E+01 -0.89145182803E+03  0.11024704449E+04  0.64863746324E+03 0.  0.
         13    1    3    3    0    0  0.91024889996E+02 -0.27964403206E+03 -0.67052800223E+03  0.73218448293E+03  0.00000000000E+00 0.  1.
          3    1    3    3  501    0 -0.95634390058E+02  0.28135106231E+03 -0.22092382580E+03  0.37028596196E+03  0.00000000000E+00 0.  1.
         21    1    1    2  502  501  0.46095000624E+01 -0.17070302493E+01 -0.10511596865E+01  0.50265673957E+01  0.00000000000E+00 0. -1.
<mgrwt>
<rscale>  1 0.64865609E+03</rscale>
<asrwt>0</asrwt>
<pdfrwt beam="1">  1        1 0.39089905E+00 0.64865609E+03</pdfrwt>
<pdfrwt beam="2">0</pdfrwt>
<totfact> 0.14688973E+00</totfact>
</mgrwt>
</event>
<event>
 6    1  0.2236758E-003  0.6530484E+03  0.7818608E-02  0.9801076E-01
          1   -1    0    0  502    0  0.00000000000E+00  0.00000000000E+00  0.10661807448E+03  0.10661807448E+03  0.00000000000E+00 0.  1.
         13   -1    0    0    0    0 -0.00000000000E+00 -0.00000000000E+00 -0.10000000000E+04  0.10000000000E+04  0.00000000000E+00 0.  1.
    9000005    2    1    2  501    0 -0.63496275970E-06 -0.60039034224E-05 -0.89338193073E+03  0.11066180665E+04  0.65304844458E+03 0.  0.
         13    1    3    3    0    0 -0.13816662218E+03 -0.26089297682E+03 -0.68309573485E+03  0.74416056320E+03  0.00000000000E+00 0.  1.
          1    1    3    3  501    0  0.13816662155E+03  0.26089297082E+03 -0.21028619587E+03  0.36245750331E+03  0.00000000000E+00 0.  1.
         21    1    1    2  502  501  0.63496276195E-06  0.60039034216E-05  0.52089724356E-05  0.79739217352E-05  0.00000000000E+00 0. -1.
<mgrwt>
<rscale>  1 0.65304844E+03</rscale>
<asrwt>0</asrwt>
<pdfrwt beam="1">  1        1 0.38770291E+00 0.65304844E+03</pdfrwt>
<pdfrwt beam="2">0</pdfrwt>
<totfact> 0.15163646E+00</totfact>
</mgrwt>
</event>
<event>
 6    1  0.2236758E-003  0.6601754E+03  0.7818608E-02  0.9787871E-01
          1   -1    0    0  502    0  0.00000000000E+00  0.00000000000E+00  0.10896378296E+03  0.10896378296E+03  0.00000000000E+00 0.  1.
         13   -1    0    0    0    0 -0.00000000000E+00 -0.00000000000E+00 -0.10000000000E+04  0.10000000000E+04  0.00000000000E+00 0.  1.
    9000005    2    1    2  501    0  0.33955022118E-04  0.22696022188E-03 -0.89104212173E+03  0.11089578738E+04  0.66017535790E+03 0.  0.
         13    1    3    3    0    0 -0.12639018852E+03 -0.29170949800E+03 -0.59471919394E+03  0.67435882927E+03  0.00000000000E+00 0.  1.
          3    1    3    3  501    0  0.12639022248E+03  0.29170972496E+03 -0.29632292779E+03  0.43459904453E+03  0.00000000000E+00 0.  1.
         21    1    1    2  502  501 -0.33955022125E-04 -0.22696022185E-03  0.59046974963E-02  0.59091553042E-02  0.00000000000E+00 0. -1.
<mgrwt>
<rscale>  1 0.66017536E+03</rscale>
<asrwt>0</asrwt>
<pdfrwt beam="1">  1        1 0.39623277E+00 0.66017536E+03</pdfrwt>
<pdfrwt beam="2">0</pdfrwt>
<totfact> 0.13879063E+00</totfact>
</mgrwt>
</event>
<event>
 6    1  0.2236758E-003  0.6680569E+03  0.7818608E-02  0.9773474E-01
          1   -1    0    0  502    0  0.00000000000E+00  0.00000000000E+00  0.11254764856E+03  0.11254764856E+03  0.00000000000E+00 0.  1.
         13   -1    0    0    0    0 -0.00000000000E+00 -0.00000000000E+00 -0.10000000000E+04  0.10000000000E+04  0.00000000000E+00 0.  1.
    9000005    2    1    2  501    0  0.29288049169E+00  0.86781811516E-01 -0.88839825372E+03  0.11115536459E+04  0.66805685185E+03 0.  0.
         13    1    3    3    0    0 -0.33531857390E+02 -0.15254249746E+03  0.47061570395E+02  0.16312078469E+03  0.00000000000E+00 0.  1.
          3    1    3    3  501    0  0.33824737882E+02  0.15262927927E+03 -0.93545982412E+03  0.94843286126E+03  0.00000000000E+00 0.  1.
         21    1    1    2  502  501 -0.29288049169E+00 -0.86781811516E-01  0.94590228328E+00  0.99400261304E+00  0.00000000000E+00 0.  1.
<mgrwt>
<rscale>  1 0.66805692E+03</rscale>
<asrwt>0</asrwt>
<pdfrwt beam="1">  1        1 0.40926504E+00 0.66805692E+03</pdfrwt>
<pdfrwt beam="2">0</pdfrwt>
<totfact> 0.12120212E+00</totfact>
</mgrwt>
</event>
<event>
 6    1  0.2236758E-003  0.6828671E+03  0.7818608E-02  0.9746989E-01
          1   -1    0    0  502    0  0.00000000000E+00  0.00000000000E+00  0.11657970557E+03  0.11657970557E+03  0.00000000000E+00 0.  1.
         13   -1    0    0    0    0 -0.00000000000E+00 -0.00000000000E+00 -0.10000000000E+04  0.10000000000E+04  0.00000000000E+00 0.  1.
    9000005    2    1    2  501    0 -0.43817409687E-03 -0.13790906838E-02 -0.88342293283E+03  0.11165766964E+04  0.68286707398E+03 0.  0.
         13    1    3    3    0    0 -0.29345412556E+03  0.92961458715E+02 -0.20017827905E+03  0.36719000533E+03  0.00000000000E+00 0.  1.
          1    1    3    3  501    0  0.29345368738E+03 -0.92962837805E+02 -0.68324465378E+03  0.74938669108E+03  0.00000000000E+00 0.  1.
         21    1    1    2  502  501  0.43817409690E-03  0.13790906838E-02  0.26383973927E-02  0.30091574328E-02  0.00000000000E+00 0. -1.
<mgrwt>
<rscale>  1 0.68286707E+03</rscale>
<asrwt>0</asrwt>
<pdfrwt beam="1">  1        1 0.42392710E+00 0.68286707E+03</pdfrwt>
<pdfrwt beam="2">0</pdfrwt>
<totfact> 0.10381057E+00</totfact>
</mgrwt>
</event>
<event>
 6    1  0.2236758E-003  0.6232887E+03  0.7818608E-02  0.9858234E-01
          1   -1    0    0  502    0  0.00000000000E+00  0.00000000000E+00  0.10001590232E+03  0.10001590232E+03  0.00000000000E+00 0.  1.
         13   -1    0    0    0    0 -0.00000000000E+00 -0.00000000000E+00 -0.10000000000E+04  0.10000000000E+04  0.00000000000E+00 0.  1.
    9000005    2    1    2  501    0 -0.12735185996E+00 -0.10606922711E+01 -0.90276924777E+03  0.10970328925E+04  0.62328782373E+03 0.  0.
         13    1    3    3    0    0 -0.11224942730E+02 -0.86061421445E+02 -0.97868604813E+03  0.98252681816E+03  0.00000000000E+00 0.  1.
          3    1    3    3  501    0  0.11097590870E+02  0.85000729174E+02  0.75916800358E+02  0.11450607434E+03  0.00000000000E+00 0.  1.
         21    1    1    2  502  501  0.12735185996E+00  0.10606922711E+01  0.27851500930E+01  0.29830098274E+01  0.00000000000E+00 0.  1.
<mgrwt>
<rscale>  1 0.62328874E+03</rscale>
<asrwt>0</asrwt>
<pdfrwt beam="1">  1        1 0.36369496E+00 0.62328874E+03</pdfrwt>
<pdfrwt beam="2">0</pdfrwt>
<totfact> 0.19448706E+00</totfact>
</mgrwt>
</event>
<event>
 6    1  0.2236758E-003  0.4637528E+03  0.7818608E-02  0.1023698E+00
          1   -1    0    0  502    0  0.00000000000E+00  0.00000000000E+00  0.53768511605E+02  0.53768511605E+02  0.00000000000E+00 0.  1.
         13   -1    0    0    0    0 -0.00000000000E+00 -0.00000000000E+00 -0.10000000000E+04  0.10000000000E+04  0.00000000000E+00 0.  1.
    9000005    2    1    2  501    0 -0.99071272587E-04  0.11724376451E-03 -0.94623334304E+03  0.10537666506E+04  0.46375275144E+03 0.  0.
         13    1    3    3    0    0  0.18034656682E+03  0.47358177197E+02 -0.78631742051E+03  0.80812298996E+03  0.00000000000E+00 0.  1.
          3    1    3    3  501    0 -0.18034666589E+03 -0.47358059953E+02 -0.15991592254E+03  0.24564366066E+03  0.00000000000E+00 0.  1.
         21    1    1    2  502  501  0.99071272573E-04 -0.11724376451E-03  0.18546479512E-02  0.18609890489E-02  0.00000000000E+00 0. -1.
<mgrwt>
<rscale>  1 0.46375275E+03</rscale>
<asrwt>0</asrwt>
<pdfrwt beam="1">  1        1 0.19552227E+00 0.46375275E+03</pdfrwt>
<pdfrwt beam="2">0</pdfrwt>
<totfact> 0.10835230E+01</totfact>
</mgrwt>
</event>
<event>
 6    1  0.2236758E-003  0.6434504E+03  0.7818608E-02  0.9819147E-01
          1   -1    0    0  502    0  0.00000000000E+00  0.00000000000E+00  0.10351272105E+03  0.10351272105E+03  0.00000000000E+00 0.  1.
         13   -1    0    0    0    0 -0.00000000000E+00 -0.00000000000E+00 -0.10000000000E+04  0.10000000000E+04  0.00000000000E+00 0.  1.
    9000005    2    1    2  501    0 -0.15110106552E-03 -0.19844969643E-03 -0.89649289938E+03  0.11035070951E+04  0.64345037903E+03 0.  0.
         13    1    3    3    0    0  0.20669922621E+02  0.25670615238E+03 -0.77893931354E+03  0.82040950052E+03  0.00000000000E+00 0.  1.
          1    1    3    3  501    0 -0.20670073722E+02 -0.25670635083E+03 -0.11755358584E+03  0.28309759457E+03  0.00000000000E+00 0.  1.
         21    1    1    2  502  501  0.15110106552E-03  0.19844969643E-03  0.56204242827E-02  0.56259561793E-02  0.00000000000E+00 0. -1.
<mgrwt>
<rscale>  1 0.64345038E+03</rscale>
<asrwt>0</asrwt>
<pdfrwt beam="1">  1        1 0.37641069E+00 0.64345038E+03</pdfrwt>
<pdfrwt beam="2">0</pdfrwt>
<totfact> 0.17039110E+00</totfact>
</mgrwt>
</event>
<event>
 6    1  0.2236758E-003  0.6560276E+03  0.7818608E-02  0.9795534E-01
          1   -1    0    0  502    0  0.00000000000E+00  0.00000000000E+00  0.10759839051E+03  0.10759839051E+03  0.00000000000E+00 0.  1.
         13   -1    0    0    0    0 -0.00000000000E+00 -0.00000000000E+00 -0.10000000000E+04  0.10000000000E+04  0.00000000000E+00 0.  1.
    9000005    2    1    2  501    0  0.34223570616E-02  0.26487565822E-02 -0.89240595119E+03  0.11075922604E+04  0.65602761639E+03 0.  0.
         13    1    3    3    0    0  0.68279772158E+02  0.19467212054E+02 -0.98687120354E+03  0.98942198885E+03  0.00000000000E+00 0.  1.
          3    1    3    3  501    0 -0.68276349801E+02 -0.19464563297E+02  0.94465252355E+02  0.11817027151E+03  0.00000000000E+00 0.  1.
         21    1    1    2  502  501 -0.34223570616E-02 -0.26487565822E-02  0.43416935908E-02  0.61301502857E-02  0.00000000000E+00 0. -1.
<mgrwt>
<rscale>  1 0.65602762E+03</rscale>
<asrwt>0</asrwt>
<pdfrwt beam="1">  1        1 0.39126770E+00 0.65602762E+03</pdfrwt>
<pdfrwt beam="2">0</pdfrwt>
<totfact> 0.14613660E+00</totfact>
</mgrwt>
</event>
<event>
 6    1  0.2236758E-003  0.6442458E+03  0.7818608E-02  0.9817637E-01
          1   -1    0    0  502    0  0.00000000000E+00  0.00000000000E+00  0.10674224530E+03  0.10674224530E+03  0.00000000000E+00 0.  1.
         13   -1    0    0    0    0 -0.00000000000E+00 -0.00000000000E+00 -0.10000000000E+04  0.10000000000E+04  0.00000000000E+00 0.  1.
    9000005    2    1    2  501    0 -0.45125564993E-01 -0.50904664913E-01 -0.89623639834E+03  0.11037628250E+04  0.64424582841E+03 0.  0.
         13    1    3    3    0    0  0.23980231344E+03 -0.74599440817E+02 -0.79368113415E+03  0.83246619679E+03  0.00000000000E+00 0.  1.
          3    1    3    3  501    0 -0.23984743901E+03  0.74548536152E+02 -0.10255526420E+03  0.27129662817E+03  0.00000000000E+00 0.  1.
         21    1    1    2  502  501  0.45125564993E-01  0.50904664913E-01  0.29786436402E+01  0.29794203358E+01  0.00000000000E+00 0.  1.
<mgrwt>
<rscale>  1 0.64424583E+03</rscale>
<asrwt>0</asrwt>
<pdfrwt beam="1">  1        1 0.38815444E+00 0.64424583E+03</pdfrwt>
<pdfrwt beam="2">0</pdfrwt>
<totfact> 0.15118735E+00</totfact>
</mgrwt>
</event>
<event>
 6    1  0.2236758E-003  0.6497649E+03  0.7818608E-02  0.9807220E-01
          1   -1    0    0  502    0  0.00000000000E+00  0.00000000000E+00  0.10591029327E+03  0.10591029327E+03  0.00000000000E+00 0.  1.
         13   -1    0    0    0    0 -0.00000000000E+00 -0.00000000000E+00 -0.10000000000E+04  0.10000000000E+04  0.00000000000E+00 0.  1.
    9000005    2    1    2  501    0  0.56196945578E+00 -0.14551629427E+00 -0.89417346186E+03  0.11053237785E+04  0.64976467927E+03 0.  0.
         13    1    3    3    0    0 -0.25887889798E+03 -0.29332821969E+02 -0.11724258893E+03  0.28570005762E+03  0.00000000000E+00 0.  1.
          1    1    3    3  501    0  0.25944086744E+03  0.29187305675E+02 -0.77693087293E+03  0.81962372087E+03  0.00000000000E+00 0.  1.
         21    1    1    2  502  501 -0.56196945578E+00  0.14551629427E+00  0.83755124348E-01  0.58651477558E+00  0.00000000000E+00 0.  1.
<mgrwt>
<rscale>  1 0.64976494E+03</rscale>
<asrwt>0</asrwt>
<pdfrwt beam="1">  1        1 0.38512915E+00 0.64976494E+03</pdfrwt>
<pdfrwt beam="2">0</pdfrwt>
<totfact> 0.15576140E+00</totfact>
</mgrwt>
</event>
<event>
 6    1  0.2236758E-003  0.6395764E+03  0.7818608E-02  0.9826537E-01
          1   -1    0    0  502    0  0.00000000000E+00  0.00000000000E+00  0.10226453215E+03  0.10226453215E+03  0.00000000000E+00 0.  1.
         13   -1    0    0    0    0 -0.00000000000E+00 -0.00000000000E+00 -0.10000000000E+04  0.10000000000E+04  0.00000000000E+00 0.  1.
    9000005    2    1    2  501    0  0.25960086401E-05 -0.20931422327E-04 -0.89773551049E+03  0.11022644846E+04  0.63957638102E+03 0.  0.
         13    1    3    3    0    0  0.11323435066E+02 -0.27534995129E+02 -0.99760628247E+03  0.99805044510E+03  0.00000000000E+00 0.  1.
          1    1    3    3  501    0 -0.11323432470E+02  0.27534974198E+02  0.99870771983E+02  0.10421403947E+03  0.00000000000E+00 0.  1.
         21    1    1    2  502  501 -0.25960086402E-05  0.20931422328E-04  0.42640303125E-04  0.47571621290E-04  0.00000000000E+00 0. -1.
<mgrwt>
<rscale>  1 0.63957638E+03</rscale>
<asrwt>0</asrwt>
<pdfrwt beam="1">  1        1 0.37187181E+00 0.63957638E+03</pdfrwt>
<pdfrwt beam="2">0</pdfrwt>
<totfact> 0.17853606E+00</totfact>
</mgrwt>
</event>
<event>
 6    1  0.2236758E-003  0.6490217E+03  0.7818608E-02  0.9808617E-01
          1   -1    0    0  502    0  0.00000000000E+00  0.00000000000E+00  0.10531020982E+03  0.10531020982E+03  0.00000000000E+00 0.  1.
         13   -1    0    0    0    0 -0.00000000000E+00 -0.00000000000E+00 -0.10000000000E+04  0.10000000000E+04  0.00000000000E+00 0.  1.
    9000005    2    1    2  501    0  0.46745299379E-03 -0.22447131130E-03 -0.89469266877E+03  0.11053072849E+04  0.64902174271E+03 0.  0.
         13    1    3    3    0    0  0.48542174929E+02 -0.31211823217E+03 -0.32066464768E+03  0.45011104171E+03  0.00000000000E+00 0.  1.
          1    1    3    3  501    0 -0.48541707476E+02  0.31211800770E+03 -0.57402802109E+03  0.65519624319E+03  0.00000000000E+00 0.  1.
         21    1    1    2  502  501 -0.46745299378E-03  0.22447131130E-03  0.28785858153E-02  0.29249198223E-02  0.00000000000E+00 0.  1.
<mgrwt>
<rscale>  1 0.64902174E+03</rscale>
<asrwt>0</asrwt>
<pdfrwt beam="1">  1        1 0.38294703E+00 0.64902174E+03</pdfrwt>
<pdfrwt beam="2">0</pdfrwt>
<totfact> 0.15928199E+00</totfact>
</mgrwt>
</event>
<event>
 6    1  0.2236758E-003  0.6213053E+03  0.7818608E-02  0.9862164E-01
          1   -1    0    0  502    0  0.00000000000E+00  0.00000000000E+00  0.96510994086E+02  0.96510994086E+02  0.00000000000E+00 0.  1.
         13   -1    0    0    0    0 -0.00000000000E+00 -0.00000000000E+00 -0.10000000000E+04  0.10000000000E+04  0.00000000000E+00 0.  1.
    9000005    2    1    2  501    0 -0.13874114808E-03  0.46016782074E-03 -0.90349493557E+03  0.10965050450E+04  0.62130525111E+03 0.  0.
         13    1    3    3    0    0 -0.26577841357E+03  0.16380418199E+02 -0.73411450949E+03  0.78091651043E+03  0.00000000000E+00 0.  1.
          1    1    3    3  501    0  0.26577827483E+03 -0.16379958031E+02 -0.16938042608E+03  0.31558853455E+03  0.00000000000E+00 0.  1.
         21    1    1    2  502  501  0.13874114805E-03 -0.46016782074E-03  0.59296591587E-02  0.59491059217E-02  0.00000000000E+00 0. -1.
<mgrwt>
<rscale>  1 0.62130525E+03</rscale>
<asrwt>0</asrwt>
<pdfrwt beam="1">  1        1 0.35094981E+00 0.62130525E+03</pdfrwt>
<pdfrwt beam="2">0</pdfrwt>
<totfact> 0.22116771E+00</totfact>
</mgrwt>
</event>
<event>
 6    1  0.2236758E-003  0.6597898E+03  0.7818608E-02  0.9788581E-01
          1   -1    0    0  502    0  0.00000000000E+00  0.00000000000E+00  0.10883985301E+03  0.10883985301E+03  0.00000000000E+00 0.  1.
         13   -1    0    0    0    0 -0.00000000000E+00 -0.00000000000E+00 -0.10000000000E+04  0.10000000000E+04  0.00000000000E+00 0.  1.
    9000005    2    1    2  501    0  0.16743999797E-02  0.25025019968E-01 -0.89114310213E+03  0.11088095284E+04  0.65978977042E+03 0.  0.
         13    1    3    3    0    0  0.77643168596E+02 -0.25779442173E+03 -0.76591339472E+03  0.81185574686E+03  0.00000000000E+00 0.  1.
          1    1    3    3  501    0 -0.77641494196E+02  0.25781944675E+03 -0.12522970741E+03  0.29695378153E+03  0.00000000000E+00 0.  1.
         21    1    1    2  502  501 -0.16743999798E-02 -0.25025019968E-01 -0.17044861323E-01  0.30324619325E-01  0.00000000000E+00 0. -1.
<mgrwt>
<rscale>  1 0.65978977E+03</rscale>
<asrwt>0</asrwt>
<pdfrwt beam="1">  1        1 0.39578212E+00 0.65978977E+03</pdfrwt>
<pdfrwt beam="2">0</pdfrwt>
<totfact> 0.13944292E+00</totfact>
</mgrwt>
</event>
<event>
 6    1  0.2236758E-003  0.4699659E+03  0.7818608E-02  0.1021930E+00
          1   -1    0    0  502    0  0.00000000000E+00  0.00000000000E+00  0.55280480211E+02  0.55280480211E+02  0.00000000000E+00 0.  1.
         13   -1    0    0    0    0 -0.00000000000E+00 -0.00000000000E+00 -0.10000000000E+04  0.10000000000E+04  0.00000000000E+00 0.  1.
    9000005    2    1    2  501    0  0.97814199368E-03 -0.93922174926E-04 -0.94478301761E+03  0.10552169748E+04  0.46996586421E+03 0.  0.
         13    1    3    3    0    0  0.11057776138E+03  0.14061587240E+03 -0.81451053672E+03  0.83392306558E+03  0.00000000000E+00 0.  1.
          1    1    3    3  501    0 -0.11057678324E+03 -0.14061596632E+03 -0.13027248089E+03  0.22129390921E+03  0.00000000000E+00 0.  1.
         21    1    1    2  502  501 -0.97814199367E-03  0.93922174911E-04  0.63497818572E-01  0.63505421395E-01  0.00000000000E+00 0.  1.
<mgrwt>
<rscale>  1 0.46996586E+03</rscale>
<asrwt>0</asrwt>
<pdfrwt beam="1">  1        1 0.20102035E+00 0.46996586E+03</pdfrwt>
<pdfrwt beam="2">0</pdfrwt>
<totfact> 0.10219815E+01</totfact>
</mgrwt>
</event>
<event>
 6    1  0.2236758E-003  0.6659939E+03  0.7818608E-02  0.9777222E-01
          1   -1    0    0  502    0  0.00000000000E+00  0.00000000000E+00  0.11111484563E+03  0.11111484563E+03  0.00000000000E+00 0.  1.
         13   -1    0    0    0    0 -0.00000000000E+00 -0.00000000000E+00 -0.10000000000E+04  0.10000000000E+04  0.00000000000E+00 0.  1.
    9000005    2    1    2  501    0 -0.10045092945E-01  0.13690275016E-02 -0.88911292087E+03  0.11108868536E+04  0.66599385537E+03 0.  0.
         13    1    3    3    0    0 -0.33291224812E+02  0.30383119164E+03 -0.22411491933E+03  0.37901081215E+03  0.00000000000E+00 0.  1.
          1    1    3    3  501    0  0.33281179719E+02 -0.30382982261E+03 -0.66499800154E+03  0.73187604147E+03  0.00000000000E+00 0.  1.
         21    1    1    2  502  501  0.10045092945E-01 -0.13690275016E-02  0.22776649646E+00  0.22799200652E+00  0.00000000000E+00 0.  1.
<mgrwt>
<rscale>  1 0.66599386E+03</rscale>
<asrwt>0</asrwt>
<pdfrwt beam="1">  1        1 0.40405484E+00 0.66599386E+03</pdfrwt>
<pdfrwt beam="2">0</pdfrwt>
<totfact> 0.12793903E+00</totfact>
</mgrwt>
</event>
<event>
 6    1  0.2236758E-003  0.6047760E+03  0.7818608E-02  0.9895547E-01
          1   -1    0    0  502    0  0.00000000000E+00  0.00000000000E+00  0.91442592671E+02  0.91442592671E+02  0.00000000000E+00 0.  1.
         13   -1    0    0    0    0 -0.00000000000E+00 -0.00000000000E+00 -0.10000000000E+04  0.10000000000E+04  0.00000000000E+00 0.  1.
    9000005    2    1    2  501    0 -0.95299950851E-03  0.10706531873E-02 -0.90856137369E+03  0.10914383753E+04  0.60477595623E+03 0.  0.
         13    1    3    3    0    0  0.29155005714E+03  0.78699811151E+02 -0.42613618414E+03  0.52229028664E+03  0.00000000000E+00 0.  1.
          1    1    3    3  501    0 -0.29155101013E+03 -0.78698740498E+02 -0.48242518955E+03  0.56914808862E+03  0.00000000000E+00 0.  1.
         21    1    1    2  502  501  0.95299950852E-03 -0.10706531873E-02  0.39663605631E-02  0.42174070740E-02  0.00000000000E+00 0.  1.
<mgrwt>
<rscale>  1 0.60477596E+03</rscale>
<asrwt>0</asrwt>
<pdfrwt beam="1">  1        1 0.33251922E+00 0.60477596E+03</pdfrwt>
<pdfrwt beam="2">0</pdfrwt>
<totfact> 0.26674441E+00</totfact>
</mgrwt>
</event>
<event>
 6    1  0.2236758E-003  0.6495492E+03  0.7818608E-02  0.9807625E-01
          1   -1    0    0  502    0  0.00000000000E+00  0.00000000000E+00  0.10568386510E+03  0.10568386510E+03  0.00000000000E+00 0.  1.
         13   -1    0    0    0    0 -0.00000000000E+00 -0.00000000000E+00 -0.10000000000E+04  0.10000000000E+04  0.00000000000E+00 0.  1.
    9000005    2    1    2  501    0 -0.26861873134E-02 -0.12652368272E-01 -0.89452124167E+03  0.11054783509E+04  0.64954917623E+03 0.  0.
         13    1    3    3    0    0  0.28864753930E+02  0.11361159320E+03 -0.96273370197E+03  0.96984377559E+03  0.00000000000E+00 0.  1.
          1    1    3    3  501    0 -0.28867440117E+02 -0.11362424557E+03  0.68212460301E+02  0.13563457531E+03  0.00000000000E+00 0.  1.
         21    1    1    2  502  501  0.26861873134E-02  0.12652368272E-01  0.20510677565E+00  0.20551420253E+00  0.00000000000E+00 0. -1.
<mgrwt>
<rscale>  1 0.64954918E+03</rscale>
<asrwt>0</asrwt>
<pdfrwt beam="1">  1        1 0.38430577E+00 0.64954918E+03</pdfrwt>
<pdfrwt beam="2">0</pdfrwt>
<totfact> 0.15707915E+00</totfact>
</mgrwt>
</event>
<event>
 6    1  0.2236758E-003  0.5385389E+03  0.7818608E-02  0.1004182E+00
          3   -1    0    0  502    0  0.00000000000E+00  0.00000000000E+00  0.75090102488E+02  0.75090102488E+02  0.00000000000E+00 0.  1.
         13   -1    0    0    0    0 -0.00000000000E+00 -0.00000000000E+00 -0.10000000000E+04  0.10000000000E+04  0.00000000000E+00 0.  1.
    9000005    2    1    2  501    0 -0.29765593504E+01 -0.27576165672E+01 -0.92570116702E+03  0.10709560413E+04  0.53852365534E+03 0.  0.
         13    1    3    3    0    0  0.10286640961E+02 -0.49799837302E+02 -0.98937795981E+03  0.99068389819E+03  0.00000000000E+00 0.  1.
          3    1    3    3  501    0 -0.13263200311E+02  0.47042220734E+02  0.63676792793E+02  0.80272143079E+02  0.00000000000E+00 0.  1.
         21    1    1    2  502  501  0.29765593504E+01  0.27576165672E+01  0.79126950757E+00  0.41340612153E+01  0.00000000000E+00 0.  1.
<mgrwt>
<rscale>  1 0.53853894E+03</rscale>
<asrwt>0</asrwt>
<pdfrwt beam="1">  1        3 0.27305549E+00 0.53853894E+03</pdfrwt>
<pdfrwt beam="2">0</pdfrwt>
<totfact> 0.28799621E-01</totfact>
</mgrwt>
</event>
<event>
 6    1  0.2236758E-003  0.6528025E+03  0.7818608E-02  0.9801535E-01
          1   -1    0    0  502    0  0.00000000000E+00  0.00000000000E+00  0.10696525098E+03  0.10696525098E+03  0.00000000000E+00 0.  1.
         13   -1    0    0    0    0 -0.00000000000E+00 -0.00000000000E+00 -0.10000000000E+04  0.10000000000E+04  0.00000000000E+00 0.  1.
    9000005    2    1    2  501    0 -0.95991495435E-02  0.12391569152E-01 -0.89346208094E+03  0.11065376317E+04  0.65280245097E+03 0.  0.
         13    1    3    3    0    0  0.17096158505E+03 -0.27261766777E+03 -0.35411879367E+03  0.47848550279E+03  0.00000000000E+00 0.  1.
          1    1    3    3  501    0 -0.17097118419E+03  0.27263005934E+03 -0.53934328727E+03  0.62805212889E+03  0.00000000000E+00 0.  1.
         21    1    1    2  502  501  0.95991495435E-02 -0.12391569152E-01  0.42733192603E+00  0.42761930459E+00  0.00000000000E+00 0. -1.
<mgrwt>
<rscale>  1 0.65280245E+03</rscale>
<asrwt>0</asrwt>
<pdfrwt beam="1">  1        1 0.38896537E+00 0.65280245E+03</pdfrwt>
<pdfrwt beam="2">0</pdfrwt>
<totfact> 0.14970272E+00</totfact>
</mgrwt>
</event>
<event>
 6    1  0.2236758E-003  0.6652812E+03  0.7818608E-02  0.9778520E-01
          1   -1    0    0  502    0  0.00000000000E+00  0.00000000000E+00  0.11064983920E+03  0.11064983920E+03  0.00000000000E+00 0.  1.
         13   -1    0    0    0    0 -0.00000000000E+00 -0.00000000000E+00 -0.10000000000E+04  0.10000000000E+04  0.00000000000E+00 0.  1.
    9000005    2    1    2  501    0 -0.17975649428E-04  0.20298438187E-04 -0.88935023682E+03  0.11106497585E+04  0.66528117536E+03 0.  0.
         13    1    3    3    0    0 -0.82498984134E+02  0.18653765760E+03 -0.88335278240E+03  0.90659501337E+03  0.00000000000E+00 0.  1.
          3    1    3    3  501    0  0.82498966158E+02 -0.18653763730E+03 -0.59974544233E+01  0.20405474512E+03  0.00000000000E+00 0.  1.
         21    1    1    2  502  501  0.17975649434E-04 -0.20298438173E-04  0.76021080698E-04  0.80711556021E-04  0.00000000000E+00 0.  1.
<mgrwt>
<rscale>  1 0.66528118E+03</rscale>
<asrwt>0</asrwt>
<pdfrwt beam="1">  1        1 0.40236390E+00 0.66528118E+03</pdfrwt>
<pdfrwt beam="2">0</pdfrwt>
<totfact> 0.13020138E+00</totfact>
</mgrwt>
</event>
<event>
 6    1  0.2236758E-003  0.6663344E+03  0.7818608E-02  0.9776602E-01
          1   -1    0    0  502    0  0.00000000000E+00  0.00000000000E+00  0.11116426222E+03  0.11116426222E+03  0.00000000000E+00 0.  1.
         13   -1    0    0    0    0 -0.00000000000E+00 -0.00000000000E+00 -0.10000000000E+04  0.10000000000E+04  0.00000000000E+00 0.  1.
    9000005    2    1    2  501    0  0.22478566126E-02  0.21508457550E-01 -0.88899881183E+03  0.11109997605E+04  0.66633443552E+03 0.  0.
         13    1    3    3    0    0  0.12720021762E+03 -0.29840528081E+03 -0.57112366112E+03  0.65681644564E+03  0.00000000000E+00 0.  1.
          3    1    3    3  501    0 -0.12719796976E+03  0.29842678927E+03 -0.31787515071E+03  0.45418331487E+03  0.00000000000E+00 0.  1.
         21    1    1    2  502  501 -0.22478566126E-02 -0.21508457550E-01  0.16307404758E+00  0.16450170698E+00  0.00000000000E+00 0. -1.
<mgrwt>
<rscale>  1 0.66633444E+03</rscale>
<asrwt>0</asrwt>
<pdfrwt beam="1">  1        1 0.40423453E+00 0.66633444E+03</pdfrwt>
<pdfrwt beam="2">0</pdfrwt>
<totfact> 0.12769445E+00</totfact>
</mgrwt>
</event>
<event>
 6    1  0.2236758E-003  0.6589959E+03  0.7818608E-02  0.9790044E-01
          1   -1    0    0  502    0  0.00000000000E+00  0.00000000000E+00  0.10857211397E+03  0.10857211397E+03  0.00000000000E+00 0.  1.
         13   -1    0    0    0    0 -0.00000000000E+00 -0.00000000000E+00 -0.10000000000E+04  0.10000000000E+04  0.00000000000E+00 0.  1.
    9000005    2    1    2  501    0  0.50134611709E-03 -0.46168147412E-03 -0.89143107277E+03  0.11085688552E+04  0.65899586428E+03 0.  0.
         13    1    3    3    0    0 -0.13505020773E+03  0.27035502167E+03 -0.22484999796E+03  0.37668012681E+03  0.00000000000E+00 0.  1.
          1    1    3    3  501    0  0.13505070908E+03 -0.27035548335E+03 -0.66658107481E+03  0.73188872836E+03  0.00000000000E+00 0.  1.
         21    1    1    2  502  501 -0.50134611709E-03  0.46168147412E-03  0.31867420901E-02  0.32588069690E-02  0.00000000000E+00 0. -1.
<mgrwt>
<rscale>  1 0.65899586E+03</rscale>
<asrwt>0</asrwt>
<pdfrwt beam="1">  1        1 0.39480852E+00 0.65899586E+03</pdfrwt>
<pdfrwt beam="2">0</pdfrwt>
<totfact> 0.14086102E+00</totfact>
</mgrwt>
</event>
<event>
 6    1  0.2236758E-003  0.6417257E+03  0.7818608E-02  0.9822430E-01
          1   -1    0    0  502    0  0.00000000000E+00  0.00000000000E+00  0.10317202616E+03  0.10317202616E+03  0.00000000000E+00 0.  1.
         13   -1    0    0    0    0 -0.00000000000E+00 -0.00000000000E+00 -0.10000000000E+04  0.10000000000E+04  0.00000000000E+00 0.  1.
    9000005    2    1    2  501    0 -0.54432899138E-01  0.56400874823E-02 -0.89704326254E+03  0.11029498911E+04  0.64172567696E+03 0.  0.
         13    1    3    3    0    0  0.28277431685E+03  0.11935221043E+03 -0.28788323287E+03  0.42081233368E+03  0.00000000000E+00 0.  1.
          1    1    3    3  501    0 -0.28282874975E+03 -0.11934657034E+03 -0.60916002966E+03  0.68213755745E+03  0.00000000000E+00 0.  1.
         21    1    1    2  502  501  0.54432899138E-01 -0.56400874823E-02  0.21528869833E+00  0.22213503713E+00  0.00000000000E+00 0. -1.
<mgrwt>
<rscale>  1 0.64172568E+03</rscale>
<asrwt>0</asrwt>
<pdfrwt beam="1">  1        1 0.37517180E+00 0.64172568E+03</pdfrwt>
<pdfrwt beam="2">0</pdfrwt>
<totfact> 0.17259944E+00</totfact>
</mgrwt>
</event>
<event>
 6    1  0.2236758E-003  0.6772062E+03  0.7818608E-02  0.9757027E-01
          1   -1    0    0  502    0  0.00000000000E+00  0.00000000000E+00  0.11564866567E+03  0.11564866567E+03  0.00000000000E+00 0.  1.
         13   -1    0    0    0    0 -0.00000000000E+00 -0.00000000000E+00 -0.10000000000E+04  0.10000000000E+04  0.00000000000E+00 0.  1.
    9000005    2    1    2  501    0 -0.16755955313E+00  0.40223865093E+00 -0.88529456621E+03  0.11146096476E+04  0.67720603049E+03 0.  0.
         13    1    3    3    0    0 -0.33765006748E+03  0.86014764642E+01 -0.40143678608E+03  0.52462657832E+03  0.00000000000E+00 0.  1.
          3    1    3    3  501    0  0.33748250793E+03 -0.81992378133E+01 -0.48385778013E+03  0.58998306929E+03  0.00000000000E+00 0.  1.
         21    1    1    2  502  501  0.16755955313E+00 -0.40223865093E+00  0.94323187655E+00  0.10390180504E+01  0.00000000000E+00 0. -1.
<mgrwt>
<rscale>  1 0.67720617E+03</rscale>
<asrwt>0</asrwt>
<pdfrwt beam="1">  1        1 0.42054149E+00 0.67720617E+03</pdfrwt>
<pdfrwt beam="2">0</pdfrwt>
<totfact> 0.10765082E+00</totfact>
</mgrwt>
</event>
<event>
 6    1  0.2236758E-003  0.6851442E+03  0.7818608E-02  0.9742980E-01
          1   -1    0    0  502    0  0.00000000000E+00  0.00000000000E+00  0.11735916882E+03  0.11735916882E+03  0.00000000000E+00 0.  1.
         13   -1    0    0    0    0 -0.00000000000E+00 -0.00000000000E+00 -0.10000000000E+04  0.10000000000E+04  0.00000000000E+00 0.  1.
    9000005    2    1    2  501    0  0.20542101473E-02 -0.23661285100E-02 -0.88264354363E+03  0.11173550245E+04  0.68514423705E+03 0.  0.
         13    1    3    3    0    0  0.24772210272E+03  0.22785719319E+03 -0.33727406372E+03  0.47648602784E+03  0.00000000000E+00 0.  1.
          3    1    3    3  501    0 -0.24772004851E+03 -0.22785955932E+03 -0.54536947991E+03  0.64086899662E+03  0.00000000000E+00 0.  1.
         21    1    1    2  502  501 -0.20542101474E-02  0.23661285100E-02  0.27124511402E-02  0.41443617896E-02  0.00000000000E+00 0. -1.
<mgrwt>
<rscale>  1 0.68514424E+03</rscale>
<asrwt>0</asrwt>
<pdfrwt beam="1">  1        1 0.42676151E+00 0.68514424E+03</pdfrwt>
<pdfrwt beam="2">0</pdfrwt>
<totfact> 0.10074202E+00</totfact>
</mgrwt>
</event>
<event>
 6    1  0.2236758E-003  0.6439348E+03  0.7818608E-02  0.9818227E-01
          1   -1    0    0  502    0  0.00000000000E+00  0.00000000000E+00  0.11054081979E+03  0.11054081979E+03  0.00000000000E+00 0.  1.
         13   -1    0    0    0    0 -0.00000000000E+00 -0.00000000000E+00 -0.10000000000E+04  0.10000000000E+04  0.00000000000E+00 0.  1.
    9000005    2    1    2  501    0  0.15244037198E+02 -0.72423026781E+01 -0.88209282729E+03  0.10921262936E+04  0.64371364261E+03 0.  0.
         13    1    3    3    0    0  0.10282417623E+03  0.27463869390E+03 -0.21805946998E+03  0.36544377933E+03  0.00000000000E+00 0.  1.
          1    1    3    3  501    0 -0.87580139035E+02 -0.28188099657E+03 -0.66403335731E+03  0.72668251431E+03  0.00000000000E+00 0.  1.
         21    1    1    2  502  501 -0.15244037198E+02  0.72423026781E+01 -0.73663529115E+01  0.18414526151E+02  0.00000000000E+00 0.  1.
<mgrwt>
<rscale>  1 0.64393485E+03</rscale>
<asrwt>0</asrwt>
<pdfrwt beam="1">  1        1 0.40196747E+00 0.64393485E+03</pdfrwt>
<pdfrwt beam="2">0</pdfrwt>
<totfact> 0.13126409E+00</totfact>
</mgrwt>
</event>
<event>
 6    1  0.2236758E-003  0.6510715E+03  0.7818608E-02  0.9804771E-01
          1   -1    0    0  502    0  0.00000000000E+00  0.00000000000E+00  0.10666406096E+03  0.10666406096E+03  0.00000000000E+00 0.  1.
         13   -1    0    0    0    0 -0.00000000000E+00 -0.00000000000E+00 -0.10000000000E+04  0.10000000000E+04  0.00000000000E+00 0.  1.
    9000005    2    1    2  501    0 -0.11362075858E+00  0.30123982492E+00 -0.89398473441E+03  0.11059397747E+04  0.65107140647E+03 0.  0.
         13    1    3    3    0    0 -0.11333670058E+03  0.69183716971E+02  0.57910582982E+02  0.14486279720E+03  0.00000000000E+00 0.  1.
          1    1    3    3  501    0  0.11322307982E+03 -0.68882477146E+02 -0.95189531739E+03  0.96107697753E+03  0.00000000000E+00 0.  1.
         21    1    1    2  502  501  0.11362075858E+00 -0.30123982492E+00  0.64879536710E+00  0.72428622607E+00  0.00000000000E+00 0. -1.
<mgrwt>
<rscale>  1 0.65107149E+03</rscale>
<asrwt>0</asrwt>
<pdfrwt beam="1">  1        1 0.38787013E+00 0.65107149E+03</pdfrwt>
<pdfrwt beam="2">0</pdfrwt>
<totfact> 0.15143351E+00</totfact>
</mgrwt>
</event>
<event>
 6    1  0.2236758E-003  0.6449696E+03  0.7818608E-02  0.9816264E-01
          1   -1    0    0  502    0  0.00000000000E+00  0.00000000000E+00  0.10517631877E+03  0.10517631877E+03  0.00000000000E+00 0.  1.
         13   -1    0    0    0    0 -0.00000000000E+00 -0.00000000000E+00 -0.10000000000E+04  0.10000000000E+04  0.00000000000E+00 0.  1.
    9000005    2    1    2  501    0  0.36226076730E+00 -0.38729108215E-02 -0.89597278039E+03  0.11039714633E+04  0.64496948556E+03 0.  0.
         13    1    3    3    0    0 -0.18575403385E+03  0.25937922424E+03 -0.52713095032E+03  0.61615678350E+03  0.00000000000E+00 0.  1.
          3    1    3    3  501    0  0.18611629462E+03 -0.25938309715E+03 -0.36884183007E+03  0.48781467979E+03  0.00000000000E+00 0.  1.
         21    1    1    2  502  501 -0.36226076730E+00  0.38729108216E-02  0.11490991578E+01  0.12048554840E+01  0.00000000000E+00 0. -1.
<mgrwt>
<rscale>  1 0.64496959E+03</rscale>
<asrwt>0</asrwt>
<pdfrwt beam="1">  1        1 0.38246015E+00 0.64496959E+03</pdfrwt>
<pdfrwt beam="2">0</pdfrwt>
<totfact> 0.16019264E+00</totfact>
</mgrwt>
</event>
<event>
 6    1  0.2236758E-003  0.6535641E+03  0.7818608E-02  0.9800114E-01
          1   -1    0    0  502    0  0.00000000000E+00  0.00000000000E+00  0.10679201847E+03  0.10679201847E+03  0.00000000000E+00 0.  1.
         13   -1    0    0    0    0 -0.00000000000E+00 -0.00000000000E+00 -0.10000000000E+04  0.10000000000E+04  0.00000000000E+00 0.  1.
    9000005    2    1    2  501    0 -0.49968102486E-02  0.43610131038E-02 -0.89321119962E+03  0.11067846467E+04  0.65356408028E+03 0.  0.
         13    1    3    3    0    0  0.63519458542E+02  0.69715080127E+02 -0.97644906723E+03  0.98099321859E+03  0.00000000000E+00 0.  1.
          3    1    3    3  501    0 -0.63524455353E+02 -0.69710719114E+02  0.83237867611E+02  0.12579142813E+03  0.00000000000E+00 0.  1.
         21    1    1    2  502  501  0.49968102486E-02 -0.43610131038E-02  0.32180885731E-02  0.73717461986E-02  0.00000000000E+00 0. -1.
<mgrwt>
<rscale>  1 0.65356408E+03</rscale>
<asrwt>0</asrwt>
<pdfrwt beam="1">  1        1 0.38833543E+00 0.65356408E+03</pdfrwt>
<pdfrwt beam="2">0</pdfrwt>
<totfact> 0.15064683E+00</totfact>
</mgrwt>
</event>
<event>
 6    1  0.2236758E-003  0.6475932E+03  0.7818608E-02  0.9811306E-01
          1   -1    0    0  502    0  0.00000000000E+00  0.00000000000E+00  0.10710482569E+03  0.10710482569E+03  0.00000000000E+00 0.  1.
         13   -1    0    0    0    0 -0.00000000000E+00 -0.00000000000E+00 -0.10000000000E+04  0.10000000000E+04  0.00000000000E+00 0.  1.
    9000005    2    1    2  501    0  0.16032787276E+01 -0.45637221414E-01 -0.89483715085E+03  0.11045861240E+04  0.64759123384E+03 0.  0.
         13    1    3    3    0    0  0.76216618967E+02 -0.27976915456E+03 -0.20112720791E+03  0.35289078567E+03  0.00000000000E+00 0.  1.
          3    1    3    3  501    0 -0.74613340240E+02  0.27972351733E+03 -0.69370994295E+03  0.75169533831E+03  0.00000000000E+00 0.  1.
         21    1    1    2  502  501 -0.16032787276E+01  0.45637221414E-01  0.19419765419E+01  0.25187017139E+01  0.00000000000E+00 0. -1.
<mgrwt>
<rscale>  1 0.64759322E+03</rscale>
<asrwt>0</asrwt>
<pdfrwt beam="1">  1        1 0.38947291E+00 0.64759322E+03</pdfrwt>
<pdfrwt beam="2">0</pdfrwt>
<totfact> 0.14907385E+00</totfact>
</mgrwt>
</event>
<event>
 6    1  0.2236758E-003  0.6397417E+03  0.7818608E-02  0.9826221E-01
          1   -1    0    0  502    0  0.00000000000E+00  0.00000000000E+00  0.10544786709E+03  0.10544786709E+03  0.00000000000E+00 0.  1.
         13   -1    0    0    0    0 -0.00000000000E+00 -0.00000000000E+00 -0.10000000000E+04  0.10000000000E+04  0.00000000000E+00 0.  1.
    9000005    2    1    2  501    0 -0.28103833193E-01  0.46685012350E-01 -0.89768238451E+03  0.11023171412E+04  0.63974167712E+03 0.  0.
         13    1    3    3    0    0  0.14319048172E+03  0.26925067133E+03 -0.61526262297E+03  0.68669318716E+03  0.00000000000E+00 0.  1.
          3    1    3    3  501    0 -0.14321858556E+03 -0.26920398632E+03 -0.28241976153E+03  0.41562395408E+03  0.00000000000E+00 0.  1.
         21    1    1    2  502  501  0.28103833193E-01 -0.46685012350E-01  0.31302515980E+01  0.31307258555E+01  0.00000000000E+00 0.  1.
<mgrwt>
<rscale>  1 0.63974168E+03</rscale>
<asrwt>0</asrwt>
<pdfrwt beam="1">  1        1 0.38344760E+00 0.63974168E+03</pdfrwt>
<pdfrwt beam="2">0</pdfrwt>
<totfact> 0.15874588E+00</totfact>
</mgrwt>
</event>
<event>
 6    1  0.2236758E-003  0.6561849E+03  0.7818608E-02  0.9795242E-01
          1   -1    0    0  502    0  0.00000000000E+00  0.00000000000E+00  0.10766542624E+03  0.10766542624E+03  0.00000000000E+00 0.  1.
         13   -1    0    0    0    0 -0.00000000000E+00 -0.00000000000E+00 -0.10000000000E+04  0.10000000000E+04  0.00000000000E+00 0.  1.
    9000005    2    1    2  501    0 -0.30774194938E-01 -0.15281925548E-01 -0.89233821855E+03  0.11076308738E+04  0.65618492445E+03 0.  0.
         13    1    3    3    0    0 -0.33758820715E+02 -0.12921037124E+03  0.59693193686E+02  0.14628142529E+03  0.00000000000E+00 0.  1.
          1    1    3    3  501    0  0.33728046521E+02  0.12919508931E+03 -0.95203141224E+03  0.96134944849E+03  0.00000000000E+00 0.  1.
         21    1    1    2  502  501  0.30774194938E-01  0.15281925548E-01  0.36447910658E-02  0.34552464810E-01  0.00000000000E+00 0.  1.
<mgrwt>
<rscale>  1 0.65618493E+03</rscale>
<asrwt>0</asrwt>
<pdfrwt beam="1">  1        1 0.39151147E+00 0.65618493E+03</pdfrwt>
<pdfrwt beam="2">0</pdfrwt>
<totfact> 0.14576876E+00</totfact>
</mgrwt>
</event>
<event>
 6    1  0.2236758E-003  0.6380340E+03  0.7818608E-02  0.9829495E-01
          1   -1    0    0  502    0  0.00000000000E+00  0.00000000000E+00  0.10188884601E+03  0.10188884601E+03  0.00000000000E+00 0.  1.
         13   -1    0    0    0    0 -0.00000000000E+00 -0.00000000000E+00 -0.10000000000E+04  0.10000000000E+04  0.00000000000E+00 0.  1.
    9000005    2    1    2  501    0 -0.25659799557E-02 -0.72686980616E-03 -0.89822812597E+03  0.11017718436E+04  0.63803403446E+03 0.  0.
         13    1    3    3    0    0 -0.90599169332E+01 -0.16555637553E+03 -0.91975207667E+03  0.93457737941E+03  0.00000000000E+00 0.  1.
          1    1    3    3  501    0  0.90573509532E+01  0.16555564866E+03  0.21523950697E+02  0.16719446422E+03  0.00000000000E+00 0.  1.
         21    1    1    2  502  501  0.25659799557E-02  0.72686980616E-03  0.11697197627E+00  0.11700237530E+00  0.00000000000E+00 0. -1.
<mgrwt>
<rscale>  1 0.63803403E+03</rscale>
<asrwt>0</asrwt>
<pdfrwt beam="1">  1        1 0.37050568E+00 0.63803403E+03</pdfrwt>
<pdfrwt beam="2">0</pdfrwt>
<totfact> 0.18107191E+00</totfact>
</mgrwt>
</event>
<event>
 6    1  0.2236758E-003  0.6501399E+03  0.7818608E-02  0.9806517E-01
          1   -1    0    0  502    0  0.00000000000E+00  0.00000000000E+00  0.10567269981E+03  0.10567269981E+03  0.00000000000E+00 0.  1.
         13   -1    0    0    0    0 -0.00000000000E+00 -0.00000000000E+00 -0.10000000000E+04  0.10000000000E+04  0.00000000000E+00 0.  1.
    9000005    2    1    2  501    0  0.16738806824E-02  0.45017605606E-03 -0.89432915926E+03  0.11056701580E+04  0.65013987205E+03 0.  0.
         13    1    3    3    0    0 -0.66031248758E+02  0.21958774721E+03 -0.83902504489E+03  0.86979418858E+03  0.00000000000E+00 0.  1.
          1    1    3    3  501    0  0.66032922639E+02 -0.21958729704E+03 -0.55304114373E+02  0.23587596944E+03  0.00000000000E+00 0.  1.
         21    1    1    2  502  501 -0.16738806824E-02 -0.45017605608E-03  0.18590729786E-02  0.25417882210E-02  0.00000000000E+00 0.  1.
<mgrwt>
<rscale>  1 0.65013987E+03</rscale>
<asrwt>0</asrwt>
<pdfrwt beam="1">  1        1 0.38426517E+00 0.65013987E+03</pdfrwt>
<pdfrwt beam="2">0</pdfrwt>
<totfact> 0.15712697E+00</totfact>
</mgrwt>
</event>
<event>
 6    1  0.2236758E-003  0.6431901E+03  0.7818608E-02  0.9819642E-01
          1   -1    0    0  502    0  0.00000000000E+00  0.00000000000E+00  0.10342425465E+03  0.10342425465E+03  0.00000000000E+00 0.  1.
         13   -1    0    0    0    0 -0.00000000000E+00 -0.00000000000E+00 -0.10000000000E+04  0.10000000000E+04  0.00000000000E+00 0.  1.
    9000005    2    1    2  501    0 -0.38914504938E-03  0.18941309014E-03 -0.89657657272E+03  0.11034233209E+04  0.64319007642E+03 0.  0.
         13    1    3    3    0    0  0.15783689647E+03  0.27127184330E+03 -0.56865151530E+03  0.64951169713E+03  0.00000000000E+00 0.  1.
          3    1    3    3  501    0 -0.15783728562E+03 -0.27127165388E+03 -0.32792505742E+03  0.45391162380E+03  0.00000000000E+00 0.  1.
         21    1    1    2  502  501  0.38914504940E-03 -0.18941309016E-03  0.82736694424E-03  0.93372760943E-03  0.00000000000E+00 0.  1.
<mgrwt>
<rscale>  1 0.64319008E+03</rscale>
<asrwt>0</asrwt>
<pdfrwt beam="1">  1        1 0.37608899E+00 0.64319008E+03</pdfrwt>
<pdfrwt beam="2">0</pdfrwt>
<totfact> 0.17095605E+00</totfact>
</mgrwt>
</event>
<event>
 6    1  0.2236758E-003  0.6395425E+03  0.7818608E-02  0.9826602E-01
          1   -1    0    0  502    0  0.00000000000E+00  0.00000000000E+00  0.10233258329E+03  0.10233258329E+03  0.00000000000E+00 0.  1.
         13   -1    0    0    0    0 -0.00000000000E+00 -0.00000000000E+00 -0.10000000000E+04  0.10000000000E+04  0.00000000000E+00 0.  1.
    9000005    2    1    2  501    0  0.65488197539E-02  0.15665704344E-01 -0.89774532743E+03  0.11022528438E+04  0.63954253847E+03 0.  0.
         13    1    3    3    0    0 -0.12722377589E+03  0.17503375158E+03 -0.43092334470E+02  0.22063465873E+03  0.00000000000E+00 0.  1.
          1    1    3    3  501    0  0.12723032471E+03 -0.17501808588E+03 -0.85465299296E+03  0.88161818509E+03  0.00000000000E+00 0.  1.
         21    1    1    2  502  501 -0.65488197539E-02 -0.15665704344E-01  0.77910716729E-01  0.79739457698E-01  0.00000000000E+00 0.  1.
<mgrwt>
<rscale>  1 0.63954254E+03</rscale>
<asrwt>0</asrwt>
<pdfrwt beam="1">  1        1 0.37211927E+00 0.63954254E+03</pdfrwt>
<pdfrwt beam="2">0</pdfrwt>
<totfact> 0.17809054E+00</totfact>
</mgrwt>
</event>
<event>
 6    1  0.2236758E-003  0.6748914E+03  0.7818608E-02  0.9761162E-01
          1   -1    0    0  502    0  0.00000000000E+00  0.00000000000E+00  0.11577321176E+03  0.11577321176E+03  0.00000000000E+00 0.  1.
         13   -1    0    0    0    0 -0.00000000000E+00 -0.00000000000E+00 -0.10000000000E+04  0.10000000000E+04  0.00000000000E+00 0.  1.
    9000005    2    1    2  501    0  0.15525012757E+01  0.14451552240E+01 -0.88544718492E+03  0.11133261519E+04  0.67488806813E+03 0.  0.
         13    1    3    3    0    0  0.51986042506E+02  0.33394980422E+03 -0.42011802692E+03  0.53918844285E+03  0.00000000000E+00 0.  1.
          1    1    3    3  501    0 -0.50433541231E+02 -0.33250464900E+03 -0.46532915800E+03  0.57413770907E+03  0.00000000000E+00 0.  1.
         21    1    1    2  502  501 -0.15525012757E+01 -0.14451552240E+01  0.12203966854E+01  0.24470598486E+01  0.00000000000E+00 0.  1.
<mgrwt>
<rscale>  1 0.67489140E+03</rscale>
<asrwt>0</asrwt>
<pdfrwt beam="1">  1        1 0.42099439E+00 0.67489140E+03</pdfrwt>
<pdfrwt beam="2">0</pdfrwt>
<totfact> 0.10719247E+00</totfact>
</mgrwt>
</event>
<event>
 6    1  0.2236758E-003  0.6858077E+03  0.7818608E-02  0.9741816E-01
          1   -1    0    0  502    0  0.00000000000E+00  0.00000000000E+00  0.11763039073E+03  0.11763039073E+03  0.00000000000E+00 0.  1.
         13   -1    0    0    0    0 -0.00000000000E+00 -0.00000000000E+00 -0.10000000000E+04  0.10000000000E+04  0.00000000000E+00 0.  1.
    9000005    2    1    2  501    0 -0.20178668211E-01  0.65710778961E-01 -0.88238710827E+03  0.11175594591E+04  0.68580764868E+03 0.  0.
         13    1    3    3    0    0 -0.27608718965E+03 -0.65298290291E+02 -0.12733762026E+03  0.31097085480E+03  0.00000000000E+00 0.  1.
          1    1    3    3  501    0  0.27606701098E+03  0.65364001070E+02 -0.75504948801E+03  0.80658860427E+03  0.00000000000E+00 0.  1.
         21    1    1    2  502  501  0.20178668211E-01 -0.65710778961E-01  0.17498996755E-01  0.70931657318E-01  0.00000000000E+00 0. -1.
<mgrwt>
<rscale>  1 0.68580765E+03</rscale>
<asrwt>0</asrwt>
<pdfrwt beam="1">  1        1 0.42774778E+00 0.68580765E+03</pdfrwt>
<pdfrwt beam="2">0</pdfrwt>
<totfact> 0.99696800E-01</totfact>
</mgrwt>
</event>
<event>
 6    1  0.2236758E-003  0.6288598E+03  0.7818608E-02  0.9847276E-01
          1   -1    0    0  502    0  0.00000000000E+00  0.00000000000E+00  0.99208272918E+02  0.99208272918E+02  0.00000000000E+00 0.  1.
         13   -1    0    0    0    0 -0.00000000000E+00 -0.00000000000E+00 -0.10000000000E+04  0.10000000000E+04  0.00000000000E+00 0.  1.
    9000005    2    1    2  501    0 -0.43230322094E-02 -0.13040985801E-01 -0.90113367182E+03  0.10988660523E+04  0.62885984622E+03 0.  0.
         13    1    3    3    0    0 -0.45581826608E+02  0.16497103431E+01  0.93054733995E+02  0.10363207988E+03  0.00000000000E+00 0.  1.
          1    1    3    3  501    0  0.45577503576E+02 -0.16627513289E+01 -0.99418840582E+03  0.99523397241E+03  0.00000000000E+00 0.  1.
         21    1    1    2  502  501  0.43230322094E-02  0.13040985801E-01  0.34194473885E+00  0.34222063109E+00  0.00000000000E+00 0. -1.
<mgrwt>
<rscale>  1 0.62885985E+03</rscale>
<asrwt>0</asrwt>
<pdfrwt beam="1">  1        1 0.36075812E+00 0.62885985E+03</pdfrwt>
<pdfrwt beam="2">0</pdfrwt>
<totfact> 0.20012580E+00</totfact>
</mgrwt>
</event>
<event>
 6    1  0.2236758E-003  0.5851484E+03  0.7818608E-02  0.9936707E-01
          1   -1    0    0  502    0  0.00000000000E+00  0.00000000000E+00  0.85599678575E+02  0.85599678575E+02  0.00000000000E+00 0.  1.
         13   -1    0    0    0    0 -0.00000000000E+00 -0.00000000000E+00 -0.10000000000E+04  0.10000000000E+04  0.00000000000E+00 0.  1.
    9000005    2    1    2  501    0 -0.50550147535E-05 -0.19887618091E-04 -0.91440033357E+03  0.10855996547E+04  0.58514839170E+03 0.  0.
         13    1    3    3    0    0 -0.26635406991E+03 -0.26439445553E+02 -0.23802763266E+03  0.35819085520E+03  0.00000000000E+00 0.  1.
          3    1    3    3  501    0  0.26635406485E+03  0.26439425665E+02 -0.67637270091E+03  0.72740879953E+03  0.00000000000E+00 0.  1.
         21    1    1    2  502  501  0.50550147433E-05  0.19887618091E-04  0.12148551051E-04  0.23846547339E-04  0.00000000000E+00 0.  1.
<mgrwt>
<rscale>  1 0.58514839E+03</rscale>
<asrwt>0</asrwt>
<pdfrwt beam="1">  1        1 0.31127221E+00 0.58514839E+03</pdfrwt>
<pdfrwt beam="2">0</pdfrwt>
<totfact> 0.33075451E+00</totfact>
</mgrwt>
</event>
<event>
 6    1  0.2236758E-003  0.6506544E+03  0.7818608E-02  0.9805552E-01
          1   -1    0    0  502    0  0.00000000000E+00  0.00000000000E+00  0.10584052761E+03  0.10584052761E+03  0.00000000000E+00 0.  1.
         13   -1    0    0    0    0 -0.00000000000E+00 -0.00000000000E+00 -0.10000000000E+04  0.10000000000E+04  0.00000000000E+00 0.  1.
    9000005    2    1    2  501    0 -0.27366090794E-03  0.38475141210E-03 -0.89416219607E+03  0.11058377633E+04  0.65065438281E+03 0.  0.
         13    1    3    3    0    0  0.17420353303E+03  0.24433536679E+03 -0.66065521654E+03  0.72561143702E+03  0.00000000000E+00 0.  1.
          1    1    3    3  501    0 -0.17420380669E+03 -0.24433498204E+03 -0.23350697953E+03  0.38022632629E+03  0.00000000000E+00 0.  1.
         21    1    1    2  502  501  0.27366090796E-03 -0.38475141210E-03  0.27236867317E-02  0.27643070296E-02  0.00000000000E+00 0. -1.
<mgrwt>
<rscale>  1 0.65065438E+03</rscale>
<asrwt>0</asrwt>
<pdfrwt beam="1">  1        1 0.38487546E+00 0.65065438E+03</pdfrwt>
<pdfrwt beam="2">0</pdfrwt>
<totfact> 0.15613873E+00</totfact>
</mgrwt>
</event>
<event>
 6    1  0.2236758E-003  0.6526645E+03  0.7818608E-02  0.9801792E-01
          1   -1    0    0  502    0  0.00000000000E+00  0.00000000000E+00  0.10649273169E+03  0.10649273169E+03  0.00000000000E+00 0.  1.
         13   -1    0    0    0    0 -0.00000000000E+00 -0.00000000000E+00 -0.10000000000E+04  0.10000000000E+04  0.00000000000E+00 0.  1.
    9000005    2    1    2  501    0  0.89237827012E-05 -0.23857694487E-07 -0.89350727609E+03  0.11064927199E+04  0.65266445181E+03 0.  0.
         13    1    3    3    0    0 -0.22033498262E+03  0.18152304830E+03 -0.71478256881E+03  0.76968320905E+03  0.00000000000E+00 0.  1.
          1    1    3    3  501    0  0.22033499154E+03 -0.18152304832E+03 -0.17872470728E+03  0.33680951080E+03  0.00000000000E+00 0.  1.
         21    1    1    2  502  501 -0.89237827045E-05  0.23857718900E-07  0.77778922688E-05  0.11837654966E-04  0.00000000000E+00 0. -1.
<mgrwt>
<rscale>  1 0.65266445E+03</rscale>
<asrwt>0</asrwt>
<pdfrwt beam="1">  1        1 0.38724711E+00 0.65266445E+03</pdfrwt>
<pdfrwt beam="2">0</pdfrwt>
<totfact> 0.15235375E+00</totfact>
</mgrwt>
</event>
<event>
 6    1  0.2236758E-003  0.6561973E+03  0.7818608E-02  0.9795219E-01
          1   -1    0    0  502    0  0.00000000000E+00  0.00000000000E+00  0.10772063074E+03  0.10772063074E+03  0.00000000000E+00 0.  1.
         13   -1    0    0    0    0 -0.00000000000E+00 -0.00000000000E+00 -0.10000000000E+04  0.10000000000E+04  0.00000000000E+00 0.  1.
    9000005    2    1    2  501    0 -0.96288132220E-01  0.50778249226E-01 -0.89230244242E+03  0.11076093554E+04  0.65619724438E+03 0.  0.
         13    1    3    3    0    0  0.99937800176E+02 -0.93865494876E+02  0.56969844968E+02  0.14847174232E+03  0.00000000000E+00 0.  1.
          3    1    3    3  501    0 -0.10003408831E+03  0.93916273125E+02 -0.94927228739E+03  0.95913761306E+03  0.00000000000E+00 0.  1.
         21    1    1    2  502  501  0.96288132220E-01 -0.50778249226E-01  0.23073158274E-01  0.11127535951E+00  0.00000000000E+00 0.  1.
<mgrwt>
<rscale>  1 0.65619725E+03</rscale>
<asrwt>0</asrwt>
<pdfrwt beam="1">  1        1 0.39171221E+00 0.65619725E+03</pdfrwt>
<pdfrwt beam="2">0</pdfrwt>
<totfact> 0.14546966E+00</totfact>
</mgrwt>
</event>
<event>
 6    1  0.2236758E-003  0.6430648E+03  0.7818608E-02  0.9819880E-01
          1   -1    0    0  502    0  0.00000000000E+00  0.00000000000E+00  0.10340037830E+03  0.10340037830E+03  0.00000000000E+00 0.  1.
         13   -1    0    0    0    0 -0.00000000000E+00 -0.00000000000E+00 -0.10000000000E+04  0.10000000000E+04  0.00000000000E+00 0.  1.
    9000005    2    1    2  501    0  0.68585530563E-04  0.62014699117E-03 -0.89661691724E+03  0.11033830715E+04  0.64306477607E+03 0.  0.
         13    1    3    3    0    0  0.49749182802E+02  0.23076676341E+03 -0.82287237687E+03  0.85606496769E+03  0.00000000000E+00 0.  1.
          3    1    3    3  501    0 -0.49749114216E+02 -0.23076614327E+03 -0.73744540365E+02  0.24731810382E+03  0.00000000000E+00 0.  1.
         21    1    1    2  502  501 -0.68585530570E-04 -0.62014699117E-03  0.17295540545E-01  0.17306790835E-01  0.00000000000E+00 0. -1.
<mgrwt>
<rscale>  1 0.64306478E+03</rscale>
<asrwt>0</asrwt>
<pdfrwt beam="1">  1        1 0.37600217E+00 0.64306478E+03</pdfrwt>
<pdfrwt beam="2">0</pdfrwt>
<totfact> 0.17111056E+00</totfact>
</mgrwt>
</event>
<event>
 6    1  0.2236758E-003  0.6224101E+03  0.7818608E-02  0.9859973E-01
          1   -1    0    0  502    0  0.00000000000E+00  0.00000000000E+00  0.96929238219E+02  0.96929238219E+02  0.00000000000E+00 0.  1.
         13   -1    0    0    0    0 -0.00000000000E+00 -0.00000000000E+00 -0.10000000000E+04  0.10000000000E+04  0.00000000000E+00 0.  1.
    9000005    2    1    2  501    0 -0.76050043590E-03  0.15351292510E-01 -0.90315062639E+03  0.10968479080E+04  0.62241005711E+03 0.  0.
         13    1    3    3    0    0  0.51376192905E+02  0.14604917375E+03 -0.92732811699E+03  0.94016344904E+03  0.00000000000E+00 0.  1.
          3    1    3    3  501    0 -0.51376953405E+02 -0.14603382245E+03  0.24177490599E+02  0.15668445900E+03  0.00000000000E+00 0.  1.
         21    1    1    2  502  501  0.76050043589E-03 -0.15351292510E-01  0.79864612112E-01  0.81330171587E-01  0.00000000000E+00 0.  1.
<mgrwt>
<rscale>  1 0.62241006E+03</rscale>
<asrwt>0</asrwt>
<pdfrwt beam="1">  1        1 0.35247070E+00 0.62241006E+03</pdfrwt>
<pdfrwt beam="2">0</pdfrwt>
<totfact> 0.21777336E+00</totfact>
</mgrwt>
</event>
<event>
 6    1  0.2236758E-003  0.6705860E+03  0.7818608E-02  0.9768900E-01
          1   -1    0    0  502    0  0.00000000000E+00  0.00000000000E+00  0.12572095161E+03  0.12572095161E+03  0.00000000000E+00 0.  1.
         13   -1    0    0    0    0 -0.00000000000E+00 -0.00000000000E+00 -0.10000000000E+04  0.10000000000E+04  0.00000000000E+00 0.  1.
    9000005    2    1    2  501    0 -0.10476368587E+01 -0.12360412406E+01 -0.88752369396E+03  0.11123775646E+04  0.67058400929E+03 0.  0.
         13    1    3    3    0    0 -0.27990822578E+03 -0.17866024449E+03 -0.53043411121E+03  0.62580224045E+03  0.00000000000E+00 0.  1.
          3    1    3    3  501    0  0.27886058892E+03  0.17742420325E+03 -0.35708958276E+03  0.48657532414E+03  0.00000000000E+00 0.  1.
         21    1    1    2  502  501  0.10476368587E+01  0.12360412406E+01  0.13244645573E+02  0.13343387025E+02  0.00000000000E+00 0. -1.
<mgrwt>
<rscale>  1 0.67058597E+03</rscale>
<asrwt>0</asrwt>
<pdfrwt beam="1">  1        1 0.45716806E+00 0.67058597E+03</pdfrwt>
<pdfrwt beam="2">0</pdfrwt>
<totfact> 0.73302471E-01</totfact>
</mgrwt>
</event>
<event>
 6    1  0.2236758E-003  0.6551389E+03  0.7818608E-02  0.9797184E-01
          1   -1    0    0  502    0  0.00000000000E+00  0.00000000000E+00  0.10730182210E+03  0.10730182210E+03  0.00000000000E+00 0.  1.
         13   -1    0    0    0    0 -0.00000000000E+00 -0.00000000000E+00 -0.10000000000E+04  0.10000000000E+04  0.00000000000E+00 0.  1.
    9000005    2    1    2  501    0  0.40280988031E-04  0.84592789676E-04 -0.89269820680E+03  0.11073017241E+04  0.65513893158E+03 0.  0.
         13    1    3    3    0    0 -0.17989351825E+03 -0.61866851026E+02  0.43697670752E+01  0.19028473409E+03  0.00000000000E+00 0.  1.
          1    1    3    3  501    0  0.17989355853E+03  0.61866935619E+02 -0.89706797388E+03  0.91701698996E+03  0.00000000000E+00 0.  1.
         21    1    1    2  502  501 -0.40280988033E-04 -0.84592789675E-04  0.28906105856E-04  0.98051318286E-04  0.00000000000E+00 0.  1.
<mgrwt>
<rscale>  1 0.65513893E+03</rscale>
<asrwt>0</asrwt>
<pdfrwt beam="1">  1        1 0.39018927E+00 0.65513893E+03</pdfrwt>
<pdfrwt beam="2">0</pdfrwt>
<totfact> 0.14777980E+00</totfact>
</mgrwt>
</event>
<event>
 6    1  0.2236758E-003  0.6491279E+03  0.7818608E-02  0.9808417E-01
          1   -1    0    0  502    0  0.00000000000E+00  0.00000000000E+00  0.10579411820E+03  0.10579411820E+03  0.00000000000E+00 0.  1.
         13   -1    0    0    0    0 -0.00000000000E+00 -0.00000000000E+00 -0.10000000000E+04  0.10000000000E+04  0.00000000000E+00 0.  1.
    9000005    2    1    2  501    0  0.42411792340E+00  0.21694463092E+00 -0.89451529294E+03  0.11052260722E+04  0.64912774895E+03 0.  0.
         13    1    3    3    0    0  0.23889361528E+03 -0.27668355511E+02 -0.75984229042E+02  0.25220884279E+03  0.00000000000E+00 0.  1.
          3    1    3    3  501    0 -0.23846949735E+03  0.27885300142E+02 -0.81853106390E+03  0.85301722943E+03  0.00000000000E+00 0.  1.
         21    1    1    2  502  501 -0.42411792340E+00 -0.21694463092E+00  0.30941114087E+00  0.56804598399E+00  0.00000000000E+00 0.  1.
<mgrwt>
<rscale>  1 0.64912792E+03</rscale>
<asrwt>0</asrwt>
<pdfrwt beam="1">  1        1 0.38470670E+00 0.64912792E+03</pdfrwt>
<pdfrwt beam="2">0</pdfrwt>
<totfact> 0.15645140E+00</totfact>
</mgrwt>
</event>
<event>
 6    1  0.2236758E-003  0.6412105E+03  0.7818608E-02  0.9823413E-01
          1   -1    0    0  502    0  0.00000000000E+00  0.00000000000E+00  0.10317793522E+03  0.10317793522E+03  0.00000000000E+00 0.  1.
         13   -1    0    0    0    0 -0.00000000000E+00 -0.00000000000E+00 -0.10000000000E+04  0.10000000000E+04  0.00000000000E+00 0.  1.
    9000005    2    1    2  501    0  0.52571629080E-02 -0.46320000706E-02 -0.89721223554E+03  0.11027877016E+04  0.64121051072E+03 0.  0.
         13    1    3    3    0    0 -0.14314581910E+03  0.25394790174E+03 -0.21910922782E+03  0.36467672813E+03  0.00000000000E+00 0.  1.
          1    1    3    3  501    0  0.14315107626E+03 -0.25395253374E+03 -0.67810300771E+03  0.73811097343E+03  0.00000000000E+00 0.  1.
         21    1    1    2  502  501 -0.52571629079E-02  0.46320000706E-02  0.39017075425E+00  0.39023366161E+00  0.00000000000E+00 0.  1.
<mgrwt>
<rscale>  1 0.64121051E+03</rscale>
<asrwt>0</asrwt>
<pdfrwt beam="1">  1        1 0.37519328E+00 0.64121051E+03</pdfrwt>
<pdfrwt beam="2">0</pdfrwt>
<totfact> 0.17257814E+00</totfact>
</mgrwt>
</event>
<event>
 6    1  0.2236758E-003  0.6472243E+03  0.7818608E-02  0.9812002E-01
          1   -1    0    0  502    0  0.00000000000E+00  0.00000000000E+00  0.10604178564E+03  0.10604178564E+03  0.00000000000E+00 0.  1.
         13   -1    0    0    0    0 -0.00000000000E+00 -0.00000000000E+00 -0.10000000000E+04  0.10000000000E+04  0.00000000000E+00 0.  1.
    9000005    2    1    2  501    0  0.32471546265E-01 -0.83545590252E-02 -0.89527493299E+03  0.11047246402E+04  0.64722432269E+03 0.  0.
         13    1    3    3    0    0 -0.76567889234E+02 -0.30334749012E+03 -0.30644631322E+03  0.43794027483E+03  0.00000000000E+00 0.  1.
          1    1    3    3  501    0  0.76600360780E+02  0.30333913557E+03 -0.58882861976E+03  0.66678436536E+03  0.00000000000E+00 0.  1.
         21    1    1    2  502  501 -0.32471546265E-01  0.83545590253E-02  0.13167186278E+01  0.13171454532E+01  0.00000000000E+00 0. -1.
<mgrwt>
<rscale>  1 0.64722432E+03</rscale>
<asrwt>0</asrwt>
<pdfrwt beam="1">  1        1 0.38560731E+00 0.64722432E+03</pdfrwt>
<pdfrwt beam="2">0</pdfrwt>
<totfact> 0.15507759E+00</totfact>
</mgrwt>
</event>
<event>
 6    1  0.2236758E-003  0.6139938E+03  0.7818608E-02  0.9876791E-01
          1   -1    0    0  502    0  0.00000000000E+00  0.00000000000E+00  0.94247454090E+02  0.94247454090E+02  0.00000000000E+00 0.  1.
         13   -1    0    0    0    0 -0.00000000000E+00 -0.00000000000E+00 -0.10000000000E+04  0.10000000000E+04  0.00000000000E+00 0.  1.
    9000005    2    1    2  501    0 -0.51567703281E-04 -0.31174241826E-04 -0.90575289221E+03  0.10942471026E+04  0.61399382714E+03 0.  0.
         13    1    3    3    0    0 -0.28379265425E+03  0.96353436051E+02 -0.33432656291E+03  0.44899499542E+03  0.00000000000E+00 0.  1.
          1    1    3    3  501    0  0.28379260268E+03 -0.96353467225E+02 -0.57142632930E+03  0.64525210717E+03  0.00000000000E+00 0.  1.
         21    1    1    2  502  501  0.51567703256E-04  0.31174241837E-04  0.34630087034E-03  0.35150441558E-03  0.00000000000E+00 0.  1.
<mgrwt>
<rscale>  1 0.61399383E+03</rscale>
<asrwt>0</asrwt>
<pdfrwt beam="1">  1        1 0.34271874E+00 0.61399383E+03</pdfrwt>
<pdfrwt beam="2">0</pdfrwt>
<totfact> 0.24050024E+00</totfact>
</mgrwt>
</event>
<event>
 6    1  0.2236758E-003  0.6451684E+03  0.7818608E-02  0.9815888E-01
          1   -1    0    0  502    0  0.00000000000E+00  0.00000000000E+00  0.10406309892E+03  0.10406309892E+03  0.00000000000E+00 0.  1.
         13   -1    0    0    0    0 -0.00000000000E+00 -0.00000000000E+00 -0.10000000000E+04  0.10000000000E+04  0.00000000000E+00 0.  1.
    9000005    2    1    2  501    0 -0.20113107281E-03  0.22461476686E-03 -0.89593942922E+03  0.11040605529E+04  0.64516838389E+03 0.  0.
         13    1    3    3    0    0  0.61642714853E+02 -0.14777885395E+03 -0.92719416163E+03  0.94091839568E+03  0.00000000000E+00 0.  1.
          3    1    3    3  501    0 -0.61642915984E+02  0.14777907857E+03  0.31254732411E+02  0.16314215719E+03  0.00000000000E+00 0.  1.
         21    1    1    2  502  501  0.20113107281E-03 -0.22461476687E-03  0.25281418927E-02  0.25460571344E-02  0.00000000000E+00 0.  1.
<mgrwt>
<rscale>  1 0.64516838E+03</rscale>
<asrwt>0</asrwt>
<pdfrwt beam="1">  1        1 0.37841207E+00 0.64516838E+03</pdfrwt>
<pdfrwt beam="2">0</pdfrwt>
<totfact> 0.16691314E+00</totfact>
</mgrwt>
</event>
<event>
 6    1  0.2236758E-003  0.6461759E+03  0.7818608E-02  0.9813981E-01
          1   -1    0    0  502    0  0.00000000000E+00  0.00000000000E+00  0.10449347017E+03  0.10449347017E+03  0.00000000000E+00 0.  1.
         13   -1    0    0    0    0 -0.00000000000E+00 -0.00000000000E+00 -0.10000000000E+04  0.10000000000E+04  0.00000000000E+00 0.  1.
    9000005    2    1    2  501    0 -0.51361159506E-02 -0.22101573800E-02 -0.89561408815E+03  0.11043857666E+04  0.64617592539E+03 0.  0.
         13    1    3    3    0    0 -0.65653185990E+02 -0.15452138680E+03 -0.91959504190E+03  0.93479529357E+03  0.00000000000E+00 0.  1.
          1    1    3    3  501    0  0.65648049874E+02  0.15451917664E+03  0.23980953741E+02  0.16959047303E+03  0.00000000000E+00 0.  1.
         21    1    1    2  502  501  0.51361159506E-02  0.22101573801E-02  0.10755832157E+00  0.10770356086E+00  0.00000000000E+00 0. -1.
<mgrwt>
<rscale>  1 0.64617593E+03</rscale>
<asrwt>0</asrwt>
<pdfrwt beam="1">  1        1 0.37997706E+00 0.64617593E+03</pdfrwt>
<pdfrwt beam="2">0</pdfrwt>
<totfact> 0.16425090E+00</totfact>
</mgrwt>
</event>
<event>
 6    1  0.2236758E-003  0.6548025E+03  0.7818608E-02  0.9797809E-01
          1   -1    0    0  502    0  0.00000000000E+00  0.00000000000E+00  0.12166258885E+03  0.12166258885E+03  0.00000000000E+00 0.  1.
         13   -1    0    0    0    0 -0.00000000000E+00 -0.00000000000E+00 -0.10000000000E+04  0.10000000000E+04  0.00000000000E+00 0.  1.
    9000005    2    1    2  501    0 -0.50038261759E+01 -0.25410726074E+01 -0.89220349696E+03  0.11067038569E+04  0.65477847515E+03 0.  0.
         13    1    3    3    0    0 -0.16279106439E+03 -0.27118893156E+02 -0.92840716522E+03  0.94296141461E+03  0.00000000000E+00 0.  1.
          1    1    3    3  501    0  0.15778723821E+03  0.24577820548E+02  0.36203668257E+02  0.16374244227E+03  0.00000000000E+00 0.  1.
         21    1    1    2  502  501  0.50038261759E+01  0.25410726074E+01  0.13866085809E+02  0.14958731966E+02  0.00000000000E+00 0. -1.
<mgrwt>
<rscale>  1 0.65480253E+03</rscale>
<asrwt>0</asrwt>
<pdfrwt beam="1">  1        1 0.44241035E+00 0.65480253E+03</pdfrwt>
<pdfrwt beam="2">0</pdfrwt>
<totfact> 0.86001120E-01</totfact>
</mgrwt>
</event>
<event>
 6    1  0.2236758E-003  0.6531927E+03  0.7818608E-02  0.9800807E-01
          1   -1    0    0  502    0  0.00000000000E+00  0.00000000000E+00  0.10686546432E+03  0.10686546432E+03  0.00000000000E+00 0.  1.
         13   -1    0    0    0    0 -0.00000000000E+00 -0.00000000000E+00 -0.10000000000E+04  0.10000000000E+04  0.00000000000E+00 0.  1.
    9000005    2    1    2  501    0 -0.19452653889E+00 -0.19491649651E+00 -0.89322419322E+03  0.11065758586E+04  0.65319261752E+03 0.  0.
         13    1    3    3    0    0 -0.26721963877E+03 -0.25193003156E+00 -0.12837929187E+03  0.29645849860E+03  0.00000000000E+00 0.  1.
          3    1    3    3  501    0  0.26702511223E+03  0.57013535055E-01 -0.76484490134E+03  0.81011735997E+03  0.00000000000E+00 0.  1.
         21    1    1    2  502  501  0.19452653889E+00  0.19491649651E+00  0.89657532457E-01  0.28960574592E+00  0.00000000000E+00 0. -1.
<mgrwt>
<rscale>  1 0.65319268E+03</rscale>
<asrwt>0</asrwt>
<pdfrwt beam="1">  1        1 0.38860251E+00 0.65319268E+03</pdfrwt>
<pdfrwt beam="2">0</pdfrwt>
<totfact> 0.15024720E+00</totfact>
</mgrwt>
</event>
<event>
 6    1  0.2236758E-003  0.6297811E+03  0.7818608E-02  0.9845476E-01
          1   -1    0    0  502    0  0.00000000000E+00  0.00000000000E+00  0.10290646301E+03  0.10290646301E+03  0.00000000000E+00 0.  1.
         13   -1    0    0    0    0 -0.00000000000E+00 -0.00000000000E+00 -0.10000000000E+04  0.10000000000E+04  0.00000000000E+00 0.  1.
    9000005    2    1    2  501    0 -0.15994551206E+01 -0.11860718615E+01 -0.90055134477E+03  0.10989162929E+04  0.62977799987E+03 0.  0.
         13    1    3    3    0    0  0.84447626710E+01  0.13266923159E+03 -0.94744756115E+03  0.95672844640E+03  0.00000000000E+00 0.  1.
          3    1    3    3  501    0 -0.10044217792E+02 -0.13385530345E+03  0.46896216374E+02  0.14218784646E+03  0.00000000000E+00 0.  1.
         21    1    1    2  502  501  0.15994551206E+01  0.11860718615E+01  0.34578077776E+01  0.39901701430E+01  0.00000000000E+00 0.  1.
<mgrwt>
<rscale>  1 0.62978115E+03</rscale>
<asrwt>0</asrwt>
<pdfrwt beam="1">  1        1 0.37420611E+00 0.62978115E+03</pdfrwt>
<pdfrwt beam="2">0</pdfrwt>
<totfact> 0.17468093E+00</totfact>
</mgrwt>
</event>
<event>
 6    1  0.2236758E-003  0.6477606E+03  0.7818608E-02  0.9810990E-01
          1   -1    0    0  502    0  0.00000000000E+00  0.00000000000E+00  0.10489875365E+03  0.10489875365E+03  0.00000000000E+00 0.  1.
         13   -1    0    0    0    0 -0.00000000000E+00 -0.00000000000E+00 -0.10000000000E+04  0.10000000000E+04  0.00000000000E+00 0.  1.
    9000005    2    1    2  501    0 -0.81502850236E-04 -0.28313964151E-04 -0.89510152903E+03  0.11048984581E+04  0.64776064672E+03 0.  0.
         13    1    3    3    0    0  0.10745308683E+03  0.30207491756E+03 -0.52577292479E+03  0.61581863412E+03  0.00000000000E+00 0.  1.
          3    1    3    3  501    0 -0.10745316834E+03 -0.30207494588E+03 -0.36932860424E+03  0.48907982398E+03  0.00000000000E+00 0.  1.
         21    1    1    2  502  501  0.81502850242E-04  0.28313964148E-04  0.28267374265E-03  0.29554837158E-03  0.00000000000E+00 0. -1.
<mgrwt>
<rscale>  1 0.64776065E+03</rscale>
<asrwt>0</asrwt>
<pdfrwt beam="1">  1        1 0.38145082E+00 0.64776065E+03</pdfrwt>
<pdfrwt beam="2">0</pdfrwt>
<totfact> 0.16176193E+00</totfact>
</mgrwt>
</event>
<event>
 6    1  0.2236758E-003  0.5991044E+03  0.7818608E-02  0.9907266E-01
          1   -1    0    0  502    0  0.00000000000E+00  0.00000000000E+00  0.89732196831E+02  0.89732196831E+02  0.00000000000E+00 0.  1.
         13   -1    0    0    0    0 -0.00000000000E+00 -0.00000000000E+00 -0.10000000000E+04  0.10000000000E+04  0.00000000000E+00 0.  1.
    9000005    2    1    2  501    0 -0.74615424040E-04  0.11499913168E-03 -0.91026846240E+03  0.10897315235E+04  0.59910443134E+03 0.  0.
         13    1    3    3    0    0  0.13775656885E+03  0.20942335894E+03 -0.15682613274E+03  0.29568471628E+03  0.00000000000E+00 0.  1.
          1    1    3    3  501    0 -0.13775664346E+03 -0.20942324394E+03 -0.75344232966E+03  0.79404680722E+03  0.00000000000E+00 0.  1.
         21    1    1    2  502  501  0.74615424054E-04 -0.11499913167E-03  0.65923458104E-03  0.67333683594E-03  0.00000000000E+00 0. -1.
<mgrwt>
<rscale>  1 0.59910443E+03</rscale>
<asrwt>0</asrwt>
<pdfrwt beam="1">  1        1 0.32629959E+00 0.59910443E+03</pdfrwt>
<pdfrwt beam="2">0</pdfrwt>
<totfact> 0.28409733E+00</totfact>
</mgrwt>
</event>
<event>
 6    1  0.2236758E-003  0.6583450E+03  0.7818608E-02  0.9791245E-01
          1   -1    0    0  502    0  0.00000000000E+00  0.00000000000E+00  0.10994275683E+03  0.10994275683E+03  0.00000000000E+00 0.  1.
         13   -1    0    0    0    0 -0.00000000000E+00 -0.00000000000E+00 -0.10000000000E+04  0.10000000000E+04  0.00000000000E+00 0.  1.
    9000005    2    1    2  501    0  0.20110945946E-01 -0.18975362792E-01 -0.89164533215E+03  0.11083544272E+04  0.65834499854E+03 0.  0.
         13    1    3    3    0    0 -0.17770445662E+03  0.22873839528E+03 -0.18257758679E+03  0.34239553528E+03  0.00000000000E+00 0.  1.
          1    1    3    3  501    0  0.17772456757E+03 -0.22875737064E+03 -0.70906774537E+03  0.76595889189E+03  0.00000000000E+00 0.  1.
         21    1    1    2  502  501 -0.20110945946E-01  0.18975362792E-01  0.15880889820E+01  0.15883296664E+01  0.00000000000E+00 0.  1.
<mgrwt>
<rscale>  1 0.65834500E+03</rscale>
<asrwt>0</asrwt>
<pdfrwt beam="1">  1        1 0.39979269E+00 0.65834500E+03</pdfrwt>
<pdfrwt beam="2">0</pdfrwt>
<totfact> 0.13386075E+00</totfact>
</mgrwt>
</event>
<event>
 6    1  0.2236758E-003  0.6476142E+03  0.7818608E-02  0.9811266E-01
          1   -1    0    0  502    0  0.00000000000E+00  0.00000000000E+00  0.10488252628E+03  0.10488252628E+03  0.00000000000E+00 0.  1.
         13   -1    0    0    0    0 -0.00000000000E+00 -0.00000000000E+00 -0.10000000000E+04  0.10000000000E+04  0.00000000000E+00 0.  1.
    9000005    2    1    2  501    0  0.23340209464E-03  0.19358095459E-02 -0.89514893773E+03  0.11048510019E+04  0.64761417195E+03 0.  0.
         13    1    3    3    0    0  0.32175367844E+03  0.28884490645E+02 -0.48539394153E+03  0.58306691028E+03  0.00000000000E+00 0.  1.
          3    1    3    3  501    0 -0.32175344504E+03 -0.28882554835E+02 -0.40975499620E+03  0.52178409163E+03  0.00000000000E+00 0.  1.
         21    1    1    2  502  501 -0.23340209461E-03 -0.19358095459E-02  0.31464011971E-01  0.31524369692E-01  0.00000000000E+00 0.  1.
<mgrwt>
<rscale>  1 0.64761417E+03</rscale>
<asrwt>0</asrwt>
<pdfrwt beam="1">  1        1 0.38139181E+00 0.64761417E+03</pdfrwt>
<pdfrwt beam="2">0</pdfrwt>
<totfact> 0.16186337E+00</totfact>
</mgrwt>
</event>
<event>
 6    1  0.2236758E-003  0.6530210E+03  0.7818608E-02  0.9801127E-01
          1   -1    0    0  502    0  0.00000000000E+00  0.00000000000E+00  0.10661047839E+03  0.10661047839E+03  0.00000000000E+00 0.  1.
         13   -1    0    0    0    0 -0.00000000000E+00 -0.00000000000E+00 -0.10000000000E+04  0.10000000000E+04  0.00000000000E+00 0.  1.
    9000005    2    1    2  501    0 -0.81233098740E-04  0.18232973673E-04 -0.89339089276E+03  0.11066091047E+04  0.65302099766E+03 0.  0.
         13    1    3    3    0    0  0.16361308061E+03  0.11181251835E+03 -0.88643606232E+03  0.90831721992E+03  0.00000000000E+00 0.  1.
          3    1    3    3  501    0 -0.16361316185E+03 -0.11181250012E+03 -0.69548304322E+01  0.19829188480E+03  0.00000000000E+00 0.  1.
         21    1    1    2  502  501  0.81233098731E-04 -0.18232973674E-04  0.13711512404E-02  0.13736764472E-02  0.00000000000E+00 0. -1.
<mgrwt>
<rscale>  1 0.65302100E+03</rscale>
<asrwt>0</asrwt>
<pdfrwt beam="1">  1        1 0.38767528E+00 0.65302100E+03</pdfrwt>
<pdfrwt beam="2">0</pdfrwt>
<totfact> 0.15167995E+00</totfact>
</mgrwt>
</event>
<event>
 6    1  0.2236758E-003  0.6308442E+03  0.7818608E-02  0.9843403E-01
          1   -1    0    0  502    0  0.00000000000E+00  0.00000000000E+00  0.99491110741E+02  0.99491110741E+02  0.00000000000E+00 0.  1.
         13   -1    0    0    0    0 -0.00000000000E+00 -0.00000000000E+00 -0.10000000000E+04  0.10000000000E+04  0.00000000000E+00 0.  1.
    9000005    2    1    2  501    0 -0.13102102528E-04  0.88672247784E-05 -0.90050890723E+03  0.10994910868E+04  0.63084416297E+03 0.  0.
         13    1    3    3    0    0 -0.10097338936E+03 -0.20448715058E+03 -0.70478795630E+02  0.23870039955E+03  0.00000000000E+00 0.  1.
          1    1    3    3  501    0  0.10097337626E+03  0.20448715945E+03 -0.83003011160E+03  0.86079068725E+03  0.00000000000E+00 0.  1.
         21    1    1    2  502  501  0.13102102526E-04 -0.88672247867E-05  0.17969822030E-04  0.23941747426E-04  0.00000000000E+00 0. -1.
<mgrwt>
<rscale>  1 0.63084416E+03</rscale>
<asrwt>0</asrwt>
<pdfrwt beam="1">  1        1 0.36178662E+00 0.63084416E+03</pdfrwt>
<pdfrwt beam="2">0</pdfrwt>
<totfact> 0.19799169E+00</totfact>
</mgrwt>
</event>
<event>
 6    1  0.2236758E-003  0.6516981E+03  0.7818608E-02  0.9803598E-01
          1   -1    0    0  502    0  0.00000000000E+00  0.00000000000E+00  0.10634855464E+03  0.10634855464E+03  0.00000000000E+00 0.  1.
         13   -1    0    0    0    0 -0.00000000000E+00 -0.00000000000E+00 -0.10000000000E+04  0.10000000000E+04  0.00000000000E+00 0.  1.
    9000005    2    1    2  501    0  0.75724351724E-02  0.13962597692E-01 -0.89382198527E+03  0.11061772766E+04  0.65169810935E+03 0.  0.
         13    1    3    3    0    0  0.14957495378E+03 -0.45754513262E+02 -0.93211235310E+03  0.94514526983E+03  0.00000000000E+00 0.  1.
          1    1    3    3  501    0 -0.14956738134E+03  0.45768475860E+02  0.38290367833E+02  0.16103200680E+03  0.00000000000E+00 0.  1.
         21    1    1    2  502  501 -0.75724351724E-02 -0.13962597692E-01  0.17053990969E+00  0.17127800999E+00  0.00000000000E+00 0. -1.
<mgrwt>
<rscale>  1 0.65169811E+03</rscale>
<asrwt>0</asrwt>
<pdfrwt beam="1">  1        1 0.38672283E+00 0.65169811E+03</pdfrwt>
<pdfrwt beam="2">0</pdfrwt>
<totfact> 0.15319767E+00</totfact>
</mgrwt>
</event>
<event>
 6    1  0.2236758E-003  0.6356342E+03  0.7818608E-02  0.9834115E-01
          1   -1    0    0  502    0  0.00000000000E+00  0.00000000000E+00  0.10101242832E+03  0.10101242832E+03  0.00000000000E+00 0.  1.
         13   -1    0    0    0    0 -0.00000000000E+00 -0.00000000000E+00 -0.10000000000E+04  0.10000000000E+04  0.00000000000E+00 0.  1.
    9000005    2    1    2  501    0 -0.76808320443E-04 -0.14804318028E-01 -0.89896546644E+03  0.11009858235E+04  0.63563422936E+03 0.  0.
         13    1    3    3    0    0  0.27993678707E+03 -0.12621629071E+03 -0.59141819255E+03  0.66638625081E+03  0.00000000000E+00 0.  1.
          3    1    3    3  501    0 -0.27993686387E+03  0.12620148640E+03 -0.30754727390E+03  0.43459957272E+03  0.00000000000E+00 0.  1.
         21    1    1    2  502  501  0.76808320415E-04  0.14804318028E-01 -0.22105237436E-01  0.26604797573E-01  0.00000000000E+00 0. -1.
<mgrwt>
<rscale>  1 0.63563423E+03</rscale>
<asrwt>0</asrwt>
<pdfrwt beam="1">  1        1 0.36731870E+00 0.63563423E+03</pdfrwt>
<pdfrwt beam="2">0</pdfrwt>
<totfact> 0.18708145E+00</totfact>
</mgrwt>
</event>
<event>
 6    1  0.2236758E-003  0.6621481E+03  0.7818608E-02  0.9784247E-01
          1   -1    0    0  502    0  0.00000000000E+00  0.00000000000E+00  0.10964529641E+03  0.10964529641E+03  0.00000000000E+00 0.  1.
         13   -1    0    0    0    0 -0.00000000000E+00 -0.00000000000E+00 -0.10000000000E+04  0.10000000000E+04  0.00000000000E+00 0.  1.
    9000005    2    1    2  501    0  0.31761171419E-03  0.84148946845E-02 -0.89038942024E+03  0.11096095731E+04  0.66214808380E+03 0.  0.
         13    1    3    3    0    0 -0.11499474468E+03 -0.26754589969E+03 -0.70910765841E+03  0.76657567856E+03  0.00000000000E+00 0.  1.
          3    1    3    3  501    0  0.11499506229E+03  0.26755431459E+03 -0.18128176184E+03  0.34303389450E+03  0.00000000000E+00 0.  1.
         21    1    1    2  502  501 -0.31761171419E-03 -0.84148946845E-02  0.34716658157E-01  0.35723349274E-01  0.00000000000E+00 0. -1.
<mgrwt>
<rscale>  1 0.66214808E+03</rscale>
<asrwt>0</asrwt>
<pdfrwt beam="1">  1        1 0.39871101E+00 0.66214808E+03</pdfrwt>
<pdfrwt beam="2">0</pdfrwt>
<totfact> 0.13525857E+00</totfact>
</mgrwt>
</event>
<event>
 6    1  0.2236758E-003  0.6664954E+03  0.7818608E-02  0.9776310E-01
          1   -1    0    0  502    0  0.00000000000E+00  0.00000000000E+00  0.11285201774E+03  0.11285201774E+03  0.00000000000E+00 0.  1.
         13   -1    0    0    0    0 -0.00000000000E+00 -0.00000000000E+00 -0.10000000000E+04  0.10000000000E+04  0.00000000000E+00 0.  1.
    9000005    2    1    2  501    0 -0.46611001417E-03  0.25377324358E-01 -0.88894587963E+03  0.11110539412E+04  0.66649537338E+03 0.  0.
         13    1    3    3    0    0 -0.14928499614E+03  0.14001009822E+02  0.51646774405E+02  0.15858571076E+03  0.00000000000E+00 0.  1.
          3    1    3    3  501    0  0.14928453003E+03 -0.13975632497E+02 -0.94059265404E+03  0.95246823046E+03  0.00000000000E+00 0.  1.
         21    1    1    2  502  501  0.46611001418E-03 -0.25377324358E-01  0.17978973664E+01  0.17980765183E+01  0.00000000000E+00 0. -1.
<mgrwt>
<rscale>  1 0.66649537E+03</rscale>
<asrwt>0</asrwt>
<pdfrwt beam="1">  1        1 0.41037184E+00 0.66649537E+03</pdfrwt>
<pdfrwt beam="2">0</pdfrwt>
<totfact> 0.11986019E+00</totfact>
</mgrwt>
</event>
<event>
 6    1  0.2236758E-003  0.6426116E+03  0.7818608E-02  0.9820743E-01
          1   -1    0    0  502    0  0.00000000000E+00  0.00000000000E+00  0.11775698978E+03  0.11775698978E+03  0.00000000000E+00 0.  1.
         13   -1    0    0    0    0 -0.00000000000E+00 -0.00000000000E+00 -0.10000000000E+04  0.10000000000E+04  0.00000000000E+00 0.  1.
    9000005    2    1    2  501    0 -0.25611277229E+00  0.66621334596E+00 -0.89675289017E+03  0.11032295657E+04  0.64261125045E+03 0.  0.
         13    1    3    3    0    0  0.24617178133E+03  0.20660068914E+03 -0.45752319477E+03  0.55911704001E+03  0.00000000000E+00 0.  1.
          1    1    3    3  501    0 -0.24642789410E+03 -0.20593447579E+03 -0.43922969539E+03  0.54411252570E+03  0.00000000000E+00 0.  1.
         21    1    1    2  502  501  0.25611277229E+00 -0.66621334596E+00  0.14509879951E+02  0.14527424072E+02  0.00000000000E+00 0. -1.
<mgrwt>
<rscale>  1 0.64261165E+03</rscale>
<asrwt>0</asrwt>
<pdfrwt beam="1">  1        1 0.42820814E+00 0.64261165E+03</pdfrwt>
<pdfrwt beam="2">0</pdfrwt>
<totfact> 0.10006619E+00</totfact>
</mgrwt>
</event>
<event>
 6    1  0.2236758E-003  0.6385466E+03  0.7818608E-02  0.9828511E-01
          1   -1    0    0  502    0  0.00000000000E+00  0.00000000000E+00  0.10193697363E+03  0.10193697363E+03  0.00000000000E+00 0.  1.
         13   -1    0    0    0    0 -0.00000000000E+00 -0.00000000000E+00 -0.10000000000E+04  0.10000000000E+04  0.00000000000E+00 0.  1.
    9000005    2    1    2  501    0  0.66270158669E-04 -0.29067423216E-03 -0.89806455250E+03  0.11019354187E+04  0.63854657341E+03 0.  0.
         13    1    3    3    0    0  0.25083756536E+03  0.17761137761E+03 -0.59818351520E+03  0.67252420292E+03  0.00000000000E+00 0.  1.
          1    1    3    3  501    0 -0.25083749909E+03 -0.17761166829E+03 -0.29988103730E+03  0.42941121573E+03  0.00000000000E+00 0.  1.
         21    1    1    2  502  501 -0.66270158678E-04  0.29067423216E-03  0.15261370036E-02  0.15549846934E-02  0.00000000000E+00 0. -1.
<mgrwt>
<rscale>  1 0.63854657E+03</rscale>
<asrwt>0</asrwt>
<pdfrwt beam="1">  1        1 0.37068069E+00 0.63854657E+03</pdfrwt>
<pdfrwt beam="2">0</pdfrwt>
<totfact> 0.18073477E+00</totfact>
</mgrwt>
</event>
<event>
 6    1  0.2236758E-003  0.6517089E+03  0.7818608E-02  0.9803578E-01
          1   -1    0    0  502    0  0.00000000000E+00  0.00000000000E+00  0.10618339158E+03  0.10618339158E+03  0.00000000000E+00 0.  1.
         13   -1    0    0    0    0 -0.00000000000E+00 -0.00000000000E+00 -0.10000000000E+04  0.10000000000E+04  0.00000000000E+00 0.  1.
    9000005    2    1    2  501    0 -0.47781554542E-04 -0.63435764123E-03 -0.89381882050E+03  0.11061810898E+04  0.65170892247E+03 0.  0.
         13    1    3    3    0    0  0.32022945474E+03  0.48166821277E+02 -0.50844017573E+03  0.60280872476E+03  0.00000000000E+00 0.  1.
          1    1    3    3  501    0 -0.32022950253E+03 -0.48167455635E+02 -0.38537864478E+03  0.50337236507E+03  0.00000000000E+00 0.  1.
         21    1    1    2  502  501  0.47781554589E-04  0.63435764123E-03  0.22120857424E-02  0.23017419547E-02  0.00000000000E+00 0. -1.
<mgrwt>
<rscale>  1 0.65170892E+03</rscale>
<asrwt>0</asrwt>
<pdfrwt beam="1">  1        1 0.38612224E+00 0.65170892E+03</pdfrwt>
<pdfrwt beam="2">0</pdfrwt>
<totfact> 0.15413803E+00</totfact>
</mgrwt>
</event>
<event>
 6    1  0.2236758E-003  0.6544569E+03  0.7818608E-02  0.9798452E-01
          1   -1    0    0  502    0  0.00000000000E+00  0.00000000000E+00  0.10707851842E+03  0.10707851842E+03  0.00000000000E+00 0.  1.
         13   -1    0    0    0    0 -0.00000000000E+00 -0.00000000000E+00 -0.10000000000E+04  0.10000000000E+04  0.00000000000E+00 0.  1.
    9000005    2    1    2  501    0 -0.11336053547E-04  0.75941787095E-04 -0.89292151796E+03  0.11070784335E+04  0.65445688979E+03 0.  0.
         13    1    3    3    0    0 -0.37139822457E+02  0.52202109926E+02 -0.98928747576E+03  0.99135974116E+03  0.00000000000E+00 0.  1.
          3    1    3    3  501    0  0.37139811121E+02 -0.52202033984E+02  0.96365957806E+02  0.11571869229E+03  0.00000000000E+00 0.  1.
         21    1    1    2  502  501  0.11336053547E-04 -0.75941787095E-04  0.36372171434E-04  0.84962321014E-04  0.00000000000E+00 0.  1.
<mgrwt>
<rscale>  1 0.65445689E+03</rscale>
<asrwt>0</asrwt>
<pdfrwt beam="1">  1        1 0.38937725E+00 0.65445689E+03</pdfrwt>
<pdfrwt beam="2">0</pdfrwt>
<totfact> 0.14902897E+00</totfact>
</mgrwt>
</event>
<event>
 6    1  0.2236758E-003  0.6406084E+03  0.7818608E-02  0.9824563E-01
          1   -1    0    0  502    0  0.00000000000E+00  0.00000000000E+00  0.10259794033E+03  0.10259794033E+03  0.00000000000E+00 0.  1.
         13   -1    0    0    0    0 -0.00000000000E+00 -0.00000000000E+00 -0.10000000000E+04  0.10000000000E+04  0.00000000000E+00 0.  1.
    9000005    2    1    2  501    0 -0.43715965063E-03  0.32921281789E-03 -0.89740520446E+03  0.11025947483E+04  0.64060836548E+03 0.  0.
         13    1    3    3    0    0  0.26470148158E+03  0.18000789964E+03 -0.42945963803E+03  0.53563541610E+03  0.00000000000E+00 0.  1.
          3    1    3    3  501    0 -0.26470191874E+03 -0.18000757042E+03 -0.46794556643E+03  0.56695933217E+03  0.00000000000E+00 0.  1.
         21    1    1    2  502  501  0.43715965064E-03 -0.32921281790E-03  0.31447983834E-02  0.31920599168E-02  0.00000000000E+00 0.  1.
<mgrwt>
<rscale>  1 0.64060837E+03</rscale>
<asrwt>0</asrwt>
<pdfrwt beam="1">  1        1 0.37308421E+00 0.64060837E+03</pdfrwt>
<pdfrwt beam="2">0</pdfrwt>
<totfact> 0.17632486E+00</totfact>
</mgrwt>
</event>
<event>
 6    1  0.2236758E-003  0.6528444E+03  0.7818608E-02  0.9801456E-01
          1   -1    0    0  502    0  0.00000000000E+00  0.00000000000E+00  0.10655694140E+03  0.10655694140E+03  0.00000000000E+00 0.  1.
         13   -1    0    0    0    0 -0.00000000000E+00 -0.00000000000E+00 -0.10000000000E+04  0.10000000000E+04  0.00000000000E+00 0.  1.
    9000005    2    1    2  501    0 -0.26001413407E-02 -0.92275034962E-03 -0.89344815788E+03  0.11065511436E+04  0.65284440910E+03 0.  0.
         13    1    3    3    0    0  0.17575843549E+03  0.27386975847E+03 -0.49010432152E+03  0.58830087390E+03  0.00000000000E+00 0.  1.
          1    1    3    3  501    0 -0.17576103563E+03 -0.27387068123E+03 -0.40334383636E+03  0.51825026967E+03  0.00000000000E+00 0.  1.
         21    1    1    2  502  501  0.26001413407E-02  0.92275034964E-03  0.50992888332E-02  0.57978400982E-02  0.00000000000E+00 0. -1.
<mgrwt>
<rscale>  1 0.65284441E+03</rscale>
<asrwt>0</asrwt>
<pdfrwt beam="1">  1        1 0.38748060E+00 0.65284441E+03</pdfrwt>
<pdfrwt beam="2">0</pdfrwt>
<totfact> 0.15198637E+00</totfact>
</mgrwt>
</event>
<event>
 6    1  0.2236758E-003  0.6482714E+03  0.7818608E-02  0.9810028E-01
          1   -1    0    0  502    0  0.00000000000E+00  0.00000000000E+00  0.10516748639E+03  0.10516748639E+03  0.00000000000E+00 0.  1.
         13   -1    0    0    0    0 -0.00000000000E+00 -0.00000000000E+00 -0.10000000000E+04  0.10000000000E+04  0.00000000000E+00 0.  1.
    9000005    2    1    2  501    0 -0.76896809408E-02 -0.25117667905E-01 -0.89493420299E+03  0.11050624590E+04  0.64827140138E+03 0.  0.
         13    1    3    3    0    0 -0.40958058230E+02 -0.25505245241E+03 -0.11369880430E+03  0.28223524605E+03  0.00000000000E+00 0.  1.
          1    1    3    3  501    0  0.40950368549E+02  0.25502733474E+03 -0.78123539869E+03  0.82282721292E+03  0.00000000000E+00 0.  1.
         21    1    1    2  502  501  0.76896809408E-02  0.25117667905E-01  0.10168938376E+00  0.10502742119E+00  0.00000000000E+00 0.  1.
<mgrwt>
<rscale>  1 0.64827140E+03</rscale>
<asrwt>0</asrwt>
<pdfrwt beam="1">  1        1 0.38242803E+00 0.64827140E+03</pdfrwt>
<pdfrwt beam="2">0</pdfrwt>
<totfact> 0.16014732E+00</totfact>
</mgrwt>
</event>
<event>
 6    1  0.2236758E-003  0.4845337E+03  0.7818608E-02  0.1017897E+00
          3   -1    0    0  502    0  0.00000000000E+00  0.00000000000E+00  0.58889991578E+02  0.58889991578E+02  0.00000000000E+00 0.  1.
         13   -1    0    0    0    0 -0.00000000000E+00 -0.00000000000E+00 -0.10000000000E+04  0.10000000000E+04  0.00000000000E+00 0.  1.
    9000005    2    1    2  501    0 -0.34002850437E-02  0.85857123675E-02 -0.94130667006E+03  0.10586931133E+04  0.48453365298E+03 0.  0.
         13    1    3    3    0    0 -0.41583584311E+01  0.23855140441E+03 -0.37870529308E+03  0.44759553561E+03  0.00000000000E+00 0.  1.
          3    1    3    3  501    0  0.41549581461E+01 -0.23854281869E+03 -0.56260137698E+03  0.61109757764E+03  0.00000000000E+00 0.  1.
         21    1    1    2  502  501  0.34002850437E-02 -0.85857123675E-02  0.19666163513E+00  0.19687832570E+00  0.00000000000E+00 0. -1.
<mgrwt>
<rscale>  1 0.48453365E+03</rscale>
<asrwt>0</asrwt>
<pdfrwt beam="1">  1        3 0.21414588E+00 0.48453365E+03</pdfrwt>
<pdfrwt beam="2">0</pdfrwt>
<totfact> 0.62837725E-01</totfact>
</mgrwt>
</event>
<event>
 6    1  0.2236758E-003  0.6537046E+03  0.7818608E-02  0.9799852E-01
          1   -1    0    0  502    0  0.00000000000E+00  0.00000000000E+00  0.10683250647E+03  0.10683250647E+03  0.00000000000E+00 0.  1.
         13   -1    0    0    0    0 -0.00000000000E+00 -0.00000000000E+00 -0.10000000000E+04  0.10000000000E+04  0.00000000000E+00 0.  1.
    9000005    2    1    2  501    0  0.12146500217E-03 -0.24540902444E-04 -0.89316749609E+03  0.11068323825E+04  0.65370463279E+03 0.  0.
         13    1    3    3    0    0  0.12895029227E+03  0.10210546027E+03 -0.92482157513E+03  0.93933415179E+03  0.00000000000E+00 0.  1.
          3    1    3    3  501    0 -0.12895017080E+03 -0.10210548481E+03  0.31654079042E+02  0.16749823073E+03  0.00000000000E+00 0.  1.
         21    1    1    2  502  501 -0.12146500218E-03  0.24540902442E-04  0.25619031729E-05  0.12394581879E-03  0.00000000000E+00 0. -1.
<mgrwt>
<rscale>  1 0.65370463E+03</rscale>
<asrwt>0</asrwt>
<pdfrwt beam="1">  1        1 0.38848266E+00 0.65370463E+03</pdfrwt>
<pdfrwt beam="2">0</pdfrwt>
<totfact> 0.15041678E+00</totfact>
</mgrwt>
</event>
<event>
 6    1  0.2236758E-003  0.6509255E+03  0.7818608E-02  0.9805044E-01
          1   -1    0    0  502    0  0.00000000000E+00  0.00000000000E+00  0.10772287245E+03  0.10772287245E+03  0.00000000000E+00 0.  1.
         13   -1    0    0    0    0 -0.00000000000E+00 -0.00000000000E+00 -0.10000000000E+04  0.10000000000E+04  0.00000000000E+00 0.  1.
    9000005    2    1    2  501    0  0.26246736831E+00  0.53748319568E+00 -0.89401877510E+03  0.11058813748E+04  0.65092525469E+03 0.  0.
         13    1    3    3    0    0  0.50993360041E+02  0.28517075915E+03 -0.70032472433E+03  0.75787690567E+03  0.00000000000E+00 0.  1.
          3    1    3    3  501    0 -0.50730892673E+02 -0.28463327596E+03 -0.19369405077E+03  0.34800446916E+03  0.00000000000E+00 0.  1.
         21    1    1    2  502  501 -0.26246736831E+00 -0.53748319568E+00  0.17416475483E+01  0.18414976208E+01  0.00000000000E+00 0. -1.
<mgrwt>
<rscale>  1 0.65092553E+03</rscale>
<asrwt>0</asrwt>
<pdfrwt beam="1">  1        1 0.39172036E+00 0.65092553E+03</pdfrwt>
<pdfrwt beam="2">0</pdfrwt>
<totfact> 0.14560051E+00</totfact>
</mgrwt>
</event>
<event>
 6    1  0.2236758E-003  0.6516833E+03  0.7818608E-02  0.9803626E-01
          1   -1    0    0  502    0  0.00000000000E+00  0.00000000000E+00  0.10654219571E+03  0.10654219571E+03  0.00000000000E+00 0.  1.
         13   -1    0    0    0    0 -0.00000000000E+00 -0.00000000000E+00 -0.10000000000E+04  0.10000000000E+04  0.00000000000E+00 0.  1.
    9000005    2    1    2  501    0 -0.23905314713E-01 -0.64678635028E-01 -0.89382365332E+03  0.11061699051E+04  0.65168330571E+03 0.  0.
         13    1    3    3    0    0  0.17491200599E+03 -0.10260510904E+03 -0.87984893517E+03  0.90291537087E+03  0.00000000000E+00 0.  1.
          3    1    3    3  501    0 -0.17493591131E+03  0.10254043041E+03 -0.13974718154E+02  0.20325453422E+03  0.00000000000E+00 0.  1.
         21    1    1    2  502  501  0.23905314713E-01  0.64678635028E-01  0.36584902903E+00  0.37229061490E+00  0.00000000000E+00 0.  1.
<mgrwt>
<rscale>  1 0.65168331E+03</rscale>
<asrwt>0</asrwt>
<pdfrwt beam="1">  1        1 0.38742698E+00 0.65168331E+03</pdfrwt>
<pdfrwt beam="2">0</pdfrwt>
<totfact> 0.15210218E+00</totfact>
</mgrwt>
</event>
<event>
 6    1  0.2236758E-003  0.6494389E+03  0.7818608E-02  0.9807833E-01
          1   -1    0    0  502    0  0.00000000000E+00  0.00000000000E+00  0.10544486317E+03  0.10544486317E+03  0.00000000000E+00 0.  1.
         13   -1    0    0    0    0 -0.00000000000E+00 -0.00000000000E+00 -0.10000000000E+04  0.10000000000E+04  0.00000000000E+00 0.  1.
    9000005    2    1    2  501    0 -0.12572918546E-02  0.24321284446E-02 -0.89455627890E+03  0.11054418966E+04  0.64943887372E+03 0.  0.
         13    1    3    3    0    0  0.25557246200E+03  0.15827250037E+03 -0.65627079542E+03  0.72184404453E+03  0.00000000000E+00 0.  1.
          1    1    3    3  501    0 -0.25557371929E+03 -0.15827006824E+03 -0.23828548349E+03  0.38359785210E+03  0.00000000000E+00 0.  1.
         21    1    1    2  502  501  0.12572918546E-02 -0.24321284446E-02  0.11420734386E-02  0.29665406314E-02  0.00000000000E+00 0.  1.
<mgrwt>
<rscale>  1 0.64943887E+03</rscale>
<asrwt>0</asrwt>
<pdfrwt beam="1">  1        1 0.38343667E+00 0.64943887E+03</pdfrwt>
<pdfrwt beam="2">0</pdfrwt>
<totfact> 0.15847815E+00</totfact>
</mgrwt>
</event>
<event>
 6    1  0.2236758E-003  0.6457602E+03  0.7818608E-02  0.9814768E-01
          1   -1    0    0  502    0  0.00000000000E+00  0.00000000000E+00  0.10431695838E+03  0.10431695838E+03  0.00000000000E+00 0.  1.
         13   -1    0    0    0    0 -0.00000000000E+00 -0.00000000000E+00 -0.10000000000E+04  0.10000000000E+04  0.00000000000E+00 0.  1.
    9000005    2    1    2  501    0  0.26395641654E-02  0.52842803720E-02 -0.89574830200E+03  0.11042514312E+04  0.64576017435E+03 0.  0.
         13    1    3    3    0    0  0.10400792944E+03  0.63220053369E+02  0.63520285112E+02  0.13729257502E+03  0.00000000000E+00 0.  1.
          3    1    3    3  501    0 -0.10400528988E+03 -0.63214769089E+02 -0.95926858712E+03  0.96695885620E+03  0.00000000000E+00 0.  1.
         21    1    1    2  502  501 -0.26395641655E-02 -0.52842803720E-02  0.65260383046E-01  0.65527158593E-01  0.00000000000E+00 0. -1.
<mgrwt>
<rscale>  1 0.64576017E+03</rscale>
<asrwt>0</asrwt>
<pdfrwt beam="1">  1        1 0.37933519E+00 0.64576017E+03</pdfrwt>
<pdfrwt beam="2">0</pdfrwt>
<totfact> 0.16533793E+00</totfact>
</mgrwt>
</event>
<event>
 6    1  0.2236758E-003  0.6579648E+03  0.7818608E-02  0.9791948E-01
          1   -1    0    0  502    0  0.00000000000E+00  0.00000000000E+00  0.10834785379E+03  0.10834785379E+03  0.00000000000E+00 0.  1.
         13   -1    0    0    0    0 -0.00000000000E+00 -0.00000000000E+00 -0.10000000000E+04  0.10000000000E+04  0.00000000000E+00 0.  1.
    9000005    2    1    2  501    0  0.62619706998E-01 -0.15440524932E+00 -0.89170174831E+03  0.11081740074E+04  0.65796473682E+03 0.  0.
         13    1    3    3    0    0 -0.13889903553E+03 -0.28201932789E+03 -0.28231314152E+03  0.42252639355E+03  0.00000000000E+00 0.  1.
          3    1    3    3  501    0  0.13896165523E+03  0.28186492264E+03 -0.60938860680E+03  0.68564761382E+03  0.00000000000E+00 0.  1.
         21    1    1    2  502  501 -0.62619706998E-01  0.15440524932E+00  0.49602098904E-01  0.17384641768E+00  0.00000000000E+00 0.  1.
<mgrwt>
<rscale>  1 0.65796476E+03</rscale>
<asrwt>0</asrwt>
<pdfrwt beam="1">  1        1 0.39399303E+00 0.65796476E+03</pdfrwt>
<pdfrwt beam="2">0</pdfrwt>
<totfact> 0.14206900E+00</totfact>
</mgrwt>
</event>
<event>
 6    1  0.2236758E-003  0.6303939E+03  0.7818608E-02  0.9844281E-01
          1   -1    0    0  502    0  0.00000000000E+00  0.00000000000E+00  0.99410529236E+02  0.99410529236E+02  0.00000000000E+00 0.  1.
         13   -1    0    0    0    0 -0.00000000000E+00 -0.00000000000E+00 -0.10000000000E+04  0.10000000000E+04  0.00000000000E+00 0.  1.
    9000005    2    1    2  501    0 -0.13895966783E-01 -0.42119511518E-02 -0.90064994933E+03  0.10993483320E+04  0.63039386389E+03 0.  0.
         13    1    3    3    0    0 -0.24425913457E+03  0.14531096843E+03 -0.68800275782E+03  0.74439612918E+03  0.00000000000E+00 0.  1.
          3    1    3    3  501    0  0.24424523860E+03 -0.14531518038E+03 -0.21264719151E+03  0.35495220282E+03  0.00000000000E+00 0.  1.
         21    1    1    2  502  501  0.13895966783E-01  0.42119511518E-02  0.60478569411E-01  0.62197232923E-01  0.00000000000E+00 0.  1.
<mgrwt>
<rscale>  1 0.63039386E+03</rscale>
<asrwt>0</asrwt>
<pdfrwt beam="1">  1        1 0.36149360E+00 0.63039386E+03</pdfrwt>
<pdfrwt beam="2">0</pdfrwt>
<totfact> 0.19859334E+00</totfact>
</mgrwt>
</event>
<event>
 6    1  0.2236758E-003  0.6427094E+03  0.7818608E-02  0.9820556E-01
          1   -1    0    0  502    0  0.00000000000E+00  0.00000000000E+00  0.11569526627E+03  0.11569526627E+03  0.00000000000E+00 0.  1.
         13   -1    0    0    0    0 -0.00000000000E+00 -0.00000000000E+00 -0.10000000000E+04  0.10000000000E+04  0.00000000000E+00 0.  1.
    9000005    2    1    2  501    0  0.48215283964E+01  0.64450808691E+01 -0.89527703636E+03  0.11020872676E+04  0.64265899768E+03 0.  0.
         13    1    3    3    0    0  0.14833188339E+03  0.14924985058E+03 -0.87347197850E+03  0.89846044029E+03  0.00000000000E+00 0.  1.
          1    1    3    3  501    0 -0.14351035499E+03 -0.14280476971E+03 -0.21805057860E+02  0.20362682729E+03  0.00000000000E+00 0.  1.
         21    1    1    2  502  501 -0.48215283964E+01 -0.64450808691E+01  0.10972302629E+02  0.13607998694E+02  0.00000000000E+00 0. -1.
<mgrwt>
<rscale>  1 0.64270940E+03</rscale>
<asrwt>0</asrwt>
<pdfrwt beam="1">  1        1 0.42071095E+00 0.64270940E+03</pdfrwt>
<pdfrwt beam="2">0</pdfrwt>
<totfact> 0.10818798E+00</totfact>
</mgrwt>
</event>
<event>
 6    1  0.2236758E-003  0.6565243E+03  0.7818608E-02  0.9794613E-01
          1   -1    0    0  502    0  0.00000000000E+00  0.00000000000E+00  0.10777202034E+03  0.10777202034E+03  0.00000000000E+00 0.  1.
         13   -1    0    0    0    0 -0.00000000000E+00 -0.00000000000E+00 -0.10000000000E+04  0.10000000000E+04  0.00000000000E+00 0.  1.
    9000005    2    1    2  501    0 -0.28568756000E-02 -0.56630877747E-02 -0.89224327171E+03  0.11077554650E+04  0.65652426786E+03 0.  0.
         13    1    3    3    0    0 -0.28154286424E+03  0.10490626083E+03 -0.66923262207E+03  0.73358299490E+03  0.00000000000E+00 0.  1.
          3    1    3    3  501    0  0.28154000737E+03 -0.10491192392E+03 -0.22301064964E+03  0.37417247010E+03  0.00000000000E+00 0.  1.
         21    1    1    2  502  501  0.28568756000E-02  0.56630877747E-02  0.15292051978E-01  0.16555336150E-01  0.00000000000E+00 0.  1.
<mgrwt>
<rscale>  1 0.65652427E+03</rscale>
<asrwt>0</asrwt>
<pdfrwt beam="1">  1        1 0.39189908E+00 0.65652427E+03</pdfrwt>
<pdfrwt beam="2">0</pdfrwt>
<totfact> 0.14518325E+00</totfact>
</mgrwt>
</event>
<event>
 6    1  0.2236758E-003  0.6547584E+03  0.7818608E-02  0.9797891E-01
          1   -1    0    0  502    0  0.00000000000E+00  0.00000000000E+00  0.10717715971E+03  0.10717715971E+03  0.00000000000E+00 0.  1.
         13   -1    0    0    0    0 -0.00000000000E+00 -0.00000000000E+00 -0.10000000000E+04  0.10000000000E+04  0.00000000000E+00 0.  1.
    9000005    2    1    2  501    0 -0.11411573686E-04 -0.48450709862E-05 -0.89282283901E+03  0.11071771472E+04  0.65475843907E+03 0.  0.
         13    1    3    3    0    0 -0.12888576174E+02 -0.10817842330E+02  0.10644543418E+03  0.10776721007E+03  0.00000000000E+00 0.  1.
          3    1    3    3  501    0  0.12888564763E+02  0.10817837484E+02 -0.99926827319E+03  0.99940993717E+03  0.00000000000E+00 0.  1.
         21    1    1    2  502  501  0.11411573686E-04  0.48450709867E-05 -0.12803708431E-05  0.12463469676E-04  0.00000000000E+00 0.  1.
<mgrwt>
<rscale>  1 0.65475844E+03</rscale>
<asrwt>0</asrwt>
<pdfrwt beam="1">  1        1 0.38973595E+00 0.65475844E+03</pdfrwt>
<pdfrwt beam="2">0</pdfrwt>
<totfact> 0.14847593E+00</totfact>
</mgrwt>
</event>
<event>
 6    1  0.2236758E-003  0.6644498E+03  0.7818608E-02  0.9780037E-01
          1   -1    0    0  502    0  0.00000000000E+00  0.00000000000E+00  0.11037455152E+03  0.11037455152E+03  0.00000000000E+00 0.  1.
         13   -1    0    0    0    0 -0.00000000000E+00 -0.00000000000E+00 -0.10000000000E+04  0.10000000000E+04  0.00000000000E+00 0.  1.
    9000005    2    1    2  501    0 -0.18537260692E-02 -0.20333965853E-02 -0.88962439956E+03  0.11103716068E+04  0.66444979716E+03 0.  0.
         13    1    3    3    0    0 -0.31767734306E+03  0.90215092818E+02 -0.50543858211E+03  0.60375973496E+03  0.00000000000E+00 0.  1.
          1    1    3    3  501    0  0.31767548934E+03 -0.90217126215E+02 -0.38418581745E+03  0.50661187187E+03  0.00000000000E+00 0.  1.
         21    1    1    2  502  501  0.18537260692E-02  0.20333965853E-02 -0.10489187172E-02  0.29446956528E-02  0.00000000000E+00 0. -1.
<mgrwt>
<rscale>  1 0.66444980E+03</rscale>
<asrwt>0</asrwt>
<pdfrwt beam="1">  1        1 0.40136285E+00 0.66444980E+03</pdfrwt>
<pdfrwt beam="2">0</pdfrwt>
<totfact> 0.13156854E+00</totfact>
</mgrwt>
</event>
<event>
 6    1  0.2236758E-003  0.6546905E+03  0.7818608E-02  0.9798017E-01
          1   -1    0    0  502    0  0.00000000000E+00  0.00000000000E+00  0.10715551369E+03  0.10715551369E+03  0.00000000000E+00 0.  1.
         13   -1    0    0    0    0 -0.00000000000E+00 -0.00000000000E+00 -0.10000000000E+04  0.10000000000E+04  0.00000000000E+00 0.  1.
    9000005    2    1    2  501    0 -0.76982377038E-04 -0.55263524935E-04 -0.89284508298E+03  0.11071549095E+04  0.65469050057E+03 0.  0.
         13    1    3    3    0    0 -0.29042441617E+03  0.51043973091E+02 -0.20605195450E+03  0.35973495333E+03  0.00000000000E+00 0.  1.
          1    1    3    3  501    0  0.29042433919E+03 -0.51044028354E+02 -0.68679312848E+03  0.74741995621E+03  0.00000000000E+00 0.  1.
         21    1    1    2  502  501  0.76982377014E-04  0.55263524941E-04  0.59666097529E-03  0.60413960555E-03  0.00000000000E+00 0.  1.
<mgrwt>
<rscale>  1 0.65469050E+03</rscale>
<asrwt>0</asrwt>
<pdfrwt beam="1">  1        1 0.38965724E+00 0.65469050E+03</pdfrwt>
<pdfrwt beam="2">0</pdfrwt>
<totfact> 0.14859717E+00</totfact>
</mgrwt>
</event>
<event>
 6    1  0.2236758E-003  0.6351892E+03  0.7818608E-02  0.9834975E-01
          1   -1    0    0  502    0  0.00000000000E+00  0.00000000000E+00  0.10109972216E+03  0.10109972216E+03  0.00000000000E+00 0.  1.
         13   -1    0    0    0    0 -0.00000000000E+00 -0.00000000000E+00 -0.10000000000E+04  0.10000000000E+04  0.00000000000E+00 0.  1.
    9000005    2    1    2  501    0  0.36559895010E-01 -0.61814179642E-01 -0.89912758232E+03  0.11008613423E+04  0.63518916914E+03 0.  0.
         13    1    3    3    0    0 -0.27157547478E+03  0.12064364588E+03 -0.64361016489E+03  0.70890208925E+03  0.00000000000E+00 0.  1.
          1    1    3    3  501    0  0.27161203467E+03 -0.12070546006E+03 -0.25551741742E+03  0.39195925308E+03  0.00000000000E+00 0.  1.
         21    1    1    2  502  501 -0.36559895010E-01  0.61814179642E-01  0.22730447384E+00  0.23837982834E+00  0.00000000000E+00 0.  1.
<mgrwt>
<rscale>  1 0.63518917E+03</rscale>
<asrwt>0</asrwt>
<pdfrwt beam="1">  1        1 0.36763613E+00 0.63518917E+03</pdfrwt>
<pdfrwt beam="2">0</pdfrwt>
<totfact> 0.18649762E+00</totfact>
</mgrwt>
</event>
<event>
 6    1  0.2236758E-003  0.6014379E+03  0.7818608E-02  0.9902427E-01
          1   -1    0    0  502    0  0.00000000000E+00  0.00000000000E+00  0.90432004060E+02  0.90432004060E+02  0.00000000000E+00 0.  1.
         13   -1    0    0    0    0 -0.00000000000E+00 -0.00000000000E+00 -0.10000000000E+04  0.10000000000E+04  0.00000000000E+00 0.  1.
    9000005    2    1    2  501    0 -0.46713873672E-04  0.20304212484E-04 -0.90956810838E+03  0.10904318806E+04  0.60143789579E+03 0.  0.
         13    1    3    3    0    0 -0.21236205024E+03 -0.12574686275E+03 -0.14326798086E+03  0.28536928394E+03  0.00000000000E+00 0.  1.
          1    1    3    3  501    0  0.21236200353E+03  0.12574688306E+03 -0.76630012752E+03  0.80506259668E+03  0.00000000000E+00 0.  1.
         21    1    1    2  502  501  0.46713873663E-04 -0.20304212475E-04  0.11244048924E-03  0.12343950201E-03  0.00000000000E+00 0.  1.
<mgrwt>
<rscale>  1 0.60143790E+03</rscale>
<asrwt>0</asrwt>
<pdfrwt beam="1">  1        1 0.32884434E+00 0.60143790E+03</pdfrwt>
<pdfrwt beam="2">0</pdfrwt>
<totfact> 0.27686755E+00</totfact>
</mgrwt>
</event>
<event>
 6    1  0.2236758E-003  0.6446896E+03  0.7818608E-02  0.9816795E-01
          3   -1    0    0  502    0  0.00000000000E+00  0.00000000000E+00  0.10390619686E+03  0.10390619686E+03  0.00000000000E+00 0.  1.
         13   -1    0    0    0    0 -0.00000000000E+00 -0.00000000000E+00 -0.10000000000E+04  0.10000000000E+04  0.00000000000E+00 0.  1.
    9000005    2    1    2  501    0  0.30116132649E-04  0.95044144233E-04 -0.89609367440E+03  0.11039060340E+04  0.64468958318E+03 0.  0.
         13    1    3    3    0    0  0.17658221659E+03 -0.78581006932E+01  0.13524175135E+02  0.17727360851E+03  0.00000000000E+00 0.  1.
          1    1    3    3  501    0 -0.17658218647E+03  0.78581957374E+01 -0.90961784953E+03  0.92663242551E+03  0.00000000000E+00 0.  1.
         21    1    1    2  502  501 -0.30116132646E-04 -0.95044144234E-04 -0.12874506803E-03  0.16283630842E-03  0.00000000000E+00 0. -1.
<mgrwt>
<rscale>  1 0.64468958E+03</rscale>
<asrwt>0</asrwt>
<pdfrwt beam="1">  1        3 0.37784151E+00 0.64468958E+03</pdfrwt>
<pdfrwt beam="2">0</pdfrwt>
<totfact> 0.77555731E-02</totfact>
</mgrwt>
</event>
<event>
 6    1  0.2236758E-003  0.6519113E+03  0.7818608E-02  0.9803199E-01
          1   -1    0    0  502    0  0.00000000000E+00  0.00000000000E+00  0.10626278714E+03  0.10626278714E+03  0.00000000000E+00 0.  1.
         13   -1    0    0    0    0 -0.00000000000E+00 -0.00000000000E+00 -0.10000000000E+04  0.10000000000E+04  0.00000000000E+00 0.  1.
    9000005    2    1    2  501    0 -0.40735308923E-02 -0.14307381666E-02 -0.89375258628E+03  0.11062468190E+04  0.65191129684E+03 0.  0.
         13    1    3    3    0    0  0.23026723985E+03  0.22017375419E+03 -0.56378141118E+03  0.64757158938E+03  0.00000000000E+00 0.  1.
          1    1    3    3  501    0 -0.23027131338E+03 -0.22017518493E+03 -0.32997117511E+03  0.45867522958E+03  0.00000000000E+00 0.  1.
         21    1    1    2  502  501  0.40735308923E-02  0.14307381666E-02  0.15373427518E-01  0.15968185222E-01  0.00000000000E+00 0.  1.
<mgrwt>
<rscale>  1 0.65191130E+03</rscale>
<asrwt>0</asrwt>
<pdfrwt beam="1">  1        1 0.38641095E+00 0.65191130E+03</pdfrwt>
<pdfrwt beam="2">0</pdfrwt>
<totfact> 0.15367941E+00</totfact>
</mgrwt>
</event>
<event>
 6    1  0.2236758E-003  0.6383778E+03  0.7818608E-02  0.9828835E-01
          1   -1    0    0  502    0  0.00000000000E+00  0.00000000000E+00  0.14090105900E+03  0.14090105900E+03  0.00000000000E+00 0.  1.
         13   -1    0    0    0    0 -0.00000000000E+00 -0.00000000000E+00 -0.10000000000E+04  0.10000000000E+04  0.00000000000E+00 0.  1.
    9000005    2    1    2  501    0  0.50776640518E+00 -0.10455830823E+01 -0.89810889833E+03  0.11018737885E+04  0.63837677080E+03 0.  0.
         13    1    3    3    0    0 -0.10859524589E+02 -0.30899047474E+03 -0.30946758470E+03  0.43745083008E+03  0.00000000000E+00 0.  1.
          1    1    3    3  501    0  0.11367290994E+02  0.30794489166E+03 -0.58864131362E+03  0.66442295844E+03  0.00000000000E+00 0.  1.
         21    1    1    2  502  501 -0.50776640518E+00  0.10455830823E+01  0.39009957322E+02  0.39027270478E+02  0.00000000000E+00 0.  1.
<mgrwt>
<rscale>  1 0.63837783E+03</rscale>
<asrwt>0</asrwt>
<pdfrwt beam="1">  1        1 0.51236857E+00 0.63837783E+03</pdfrwt>
<pdfrwt beam="2">0</pdfrwt>
<totfact> 0.40393561E-01</totfact>
</mgrwt>
</event>
<event>
 6    1  0.2236758E-003  0.6381961E+03  0.7818608E-02  0.9829184E-01
          1   -1    0    0  502    0  0.00000000000E+00  0.00000000000E+00  0.10186862839E+03  0.10186862839E+03  0.00000000000E+00 0.  1.
         13   -1    0    0    0    0 -0.00000000000E+00 -0.00000000000E+00 -0.10000000000E+04  0.10000000000E+04  0.00000000000E+00 0.  1.
    9000005    2    1    2  501    0  0.16750824697E-02 -0.85659742672E-03 -0.89817642010E+03  0.11018235406E+04  0.63819607728E+03 0.  0.
         13    1    3    3    0    0 -0.12462829023E+03 -0.16694988941E+03 -0.31800891201E+02  0.21075049936E+03  0.00000000000E+00 0.  1.
          3    1    3    3  501    0  0.12462996531E+03  0.16694903281E+03 -0.86637552890E+03  0.89107304127E+03  0.00000000000E+00 0.  1.
         21    1    1    2  502  501 -0.16750824697E-02  0.85659742674E-03  0.45048492734E-01  0.45087762842E-01  0.00000000000E+00 0.  1.
<mgrwt>
<rscale>  1 0.63819608E+03</rscale>
<asrwt>0</asrwt>
<pdfrwt beam="1">  1        1 0.37043216E+00 0.63819608E+03</pdfrwt>
<pdfrwt beam="2">0</pdfrwt>
<totfact> 0.18120126E+00</totfact>
</mgrwt>
</event>
<event>
 6    1  0.2236758E-003  0.5934127E+03  0.7818608E-02  0.9919168E-01
          1   -1    0    0  502    0  0.00000000000E+00  0.00000000000E+00  0.12310893120E+03  0.12310893120E+03  0.00000000000E+00 0.  1.
         13   -1    0    0    0    0 -0.00000000000E+00 -0.00000000000E+00 -0.10000000000E+04  0.10000000000E+04  0.00000000000E+00 0.  1.
    9000005    2    1    2  501    0 -0.99777494135E+01  0.45041846456E+02 -0.89474401500E+03  0.10736412538E+04  0.59161673923E+03 0.  0.
         13    1    3    3    0    0 -0.29860372836E+03 -0.13414095153E+02 -0.45530342551E+03  0.54465157102E+03  0.00000000000E+00 0.  1.
          3    1    3    3  501    0  0.28862597894E+03  0.58455941609E+02 -0.43944058949E+03  0.52898968281E+03  0.00000000000E+00 0.  1.
         21    1    1    2  502  501  0.99777494135E+01 -0.45041846456E+02  0.17852946196E+02  0.49467677360E+02  0.00000000000E+00 0.  1.
<mgrwt>
<rscale>  1 0.59341275E+03</rscale>
<asrwt>0</asrwt>
<pdfrwt beam="1">  1        1 0.44766978E+00 0.59341275E+03</pdfrwt>
<pdfrwt beam="2">0</pdfrwt>
<totfact> 0.82437704E-01</totfact>
</mgrwt>
</event>
<event>
 6    1  0.2236758E-003  0.6396052E+03  0.7818608E-02  0.9826482E-01
          1   -1    0    0  502    0  0.00000000000E+00  0.00000000000E+00  0.11617449355E+03  0.11617449355E+03  0.00000000000E+00 0.  1.
         13   -1    0    0    0    0 -0.00000000000E+00 -0.00000000000E+00 -0.10000000000E+04  0.10000000000E+04  0.00000000000E+00 0.  1.
    9000005    2    1    2  501    0 -0.12450149732E+00 -0.29910990472E+00 -0.89772422835E+03  0.11022719960E+04  0.63960507976E+03 0.  0.
         13    1    3    3    0    0  0.17733437195E+03 -0.98298462498E+02 -0.22642950191E+02  0.20401659344E+03  0.00000000000E+00 0.  1.
          1    1    3    3  501    0 -0.17745887345E+03  0.97999352593E+02 -0.87508127816E+03  0.89825540258E+03  0.00000000000E+00 0.  1.
         21    1    1    2  502  501  0.12450149732E+00  0.29910990472E+00  0.13898721902E+02  0.13902497540E+02  0.00000000000E+00 0.  1.
<mgrwt>
<rscale>  1 0.63960516E+03</rscale>
<asrwt>0</asrwt>
<pdfrwt beam="1">  1        1 0.42245359E+00 0.63960516E+03</pdfrwt>
<pdfrwt beam="2">0</pdfrwt>
<totfact> 0.10631261E+00</totfact>
</mgrwt>
</event>
<event>
 6    1  0.2236758E-003  0.6481515E+03  0.7818608E-02  0.9810254E-01
          1   -1    0    0  502    0  0.00000000000E+00  0.00000000000E+00  0.10521519911E+03  0.10521519911E+03  0.00000000000E+00 0.  1.
         13   -1    0    0    0    0 -0.00000000000E+00 -0.00000000000E+00 -0.10000000000E+04  0.10000000000E+04  0.00000000000E+00 0.  1.
    9000005    2    1    2  501    0  0.14377360459E-01  0.54372202079E-02 -0.89497457797E+03  0.11050248005E+04  0.64815145943E+03 0.  0.
         13    1    3    3    0    0  0.22267811098E+02 -0.76592132783E+02  0.88028580166E+02  0.11879074518E+03  0.00000000000E+00 0.  1.
          1    1    3    3  501    0 -0.22253433738E+02  0.76597570003E+02 -0.98300315814E+03  0.98623405536E+03  0.00000000000E+00 0.  1.
         21    1    1    2  502  501 -0.14377360459E-01 -0.54372202079E-02  0.18977708193E+00  0.19039856272E+00  0.00000000000E+00 0. -1.
<mgrwt>
<rscale>  1 0.64815146E+03</rscale>
<asrwt>0</asrwt>
<pdfrwt beam="1">  1        1 0.38260153E+00 0.64815146E+03</pdfrwt>
<pdfrwt beam="2">0</pdfrwt>
<totfact> 0.15986846E+00</totfact>
</mgrwt>
</event>
<event>
 6    1  0.2403159E-003  0.6493888E+03  0.7818608E-02  0.9807927E-01
          1   -1    0    0  502    0  0.00000000000E+00  0.00000000000E+00  0.10542644931E+03  0.10542644931E+03  0.00000000000E+00 0.  1.
         13   -1    0    0    0    0 -0.00000000000E+00 -0.00000000000E+00 -0.10000000000E+04  0.10000000000E+04  0.00000000000E+00 0.  1.
    9000005    2    1    2  501    0  0.73149427067E-05  0.22515668141E-06 -0.89457354585E+03  0.11054264405E+04  0.64938877915E+03 0.  0.
         13    1    3    3    0    0 -0.24250226116E+03  0.43414565401E+00 -0.79745488583E+02  0.25527804077E+03  0.00000000000E+00 0.  1.
          1    1    3    3  501    0  0.24250226848E+03 -0.43414542885E+00 -0.81482805727E+03  0.85014839976E+03  0.00000000000E+00 0.  1.
         21    1    1    2  502  501 -0.73149427012E-05 -0.22515668136E-06 -0.48401044778E-05  0.87741491672E-05  0.00000000000E+00 0.  1.
<mgrwt>
<rscale>  1 0.64938878E+03</rscale>
<asrwt>0</asrwt>
<pdfrwt beam="1">  1        1 0.38336971E+00 0.64938878E+03</pdfrwt>
<pdfrwt beam="2">0</pdfrwt>
<totfact> 0.15858765E+00</totfact>
</mgrwt>
</event>
<event>
 6    1  0.2236758E-003  0.6536782E+03  0.7818608E-02  0.9799902E-01
          1   -1    0    0  502    0  0.00000000000E+00  0.00000000000E+00  0.11699363358E+03  0.11699363358E+03  0.00000000000E+00 0.  1.
         13   -1    0    0    0    0 -0.00000000000E+00 -0.00000000000E+00 -0.10000000000E+04  0.10000000000E+04  0.00000000000E+00 0.  1.
    9000005    2    1    2  501    0 -0.30728388997E+01  0.23387071784E+01 -0.89276887489E+03  0.11064951355E+04  0.65366681806E+03 0.  0.
         13    1    3    3    0    0  0.22550431264E+02  0.22240382300E+03 -0.85248933086E+03  0.88131154631E+03  0.00000000000E+00 0.  1.
          1    1    3    3  501    0 -0.25623270164E+02 -0.22006511582E+03 -0.40279544033E+02  0.22518358919E+03  0.00000000000E+00 0.  1.
         21    1    1    2  502  501  0.30728388997E+01 -0.23387071784E+01  0.97625084745E+01  0.10498498078E+02  0.00000000000E+00 0. -1.
<mgrwt>
<rscale>  1 0.65367822E+03</rscale>
<asrwt>0</asrwt>
<pdfrwt beam="1">  1        1 0.42543229E+00 0.65367822E+03</pdfrwt>
<pdfrwt beam="2">0</pdfrwt>
<totfact> 0.10277705E+00</totfact>
</mgrwt>
</event>
<event>
 6    1  0.2236758E-003  0.7209160E+03  0.7818608E-02  0.9682117E-01
          1   -1    0    0  502    0  0.00000000000E+00  0.00000000000E+00  0.12999967890E+03  0.12999967890E+03  0.00000000000E+00 0.  1.
         13   -1    0    0    0    0 -0.00000000000E+00 -0.00000000000E+00 -0.10000000000E+04  0.10000000000E+04  0.00000000000E+00 0.  1.
    9000005    2    1    2  501    0 -0.12171052963E-01  0.12554502206E-01 -0.87006879819E+03  0.11299290046E+04  0.72091597393E+03 0.  0.
         13    1    3    3    0    0  0.25767906526E+03  0.24796184545E+03 -0.36413252301E+03  0.51036856465E+03  0.00000000000E+00 0.  1.
          3    1    3    3  501    0 -0.25769123632E+03 -0.24794929095E+03 -0.50593627518E+03  0.61956043991E+03  0.00000000000E+00 0.  1.
         21    1    1    2  502  501  0.12171052963E-01 -0.12554502206E-01  0.68477090109E-01  0.70674337108E-01  0.00000000000E+00 0.  1.
<mgrwt>
<rscale>  1 0.72091597E+03</rscale>
<asrwt>0</asrwt>
<pdfrwt beam="1">  1        1 0.47272710E+00 0.72091597E+03</pdfrwt>
<pdfrwt beam="2">0</pdfrwt>
<totfact> 0.61389787E-01</totfact>
</mgrwt>
</event>
<event>
 6    1  0.2236758E-003  0.5177855E+03  0.7818608E-02  0.1009238E+00
          1   -1    0    0  502    0  0.00000000000E+00  0.00000000000E+00  0.68224860718E+02  0.68224860718E+02  0.00000000000E+00 0.  1.
         13   -1    0    0    0    0 -0.00000000000E+00 -0.00000000000E+00 -0.10000000000E+04  0.10000000000E+04  0.00000000000E+00 0.  1.
    9000005    2    1    2  501    0  0.43179147761E-01 -0.65080653621E-01 -0.93297319414E+03  0.10670242628E+04  0.51778546747E+03 0.  0.
         13    1    3    3    0    0 -0.34420306843E+02 -0.13554792945E+03 -0.17502202689E+02  0.14094085923E+03  0.00000000000E+00 0.  1.
          1    1    3    3  501    0  0.34463485991E+02  0.13548284879E+03 -0.91547099145E+03  0.92608340357E+03  0.00000000000E+00 0.  1.
         21    1    1    2  502  501 -0.43179147761E-01  0.65080653621E-01  0.11980548553E+01  0.12005979204E+01  0.00000000000E+00 0.  1.
<mgrwt>
<rscale>  1 0.51778547E+03</rscale>
<asrwt>0</asrwt>
<pdfrwt beam="1">  1        1 0.24809093E+00 0.51778547E+03</pdfrwt>
<pdfrwt beam="2">0</pdfrwt>
<totfact> 0.62763424E+00</totfact>
</mgrwt>
</event>
<event>
 6    1  0.2236758E-003  0.6514816E+03  0.7818608E-02  0.9804003E-01
          1   -1    0    0  502    0  0.00000000000E+00  0.00000000000E+00  0.10611869718E+03  0.10611869718E+03  0.00000000000E+00 0.  1.
         13   -1    0    0    0    0 -0.00000000000E+00 -0.00000000000E+00 -0.10000000000E+04  0.10000000000E+04  0.00000000000E+00 0.  1.
    9000005    2    1    2  501    0  0.10519532977E-03 -0.26533101831E-02 -0.89389275105E+03  0.11061069450E+04  0.65148163709E+03 0.  0.
         13    1    3    3    0    0  0.89386679424E+02 -0.22682647444E+03 -0.81372461848E+03  0.84946334982E+03  0.00000000000E+00 0.  1.
          1    1    3    3  501    0 -0.89386574229E+02  0.22682382113E+03 -0.80168132561E+02  0.25664359521E+03  0.00000000000E+00 0.  1.
         21    1    1    2  502  501 -0.10519532977E-03  0.26533101831E-02  0.11448226530E-01  0.11752149236E-01  0.00000000000E+00 0.  1.
<mgrwt>
<rscale>  1 0.65148164E+03</rscale>
<asrwt>0</asrwt>
<pdfrwt beam="1">  1        1 0.38588699E+00 0.65148164E+03</pdfrwt>
<pdfrwt beam="2">0</pdfrwt>
<totfact> 0.15451447E+00</totfact>
</mgrwt>
</event>
<event>
 6    1  0.2236758E-003  0.6586394E+03  0.7818608E-02  0.9790702E-01
          1   -1    0    0  502    0  0.00000000000E+00  0.00000000000E+00  0.10848172122E+03  0.10848172122E+03  0.00000000000E+00 0.  1.
         13   -1    0    0    0    0 -0.00000000000E+00 -0.00000000000E+00 -0.10000000000E+04  0.10000000000E+04  0.00000000000E+00 0.  1.
    9000005    2    1    2  501    0 -0.12371476983E-02  0.19990227956E-02 -0.89154847171E+03  0.11084514369E+04  0.65863943898E+03 0.  0.
         13    1    3    3    0    0 -0.68836765831E+02 -0.18753663174E+03 -0.51685197942E+01  0.19983793977E+03  0.00000000000E+00 0.  1.
          3    1    3    3  501    0  0.68835528684E+02  0.18753863076E+03 -0.88637995191E+03  0.90861349714E+03  0.00000000000E+00 0.  1.
         21    1    1    2  502  501  0.12371476983E-02 -0.19990227956E-02  0.30192929508E-01  0.30284313082E-01  0.00000000000E+00 0. -1.
<mgrwt>
<rscale>  1 0.65863944E+03</rscale>
<asrwt>0</asrwt>
<pdfrwt beam="1">  1        1 0.39447982E+00 0.65863944E+03</pdfrwt>
<pdfrwt beam="2">0</pdfrwt>
<totfact> 0.14134519E+00</totfact>
</mgrwt>
</event>
<event>
 6    1  0.2236758E-003  0.6473860E+03  0.7818608E-02  0.9811696E-01
          1   -1    0    0  502    0  0.00000000000E+00  0.00000000000E+00  0.10479030260E+03  0.10479030260E+03  0.00000000000E+00 0.  1.
         13   -1    0    0    0    0 -0.00000000000E+00 -0.00000000000E+00 -0.10000000000E+04  0.10000000000E+04  0.00000000000E+00 0.  1.
    9000005    2    1    2  501    0  0.14241956088E-02 -0.41906928133E-02 -0.89522241616E+03  0.11047768357E+04  0.64738603808E+03 0.  0.
         13    1    3    3    0    0 -0.37163714544E+02 -0.25753090198E+03 -0.11902580451E+03  0.28613012650E+03  0.00000000000E+00 0.  1.
          3    1    3    3  501    0  0.37165138740E+02  0.25752671128E+03 -0.77619661165E+03  0.81864670921E+03  0.00000000000E+00 0.  1.
         21    1    1    2  502  501 -0.14241956088E-02  0.41906928133E-02  0.12718762621E-01  0.13466891326E-01  0.00000000000E+00 0. -1.
<mgrwt>
<rscale>  1 0.64738604E+03</rscale>
<asrwt>0</asrwt>
<pdfrwt beam="1">  1        1 0.38105645E+00 0.64738604E+03</pdfrwt>
<pdfrwt beam="2">0</pdfrwt>
<totfact> 0.16242294E+00</totfact>
</mgrwt>
</event>
<event>
 6    1  0.2236758E-003  0.6399568E+03  0.7818608E-02  0.9825809E-01
          1   -1    0    0  502    0  0.00000000000E+00  0.00000000000E+00  0.10238808733E+03  0.10238808733E+03  0.00000000000E+00 0.  1.
         13   -1    0    0    0    0 -0.00000000000E+00 -0.00000000000E+00 -0.10000000000E+04  0.10000000000E+04  0.00000000000E+00 0.  1.
    9000005    2    1    2  501    0 -0.66997929395E-04  0.13716238780E-03 -0.89761381423E+03  0.11023861797E+04  0.63995681855E+03 0.  0.
         13    1    3    3    0    0  0.34243737697E+02 -0.12006408079E+03  0.58695784888E+02  0.13796090834E+03  0.00000000000E+00 0.  1.
          3    1    3    3  501    0 -0.34243804695E+02  0.12006421795E+03 -0.95630959911E+03  0.96442527132E+03  0.00000000000E+00 0.  1.
         21    1    1    2  502  501  0.66997929400E-04 -0.13716238781E-03  0.19015578105E-02  0.19076751164E-02  0.00000000000E+00 0.  1.
<mgrwt>
<rscale>  1 0.63995682E+03</rscale>
<asrwt>0</asrwt>
<pdfrwt beam="1">  1        1 0.37232110E+00 0.63995682E+03</pdfrwt>
<pdfrwt beam="2">0</pdfrwt>
<totfact> 0.17771362E+00</totfact>
</mgrwt>
</event>
<event>
 6    1  0.2236758E-003  0.6404425E+03  0.7818608E-02  0.9824880E-01
          1   -1    0    0  502    0  0.00000000000E+00  0.00000000000E+00  0.10261609567E+03  0.10261609567E+03  0.00000000000E+00 0.  1.
         13   -1    0    0    0    0 -0.00000000000E+00 -0.00000000000E+00 -0.10000000000E+04  0.10000000000E+04  0.00000000000E+00 0.  1.
    9000005    2    1    2  501    0 -0.20987221685E-01  0.99488658028E-02 -0.89745634625E+03  0.11025400215E+04  0.64044250726E+03 0.  0.
         13    1    3    3    0    0 -0.26712236602E+02 -0.29334306381E+03 -0.66494861352E+03  0.72726910789E+03  0.00000000000E+00 0.  1.
          1    1    3    3  501    0  0.26691249381E+02  0.29335301268E+03 -0.23250773273E+03  0.37527091363E+03  0.00000000000E+00 0.  1.
         21    1    1    2  502  501  0.20987221685E-01 -0.99488658028E-02  0.72441919388E-01  0.76074142055E-01  0.00000000000E+00 0.  1.
<mgrwt>
<rscale>  1 0.64044251E+03</rscale>
<asrwt>0</asrwt>
<pdfrwt beam="1">  1        1 0.37315023E+00 0.64044251E+03</pdfrwt>
<pdfrwt beam="2">0</pdfrwt>
<totfact> 0.17621235E+00</totfact>
</mgrwt>
</event>
<event>
 6    1  0.2236758E-003  0.6536438E+03  0.7818608E-02  0.9799966E-01
          1   -1    0    0  502    0  0.00000000000E+00  0.00000000000E+00  0.10681302441E+03  0.10681302441E+03  0.00000000000E+00 0.  1.
         13   -1    0    0    0    0 -0.00000000000E+00 -0.00000000000E+00 -0.10000000000E+04  0.10000000000E+04  0.00000000000E+00 0.  1.
    9000005    2    1    2  501    0 -0.19657114606E-03  0.21989882494E-03 -0.89318741087E+03  0.11068124986E+04  0.65364375323E+03 0.  0.
         13    1    3    3    0    0  0.13865866432E+03  0.39591863762E+02  0.50032476866E+02  0.15263351404E+03  0.00000000000E+00 0.  1.
          3    1    3    3  501    0 -0.13865886089E+03 -0.39591643864E+02 -0.94321988774E+03  0.95417898457E+03  0.00000000000E+00 0.  1.
         21    1    1    2  502  501  0.19657114607E-03 -0.21989882495E-03  0.43527585578E-03  0.52579537779E-03  0.00000000000E+00 0.  1.
<mgrwt>
<rscale>  1 0.65364375E+03</rscale>
<asrwt>0</asrwt>
<pdfrwt beam="1">  1        1 0.38841182E+00 0.65364375E+03</pdfrwt>
<pdfrwt beam="2">0</pdfrwt>
<totfact> 0.15052725E+00</totfact>
</mgrwt>
</event>
<event>
 6    1  0.2236758E-003  0.6523306E+03  0.7818608E-02  0.9802416E-01
          1   -1    0    0  502    0  0.00000000000E+00  0.00000000000E+00  0.10668517922E+03  0.10668517922E+03  0.00000000000E+00 0.  1.
         13   -1    0    0    0    0 -0.00000000000E+00 -0.00000000000E+00 -0.10000000000E+04  0.10000000000E+04  0.00000000000E+00 0.  1.
    9000005    2    1    2  501    0 -0.27439012821E+00  0.79477663533E+00 -0.89269823664E+03  0.11056425211E+04  0.65233008202E+03 0.  0.
         13    1    3    3    0    0 -0.51472482796E+02  0.11865911941E+03 -0.95437791486E+03  0.96310259447E+03  0.00000000000E+00 0.  1.
          1    1    3    3  501    0  0.51198092667E+02 -0.11786434277E+03  0.61679678225E+02  0.14253992667E+03  0.00000000000E+00 0.  1.
         21    1    1    2  502  501  0.27439012821E+00 -0.79477663533E+00 -0.61658414578E+00  0.10426580702E+01  0.00000000000E+00 0.  1.
<mgrwt>
<rscale>  1 0.65233062E+03</rscale>
<asrwt>0</asrwt>
<pdfrwt beam="1">  1        1 0.38794692E+00 0.65233062E+03</pdfrwt>
<pdfrwt beam="2">0</pdfrwt>
<totfact> 0.15127962E+00</totfact>
</mgrwt>
</event>
<event>
 6    1  0.2236758E-003  0.6450505E+03  0.7818608E-02  0.9816111E-01
          1   -1    0    0  502    0  0.00000000000E+00  0.00000000000E+00  0.13161670331E+03  0.13161670331E+03  0.00000000000E+00 0.  1.
         13   -1    0    0    0    0 -0.00000000000E+00 -0.00000000000E+00 -0.10000000000E+04  0.10000000000E+04  0.00000000000E+00 0.  1.
    9000005    2    1    2  501    0 -0.38286000935E+02 -0.24637785783E+02 -0.87343601837E+03  0.10858087526E+04  0.64344178492E+03 0.  0.
         13    1    3    3    0    0  0.24869567048E+03  0.95586380944E+02 -0.16845991863E+03  0.31522220245E+03  0.00000000000E+00 0.  1.
          1    1    3    3  501    0 -0.28698167141E+03 -0.12022416673E+03 -0.70497609974E+03  0.77058655010E+03  0.00000000000E+00 0.  1.
         21    1    1    2  502  501  0.38286000935E+02  0.24637785783E+02  0.50527216837E+01  0.45807950755E+02  0.00000000000E+00 0.  1.
<mgrwt>
<rscale>  1 0.64505052E+03</rscale>
<asrwt>0</asrwt>
<pdfrwt beam="1">  1        1 0.47860720E+00 0.64505052E+03</pdfrwt>
<pdfrwt beam="2">0</pdfrwt>
<totfact> 0.58519819E-01</totfact>
</mgrwt>
</event>
<event>
 6    1  0.2236758E-003  0.6526570E+03  0.7818608E-02  0.9801806E-01
          1   -1    0    0  502    0  0.00000000000E+00  0.00000000000E+00  0.10649028712E+03  0.10649028712E+03  0.00000000000E+00 0.  1.
         13   -1    0    0    0    0 -0.00000000000E+00 -0.00000000000E+00 -0.10000000000E+04  0.10000000000E+04  0.00000000000E+00 0.  1.
    9000005    2    1    2  501    0  0.18382620453E-04  0.11911076342E-04 -0.89350970728E+03  0.11064902645E+04  0.65265696077E+03 0.  0.
         13    1    3    3    0    0  0.23092786453E+03 -0.90502944416E+02 -0.87226752930E+02  0.26292007910E+03  0.00000000000E+00 0.  1.
          1    1    3    3  501    0 -0.23092784615E+03  0.90502956327E+02 -0.80628295435E+03  0.84357018541E+03  0.00000000000E+00 0.  1.
         21    1    1    2  502  501 -0.18382620470E-04 -0.11911076341E-04 -0.56026178828E-05  0.22609374208E-04  0.00000000000E+00 0. -1.
<mgrwt>
<rscale>  1 0.65265696E+03</rscale>
<asrwt>0</asrwt>
<pdfrwt beam="1">  1        1 0.38723822E+00 0.65265696E+03</pdfrwt>
<pdfrwt beam="2">0</pdfrwt>
<totfact> 0.15236777E+00</totfact>
</mgrwt>
</event>
<event>
 6    1  0.2236758E-003  0.6478841E+03  0.7818608E-02  0.9810758E-01
          1   -1    0    0  502    0  0.00000000000E+00  0.00000000000E+00  0.10514450363E+03  0.10514450363E+03  0.00000000000E+00 0.  1.
         13   -1    0    0    0    0 -0.00000000000E+00 -0.00000000000E+00 -0.10000000000E+04  0.10000000000E+04  0.00000000000E+00 0.  1.
    9000005    2    1    2  501    0  0.23477346228E+00 -0.57895313150E-01 -0.89498012738E+03  0.11048724681E+04  0.64788400494E+03 0.  0.
         13    1    3    3    0    0 -0.23769197758E+03  0.18980178920E+03 -0.63686028368E+03  0.70577136263E+03  0.00000000000E+00 0.  1.
          3    1    3    3  501    0  0.23792675104E+03 -0.18985968451E+03 -0.25811984371E+03  0.39910110546E+03  0.00000000000E+00 0.  1.
         21    1    1    2  502  501 -0.23477346228E+00  0.57895313150E-01  0.12463101633E+00  0.27203554199E+00  0.00000000000E+00 0.  1.
<mgrwt>
<rscale>  1 0.64788405E+03</rscale>
<asrwt>0</asrwt>
<pdfrwt beam="1">  1        1 0.38234446E+00 0.64788405E+03</pdfrwt>
<pdfrwt beam="2">0</pdfrwt>
<totfact> 0.16029495E+00</totfact>
</mgrwt>
</event>
<event>
 6    1  0.2236758E-003  0.6538084E+03  0.7818608E-02  0.9799659E-01
          1   -1    0    0  502    0  0.00000000000E+00  0.00000000000E+00  0.15801165014E+03  0.15801165014E+03  0.00000000000E+00 0.  1.
         13   -1    0    0    0    0 -0.00000000000E+00 -0.00000000000E+00 -0.10000000000E+04  0.10000000000E+04  0.00000000000E+00 0.  1.
    9000005    2    1    2  501    0  0.41047847369E+01 -0.34486025447E+02 -0.88652120100E+03  0.11015376735E+04  0.65288534297E+03 0.  0.
         13    1    3    3    0    0 -0.20768501193E+03 -0.21512840190E+03 -0.19735493329E+03  0.35827679687E+03  0.00000000000E+00 0.  1.
          3    1    3    3  501    0  0.21178979666E+03  0.18064237645E+03 -0.68916626772E+03  0.74326087661E+03  0.00000000000E+00 0.  1.
         21    1    1    2  502  501 -0.41047847369E+01  0.34486025447E+02  0.44532851147E+02  0.56473976663E+02  0.00000000000E+00 0. -1.
<mgrwt>
<rscale>  1 0.65380839E+03</rscale>
<asrwt>0</asrwt>
<pdfrwt beam="1">  1        1 0.57458903E+00 0.65380839E+03</pdfrwt>
<pdfrwt beam="2">0</pdfrwt>
<totfact> 0.19525228E-01</totfact>
</mgrwt>
</event>
<event>
 6    1  0.2236758E-003  0.4663796E+03  0.7818608E-02  0.1022947E+00
          1   -1    0    0  502    0  0.00000000000E+00  0.00000000000E+00  0.54377544109E+02  0.54377544109E+02  0.00000000000E+00 0.  1.
         13   -1    0    0    0    0 -0.00000000000E+00 -0.00000000000E+00 -0.10000000000E+04  0.10000000000E+04  0.00000000000E+00 0.  1.
    9000005    2    1    2  501    0  0.57180574174E-04 -0.13826425779E-03 -0.94562243368E+03  0.10543773928E+04  0.46637956588E+03 0.  0.
         13    1    3    3    0    0  0.21327062913E+03  0.30078058464E+02 -0.67487450666E+03  0.70840994530E+03  0.00000000000E+00 0.  1.
          3    1    3    3  501    0 -0.21327057195E+03 -0.30078196729E+02 -0.27074792702E+03  0.34596744755E+03  0.00000000000E+00 0.  1.
         21    1    1    2  502  501 -0.57180574193E-04  0.13826425779E-03 -0.22209985686E-04  0.15126105418E-03  0.00000000000E+00 0. -1.
<mgrwt>
<rscale>  1 0.46637957E+03</rscale>
<asrwt>0</asrwt>
<pdfrwt beam="1">  1        1 0.19773694E+00 0.46637957E+03</pdfrwt>
<pdfrwt beam="2">0</pdfrwt>
<totfact> 0.10582286E+01</totfact>
</mgrwt>
</event>
<event>
 6    1  0.2236758E-003  0.6426238E+03  0.7818608E-02  0.9820719E-01
          1   -1    0    0  502    0  0.00000000000E+00  0.00000000000E+00  0.10403515690E+03  0.10403515690E+03  0.00000000000E+00 0.  1.
         13   -1    0    0    0    0 -0.00000000000E+00 -0.00000000000E+00 -0.10000000000E+04  0.10000000000E+04  0.00000000000E+00 0.  1.
    9000005    2    1    2  501    0 -0.54484923372E+00 -0.44542889978E+00 -0.89658293926E+03  0.11030985084E+04  0.64262341768E+03 0.  0.
         13    1    3    3    0    0 -0.13565366592E+03 -0.28636521813E+03 -0.54330562304E+03  0.62895783266E+03  0.00000000000E+00 0.  1.
          1    1    3    3  501    0  0.13510881668E+03  0.28591978923E+03 -0.35327731621E+03  0.47414067572E+03  0.00000000000E+00 0.  1.
         21    1    1    2  502  501  0.54484923372E+00  0.44542889978E+00  0.61809615848E+00  0.93664852179E+00  0.00000000000E+00 0. -1.
<mgrwt>
<rscale>  1 0.64262380E+03</rscale>
<asrwt>0</asrwt>
<pdfrwt beam="1">  1        1 0.37831046E+00 0.64262380E+03</pdfrwt>
<pdfrwt beam="2">0</pdfrwt>
<totfact> 0.16716354E+00</totfact>
</mgrwt>
</event>
<event>
 6    1  0.2236758E-003  0.6789099E+03  0.7818608E-02  0.9753995E-01
          1   -1    0    0  502    0  0.00000000000E+00  0.00000000000E+00  0.11522981316E+03  0.11522981316E+03  0.00000000000E+00 0.  1.
         13   -1    0    0    0    0 -0.00000000000E+00 -0.00000000000E+00 -0.10000000000E+04  0.10000000000E+04  0.00000000000E+00 0.  1.
    9000005    2    1    2  501    0  0.19277303277E-03 -0.51328705695E-05 -0.88477028580E+03  0.11152295964E+04  0.67890985710E+03 0.  0.
         13    1    3    3    0    0 -0.36828154700E+02  0.33419090669E+03 -0.51925406527E+03  0.61859894875E+03  0.00000000000E+00 0.  1.
          3    1    3    3  501    0  0.36828347473E+02 -0.33419091183E+03 -0.36551622053E+03  0.49663064766E+03  0.00000000000E+00 0.  1.
         21    1    1    2  502  501 -0.19277303277E-03  0.51328705440E-05  0.98961967608E-04  0.21675160797E-03  0.00000000000E+00 0. -1.
<mgrwt>
<rscale>  1 0.67890986E+03</rscale>
<asrwt>0</asrwt>
<pdfrwt beam="1">  1        1 0.41901839E+00 0.67890986E+03</pdfrwt>
<pdfrwt beam="2">0</pdfrwt>
<totfact> 0.10933303E+00</totfact>
</mgrwt>
</event>
<event>
 6    1  0.2236758E-003  0.6384054E+03  0.7818608E-02  0.9828782E-01
          1   -1    0    0  502    0  0.00000000000E+00  0.00000000000E+00  0.10189037785E+03  0.10189037785E+03  0.00000000000E+00 0.  1.
         13   -1    0    0    0    0 -0.00000000000E+00 -0.00000000000E+00 -0.10000000000E+04  0.10000000000E+04  0.00000000000E+00 0.  1.
    9000005    2    1    2  501    0  0.10685733230E-04  0.15003620604E-04 -0.89810963798E+03  0.11018903536E+04  0.63840538018E+03 0.  0.
         13    1    3    3    0    0 -0.18694955279E+03 -0.25726715379E+03 -0.49644384670E+03  0.58957019653E+03  0.00000000000E+00 0.  1.
          1    1    3    3  501    0  0.18694956348E+03  0.25726716879E+03 -0.40166579128E+03  0.51232015703E+03  0.00000000000E+00 0.  1.
         21    1    1    2  502  501 -0.10685733231E-04 -0.15003620607E-04  0.15834204595E-04  0.24290235922E-04  0.00000000000E+00 0. -1.
<mgrwt>
<rscale>  1 0.63840538E+03</rscale>
<asrwt>0</asrwt>
<pdfrwt beam="1">  1        1 0.37051125E+00 0.63840538E+03</pdfrwt>
<pdfrwt beam="2">0</pdfrwt>
<totfact> 0.18104946E+00</totfact>
</mgrwt>
</event>
<event>
 6    1  0.2236758E-003  0.6528562E+03  0.7818608E-02  0.9801434E-01
          1   -1    0    0  502    0  0.00000000000E+00  0.00000000000E+00  0.10655587520E+03  0.10655587520E+03  0.00000000000E+00 0.  1.
         13   -1    0    0    0    0 -0.00000000000E+00 -0.00000000000E+00 -0.10000000000E+04  0.10000000000E+04  0.00000000000E+00 0.  1.
    9000005    2    1    2  501    0  0.23098733374E-03 -0.27574020439E-03 -0.89344461680E+03  0.11065552657E+04  0.65285624209E+03 0.  0.
         13    1    3    3    0    0  0.32349624539E+03  0.42598631391E+02 -0.43056107259E+03  0.54022893426E+03  0.00000000000E+00 0.  1.
          1    1    3    3  501    0 -0.32349601440E+03 -0.42598907131E+02 -0.46288354421E+03  0.56632633147E+03  0.00000000000E+00 0.  1.
         21    1    1    2  502  501 -0.23098733374E-03  0.27574020439E-03  0.49199820996E-03  0.60946701902E-03  0.00000000000E+00 0. -1.
<mgrwt>
<rscale>  1 0.65285624E+03</rscale>
<asrwt>0</asrwt>
<pdfrwt beam="1">  1        1 0.38747673E+00 0.65285624E+03</pdfrwt>
<pdfrwt beam="2">0</pdfrwt>
<totfact> 0.15199205E+00</totfact>
</mgrwt>
</event>
<event>
 6    1  0.2236758E-003  0.6685992E+03  0.7818608E-02  0.9772492E-01
          1   -1    0    0  502    0  0.00000000000E+00  0.00000000000E+00  0.11175865757E+03  0.11175865757E+03  0.00000000000E+00 0.  1.
         13   -1    0    0    0    0 -0.00000000000E+00 -0.00000000000E+00 -0.10000000000E+04  0.10000000000E+04  0.00000000000E+00 0.  1.
    9000005    2    1    2  501    0  0.34918384560E-03 -0.34797506846E-02 -0.88824230658E+03  0.11117550299E+04  0.66859917084E+03 0.  0.
         13    1    3    3    0    0 -0.11953047947E+03  0.41722721815E+02  0.70351631767E+02  0.14483671196E+03  0.00000000000E+00 0.  1.
          3    1    3    3  501    0  0.11953082866E+03 -0.41726201565E+02 -0.95859393834E+03  0.96691831792E+03  0.00000000000E+00 0.  1.
         21    1    1    2  502  501 -0.34918384559E-03  0.34797506846E-02  0.96414971354E-03  0.36276960809E-02  0.00000000000E+00 0.  1.
<mgrwt>
<rscale>  1 0.66859917E+03</rscale>
<asrwt>0</asrwt>
<pdfrwt beam="1">  1        1 0.40639598E+00 0.66859917E+03</pdfrwt>
<pdfrwt beam="2">0</pdfrwt>
<totfact> 0.12482990E+00</totfact>
</mgrwt>
</event>
<event>
 6    1  0.2236758E-003  0.6539440E+03  0.7818608E-02  0.9799407E-01
          1   -1    0    0  502    0  0.00000000000E+00  0.00000000000E+00  0.10695586275E+03  0.10695586275E+03  0.00000000000E+00 0.  1.
         13   -1    0    0    0    0 -0.00000000000E+00 -0.00000000000E+00 -0.10000000000E+04  0.10000000000E+04  0.00000000000E+00 0.  1.
    9000005    2    1    2  501    0 -0.22834475018E-02 -0.90508584510E-02 -0.89308878452E+03  0.11069102501E+04  0.65394397676E+03 0.  0.
         13    1    3    3    0    0 -0.96935267586E+02  0.18306199505E+02 -0.97420972447E+03  0.97919157997E+03  0.00000000000E+00 0.  1.
          3    1    3    3  501    0  0.96932984139E+02 -0.18315250363E+02  0.81120939951E+02  0.12771867016E+03  0.00000000000E+00 0.  1.
         21    1    1    2  502  501  0.22834475018E-02  0.90508584510E-02  0.44647269713E-01  0.45612617378E-01  0.00000000000E+00 0. -1.
<mgrwt>
<rscale>  1 0.65394398E+03</rscale>
<asrwt>0</asrwt>
<pdfrwt beam="1">  1        1 0.38893123E+00 0.65394398E+03</pdfrwt>
<pdfrwt beam="2">0</pdfrwt>
<totfact> 0.14972320E+00</totfact>
</mgrwt>
</event>
<event>
 6    1  0.2236758E-003  0.6322065E+03  0.7818608E-02  0.9840752E-01
          1   -1    0    0  502    0  0.00000000000E+00  0.00000000000E+00  0.99921490617E+02  0.99921490617E+02  0.00000000000E+00 0.  1.
         13   -1    0    0    0    0 -0.00000000000E+00 -0.00000000000E+00 -0.10000000000E+04  0.10000000000E+04  0.00000000000E+00 0.  1.
    9000005    2    1    2  501    0  0.46883415377E-03 -0.21138683658E-03 -0.90007836163E+03  0.10999209555E+04  0.63220649422E+03 0.  0.
         13    1    3    3    0    0 -0.56108239916E+02  0.54912615492E+02  0.82689469625E+02  0.11402227113E+03  0.00000000000E+00 0.  1.
          3    1    3    3  501    0  0.56108708750E+02 -0.54912826879E+02 -0.98276783125E+03  0.98589868440E+03  0.00000000000E+00 0.  1.
         21    1    1    2  502  501 -0.46883415377E-03  0.21138683657E-03 -0.14775659110E-03  0.53509052377E-03  0.00000000000E+00 0.  1.
<mgrwt>
<rscale>  1 0.63220649E+03</rscale>
<asrwt>0</asrwt>
<pdfrwt beam="1">  1        1 0.36335164E+00 0.63220649E+03</pdfrwt>
<pdfrwt beam="2">0</pdfrwt>
<totfact> 0.19484458E+00</totfact>
</mgrwt>
</event>
<event>
 6    1  0.2236758E-003  0.6560545E+03  0.7818608E-02  0.9795484E-01
          1   -1    0    0  502    0  0.00000000000E+00  0.00000000000E+00  0.11843446644E+03  0.11843446644E+03  0.00000000000E+00 0.  1.
         13   -1    0    0    0    0 -0.00000000000E+00 -0.00000000000E+00 -0.10000000000E+04  0.10000000000E+04  0.00000000000E+00 0.  1.
    9000005    2    1    2  501    0 -0.70827301152E+01 -0.92917302936E+01 -0.88879075681E+03  0.11046974664E+04  0.65595044147E+03 0.  0.
         13    1    3    3    0    0 -0.26738411608E+03 -0.69605789390E+01 -0.77635876101E+03  0.82114288708E+03  0.00000000000E+00 0.  1.
          3    1    3    3  501    0  0.26030138597E+03 -0.23311513546E+01 -0.11243199580E+03  0.28355457937E+03  0.00000000000E+00 0.  1.
         21    1    1    2  502  501  0.70827301152E+01  0.92917302936E+01  0.72252232509E+01  0.13736999991E+02  0.00000000000E+00 0. -1.
<mgrwt>
<rscale>  1 0.65605448E+03</rscale>
<asrwt>0</asrwt>
<pdfrwt beam="1">  1        1 0.43067170E+00 0.65605448E+03</pdfrwt>
<pdfrwt beam="2">0</pdfrwt>
<totfact> 0.97259817E-01</totfact>
</mgrwt>
</event>
<event>
 6    1  0.2236758E-003  0.6484054E+03  0.7818608E-02  0.9809776E-01
          1   -1    0    0  502    0  0.00000000000E+00  0.00000000000E+00  0.10510744977E+03  0.10510744977E+03  0.00000000000E+00 0.  1.
         13   -1    0    0    0    0 -0.00000000000E+00 -0.00000000000E+00 -0.10000000000E+04  0.10000000000E+04  0.00000000000E+00 0.  1.
    9000005    2    1    2  501    0 -0.12897526972E-04  0.13441386670E-04 -0.89489259905E+03  0.11051073975E+04  0.64840542582E+03 0.  0.
         13    1    3    3    0    0  0.28546009255E+03 -0.84769428473E+02 -0.66593573456E+03  0.72948181815E+03  0.00000000000E+00 0.  1.
          3    1    3    3  501    0 -0.28546010545E+03  0.84769441915E+02 -0.22895686448E+03  0.37562557937E+03  0.00000000000E+00 0.  1.
         21    1    1    2  502  501  0.12897526937E-04 -0.13441386681E-04  0.48816412671E-04  0.52249968642E-04  0.00000000000E+00 0.  1.
<mgrwt>
<rscale>  1 0.64840543E+03</rscale>
<asrwt>0</asrwt>
<pdfrwt beam="1">  1        1 0.38220971E+00 0.64840543E+03</pdfrwt>
<pdfrwt beam="2">0</pdfrwt>
<totfact> 0.16049936E+00</totfact>
</mgrwt>
</event>
<event>
 6    1  0.2236758E-003  0.6430524E+03  0.7818608E-02  0.9819904E-01
          1   -1    0    0  502    0  0.00000000000E+00  0.00000000000E+00  0.10348841441E+03  0.10348841441E+03  0.00000000000E+00 0.  1.
         13   -1    0    0    0    0 -0.00000000000E+00 -0.00000000000E+00 -0.10000000000E+04  0.10000000000E+04  0.00000000000E+00 0.  1.
    9000005    2    1    2  501    0 -0.22743757142E-01 -0.92884835812E-01 -0.89659736575E+03  0.11033599500E+04  0.64305235700E+03 0.  0.
         13    1    3    3    0    0  0.14002853446E+03  0.27515384287E+03 -0.60201711321E+03  0.67656650250E+03  0.00000000000E+00 0.  1.
          3    1    3    3  501    0 -0.14005127821E+03 -0.27524672770E+03 -0.29458025253E+03  0.42679344749E+03  0.00000000000E+00 0.  1.
         21    1    1    2  502  501  0.22743757142E-01  0.92884835812E-01  0.85780159267E-01  0.12846441895E+00  0.00000000000E+00 0.  1.
<mgrwt>
<rscale>  1 0.64305236E+03</rscale>
<asrwt>0</asrwt>
<pdfrwt beam="1">  1        1 0.37632230E+00 0.64305236E+03</pdfrwt>
<pdfrwt beam="2">0</pdfrwt>
<totfact> 0.17055635E+00</totfact>
</mgrwt>
</event>
<event>
 6    1  0.2236758E-003  0.6578015E+03  0.7818608E-02  0.9792249E-01
          1   -1    0    0  502    0  0.00000000000E+00  0.00000000000E+00  0.10819071440E+03  0.10819071440E+03  0.00000000000E+00 0.  1.
         13   -1    0    0    0    0 -0.00000000000E+00 -0.00000000000E+00 -0.10000000000E+04  0.10000000000E+04  0.00000000000E+00 0.  1.
    9000005    2    1    2  501    0  0.75095344799E-02 -0.65528937035E-02 -0.89182245525E+03  0.11081741986E+04  0.65780146136E+03 0.  0.
         13    1    3    3    0    0 -0.17507647339E+03 -0.15932959498E+03 -0.61239840374E+02  0.24451586742E+03  0.00000000000E+00 0.  1.
          1    1    3    3  501    0  0.17508398292E+03  0.15932304209E+03 -0.83058261487E+03  0.86365833114E+03  0.00000000000E+00 0.  1.
         21    1    1    2  502  501 -0.75095344799E-02  0.65528937035E-02  0.13169644025E-01  0.16515842326E-01  0.00000000000E+00 0. -1.
<mgrwt>
<rscale>  1 0.65780146E+03</rscale>
<asrwt>0</asrwt>
<pdfrwt beam="1">  1        1 0.39342161E+00 0.65780146E+03</pdfrwt>
<pdfrwt beam="2">0</pdfrwt>
<totfact> 0.14290640E+00</totfact>
</mgrwt>
</event>
<event>
 6    1  0.2236758E-003  0.6589350E+03  0.7818608E-02  0.9790156E-01
          1   -1    0    0  502    0  0.00000000000E+00  0.00000000000E+00  0.10867105423E+03  0.10867105423E+03  0.00000000000E+00 0.  1.
         13   -1    0    0    0    0 -0.00000000000E+00 -0.00000000000E+00 -0.10000000000E+04  0.10000000000E+04  0.00000000000E+00 0.  1.
    9000005    2    1    2  501    0  0.19782832881E-02  0.16207072912E-01 -0.89145055834E+03  0.11085483505E+04  0.65893500987E+03 0.  0.
         13    1    3    3    0    0 -0.28295139823E+03 -0.15761429825E+03 -0.54724546302E+03  0.63590986592E+03  0.00000000000E+00 0.  1.
          3    1    3    3  501    0  0.28295337651E+03  0.15763050533E+03 -0.34420509531E+03  0.47263848461E+03  0.00000000000E+00 0.  1.
         21    1    1    2  502  501 -0.19782832881E-02 -0.16207072912E-01  0.12161256963E+00  0.12270370780E+00  0.00000000000E+00 0.  1.
<mgrwt>
<rscale>  1 0.65893501E+03</rscale>
<asrwt>0</asrwt>
<pdfrwt beam="1">  1        1 0.39516830E+00 0.65893501E+03</pdfrwt>
<pdfrwt beam="2">0</pdfrwt>
<totfact> 0.14034465E+00</totfact>
</mgrwt>
</event>
<event>
 6    1  0.2236758E-003  0.6569642E+03  0.7818608E-02  0.9793798E-01
          1   -1    0    0  502    0  0.00000000000E+00  0.00000000000E+00  0.10838036243E+03  0.10838036243E+03  0.00000000000E+00 0.  1.
         13   -1    0    0    0    0 -0.00000000000E+00 -0.00000000000E+00 -0.10000000000E+04  0.10000000000E+04  0.00000000000E+00 0.  1.
    9000005    2    1    2  501    0 -0.44384599911E+00 -0.78347821712E+00 -0.89157576429E+03  0.11074788291E+04  0.65696362358E+03 0.  0.
         13    1    3    3    0    0 -0.16478149820E+03 -0.27121012237E+02  0.31136483214E+02  0.16987634338E+03  0.00000000000E+00 0.  1.
          1    1    3    3  501    0  0.16433765220E+03  0.26337534020E+02 -0.92271224750E+03  0.93760248577E+03  0.00000000000E+00 0.  1.
         21    1    1    2  502  501  0.44384599911E+00  0.78347821712E+00 -0.43873288322E-01  0.90153327895E+00  0.00000000000E+00 0. -1.
<mgrwt>
<rscale>  1 0.65696424E+03</rscale>
<asrwt>0</asrwt>
<pdfrwt beam="1">  1        1 0.39411124E+00 0.65696424E+03</pdfrwt>
<pdfrwt beam="2">0</pdfrwt>
<totfact> 0.14192368E+00</totfact>
</mgrwt>
</event>
<event>
 6    1  0.2236758E-003  0.6402686E+03  0.7818608E-02  0.9825213E-01
          1   -1    0    0  502    0  0.00000000000E+00  0.00000000000E+00  0.10486260406E+03  0.10486260406E+03  0.00000000000E+00 0.  1.
         13   -1    0    0    0    0 -0.00000000000E+00 -0.00000000000E+00 -0.10000000000E+04  0.10000000000E+04  0.00000000000E+00 0.  1.
    9000005    2    1    2  501    0 -0.71699033464E-01  0.73870735911E+00 -0.89744998054E+03  0.11024338437E+04  0.64026819485E+03 0.  0.
         13    1    3    3    0    0  0.86176097628E+02 -0.14103530228E+03 -0.92020798591E+03  0.93493315998E+03  0.00000000000E+00 0.  1.
          3    1    3    3  501    0 -0.86247796662E+02  0.14177400964E+03  0.22758005369E+02  0.16750068372E+03  0.00000000000E+00 0.  1.
         21    1    1    2  502  501  0.71699033464E-01 -0.73870735911E+00  0.23125846041E+01  0.24287603556E+01  0.00000000000E+00 0.  1.
<mgrwt>
<rscale>  1 0.64026863E+03</rscale>
<asrwt>0</asrwt>
<pdfrwt beam="1">  1        1 0.38131936E+00 0.64026863E+03</pdfrwt>
<pdfrwt beam="2">0</pdfrwt>
<totfact> 0.16220277E+00</totfact>
</mgrwt>
</event>
<event>
 6    1  0.2236758E-003  0.6469633E+03  0.7818608E-02  0.9812494E-01
          1   -1    0    0  502    0  0.00000000000E+00  0.00000000000E+00  0.10464040005E+03  0.10464040005E+03  0.00000000000E+00 0.  1.
         13   -1    0    0    0    0 -0.00000000000E+00 -0.00000000000E+00 -0.10000000000E+04  0.10000000000E+04  0.00000000000E+00 0.  1.
    9000005    2    1    2  501    0 -0.17561782357E-04 -0.14077960856E-04 -0.89535960567E+03  0.11046403768E+04  0.64696332095E+03 0.  0.
         13    1    3    3    0    0  0.90320403536E+02 -0.46308485510E+02  0.76747016345E+02  0.12724918720E+03  0.00000000000E+00 0.  1.
          1    1    3    3  501    0 -0.90320421098E+02  0.46308471432E+02 -0.97210662201E+03  0.97739118962E+03  0.00000000000E+00 0.  1.
         21    1    1    2  502  501  0.17561782365E-04  0.14077960859E-04  0.57144567109E-05  0.23221976601E-04  0.00000000000E+00 0.  1.
<mgrwt>
<rscale>  1 0.64696332E+03</rscale>
<asrwt>0</asrwt>
<pdfrwt beam="1">  1        1 0.38051135E+00 0.64696332E+03</pdfrwt>
<pdfrwt beam="2">0</pdfrwt>
<totfact> 0.16333798E+00</totfact>
</mgrwt>
</event>
<event>
 6    1  0.2236758E-003  0.5804090E+03  0.7818608E-02  0.9946906E-01
          1   -1    0    0  502    0  0.00000000000E+00  0.00000000000E+00  0.87336580663E+02  0.87336580663E+02  0.00000000000E+00 0.  1.
         13   -1    0    0    0    0 -0.00000000000E+00 -0.00000000000E+00 -0.10000000000E+04  0.10000000000E+04  0.00000000000E+00 0.  1.
    9000005    2    1    2  501    0 -0.58463973790E-01  0.28268064017E-01 -0.91578098996E+03  0.10842183338E+04  0.58040896744E+03 0.  0.
         13    1    3    3    0    0  0.10914744017E+03  0.22927117405E+03 -0.72034861446E+03  0.76379353317E+03  0.00000000000E+00 0.  1.
          3    1    3    3  501    0 -0.10920590415E+03 -0.22924290599E+03 -0.19543237550E+03  0.32042480060E+03  0.00000000000E+00 0.  1.
         21    1    1    2  502  501  0.58463973790E-01 -0.28268064017E-01  0.31175706240E+01  0.31182468978E+01  0.00000000000E+00 0. -1.
<mgrwt>
<rscale>  1 0.58040897E+03</rscale>
<asrwt>0</asrwt>
<pdfrwt beam="1">  1        1 0.31758824E+00 0.58040897E+03</pdfrwt>
<pdfrwt beam="2">0</pdfrwt>
<totfact> 0.31088663E+00</totfact>
</mgrwt>
</event>
<event>
 6    1  0.2236758E-003  0.6500544E+03  0.7818608E-02  0.9806677E-01
          1   -1    0    0  502    0  0.00000000000E+00  0.00000000000E+00  0.10564403794E+03  0.10564403794E+03  0.00000000000E+00 0.  1.
         13   -1    0    0    0    0 -0.00000000000E+00 -0.00000000000E+00 -0.10000000000E+04  0.10000000000E+04  0.00000000000E+00 0.  1.
    9000005    2    1    2  501    0 -0.19087419588E-03 -0.19110159647E-03 -0.89435731681E+03  0.11056426565E+04  0.65005436220E+03 0.  0.
         13    1    3    3    0    0 -0.23553056655E+03 -0.83643318308E+02 -0.93779577738E+02  0.26695591710E+03  0.00000000000E+00 0.  1.
          3    1    3    3  501    0  0.23553037567E+03  0.83643127206E+02 -0.80057773907E+03  0.83868673943E+03  0.00000000000E+00 0.  1.
         21    1    1    2  502  501  0.19087419588E-03  0.19110159647E-03  0.13547498670E-02  0.13814123139E-02  0.00000000000E+00 0.  1.
<mgrwt>
<rscale>  1 0.65005436E+03</rscale>
<asrwt>0</asrwt>
<pdfrwt beam="1">  1        1 0.38416095E+00 0.65005436E+03</pdfrwt>
<pdfrwt beam="2">0</pdfrwt>
<totfact> 0.15729626E+00</totfact>
</mgrwt>
</event>
<event>
 6    1  0.2236758E-003  0.5806532E+03  0.7818608E-02  0.9946378E-01
          1   -1    0    0  502    0  0.00000000000E+00  0.00000000000E+00  0.84294010637E+02  0.84294010637E+02  0.00000000000E+00 0.  1.
         13   -1    0    0    0    0 -0.00000000000E+00 -0.00000000000E+00 -0.10000000000E+04  0.10000000000E+04  0.00000000000E+00 0.  1.
    9000005    2    1    2  501    0 -0.13229176267E-02 -0.10253152994E-02 -0.91571029357E+03  0.10842893925E+04  0.58065320533E+03 0.  0.
         13    1    3    3    0    0 -0.21502349065E+03 -0.18071287645E+03 -0.32066239832E+03  0.42628232305E+03  0.00000000000E+00 0.  1.
          3    1    3    3  501    0  0.21502216773E+03  0.18071185114E+03 -0.59504789525E+03  0.65800706941E+03  0.00000000000E+00 0.  1.
         21    1    1    2  502  501  0.13229176267E-02  0.10253152994E-02  0.43042028759E-02  0.46181754955E-02  0.00000000000E+00 0.  1.
<mgrwt>
<rscale>  1 0.58065321E+03</rscale>
<asrwt>0</asrwt>
<pdfrwt beam="1">  1        1 0.30652432E+00 0.58065321E+03</pdfrwt>
<pdfrwt beam="2">0</pdfrwt>
<totfact> 0.34701413E+00</totfact>
</mgrwt>
</event>
<event>
 6    1  0.2236758E-003  0.6471161E+03  0.7818608E-02  0.9812206E-01
          1   -1    0    0  502    0  0.00000000000E+00  0.00000000000E+00  0.10469169190E+03  0.10469169190E+03  0.00000000000E+00 0.  1.
         13   -1    0    0    0    0 -0.00000000000E+00 -0.00000000000E+00 -0.10000000000E+04  0.10000000000E+04  0.00000000000E+00 0.  1.
    9000005    2    1    2  501    0 -0.61046902840E-03  0.11359848565E-03 -0.89531013276E+03  0.11046897645E+04  0.64711609616E+03 0.  0.
         13    1    3    3    0    0 -0.32919401522E+02  0.31649387668E+03 -0.54774705136E+03  0.63346577906E+03  0.00000000000E+00 0.  1.
          1    1    3    3  501    0  0.32918791053E+02 -0.31649376308E+03 -0.34756308140E+03  0.47122398541E+03  0.00000000000E+00 0.  1.
         21    1    1    2  502  501  0.61046902840E-03 -0.11359848567E-03  0.18246630589E-02  0.19274263486E-02  0.00000000000E+00 0.  1.
<mgrwt>
<rscale>  1 0.64711610E+03</rscale>
<asrwt>0</asrwt>
<pdfrwt beam="1">  1        1 0.38069786E+00 0.64711610E+03</pdfrwt>
<pdfrwt beam="2">0</pdfrwt>
<totfact> 0.16302409E+00</totfact>
</mgrwt>
</event>
<event>
 6    1  0.2236758E-003  0.6489180E+03  0.7818608E-02  0.9808812E-01
          1   -1    0    0  502    0  0.00000000000E+00  0.00000000000E+00  0.10534156769E+03  0.10534156769E+03  0.00000000000E+00 0.  1.
         13   -1    0    0    0    0 -0.00000000000E+00 -0.00000000000E+00 -0.10000000000E+04  0.10000000000E+04  0.00000000000E+00 0.  1.
    9000005    2    1    2  501    0  0.95338723643E-02 -0.91150629420E-02 -0.89472566123E+03  0.11052730571E+04  0.64891796215E+03 0.  0.
         13    1    3    3    0    0 -0.21382061355E+02 -0.25139245540E+03 -0.79484957421E+03  0.83393117509E+03  0.00000000000E+00 0.  1.
          1    1    3    3  501    0  0.21391595227E+02  0.25138334034E+03 -0.99876087028E+02  0.27134188196E+03  0.00000000000E+00 0.  1.
         21    1    1    2  502  501 -0.95338723643E-02  0.91150629420E-02  0.67228924946E-01  0.68510637452E-01  0.00000000000E+00 0. -1.
<mgrwt>
<rscale>  1 0.64891796E+03</rscale>
<asrwt>0</asrwt>
<pdfrwt beam="1">  1        1 0.38306105E+00 0.64891796E+03</pdfrwt>
<pdfrwt beam="2">0</pdfrwt>
<totfact> 0.15910034E+00</totfact>
</mgrwt>
</event>
<event>
 6    1  0.2236758E-003  0.6453695E+03  0.7818608E-02  0.9815507E-01
          1   -1    0    0  502    0  0.00000000000E+00  0.00000000000E+00  0.12141595608E+03  0.12141595608E+03  0.00000000000E+00 0.  1.
         13   -1    0    0    0    0 -0.00000000000E+00 -0.00000000000E+00 -0.10000000000E+04  0.10000000000E+04  0.00000000000E+00 0.  1.
    9000005    2    1    2  501    0  0.47713048209E+00  0.51291508571E+00 -0.89586670352E+03  0.11041191050E+04  0.64536916317E+03 0.  0.
         13    1    3    3    0    0  0.17109985783E+03 -0.32419546713E+02 -0.91304166155E+03  0.92950054550E+03  0.00000000000E+00 0.  1.
          3    1    3    3  501    0 -0.17062272735E+03  0.32932461798E+02  0.17174958039E+02  0.17461855947E+03  0.00000000000E+00 0.  1.
         21    1    1    2  502  501 -0.47713048209E+00 -0.51291508571E+00  0.17282659593E+02  0.17296851100E+02  0.00000000000E+00 0. -1.
<mgrwt>
<rscale>  1 0.64536954E+03</rscale>
<asrwt>0</asrwt>
<pdfrwt beam="1">  1        1 0.44151350E+00 0.64536954E+03</pdfrwt>
<pdfrwt beam="2">0</pdfrwt>
<totfact> 0.86986547E-01</totfact>
</mgrwt>
</event>
<event>
 6    1  0.2236758E-003  0.5902670E+03  0.7818608E-02  0.9925807E-01
          1   -1    0    0  502    0  0.00000000000E+00  0.00000000000E+00  0.87577138404E+02  0.87577138404E+02  0.00000000000E+00 0.  1.
         13   -1    0    0    0    0 -0.00000000000E+00 -0.00000000000E+00 -0.10000000000E+04  0.10000000000E+04  0.00000000000E+00 0.  1.
    9000005    2    1    2  501    0 -0.15363154694E+00  0.13136984289E+01 -0.91161249380E+03  0.10860259768E+04  0.59026547767E+03 0.  0.
         13    1    3    3    0    0  0.25066144210E+03 -0.14306561579E+03 -0.56526177498E+03  0.63468086724E+03  0.00000000000E+00 0.  1.
          3    1    3    3  501    0 -0.25081507365E+03  0.14437931422E+03 -0.34635071882E+03  0.45134510961E+03  0.00000000000E+00 0.  1.
         21    1    1    2  502  501  0.15363154694E+00 -0.13136984289E+01 -0.81036779794E+00  0.15511615590E+01  0.00000000000E+00 0. -1.
<mgrwt>
<rscale>  1 0.59026696E+03</rscale>
<asrwt>0</asrwt>
<pdfrwt beam="1">  1        1 0.31846299E+00 0.59026696E+03</pdfrwt>
<pdfrwt beam="2">0</pdfrwt>
<totfact> 0.30764219E+00</totfact>
</mgrwt>
</event>
<event>
 6    1  0.2236758E-003  0.6462676E+03  0.7818608E-02  0.9813808E-01
          1   -1    0    0  502    0  0.00000000000E+00  0.00000000000E+00  0.11070609628E+03  0.11070609628E+03  0.00000000000E+00 0.  1.
         13   -1    0    0    0    0 -0.00000000000E+00 -0.00000000000E+00 -0.10000000000E+04  0.10000000000E+04  0.00000000000E+00 0.  1.
    9000005    2    1    2  501    0  0.32900421170E+00  0.70206095158E+00 -0.89555814298E+03  0.11043940580E+04  0.64626716366E+03 0.  0.
         13    1    3    3    0    0  0.82281633711E+02  0.29690670742E+03 -0.27974457664E+03  0.41615007908E+03  0.00000000000E+00 0.  1.
          3    1    3    3  501    0 -0.81952629499E+02 -0.29620464647E+03 -0.61581356634E+03  0.68824397895E+03  0.00000000000E+00 0.  1.
         21    1    1    2  502  501 -0.32900421170E+00 -0.70206095158E+00  0.62642392562E+01  0.63120382453E+01  0.00000000000E+00 0.  1.
<mgrwt>
<rscale>  1 0.64626763E+03</rscale>
<asrwt>0</asrwt>
<pdfrwt beam="1">  1        1 0.40256847E+00 0.64626763E+03</pdfrwt>
<pdfrwt beam="2">0</pdfrwt>
<totfact> 0.13039750E+00</totfact>
</mgrwt>
</event>
<event>
 6    1  0.2236758E-003  0.6355528E+03  0.7818608E-02  0.9834272E-01
          1   -1    0    0  502    0  0.00000000000E+00  0.00000000000E+00  0.10098185878E+03  0.10098185878E+03  0.00000000000E+00 0.  1.
         13   -1    0    0    0    0 -0.00000000000E+00 -0.00000000000E+00 -0.10000000000E+04  0.10000000000E+04  0.00000000000E+00 0.  1.
    9000005    2    1    2  501    0 -0.59938576271E-05  0.18863845526E-05 -0.89901814239E+03  0.11009818524E+04  0.63555284513E+03 0.  0.
         13    1    3    3    0    0 -0.21919505968E+03  0.45582678510E+02 -0.58842341968E+02  0.23148796076E+03  0.00000000000E+00 0.  1.
          1    1    3    3  501    0  0.21919505369E+03 -0.45582676624E+02 -0.84017580042E+03  0.86949389163E+03  0.00000000000E+00 0.  1.
         21    1    1    2  502  501  0.59938576134E-05 -0.18863845539E-05  0.11698237613E-05  0.63916557642E-05  0.00000000000E+00 0. -1.
<mgrwt>
<rscale>  1 0.63555285E+03</rscale>
<asrwt>0</asrwt>
<pdfrwt beam="1">  1        1 0.36720753E+00 0.63555285E+03</pdfrwt>
<pdfrwt beam="2">0</pdfrwt>
<totfact> 0.18729439E+00</totfact>
</mgrwt>
</event>
<event>
 6    1  0.2236758E-003  0.6395914E+03  0.7818608E-02  0.9826509E-01
          1   -1    0    0  502    0  0.00000000000E+00  0.00000000000E+00  0.10226929009E+03  0.10226929009E+03  0.00000000000E+00 0.  1.
         13   -1    0    0    0    0 -0.00000000000E+00 -0.00000000000E+00 -0.10000000000E+04  0.10000000000E+04  0.00000000000E+00 0.  1.
    9000005    2    1    2  501    0  0.49910235020E-05  0.82954134939E-06 -0.89773071266E+03  0.11022692843E+04  0.63959138732E+03 0.  0.
         13    1    3    3    0    0  0.72874626826E+02  0.73202343406E+02 -0.97045963236E+03  0.97594118284E+03  0.00000000000E+00 0.  1.
          3    1    3    3  501    0 -0.72874621835E+02 -0.73202342576E+02  0.72728919701E+02  0.12632810149E+03  0.00000000000E+00 0.  1.
         21    1    1    2  502  501 -0.49910234999E-05 -0.82954135448E-06  0.27441202911E-05  0.57557493524E-05  0.00000000000E+00 0. -1.
<mgrwt>
<rscale>  1 0.63959139E+03</rscale>
<asrwt>0</asrwt>
<pdfrwt beam="1">  1        1 0.37188911E+00 0.63959139E+03</pdfrwt>
<pdfrwt beam="2">0</pdfrwt>
<totfact> 0.17850431E+00</totfact>
</mgrwt>
</event>
<event>
 6    1  0.2236758E-003  0.6467680E+03  0.7818608E-02  0.9812863E-01
          1   -1    0    0  502    0  0.00000000000E+00  0.00000000000E+00  0.10510892047E+03  0.10510892047E+03  0.00000000000E+00 0.  1.
         13   -1    0    0    0    0 -0.00000000000E+00 -0.00000000000E+00 -0.10000000000E+04  0.10000000000E+04  0.00000000000E+00 0.  1.
    9000005    2    1    2  501    0  0.32190124644E+00 -0.69627652682E-01 -0.89536588395E+03  0.11045310730E+04  0.64676790016E+03 0.  0.
         13    1    3    3    0    0  0.31097097694E+03  0.89243946461E+02 -0.44462972420E+03  0.54987546055E+03  0.00000000000E+00 0.  1.
          1    1    3    3  501    0 -0.31064907569E+03 -0.89313574114E+02 -0.45073615975E+03  0.55465561248E+03  0.00000000000E+00 0.  1.
         21    1    1    2  502  501 -0.32190124644E+00  0.69627652682E-01  0.47480442101E+00  0.57784743721E+00  0.00000000000E+00 0.  1.
<mgrwt>
<rscale>  1 0.64676798E+03</rscale>
<asrwt>0</asrwt>
<pdfrwt beam="1">  1        1 0.38221506E+00 0.64676798E+03</pdfrwt>
<pdfrwt beam="2">0</pdfrwt>
<totfact> 0.16053908E+00</totfact>
</mgrwt>
</event>
<event>
 6    1  0.2236758E-003  0.6563828E+03  0.7818608E-02  0.9794875E-01
          1   -1    0    0  502    0  0.00000000000E+00  0.00000000000E+00  0.10773211856E+03  0.10773211856E+03  0.00000000000E+00 0.  1.
         13   -1    0    0    0    0 -0.00000000000E+00 -0.00000000000E+00 -0.10000000000E+04  0.10000000000E+04  0.00000000000E+00 0.  1.
    9000005    2    1    2  501    0  0.50119814750E-03  0.44583913001E-03 -0.89229039577E+03  0.11077095942E+04  0.65638281115E+03 0.  0.
         13    1    3    3    0    0  0.24169291609E+03 -0.22032925014E+03 -0.49233663890E+03  0.59106328778E+03  0.00000000000E+00 0.  1.
          3    1    3    3  501    0 -0.24169241489E+03  0.22032969598E+03 -0.39995375687E+03  0.51664630646E+03  0.00000000000E+00 0.  1.
         21    1    1    2  502  501 -0.50119814750E-03 -0.44583913003E-03  0.22514334648E-01  0.22524325445E-01  0.00000000000E+00 0. -1.
<mgrwt>
<rscale>  1 0.65638281E+03</rscale>
<asrwt>0</asrwt>
<pdfrwt beam="1">  1        1 0.39175398E+00 0.65638281E+03</pdfrwt>
<pdfrwt beam="2">0</pdfrwt>
<totfact> 0.14540255E+00</totfact>
</mgrwt>
</event>
<event>
 6    1  0.2236758E-003  0.6597722E+03  0.7818608E-02  0.9788613E-01
          1   -1    0    0  502    0  0.00000000000E+00  0.00000000000E+00  0.10989296380E+03  0.10989296380E+03  0.00000000000E+00 0.  1.
         13   -1    0    0    0    0 -0.00000000000E+00 -0.00000000000E+00 -0.10000000000E+04  0.10000000000E+04  0.00000000000E+00 0.  1.
    9000005    2    1    2  501    0 -0.21783034363E+00  0.21875951465E+00 -0.89115038037E+03  0.11088049046E+04  0.65977209755E+03 0.  0.
         13    1    3    3    0    0  0.12498063045E+03 -0.28628321451E+02 -0.95622699980E+03  0.96478485369E+03  0.00000000000E+00 0.  1.
          1    1    3    3  501    0 -0.12519846079E+03  0.28847080965E+02  0.65076619426E+02  0.14402005090E+03  0.00000000000E+00 0.  1.
         21    1    1    2  502  501  0.21783034363E+00 -0.21875951465E+00  0.10433441723E+01  0.10880592106E+01  0.00000000000E+00 0.  1.
<mgrwt>
<rscale>  1 0.65977217E+03</rscale>
<asrwt>0</asrwt>
<pdfrwt beam="1">  1        1 0.39961162E+00 0.65977217E+03</pdfrwt>
<pdfrwt beam="2">0</pdfrwt>
<totfact> 0.13407382E+00</totfact>
</mgrwt>
</event>
<event>
 6    1  0.2236758E-003  0.6400788E+03  0.7818608E-02  0.9825576E-01
          1   -1    0    0  502    0  0.00000000000E+00  0.00000000000E+00  0.10300924082E+03  0.10300924082E+03  0.00000000000E+00 0.  1.
         13   -1    0    0    0    0 -0.00000000000E+00 -0.00000000000E+00 -0.10000000000E+04  0.10000000000E+04  0.00000000000E+00 0.  1.
    9000005    2    1    2  501    0  0.23023233326E-01 -0.27304059819E-01 -0.89757417999E+03  0.11024247278E+04  0.64007880038E+03 0.  0.
         13    1    3    3    0    0  0.10328466353E+03 -0.30121275588E+03 -0.39329436087E+03  0.50604080895E+03  0.00000000000E+00 0.  1.
          3    1    3    3  501    0 -0.10326164029E+03  0.30118545182E+03 -0.50427981911E+03  0.59638391889E+03  0.00000000000E+00 0.  1.
         21    1    1    2  502  501 -0.23023233326E-01  0.27304059819E-01  0.58342080804E+00  0.58451297694E+00  0.00000000000E+00 0. -1.
<mgrwt>
<rscale>  1 0.64007880E+03</rscale>
<asrwt>0</asrwt>
<pdfrwt beam="1">  1        1 0.37457985E+00 0.64007880E+03</pdfrwt>
<pdfrwt beam="2">0</pdfrwt>
<totfact> 0.17369040E+00</totfact>
</mgrwt>
</event>
<event>
 6    1  0.2236758E-003  0.6282025E+03  0.7818608E-02  0.9848563E-01
          1   -1    0    0  502    0  0.00000000000E+00  0.00000000000E+00  0.98691383757E+02  0.98691383757E+02  0.00000000000E+00 0.  1.
         13   -1    0    0    0    0 -0.00000000000E+00 -0.00000000000E+00 -0.10000000000E+04  0.10000000000E+04  0.00000000000E+00 0.  1.
    9000005    2    1    2  501    0  0.47489154624E-01 -0.41764003363E-01 -0.90130160031E+03  0.10986277546E+04  0.62820248675E+03 0.  0.
         13    1    3    3    0    0 -0.14985127249E+03  0.22369655247E+03 -0.73340491183E+03  0.78126712215E+03  0.00000000000E+00 0.  1.
          1    1    3    3  501    0  0.14989876165E+03 -0.22373831647E+03 -0.16789668848E+03  0.31736063241E+03  0.00000000000E+00 0.  1.
         21    1    1    2  502  501 -0.47489154624E-01  0.41764003363E-01 -0.70159319724E-02  0.63629199942E-01  0.00000000000E+00 0. -1.
<mgrwt>
<rscale>  1 0.62820249E+03</rscale>
<asrwt>0</asrwt>
<pdfrwt beam="1">  1        1 0.35887852E+00 0.62820249E+03</pdfrwt>
<pdfrwt beam="2">0</pdfrwt>
<totfact> 0.20397371E+00</totfact>
</mgrwt>
</event>
<event>
 6    1  0.2236758E-003  0.5701006E+03  0.7818608E-02  0.9969456E-01
          1   -1    0    0  502    0  0.00000000000E+00  0.00000000000E+00  0.83237242179E+02  0.83237242179E+02  0.00000000000E+00 0.  1.
         13   -1    0    0    0    0 -0.00000000000E+00 -0.00000000000E+00 -0.10000000000E+04  0.10000000000E+04  0.00000000000E+00 0.  1.
    9000005    2    1    2  501    0  0.51270476363E-01  0.37462780048E-01 -0.91874576994E+03  0.10812532137E+04  0.57010062113E+03 0.  0.
         13    1    3    3    0    0  0.14651446024E+03 -0.42335483583E+02 -0.91615479749E+03  0.92876175265E+03  0.00000000000E+00 0.  1.
          3    1    3    3  501    0 -0.14646318976E+03  0.42372946363E+02 -0.25909724559E+01  0.15249146100E+03  0.00000000000E+00 0.  1.
         21    1    1    2  502  501 -0.51270476363E-01 -0.37462780048E-01  0.19830121226E+01  0.19840285281E+01  0.00000000000E+00 0.  1.
<mgrwt>
<rscale>  1 0.57010062E+03</rscale>
<asrwt>0</asrwt>
<pdfrwt beam="1">  1        1 0.30268152E+00 0.57010062E+03</pdfrwt>
<pdfrwt beam="2">0</pdfrwt>
<totfact> 0.36119428E+00</totfact>
</mgrwt>
</event>
<event>
 6    1  0.2236758E-003  0.6429485E+03  0.7818608E-02  0.9820102E-01
          1   -1    0    0  502    0  0.00000000000E+00  0.00000000000E+00  0.10377757589E+03  0.10377757589E+03  0.00000000000E+00 0.  1.
         13   -1    0    0    0    0 -0.00000000000E+00 -0.00000000000E+00 -0.10000000000E+04  0.10000000000E+04  0.00000000000E+00 0.  1.
    9000005    2    1    2  501    0  0.13693307915E-01  0.31280497901E+00 -0.89659082730E+03  0.11032940933E+04  0.64294840134E+03 0.  0.
         13    1    3    3    0    0  0.17407790702E+03  0.11344700890E+03 -0.27311569765E+02  0.20956923291E+03  0.00000000000E+00 0.  1.
          3    1    3    3  501    0 -0.17406421371E+03 -0.11313420392E+03 -0.86927925753E+03  0.89372486044E+03  0.00000000000E+00 0.  1.
         21    1    1    2  502  501 -0.13693307915E-01 -0.31280497901E+00  0.36840319103E+00  0.48348254646E+00  0.00000000000E+00 0.  1.
<mgrwt>
<rscale>  1 0.64294848E+03</rscale>
<asrwt>0</asrwt>
<pdfrwt beam="1">  1        1 0.37737380E+00 0.64294848E+03</pdfrwt>
<pdfrwt beam="2">0</pdfrwt>
<totfact> 0.16875002E+00</totfact>
</mgrwt>
</event>
<event>
 6    1  0.2236758E-003  0.6512182E+03  0.7818608E-02  0.9804496E-01
          1   -1    0    0  502    0  0.00000000000E+00  0.00000000000E+00  0.10632787935E+03  0.10632787935E+03  0.00000000000E+00 0.  1.
         13   -1    0    0    0    0 -0.00000000000E+00 -0.00000000000E+00 -0.10000000000E+04  0.10000000000E+04  0.00000000000E+00 0.  1.
    9000005    2    1    2  501    0 -0.97126884244E-01 -0.28059172016E+00 -0.89389710161E+03  0.11059553451E+04  0.65121817304E+03 0.  0.
         13    1    3    3    0    0 -0.27719200951E+03 -0.14991593819E+03 -0.58693266518E+03  0.66618327217E+03  0.00000000000E+00 0.  1.
          1    1    3    3  501    0  0.27709488263E+03  0.14963534647E+03 -0.30696443643E+03  0.43977207292E+03  0.00000000000E+00 0.  1.
         21    1    1    2  502  501  0.97126884244E-01  0.28059172016E+00  0.22498095574E+00  0.37253426086E+00  0.00000000000E+00 0.  1.
<mgrwt>
<rscale>  1 0.65121824E+03</rscale>
<asrwt>0</asrwt>
<pdfrwt beam="1">  1        1 0.38664765E+00 0.65121824E+03</pdfrwt>
<pdfrwt beam="2">0</pdfrwt>
<totfact> 0.15332873E+00</totfact>
</mgrwt>
</event>
<event>
 6    1  0.2236758E-003  0.6370146E+03  0.7818608E-02  0.9831455E-01
          1   -1    0    0  502    0  0.00000000000E+00  0.00000000000E+00  0.10145881718E+03  0.10145881718E+03  0.00000000000E+00 0.  1.
         13   -1    0    0    0    0 -0.00000000000E+00 -0.00000000000E+00 -0.10000000000E+04  0.10000000000E+04  0.00000000000E+00 0.  1.
    9000005    2    1    2  501    0  0.16222984490E-02 -0.82485932461E-03 -0.89855303800E+03  0.11014468231E+04  0.63701455405E+03 0.  0.
         13    1    3    3    0    0  0.12904112141E+03 -0.28439412729E+03 -0.34107960531E+03  0.46245748757E+03  0.00000000000E+00 0.  1.
          3    1    3    3  501    0 -0.12903949912E+03  0.28439330243E+03 -0.55747343268E+03  0.63898933555E+03  0.00000000000E+00 0.  1.
         21    1    1    2  502  501 -0.16222984490E-02  0.82485932459E-03  0.11855170800E-01  0.11994053521E-01  0.00000000000E+00 0. -1.
<mgrwt>
<rscale>  1 0.63701455E+03</rscale>
<asrwt>0</asrwt>
<pdfrwt beam="1">  1        1 0.36894193E+00 0.63701455E+03</pdfrwt>
<pdfrwt beam="2">0</pdfrwt>
<totfact> 0.18399185E+00</totfact>
</mgrwt>
</event>
<event>
 6    1  0.2236758E-003  0.6481555E+03  0.7818608E-02  0.9810246E-01
          3   -1    0    0  502    0  0.00000000000E+00  0.00000000000E+00  0.10588228956E+03  0.10588228956E+03  0.00000000000E+00 0.  1.
         13   -1    0    0    0    0 -0.00000000000E+00 -0.00000000000E+00 -0.10000000000E+04  0.10000000000E+04  0.00000000000E+00 0.  1.
    9000005    2    1    2  501    0 -0.45374669929E-02 -0.15055934368E-01 -0.89497352746E+03  0.11050263281E+04  0.64815551427E+03 0.  0.
         13    1    3    3    0    0  0.25444211022E+03  0.76855587109E+02 -0.13138197317E+03  0.29649416790E+03  0.00000000000E+00 0.  1.
          1    1    3    3  501    0 -0.25444664769E+03 -0.76870643043E+02 -0.76359155429E+03  0.80853216019E+03  0.00000000000E+00 0.  1.
         21    1    1    2  502  501  0.45374669929E-02  0.15055934368E-01  0.85581701738E+00  0.85596146935E+00  0.00000000000E+00 0.  1.
<mgrwt>
<rscale>  1 0.64815551E+03</rscale>
<asrwt>0</asrwt>
<pdfrwt beam="1">  1        3 0.38502732E+00 0.64815551E+03</pdfrwt>
<pdfrwt beam="2">0</pdfrwt>
<totfact> 0.71028065E-02</totfact>
</mgrwt>
</event>
<event>
 6    1  0.2236758E-003  0.6487194E+03  0.7818608E-02  0.9809185E-01
          1   -1    0    0  502    0  0.00000000000E+00  0.00000000000E+00  0.10521963045E+03  0.10521963045E+03  0.00000000000E+00 0.  1.
         13   -1    0    0    0    0 -0.00000000000E+00 -0.00000000000E+00 -0.10000000000E+04  0.10000000000E+04  0.00000000000E+00 0.  1.
    9000005    2    1    2  501    0  0.27461449474E-03 -0.65345602830E-02 -0.89478963573E+03  0.11052082886E+04  0.64871940691E+03 0.  0.
         13    1    3    3    0    0 -0.22556449004E+03 -0.16167497040E+03 -0.73345274416E+03  0.78420090738E+03  0.00000000000E+00 0.  1.
          1    1    3    3  501    0  0.22556476466E+03  0.16166843584E+03 -0.16133689157E+03  0.32100738120E+03  0.00000000000E+00 0.  1.
         21    1    1    2  502  501 -0.27461449475E-03  0.65345602830E-02  0.92661797661E-02  0.11341868394E-01  0.00000000000E+00 0.  1.
<mgrwt>
<rscale>  1 0.64871941E+03</rscale>
<asrwt>0</asrwt>
<pdfrwt beam="1">  1        1 0.38261764E+00 0.64871941E+03</pdfrwt>
<pdfrwt beam="2">0</pdfrwt>
<totfact> 0.15982553E+00</totfact>
</mgrwt>
</event>
<event>
 6    1  0.2236758E-003  0.6322696E+03  0.7818608E-02  0.9840630E-01
          1   -1    0    0  502    0  0.00000000000E+00  0.00000000000E+00  0.99943461675E+02  0.99943461675E+02  0.00000000000E+00 0.  1.
         13   -1    0    0    0    0 -0.00000000000E+00 -0.00000000000E+00 -0.10000000000E+04  0.10000000000E+04  0.00000000000E+00 0.  1.
    9000005    2    1    2  501    0 -0.48026433319E-04 -0.11926723082E-03 -0.90005878479E+03  0.10999412115E+04  0.63226960448E+03 0.  0.
         13    1    3    3    0    0  0.19436608106E+03  0.24420186551E+03 -0.36255220785E+03  0.47838982849E+03  0.00000000000E+00 0.  1.
          3    1    3    3  501    0 -0.19436612909E+03 -0.24420198478E+03 -0.53750657694E+03  0.62155138304E+03  0.00000000000E+00 0.  1.
         21    1    1    2  502  501  0.48026433294E-04  0.11926723081E-03  0.22464650205E-02  0.22501413953E-02  0.00000000000E+00 0. -1.
<mgrwt>
<rscale>  1 0.63226960E+03</rscale>
<asrwt>0</asrwt>
<pdfrwt beam="1">  1        1 0.36343154E+00 0.63226960E+03</pdfrwt>
<pdfrwt beam="2">0</pdfrwt>
<totfact> 0.19468544E+00</totfact>
</mgrwt>
</event>
<event>
 6    1  0.2236758E-003  0.6468010E+03  0.7818608E-02  0.9812800E-01
          1   -1    0    0  502    0  0.00000000000E+00  0.00000000000E+00  0.10459496743E+03  0.10459496743E+03  0.00000000000E+00 0.  1.
         13   -1    0    0    0    0 -0.00000000000E+00 -0.00000000000E+00 -0.10000000000E+04  0.10000000000E+04  0.00000000000E+00 0.  1.
    9000005    2    1    2  501    0 -0.37244383863E-02 -0.86738950131E-03 -0.89541152526E+03  0.11045874323E+04  0.64680104817E+03 0.  0.
         13    1    3    3    0    0  0.92194316017E+02 -0.30958315254E+03 -0.47450746745E+03  0.57401990985E+03  0.00000000000E+00 0.  1.
          3    1    3    3  501    0 -0.92198040455E+02  0.30958228515E+03 -0.42090405781E+03  0.53056752240E+03  0.00000000000E+00 0.  1.
         21    1    1    2  502  501  0.37244383864E-02  0.86738950128E-03  0.64926950007E-02  0.75351771189E-02  0.00000000000E+00 0. -1.
<mgrwt>
<rscale>  1 0.64680105E+03</rscale>
<asrwt>0</asrwt>
<pdfrwt beam="1">  1        1 0.38034614E+00 0.64680105E+03</pdfrwt>
<pdfrwt beam="2">0</pdfrwt>
<totfact> 0.16361731E+00</totfact>
</mgrwt>
</event>
<event>
 6    1  0.2236758E-003  0.6506076E+03  0.7818608E-02  0.9805640E-01
          1   -1    0    0  502    0  0.00000000000E+00  0.00000000000E+00  0.12319192875E+03  0.12319192875E+03  0.00000000000E+00 0.  1.
         13   -1    0    0    0    0 -0.00000000000E+00 -0.00000000000E+00 -0.10000000000E+04  0.10000000000E+04  0.00000000000E+00 0.  1.
    9000005    2    1    2  501    0 -0.37426885816E+01 -0.50874444214E+01 -0.89354025793E+03  0.11053074137E+04  0.65057697189E+03 0.  0.
         13    1    3    3    0    0 -0.18690863276E+02 -0.39907920095E+02 -0.99553040554E+03  0.99650528289E+03  0.00000000000E+00 0.  1.
          1    1    3    3  501    0  0.14948174694E+02  0.34820475674E+02  0.10199014761E+03  0.10880213078E+03  0.00000000000E+00 0.  1.
         21    1    1    2  502  501  0.37426885816E+01  0.50874444214E+01  0.16732186680E+02  0.17884515080E+02  0.00000000000E+00 0. -1.
<mgrwt>
<rscale>  1 0.65060763E+03</rscale>
<asrwt>0</asrwt>
<pdfrwt beam="1">  1        1 0.44797159E+00 0.65060763E+03</pdfrwt>
<pdfrwt beam="2">0</pdfrwt>
<totfact> 0.81163457E-01</totfact>
</mgrwt>
</event>
<event>
 6    1  0.2236758E-003  0.6521084E+03  0.7818608E-02  0.9802831E-01
          1   -1    0    0  502    0  0.00000000000E+00  0.00000000000E+00  0.10869254506E+03  0.10869254506E+03  0.00000000000E+00 0.  1.
         13   -1    0    0    0    0 -0.00000000000E+00 -0.00000000000E+00 -0.10000000000E+04  0.10000000000E+04  0.00000000000E+00 0.  1.
    9000005    2    1    2  501    0  0.63399474206E+01  0.35392627934E+01 -0.88122682477E+03  0.10962691631E+04  0.65206797191E+03 0.  0.
         13    1    3    3    0    0  0.20241442033E+03 -0.24108528927E+03 -0.29468483308E+03  0.43119933338E+03  0.00000000000E+00 0.  1.
          3    1    3    3  501    0 -0.19607447291E+03  0.24462455207E+03 -0.58654199169E+03  0.66506982973E+03  0.00000000000E+00 0.  1.
         21    1    1    2  502  501 -0.63399474206E+01 -0.35392627934E+01 -0.10080630167E+02  0.12423381946E+02  0.00000000000E+00 0. -1.
<mgrwt>
<rscale>  1 0.65210840E+03</rscale>
<asrwt>0</asrwt>
<pdfrwt beam="1">  1        1 0.39524645E+00 0.65210840E+03</pdfrwt>
<pdfrwt beam="2">0</pdfrwt>
<totfact> 0.14041167E+00</totfact>
</mgrwt>
</event>
<event>
 6    1  0.2236758E-003  0.6523721E+03  0.7818608E-02  0.9802338E-01
          1   -1    0    0  502    0  0.00000000000E+00  0.00000000000E+00  0.10639968015E+03  0.10639968015E+03  0.00000000000E+00 0.  1.
         13   -1    0    0    0    0 -0.00000000000E+00 -0.00000000000E+00 -0.10000000000E+04  0.10000000000E+04  0.00000000000E+00 0.  1.
    9000005    2    1    2  501    0  0.13669362759E-02  0.41585808350E-03 -0.89360240084E+03  0.11063971559E+04  0.65237214512E+03 0.  0.
         13    1    3    3    0    0  0.31499558111E+03 -0.30992310270E+02 -0.31310025309E+03  0.44521287931E+03  0.00000000000E+00 0.  1.
          1    1    3    3  501    0 -0.31499421417E+03  0.30992726128E+02 -0.58050214775E+03  0.66118427656E+03  0.00000000000E+00 0.  1.
         21    1    1    2  502  501 -0.13669362758E-02 -0.41585808350E-03  0.20809925425E-02  0.25242786474E-02  0.00000000000E+00 0.  1.
<mgrwt>
<rscale>  1 0.65237215E+03</rscale>
<asrwt>0</asrwt>
<pdfrwt beam="1">  1        1 0.38690874E+00 0.65237215E+03</pdfrwt>
<pdfrwt beam="2">0</pdfrwt>
<totfact> 0.15288854E+00</totfact>
</mgrwt>
</event>
<event>
 6    1  0.2236758E-003  0.6606429E+03  0.7818608E-02  0.9787011E-01
          1   -1    0    0  502    0  0.00000000000E+00  0.00000000000E+00  0.10923222230E+03  0.10923222230E+03  0.00000000000E+00 0.  1.
         13   -1    0    0    0    0 -0.00000000000E+00 -0.00000000000E+00 -0.10000000000E+04  0.10000000000E+04  0.00000000000E+00 0.  1.
    9000005    2    1    2  501    0 -0.23109732530E-01  0.65763470877E-01 -0.89087641562E+03  0.11091031444E+04  0.66064286287E+03 0.  0.
         13    1    3    3    0    0  0.22212774637E+03  0.29829448652E+02 -0.85279673204E+03  0.88175552048E+03  0.00000000000E+00 0.  1.
          1    1    3    3  501    0 -0.22215085610E+03 -0.29763685181E+02 -0.38079683575E+02  0.22734762397E+03  0.00000000000E+00 0.  1.
         21    1    1    2  502  501  0.23109732530E-01 -0.65763470877E-01  0.10863792110E+00  0.12907785147E+00  0.00000000000E+00 0. -1.
<mgrwt>
<rscale>  1 0.66064287E+03</rscale>
<asrwt>0</asrwt>
<pdfrwt beam="1">  1        1 0.39720892E+00 0.66064287E+03</pdfrwt>
<pdfrwt beam="2">0</pdfrwt>
<totfact> 0.13739705E+00</totfact>
</mgrwt>
</event>
<event>
 6    1  0.2236758E-003  0.6519805E+03  0.7818608E-02  0.9803070E-01
          1   -1    0    0  502    0  0.00000000000E+00  0.00000000000E+00  0.10639843423E+03  0.10639843423E+03  0.00000000000E+00 0.  1.
         13   -1    0    0    0    0 -0.00000000000E+00 -0.00000000000E+00 -0.10000000000E+04  0.10000000000E+04  0.00000000000E+00 0.  1.
    9000005    2    1    2  501    0 -0.25145956686E-01  0.29483663458E-01 -0.89372711743E+03  0.11062670385E+04  0.65198052013E+03 0.  0.
         13    1    3    3    0    0 -0.96384020100E+02 -0.22490180978E+02  0.80161569051E+02  0.12736390668E+03  0.00000000000E+00 0.  1.
          1    1    3    3  501    0  0.96358874144E+02  0.22519664641E+02 -0.97388868648E+03  0.97890313187E+03  0.00000000000E+00 0.  1.
         21    1    1    2  502  501  0.25145956686E-01 -0.29483663458E-01  0.12555166700E+00  0.13139568728E+00  0.00000000000E+00 0.  1.
<mgrwt>
<rscale>  1 0.65198052E+03</rscale>
<asrwt>0</asrwt>
<pdfrwt beam="1">  1        1 0.38690421E+00 0.65198052E+03</pdfrwt>
<pdfrwt beam="2">0</pdfrwt>
<totfact> 0.15290667E+00</totfact>
</mgrwt>
</event>
<event>
 6    1  0.2236758E-003  0.6398306E+03  0.7818608E-02  0.9826051E-01
          1   -1    0    0  502    0  0.00000000000E+00  0.00000000000E+00  0.10240392359E+03  0.10240392359E+03  0.00000000000E+00 0.  1.
         13   -1    0    0    0    0 -0.00000000000E+00 -0.00000000000E+00 -0.10000000000E+04  0.10000000000E+04  0.00000000000E+00 0.  1.
    9000005    2    1    2  501    0 -0.10335727136E-01  0.81440933080E-03 -0.89765367763E+03  0.11023453967E+04  0.63983064060E+03 0.  0.
         13    1    3    3    0    0  0.19970182418E+03  0.12449804478E+03 -0.82218599531E+03  0.85520196013E+03  0.00000000000E+00 0.  1.
          1    1    3    3  501    0 -0.19971215991E+03 -0.12449723037E+03 -0.75467682327E+02  0.24714343661E+03  0.00000000000E+00 0.  1.
         21    1    1    2  502  501  0.10335727136E-01 -0.81440933080E-03  0.57601221325E-01  0.58526841843E-01  0.00000000000E+00 0.  1.
<mgrwt>
<rscale>  1 0.63983064E+03</rscale>
<asrwt>0</asrwt>
<pdfrwt beam="1">  1        1 0.37237869E+00 0.63983064E+03</pdfrwt>
<pdfrwt beam="2">0</pdfrwt>
<totfact> 0.17761414E+00</totfact>
</mgrwt>
</event>
<event>
 6    1  0.2236758E-003  0.6474054E+03  0.7818608E-02  0.9811660E-01
          1   -1    0    0  502    0  0.00000000000E+00  0.00000000000E+00  0.10481484769E+03  0.10481484769E+03  0.00000000000E+00 0.  1.
         13   -1    0    0    0    0 -0.00000000000E+00 -0.00000000000E+00 -0.10000000000E+04  0.10000000000E+04  0.00000000000E+00 0.  1.
    9000005    2    1    2  501    0  0.42125580372E-03 -0.15772863641E-03 -0.89521657610E+03  0.11047834207E+04  0.64740535099E+03 0.  0.
         13    1    3    3    0    0 -0.33417320203E+02  0.88484928952E+02  0.80676045048E+02  0.12431783535E+03  0.00000000000E+00 0.  1.
          3    1    3    3  501    0  0.33417741459E+02 -0.88485086681E+02 -0.97589262115E+03  0.98046558533E+03  0.00000000000E+00 0.  1.
         21    1    1    2  502  501 -0.42125580372E-03  0.15772863641E-03  0.31423794433E-01  0.31427013719E-01  0.00000000000E+00 0.  1.
<mgrwt>
<rscale>  1 0.64740535E+03</rscale>
<asrwt>0</asrwt>
<pdfrwt beam="1">  1        1 0.38114570E+00 0.64740535E+03</pdfrwt>
<pdfrwt beam="2">0</pdfrwt>
<totfact> 0.16227507E+00</totfact>
</mgrwt>
</event>
<event>
 6    1  0.2236758E-003  0.6283858E+03  0.7818608E-02  0.9848204E-01
          1   -1    0    0  502    0  0.00000000000E+00  0.00000000000E+00  0.99416970551E+02  0.99416970551E+02  0.00000000000E+00 0.  1.
         13   -1    0    0    0    0 -0.00000000000E+00 -0.00000000000E+00 -0.10000000000E+04  0.10000000000E+04  0.00000000000E+00 0.  1.
    9000005    2    1    2  501    0  0.44062384521E+00 -0.18163780527E+00 -0.90119262118E+03  0.10986431852E+04  0.62838561474E+03 0.  0.
         13    1    3    3    0    0  0.11185197301E+03 -0.29017184798E+03 -0.37054672809E+03  0.48375142679E+03  0.00000000000E+00 0.  1.
          1    1    3    3  501    0 -0.11141134916E+03  0.28999021018E+03 -0.53064589309E+03  0.61489175842E+03  0.00000000000E+00 0.  1.
         21    1    1    2  502  501 -0.44062384521E+00  0.18163780527E+00  0.60959173268E+00  0.77378533575E+00  0.00000000000E+00 0.  1.
<mgrwt>
<rscale>  1 0.62838580E+03</rscale>
<asrwt>0</asrwt>
<pdfrwt beam="1">  1        1 0.36151702E+00 0.62838580E+03</pdfrwt>
<pdfrwt beam="2">0</pdfrwt>
<totfact> 0.19861866E+00</totfact>
</mgrwt>
</event>
<event>
 6    1  0.2236758E-003  0.6680988E+03  0.7818608E-02  0.9773398E-01
          1   -1    0    0  502    0  0.00000000000E+00  0.00000000000E+00  0.11171261789E+03  0.11171261789E+03  0.00000000000E+00 0.  1.
         13   -1    0    0    0    0 -0.00000000000E+00 -0.00000000000E+00 -0.10000000000E+04  0.10000000000E+04  0.00000000000E+00 0.  1.
    9000005    2    1    2  501    0  0.59420780801E-02 -0.29968519640E-02 -0.88841089583E+03  0.11115889250E+04  0.66809880880E+03 0.  0.
         13    1    3    3    0    0  0.25963842373E+02 -0.41773358704E+02 -0.99394363449E+03  0.99515982794E+03  0.00000000000E+00 0.  1.
          1    1    3    3  501    0 -0.25957900295E+02  0.41770361852E+02  0.10553273865E+03  0.11642909707E+03  0.00000000000E+00 0.  1.
         21    1    1    2  502  501 -0.59420780801E-02  0.29968519640E-02  0.12351371994E+00  0.12369287945E+00  0.00000000000E+00 0. -1.
<mgrwt>
<rscale>  1 0.66809881E+03</rscale>
<asrwt>0</asrwt>
<pdfrwt beam="1">  1        1 0.40622856E+00 0.66809881E+03</pdfrwt>
<pdfrwt beam="2">0</pdfrwt>
<totfact> 0.12505724E+00</totfact>
</mgrwt>
</event>
