<event>
 6    1  0.2758445E-002  0.6535686E+03  0.7818608E-02  0.9800106E-01
          1   -1    0    0  502    0  0.00000000000E+00  0.00000000000E+00  0.10678800217E+03  0.10678800217E+03  0.00000000000E+00 0.  1.
         13   -1    0    0    0    0 -0.00000000000E+00 -0.00000000000E+00 -0.10000000000E+04  0.10000000000E+04  0.00000000000E+00 0.  1.
    9000005    2    1    2  501    0  0.14050290247E-05 -0.56500574601E-05 -0.89321200837E+03  0.11067879901E+04  0.65356863695E+03 0.  0.
         13    1    3    3    0    0 -0.29480756441E+03 -0.11849186464E+03 -0.31723493603E+03  0.44898755735E+03  0.00000000000E+00 0.  1.
          1    1    3    3  501    0  0.29480756581E+03  0.11849185899E+03 -0.57597707233E+03  0.65780043278E+03  0.00000000000E+00 0.  1.
         21    1    1    2  502  501 -0.14050289821E-05  0.56500574654E-05  0.10538767561E-04  0.12040053053E-04  0.00000000000E+00 0.  1.
<mgrwt>
<rscale>  1 0.65356864E+03</rscale>
<asrwt>0</asrwt>
<pdfrwt beam="1">  1        1 0.38832083E+00 0.65356864E+03</pdfrwt>
<pdfrwt beam="2">0</pdfrwt>
<totfact> 0.15066915E+00</totfact>
</mgrwt>
</event>
<event>
 6    1  0.2758445E-002  0.6489043E+03  0.7818608E-02  0.9808837E-01
          1   -1    0    0  502    0  0.00000000000E+00  0.00000000000E+00  0.10530043277E+03  0.10530043277E+03  0.00000000000E+00 0.  1.
         13   -1    0    0    0    0 -0.00000000000E+00 -0.00000000000E+00 -0.10000000000E+04  0.10000000000E+04  0.00000000000E+00 0.  1.
    9000005    2    1    2  501    0 -0.91313782002E-01 -0.30194070688E-01 -0.89455829099E+03  0.11051295268E+04  0.64890425000E+03 0.  0.
         13    1    3    3    0    0 -0.13910895437E+03 -0.28209223007E+03 -0.58317620695E+03  0.66258721373E+03  0.00000000000E+00 0.  1.
          1    1    3    3  501    0  0.13901764059E+03  0.28206203600E+03 -0.31138208405E+03  0.44254231302E+03  0.00000000000E+00 0.  1.
         21    1    1    2  502  501  0.91313782002E-01  0.30194070688E-01 -0.14127623961E+00  0.17090601091E+00  0.00000000000E+00 0. -1.
<mgrwt>
<rscale>  1 0.64890426E+03</rscale>
<asrwt>0</asrwt>
<pdfrwt beam="1">  1        1 0.38291147E+00 0.64890426E+03</pdfrwt>
<pdfrwt beam="2">0</pdfrwt>
<totfact> 0.15934306E+00</totfact>
</mgrwt>
</event>
<event>
 6    1  0.2758445E-002  0.6469280E+03  0.7818608E-02  0.9812561E-01
          1   -1    0    0  502    0  0.00000000000E+00  0.00000000000E+00  0.13514847968E+03  0.13514847968E+03  0.00000000000E+00 0.  1.
         13   -1    0    0    0    0 -0.00000000000E+00 -0.00000000000E+00 -0.10000000000E+04  0.10000000000E+04  0.00000000000E+00 0.  1.
    9000005    2    1    2  501    0  0.50226410260E+02  0.27891698383E+02 -0.86182596621E+03  0.10776176783E+04  0.64437196206E+03 0.  0.
         13    1    3    3    0    0  0.14891831653E+03 -0.10627359234E+02 -0.93629333859E+03  0.94812173356E+03  0.00000000000E+00 0.  1.
          1    1    3    3  501    0 -0.98691906272E+02  0.38519057617E+02  0.74467372376E+02  0.12949594477E+03  0.00000000000E+00 0.  1.
         21    1    1    2  502  501 -0.50226410260E+02 -0.27891698383E+02 -0.30255541048E+01  0.57530801349E+02  0.00000000000E+00 0.  1.
<mgrwt>
<rscale>  1 0.64692802E+03</rscale>
<asrwt>0</asrwt>
<pdfrwt beam="1">  1        1 0.49145005E+00 0.64692802E+03</pdfrwt>
<pdfrwt beam="2">0</pdfrwt>
<totfact> 0.50843353E-01</totfact>
</mgrwt>
</event>
<event>
 6    1  0.2758445E-002  0.6450239E+03  0.7818608E-02  0.9816162E-01
          1   -1    0    0  502    0  0.00000000000E+00  0.00000000000E+00  0.10401395225E+03  0.10401395225E+03  0.00000000000E+00 0.  1.
         13   -1    0    0    0    0 -0.00000000000E+00 -0.00000000000E+00 -0.10000000000E+04  0.10000000000E+04  0.00000000000E+00 0.  1.
    9000005    2    1    2  501    0 -0.17668321220E-04 -0.41605826340E-05 -0.89598602885E+03  0.11040139260E+04  0.64502386389E+03 0.  0.
         13    1    3    3    0    0 -0.31896379978E+03  0.32319487788E+02 -0.50805718908E+03  0.60075332894E+03  0.00000000000E+00 0.  1.
          1    1    3    3  501    0  0.31896378211E+03 -0.32319491948E+02 -0.38792883977E+03  0.50326059710E+03  0.00000000000E+00 0.  1.
         21    1    1    2  502  501  0.17668321224E-04  0.41605826284E-05 -0.18900249524E-04  0.26204950959E-04  0.00000000000E+00 0.  1.
<mgrwt>
<rscale>  1 0.64502386E+03</rscale>
<asrwt>0</asrwt>
<pdfrwt beam="1">  1        1 0.37823335E+00 0.64502386E+03</pdfrwt>
<pdfrwt beam="2">0</pdfrwt>
<totfact> 0.16722066E+00</totfact>
</mgrwt>
</event>
<event>
 6    1  0.2758445E-002  0.6505706E+03  0.7818608E-02  0.9805709E-01
          1   -1    0    0  502    0  0.00000000000E+00  0.00000000000E+00  0.10581365940E+03  0.10581365940E+03  0.00000000000E+00 0.  1.
         13   -1    0    0    0    0 -0.00000000000E+00 -0.00000000000E+00 -0.10000000000E+04  0.10000000000E+04  0.00000000000E+00 0.  1.
    9000005    2    1    2  501    0 -0.52703893815E-04  0.10869990996E-03 -0.89418945864E+03  0.11058105390E+04  0.65057064203E+03 0.  0.
         13    1    3    3    0    0 -0.12654759571E+03  0.29658433542E+03 -0.51988753009E+03  0.61176760780E+03  0.00000000000E+00 0.  1.
          3    1    3    3  501    0  0.12654754301E+03 -0.29658422672E+03 -0.37430192854E+03  0.49404293123E+03  0.00000000000E+00 0.  1.
         21    1    1    2  502  501  0.52703893822E-04 -0.10869990995E-03  0.31180401436E-02  0.31203794173E-02  0.00000000000E+00 0. -1.
<mgrwt>
<rscale>  1 0.65057064E+03</rscale>
<asrwt>0</asrwt>
<pdfrwt beam="1">  1        1 0.38477775E+00 0.65057064E+03</pdfrwt>
<pdfrwt beam="2">0</pdfrwt>
<totfact> 0.15629658E+00</totfact>
</mgrwt>
</event>
<event>
 6    1  0.2758445E-002  0.6504220E+03  0.7818608E-02  0.9805988E-01
          1   -1    0    0  502    0  0.00000000000E+00  0.00000000000E+00  0.10600568135E+03  0.10600568135E+03  0.00000000000E+00 0.  1.
         13   -1    0    0    0    0 -0.00000000000E+00 -0.00000000000E+00 -0.10000000000E+04  0.10000000000E+04  0.00000000000E+00 0.  1.
    9000005    2    1    2  501    0 -0.35071343227E+00  0.25311965629E+00 -0.89400389254E+03  0.11055730601E+04  0.65042189716E+03 0.  0.
         13    1    3    3    0    0 -0.22348566217E+03 -0.21068376600E+03 -0.62896807279E+03  0.69995308917E+03  0.00000000000E+00 0.  1.
          1    1    3    3  501    0  0.22313494874E+03  0.21093688565E+03 -0.26503581975E+03  0.40561997094E+03  0.00000000000E+00 0.  1.
         21    1    1    2  502  501  0.35071343227E+00 -0.25311965629E+00  0.95738916315E-02  0.43262123316E+00  0.00000000000E+00 0.  1.
<mgrwt>
<rscale>  1 0.65042204E+03</rscale>
<asrwt>0</asrwt>
<pdfrwt beam="1">  1        1 0.38547602E+00 0.65042204E+03</pdfrwt>
<pdfrwt beam="2">0</pdfrwt>
<totfact> 0.15519317E+00</totfact>
</mgrwt>
</event>
<event>
 6    1  0.2758445E-002  0.7085549E+03  0.7818608E-02  0.9702713E-01
          1   -1    0    0  502    0  0.00000000000E+00  0.00000000000E+00  0.12551403861E+03  0.12551403861E+03  0.00000000000E+00 0.  1.
         13   -1    0    0    0    0 -0.00000000000E+00 -0.00000000000E+00 -0.10000000000E+04  0.10000000000E+04  0.00000000000E+00 0.  1.
    9000005    2    1    2  501    0  0.44081822921E-05  0.26886014354E-04 -0.87448747457E+03  0.11255125252E+04  0.70855493872E+03 0.  0.
         13    1    3    3    0    0 -0.16934230641E+03 -0.23274648260E+03 -0.76534773625E+03  0.81768263971E+03  0.00000000000E+00 0.  1.
          3    1    3    3  501    0  0.16934231082E+03  0.23274650949E+03 -0.10913973832E+03  0.30782988548E+03  0.00000000000E+00 0.  1.
         21    1    1    2  502  501 -0.44081822771E-05 -0.26886014353E-04  0.15131764353E-02  0.15134216908E-02  0.00000000000E+00 0.  1.
<mgrwt>
<rscale>  1 0.70855494E+03</rscale>
<asrwt>0</asrwt>
<pdfrwt beam="1">  1        1 0.45641565E+00 0.70855494E+03</pdfrwt>
<pdfrwt beam="2">0</pdfrwt>
<totfact> 0.73332632E-01</totfact>
</mgrwt>
</event>
<event>
 6    1  0.2758445E-002  0.6677209E+03  0.7818608E-02  0.9774084E-01
          1   -1    0    0  502    0  0.00000000000E+00  0.00000000000E+00  0.11146302769E+03  0.11146302769E+03  0.00000000000E+00 0.  1.
         13   -1    0    0    0    0 -0.00000000000E+00 -0.00000000000E+00 -0.10000000000E+04  0.10000000000E+04  0.00000000000E+00 0.  1.
    9000005    2    1    2  501    0 -0.13333211365E-03 -0.23903030413E-03 -0.88853708143E+03  0.11114627330E+04  0.66772094609E+03 0.  0.
         13    1    3    3    0    0 -0.15134675026E+03 -0.12576821031E+03 -0.89320493307E+03  0.91462480505E+03  0.00000000000E+00 0.  1.
          1    1    3    3  501    0  0.15134661693E+03  0.12576797128E+03  0.46678516446E+01  0.19683792799E+03  0.00000000000E+00 0.  1.
         21    1    1    2  502  501  0.13333211366E-03  0.23903030413E-03  0.10911629475E-03  0.29465115748E-03  0.00000000000E+00 0. -1.
<mgrwt>
<rscale>  1 0.66772095E+03</rscale>
<asrwt>0</asrwt>
<pdfrwt beam="1">  1        1 0.40532096E+00 0.66772095E+03</pdfrwt>
<pdfrwt beam="2">0</pdfrwt>
<totfact> 0.12624108E+00</totfact>
</mgrwt>
</event>
<event>
 6    1  0.2758445E-002  0.6522025E+03  0.7818608E-02  0.9802655E-01
          1   -1    0    0  502    0  0.00000000000E+00  0.00000000000E+00  0.10652579930E+03  0.10652579930E+03  0.00000000000E+00 0.  1.
         13   -1    0    0    0    0 -0.00000000000E+00 -0.00000000000E+00 -0.10000000000E+04  0.10000000000E+04  0.00000000000E+00 0.  1.
    9000005    2    1    2  501    0  0.64438710990E-01  0.42732889954E-01 -0.89364892482E+03  0.11063347313E+04  0.65220252296E+03 0.  0.
         13    1    3    3    0    0 -0.31065312388E+03  0.61547705344E+02 -0.57852393876E+03  0.65953273696E+03  0.00000000000E+00 0.  1.
          3    1    3    3  501    0  0.31071756259E+03 -0.61504972454E+02 -0.31512498606E+03  0.44680199438E+03  0.00000000000E+00 0.  1.
         21    1    1    2  502  501 -0.64438710990E-01 -0.42732889954E-01  0.17472411918E+00  0.19106795959E+00  0.00000000000E+00 0. -1.
<mgrwt>
<rscale>  1 0.65220253E+03</rscale>
<asrwt>0</asrwt>
<pdfrwt beam="1">  1        1 0.38736736E+00 0.65220253E+03</pdfrwt>
<pdfrwt beam="2">0</pdfrwt>
<totfact> 0.15218006E+00</totfact>
</mgrwt>
</event>
<event>
 6    1  0.2758445E-002  0.6477079E+03  0.7818608E-02  0.9811090E-01
          1   -1    0    0  502    0  0.00000000000E+00  0.00000000000E+00  0.10490766647E+03  0.10490766647E+03  0.00000000000E+00 0.  1.
         13   -1    0    0    0    0 -0.00000000000E+00 -0.00000000000E+00 -0.10000000000E+04  0.10000000000E+04  0.00000000000E+00 0.  1.
    9000005    2    1    2  501    0  0.83929115668E-02  0.15235907067E-01 -0.89511539522E+03  0.11048787802E+04  0.64770791869E+03 0.  0.
         13    1    3    3    0    0 -0.16823240270E+03  0.27309193004E+03 -0.52390377608E+03  0.61429350489E+03  0.00000000000E+00 0.  1.
          1    1    3    3  501    0  0.16824079561E+03 -0.27307669413E+03 -0.37121161914E+03  0.49058527533E+03  0.00000000000E+00 0.  1.
         21    1    1    2  502  501 -0.83929115668E-02 -0.15235907067E-01  0.23061690317E-01  0.28886249134E-01  0.00000000000E+00 0. -1.
<mgrwt>
<rscale>  1 0.64770792E+03</rscale>
<asrwt>0</asrwt>
<pdfrwt beam="1">  1        1 0.38148323E+00 0.64770792E+03</pdfrwt>
<pdfrwt beam="2">0</pdfrwt>
<totfact> 0.16171020E+00</totfact>
</mgrwt>
</event>
<event>
 6    1  0.2758445E-002  0.6564495E+03  0.7818608E-02  0.9794752E-01
          1   -1    0    0  502    0  0.00000000000E+00  0.00000000000E+00  0.10777182131E+03  0.10777182131E+03  0.00000000000E+00 0.  1.
         13   -1    0    0    0    0 -0.00000000000E+00 -0.00000000000E+00 -0.10000000000E+04  0.10000000000E+04  0.00000000000E+00 0.  1.
    9000005    2    1    2  501    0 -0.59512548321E-01  0.13342154663E-01 -0.89224117035E+03  0.11077094632E+04  0.65644949917E+03 0.  0.
         13    1    3    3    0    0  0.68001584976E+02 -0.25811906211E+03 -0.76837382352E+03  0.81341748103E+03  0.00000000000E+00 0.  1.
          3    1    3    3  501    0 -0.68061097524E+02  0.25813240426E+03 -0.12386734684E+03  0.29429198212E+03  0.00000000000E+00 0.  1.
         21    1    1    2  502  501  0.59512548321E-01 -0.13342154663E-01  0.12991664505E-01  0.62358157809E-01  0.00000000000E+00 0. -1.
<mgrwt>
<rscale>  1 0.65644950E+03</rscale>
<asrwt>0</asrwt>
<pdfrwt beam="1">  1        1 0.39189836E+00 0.65644950E+03</pdfrwt>
<pdfrwt beam="2">0</pdfrwt>
<totfact> 0.14518634E+00</totfact>
</mgrwt>
</event>
<event>
 6    1  0.2758445E-002  0.6535767E+03  0.7818608E-02  0.9800091E-01
          1   -1    0    0  502    0  0.00000000000E+00  0.00000000000E+00  0.10691348977E+03  0.10691348977E+03  0.00000000000E+00 0.  1.
         13   -1    0    0    0    0 -0.00000000000E+00 -0.00000000000E+00 -0.10000000000E+04  0.10000000000E+04  0.00000000000E+00 0.  1.
    9000005    2    1    2  501    0  0.30754448272E-02  0.51205604235E-01 -0.89320341396E+03  0.11067858263E+04  0.65357671624E+03 0.  0.
         13    1    3    3    0    0  0.67090608159E+02 -0.19334641717E+03 -0.87798045744E+03  0.90151742656E+03  0.00000000000E+00 0.  1.
          3    1    3    3  501    0 -0.67087532714E+02  0.19339762277E+03 -0.15222956521E+02  0.20526839977E+03  0.00000000000E+00 0.  1.
         21    1    1    2  502  501 -0.30754448272E-02 -0.51205604235E-01  0.11690373556E+00  0.12766344682E+00  0.00000000000E+00 0. -1.
<mgrwt>
<rscale>  1 0.65357672E+03</rscale>
<asrwt>0</asrwt>
<pdfrwt beam="1">  1        1 0.38877715E+00 0.65357672E+03</pdfrwt>
<pdfrwt beam="2">0</pdfrwt>
<totfact> 0.14996902E+00</totfact>
</mgrwt>
</event>
<event>
 6    1  0.2758445E-002  0.6359195E+03  0.7818608E-02  0.9833565E-01
          1   -1    0    0  502    0  0.00000000000E+00  0.00000000000E+00  0.10111094323E+03  0.10111094323E+03  0.00000000000E+00 0.  1.
         13   -1    0    0    0    0 -0.00000000000E+00 -0.00000000000E+00 -0.10000000000E+04  0.10000000000E+04  0.00000000000E+00 0.  1.
    9000005    2    1    2  501    0 -0.14200153717E-01 -0.21534900240E-01 -0.89888497346E+03  0.11010848268E+04  0.63591949141E+03 0.  0.
         13    1    3    3    0    0  0.60615754946E+02  0.11931312008E+03 -0.94882660548E+03  0.95821804285E+03  0.00000000000E+00 0.  1.
          1    1    3    3  501    0 -0.60629955100E+02 -0.11933465498E+03  0.49941632026E+02  0.14286678391E+03  0.00000000000E+00 0.  1.
         21    1    1    2  502  501  0.14200153717E-01  0.21534900240E-01 -0.40833163801E-02  0.26116465431E-01  0.00000000000E+00 0.  1.
<mgrwt>
<rscale>  1 0.63591949E+03</rscale>
<asrwt>0</asrwt>
<pdfrwt beam="1">  1        1 0.36767693E+00 0.63591949E+03</pdfrwt>
<pdfrwt beam="2">0</pdfrwt>
<totfact> 0.18639601E+00</totfact>
</mgrwt>
</event>
<event>
 6    1  0.2758445E-002  0.6645252E+03  0.7818608E-02  0.9779899E-01
          1   -1    0    0  502    0  0.00000000000E+00  0.00000000000E+00  0.11040719984E+03  0.11040719984E+03  0.00000000000E+00 0.  1.
         13   -1    0    0    0    0 -0.00000000000E+00 -0.00000000000E+00 -0.10000000000E+04  0.10000000000E+04  0.00000000000E+00 0.  1.
    9000005    2    1    2  501    0 -0.86516925930E-03  0.61210743985E-03 -0.88960154305E+03  0.11103983930E+04  0.66452515804E+03 0.  0.
         13    1    3    3    0    0  0.39027236178E+02  0.29038383139E+03 -0.70662947056E+03  0.76496477263E+03  0.00000000000E+00 0.  1.
          1    1    3    3  501    0 -0.39028101347E+02 -0.29038321929E+03 -0.18297207249E+03  0.34543362032E+03  0.00000000000E+00 0.  1.
         21    1    1    2  502  501  0.86516925930E-03 -0.61210743983E-03  0.87428890541E-02  0.88068894837E-02  0.00000000000E+00 0. -1.
<mgrwt>
<rscale>  1 0.66452516E+03</rscale>
<asrwt>0</asrwt>
<pdfrwt beam="1">  1        1 0.40148157E+00 0.66452516E+03</pdfrwt>
<pdfrwt beam="2">0</pdfrwt>
<totfact> 0.13140626E+00</totfact>
</mgrwt>
</event>
<event>
 6    1  0.2758445E-002  0.6508173E+03  0.7818608E-02  0.9805247E-01
          1   -1    0    0  502    0  0.00000000000E+00  0.00000000000E+00  0.10589078897E+03  0.10589078897E+03  0.00000000000E+00 0.  1.
         13   -1    0    0    0    0 -0.00000000000E+00 -0.00000000000E+00 -0.10000000000E+04  0.10000000000E+04  0.00000000000E+00 0.  1.
    9000005    2    1    2  501    0  0.85642047054E-05 -0.12344196023E-04 -0.89410922116E+03  0.11058907708E+04  0.65081725367E+03 0.  0.
         13    1    3    3    0    0  0.91538129815E+02 -0.26595015119E+03 -0.16897112186E+03  0.32811576029E+03  0.00000000000E+00 0.  1.
          1    1    3    3  501    0 -0.91538121251E+02  0.26595013884E+03 -0.72513809930E+03  0.77777501056E+03  0.00000000000E+00 0.  1.
         21    1    1    2  502  501 -0.85642047054E-05  0.12344196036E-04  0.10128223812E-04  0.18119207918E-04  0.00000000000E+00 0.  1.
<mgrwt>
<rscale>  1 0.65081725E+03</rscale>
<asrwt>0</asrwt>
<pdfrwt beam="1">  1        1 0.38505823E+00 0.65081725E+03</pdfrwt>
<pdfrwt beam="2">0</pdfrwt>
<totfact> 0.15584366E+00</totfact>
</mgrwt>
</event>
<event>
 6    1  0.2758445E-002  0.6462740E+03  0.7818608E-02  0.9813796E-01
          1   -1    0    0  502    0  0.00000000000E+00  0.00000000000E+00  0.10458238265E+03  0.10458238265E+03  0.00000000000E+00 0.  1.
         13   -1    0    0    0    0 -0.00000000000E+00 -0.00000000000E+00 -0.10000000000E+04  0.10000000000E+04  0.00000000000E+00 0.  1.
    9000005    2    1    2  501    0 -0.92783205679E-03  0.27769348776E-02 -0.89558245695E+03  0.11044175171E+04  0.64627402451E+03 0.  0.
         13    1    3    3    0    0  0.25626188613E+03 -0.69667059954E+02 -0.13317891814E+03  0.29708631366E+03  0.00000000000E+00 0.  1.
          1    1    3    3  501    0 -0.25626281396E+03  0.69669836889E+02 -0.76240353881E+03  0.80733120339E+03  0.00000000000E+00 0.  1.
         21    1    1    2  502  501  0.92783205675E-03 -0.27769348776E-02  0.16483960282E+00  0.16486560253E+00  0.00000000000E+00 0.  1.
<mgrwt>
<rscale>  1 0.64627402E+03</rscale>
<asrwt>0</asrwt>
<pdfrwt beam="1">  1        1 0.38030038E+00 0.64627402E+03</pdfrwt>
<pdfrwt beam="2">0</pdfrwt>
<totfact> 0.16370927E+00</totfact>
</mgrwt>
</event>
<event>
 6    1  0.2758445E-002  0.5844379E+03  0.7818608E-02  0.9938229E-01
          1   -1    0    0  502    0  0.00000000000E+00  0.00000000000E+00  0.85392194625E+02  0.85392194625E+02  0.00000000000E+00 0.  1.
         13   -1    0    0    0    0 -0.00000000000E+00 -0.00000000000E+00 -0.10000000000E+04  0.10000000000E+04  0.00000000000E+00 0.  1.
    9000005    2    1    2  501    0  0.11121551484E-04 -0.57867601427E-04 -0.91460808064E+03  0.10853919131E+04  0.58443790422E+03 0.  0.
         13    1    3    3    0    0 -0.17424375911E+02  0.12021878281E+03 -0.95088733490E+03  0.95861508871E+03  0.00000000000E+00 0.  1.
          1    1    3    3  501    0  0.17424387032E+02 -0.12021884068E+03  0.36279254262E+02  0.12677682441E+03  0.00000000000E+00 0.  1.
         21    1    1    2  502  501 -0.11121551487E-04  0.57867601425E-04  0.27526710249E-03  0.28150368722E-03  0.00000000000E+00 0.  1.
<mgrwt>
<rscale>  1 0.58443790E+03</rscale>
<asrwt>0</asrwt>
<pdfrwt beam="1">  1        1 0.31051773E+00 0.58443790E+03</pdfrwt>
<pdfrwt beam="2">0</pdfrwt>
<totfact> 0.33328688E+00</totfact>
</mgrwt>
</event>
<event>
 6    1  0.2758445E-002  0.6479591E+03  0.7818608E-02  0.9810616E-01
          1   -1    0    0  502    0  0.00000000000E+00  0.00000000000E+00  0.10496475881E+03  0.10496475881E+03  0.00000000000E+00 0.  1.
         13   -1    0    0    0    0 -0.00000000000E+00 -0.00000000000E+00 -0.10000000000E+04  0.10000000000E+04  0.00000000000E+00 0.  1.
    9000005    2    1    2  501    0  0.25803084668E-04  0.99941064526E-05 -0.89503723963E+03  0.11049627602E+04  0.64795913533E+03 0.  0.
         13    1    3    3    0    0  0.20068570408E+03  0.17670520119E+02 -0.88019306193E+03  0.90295449795E+03  0.00000000000E+00 0.  1.
          3    1    3    3  501    0 -0.20068567828E+03 -0.17670510125E+02 -0.14844177700E+02  0.20200826222E+03  0.00000000000E+00 0.  1.
         21    1    1    2  502  501 -0.25803084657E-04 -0.99941064530E-05  0.19984394378E-02  0.19986309984E-02  0.00000000000E+00 0. -1.
<mgrwt>
<rscale>  1 0.64795914E+03</rscale>
<asrwt>0</asrwt>
<pdfrwt beam="1">  1        1 0.38169084E+00 0.64795914E+03</pdfrwt>
<pdfrwt beam="2">0</pdfrwt>
<totfact> 0.16136176E+00</totfact>
</mgrwt>
</event>
<event>
 6    1  0.2758445E-002  0.6451284E+03  0.7818608E-02  0.9815963E-01
          1   -1    0    0  502    0  0.00000000000E+00  0.00000000000E+00  0.10426242274E+03  0.10426242274E+03  0.00000000000E+00 0.  1.
         13   -1    0    0    0    0 -0.00000000000E+00 -0.00000000000E+00 -0.10000000000E+04  0.10000000000E+04  0.00000000000E+00 0.  1.
    9000005    2    1    2  501    0  0.54202921078E-01  0.99503620026E-02 -0.89594841327E+03  0.11040445035E+04  0.64512843952E+03 0.  0.
         13    1    3    3    0    0  0.27458344430E+03 -0.16843698976E+03 -0.41866920549E+03  0.52825277191E+03  0.00000000000E+00 0.  1.
          1    1    3    3  501    0 -0.27452924138E+03  0.16844694013E+03 -0.47727920777E+03  0.57579173161E+03  0.00000000000E+00 0.  1.
         21    1    1    2  502  501 -0.54202921078E-01 -0.99503620026E-02  0.21083600498E+00  0.21791922208E+00  0.00000000000E+00 0. -1.
<mgrwt>
<rscale>  1 0.64512844E+03</rscale>
<asrwt>0</asrwt>
<pdfrwt beam="1">  1        1 0.37913688E+00 0.64512844E+03</pdfrwt>
<pdfrwt beam="2">0</pdfrwt>
<totfact> 0.16569048E+00</totfact>
</mgrwt>
</event>
<event>
 6    1  0.2758445E-002  0.5558596E+03  0.7818608E-02  0.1000147E+00
          1   -1    0    0  502    0  0.00000000000E+00  0.00000000000E+00  0.77244966565E+02  0.77244966565E+02  0.00000000000E+00 0.  1.
         13   -1    0    0    0    0 -0.00000000000E+00 -0.00000000000E+00 -0.10000000000E+04  0.10000000000E+04  0.00000000000E+00 0.  1.
    9000005    2    1    2  501    0 -0.76809134839E-05  0.40068067619E-06 -0.92275503502E+03  0.10772449587E+04  0.55585955637E+03 0.  0.
         13    1    3    3    0    0 -0.15006653889E+03  0.20334856786E+03 -0.23725482179E+03  0.34664168331E+03  0.00000000000E+00 0.  1.
          3    1    3    3  501    0  0.15006653121E+03 -0.20334856746E+03 -0.68550021324E+03  0.73060327540E+03  0.00000000000E+00 0.  1.
         21    1    1    2  502  501  0.76809134813E-05 -0.40068066677E-06  0.15888782271E-05  0.78537577582E-05  0.00000000000E+00 0.  1.
<mgrwt>
<rscale>  1 0.55585956E+03</rscale>
<asrwt>0</asrwt>
<pdfrwt beam="1">  1        1 0.28089138E+00 0.55585956E+03</pdfrwt>
<pdfrwt beam="2">0</pdfrwt>
<totfact> 0.44959077E+00</totfact>
</mgrwt>
</event>
<event>
 6    1  0.2758445E-002  0.6655421E+03  0.7818608E-02  0.9778045E-01
          1   -1    0    0  502    0  0.00000000000E+00  0.00000000000E+00  0.11202438225E+03  0.11202438225E+03  0.00000000000E+00 0.  1.
         13   -1    0    0    0    0 -0.00000000000E+00 -0.00000000000E+00 -0.10000000000E+04  0.10000000000E+04  0.00000000000E+00 0.  1.
    9000005    2    1    2  501    0  0.14886768023E+00  0.93343110307E-01 -0.88925675150E+03  0.11107312550E+04  0.66554212471E+03 0.  0.
         13    1    3    3    0    0  0.40067132913E+02  0.24203633718E+03 -0.69354210848E+02  0.25494503372E+03  0.00000000000E+00 0.  1.
          1    1    3    3  501    0 -0.39918265233E+02 -0.24194299407E+03 -0.81990254065E+03  0.85578622123E+03  0.00000000000E+00 0.  1.
         21    1    1    2  502  501 -0.14886768023E+00 -0.93343110307E-01  0.12811337543E+01  0.12931273018E+01  0.00000000000E+00 0.  1.
<mgrwt>
<rscale>  1 0.66554215E+03</rscale>
<asrwt>0</asrwt>
<pdfrwt beam="1">  1        1 0.40736225E+00 0.66554215E+03</pdfrwt>
<pdfrwt beam="2">0</pdfrwt>
<totfact> 0.12366386E+00</totfact>
</mgrwt>
</event>
<event>
 6    1  0.2758445E-002  0.5692143E+03  0.7818608E-02  0.9971419E-01
          3   -1    0    0  502    0  0.00000000000E+00  0.00000000000E+00  0.83502303306E+02  0.83502303306E+02  0.00000000000E+00 0.  1.
         13   -1    0    0    0    0 -0.00000000000E+00 -0.00000000000E+00 -0.10000000000E+04  0.10000000000E+04  0.00000000000E+00 0.  1.
    9000005    2    1    2  501    0 -0.14332863973E+01 -0.11955332261E+01 -0.91861798769E+03  0.10806775478E+04  0.56921127139E+03 0.  0.
         13    1    3    3    0    0 -0.21465880284E+03  0.10985231308E+03 -0.17168810745E+03  0.29601138249E+03  0.00000000000E+00 0.  1.
          3    1    3    3  501    0  0.21322551645E+03 -0.11104784631E+03 -0.74692988024E+03  0.78466616534E+03  0.00000000000E+00 0.  1.
         21    1    1    2  502  501  0.14332863973E+01  0.11955332261E+01  0.21202909916E+01  0.28247554727E+01  0.00000000000E+00 0. -1.
<mgrwt>
<rscale>  1 0.56921433E+03</rscale>
<asrwt>0</asrwt>
<pdfrwt beam="1">  1        3 0.30364538E+00 0.56921433E+03</pdfrwt>
<pdfrwt beam="2">0</pdfrwt>
<totfact> 0.19538421E-01</totfact>
</mgrwt>
</event>
