<event>
 6    1  0.1208527E-002  0.6562110E+03  0.7818608E-02  0.9795194E-01
          1   -1    0    0  502    0  0.00000000000E+00  0.00000000000E+00  0.10845397998E+03  0.10845397998E+03  0.00000000000E+00 0.  1.
         13   -1    0    0    0    0 -0.00000000000E+00 -0.00000000000E+00 -0.10000000000E+04  0.10000000000E+04  0.00000000000E+00 0.  1.
    9000005    2    1    2  501    0  0.26651307684E+00 -0.11108211048E-01 -0.89232208949E+03  0.11076333483E+04  0.65621098102E+03 0.  0.
         13    1    3    3    0    0  0.20224250742E+03  0.23182649891E+03 -0.63915609480E+03  0.70934199856E+03  0.00000000000E+00 0.  1.
          1    1    3    3  501    0 -0.20197599434E+03 -0.23183760712E+03 -0.25316599469E+03  0.39829134969E+03  0.00000000000E+00 0.  1.
         21    1    1    2  502  501 -0.26651307684E+00  0.11108211048E-01  0.77606946553E+00  0.82063172484E+00  0.00000000000E+00 0.  1.
<mgrwt>
<rscale>  1 0.65621104E+03</rscale>
<asrwt>0</asrwt>
<pdfrwt beam="1">  1        1 0.39437894E+00 0.65621104E+03</pdfrwt>
<pdfrwt beam="2">0</pdfrwt>
<totfact> 0.14155526E+00</totfact>
</mgrwt>
</event>
<event>
 6    1  0.1208527E-002  0.6541666E+03  0.7818608E-02  0.9798992E-01
          1   -1    0    0  502    0  0.00000000000E+00  0.00000000000E+00  0.11714708119E+03  0.11714708119E+03  0.00000000000E+00 0.  1.
         13   -1    0    0    0    0 -0.00000000000E+00 -0.00000000000E+00 -0.10000000000E+04  0.10000000000E+04  0.00000000000E+00 0.  1.
    9000005    2    1    2  501    0  0.18210246900E+02  0.52709794279E+00 -0.88301183164E+03  0.10989285143E+04  0.65391291002E+03 0.  0.
         13    1    3    3    0    0  0.11587017625E+03 -0.14303383697E+03 -0.90534453160E+03  0.92386865796E+03  0.00000000000E+00 0.  1.
          1    1    3    3  501    0 -0.97659929349E+02  0.14356093491E+03  0.22332699952E+02  0.17505985639E+03  0.00000000000E+00 0.  1.
         21    1    1    2  502  501 -0.18210246900E+02 -0.52709794279E+00  0.15891282905E+00  0.18218566840E+02  0.00000000000E+00 0.  1.
<mgrwt>
<rscale>  1 0.65416663E+03</rscale>
<asrwt>0</asrwt>
<pdfrwt beam="1">  1        1 0.42599028E+00 0.65416663E+03</pdfrwt>
<pdfrwt beam="2">0</pdfrwt>
<totfact> 0.10217106E+00</totfact>
</mgrwt>
</event>
<event>
 6    1  0.1208528E-002  0.5612313E+03  0.7818608E-02  0.9989272E-01
          1   -1    0    0  502    0  0.00000000000E+00  0.00000000000E+00  0.78745150589E+02  0.78745150589E+02  0.00000000000E+00 0.  1.
         13   -1    0    0    0    0 -0.00000000000E+00 -0.00000000000E+00 -0.10000000000E+04  0.10000000000E+04  0.00000000000E+00 0.  1.
    9000005    2    1    2  501    0  0.17006189893E-04 -0.29227921743E-04 -0.92125480274E+03  0.10787450930E+04  0.56123129279E+03 0.  0.
         13    1    3    3    0    0  0.24985892882E+03 -0.12650054819E+03 -0.49464790800E+03  0.56842627129E+03  0.00000000000E+00 0.  1.
          3    1    3    3  501    0 -0.24985891181E+03  0.12650051896E+03 -0.42660689474E+03  0.51031882167E+03  0.00000000000E+00 0.  1.
         21    1    1    2  502  501 -0.17006189887E-04  0.29227921740E-04 -0.46671799554E-04  0.57634527649E-04  0.00000000000E+00 0. -1.
<mgrwt>
<rscale>  1 0.56123129E+03</rscale>
<asrwt>0</asrwt>
<pdfrwt beam="1">  1        1 0.28634661E+00 0.56123129E+03</pdfrwt>
<pdfrwt beam="2">0</pdfrwt>
<totfact> 0.42547266E+00</totfact>
</mgrwt>
</event>
<event>
 6    1  0.1208527E-002  0.6509046E+03  0.7818608E-02  0.9805083E-01
          1   -1    0    0  502    0  0.00000000000E+00  0.00000000000E+00  0.10602913865E+03  0.10602913865E+03  0.00000000000E+00 0.  1.
         13   -1    0    0    0    0 -0.00000000000E+00 -0.00000000000E+00 -0.10000000000E+04  0.10000000000E+04  0.00000000000E+00 0.  1.
    9000005    2    1    2  501    0  0.39599559530E-02  0.16899065887E-01 -0.89408004179E+03  0.11059185872E+04  0.65090460134E+03 0.  0.
         13    1    3    3    0    0 -0.23151431004E+03 -0.21469881445E+03 -0.31302946275E+03  0.44461432863E+03  0.00000000000E+00 0.  1.
          3    1    3    3  501    0  0.23151826999E+03  0.21471571352E+03 -0.58105057904E+03  0.66130425855E+03  0.00000000000E+00 0.  1.
         21    1    1    2  502  501 -0.39599559530E-02 -0.16899065887E-01  0.10918043501E+00  0.11055146796E+00  0.00000000000E+00 0.  1.
<mgrwt>
<rscale>  1 0.65090460E+03</rscale>
<asrwt>0</asrwt>
<pdfrwt beam="1">  1        1 0.38556132E+00 0.65090460E+03</pdfrwt>
<pdfrwt beam="2">0</pdfrwt>
<totfact> 0.15504455E+00</totfact>
</mgrwt>
</event>
<event>
 6    1  0.1208527E-002  0.6568728E+03  0.7818608E-02  0.9793968E-01
          1   -1    0    0  502    0  0.00000000000E+00  0.00000000000E+00  0.10789534451E+03  0.10789534451E+03  0.00000000000E+00 0.  1.
         13   -1    0    0    0    0 -0.00000000000E+00 -0.00000000000E+00 -0.10000000000E+04  0.10000000000E+04  0.00000000000E+00 0.  1.
    9000005    2    1    2  501    0  0.37448304124E-02 -0.56469178121E-02 -0.89212902888E+03  0.11078700468E+04  0.65687277032E+03 0.  0.
         13    1    3    3    0    0  0.28947709264E+03  0.91199748606E+02 -0.23435662225E+03  0.38345457059E+03  0.00000000000E+00 0.  1.
          3    1    3    3  501    0 -0.28947334781E+03 -0.91205395524E+02 -0.65777240663E+03  0.72441547622E+03  0.00000000000E+00 0.  1.
         21    1    1    2  502  501 -0.37448304124E-02  0.56469178121E-02  0.24373395461E-01  0.25297704281E-01  0.00000000000E+00 0.  1.
<mgrwt>
<rscale>  1 0.65687277E+03</rscale>
<asrwt>0</asrwt>
<pdfrwt beam="1">  1        1 0.39234753E+00 0.65687277E+03</pdfrwt>
<pdfrwt beam="2">0</pdfrwt>
<totfact> 0.14450982E+00</totfact>
</mgrwt>
</event>
<event>
 6    1  0.1208527E-002  0.6530654E+03  0.7818608E-02  0.9801044E-01
          1   -1    0    0  502    0  0.00000000000E+00  0.00000000000E+00  0.10662698884E+03  0.10662698884E+03  0.00000000000E+00 0.  1.
         13   -1    0    0    0    0 -0.00000000000E+00 -0.00000000000E+00 -0.10000000000E+04  0.10000000000E+04  0.00000000000E+00 0.  1.
    9000005    2    1    2  501    0 -0.88318307198E-03  0.71433746199E-02 -0.89337147867E+03  0.11066196297E+04  0.65306539181E+03 0.  0.
         13    1    3    3    0    0 -0.88883516530E+01 -0.89733634310E+02 -0.97847644566E+03  0.98262265526E+03  0.00000000000E+00 0.  1.
          3    1    3    3  501    0  0.88874684700E+01  0.89740777684E+02  0.85104966986E+02  0.12399697448E+03  0.00000000000E+00 0.  1.
         21    1    1    2  502  501  0.88318307198E-03 -0.71433746199E-02 -0.15324894529E-02  0.73590989409E-02  0.00000000000E+00 0.  1.
<mgrwt>
<rscale>  1 0.65306539E+03</rscale>
<asrwt>0</asrwt>
<pdfrwt beam="1">  1        1 0.38773532E+00 0.65306539E+03</pdfrwt>
<pdfrwt beam="2">0</pdfrwt>
<totfact> 0.15158586E+00</totfact>
</mgrwt>
</event>
<event>
 6    1  0.1208527E-002  0.6466638E+03  0.7818608E-02  0.9813059E-01
          3   -1    0    0  502    0  0.00000000000E+00  0.00000000000E+00  0.10454365606E+03  0.10454365606E+03  0.00000000000E+00 0.  1.
         13   -1    0    0    0    0 -0.00000000000E+00 -0.00000000000E+00 -0.10000000000E+04  0.10000000000E+04  0.00000000000E+00 0.  1.
    9000005    2    1    2  501    0  0.18167115948E-03  0.41350512959E-04 -0.89545638462E+03  0.11045434654E+04  0.64666384628E+03 0.  0.
         13    1    3    3    0    0 -0.21685233128E+03  0.20414613802E+03 -0.23273633587E+03  0.37797722324E+03  0.00000000000E+00 0.  1.
          3    1    3    3  501    0  0.21685251295E+03 -0.20414609667E+03 -0.66272004875E+03  0.72656624211E+03  0.00000000000E+00 0.  1.
         21    1    1    2  502  501 -0.18167115947E-03 -0.41350512975E-04  0.40681201942E-04  0.19070719781E-03  0.00000000000E+00 0.  1.
<mgrwt>
<rscale>  1 0.64666385E+03</rscale>
<asrwt>0</asrwt>
<pdfrwt beam="1">  1        3 0.38015955E+00 0.64666385E+03</pdfrwt>
<pdfrwt beam="2">0</pdfrwt>
<totfact> 0.75374424E-02</totfact>
</mgrwt>
</event>
<event>
 6    1  0.1208527E-002  0.6524337E+03  0.7818608E-02  0.9802223E-01
          1   -1    0    0  502    0  0.00000000000E+00  0.00000000000E+00  0.10738696675E+03  0.10738696675E+03  0.00000000000E+00 0.  1.
         13   -1    0    0    0    0 -0.00000000000E+00 -0.00000000000E+00 -0.10000000000E+04  0.10000000000E+04  0.00000000000E+00 0.  1.
    9000005    2    1    2  501    0 -0.18227165824E+01 -0.20291508702E+01 -0.89053701239E+03  0.11039591961E+04  0.65242800099E+03 0.  0.
         13    1    3    3    0    0 -0.16790266962E+03  0.18248233548E+03 -0.80350187509E+03  0.84089617225E+03  0.00000000000E+00 0.  1.
          3    1    3    3  501    0  0.16607995304E+03 -0.18451148635E+03 -0.87035137299E+02  0.26306302386E+03  0.00000000000E+00 0.  1.
         21    1    1    2  502  501  0.18227165824E+01  0.20291508702E+01 -0.20760208627E+01  0.34277706482E+01  0.00000000000E+00 0.  1.
<mgrwt>
<rscale>  1 0.65243370E+03</rscale>
<asrwt>0</asrwt>
<pdfrwt beam="1">  1        1 0.39049888E+00 0.65243370E+03</pdfrwt>
<pdfrwt beam="2">0</pdfrwt>
<totfact> 0.14738731E+00</totfact>
</mgrwt>
</event>
<event>
 6    1  0.1208527E-002  0.6579041E+03  0.7818608E-02  0.9792060E-01
          1   -1    0    0  502    0  0.00000000000E+00  0.00000000000E+00  0.10821162406E+03  0.10821162406E+03  0.00000000000E+00 0.  1.
         13   -1    0    0    0    0 -0.00000000000E+00 -0.00000000000E+00 -0.10000000000E+04  0.10000000000E+04  0.00000000000E+00 0.  1.
    9000005    2    1    2  501    0  0.58775835581E-03  0.45688540837E-03 -0.89179048238E+03  0.11082093899E+04  0.65790408684E+03 0.  0.
         13    1    3    3    0    0  0.22955999042E+03 -0.22658811474E+03 -0.55466352777E+03  0.64163197550E+03  0.00000000000E+00 0.  1.
          1    1    3    3  501    0 -0.22955940266E+03  0.22658857162E+03 -0.33712695461E+03  0.46657741444E+03  0.00000000000E+00 0.  1.
         21    1    1    2  502  501 -0.58775835582E-03 -0.45688540838E-03  0.21064433213E-02  0.22341234583E-02  0.00000000000E+00 0.  1.
<mgrwt>
<rscale>  1 0.65790409E+03</rscale>
<asrwt>0</asrwt>
<pdfrwt beam="1">  1        1 0.39349764E+00 0.65790409E+03</pdfrwt>
<pdfrwt beam="2">0</pdfrwt>
<totfact> 0.14279256E+00</totfact>
</mgrwt>
</event>
<event>
 6    1  0.1208527E-002  0.6590649E+03  0.7818608E-02  0.9789917E-01
          1   -1    0    0  502    0  0.00000000000E+00  0.00000000000E+00  0.10859165052E+03  0.10859165052E+03  0.00000000000E+00 0.  1.
         13   -1    0    0    0    0 -0.00000000000E+00 -0.00000000000E+00 -0.10000000000E+04  0.10000000000E+04  0.00000000000E+00 0.  1.
    9000005    2    1    2  501    0  0.58117285960E-04 -0.41050457867E-04 -0.89140825587E+03  0.11085915329E+04  0.65906487408E+03 0.  0.
         13    1    3    3    0    0  0.17954705637E+03 -0.21534916835E+03 -0.15446238789E+03  0.32011097924E+03  0.00000000000E+00 0.  1.
          1    1    3    3  501    0 -0.17954699825E+03  0.21534912730E+03 -0.73694586799E+03  0.78848055369E+03  0.00000000000E+00 0.  1.
         21    1    1    2  502  501 -0.58117285975E-04  0.41050457861E-04 -0.93610453069E-04  0.11758263453E-03  0.00000000000E+00 0.  1.
<mgrwt>
<rscale>  1 0.65906487E+03</rscale>
<asrwt>0</asrwt>
<pdfrwt beam="1">  1        1 0.39487956E+00 0.65906487E+03</pdfrwt>
<pdfrwt beam="2">0</pdfrwt>
<totfact> 0.14075679E+00</totfact>
</mgrwt>
</event>
<event>
 6    1  0.1208527E-002  0.6521885E+03  0.7818608E-02  0.9802681E-01
          1   -1    0    0  502    0  0.00000000000E+00  0.00000000000E+00  0.10634463574E+03  0.10634463574E+03  0.00000000000E+00 0.  1.
         13   -1    0    0    0    0 -0.00000000000E+00 -0.00000000000E+00 -0.10000000000E+04  0.10000000000E+04  0.00000000000E+00 0.  1.
    9000005    2    1    2  501    0  0.42005159333E-02 -0.81469505781E-02 -0.89365912971E+03  0.11063347264E+04  0.65218853606E+03 0.  0.
         13    1    3    3    0    0  0.22684199072E+03 -0.23317153220E+03 -0.48529697984E+03  0.58424259586E+03  0.00000000000E+00 0.  1.
          1    1    3    3  501    0 -0.22683779020E+03  0.23316338525E+03 -0.40836214987E+03  0.52209213050E+03  0.00000000000E+00 0.  1.
         21    1    1    2  502  501 -0.42005159333E-02  0.81469505781E-02  0.37654513797E-02  0.99093774739E-02  0.00000000000E+00 0.  1.
<mgrwt>
<rscale>  1 0.65218854E+03</rscale>
<asrwt>0</asrwt>
<pdfrwt beam="1">  1        1 0.38670858E+00 0.65218854E+03</pdfrwt>
<pdfrwt beam="2">0</pdfrwt>
<totfact> 0.15320603E+00</totfact>
</mgrwt>
</event>
<event>
 6    1  0.1208527E-002  0.6497715E+03  0.7818608E-02  0.9807208E-01
          3   -1    0    0  502    0  0.00000000000E+00  0.00000000000E+00  0.10555955761E+03  0.10555955761E+03  0.00000000000E+00 0.  1.
         13   -1    0    0    0    0 -0.00000000000E+00 -0.00000000000E+00 -0.10000000000E+04  0.10000000000E+04  0.00000000000E+00 0.  1.
    9000005    2    1    2  501    0  0.24878221581E-03 -0.26571805970E-03 -0.89444923315E+03  0.11055507593E+04  0.64977153736E+03 0.  0.
         13    1    3    3    0    0 -0.26270126753E+03  0.43269978814E+01 -0.77237427553E+03  0.81583864849E+03  0.00000000000E+00 0.  1.
          3    1    3    3  501    0  0.26270151631E+03 -0.43272635995E+01 -0.12207495761E+03  0.28971211083E+03  0.00000000000E+00 0.  1.
         21    1    1    2  502  501 -0.24878221581E-03  0.26571805970E-03  0.87907550281E-02  0.87982880518E-02  0.00000000000E+00 0.  1.
<mgrwt>
<rscale>  1 0.64977154E+03</rscale>
<asrwt>0</asrwt>
<pdfrwt beam="1">  1        3 0.38385375E+00 0.64977154E+03</pdfrwt>
<pdfrwt beam="2">0</pdfrwt>
<totfact> 0.72028049E-02</totfact>
</mgrwt>
</event>
<event>
 6    1  0.1208527E-002  0.6494400E+03  0.7818608E-02  0.9807831E-01
          3   -1    0    0  502    0  0.00000000000E+00  0.00000000000E+00  0.10562618723E+03  0.10562618723E+03  0.00000000000E+00 0.  1.
         13   -1    0    0    0    0 -0.00000000000E+00 -0.00000000000E+00 -0.10000000000E+04  0.10000000000E+04  0.00000000000E+00 0.  1.
    9000005    2    1    2  501    0 -0.87129580833E-01 -0.24719467501E+00 -0.89444695604E+03  0.11053540720E+04  0.64943991145E+03 0.  0.
         13    1    3    3    0    0  0.32749514695E+02  0.31133972427E+03 -0.30105493420E+03  0.43432594676E+03  0.00000000000E+00 0.  1.
          3    1    3    3  501    0 -0.32836644276E+02 -0.31158691894E+03 -0.59339202184E+03  0.67102812523E+03  0.00000000000E+00 0.  1.
         21    1    1    2  502  501  0.87129580833E-01  0.24719467501E+00  0.73143271091E-01  0.27211525006E+00  0.00000000000E+00 0.  1.
<mgrwt>
<rscale>  1 0.64943996E+03</rscale>
<asrwt>0</asrwt>
<pdfrwt beam="1">  1        3 0.38409604E+00 0.64943996E+03</pdfrwt>
<pdfrwt beam="2">0</pdfrwt>
<totfact> 0.71820373E-02</totfact>
</mgrwt>
</event>
<event>
 6    1  0.1208527E-002  0.6495899E+03  0.7818608E-02  0.9807549E-01
          1   -1    0    0  502    0  0.00000000000E+00  0.00000000000E+00  0.10549176646E+03  0.10549176646E+03  0.00000000000E+00 0.  1.
         13   -1    0    0    0    0 -0.00000000000E+00 -0.00000000000E+00 -0.10000000000E+04  0.10000000000E+04  0.00000000000E+00 0.  1.
    9000005    2    1    2  501    0 -0.10038017265E-04 -0.11713082273E-05 -0.89450823421E+03  0.11054917563E+04  0.64958990312E+03 0.  0.
         13    1    3    3    0    0 -0.86530926557E+02  0.65043688877E+02  0.73888098034E+02  0.13106385369E+03  0.00000000000E+00 0.  1.
          3    1    3    3  501    0  0.86530916519E+02 -0.65043690048E+02 -0.96839633225E+03  0.97442790264E+03  0.00000000000E+00 0.  1.
         21    1    1    2  502  501  0.10038017261E-04  0.11713082189E-05  0.67472836938E-06  0.10128623394E-04  0.00000000000E+00 0.  1.
<mgrwt>
<rscale>  1 0.64958990E+03</rscale>
<asrwt>0</asrwt>
<pdfrwt beam="1">  1        1 0.38360723E+00 0.64958990E+03</pdfrwt>
<pdfrwt beam="2">0</pdfrwt>
<totfact> 0.15819890E+00</totfact>
</mgrwt>
</event>
<event>
 6    1  0.1208527E-002  0.6359958E+03  0.7818608E-02  0.9833418E-01
          3   -1    0    0  502    0  0.00000000000E+00  0.00000000000E+00  0.11046553440E+03  0.11046553440E+03  0.00000000000E+00 0.  1.
         13   -1    0    0    0    0 -0.00000000000E+00 -0.00000000000E+00 -0.10000000000E+04  0.10000000000E+04  0.00000000000E+00 0.  1.
    9000005    2    1    2  501    0 -0.14083644644E+01  0.47320418113E+01 -0.89815394658E+03  0.11005321985E+04  0.63597659739E+03 0.  0.
         13    1    3    3    0    0 -0.19913420598E+03  0.81667408753E+02 -0.43041018483E+02  0.21949151901E+03  0.00000000000E+00 0.  1.
          3    1    3    3  501    0  0.19772584152E+03 -0.76935366942E+02 -0.85511292809E+03  0.88104067947E+03  0.00000000000E+00 0.  1.
         21    1    1    2  502  501  0.14083644644E+01 -0.47320418113E+01  0.86194809728E+01  0.99333359154E+01  0.00000000000E+00 0.  1.
<mgrwt>
<rscale>  1 0.63599576E+03</rscale>
<asrwt>0</asrwt>
<pdfrwt beam="1">  1        3 0.40169370E+00 0.63599576E+03</pdfrwt>
<pdfrwt beam="2">0</pdfrwt>
<totfact> 0.58183326E-02</totfact>
</mgrwt>
</event>
<event>
 6    1  0.1208527E-002  0.6516279E+03  0.7818608E-02  0.9803729E-01
          1   -1    0    0  502    0  0.00000000000E+00  0.00000000000E+00  0.10625504745E+03  0.10625504745E+03  0.00000000000E+00 0.  1.
         13   -1    0    0    0    0 -0.00000000000E+00 -0.00000000000E+00 -0.10000000000E+04  0.10000000000E+04  0.00000000000E+00 0.  1.
    9000005    2    1    2  501    0  0.39790142031E-02  0.48306795106E-01 -0.89383875332E+03  0.11061494635E+04  0.65162789719E+03 0.  0.
         13    1    3    3    0    0 -0.25199385257E+02 -0.31311491259E+03 -0.30023574488E+03  0.43453131073E+03  0.00000000000E+00 0.  1.
          3    1    3    3  501    0  0.25203364271E+02  0.31316321938E+03 -0.59360300844E+03  0.67161815280E+03  0.00000000000E+00 0.  1.
         21    1    1    2  502  501 -0.39790142031E-02 -0.48306795106E-01  0.93800773494E-01  0.10558391978E+00  0.00000000000E+00 0. -1.
<mgrwt>
<rscale>  1 0.65162790E+03</rscale>
<asrwt>0</asrwt>
<pdfrwt beam="1">  1        1 0.38638281E+00 0.65162790E+03</pdfrwt>
<pdfrwt beam="2">0</pdfrwt>
<totfact> 0.15373155E+00</totfact>
</mgrwt>
</event>
<event>
 6    1  0.1208527E-002  0.5827953E+03  0.7818608E-02  0.9941758E-01
          1   -1    0    0  502    0  0.00000000000E+00  0.00000000000E+00  0.84980828765E+02  0.84980828765E+02  0.00000000000E+00 0.  1.
         13   -1    0    0    0    0 -0.00000000000E+00 -0.00000000000E+00 -0.10000000000E+04  0.10000000000E+04  0.00000000000E+00 0.  1.
    9000005    2    1    2  501    0 -0.96450990075E-02 -0.27765642686E-02 -0.91508701704E+03  0.10849122446E+04  0.58279527245E+03 0.  0.
         13    1    3    3    0    0 -0.42074715214E+02 -0.28264736577E+03 -0.56373694530E+03  0.63202781469E+03  0.00000000000E+00 0.  1.
          1    1    3    3  501    0  0.42065070115E+02  0.28264458921E+03 -0.35135007174E+03  0.45288442989E+03  0.00000000000E+00 0.  1.
         21    1    1    2  502  501  0.96450990075E-02  0.27765642686E-02  0.67845803692E-01  0.68584184202E-01  0.00000000000E+00 0.  1.
<mgrwt>
<rscale>  1 0.58279527E+03</rscale>
<asrwt>0</asrwt>
<pdfrwt beam="1">  1        1 0.30902185E+00 0.58279527E+03</pdfrwt>
<pdfrwt beam="2">0</pdfrwt>
<totfact> 0.33837847E+00</totfact>
</mgrwt>
</event>
<event>
 6    1  0.1208527E-002  0.6373388E+03  0.7818608E-02  0.9830831E-01
          1   -1    0    0  502    0  0.00000000000E+00  0.00000000000E+00  0.10155027208E+03  0.10155027208E+03  0.00000000000E+00 0.  1.
         13   -1    0    0    0    0 -0.00000000000E+00 -0.00000000000E+00 -0.10000000000E+04  0.10000000000E+04  0.00000000000E+00 0.  1.
    9000005    2    1    2  501    0 -0.87409856292E-04  0.10956160298E-03 -0.89844971419E+03  0.11015501313E+04  0.63733884452E+03 0.  0.
         13    1    3    3    0    0  0.17474393078E+03  0.26440277975E+03 -0.39174706992E+03  0.50389486808E+03  0.00000000000E+00 0.  1.
          1    1    3    3  501    0 -0.17474401819E+03 -0.26440267018E+03 -0.50670264427E+03  0.59765526318E+03  0.00000000000E+00 0.  1.
         21    1    1    2  502  501  0.87409856307E-04 -0.10956160298E-03 -0.13722271825E-04  0.14082801061E-03  0.00000000000E+00 0.  1.
<mgrwt>
<rscale>  1 0.63733884E+03</rscale>
<asrwt>0</asrwt>
<pdfrwt beam="1">  1        1 0.36927450E+00 0.63733884E+03</pdfrwt>
<pdfrwt beam="2">0</pdfrwt>
<totfact> 0.18336353E+00</totfact>
</mgrwt>
</event>
<event>
 6    1  0.1208527E-002  0.6479123E+03  0.7818608E-02  0.9810705E-01
          1   -1    0    0  502    0  0.00000000000E+00  0.00000000000E+00  0.10554340023E+03  0.10554340023E+03  0.00000000000E+00 0.  1.
         13   -1    0    0    0    0 -0.00000000000E+00 -0.00000000000E+00 -0.10000000000E+04  0.10000000000E+04  0.00000000000E+00 0.  1.
    9000005    2    1    2  501    0 -0.12742117799E-01  0.66566702416E-02 -0.89505231879E+03  0.11049475078E+04  0.64791229448E+03 0.  0.
         13    1    3    3    0    0  0.61866029639E+02  0.30972436386E+03 -0.57041535962E+03  0.65202014515E+03  0.00000000000E+00 0.  1.
          3    1    3    3  501    0 -0.61878771757E+02 -0.30971770719E+03 -0.32463695918E+03  0.45292736262E+03  0.00000000000E+00 0.  1.
         21    1    1    2  502  501  0.12742117799E-01 -0.66566702416E-02  0.59571902563E+00  0.59589246540E+00  0.00000000000E+00 0. -1.
<mgrwt>
<rscale>  1 0.64791229E+03</rscale>
<asrwt>0</asrwt>
<pdfrwt beam="1">  1        1 0.38379499E+00 0.64791229E+03</pdfrwt>
<pdfrwt beam="2">0</pdfrwt>
<totfact> 0.15794577E+00</totfact>
</mgrwt>
</event>
<event>
 6    1  0.1208527E-002  0.6541773E+03  0.7818608E-02  0.9798972E-01
          1   -1    0    0  502    0  0.00000000000E+00  0.00000000000E+00  0.11802420911E+03  0.11802420911E+03  0.00000000000E+00 0.  1.
         13   -1    0    0    0    0 -0.00000000000E+00 -0.00000000000E+00 -0.10000000000E+04  0.10000000000E+04  0.00000000000E+00 0.  1.
    9000005    2    1    2  501    0  0.96085910981E-01  0.92629103232E+00 -0.89299126401E+03  0.11069694411E+04  0.65417664180E+03 0.  0.
         13    1    3    3    0    0 -0.80625009337E+02  0.25760658375E+03 -0.76062373354E+03  0.80709975105E+03  0.00000000000E+00 0.  1.
          1    1    3    3  501    0  0.80721095248E+02 -0.25668029272E+03 -0.13236753047E+03  0.29986969005E+03  0.00000000000E+00 0.  1.
         21    1    1    2  502  501 -0.96085910981E-01 -0.92629103232E+00  0.11015473123E+02  0.11054768008E+02  0.00000000000E+00 0. -1.
<mgrwt>
<rscale>  1 0.65417730E+03</rscale>
<asrwt>0</asrwt>
<pdfrwt beam="1">  1        1 0.42917985E+00 0.65417730E+03</pdfrwt>
<pdfrwt beam="2">0</pdfrwt>
<totfact> 0.98825591E-01</totfact>
</mgrwt>
</event>
<event>
 6    1  0.1208527E-002  0.6441571E+03  0.7818608E-02  0.9817805E-01
          1   -1    0    0  502    0  0.00000000000E+00  0.00000000000E+00  0.10376639982E+03  0.10376639982E+03  0.00000000000E+00 0.  1.
         13   -1    0    0    0    0 -0.00000000000E+00 -0.00000000000E+00 -0.10000000000E+04  0.10000000000E+04  0.00000000000E+00 0.  1.
    9000005    2    1    2  501    0  0.16521741483E-01 -0.51300132057E-02 -0.89626279375E+03  0.11037324653E+04  0.64415709207E+03 0.  0.
         13    1    3    3    0    0 -0.83887475097E+02  0.19481525657E+03 -0.32840711595E+02  0.21463598256E+03  0.00000000000E+00 0.  1.
          1    1    3    3  501    0  0.83903996839E+02 -0.19482038659E+03 -0.86342208216E+03  0.88909648277E+03  0.00000000000E+00 0.  1.
         21    1    1    2  502  501 -0.16521741483E-01  0.51300132057E-02  0.29193570877E-01  0.33934489206E-01  0.00000000000E+00 0. -1.
<mgrwt>
<rscale>  1 0.64415709E+03</rscale>
<asrwt>0</asrwt>
<pdfrwt beam="1">  1        1 0.37733316E+00 0.64415709E+03</pdfrwt>
<pdfrwt beam="2">0</pdfrwt>
<totfact> 0.16878219E+00</totfact>
</mgrwt>
</event>
<event>
 6    1  0.1208527E-002  0.6470202E+03  0.7818608E-02  0.9812387E-01
          1   -1    0    0  502    0  0.00000000000E+00  0.00000000000E+00  0.10466269904E+03  0.10466269904E+03  0.00000000000E+00 0.  1.
         13   -1    0    0    0    0 -0.00000000000E+00 -0.00000000000E+00 -0.10000000000E+04  0.10000000000E+04  0.00000000000E+00 0.  1.
    9000005    2    1    2  501    0  0.38057816809E-02  0.46753070269E-02 -0.89533847082E+03  0.11046565581E+04  0.64702019599E+03 0.  0.
         13    1    3    3    0    0  0.16215161822E+03 -0.13673187927E+03 -0.86471857155E+03  0.89035215622E+03  0.00000000000E+00 0.  1.
          3    1    3    3  501    0 -0.16214781244E+03  0.13673655458E+03 -0.30619899267E+02  0.21430440189E+03  0.00000000000E+00 0.  1.
         21    1    1    2  502  501 -0.38057816809E-02 -0.46753070269E-02  0.11698638032E-02  0.61409324468E-02  0.00000000000E+00 0.  1.
<mgrwt>
<rscale>  1 0.64702020E+03</rscale>
<asrwt>0</asrwt>
<pdfrwt beam="1">  1        1 0.38059244E+00 0.64702020E+03</pdfrwt>
<pdfrwt beam="2">0</pdfrwt>
<totfact> 0.16320173E+00</totfact>
</mgrwt>
</event>
<event>
 6    1  0.1208527E-002  0.6875962E+03  0.7818608E-02  0.9738683E-01
          1   -1    0    0  502    0  0.00000000000E+00  0.00000000000E+00  0.11824980859E+03  0.11824980859E+03  0.00000000000E+00 0.  1.
         13   -1    0    0    0    0 -0.00000000000E+00 -0.00000000000E+00 -0.10000000000E+04  0.10000000000E+04  0.00000000000E+00 0.  1.
    9000005    2    1    2  501    0  0.40465674252E-02 -0.20252674624E-02 -0.88180274213E+03  0.11181970634E+04  0.68759624529E+03 0.  0.
         13    1    3    3    0    0  0.22931275006E+03  0.24055523109E+03 -0.29777052106E+03  0.44622689269E+03  0.00000000000E+00 0.  1.
          3    1    3    3  501    0 -0.22930870349E+03 -0.24055725635E+03 -0.58403222107E+03  0.67197017071E+03  0.00000000000E+00 0.  1.
         21    1    1    2  502  501 -0.40465674252E-02  0.20252674624E-02  0.52550721508E-01  0.52745186958E-01  0.00000000000E+00 0.  1.
<mgrwt>
<rscale>  1 0.68759625E+03</rscale>
<asrwt>0</asrwt>
<pdfrwt beam="1">  1        1 0.43000021E+00 0.68759625E+03</pdfrwt>
<pdfrwt beam="2">0</pdfrwt>
<totfact> 0.97342516E-01</totfact>
</mgrwt>
</event>
<event>
 6    1  0.1208527E-002  0.5520659E+03  0.7818608E-02  0.1001017E+00
          1   -1    0    0  502    0  0.00000000000E+00  0.00000000000E+00  0.93827367443E+02  0.93827367443E+02  0.00000000000E+00 0.  1.
         13   -1    0    0    0    0 -0.00000000000E+00 -0.00000000000E+00 -0.10000000000E+04  0.10000000000E+04  0.00000000000E+00 0.  1.
    9000005    2    1    2  501    0  0.78005265750E+01 -0.17399626366E+01 -0.92282728735E+03  0.10753543273E+04  0.55200801745E+03 0.  0.
         13    1    3    3    0    0  0.18269385507E+03  0.20933283881E+03 -0.47507513522E+03  0.55035776199E+03  0.00000000000E+00 0.  1.
          3    1    3    3  501    0 -0.17489332850E+03 -0.21107280145E+03 -0.44775215214E+03  0.52499656533E+03  0.00000000000E+00 0.  1.
         21    1    1    2  502  501 -0.78005265750E+01  0.17399626366E+01  0.16654654797E+02  0.18473040119E+02  0.00000000000E+00 0. -1.
<mgrwt>
<rscale>  1 0.55206587E+03</rscale>
<asrwt>0</asrwt>
<pdfrwt beam="1">  1        1 0.34119115E+00 0.55206587E+03</pdfrwt>
<pdfrwt beam="2">0</pdfrwt>
<totfact> 0.24710578E+00</totfact>
</mgrwt>
</event>
<event>
 6    1  0.1504934E-002  0.6516752E+03  0.7818608E-02  0.9803641E-01
          1   -1    0    0  502    0  0.00000000000E+00  0.00000000000E+00  0.10617012781E+03  0.10617012781E+03  0.00000000000E+00 0.  1.
         13   -1    0    0    0    0 -0.00000000000E+00 -0.00000000000E+00 -0.10000000000E+04  0.10000000000E+04  0.00000000000E+00 0.  1.
    9000005    2    1    2  501    0  0.62831327341E-06  0.17047675271E-05 -0.89382987178E+03  0.11061701259E+04  0.65167515516E+03 0.  0.
         13    1    3    3    0    0  0.28043482659E+03  0.12464091831E+03 -0.63278945453E+03  0.70327913679E+03  0.00000000000E+00 0.  1.
          3    1    3    3  501    0 -0.28043482596E+03 -0.12464091660E+03 -0.26104041724E+03  0.40289098915E+03  0.00000000000E+00 0.  1.
         21    1    1    2  502  501 -0.62831327325E-06 -0.17047675175E-05 -0.41650886986E-06  0.18639982555E-05  0.00000000000E+00 0. -1.
<mgrwt>
<rscale>  1 0.65167516E+03</rscale>
<asrwt>0</asrwt>
<pdfrwt beam="1">  1        1 0.38607401E+00 0.65167516E+03</pdfrwt>
<pdfrwt beam="2">0</pdfrwt>
<totfact> 0.15421477E+00</totfact>
</mgrwt>
</event>
<event>
 6    1  0.1208527E-002  0.6409722E+03  0.7818608E-02  0.9823868E-01
          1   -1    0    0  502    0  0.00000000000E+00  0.00000000000E+00  0.10271475118E+03  0.10271475118E+03  0.00000000000E+00 0.  1.
         13   -1    0    0    0    0 -0.00000000000E+00 -0.00000000000E+00 -0.10000000000E+04  0.10000000000E+04  0.00000000000E+00 0.  1.
    9000005    2    1    2  501    0  0.25019476908E-02 -0.10325435613E-01 -0.89727150043E+03  0.11026973761E+04  0.64097219729E+03 0.  0.
         13    1    3    3    0    0  0.18671339526E+03 -0.14474803566E+03 -0.82120401362E+03  0.85451150828E+03  0.00000000000E+00 0.  1.
          3    1    3    3  501    0 -0.18671089332E+03  0.14473771023E+03 -0.76067486816E+02  0.24818586784E+03  0.00000000000E+00 0.  1.
         21    1    1    2  502  501 -0.25019476908E-02  0.10325435613E-01 -0.13748393010E-01  0.17375058940E-01  0.00000000000E+00 0. -1.
<mgrwt>
<rscale>  1 0.64097220E+03</rscale>
<asrwt>0</asrwt>
<pdfrwt beam="1">  1        1 0.37350897E+00 0.64097220E+03</pdfrwt>
<pdfrwt beam="2">0</pdfrwt>
<totfact> 0.17555629E+00</totfact>
</mgrwt>
</event>
<event>
 6    1  0.1208527E-002  0.6218531E+03  0.7818608E-02  0.9861077E-01
          1   -1    0    0  502    0  0.00000000000E+00  0.00000000000E+00  0.96675346179E+02  0.96675346179E+02  0.00000000000E+00 0.  1.
         13   -1    0    0    0    0 -0.00000000000E+00 -0.00000000000E+00 -0.10000000000E+04  0.10000000000E+04  0.00000000000E+00 0.  1.
    9000005    2    1    2  501    0 -0.16298196272E-04  0.22124922339E-07 -0.90332468711E+03  0.10966753091E+04  0.62185307209E+03 0.  0.
         13    1    3    3    0    0  0.20004460689E+03  0.53841837237E+02 -0.42765329596E+02  0.21153170353E+03  0.00000000000E+00 0.  1.
          3    1    3    3  501    0 -0.20004462319E+03 -0.53841837215E+02 -0.86055935752E+03  0.88514360559E+03  0.00000000000E+00 0.  1.
         21    1    1    2  502  501  0.16298196271E-04 -0.22124925904E-07  0.33290444493E-04  0.37065959933E-04  0.00000000000E+00 0. -1.
<mgrwt>
<rscale>  1 0.62185307E+03</rscale>
<asrwt>0</asrwt>
<pdfrwt beam="1">  1        1 0.35154745E+00 0.62185307E+03</pdfrwt>
<pdfrwt beam="2">0</pdfrwt>
<totfact> 0.21982335E+00</totfact>
</mgrwt>
</event>
<event>
 6    1  0.1208527E-002  0.6638889E+03  0.7818608E-02  0.9781061E-01
          1   -1    0    0  502    0  0.00000000000E+00  0.00000000000E+00  0.11018784011E+03  0.11018784011E+03  0.00000000000E+00 0.  1.
         13   -1    0    0    0    0 -0.00000000000E+00 -0.00000000000E+00 -0.10000000000E+04  0.10000000000E+04  0.00000000000E+00 0.  1.
    9000005    2    1    2  501    0 -0.13273397548E-03  0.35283526785E-04 -0.88981286064E+03  0.11101871260E+04  0.66388894240E+03 0.  0.
         13    1    3    3    0    0  0.27638221217E+03  0.18315073970E+03 -0.41816183996E+03  0.53365779771E+03  0.00000000000E+00 0.  1.
          3    1    3    3  501    0 -0.27638234490E+03 -0.18315070442E+03 -0.47165102068E+03  0.57652932832E+03  0.00000000000E+00 0.  1.
         21    1    1    2  502  501  0.13273397549E-03 -0.35283526791E-04  0.70074638407E-03  0.71407893842E-03  0.00000000000E+00 0.  1.
<mgrwt>
<rscale>  1 0.66388894E+03</rscale>
<asrwt>0</asrwt>
<pdfrwt beam="1">  1        1 0.40068390E+00 0.66388894E+03</pdfrwt>
<pdfrwt beam="2">0</pdfrwt>
<totfact> 0.13250343E+00</totfact>
</mgrwt>
</event>
<event>
 6    1  0.1208527E-002  0.6715410E+03  0.7818608E-02  0.9767178E-01
          1   -1    0    0  502    0  0.00000000000E+00  0.00000000000E+00  0.11352240309E+03  0.11352240309E+03  0.00000000000E+00 0.  1.
         13   -1    0    0    0    0 -0.00000000000E+00 -0.00000000000E+00 -0.10000000000E+04  0.10000000000E+04  0.00000000000E+00 0.  1.
    9000005    2    1    2  501    0  0.11139618581E+01 -0.14878625495E+01 -0.88571882665E+03  0.11115148229E+04  0.67153846275E+03 0.  0.
         13    1    3    3    0    0  0.10643475089E+03  0.29446779412E+03 -0.64071872242E+03  0.71313401211E+03  0.00000000000E+00 0.  1.
          3    1    3    3  501    0 -0.10532078903E+03 -0.29595565667E+03 -0.24500010422E+03  0.39838081076E+03  0.00000000000E+00 0.  1.
         21    1    1    2  502  501 -0.11139618581E+01  0.14878625495E+01 -0.75877026658E+00  0.20075802113E+01  0.00000000000E+00 0.  1.
<mgrwt>
<rscale>  1 0.67154103E+03</rscale>
<asrwt>0</asrwt>
<pdfrwt beam="1">  1        1 0.41280961E+00 0.67154103E+03</pdfrwt>
<pdfrwt beam="2">0</pdfrwt>
<totfact> 0.11676538E+00</totfact>
</mgrwt>
</event>
<event>
 6    1  0.1208527E-002  0.6484108E+03  0.7818608E-02  0.9809766E-01
          1   -1    0    0  502    0  0.00000000000E+00  0.00000000000E+00  0.10536805338E+03  0.10536805338E+03  0.00000000000E+00 0.  1.
         13   -1    0    0    0    0 -0.00000000000E+00 -0.00000000000E+00 -0.10000000000E+04  0.10000000000E+04  0.00000000000E+00 0.  1.
    9000005    2    1    2  501    0 -0.23126956473E-01 -0.85621042190E-02 -0.89489019591E+03  0.11051086293E+04  0.64841084134E+03 0.  0.
         13    1    3    3    0    0 -0.16198509802E+03 -0.27974476251E+03 -0.48986123205E+03  0.58690742950E+03  0.00000000000E+00 0.  1.
          3    1    3    3  501    0  0.16196197107E+03  0.27973620041E+03 -0.40502896387E+03  0.51820119979E+03  0.00000000000E+00 0.  1.
         21    1    1    2  502  501  0.23126956473E-01  0.85621042190E-02  0.25824929224E+00  0.25942409812E+00  0.00000000000E+00 0.  1.
<mgrwt>
<rscale>  1 0.64841084E+03</rscale>
<asrwt>0</asrwt>
<pdfrwt beam="1">  1        1 0.38315737E+00 0.64841084E+03</pdfrwt>
<pdfrwt beam="2">0</pdfrwt>
<totfact> 0.15895936E+00</totfact>
</mgrwt>
</event>
<event>
 6    1  0.1208527E-002  0.6402000E+03  0.7818608E-02  0.9825344E-01
          1   -1    0    0  502    0  0.00000000000E+00  0.00000000000E+00  0.10278131176E+03  0.10278131176E+03  0.00000000000E+00 0.  1.
         13   -1    0    0    0    0 -0.00000000000E+00 -0.00000000000E+00 -0.10000000000E+04  0.10000000000E+04  0.00000000000E+00 0.  1.
    9000005    2    1    2  501    0  0.89713995216E-02  0.17716065013E-02 -0.89753590794E+03  0.11024639603E+04  0.64020002935E+03 0.  0.
         13    1    3    3    0    0 -0.76843302999E+02 -0.48724521157E+01  0.86278696301E+02  0.11564016361E+03  0.00000000000E+00 0.  1.
          1    1    3    3  501    0  0.76852274399E+02  0.48742237223E+01 -0.98381460424E+03  0.98682379666E+03  0.00000000000E+00 0.  1.
         21    1    1    2  502  501 -0.89713995216E-02 -0.17716065013E-02  0.31721970145E+00  0.31735148272E+00  0.00000000000E+00 0.  1.
<mgrwt>
<rscale>  1 0.64020003E+03</rscale>
<asrwt>0</asrwt>
<pdfrwt beam="1">  1        1 0.37375101E+00 0.64020003E+03</pdfrwt>
<pdfrwt beam="2">0</pdfrwt>
<totfact> 0.17515114E+00</totfact>
</mgrwt>
</event>
<event>
 6    1  0.1208527E-002  0.6476245E+03  0.7818608E-02  0.9811247E-01
          1   -1    0    0  502    0  0.00000000000E+00  0.00000000000E+00  0.10508674216E+03  0.10508674216E+03  0.00000000000E+00 0.  1.
         13   -1    0    0    0    0 -0.00000000000E+00 -0.00000000000E+00 -0.10000000000E+04  0.10000000000E+04  0.00000000000E+00 0.  1.
    9000005    2    1    2  501    0  0.70035256610E-01  0.25489966716E-01 -0.89513902200E+03  0.11048489941E+04  0.64762444792E+03 0.  0.
         13    1    3    3    0    0 -0.31027423705E+03 -0.64427924991E+02 -0.33422866468E+03  0.46057557468E+03  0.00000000000E+00 0.  1.
          3    1    3    3  501    0  0.31034427231E+03  0.64453414958E+02 -0.56091035731E+03  0.64427341944E+03  0.00000000000E+00 0.  1.
         21    1    1    2  502  501 -0.70035256611E-01 -0.25489966716E-01  0.22576415806E+00  0.23774804024E+00  0.00000000000E+00 0.  1.
<mgrwt>
<rscale>  1 0.64762445E+03</rscale>
<asrwt>0</asrwt>
<pdfrwt beam="1">  1        1 0.38213441E+00 0.64762445E+03</pdfrwt>
<pdfrwt beam="2">0</pdfrwt>
<totfact> 0.16064543E+00</totfact>
</mgrwt>
</event>
<event>
 6    1  0.1208527E-002  0.6211860E+03  0.7818608E-02  0.9862401E-01
          1   -1    0    0  502    0  0.00000000000E+00  0.00000000000E+00  0.96477018756E+02  0.96477018756E+02  0.00000000000E+00 0.  1.
         13   -1    0    0    0    0 -0.00000000000E+00 -0.00000000000E+00 -0.10000000000E+04  0.10000000000E+04  0.00000000000E+00 0.  1.
    9000005    2    1    2  501    0  0.38503415920E-02 -0.18202328331E-01 -0.90352004530E+03  0.10964581834E+04  0.62118602318E+03 0.  0.
         13    1    3    3    0    0  0.21632320181E+03 -0.20790386501E+03 -0.59356147712E+03  0.66508268046E+03  0.00000000000E+00 0.  1.
          1    1    3    3  501    0 -0.21631935147E+03  0.20788566268E+03 -0.30995856818E+03  0.43137550297E+03  0.00000000000E+00 0.  1.
         21    1    1    2  502  501 -0.38503415920E-02  0.18202328331E-01 -0.29359447539E-02  0.18835330065E-01  0.00000000000E+00 0. -1.
<mgrwt>
<rscale>  1 0.62118602E+03</rscale>
<asrwt>0</asrwt>
<pdfrwt beam="1">  1        1 0.35082626E+00 0.62118602E+03</pdfrwt>
<pdfrwt beam="2">0</pdfrwt>
<totfact> 0.22144684E+00</totfact>
</mgrwt>
</event>
<event>
 6    1  0.1208527E-002  0.6575594E+03  0.7818608E-02  0.9792697E-01
          1   -1    0    0  502    0  0.00000000000E+00  0.00000000000E+00  0.10809629913E+03  0.10809629913E+03  0.00000000000E+00 0.  1.
         13   -1    0    0    0    0 -0.00000000000E+00 -0.00000000000E+00 -0.10000000000E+04  0.10000000000E+04  0.00000000000E+00 0.  1.
    9000005    2    1    2  501    0 -0.37126471057E-04 -0.32951878160E-03 -0.89190374828E+03  0.11080959641E+04  0.65755940383E+03 0.  0.
         13    1    3    3    0    0  0.16601818824E+03  0.20272315409E+03 -0.78060569705E+03  0.82340996490E+03  0.00000000000E+00 0.  1.
          3    1    3    3  501    0 -0.16601822537E+03 -0.20272348361E+03 -0.11129805123E+03  0.28468599925E+03  0.00000000000E+00 0.  1.
         21    1    1    2  502  501  0.37126471061E-04  0.32951878159E-03  0.47409257208E-04  0.33497558111E-03  0.00000000000E+00 0.  1.
<mgrwt>
<rscale>  1 0.65755940E+03</rscale>
<asrwt>0</asrwt>
<pdfrwt beam="1">  1        1 0.39307828E+00 0.65755940E+03</pdfrwt>
<pdfrwt beam="2">0</pdfrwt>
<totfact> 0.14341563E+00</totfact>
</mgrwt>
</event>
<event>
 6    1  0.1208527E-002  0.6472413E+03  0.7818608E-02  0.9811969E-01
          1   -1    0    0  502    0  0.00000000000E+00  0.00000000000E+00  0.10973965547E+03  0.10973965547E+03  0.00000000000E+00 0.  1.
         13   -1    0    0    0    0 -0.00000000000E+00 -0.00000000000E+00 -0.10000000000E+04  0.10000000000E+04  0.00000000000E+00 0.  1.
    9000005    2    1    2  501    0 -0.23941519816E+01 -0.92448424197E+00 -0.89490397178E+03  0.11044340067E+04  0.64723625502E+03 0.  0.
         13    1    3    3    0    0 -0.18771648067E+02  0.27292399312E+03 -0.15303079792E+03  0.31346180932E+03  0.00000000000E+00 0.  1.
          3    1    3    3  501    0  0.16377496085E+02 -0.27384847736E+03 -0.74187317386E+03  0.79097219738E+03  0.00000000000E+00 0.  1.
         21    1    1    2  502  501  0.23941519816E+01  0.92448424197E+00  0.46436272491E+01  0.53056487683E+01  0.00000000000E+00 0. -1.
<mgrwt>
<rscale>  1 0.64724134E+03</rscale>
<asrwt>0</asrwt>
<pdfrwt beam="1">  1        1 0.39905413E+00 0.64724134E+03</pdfrwt>
<pdfrwt beam="2">0</pdfrwt>
<totfact> 0.13516298E+00</totfact>
</mgrwt>
</event>
<event>
 6    1  0.1208527E-002  0.6517180E+03  0.7818608E-02  0.9803561E-01
          1   -1    0    0  502    0  0.00000000000E+00  0.00000000000E+00  0.10622727879E+03  0.10622727879E+03  0.00000000000E+00 0.  1.
         13   -1    0    0    0    0 -0.00000000000E+00 -0.00000000000E+00 -0.10000000000E+04  0.10000000000E+04  0.00000000000E+00 0.  1.
    9000005    2    1    2  501    0 -0.66602946337E-02  0.11186709412E-03 -0.89381561869E+03  0.11061838672E+04  0.65171802783E+03 0.  0.
         13    1    3    3    0    0  0.90159187281E+02  0.29092230955E+03 -0.25028618979E+03  0.39421776475E+03  0.00000000000E+00 0.  1.
          3    1    3    3  501    0 -0.90165847576E+02 -0.29092219768E+03 -0.64352942891E+03  0.71196610245E+03  0.00000000000E+00 0.  1.
         21    1    1    2  502  501  0.66602946337E-02 -0.11186709411E-03  0.42897485545E-01  0.43411591827E-01  0.00000000000E+00 0. -1.
<mgrwt>
<rscale>  1 0.65171803E+03</rscale>
<asrwt>0</asrwt>
<pdfrwt beam="1">  1        1 0.38628183E+00 0.65171803E+03</pdfrwt>
<pdfrwt beam="2">0</pdfrwt>
<totfact> 0.15388728E+00</totfact>
</mgrwt>
</event>
<event>
 6    1  0.1208527E-002  0.6516076E+03  0.7818608E-02  0.9803767E-01
          1   -1    0    0  502    0  0.00000000000E+00  0.00000000000E+00  0.11405021668E+03  0.11405021668E+03  0.00000000000E+00 0.  1.
         13   -1    0    0    0    0 -0.00000000000E+00 -0.00000000000E+00 -0.10000000000E+04  0.10000000000E+04  0.00000000000E+00 0.  1.
    9000005    2    1    2  501    0 -0.26947217276E+00  0.10337328915E+00 -0.89384896511E+03  0.11061457639E+04  0.65160754692E+03 0.  0.
         13    1    3    3    0    0 -0.30348221203E+03 -0.76246632764E+02 -0.29235942343E+03  0.42823945929E+03  0.00000000000E+00 0.  1.
          3    1    3    3  501    0  0.30321273986E+03  0.76350006053E+02 -0.60148954168E+03  0.67790630458E+03  0.00000000000E+00 0.  1.
         21    1    1    2  502  501  0.26947217276E+00 -0.10337328915E+00  0.78991817910E+01  0.79044528119E+01  0.00000000000E+00 0.  1.
<mgrwt>
<rscale>  1 0.65160761E+03</rscale>
<asrwt>0</asrwt>
<pdfrwt beam="1">  1        1 0.41472894E+00 0.65160761E+03</pdfrwt>
<pdfrwt beam="2">0</pdfrwt>
<totfact> 0.11490881E+00</totfact>
</mgrwt>
</event>
<event>
 6    1  0.1208527E-002  0.6556473E+03  0.7818608E-02  0.9796240E-01
          1   -1    0    0  502    0  0.00000000000E+00  0.00000000000E+00  0.10746881080E+03  0.10746881080E+03  0.00000000000E+00 0.  1.
         13   -1    0    0    0    0 -0.00000000000E+00 -0.00000000000E+00 -0.10000000000E+04  0.10000000000E+04  0.00000000000E+00 0.  1.
    9000005    2    1    2  501    0  0.73094997094E-03  0.70305237534E-03 -0.89253092882E+03  0.11074677637E+04  0.65564730516E+03 0.  0.
         13    1    3    3    0    0 -0.13144212120E+03  0.29500770006E+03 -0.54124605159E+03  0.63028078083E+03  0.00000000000E+00 0.  1.
          1    1    3    3  501    0  0.13144285215E+03 -0.29500699701E+03 -0.35128487724E+03  0.47718698289E+03  0.00000000000E+00 0.  1.
         21    1    1    2  502  501 -0.73094997094E-03 -0.70305237537E-03 -0.26037999241E-03  0.10470760445E-02  0.00000000000E+00 0. -1.
<mgrwt>
<rscale>  1 0.65564731E+03</rscale>
<asrwt>0</asrwt>
<pdfrwt beam="1">  1        1 0.39079650E+00 0.65564731E+03</pdfrwt>
<pdfrwt beam="2">0</pdfrwt>
<totfact> 0.14685220E+00</totfact>
</mgrwt>
</event>
<event>
 6    1  0.1208527E-002  0.6471867E+03  0.7818608E-02  0.9812072E-01
          1   -1    0    0  502    0  0.00000000000E+00  0.00000000000E+00  0.10472932851E+03  0.10472932851E+03  0.00000000000E+00 0.  1.
         13   -1    0    0    0    0 -0.00000000000E+00 -0.00000000000E+00 -0.10000000000E+04  0.10000000000E+04  0.00000000000E+00 0.  1.
    9000005    2    1    2  501    0 -0.14588231294E-01  0.10215212321E-01 -0.89528192195E+03  0.11047082634E+04  0.64718670186E+03 0.  0.
         13    1    3    3    0    0  0.13371397360E+03 -0.10898197089E+03  0.19683907493E+02  0.17362013976E+03  0.00000000000E+00 0.  1.
          1    1    3    3  501    0 -0.13372856183E+03  0.10899218610E+03 -0.91496582945E+03  0.93108812362E+03  0.00000000000E+00 0.  1.
         21    1    1    2  502  501  0.14588231294E-01 -0.10215212321E-01  0.11250466421E-01  0.21065138256E-01  0.00000000000E+00 0.  1.
<mgrwt>
<rscale>  1 0.64718670E+03</rscale>
<asrwt>0</asrwt>
<pdfrwt beam="1">  1        1 0.38083472E+00 0.64718670E+03</pdfrwt>
<pdfrwt beam="2">0</pdfrwt>
<totfact> 0.16279537E+00</totfact>
</mgrwt>
</event>
<event>
 6    1  0.1208527E-002  0.6515293E+03  0.7818608E-02  0.9803914E-01
          1   -1    0    0  502    0  0.00000000000E+00  0.00000000000E+00  0.10648130306E+03  0.10648130306E+03  0.00000000000E+00 0.  1.
         13   -1    0    0    0    0 -0.00000000000E+00 -0.00000000000E+00 -0.10000000000E+04  0.10000000000E+04  0.00000000000E+00 0.  1.
    9000005    2    1    2  501    0  0.77109856029E-01 -0.31552478166E+00 -0.89379419263E+03  0.11060553926E+04  0.65152925282E+03 0.  0.
         13    1    3    3    0    0 -0.74362462448E+02  0.19432399274E+03 -0.21453251584E+02  0.20916938586E+03  0.00000000000E+00 0.  1.
          1    1    3    3  501    0  0.74439572304E+02 -0.19463951753E+03 -0.87234094105E+03  0.89688600677E+03  0.00000000000E+00 0.  1.
         21    1    1    2  502  501 -0.77109856029E-01  0.31552478166E+00  0.27549569475E+00  0.42591043139E+00  0.00000000000E+00 0.  1.
<mgrwt>
<rscale>  1 0.65152933E+03</rscale>
<asrwt>0</asrwt>
<pdfrwt beam="1">  1        1 0.38720555E+00 0.65152933E+03</pdfrwt>
<pdfrwt beam="2">0</pdfrwt>
<totfact> 0.15245034E+00</totfact>
</mgrwt>
</event>
<event>
 6    1  0.1208527E-002  0.6416404E+03  0.7818608E-02  0.9822593E-01
          1   -1    0    0  502    0  0.00000000000E+00  0.00000000000E+00  0.10633817689E+03  0.10633817689E+03  0.00000000000E+00 0.  1.
         13   -1    0    0    0    0 -0.00000000000E+00 -0.00000000000E+00 -0.10000000000E+04  0.10000000000E+04  0.00000000000E+00 0.  1.
    9000005    2    1    2  501    0  0.10489856091E+01 -0.32074231715E+01 -0.89612977031E+03  0.11021574237E+04  0.64163154019E+03 0.  0.
         13    1    3    3    0    0  0.25864208558E+03 -0.19176681698E+03 -0.47015636567E+03  0.56983966930E+03  0.00000000000E+00 0.  1.
          1    1    3    3  501    0 -0.25759309997E+03  0.18855939381E+03 -0.42597340464E+03  0.53231775436E+03  0.00000000000E+00 0.  1.
         21    1    1    2  502  501 -0.10489856091E+01  0.32074231715E+01  0.24679471949E+01  0.41807532295E+01  0.00000000000E+00 0.  1.
<mgrwt>
<rscale>  1 0.64164041E+03</rscale>
<asrwt>0</asrwt>
<pdfrwt beam="1">  1        1 0.38668510E+00 0.64164041E+03</pdfrwt>
<pdfrwt beam="2">0</pdfrwt>
<totfact> 0.15354392E+00</totfact>
</mgrwt>
</event>
<event>
 6    1  0.1208527E-002  0.6375013E+03  0.7818608E-02  0.9830519E-01
          1   -1    0    0  502    0  0.00000000000E+00  0.00000000000E+00  0.10169872810E+03  0.10169872810E+03  0.00000000000E+00 0.  1.
         13   -1    0    0    0    0 -0.00000000000E+00 -0.00000000000E+00 -0.10000000000E+04  0.10000000000E+04  0.00000000000E+00 0.  1.
    9000005    2    1    2  501    0 -0.35883837723E-01  0.60207514167E-02 -0.89839425415E+03  0.11015988802E+04  0.63750125936E+03 0.  0.
         13    1    3    3    0    0  0.28503688281E+03  0.10567550318E+03 -0.28362143393E+03  0.41575768703E+03  0.00000000000E+00 0.  1.
          3    1    3    3  501    0 -0.28507276665E+03 -0.10566948243E+03 -0.61477282022E+03  0.68584119320E+03  0.00000000000E+00 0.  1.
         21    1    1    2  502  501  0.35883837723E-01 -0.60207514167E-02  0.92982250870E-01  0.99847875462E-01  0.00000000000E+00 0. -1.
<mgrwt>
<rscale>  1 0.63750126E+03</rscale>
<asrwt>0</asrwt>
<pdfrwt beam="1">  1        1 0.36981434E+00 0.63750126E+03</pdfrwt>
<pdfrwt beam="2">0</pdfrwt>
<totfact> 0.18236005E+00</totfact>
</mgrwt>
</event>
<event>
 6    1  0.1208527E-002  0.6589507E+03  0.7818608E-02  0.9790127E-01
          1   -1    0    0  502    0  0.00000000000E+00  0.00000000000E+00  0.10856434078E+03  0.10856434078E+03  0.00000000000E+00 0.  1.
         13   -1    0    0    0    0 -0.00000000000E+00 -0.00000000000E+00 -0.10000000000E+04  0.10000000000E+04  0.00000000000E+00 0.  1.
    9000005    2    1    2  501    0  0.18263401526E-03 -0.39369002110E-04 -0.89144598591E+03  0.11085540124E+04  0.65895072094E+03 0.  0.
         13    1    3    3    0    0 -0.18963110522E+03 -0.19959231182E+03 -0.75020070030E+03  0.79912335577E+03  0.00000000000E+00 0.  1.
          3    1    3    3  501    0  0.18963128785E+03  0.19959227245E+03 -0.14124528560E+03  0.30943065663E+03  0.00000000000E+00 0.  1.
         21    1    1    2  502  501 -0.18263401526E-03  0.39369002106E-04  0.10326685262E-01  0.10328375168E-01  0.00000000000E+00 0. -1.
<mgrwt>
<rscale>  1 0.65895072E+03</rscale>
<asrwt>0</asrwt>
<pdfrwt beam="1">  1        1 0.39478025E+00 0.65895072E+03</pdfrwt>
<pdfrwt beam="2">0</pdfrwt>
<totfact> 0.14090297E+00</totfact>
</mgrwt>
</event>
<event>
 6    1  0.1208527E-002  0.6347407E+03  0.7818608E-02  0.9835841E-01
          1   -1    0    0  502    0  0.00000000000E+00  0.00000000000E+00  0.10072626143E+03  0.10072626143E+03  0.00000000000E+00 0.  1.
         13   -1    0    0    0    0 -0.00000000000E+00 -0.00000000000E+00 -0.10000000000E+04  0.10000000000E+04  0.00000000000E+00 0.  1.
    9000005    2    1    2  501    0 -0.28430733932E-03  0.25390632669E-03 -0.89927604728E+03  0.11007239215E+04  0.63474068885E+03 0.  0.
         13    1    3    3    0    0  0.27462705263E+02 -0.31609260114E+03 -0.43676375047E+03  0.53984377963E+03  0.00000000000E+00 0.  1.
          1    1    3    3  501    0 -0.27462989571E+02  0.31609285505E+03 -0.46251229680E+03  0.56088014184E+03  0.00000000000E+00 0.  1.
         21    1    1    2  502  501  0.28430733932E-03 -0.25390632672E-03  0.23087094886E-02  0.23399655101E-02  0.00000000000E+00 0.  1.
<mgrwt>
<rscale>  1 0.63474069E+03</rscale>
<asrwt>0</asrwt>
<pdfrwt beam="1">  1        1 0.36627809E+00 0.63474069E+03</pdfrwt>
<pdfrwt beam="2">0</pdfrwt>
<totfact> 0.18908846E+00</totfact>
</mgrwt>
</event>
<event>
 6    1  0.1208527E-002  0.5834683E+03  0.7818608E-02  0.9940310E-01
          1   -1    0    0  502    0  0.00000000000E+00  0.00000000000E+00  0.85738239930E+02  0.85738239930E+02  0.00000000000E+00 0.  1.
         13   -1    0    0    0    0 -0.00000000000E+00 -0.00000000000E+00 -0.10000000000E+04  0.10000000000E+04  0.00000000000E+00 0.  1.
    9000005    2    1    2  501    0  0.10687990741E-01  0.62134149153E-02 -0.91489112234E+03  0.10851087562E+04  0.58346829134E+03 0.  0.
         13    1    3    3    0    0  0.20117854257E+02  0.20957260903E+02 -0.99730529943E+03  0.99772831729E+03  0.00000000000E+00 0.  1.
          1    1    3    3  501    0 -0.20107166266E+02 -0.20951047488E+02  0.82414177095E+02  0.87380438957E+02  0.00000000000E+00 0.  1.
         21    1    1    2  502  501 -0.10687990741E-01 -0.62134149153E-02  0.62936226921E+00  0.62948368174E+00  0.00000000000E+00 0. -1.
<mgrwt>
<rscale>  1 0.58346829E+03</rscale>
<asrwt>0</asrwt>
<pdfrwt beam="1">  1        1 0.31177608E+00 0.58346829E+03</pdfrwt>
<pdfrwt beam="2">0</pdfrwt>
<totfact> 0.32920068E+00</totfact>
</mgrwt>
</event>
<event>
 6    1  0.1208527E-002  0.6522129E+03  0.7818608E-02  0.9802636E-01
          1   -1    0    0  502    0  0.00000000000E+00  0.00000000000E+00  0.10634542770E+03  0.10634542770E+03  0.00000000000E+00 0.  1.
         13   -1    0    0    0    0 -0.00000000000E+00 -0.00000000000E+00 -0.10000000000E+04  0.10000000000E+04  0.00000000000E+00 0.  1.
    9000005    2    1    2  501    0  0.11747787028E-05  0.21961535879E-05 -0.89365458582E+03  0.11063454140E+04  0.65221289179E+03 0.  0.
         13    1    3    3    0    0  0.18266695987E+03  0.10411886174E+03 -0.86966928132E+03  0.89472488200E+03  0.00000000000E+00 0.  1.
          3    1    3    3  501    0 -0.18266695869E+03 -0.10411885955E+03 -0.23985304500E+02  0.21162053195E+03  0.00000000000E+00 0.  1.
         21    1    1    2  502  501 -0.11747786894E-05 -0.21961535808E-05  0.13517491143E-04  0.13745026822E-04  0.00000000000E+00 0. -1.
<mgrwt>
<rscale>  1 0.65221289E+03</rscale>
<asrwt>0</asrwt>
<pdfrwt beam="1">  1        1 0.38671146E+00 0.65221289E+03</pdfrwt>
<pdfrwt beam="2">0</pdfrwt>
<totfact> 0.15320084E+00</totfact>
</mgrwt>
</event>
<event>
 6    1  0.1208527E-002  0.6537391E+03  0.7818608E-02  0.9799788E-01
          1   -1    0    0  502    0  0.00000000000E+00  0.00000000000E+00  0.10684372382E+03  0.10684372382E+03  0.00000000000E+00 0.  1.
         13   -1    0    0    0    0 -0.00000000000E+00 -0.00000000000E+00 -0.10000000000E+04  0.10000000000E+04  0.00000000000E+00 0.  1.
    9000005    2    1    2  501    0 -0.27697529021E-04  0.26525983600E-04 -0.89315628076E+03  0.11068436852E+04  0.65373909292E+03 0.  0.
         13    1    3    3    0    0  0.22266253337E+03 -0.72575414469E+02 -0.60500413610E+02  0.24188033116E+03  0.00000000000E+00 0.  1.
          1    1    3    3  501    0 -0.22266256107E+03  0.72575440995E+02 -0.83265586715E+03  0.86496335404E+03  0.00000000000E+00 0.  1.
         21    1    1    2  502  501  0.27697529002E-04 -0.26525983598E-04  0.45791165931E-05  0.38623169567E-04  0.00000000000E+00 0.  1.
<mgrwt>
<rscale>  1 0.65373909E+03</rscale>
<asrwt>0</asrwt>
<pdfrwt beam="1">  1        1 0.38852345E+00 0.65373909E+03</pdfrwt>
<pdfrwt beam="2">0</pdfrwt>
<totfact> 0.15035323E+00</totfact>
</mgrwt>
</event>
