<event>
 6    1  0.2234319E-003  0.6495731E+03  0.7818608E-02  0.9807581E-01
          1   -1    0    0  502    0  0.00000000000E+00  0.00000000000E+00  0.10548683220E+03  0.10548683220E+03  0.00000000000E+00 0.  1.
         13   -1    0    0    0    0 -0.00000000000E+00 -0.00000000000E+00 -0.10000000000E+04  0.10000000000E+04  0.00000000000E+00 0.  1.
    9000005    2    1    2  501    0 -0.13660456770E-03 -0.10812388390E-03 -0.89451368354E+03  0.11054862878E+04  0.64957309254E+03 0.  0.
         13    1    3    3    0    0  0.17971350130E+03 -0.24929606471E+03 -0.62608102851E+03  0.69744026604E+03  0.00000000000E+00 0.  1.
          3    1    3    3  501    0 -0.17971363791E+03  0.24929595659E+03 -0.26843265503E+03  0.40804602180E+03  0.00000000000E+00 0.  1.
         21    1    1    2  502  501  0.13660456768E-03  0.10812388390E-03  0.51574074001E-03  0.54437128238E-03  0.00000000000E+00 0.  1.
<mgrwt>
<rscale>  1 0.64957309E+03</rscale>
<asrwt>0</asrwt>
<pdfrwt beam="1">  1        1 0.38358929E+00 0.64957309E+03</pdfrwt>
<pdfrwt beam="2">0</pdfrwt>
<totfact> 0.15822828E+00</totfact>
</mgrwt>
</event>
<event>
 6    1  0.2234319E-003  0.6586579E+03  0.7818608E-02  0.9790668E-01
          1   -1    0    0  502    0  0.00000000000E+00  0.00000000000E+00  0.10845819965E+03  0.10845819965E+03  0.00000000000E+00 0.  1.
         13   -1    0    0    0    0 -0.00000000000E+00 -0.00000000000E+00 -0.10000000000E+04  0.10000000000E+04  0.00000000000E+00 0.  1.
    9000005    2    1    2  501    0 -0.20816507596E-03  0.13340613372E-03 -0.89154241326E+03  0.11084575387E+04  0.65865790860E+03 0.  0.
         13    1    3    3    0    0  0.10814370819E+03  0.18066986576E+02  0.76840242243E+02  0.13388764115E+03  0.00000000000E+00 0.  1.
          3    1    3    3  501    0 -0.10814391635E+03 -0.18066853170E+02 -0.96838265550E+03  0.97456989760E+03  0.00000000000E+00 0.  1.
         21    1    1    2  502  501  0.20816507596E-03 -0.13340613372E-03  0.61291194641E-03  0.66090161856E-03  0.00000000000E+00 0. -1.
<mgrwt>
<rscale>  1 0.65865791E+03</rscale>
<asrwt>0</asrwt>
<pdfrwt beam="1">  1        1 0.39439428E+00 0.65865791E+03</pdfrwt>
<pdfrwt beam="2">0</pdfrwt>
<totfact> 0.14146851E+00</totfact>
</mgrwt>
</event>
<event>
 6    1  0.2234319E-003  0.6475402E+03  0.7818608E-02  0.9811406E-01
          1   -1    0    0  502    0  0.00000000000E+00  0.00000000000E+00  0.10482999317E+03  0.10482999317E+03  0.00000000000E+00 0.  1.
         13   -1    0    0    0    0 -0.00000000000E+00 -0.00000000000E+00 -0.10000000000E+04  0.10000000000E+04  0.00000000000E+00 0.  1.
    9000005    2    1    2  501    0 -0.23498067449E-02  0.22945459222E-02 -0.89517185547E+03  0.11048262244E+04  0.64754021897E+03 0.  0.
         13    1    3    3    0    0 -0.12950119556E+03  0.11291921801E+02 -0.95352096348E+03  0.96234104919E+03  0.00000000000E+00 0.  1.
          1    1    3    3  501    0  0.12949884575E+03 -0.11289627255E+02  0.58349108016E+02  0.14248517516E+03  0.00000000000E+00 0.  1.
         21    1    1    2  502  501  0.23498067449E-02 -0.22945459222E-02  0.18486387203E-02  0.37688191580E-02  0.00000000000E+00 0.  1.
<mgrwt>
<rscale>  1 0.64754022E+03</rscale>
<asrwt>0</asrwt>
<pdfrwt beam="1">  1        1 0.38120078E+00 0.64754022E+03</pdfrwt>
<pdfrwt beam="2">0</pdfrwt>
<totfact> 0.16218022E+00</totfact>
</mgrwt>
</event>
<event>
 6    1  0.2234319E-003  0.6765589E+03  0.7818608E-02  0.9758181E-01
          1   -1    0    0  502    0  0.00000000000E+00  0.00000000000E+00  0.12447409673E+03  0.12447409673E+03  0.00000000000E+00 0.  1.
         13   -1    0    0    0    0 -0.00000000000E+00 -0.00000000000E+00 -0.10000000000E+04  0.10000000000E+04  0.00000000000E+00 0.  1.
    9000005    2    1    2  501    0  0.15701854497E+02 -0.16406125498E+02 -0.86805263805E+03  0.11005667991E+04  0.67617763021E+03 0.  0.
         13    1    3    3    0    0  0.30437387562E+03 -0.15354249914E+03 -0.32825050743E+03  0.47325167811E+03  0.00000000000E+00 0.  1.
          3    1    3    3  501    0 -0.28867202113E+03  0.13713637364E+03 -0.53980213062E+03  0.62731512096E+03  0.00000000000E+00 0.  1.
         21    1    1    2  502  501 -0.15701854497E+02  0.16406125498E+02 -0.74732652196E+01  0.23907297663E+02  0.00000000000E+00 0.  1.
<mgrwt>
<rscale>  1 0.67655886E+03</rscale>
<asrwt>0</asrwt>
<pdfrwt beam="1">  1        1 0.45263403E+00 0.67655886E+03</pdfrwt>
<pdfrwt beam="2">0</pdfrwt>
<totfact> 0.76835857E-01</totfact>
</mgrwt>
</event>
<event>
 6    1  0.2234319E-003  0.6543931E+03  0.7818608E-02  0.9798571E-01
          1   -1    0    0  502    0  0.00000000000E+00  0.00000000000E+00  0.10705916525E+03  0.10705916525E+03  0.00000000000E+00 0.  1.
         13   -1    0    0    0    0 -0.00000000000E+00 -0.00000000000E+00 -0.10000000000E+04  0.10000000000E+04  0.00000000000E+00 0.  1.
    9000005    2    1    2  501    0  0.94708058037E-03 -0.90179348669E-03 -0.89294209839E+03  0.11070573467E+04  0.65439313710E+03 0.  0.
         13    1    3    3    0    0 -0.27799249341E+03 -0.13524096599E+03 -0.26515134614E+03  0.40727776963E+03  0.00000000000E+00 0.  1.
          3    1    3    3  501    0  0.27799344049E+03  0.13524006420E+03 -0.62779075225E+03  0.69977957711E+03  0.00000000000E+00 0.  1.
         21    1    1    2  502  501 -0.94708058037E-03  0.90179348668E-03  0.12636382639E-02  0.18185089443E-02  0.00000000000E+00 0.  1.
<mgrwt>
<rscale>  1 0.65439314E+03</rscale>
<asrwt>0</asrwt>
<pdfrwt beam="1">  1        1 0.38930688E+00 0.65439314E+03</pdfrwt>
<pdfrwt beam="2">0</pdfrwt>
<totfact> 0.14913783E+00</totfact>
</mgrwt>
</event>
<event>
 6    1  0.2234319E-003  0.6508955E+03  0.7818608E-02  0.9805100E-01
          1   -1    0    0  502    0  0.00000000000E+00  0.00000000000E+00  0.10591627694E+03  0.10591627694E+03  0.00000000000E+00 0.  1.
         13   -1    0    0    0    0 -0.00000000000E+00 -0.00000000000E+00 -0.10000000000E+04  0.10000000000E+04  0.00000000000E+00 0.  1.
    9000005    2    1    2  501    0 -0.24448123611E-04 -0.78752375089E-04 -0.89408365290E+03  0.11059161687E+04  0.65089553214E+03 0.  0.
         13    1    3    3    0    0  0.19654394475E+03  0.25773851745E+03 -0.49679744637E+03  0.59318325019E+03  0.00000000000E+00 0.  1.
          3    1    3    3  501    0 -0.19654396919E+03 -0.25773859620E+03 -0.39728620653E+03  0.51273291849E+03  0.00000000000E+00 0.  1.
         21    1    1    2  502  501  0.24448123615E-04  0.78752375088E-04 -0.70156864005E-04  0.10826649019E-03  0.00000000000E+00 0. -1.
<mgrwt>
<rscale>  1 0.65089553E+03</rscale>
<asrwt>0</asrwt>
<pdfrwt beam="1">  1        1 0.38515091E+00 0.65089553E+03</pdfrwt>
<pdfrwt beam="2">0</pdfrwt>
<totfact> 0.15569436E+00</totfact>
</mgrwt>
</event>
<event>
 6    1  0.2234319E-003  0.6511208E+03  0.7818608E-02  0.9804678E-01
          1   -1    0    0  502    0  0.00000000000E+00  0.00000000000E+00  0.10599145415E+03  0.10599145415E+03  0.00000000000E+00 0.  1.
         13   -1    0    0    0    0 -0.00000000000E+00 -0.00000000000E+00 -0.10000000000E+04  0.10000000000E+04  0.00000000000E+00 0.  1.
    9000005    2    1    2  501    0 -0.50962287418E-04 -0.21054400634E-03 -0.89401042514E+03  0.11059895624E+04  0.65112078137E+03 0.  0.
         13    1    3    3    0    0 -0.12837918865E+03 -0.25684422804E+03 -0.70761329881E+03  0.76365355640E+03  0.00000000000E+00 0.  1.
          1    1    3    3  501    0  0.12837913769E+03  0.25684401749E+03 -0.18639712633E+03  0.34233600602E+03  0.00000000000E+00 0.  1.
         21    1    1    2  502  501  0.50962287417E-04  0.21054400629E-03  0.18792870068E-02  0.18917308443E-02  0.00000000000E+00 0.  1.
<mgrwt>
<rscale>  1 0.65112078E+03</rscale>
<asrwt>0</asrwt>
<pdfrwt beam="1">  1        1 0.38542428E+00 0.65112078E+03</pdfrwt>
<pdfrwt beam="2">0</pdfrwt>
<totfact> 0.15525495E+00</totfact>
</mgrwt>
</event>
<event>
 6    1  0.2234319E-003  0.6476116E+03  0.7818608E-02  0.9811271E-01
          1   -1    0    0  502    0  0.00000000000E+00  0.00000000000E+00  0.10485024483E+03  0.10485024483E+03  0.00000000000E+00 0.  1.
         13   -1    0    0    0    0 -0.00000000000E+00 -0.00000000000E+00 -0.10000000000E+04  0.10000000000E+04  0.00000000000E+00 0.  1.
    9000005    2    1    2  501    0 -0.16037316470E-03  0.21736805081E-04 -0.89514966475E+03  0.11048500594E+04  0.64761155917E+03 0.  0.
         13    1    3    3    0    0 -0.78804082806E+01 -0.30565234969E+03 -0.62944775773E+03  0.69977849311E+03  0.00000000000E+00 0.  1.
          3    1    3    3  501    0  0.78802479075E+01  0.30565237143E+03 -0.26570190702E+03  0.40507156634E+03  0.00000000000E+00 0.  1.
         21    1    1    2  502  501  0.16037316470E-03 -0.21736805093E-04 -0.90421033319E-04  0.18538609419E-03  0.00000000000E+00 0.  1.
<mgrwt>
<rscale>  1 0.64761156E+03</rscale>
<asrwt>0</asrwt>
<pdfrwt beam="1">  1        1 0.38127442E+00 0.64761156E+03</pdfrwt>
<pdfrwt beam="2">0</pdfrwt>
<totfact> 0.16205673E+00</totfact>
</mgrwt>
</event>
<event>
 6    1  0.2234319E-003  0.6511066E+03  0.7818608E-02  0.9804705E-01
          1   -1    0    0  502    0  0.00000000000E+00  0.00000000000E+00  0.10600643959E+03  0.10600643959E+03  0.00000000000E+00 0.  1.
         13   -1    0    0    0    0 -0.00000000000E+00 -0.00000000000E+00 -0.10000000000E+04  0.10000000000E+04  0.00000000000E+00 0.  1.
    9000005    2    1    2  501    0 -0.89733846201E-03 -0.22326040676E-03 -0.89401503810E+03  0.11059849420E+04  0.65110659924E+03 0.  0.
         13    1    3    3    0    0  0.16497442748E+03 -0.27553454170E+03 -0.35634126725E+03  0.47970297491E+03  0.00000000000E+00 0.  1.
          3    1    3    3  501    0 -0.16497532482E+03  0.27553431844E+03 -0.53767377085E+03  0.62628196709E+03  0.00000000000E+00 0.  1.
         21    1    1    2  502  501  0.89733846200E-03  0.22326040681E-03  0.21477687239E-01  0.21497583833E-01  0.00000000000E+00 0. -1.
<mgrwt>
<rscale>  1 0.65110660E+03</rscale>
<asrwt>0</asrwt>
<pdfrwt beam="1">  1        1 0.38547877E+00 0.65110660E+03</pdfrwt>
<pdfrwt beam="2">0</pdfrwt>
<totfact> 0.15516919E+00</totfact>
</mgrwt>
</event>
<event>
 6    1  0.2234319E-003  0.6426237E+03  0.7818608E-02  0.9820720E-01
          1   -1    0    0  502    0  0.00000000000E+00  0.00000000000E+00  0.10324132914E+03  0.10324132914E+03  0.00000000000E+00 0.  1.
         13   -1    0    0    0    0 -0.00000000000E+00 -0.00000000000E+00 -0.10000000000E+04  0.10000000000E+04  0.00000000000E+00 0.  1.
    9000005    2    1    2  501    0  0.15500122288E-05 -0.58526125812E-05 -0.89675868863E+03  0.11032413104E+04  0.64262371825E+03 0.  0.
         13    1    3    3    0    0  0.20747531285E+03  0.34521578296E+02 -0.31363174666E+02  0.21265322367E+03  0.00000000000E+00 0.  1.
          3    1    3    3  501    0 -0.20747531130E+03 -0.34521584149E+02 -0.86539551397E+03  0.89058808670E+03  0.00000000000E+00 0.  1.
         21    1    1    2  502  501 -0.15500122259E-05  0.58526125760E-05  0.17776023327E-04  0.18778781035E-04  0.00000000000E+00 0. -1.
<mgrwt>
<rscale>  1 0.64262372E+03</rscale>
<asrwt>0</asrwt>
<pdfrwt beam="1">  1        1 0.37542381E+00 0.64262372E+03</pdfrwt>
<pdfrwt beam="2">0</pdfrwt>
<totfact> 0.17213078E+00</totfact>
</mgrwt>
</event>
<event>
 6    1  0.2234319E-003  0.6498063E+03  0.7818608E-02  0.9807143E-01
          1   -1    0    0  502    0  0.00000000000E+00  0.00000000000E+00  0.10556757559E+03  0.10556757559E+03  0.00000000000E+00 0.  1.
         13   -1    0    0    0    0 -0.00000000000E+00 -0.00000000000E+00 -0.10000000000E+04  0.10000000000E+04  0.00000000000E+00 0.  1.
    9000005    2    1    2  501    0  0.96158311040E-03 -0.46413671357E-03 -0.89443788471E+03  0.11055620119E+04  0.64980630382E+03 0.  0.
         13    1    3    3    0    0  0.12325283253E+03 -0.39351709733E+02  0.59841971892E+02  0.14255132193E+03  0.00000000000E+00 0.  1.
          1    1    3    3  501    0 -0.12325187094E+03  0.39351245596E+02 -0.95427985660E+03  0.96301068994E+03  0.00000000000E+00 0.  1.
         21    1    1    2  502  501 -0.96158311040E-03  0.46413671357E-03  0.54602989882E-02  0.55637154859E-02  0.00000000000E+00 0.  1.
<mgrwt>
<rscale>  1 0.64980630E+03</rscale>
<asrwt>0</asrwt>
<pdfrwt beam="1">  1        1 0.38388290E+00 0.64980630E+03</pdfrwt>
<pdfrwt beam="2">0</pdfrwt>
<totfact> 0.15774934E+00</totfact>
</mgrwt>
</event>
<event>
 6    1  0.2234319E-003  0.6223019E+03  0.7818608E-02  0.9860187E-01
          1   -1    0    0  502    0  0.00000000000E+00  0.00000000000E+00  0.97590407001E+02  0.97590407001E+02  0.00000000000E+00 0.  1.
         13   -1    0    0    0    0 -0.00000000000E+00 -0.00000000000E+00 -0.10000000000E+04  0.10000000000E+04  0.00000000000E+00 0.  1.
    9000005    2    1    2  501    0  0.50135399987E-01 -0.28679494881E+00 -0.90315501888E+03  0.10967901416E+04  0.62230180933E+03 0.  0.
         13    1    3    3    0    0 -0.29897328450E+03  0.85457213790E+02 -0.46796326031E+03  0.56185191398E+03  0.00000000000E+00 0.  1.
          1    1    3    3  501    0  0.29902341990E+03 -0.85744008739E+02 -0.43519175857E+03  0.53493822766E+03  0.00000000000E+00 0.  1.
         21    1    1    2  502  501 -0.50135399987E-01  0.28679494881E+00  0.74542588531E+00  0.80026536317E+00  0.00000000000E+00 0.  1.
<mgrwt>
<rscale>  1 0.62230188E+03</rscale>
<asrwt>0</asrwt>
<pdfrwt beam="1">  1        1 0.35487496E+00 0.62230188E+03</pdfrwt>
<pdfrwt beam="2">0</pdfrwt>
<totfact> 0.21258068E+00</totfact>
</mgrwt>
</event>
<event>
 6    1  0.2234319E-003  0.6462053E+03  0.7818608E-02  0.9813926E-01
          1   -1    0    0  502    0  0.00000000000E+00  0.00000000000E+00  0.10440041437E+03  0.10440041437E+03  0.00000000000E+00 0.  1.
         13   -1    0    0    0    0 -0.00000000000E+00 -0.00000000000E+00 -0.10000000000E+04  0.10000000000E+04  0.00000000000E+00 0.  1.
    9000005    2    1    2  501    0  0.61005538583E-04  0.41397261307E-03 -0.89560466347E+03  0.11043953193E+04  0.64620531419E+03 0.  0.
         13    1    3    3    0    0 -0.78441061145E+02 -0.25465878050E+03 -0.13550385302E+03  0.29894044347E+03  0.00000000000E+00 0.  1.
          3    1    3    3  501    0  0.78441122151E+02  0.25465919447E+03 -0.76010081045E+03  0.80545487585E+03  0.00000000000E+00 0.  1.
         21    1    1    2  502  501 -0.61005538587E-04 -0.41397261309E-03  0.50778398439E-02  0.50950517642E-02  0.00000000000E+00 0. -1.
<mgrwt>
<rscale>  1 0.64620531E+03</rscale>
<asrwt>0</asrwt>
<pdfrwt beam="1">  1        1 0.37963867E+00 0.64620531E+03</pdfrwt>
<pdfrwt beam="2">0</pdfrwt>
<totfact> 0.16481559E+00</totfact>
</mgrwt>
</event>
<event>
 6    1  0.2234319E-003  0.6065268E+03  0.7818608E-02  0.9891957E-01
          1   -1    0    0  502    0  0.00000000000E+00  0.00000000000E+00  0.91972663157E+02  0.91972663157E+02  0.00000000000E+00 0.  1.
         13   -1    0    0    0    0 -0.00000000000E+00 -0.00000000000E+00 -0.10000000000E+04  0.10000000000E+04  0.00000000000E+00 0.  1.
    9000005    2    1    2  501    0 -0.12429218333E-03 -0.15723455275E-02 -0.90803114422E+03  0.10919685420E+04  0.60652678249E+03 0.  0.
         13    1    3    3    0    0 -0.15338548106E+03  0.26111220063E+03 -0.48313410319E+03  0.57019755242E+03  0.00000000000E+00 0.  1.
          3    1    3    3  501    0  0.15338535677E+03 -0.26111377298E+03 -0.42489704103E+03  0.52177098960E+03  0.00000000000E+00 0.  1.
         21    1    1    2  502  501  0.12429218333E-03  0.15723455275E-02  0.38073731011E-02  0.41211417029E-02  0.00000000000E+00 0.  1.
<mgrwt>
<rscale>  1 0.60652678E+03</rscale>
<asrwt>0</asrwt>
<pdfrwt beam="1">  1        1 0.33444675E+00 0.60652678E+03</pdfrwt>
<pdfrwt beam="2">0</pdfrwt>
<totfact> 0.26157977E+00</totfact>
</mgrwt>
</event>
<event>
 6    1  0.2234319E-003  0.6435171E+03  0.7818608E-02  0.9819021E-01
          1   -1    0    0  502    0  0.00000000000E+00  0.00000000000E+00  0.10381202944E+03  0.10381202944E+03  0.00000000000E+00 0.  1.
         13   -1    0    0    0    0 -0.00000000000E+00 -0.00000000000E+00 -0.10000000000E+04  0.10000000000E+04  0.00000000000E+00 0.  1.
    9000005    2    1    2  501    0 -0.14425072909E-01 -0.73966743124E-01 -0.89646590637E+03  0.11035240581E+04  0.64351707041E+03 0.  0.
         13    1    3    3    0    0  0.11972329069E+03 -0.13118152310E+03  0.11869352572E+02  0.17799758388E+03  0.00000000000E+00 0.  1.
          1    1    3    3  501    0 -0.11973771576E+03  0.13110755636E+03 -0.90833525894E+03  0.92552647425E+03  0.00000000000E+00 0.  1.
         21    1    1    2  502  501  0.14425072909E-01  0.73966743124E-01  0.27793581044E+00  0.28797131201E+00  0.00000000000E+00 0. -1.
<mgrwt>
<rscale>  1 0.64351707E+03</rscale>
<asrwt>0</asrwt>
<pdfrwt beam="1">  1        1 0.37749908E+00 0.64351707E+03</pdfrwt>
<pdfrwt beam="2">0</pdfrwt>
<totfact> 0.16851804E+00</totfact>
</mgrwt>
</event>
<event>
 6    1  0.2234319E-003  0.6295360E+03  0.7818608E-02  0.9845955E-01
          1   -1    0    0  502    0  0.00000000000E+00  0.00000000000E+00  0.99137000425E+02  0.99137000425E+02  0.00000000000E+00 0.  1.
         13   -1    0    0    0    0 -0.00000000000E+00 -0.00000000000E+00 -0.10000000000E+04  0.10000000000E+04  0.00000000000E+00 0.  1.
    9000005    2    1    2  501    0 -0.24454855412E-02  0.14708717965E-02 -0.90092106024E+03  0.10990788697E+04  0.62953602357E+03 0.  0.
         13    1    3    3    0    0 -0.11513936484E+01  0.30991723046E+03 -0.54655254809E+03  0.62830701354E+03  0.00000000000E+00 0.  1.
          3    1    3    3  501    0  0.11489481628E+01 -0.30991575959E+03 -0.35436851215E+03  0.47077185613E+03  0.00000000000E+00 0.  1.
         21    1    1    2  502  501  0.24454855412E-02 -0.14708717965E-02  0.58060663387E-01  0.58130753447E-01  0.00000000000E+00 0.  1.
<mgrwt>
<rscale>  1 0.62953602E+03</rscale>
<asrwt>0</asrwt>
<pdfrwt beam="1">  1        1 0.36049894E+00 0.62953602E+03</pdfrwt>
<pdfrwt beam="2">0</pdfrwt>
<totfact> 0.20062440E+00</totfact>
</mgrwt>
</event>
<event>
 6    1  0.2234319E-003  0.6402404E+03  0.7818608E-02  0.9825267E-01
          1   -1    0    0  502    0  0.00000000000E+00  0.00000000000E+00  0.10248119981E+03  0.10248119981E+03  0.00000000000E+00 0.  1.
         13   -1    0    0    0    0 -0.00000000000E+00 -0.00000000000E+00 -0.10000000000E+04  0.10000000000E+04  0.00000000000E+00 0.  1.
    9000005    2    1    2  501    0  0.82491673854E-04  0.13173967523E-03 -0.89752304369E+03  0.11024769535E+04  0.64024043841E+03 0.  0.
         13    1    3    3    0    0 -0.17938037378E+02 -0.27714989858E+03 -0.72289113962E+03  0.77440650773E+03  0.00000000000E+00 0.  1.
          1    1    3    3  501    0  0.17938119870E+02  0.27715003032E+03 -0.17463190406E+03  0.32807044574E+03  0.00000000000E+00 0.  1.
         21    1    1    2  502  501 -0.82491673855E-04 -0.13173967525E-03  0.42434931267E-02  0.42463389096E-02  0.00000000000E+00 0. -1.
<mgrwt>
<rscale>  1 0.64024044E+03</rscale>
<asrwt>0</asrwt>
<pdfrwt beam="1">  1        1 0.37265969E+00 0.64024044E+03</pdfrwt>
<pdfrwt beam="2">0</pdfrwt>
<totfact> 0.17709631E+00</totfact>
</mgrwt>
</event>
<event>
 6    1  0.2234319E-003  0.6537596E+03  0.7818608E-02  0.9799750E-01
          1   -1    0    0  502    0  0.00000000000E+00  0.00000000000E+00  0.10733255852E+03  0.10733255852E+03  0.00000000000E+00 0.  1.
         13   -1    0    0    0    0 -0.00000000000E+00 -0.00000000000E+00 -0.10000000000E+04  0.10000000000E+04  0.00000000000E+00 0.  1.
    9000005    2    1    2  501    0  0.84506993542E-01 -0.70684604510E-01 -0.89314261903E+03  0.11068447763E+04  0.65375959561E+03 0.  0.
         13    1    3    3    0    0  0.26294378817E+03 -0.17624039960E+03 -0.58506994384E+03  0.66521196123E+03  0.00000000000E+00 0.  1.
          3    1    3    3  501    0 -0.26285928118E+03  0.17616971499E+03 -0.30807267520E+03  0.44163281511E+03  0.00000000000E+00 0.  1.
         21    1    1    2  502  501 -0.84506993542E-01  0.70684604510E-01  0.47517754902E+00  0.48778217307E+00  0.00000000000E+00 0. -1.
<mgrwt>
<rscale>  1 0.65375960E+03</rscale>
<asrwt>0</asrwt>
<pdfrwt beam="1">  1        1 0.39030104E+00 0.65375960E+03</pdfrwt>
<pdfrwt beam="2">0</pdfrwt>
<totfact> 0.14764901E+00</totfact>
</mgrwt>
</event>
<event>
 6    1  0.2234319E-003  0.6434952E+03  0.7818608E-02  0.9819062E-01
          1   -1    0    0  502    0  0.00000000000E+00  0.00000000000E+00  0.10381290385E+03  0.10381290385E+03  0.00000000000E+00 0.  1.
         13   -1    0    0    0    0 -0.00000000000E+00 -0.00000000000E+00 -0.10000000000E+04  0.10000000000E+04  0.00000000000E+00 0.  1.
    9000005    2    1    2  501    0 -0.53642157627E-02  0.54134961403E-02 -0.89647842520E+03  0.11035214751E+04  0.64349520524E+03 0.  0.
         13    1    3    3    0    0  0.26888357388E+03 -0.52299824677E+02 -0.15879962568E+03  0.31662433432E+03  0.00000000000E+00 0.  1.
          3    1    3    3  501    0 -0.26888893810E+03  0.52305238173E+02 -0.73767879952E+03  0.78689714082E+03  0.00000000000E+00 0.  1.
         21    1    1    2  502  501  0.53642157626E-02 -0.54134961403E-02  0.29132905396E+00  0.29142871930E+00  0.00000000000E+00 0.  1.
<mgrwt>
<rscale>  1 0.64349521E+03</rscale>
<asrwt>0</asrwt>
<pdfrwt beam="1">  1        1 0.37750226E+00 0.64349521E+03</pdfrwt>
<pdfrwt beam="2">0</pdfrwt>
<totfact> 0.16851328E+00</totfact>
</mgrwt>
</event>
<event>
 6    1  0.2234319E-003  0.6269385E+03  0.7818608E-02  0.9851041E-01
          1   -1    0    0  502    0  0.00000000000E+00  0.00000000000E+00  0.98265443855E+02  0.98265443855E+02  0.00000000000E+00 0.  1.
         13   -1    0    0    0    0 -0.00000000000E+00 -0.00000000000E+00 -0.10000000000E+04  0.10000000000E+04  0.00000000000E+00 0.  1.
    9000005    2    1    2  501    0 -0.39775770877E-02  0.28971380375E-02 -0.90173399051E+03  0.10982604906E+04  0.62693852617E+03 0.  0.
         13    1    3    3    0    0  0.15678244876E+03 -0.23734695083E+03 -0.22013771357E+03  0.35968725894E+03  0.00000000000E+00 0.  1.
          1    1    3    3  501    0 -0.15678642634E+03  0.23734984797E+03 -0.68159627695E+03  0.73857323169E+03  0.00000000000E+00 0.  1.
         21    1    1    2  502  501  0.39775770877E-02 -0.28971380375E-02 -0.56563056899E-03  0.49532278605E-02  0.00000000000E+00 0. -1.
<mgrwt>
<rscale>  1 0.62693853E+03</rscale>
<asrwt>0</asrwt>
<pdfrwt beam="1">  1        1 0.35732964E+00 0.62693853E+03</pdfrwt>
<pdfrwt beam="2">0</pdfrwt>
<totfact> 0.20722492E+00</totfact>
</mgrwt>
</event>
<event>
 6    1  0.2234319E-003  0.6521778E+03  0.7818608E-02  0.9802701E-01
          1   -1    0    0  502    0  0.00000000000E+00  0.00000000000E+00  0.10644632189E+03  0.10644632189E+03  0.00000000000E+00 0.  1.
         13   -1    0    0    0    0 -0.00000000000E+00 -0.00000000000E+00 -0.10000000000E+04  0.10000000000E+04  0.00000000000E+00 0.  1.
    9000005    2    1    2  501    0  0.33068888864E-02 -0.42644032497E-02 -0.89366595869E+03  0.11063339117E+04  0.65217779666E+03 0.  0.
         13    1    3    3    0    0  0.32600382545E+03  0.72582455716E+01 -0.44351082510E+03  0.55048435792E+03  0.00000000000E+00 0.  1.
          1    1    3    3  501    0 -0.32600051856E+03 -0.72625099748E+01 -0.45015513358E+03  0.55584955379E+03  0.00000000000E+00 0.  1.
         21    1    1    2  502  501 -0.33068888863E-02  0.42644032497E-02  0.11228058181E+00  0.11241018505E+00  0.00000000000E+00 0. -1.
<mgrwt>
<rscale>  1 0.65217780E+03</rscale>
<asrwt>0</asrwt>
<pdfrwt beam="1">  1        1 0.38707835E+00 0.65217780E+03</pdfrwt>
<pdfrwt beam="2">0</pdfrwt>
<totfact> 0.15262988E+00</totfact>
</mgrwt>
</event>
<event>
 6    1  0.2234319E-003  0.6417701E+03  0.7818608E-02  0.9822346E-01
          1   -1    0    0  502    0  0.00000000000E+00  0.00000000000E+00  0.10700512796E+03  0.10700512796E+03  0.00000000000E+00 0.  1.
         13   -1    0    0    0    0 -0.00000000000E+00 -0.00000000000E+00 -0.10000000000E+04  0.10000000000E+04  0.00000000000E+00 0.  1.
    9000005    2    1    2  501    0 -0.10955374796E+00 -0.96566721016E-01 -0.89703132373E+03  0.11029660353E+04  0.64177009743E+03 0.  0.
         13    1    3    3    0    0 -0.26708598534E+02  0.31126128459E+03 -0.57408298604E+03  0.65358106718E+03  0.00000000000E+00 0.  1.
          1    1    3    3  501    0  0.26599044786E+02 -0.31135785131E+03 -0.32294833770E+03  0.44938496813E+03  0.00000000000E+00 0.  1.
         21    1    1    2  502  501  0.10955374796E+00  0.96566721016E-01  0.40364516947E+01  0.40390926505E+01  0.00000000000E+00 0. -1.
<mgrwt>
<rscale>  1 0.64177011E+03</rscale>
<asrwt>0</asrwt>
<pdfrwt beam="1">  1        1 0.38911038E+00 0.64177011E+03</pdfrwt>
<pdfrwt beam="2">0</pdfrwt>
<totfact> 0.14978998E+00</totfact>
</mgrwt>
</event>
<event>
 6    1  0.2234319E-003  0.6457849E+03  0.7818608E-02  0.9814721E-01
          1   -1    0    0  502    0  0.00000000000E+00  0.00000000000E+00  0.10570880410E+03  0.10570880410E+03  0.00000000000E+00 0.  1.
         13   -1    0    0    0    0 -0.00000000000E+00 -0.00000000000E+00 -0.10000000000E+04  0.10000000000E+04  0.00000000000E+00 0.  1.
    9000005    2    1    2  501    0 -0.90677753842E-02 -0.31338323272E+01 -0.89355871752E+03  0.11024904952E+04  0.64577727544E+03 0.  0.
         13    1    3    3    0    0  0.23533906169E+03  0.61740070292E+01 -0.82389859700E+03  0.85687308889E+03  0.00000000000E+00 0.  1.
          3    1    3    3  501    0 -0.23534812947E+03 -0.93078393563E+01 -0.69660120518E+02  0.24561740636E+03  0.00000000000E+00 0.  1.
         21    1    1    2  502  501  0.90677753842E-02  0.31338323272E+01 -0.73247838239E+00  0.32183088509E+01  0.00000000000E+00 0.  1.
<mgrwt>
<rscale>  1 0.64578488E+03</rscale>
<asrwt>0</asrwt>
<pdfrwt beam="1">  1        1 0.38439646E+00 0.64578488E+03</pdfrwt>
<pdfrwt beam="2">0</pdfrwt>
<totfact> 0.15704357E+00</totfact>
</mgrwt>
</event>
<event>
 6    1  0.2234319E-003  0.6891491E+03  0.7818608E-02  0.9735971E-01
          1   -1    0    0  502    0  0.00000000000E+00  0.00000000000E+00  0.11874496903E+03  0.11874496903E+03  0.00000000000E+00 0.  1.
         13   -1    0    0    0    0 -0.00000000000E+00 -0.00000000000E+00 -0.10000000000E+04  0.10000000000E+04  0.00000000000E+00 0.  1.
    9000005    2    1    2  501    0  0.33256600935E-02 -0.29181543033E-02 -0.88126798070E+03  0.11187312843E+04  0.68914906420E+03 0.  0.
         13    1    3    3    0    0  0.28192238983E+03  0.66088920665E+02 -0.74383458994E+03  0.79820916840E+03  0.00000000000E+00 0.  1.
          1    1    3    3  501    0 -0.28191906417E+03 -0.66091838819E+02 -0.13743339076E+03  0.32052211592E+03  0.00000000000E+00 0.  1.
         21    1    1    2  502  501 -0.33256600935E-02  0.29181543033E-02  0.12949731084E-01  0.13684705870E-01  0.00000000000E+00 0.  1.
<mgrwt>
<rscale>  1 0.68914906E+03</rscale>
<asrwt>0</asrwt>
<pdfrwt beam="1">  1        1 0.43180080E+00 0.68914906E+03</pdfrwt>
<pdfrwt beam="2">0</pdfrwt>
<totfact> 0.95495668E-01</totfact>
</mgrwt>
</event>
<event>
 6    1  0.2234319E-003  0.6546038E+03  0.7818608E-02  0.9798179E-01
          1   -1    0    0  502    0  0.00000000000E+00  0.00000000000E+00  0.10712662188E+03  0.10712662188E+03  0.00000000000E+00 0.  1.
         13   -1    0    0    0    0 -0.00000000000E+00 -0.00000000000E+00 -0.10000000000E+04  0.10000000000E+04  0.00000000000E+00 0.  1.
    9000005    2    1    2  501    0 -0.59795798109E-04  0.53422739429E-04 -0.89287343119E+03  0.11071265257E+04  0.65460383426E+03 0.  0.
         13    1    3    3    0    0 -0.32312158594E+03 -0.27611302737E+01 -0.53450391420E+03  0.62458755786E+03  0.00000000000E+00 0.  1.
          1    1    3    3  501    0  0.32312152615E+03  0.27611836965E+01 -0.35836951700E+03  0.48253896786E+03  0.00000000000E+00 0.  1.
         21    1    1    2  502  501  0.59795798113E-04 -0.53422739429E-04  0.53076281431E-04  0.96159337615E-04  0.00000000000E+00 0.  1.
<mgrwt>
<rscale>  1 0.65460383E+03</rscale>
<asrwt>0</asrwt>
<pdfrwt beam="1">  1        1 0.38955217E+00 0.65460383E+03</pdfrwt>
<pdfrwt beam="2">0</pdfrwt>
<totfact> 0.14875903E+00</totfact>
</mgrwt>
</event>
<event>
 6    1  0.2234319E-003  0.6400587E+03  0.7818608E-02  0.9825614E-01
          1   -1    0    0  502    0  0.00000000000E+00  0.00000000000E+00  0.10262686813E+03  0.10262686813E+03  0.00000000000E+00 0.  1.
         13   -1    0    0    0    0 -0.00000000000E+00 -0.00000000000E+00 -0.10000000000E+04  0.10000000000E+04  0.00000000000E+00 0.  1.
    9000005    2    1    2  501    0  0.54289502135E+00  0.61700079669E-01 -0.89706828228E+03  0.11020011884E+04  0.64005844852E+03 0.  0.
         13    1    3    3    0    0  0.28270911637E+02 -0.29521549001E+03 -0.65559481647E+03  0.71955263419E+03  0.00000000000E+00 0.  1.
          3    1    3    3  501    0 -0.27728016616E+02  0.29527719009E+03 -0.24147346581E+03  0.38244855416E+03  0.00000000000E+00 0.  1.
         21    1    1    2  502  501 -0.54289502135E+00 -0.61700079669E-01 -0.30484959839E+00  0.62567977566E+00  0.00000000000E+00 0. -1.
<mgrwt>
<rscale>  1 0.64005868E+03</rscale>
<asrwt>0</asrwt>
<pdfrwt beam="1">  1        1 0.37318940E+00 0.64005868E+03</pdfrwt>
<pdfrwt beam="2">0</pdfrwt>
<totfact> 0.17615482E+00</totfact>
</mgrwt>
</event>
<event>
 6    1  0.2234319E-003  0.6519277E+03  0.7818608E-02  0.9803169E-01
          1   -1    0    0  502    0  0.00000000000E+00  0.00000000000E+00  0.10630159856E+03  0.10630159856E+03  0.00000000000E+00 0.  1.
         13   -1    0    0    0    0 -0.00000000000E+00 -0.00000000000E+00 -0.10000000000E+04  0.10000000000E+04  0.00000000000E+00 0.  1.
    9000005    2    1    2  501    0 -0.20450187100E-02  0.32505459845E-02 -0.89374750139E+03  0.11062523487E+04  0.65192765140E+03 0.  0.
         13    1    3    3    0    0  0.15528991455E+03  0.28659658182E+03 -0.44804012406E+03  0.55406904898E+03  0.00000000000E+00 0.  1.
          1    1    3    3  501    0 -0.15529195957E+03 -0.28659333127E+03 -0.44570737733E+03  0.55218329968E+03  0.00000000000E+00 0.  1.
         21    1    1    2  502  501  0.20450187100E-02 -0.32505459845E-02  0.49099948944E-01  0.49249904944E-01  0.00000000000E+00 0. -1.
<mgrwt>
<rscale>  1 0.65192765E+03</rscale>
<asrwt>0</asrwt>
<pdfrwt beam="1">  1        1 0.38655208E+00 0.65192765E+03</pdfrwt>
<pdfrwt beam="2">0</pdfrwt>
<totfact> 0.15345803E+00</totfact>
</mgrwt>
</event>
<event>
 6    1  0.2234319E-003  0.6441459E+03  0.7818608E-02  0.9817826E-01
          1   -1    0    0  502    0  0.00000000000E+00  0.00000000000E+00  0.10373102173E+03  0.10373102173E+03  0.00000000000E+00 0.  1.
         13   -1    0    0    0    0 -0.00000000000E+00 -0.00000000000E+00 -0.10000000000E+04  0.10000000000E+04  0.00000000000E+00 0.  1.
    9000005    2    1    2  501    0 -0.32357982604E-05 -0.54846830722E-06 -0.89626902683E+03  0.11037309731E+04  0.64414586269E+03 0.  0.
         13    1    3    3    0    0  0.21917982877E+03  0.17736024543E+03 -0.71487946048E+03  0.76847192338E+03  0.00000000000E+00 0.  1.
          1    1    3    3  501    0 -0.21917983200E+03 -0.17736024598E+03 -0.18138956635E+03  0.33525904968E+03  0.00000000000E+00 0.  1.
         21    1    1    2  502  501  0.32357982799E-05  0.54846832322E-06  0.48568145934E-04  0.48678907214E-04  0.00000000000E+00 0. -1.
<mgrwt>
<rscale>  1 0.64414586E+03</rscale>
<asrwt>0</asrwt>
<pdfrwt beam="1">  1        1 0.37720451E+00 0.64414586E+03</pdfrwt>
<pdfrwt beam="2">0</pdfrwt>
<totfact> 0.16900299E+00</totfact>
</mgrwt>
</event>
<event>
 6    1  0.2234319E-003  0.6557445E+03  0.7818608E-02  0.9796059E-01
          1   -1    0    0  502    0  0.00000000000E+00  0.00000000000E+00  0.10894443923E+03  0.10894443923E+03  0.00000000000E+00 0.  1.
         13   -1    0    0    0    0 -0.00000000000E+00 -0.00000000000E+00 -0.10000000000E+04  0.10000000000E+04  0.00000000000E+00 0.  1.
    9000005    2    1    2  501    0  0.25644771405E+00 -0.79814303743E+00 -0.89236382167E+03  0.11073906232E+04  0.65574392813E+03 0.  0.
         13    1    3    3    0    0  0.15805581823E+03  0.20816950930E+03 -0.77967080363E+03  0.82231547979E+03  0.00000000000E+00 0.  1.
          3    1    3    3  501    0 -0.15779937052E+03 -0.20896765234E+03 -0.11269301804E+03  0.28507514338E+03  0.00000000000E+00 0.  1.
         21    1    1    2  502  501 -0.25644771405E+00  0.79814303743E+00  0.13082609024E+01  0.15538160532E+01  0.00000000000E+00 0.  1.
<mgrwt>
<rscale>  1 0.65574446E+03</rscale>
<asrwt>0</asrwt>
<pdfrwt beam="1">  1        1 0.39616243E+00 0.65574446E+03</pdfrwt>
<pdfrwt beam="2">0</pdfrwt>
<totfact> 0.13900576E+00</totfact>
</mgrwt>
</event>
<event>
 6    1  0.2234319E-003  0.6560037E+03  0.7818608E-02  0.9795578E-01
          1   -1    0    0  502    0  0.00000000000E+00  0.00000000000E+00  0.10762029697E+03  0.10762029697E+03  0.00000000000E+00 0.  1.
         13   -1    0    0    0    0 -0.00000000000E+00 -0.00000000000E+00 -0.10000000000E+04  0.10000000000E+04  0.00000000000E+00 0.  1.
    9000005    2    1    2  501    0  0.21294564107E-01  0.45235195993E-02 -0.89241099741E+03  0.11075821753E+04  0.65600372434E+03 0.  0.
         13    1    3    3    0    0 -0.31166230388E+03  0.99536164060E+02 -0.48536141603E+03  0.58533455714E+03  0.00000000000E+00 0.  1.
          3    1    3    3  501    0  0.31168359844E+03 -0.99531640540E+02 -0.40704958138E+03  0.52224761819E+03  0.00000000000E+00 0.  1.
         21    1    1    2  502  501 -0.21294564107E-01 -0.45235195993E-02  0.31294382763E-01  0.38121635361E-01  0.00000000000E+00 0.  1.
<mgrwt>
<rscale>  1 0.65600372E+03</rscale>
<asrwt>0</asrwt>
<pdfrwt beam="1">  1        1 0.39134736E+00 0.65600372E+03</pdfrwt>
<pdfrwt beam="2">0</pdfrwt>
<totfact> 0.14601833E+00</totfact>
</mgrwt>
</event>
<event>
 6    1  0.2234319E-003  0.6623860E+03  0.7818608E-02  0.9783811E-01
          1   -1    0    0  502    0  0.00000000000E+00  0.00000000000E+00  0.10968942175E+03  0.10968942175E+03  0.00000000000E+00 0.  1.
         13   -1    0    0    0    0 -0.00000000000E+00 -0.00000000000E+00 -0.10000000000E+04  0.10000000000E+04  0.00000000000E+00 0.  1.
    9000005    2    1    2  501    0  0.24010725951E-04 -0.15408749643E-04 -0.89031119974E+03  0.11096887996E+04  0.66238598987E+03 0.  0.
         13    1    3    3    0    0  0.26696204181E+03  0.27473781375E+02 -0.77028825976E+03  0.81570064580E+03  0.00000000000E+00 0.  1.
          1    1    3    3  501    0 -0.26696201780E+03 -0.27473796783E+02 -0.12002293998E+03  0.29398815381E+03  0.00000000000E+00 0.  1.
         21    1    1    2  502  501 -0.24010725933E-04  0.15408749644E-04  0.62149226828E-03  0.62214675443E-03  0.00000000000E+00 0. -1.
<mgrwt>
<rscale>  1 0.66238599E+03</rscale>
<asrwt>0</asrwt>
<pdfrwt beam="1">  1        1 0.39887147E+00 0.66238599E+03</pdfrwt>
<pdfrwt beam="2">0</pdfrwt>
<totfact> 0.13503005E+00</totfact>
</mgrwt>
</event>
<event>
 6    1  0.2234319E-003  0.6357470E+03  0.7818608E-02  0.9833898E-01
          1   -1    0    0  502    0  0.00000000000E+00  0.00000000000E+00  0.10105330848E+03  0.10105330848E+03  0.00000000000E+00 0.  1.
         13   -1    0    0    0    0 -0.00000000000E+00 -0.00000000000E+00 -0.10000000000E+04  0.10000000000E+04  0.00000000000E+00 0.  1.
    9000005    2    1    2  501    0  0.20398161073E-02  0.43192321151E-02 -0.89895578133E+03  0.11010430400E+04  0.63574702451E+03 0.  0.
         13    1    3    3    0    0 -0.17597253219E+02 -0.28816006203E+03 -0.67986443486E+03  0.73862137423E+03  0.00000000000E+00 0.  1.
          1    1    3    3  501    0  0.17599293035E+02  0.28816438126E+03 -0.21909134647E+03  0.36242166580E+03  0.00000000000E+00 0.  1.
         21    1    1    2  502  501 -0.20398161073E-02 -0.43192321151E-02  0.90898139639E-02  0.10268463065E-01  0.00000000000E+00 0. -1.
<mgrwt>
<rscale>  1 0.63574702E+03</rscale>
<asrwt>0</asrwt>
<pdfrwt beam="1">  1        1 0.36746735E+00 0.63574702E+03</pdfrwt>
<pdfrwt beam="2">0</pdfrwt>
<totfact> 0.18679691E+00</totfact>
</mgrwt>
</event>
<event>
 6    1  0.2234319E-003  0.6205007E+03  0.7818608E-02  0.9863763E-01
          1   -1    0    0  502    0  0.00000000000E+00  0.00000000000E+00  0.96255347979E+02  0.96255347979E+02  0.00000000000E+00 0.  1.
         13   -1    0    0    0    0 -0.00000000000E+00 -0.00000000000E+00 -0.10000000000E+04  0.10000000000E+04  0.00000000000E+00 0.  1.
    9000005    2    1    2  501    0 -0.18500484098E-03  0.11761049706E-03 -0.90374419313E+03  0.10962548394E+04  0.62050069002E+03 0.  0.
         13    1    3    3    0    0  0.63485171021E+02 -0.29610009132E+03 -0.33270503996E+03  0.44988695762E+03  0.00000000000E+00 0.  1.
          1    1    3    3  501    0 -0.63485356025E+02  0.29610020893E+03 -0.57103915317E+03  0.64636788179E+03  0.00000000000E+00 0.  1.
         21    1    1    2  502  501  0.18500484099E-03 -0.11761049705E-03 -0.45889325046E-03  0.50856861437E-03  0.00000000000E+00 0.  1.
<mgrwt>
<rscale>  1 0.62050069E+03</rscale>
<asrwt>0</asrwt>
<pdfrwt beam="1">  1        1 0.35002019E+00 0.62050069E+03</pdfrwt>
<pdfrwt beam="2">0</pdfrwt>
<totfact> 0.22327269E+00</totfact>
</mgrwt>
</event>
<event>
 6    1  0.2234319E-003  0.6261252E+03  0.7818608E-02  0.9852639E-01
          1   -1    0    0  502    0  0.00000000000E+00  0.00000000000E+00  0.98013076610E+02  0.98013076610E+02  0.00000000000E+00 0.  1.
         13   -1    0    0    0    0 -0.00000000000E+00 -0.00000000000E+00 -0.10000000000E+04  0.10000000000E+04  0.00000000000E+00 0.  1.
    9000005    2    1    2  501    0  0.19841397399E-02  0.23145019096E-02 -0.90199128222E+03  0.10980077575E+04  0.62612519698E+03 0.  0.
         13    1    3    3    0    0  0.23011594454E+02 -0.31161796560E+03 -0.48482759326E+03  0.57679553150E+03  0.00000000000E+00 0.  1.
          3    1    3    3  501    0 -0.23009610314E+02  0.31162028010E+03 -0.41716368895E+03  0.52121222599E+03  0.00000000000E+00 0.  1.
         21    1    1    2  502  501 -0.19841397399E-02 -0.23145019096E-02  0.43588263586E-02  0.53191255692E-02  0.00000000000E+00 0. -1.
<mgrwt>
<rscale>  1 0.62612520E+03</rscale>
<asrwt>0</asrwt>
<pdfrwt beam="1">  1        1 0.35641194E+00 0.62612520E+03</pdfrwt>
<pdfrwt beam="2">0</pdfrwt>
<totfact> 0.20917718E+00</totfact>
</mgrwt>
</event>
<event>
 6    1  0.2234319E-003  0.6557038E+03  0.7818608E-02  0.9796135E-01
          1   -1    0    0  502    0  0.00000000000E+00  0.00000000000E+00  0.10749069416E+03  0.10749069416E+03  0.00000000000E+00 0.  1.
         13   -1    0    0    0    0 -0.00000000000E+00 -0.00000000000E+00 -0.10000000000E+04  0.10000000000E+04  0.00000000000E+00 0.  1.
    9000005    2    1    2  501    0  0.54451932414E-04 -0.51553862761E-05 -0.89251313776E+03  0.11074868618E+04  0.65570378075E+03 0.  0.
         13    1    3    3    0    0  0.11007324642E+03 -0.21048826361E+03 -0.64580949309E+02  0.24615468248E+03  0.00000000000E+00 0.  1.
          1    1    3    3  501    0 -0.11007319196E+03  0.21048825846E+03 -0.82793218845E+03  0.86133217937E+03  0.00000000000E+00 0.  1.
         21    1    1    2  502  501 -0.54451932407E-04  0.51553862748E-05  0.38319239047E-02  0.38323142359E-02  0.00000000000E+00 0.  1.
<mgrwt>
<rscale>  1 0.65570378E+03</rscale>
<asrwt>0</asrwt>
<pdfrwt beam="1">  1        1 0.39087608E+00 0.65570378E+03</pdfrwt>
<pdfrwt beam="2">0</pdfrwt>
<totfact> 0.14673133E+00</totfact>
</mgrwt>
</event>
<event>
 6    1  0.2859607E-003  0.6551112E+03  0.7818608E-02  0.9797235E-01
          1   -1    0    0  502    0  0.00000000000E+00  0.00000000000E+00  0.10729270446E+03  0.10729270446E+03  0.00000000000E+00 0.  1.
         13   -1    0    0    0    0 -0.00000000000E+00 -0.00000000000E+00 -0.10000000000E+04  0.10000000000E+04  0.00000000000E+00 0.  1.
    9000005    2    1    2  501    0 -0.59754718791E-05 -0.51916908163E-04 -0.89270722550E+03  0.11072926171E+04  0.65511124960E+03 0.  0.
         13    1    3    3    0    0 -0.60933055897E+02  0.82764459268E+02  0.79333949322E+02  0.12983323355E+03  0.00000000000E+00 0.  1.
          3    1    3    3  501    0  0.60933049922E+02 -0.82764511185E+02 -0.97204117482E+03  0.97745938352E+03  0.00000000000E+00 0.  1.
         21    1    1    2  502  501  0.59754718731E-05  0.51916908161E-04 -0.70042361849E-04  0.87389954059E-04  0.00000000000E+00 0.  1.
<mgrwt>
<rscale>  1 0.65511125E+03</rscale>
<asrwt>0</asrwt>
<pdfrwt beam="1">  1        1 0.39015611E+00 0.65511125E+03</pdfrwt>
<pdfrwt beam="2">0</pdfrwt>
<totfact> 0.14783061E+00</totfact>
</mgrwt>
</event>
<event>
 6    1  0.2234319E-003  0.6521509E+03  0.7818608E-02  0.9802751E-01
          1   -1    0    0  502    0  0.00000000000E+00  0.00000000000E+00  0.10632637968E+03  0.10632637968E+03  0.00000000000E+00 0.  1.
         13   -1    0    0    0    0 -0.00000000000E+00 -0.00000000000E+00 -0.10000000000E+04  0.10000000000E+04  0.00000000000E+00 0.  1.
    9000005    2    1    2  501    0  0.29705692600E-03  0.13814960255E-04 -0.89367476513E+03  0.11063251969E+04  0.65215094526E+03 0.  0.
         13    1    3    3    0    0 -0.17041340647E+03 -0.25890730959E+03 -0.61859924130E+03  0.69190949221E+03  0.00000000000E+00 0.  1.
          1    1    3    3  501    0  0.17041370353E+03  0.25890732341E+03 -0.27507552383E+03  0.41441570467E+03  0.00000000000E+00 0.  1.
         21    1    1    2  502  501 -0.29705692601E-03 -0.13814960299E-04  0.11448180318E-02  0.11828110569E-02  0.00000000000E+00 0. -1.
<mgrwt>
<rscale>  1 0.65215095E+03</rscale>
<asrwt>0</asrwt>
<pdfrwt beam="1">  1        1 0.38664220E+00 0.65215095E+03</pdfrwt>
<pdfrwt beam="2">0</pdfrwt>
<totfact> 0.15331081E+00</totfact>
</mgrwt>
</event>
<event>
 6    1  0.2234319E-003  0.6504523E+03  0.7818608E-02  0.9805931E-01
          1   -1    0    0  502    0  0.00000000000E+00  0.00000000000E+00  0.10590267776E+03  0.10590267776E+03  0.00000000000E+00 0.  1.
         13   -1    0    0    0    0 -0.00000000000E+00 -0.00000000000E+00 -0.10000000000E+04  0.10000000000E+04  0.00000000000E+00 0.  1.
    9000005    2    1    2  501    0 -0.14978125503E-01 -0.12948544099E-02 -0.89422745989E+03  0.11057716746E+04  0.65045233961E+03 0.  0.
         13    1    3    3    0    0  0.52377123837E+02 -0.44096238142E+02 -0.98760522555E+03  0.98997571832E+03  0.00000000000E+00 0.  1.
          1    1    3    3  501    0 -0.52392101963E+02  0.44094943288E+02  0.93377765664E+02  0.11579595628E+03  0.00000000000E+00 0.  1.
         21    1    1    2  502  501  0.14978125503E-01  0.12948544099E-02  0.13013764845E+00  0.13100316193E+00  0.00000000000E+00 0.  1.
<mgrwt>
<rscale>  1 0.65045234E+03</rscale>
<asrwt>0</asrwt>
<pdfrwt beam="1">  1        1 0.38510146E+00 0.65045234E+03</pdfrwt>
<pdfrwt beam="2">0</pdfrwt>
<totfact> 0.15578555E+00</totfact>
</mgrwt>
</event>
<event>
 6    1  0.2234319E-003  0.6502414E+03  0.7818608E-02  0.9806326E-01
          1   -1    0    0  502    0  0.00000000000E+00  0.00000000000E+00  0.10575507571E+03  0.10575507571E+03  0.00000000000E+00 0.  1.
         13   -1    0    0    0    0 -0.00000000000E+00 -0.00000000000E+00 -0.10000000000E+04  0.10000000000E+04  0.00000000000E+00 0.  1.
    9000005    2    1    2  501    0  0.11109602796E-02  0.16499252698E-03 -0.89429650960E+03  0.11057034782E+04  0.65024144329E+03 0.  0.
         13    1    3    3    0    0 -0.28772905454E+02  0.23833886116E+03 -0.74325880443E+02  0.25131181694E+03  0.00000000000E+00 0.  1.
          3    1    3    3  501    0  0.28774016414E+02 -0.23833869617E+03 -0.81997062916E+03  0.85439166124E+03  0.00000000000E+00 0.  1.
         21    1    1    2  502  501 -0.11109602796E-02 -0.16499252698E-03  0.51585311365E-01  0.51597536801E-01  0.00000000000E+00 0. -1.
<mgrwt>
<rscale>  1 0.65024144E+03</rscale>
<asrwt>0</asrwt>
<pdfrwt beam="1">  1        1 0.38456472E+00 0.65024144E+03</pdfrwt>
<pdfrwt beam="2">0</pdfrwt>
<totfact> 0.15664553E+00</totfact>
</mgrwt>
</event>
<event>
 6    1  0.2234319E-003  0.6514526E+03  0.7818608E-02  0.9804057E-01
          1   -1    0    0  502    0  0.00000000000E+00  0.00000000000E+00  0.10609843432E+03  0.10609843432E+03  0.00000000000E+00 0.  1.
         13   -1    0    0    0    0 -0.00000000000E+00 -0.00000000000E+00 -0.10000000000E+04  0.10000000000E+04  0.00000000000E+00 0.  1.
    9000005    2    1    2  501    0  0.90264506912E-03 -0.12129026256E-02 -0.89390147737E+03  0.11060969198E+04  0.65145264202E+03 0.  0.
         13    1    3    3    0    0  0.25356649721E+03 -0.18092893012E+03 -0.28527839621E+03  0.42239200941E+03  0.00000000000E+00 0.  1.
          1    1    3    3  501    0 -0.25356559457E+03  0.18092771722E+03 -0.60862308116E+03  0.68370491042E+03  0.00000000000E+00 0.  1.
         21    1    1    2  502  501 -0.90264506911E-03  0.12129026256E-02 -0.88304841474E-04  0.15144961687E-02  0.00000000000E+00 0.  1.
<mgrwt>
<rscale>  1 0.65145264E+03</rscale>
<asrwt>0</asrwt>
<pdfrwt beam="1">  1        1 0.38581330E+00 0.65145264E+03</pdfrwt>
<pdfrwt beam="2">0</pdfrwt>
<totfact> 0.15463135E+00</totfact>
</mgrwt>
</event>
<event>
 6    1  0.2234319E-003  0.6291344E+03  0.7818608E-02  0.9846739E-01
          1   -1    0    0  502    0  0.00000000000E+00  0.00000000000E+00  0.99356872211E+02  0.99356872211E+02  0.00000000000E+00 0.  1.
         13   -1    0    0    0    0 -0.00000000000E+00 -0.00000000000E+00 -0.10000000000E+04  0.10000000000E+04  0.00000000000E+00 0.  1.
    9000005    2    1    2  501    0  0.43905275154E+00  0.38483075804E+00 -0.90080251168E+03  0.10987516737E+04  0.62913411489E+03 0.  0.
         13    1    3    3    0    0 -0.23728485416E+03  0.20304964667E+03 -0.38515787207E+03  0.49586273044E+03  0.00000000000E+00 0.  1.
          1    1    3    3  501    0  0.23772390691E+03 -0.20266481591E+03 -0.51564463961E+03  0.60288894324E+03  0.00000000000E+00 0.  1.
         21    1    1    2  502  501 -0.43905275154E+00 -0.38483075804E+00  0.15938388757E+00  0.60519852494E+00  0.00000000000E+00 0.  1.
<mgrwt>
<rscale>  1 0.62913439E+03</rscale>
<asrwt>0</asrwt>
<pdfrwt beam="1">  1        1 0.36129848E+00 0.62913439E+03</pdfrwt>
<pdfrwt beam="2">0</pdfrwt>
<totfact> 0.19902948E+00</totfact>
</mgrwt>
</event>
<event>
 6    1  0.2234319E-003  0.6501082E+03  0.7818608E-02  0.9806576E-01
          3   -1    0    0  502    0  0.00000000000E+00  0.00000000000E+00  0.10566045931E+03  0.10566045931E+03  0.00000000000E+00 0.  1.
         13   -1    0    0    0    0 -0.00000000000E+00 -0.00000000000E+00 -0.10000000000E+04  0.10000000000E+04  0.00000000000E+00 0.  1.
    9000005    2    1    2  501    0  0.11484558584E-04  0.39843594948E-05 -0.89433983023E+03  0.11056601695E+04  0.65010820524E+03 0.  0.
         13    1    3    3    0    0 -0.58888990130E+02  0.24848513701E+03 -0.10512645870E+03  0.27616000578E+03  0.00000000000E+00 0.  1.
          3    1    3    3  501    0  0.58889001614E+02 -0.24848513302E+03 -0.78921337153E+03  0.82950016374E+03  0.00000000000E+00 0.  1.
         21    1    1    2  502  501 -0.11484558582E-04 -0.39843594967E-05  0.28954083403E-03  0.28979590194E-03  0.00000000000E+00 0. -1.
<mgrwt>
<rscale>  1 0.65010821E+03</rscale>
<asrwt>0</asrwt>
<pdfrwt beam="1">  1        3 0.38422066E+00 0.65010821E+03</pdfrwt>
<pdfrwt beam="2">0</pdfrwt>
<totfact> 0.71703801E-02</totfact>
</mgrwt>
</event>
<event>
 6    1  0.2234319E-003  0.6190257E+03  0.7818608E-02  0.9866702E-01
          1   -1    0    0  502    0  0.00000000000E+00  0.00000000000E+00  0.95827512651E+02  0.95827512651E+02  0.00000000000E+00 0.  1.
         13   -1    0    0    0    0 -0.00000000000E+00 -0.00000000000E+00 -0.10000000000E+04  0.10000000000E+04  0.00000000000E+00 0.  1.
    9000005    2    1    2  501    0 -0.84329239964E-03 -0.43412271585E-02 -0.90420162632E+03  0.10957980400E+04  0.61902565651E+03 0.  0.
         13    1    3    3    0    0 -0.40926676288E+02 -0.30420041701E+03 -0.52261612359E+03  0.60608621431E+03  0.00000000000E+00 0.  1.
          1    1    3    3  501    0  0.40925832996E+02  0.30419607578E+03 -0.38158550273E+03  0.48971182569E+03  0.00000000000E+00 0.  1.
         21    1    1    2  502  501  0.84329239964E-03  0.43412271585E-02  0.29138971014E-01  0.29472648796E-01  0.00000000000E+00 0. -1.
<mgrwt>
<rscale>  1 0.61902566E+03</rscale>
<asrwt>0</asrwt>
<pdfrwt beam="1">  1        1 0.34846442E+00 0.61902566E+03</pdfrwt>
<pdfrwt beam="2">0</pdfrwt>
<totfact> 0.22684401E+00</totfact>
</mgrwt>
</event>
<event>
 6    1  0.2234319E-003  0.6079495E+03  0.7818608E-02  0.9889049E-01
          1   -1    0    0  502    0  0.00000000000E+00  0.00000000000E+00  0.92689239705E+02  0.92689239705E+02  0.00000000000E+00 0.  1.
         13   -1    0    0    0    0 -0.00000000000E+00 -0.00000000000E+00 -0.10000000000E+04  0.10000000000E+04  0.00000000000E+00 0.  1.
    9000005    2    1    2  501    0 -0.16162489448E+00  0.49843460394E+00 -0.90731599258E+03  0.10921652292E+04  0.60794926011E+03 0.  0.
         13    1    3    3    0    0  0.17266677300E+03 -0.12474857710E+03 -0.64242112337E+02  0.22249285603E+03  0.00000000000E+00 0.  1.
          1    1    3    3  501    0 -0.17282839790E+03  0.12524701170E+03 -0.84307388024E+03  0.86967237314E+03  0.00000000000E+00 0.  1.
         21    1    1    2  502  501  0.16162489448E+00 -0.49843460394E+00  0.52322832245E-02  0.52401053206E+00  0.00000000000E+00 0. -1.
<mgrwt>
<rscale>  1 0.60794949E+03</rscale>
<asrwt>0</asrwt>
<pdfrwt beam="1">  1        1 0.33705249E+00 0.60794949E+03</pdfrwt>
<pdfrwt beam="2">0</pdfrwt>
<totfact> 0.25479484E+00</totfact>
</mgrwt>
</event>
<event>
 6    1  0.2344977E-003  0.6558074E+03  0.7818608E-02  0.9795943E-01
          1   -1    0    0  502    0  0.00000000000E+00  0.00000000000E+00  0.10752089734E+03  0.10752089734E+03  0.00000000000E+00 0.  1.
         13   -1    0    0    0    0 -0.00000000000E+00 -0.00000000000E+00 -0.10000000000E+04  0.10000000000E+04  0.00000000000E+00 0.  1.
    9000005    2    1    2  501    0 -0.11197059509E-03 -0.98701638450E-04 -0.89247907496E+03  0.11075207455E+04  0.65580736695E+03 0.  0.
         13    1    3    3    0    0 -0.57667709249E+02 -0.24935424276E+03 -0.10006755656E+03  0.27480287288E+03  0.00000000000E+00 0.  1.
          3    1    3    3  501    0  0.57667597278E+02  0.24935414405E+03 -0.79241151840E+03  0.83271787264E+03  0.00000000000E+00 0.  1.
         21    1    1    2  502  501  0.11197059509E-03  0.98701638439E-04 -0.27704204771E-04  0.15181222137E-03  0.00000000000E+00 0.  1.
<mgrwt>
<rscale>  1 0.65580737E+03</rscale>
<asrwt>0</asrwt>
<pdfrwt beam="1">  1        1 0.39098591E+00 0.65580737E+03</pdfrwt>
<pdfrwt beam="2">0</pdfrwt>
<totfact> 0.14656396E+00</totfact>
</mgrwt>
</event>
<event>
 6    1  0.2234319E-003  0.6549004E+03  0.7818608E-02  0.9797627E-01
          1   -1    0    0  502    0  0.00000000000E+00  0.00000000000E+00  0.10777546177E+03  0.10777546177E+03  0.00000000000E+00 0.  1.
         13   -1    0    0    0    0 -0.00000000000E+00 -0.00000000000E+00 -0.10000000000E+04  0.10000000000E+04  0.00000000000E+00 0.  1.
    9000005    2    1    2  501    0  0.85204328826E-01 -0.53218805901E-01 -0.89277129728E+03  0.11072195504E+04  0.65490039961E+03 0.  0.
         13    1    3    3    0    0  0.23909346353E+03  0.19329973828E+03 -0.25585363433E+03  0.39998944401E+03  0.00000000000E+00 0.  1.
          3    1    3    3  501    0 -0.23900825920E+03 -0.19335295709E+03 -0.63691766295E+03  0.70723010637E+03  0.00000000000E+00 0.  1.
         21    1    1    2  502  501 -0.85204328826E-01  0.53218805901E-01  0.54675904511E+00  0.55591138895E+00  0.00000000000E+00 0.  1.
<mgrwt>
<rscale>  1 0.65490041E+03</rscale>
<asrwt>0</asrwt>
<pdfrwt beam="1">  1        1 0.39191160E+00 0.65490041E+03</pdfrwt>
<pdfrwt beam="2">0</pdfrwt>
<totfact> 0.14520850E+00</totfact>
</mgrwt>
</event>
<event>
 6    1  0.2234319E-003  0.6556692E+03  0.7818608E-02  0.9796199E-01
          1   -1    0    0  502    0  0.00000000000E+00  0.00000000000E+00  0.10747562177E+03  0.10747562177E+03  0.00000000000E+00 0.  1.
         13   -1    0    0    0    0 -0.00000000000E+00 -0.00000000000E+00 -0.10000000000E+04  0.10000000000E+04  0.00000000000E+00 0.  1.
    9000005    2    1    2  501    0 -0.39497839339E-04 -0.98023063060E-04 -0.89252442421E+03  0.11074755065E+04  0.65566923805E+03 0.  0.
         13    1    3    3    0    0  0.25466300354E+03  0.13870708051E+03 -0.18797914421E+03  0.34558509548E+03  0.00000000000E+00 0.  1.
          1    1    3    3  501    0 -0.25466304304E+03 -0.13870717854E+03 -0.70454528000E+03  0.76189041104E+03  0.00000000000E+00 0.  1.
         21    1    1    2  502  501  0.39497839363E-04  0.98023063053E-04  0.45978864022E-04  0.11525040625E-03  0.00000000000E+00 0.  1.
<mgrwt>
<rscale>  1 0.65566924E+03</rscale>
<asrwt>0</asrwt>
<pdfrwt beam="1">  1        1 0.39082127E+00 0.65566924E+03</pdfrwt>
<pdfrwt beam="2">0</pdfrwt>
<totfact> 0.14681445E+00</totfact>
</mgrwt>
</event>
<event>
 6    1  0.2234319E-003  0.4587997E+03  0.7818608E-02  0.1025130E+00
          1   -1    0    0  502    0  0.00000000000E+00  0.00000000000E+00  0.52624295913E+02  0.52624295913E+02  0.00000000000E+00 0.  1.
         13   -1    0    0    0    0 -0.00000000000E+00 -0.00000000000E+00 -0.10000000000E+04  0.10000000000E+04  0.00000000000E+00 0.  1.
    9000005    2    1    2  501    0 -0.18712657379E-06  0.42539148097E-05 -0.94737570962E+03  0.10526242889E+04  0.45879969317E+03 0.  0.
         13    1    3    3    0    0 -0.15413710529E+03 -0.87233820376E+02 -0.80818631928E+03  0.82736516322E+03  0.00000000000E+00 0.  1.
          3    1    3    3  501    0  0.15413710510E+03  0.87233824630E+02 -0.13918939035E+03  0.22525912571E+03  0.00000000000E+00 0.  1.
         21    1    1    2  502  501  0.18712657531E-06 -0.42539148004E-05  0.55377963722E-05  0.69855562516E-05  0.00000000000E+00 0.  1.
<mgrwt>
<rscale>  1 0.45879969E+03</rscale>
<asrwt>0</asrwt>
<pdfrwt beam="1">  1        1 0.19136148E+00 0.45879969E+03</pdfrwt>
<pdfrwt beam="2">0</pdfrwt>
<totfact> 0.11329062E+01</totfact>
</mgrwt>
</event>
<event>
 6    1  0.2234319E-003  0.6472247E+03  0.7818608E-02  0.9812001E-01
          1   -1    0    0  502    0  0.00000000000E+00  0.00000000000E+00  0.10472507809E+03  0.10472507809E+03  0.00000000000E+00 0.  1.
         13   -1    0    0    0    0 -0.00000000000E+00 -0.00000000000E+00 -0.10000000000E+04  0.10000000000E+04  0.00000000000E+00 0.  1.
    9000005    2    1    2  501    0  0.62446934749E-04 -0.27326085217E-06 -0.89527502080E+03  0.11047249611E+04  0.64722474989E+03 0.  0.
         13    1    3    3    0    0 -0.24868603565E+03  0.12769702462E+03 -0.16939406226E+03  0.32687248700E+03  0.00000000000E+00 0.  1.
          3    1    3    3  501    0  0.24868609809E+03 -0.12769702490E+03 -0.72588095854E+03  0.77785247414E+03  0.00000000000E+00 0.  1.
         21    1    1    2  502  501 -0.62446934761E-04  0.27326084678E-06  0.98896168435E-04  0.11696215825E-03  0.00000000000E+00 0. -1.
<mgrwt>
<rscale>  1 0.64722475E+03</rscale>
<asrwt>0</asrwt>
<pdfrwt beam="1">  1        1 0.38081927E+00 0.64722475E+03</pdfrwt>
<pdfrwt beam="2">0</pdfrwt>
<totfact> 0.16281981E+00</totfact>
</mgrwt>
</event>
<event>
 6    1  0.2234319E-003  0.6607057E+03  0.7818608E-02  0.9786896E-01
          1   -1    0    0  502    0  0.00000000000E+00  0.00000000000E+00  0.10959739182E+03  0.10959739182E+03  0.00000000000E+00 0.  1.
         13   -1    0    0    0    0 -0.00000000000E+00 -0.00000000000E+00 -0.10000000000E+04  0.10000000000E+04  0.00000000000E+00 0.  1.
    9000005    2    1    2  501    0 -0.39034428709E-02  0.65108540077E-02 -0.89086696232E+03  0.11091329756E+04  0.66070569321E+03 0.  0.
         13    1    3    3    0    0 -0.30360625187E+03 -0.44839098710E+02 -0.65066807471E+03  0.71941381999E+03  0.00000000000E+00 0.  1.
          1    1    3    3  501    0  0.30360234843E+03  0.44845609564E+02 -0.24019888761E+03  0.38971915564E+03  0.00000000000E+00 0.  1.
         21    1    1    2  502  501  0.39034428709E-02 -0.65108540077E-02  0.46435413167E+00  0.46441617940E+00  0.00000000000E+00 0. -1.
<mgrwt>
<rscale>  1 0.66070569E+03</rscale>
<asrwt>0</asrwt>
<pdfrwt beam="1">  1        1 0.39853681E+00 0.66070569E+03</pdfrwt>
<pdfrwt beam="2">0</pdfrwt>
<totfact> 0.13553706E+00</totfact>
</mgrwt>
</event>
<event>
 6    1  0.2234319E-003  0.5229484E+03  0.7818608E-02  0.1007957E+00
          1   -1    0    0  502    0  0.00000000000E+00  0.00000000000E+00  0.68444351489E+02  0.68444351489E+02  0.00000000000E+00 0.  1.
         13   -1    0    0    0    0 -0.00000000000E+00 -0.00000000000E+00 -0.10000000000E+04  0.10000000000E+04  0.00000000000E+00 0.  1.
    9000005    2    1    2  501    0 -0.99318636807E-02 -0.69149798811E-02 -0.93163072777E+03  0.10683683031E+04  0.52294838948E+03 0.  0.
         13    1    3    3    0    0 -0.90777233891E+02  0.19902964008E+03 -0.75842947806E+03  0.78934693071E+03  0.00000000000E+00 0.  1.
          3    1    3    3  501    0  0.90767302027E+02 -0.19903655506E+03 -0.17320124970E+03  0.27902137242E+03  0.00000000000E+00 0.  1.
         21    1    1    2  502  501  0.99318636807E-02  0.69149798811E-02  0.75079254632E-01  0.76048361843E-01  0.00000000000E+00 0.  1.
<mgrwt>
<rscale>  1 0.52294839E+03</rscale>
<asrwt>0</asrwt>
<pdfrwt beam="1">  1        1 0.24888908E+00 0.52294839E+03</pdfrwt>
<pdfrwt beam="2">0</pdfrwt>
<totfact> 0.62210024E+00</totfact>
</mgrwt>
</event>
<event>
 6    1  0.2234319E-003  0.6473151E+03  0.7818608E-02  0.9811830E-01
          1   -1    0    0  502    0  0.00000000000E+00  0.00000000000E+00  0.10504538634E+03  0.10504538634E+03  0.00000000000E+00 0.  1.
         13   -1    0    0    0    0 -0.00000000000E+00 -0.00000000000E+00 -0.10000000000E+04  0.10000000000E+04  0.00000000000E+00 0.  1.
    9000005    2    1    2  501    0 -0.22952256755E-02  0.51259624800E-02 -0.89524576500E+03  0.11047541808E+04  0.64731508578E+03 0.  0.
         13    1    3    3    0    0  0.22525510190E+03 -0.99418053166E+02 -0.89100365044E+02  0.26184477325E+03  0.00000000000E+00 0.  1.
          1    1    3    3  501    0 -0.22525739713E+03  0.99423179128E+02 -0.80614539996E+03  0.84290940758E+03  0.00000000000E+00 0.  1.
         21    1    1    2  502  501  0.22952256755E-02 -0.51259624800E-02  0.29115134132E+00  0.29120550665E+00  0.00000000000E+00 0.  1.
<mgrwt>
<rscale>  1 0.64731509E+03</rscale>
<asrwt>0</asrwt>
<pdfrwt beam="1">  1        1 0.38198403E+00 0.64731509E+03</pdfrwt>
<pdfrwt beam="2">0</pdfrwt>
<totfact> 0.16090048E+00</totfact>
</mgrwt>
</event>
<event>
 6    1  0.2234319E-003  0.6516491E+03  0.7818608E-02  0.9803690E-01
          1   -1    0    0  502    0  0.00000000000E+00  0.00000000000E+00  0.10616344492E+03  0.10616344492E+03  0.00000000000E+00 0.  1.
         13   -1    0    0    0    0 -0.00000000000E+00 -0.00000000000E+00 -0.10000000000E+04  0.10000000000E+04  0.00000000000E+00 0.  1.
    9000005    2    1    2  501    0  0.34011437009E-03 -0.61077105404E-03 -0.89383830075E+03  0.11061615645E+04  0.65164906110E+03 0.  0.
         13    1    3    3    0    0  0.15947491012E+03 -0.28599997516E+02  0.32935012441E+02  0.16533276100E+03  0.00000000000E+00 0.  1.
          1    1    3    3  501    0 -0.15947457001E+03  0.28599386745E+02 -0.92677331319E+03  0.94082880347E+03  0.00000000000E+00 0.  1.
         21    1    1    2  502  501 -0.34011437007E-03  0.61077105404E-03  0.17456644080E-02  0.18804423124E-02  0.00000000000E+00 0. -1.
<mgrwt>
<rscale>  1 0.65164906E+03</rscale>
<asrwt>0</asrwt>
<pdfrwt beam="1">  1        1 0.38604970E+00 0.65164906E+03</pdfrwt>
<pdfrwt beam="2">0</pdfrwt>
<totfact> 0.15425371E+00</totfact>
</mgrwt>
</event>
<event>
 6    1  0.2234319E-003  0.4927335E+03  0.7818608E-02  0.1015693E+00
          1   -1    0    0  502    0  0.00000000000E+00  0.00000000000E+00  0.60696753209E+02  0.60696753209E+02  0.00000000000E+00 0.  1.
         13   -1    0    0    0    0 -0.00000000000E+00 -0.00000000000E+00 -0.10000000000E+04  0.10000000000E+04  0.00000000000E+00 0.  1.
    9000005    2    1    2  501    0  0.34000120081E-04 -0.93420945831E-04 -0.93930340740E+03  0.10606965643E+04  0.49273350850E+03 0.  0.
         13    1    3    3    0    0 -0.15856859231E+03  0.14622198782E+03 -0.72591698194E+03  0.75728484262E+03  0.00000000000E+00 0.  1.
          1    1    3    3  501    0  0.15856862631E+03 -0.14622208124E+03 -0.21338642546E+03  0.30341172170E+03  0.00000000000E+00 0.  1.
         21    1    1    2  502  501 -0.34000120069E-04  0.93420945821E-04  0.16061087429E-03  0.18888974091E-03  0.00000000000E+00 0. -1.
<mgrwt>
<rscale>  1 0.49273351E+03</rscale>
<asrwt>0</asrwt>
<pdfrwt beam="1">  1        1 0.22071593E+00 0.49273351E+03</pdfrwt>
<pdfrwt beam="2">0</pdfrwt>
<totfact> 0.83114164E+00</totfact>
</mgrwt>
</event>
<event>
 6    1  0.2234319E-003  0.6289019E+03  0.7818608E-02  0.9847194E-01
          1   -1    0    0  502    0  0.00000000000E+00  0.00000000000E+00  0.10013450028E+03  0.10013450028E+03  0.00000000000E+00 0.  1.
         13   -1    0    0    0    0 -0.00000000000E+00 -0.00000000000E+00 -0.10000000000E+04  0.10000000000E+04  0.00000000000E+00 0.  1.
    9000005    2    1    2  501    0  0.18713744995E+01 -0.11981314716E+01 -0.89993964169E+03  0.10979112013E+04  0.62889801207E+03 0.  0.
         13    1    3    3    0    0  0.27516506498E+03  0.41307828133E+02 -0.19255197669E+03  0.33837614186E+03  0.00000000000E+00 0.  1.
          1    1    3    3  501    0 -0.27329369048E+03 -0.42505959604E+02 -0.70738766499E+03  0.75953505939E+03  0.00000000000E+00 0.  1.
         21    1    1    2  502  501 -0.18713744995E+01  0.11981314716E+01  0.74141966838E-01  0.22232990289E+01  0.00000000000E+00 0. -1.
<mgrwt>
<rscale>  1 0.62890194E+03</rscale>
<asrwt>0</asrwt>
<pdfrwt beam="1">  1        1 0.36412622E+00 0.62890194E+03</pdfrwt>
<pdfrwt beam="2">0</pdfrwt>
<totfact> 0.19344453E+00</totfact>
</mgrwt>
</event>
<event>
 6    1  0.2234319E-003  0.6417142E+03  0.7818608E-02  0.9822452E-01
          1   -1    0    0  502    0  0.00000000000E+00  0.00000000000E+00  0.10294973771E+03  0.10294973771E+03  0.00000000000E+00 0.  1.
         13   -1    0    0    0    0 -0.00000000000E+00 -0.00000000000E+00 -0.10000000000E+04  0.10000000000E+04  0.00000000000E+00 0.  1.
    9000005    2    1    2  501    0  0.40700679897E-03 -0.19303681671E-03 -0.89705060226E+03  0.11029491734E+04  0.64171418560E+03 0.  0.
         13    1    3    3    0    0  0.17249631953E+02 -0.15711118116E+03 -0.92844842964E+03  0.94180569097E+03  0.00000000000E+00 0.  1.
          1    1    3    3  501    0 -0.17249224946E+02  0.15711098812E+03  0.31397827381E+02  0.16114348238E+03  0.00000000000E+00 0.  1.
         21    1    1    2  502  501 -0.40700679897E-03  0.19303681672E-03  0.33996231123E-03  0.56435106102E-03  0.00000000000E+00 0. -1.
<mgrwt>
<rscale>  1 0.64171419E+03</rscale>
<asrwt>0</asrwt>
<pdfrwt beam="1">  1        1 0.37436347E+00 0.64171419E+03</pdfrwt>
<pdfrwt beam="2">0</pdfrwt>
<totfact> 0.17401953E+00</totfact>
</mgrwt>
</event>
<event>
 6    1  0.2234319E-003  0.4672317E+03  0.7818608E-02  0.1022704E+00
          1   -1    0    0  502    0  0.00000000000E+00  0.00000000000E+00  0.54578263326E+02  0.54578263326E+02  0.00000000000E+00 0.  1.
         13   -1    0    0    0    0 -0.00000000000E+00 -0.00000000000E+00 -0.10000000000E+04  0.10000000000E+04  0.00000000000E+00 0.  1.
    9000005    2    1    2  501    0  0.13518156960E-02 -0.16929981373E-02 -0.94542298496E+03  0.10545757630E+04  0.46723165485E+03 0.  0.
         13    1    3    3    0    0 -0.43920966812E+02 -0.22845705819E+03 -0.52085809761E+03  0.57045143230E+03  0.00000000000E+00 0.  1.
          1    1    3    3  501    0  0.43922318628E+02  0.22845536519E+03 -0.42456488735E+03  0.48412433065E+03  0.00000000000E+00 0.  1.
         21    1    1    2  502  501 -0.13518156960E-02  0.16929981373E-02  0.12482907704E-02  0.25003756150E-02  0.00000000000E+00 0. -1.
<mgrwt>
<rscale>  1 0.46723165E+03</rscale>
<asrwt>0</asrwt>
<pdfrwt beam="1">  1        1 0.19846683E+00 0.46723165E+03</pdfrwt>
<pdfrwt beam="2">0</pdfrwt>
<totfact> 0.10500397E+01</totfact>
</mgrwt>
</event>
<event>
 6    1  0.2234319E-003  0.6690077E+03  0.7818608E-02  0.9771752E-01
          1   -1    0    0  502    0  0.00000000000E+00  0.00000000000E+00  0.11195477178E+03  0.11195477178E+03  0.00000000000E+00 0.  1.
         13   -1    0    0    0    0 -0.00000000000E+00 -0.00000000000E+00 -0.10000000000E+04  0.10000000000E+04  0.00000000000E+00 0.  1.
    9000005    2    1    2  501    0  0.10374312533E-01  0.44215570609E-02 -0.88810660330E+03  0.11118923692E+04  0.66900769936E+03 0.  0.
         13    1    3    3    0    0 -0.30494979070E+03 -0.13691747328E+03 -0.42380709096E+03  0.53977145134E+03  0.00000000000E+00 0.  1.
          1    1    3    3  501    0  0.30496016501E+03  0.13692189484E+03 -0.46429951234E+03  0.57212091789E+03  0.00000000000E+00 0.  1.
         21    1    1    2  502  501 -0.10374312533E-01 -0.44215570609E-02  0.61375089156E-01  0.62402548796E-01  0.00000000000E+00 0. -1.
<mgrwt>
<rscale>  1 0.66900770E+03</rscale>
<asrwt>0</asrwt>
<pdfrwt beam="1">  1        1 0.40710912E+00 0.66900770E+03</pdfrwt>
<pdfrwt beam="2">0</pdfrwt>
<totfact> 0.12390603E+00</totfact>
</mgrwt>
</event>
<event>
 6    1  0.2234319E-003  0.6599450E+03  0.7818608E-02  0.9788295E-01
          1   -1    0    0  502    0  0.00000000000E+00  0.00000000000E+00  0.10888221103E+03  0.10888221103E+03  0.00000000000E+00 0.  1.
         13   -1    0    0    0    0 -0.00000000000E+00 -0.00000000000E+00 -0.10000000000E+04  0.10000000000E+04  0.00000000000E+00 0.  1.
    9000005    2    1    2  501    0 -0.16805788388E-05 -0.26561337833E-04 -0.89111814274E+03  0.11088818563E+04  0.65994501802E+03 0.  0.
         13    1    3    3    0    0  0.96155781921E+01  0.65595404970E+02  0.97576071697E+02  0.11796739492E+03  0.00000000000E+00 0.  1.
          3    1    3    3  501    0 -0.96155798727E+01 -0.65595431532E+02 -0.98869421444E+03  0.99091446133E+03  0.00000000000E+00 0.  1.
         21    1    1    2  502  501  0.16805788381E-05  0.26561337833E-04  0.35377690937E-03  0.35477659254E-03  0.00000000000E+00 0. -1.
<mgrwt>
<rscale>  1 0.65994502E+03</rscale>
<asrwt>0</asrwt>
<pdfrwt beam="1">  1        1 0.39593615E+00 0.65994502E+03</pdfrwt>
<pdfrwt beam="2">0</pdfrwt>
<totfact> 0.13921904E+00</totfact>
</mgrwt>
</event>
<event>
 6    1  0.2234319E-003  0.6534201E+03  0.7818608E-02  0.9800383E-01
          1   -1    0    0  502    0  0.00000000000E+00  0.00000000000E+00  0.10686140751E+03  0.10686140751E+03  0.00000000000E+00 0.  1.
         13   -1    0    0    0    0 -0.00000000000E+00 -0.00000000000E+00 -0.10000000000E+04  0.10000000000E+04  0.00000000000E+00 0.  1.
    9000005    2    1    2  501    0  0.73324212573E-03 -0.67061814335E-02 -0.89326045464E+03  0.11067393588E+04  0.65342005509E+03 0.  0.
         13    1    3    3    0    0 -0.12529800943E+03  0.22327908693E+03 -0.79035964766E+03  0.83079571163E+03  0.00000000000E+00 0.  1.
          1    1    3    3  501    0  0.12529874267E+03 -0.22328579311E+03 -0.10290080698E+03  0.27594364714E+03  0.00000000000E+00 0.  1.
         21    1    1    2  502  501 -0.73324212574E-03  0.67061814335E-02  0.12186214599E+00  0.12204873264E+00  0.00000000000E+00 0.  1.
<mgrwt>
<rscale>  1 0.65342006E+03</rscale>
<asrwt>0</asrwt>
<pdfrwt beam="1">  1        1 0.38858776E+00 0.65342006E+03</pdfrwt>
<pdfrwt beam="2">0</pdfrwt>
<totfact> 0.15026349E+00</totfact>
</mgrwt>
</event>
<event>
 6    1  0.2234319E-003  0.6268823E+03  0.7818608E-02  0.9851152E-01
          1   -1    0    0  502    0  0.00000000000E+00  0.00000000000E+00  0.10715913969E+03  0.10715913969E+03  0.00000000000E+00 0.  1.
         13   -1    0    0    0    0 -0.00000000000E+00 -0.00000000000E+00 -0.10000000000E+04  0.10000000000E+04  0.00000000000E+00 0.  1.
    9000005    2    1    2  501    0  0.15172899954E+01 -0.29153326526E+00 -0.90168105443E+03  0.10981849438E+04  0.62688041892E+03 0.  0.
         13    1    3    3    0    0 -0.25971584811E+03 -0.13823616399E+03 -0.26356490844E+03  0.39500382246E+03  0.00000000000E+00 0.  1.
          3    1    3    3  501    0  0.26123313811E+03  0.13794463072E+03 -0.63811614598E+03  0.70318112130E+03  0.00000000000E+00 0.  1.
         21    1    1    2  502  501 -0.15172899954E+01  0.29153326526E+00  0.88401941162E+01  0.89741959298E+01  0.00000000000E+00 0. -1.
<mgrwt>
<rscale>  1 0.62688232E+03</rscale>
<asrwt>0</asrwt>
<pdfrwt beam="1">  1        1 0.38967042E+00 0.62688232E+03</pdfrwt>
<pdfrwt beam="2">0</pdfrwt>
<totfact> 0.14935954E+00</totfact>
</mgrwt>
</event>
<event>
 6    1  0.2234319E-003  0.6700565E+03  0.7818608E-02  0.9769856E-01
          1   -1    0    0  502    0  0.00000000000E+00  0.00000000000E+00  0.11225465205E+03  0.11225465205E+03  0.00000000000E+00 0.  1.
         13   -1    0    0    0    0 -0.00000000000E+00 -0.00000000000E+00 -0.10000000000E+04  0.10000000000E+04  0.00000000000E+00 0.  1.
    9000005    2    1    2  501    0  0.59736051639E-04 -0.19817329803E-03 -0.88775606191E+03  0.11122439361E+04  0.67005652591E+03 0.  0.
         13    1    3    3    0    0  0.23354718750E+03  0.16094088355E+03 -0.73987424030E+03  0.79237626684E+03  0.00000000000E+00 0.  1.
          3    1    3    3  501    0 -0.23354712777E+03 -0.16094108172E+03 -0.14788182161E+03  0.31986766926E+03  0.00000000000E+00 0.  1.
         21    1    1    2  502  501 -0.59736051617E-04  0.19817329803E-03  0.10713953685E-01  0.10715952809E-01  0.00000000000E+00 0.  1.
<mgrwt>
<rscale>  1 0.67005653E+03</rscale>
<asrwt>0</asrwt>
<pdfrwt beam="1">  1        1 0.40819960E+00 0.67005653E+03</pdfrwt>
<pdfrwt beam="2">0</pdfrwt>
<totfact> 0.12249600E+00</totfact>
</mgrwt>
</event>
<event>
 6    1  0.2234319E-003  0.6516051E+03  0.7818608E-02  0.9803772E-01
          1   -1    0    0  502    0  0.00000000000E+00  0.00000000000E+00  0.10614732548E+03  0.10614732548E+03  0.00000000000E+00 0.  1.
         13   -1    0    0    0    0 -0.00000000000E+00 -0.00000000000E+00 -0.10000000000E+04  0.10000000000E+04  0.00000000000E+00 0.  1.
    9000005    2    1    2  501    0  0.64426669369E-04 -0.84178448283E-05 -0.89385267457E+03  0.11061472605E+04  0.65160506297E+03 0.  0.
         13    1    3    3    0    0 -0.59891949416E+00 -0.74898272527E+01  0.10600019267E+03  0.10626616142E+03  0.00000000000E+00 0.  1.
          3    1    3    3  501    0  0.59898392083E+00  0.74898188348E+01 -0.99985286724E+03  0.99988109908E+03  0.00000000000E+00 0.  1.
         21    1    1    2  502  501 -0.64426669370E-04  0.84178448280E-05  0.42057242412E-07  0.64974284193E-04  0.00000000000E+00 0. -1.
<mgrwt>
<rscale>  1 0.65160506E+03</rscale>
<asrwt>0</asrwt>
<pdfrwt beam="1">  1        1 0.38599109E+00 0.65160506E+03</pdfrwt>
<pdfrwt beam="2">0</pdfrwt>
<totfact> 0.15434713E+00</totfact>
</mgrwt>
</event>
<event>
 6    1  0.2234319E-003  0.6580077E+03  0.7818608E-02  0.9791868E-01
          1   -1    0    0  502    0  0.00000000000E+00  0.00000000000E+00  0.10824356834E+03  0.10824356834E+03  0.00000000000E+00 0.  1.
         13   -1    0    0    0    0 -0.00000000000E+00 -0.00000000000E+00 -0.10000000000E+04  0.10000000000E+04  0.00000000000E+00 0.  1.
    9000005    2    1    2  501    0  0.65991681026E-05 -0.18531473870E-04 -0.89175644865E+03  0.11082435423E+04  0.65800773966E+03 0.  0.
         13    1    3    3    0    0 -0.26960813316E+03 -0.18755402593E+03 -0.47864482810E+03  0.58048766531E+03  0.00000000000E+00 0.  1.
          3    1    3    3  501    0  0.26960813976E+03  0.18755400740E+03 -0.41311162054E+03  0.52775587703E+03  0.00000000000E+00 0.  1.
         21    1    1    2  502  501 -0.65991681377E-05  0.18531473864E-04  0.16980981383E-04  0.25986886547E-04  0.00000000000E+00 0.  1.
<mgrwt>
<rscale>  1 0.65800774E+03</rscale>
<asrwt>0</asrwt>
<pdfrwt beam="1">  1        1 0.39361381E+00 0.65800774E+03</pdfrwt>
<pdfrwt beam="2">0</pdfrwt>
<totfact> 0.14262021E+00</totfact>
</mgrwt>
</event>
<event>
 6    1  0.2234319E-003  0.6278628E+03  0.7818608E-02  0.9849228E-01
          1   -1    0    0  502    0  0.00000000000E+00  0.00000000000E+00  0.98555429133E+02  0.98555429133E+02  0.00000000000E+00 0.  1.
         13   -1    0    0    0    0 -0.00000000000E+00 -0.00000000000E+00 -0.10000000000E+04  0.10000000000E+04  0.00000000000E+00 0.  1.
    9000005    2    1    2  501    0  0.71524017450E-03  0.17588151722E-03 -0.90144700523E+03  0.10985528858E+04  0.62786283505E+03 0.  0.
         13    1    3    3    0    0  0.51536508336E+02  0.90772587410E+02  0.67300841186E+02  0.12419773565E+03  0.00000000000E+00 0.  1.
          1    1    3    3  501    0 -0.51535793096E+02 -0.90772411529E+02 -0.96874784641E+03  0.97435515014E+03  0.00000000000E+00 0.  1.
         21    1    1    2  502  501 -0.71524017450E-03 -0.17588151721E-03  0.24343591208E-02  0.25433456597E-02  0.00000000000E+00 0. -1.
<mgrwt>
<rscale>  1 0.62786284E+03</rscale>
<asrwt>0</asrwt>
<pdfrwt beam="1">  1        1 0.35838413E+00 0.62786284E+03</pdfrwt>
<pdfrwt beam="2">0</pdfrwt>
<totfact> 0.20500374E+00</totfact>
</mgrwt>
</event>
<event>
 6    1  0.2234319E-003  0.6416125E+03  0.7818608E-02  0.9822646E-01
          1   -1    0    0  502    0  0.00000000000E+00  0.00000000000E+00  0.10305856951E+03  0.10305856951E+03  0.00000000000E+00 0.  1.
         13   -1    0    0    0    0 -0.00000000000E+00 -0.00000000000E+00 -0.10000000000E+04  0.10000000000E+04  0.00000000000E+00 0.  1.
    9000005    2    1    2  501    0  0.15053903655E+00  0.44317165492E-01 -0.89703391329E+03  0.11028764183E+04  0.64161244354E+03 0.  0.
         13    1    3    3    0    0  0.71999993610E+02  0.22040253592E+02 -0.98460862620E+03  0.98748362956E+03  0.00000000000E+00 0.  1.
          3    1    3    3  501    0 -0.71849454574E+02 -0.21995936426E+02  0.87574712907E+02  0.11539278869E+03  0.00000000000E+00 0.  1.
         21    1    1    2  502  501 -0.15053903655E+00 -0.44317165492E-01  0.92482802481E-01  0.18215125978E+00  0.00000000000E+00 0. -1.
<mgrwt>
<rscale>  1 0.64161246E+03</rscale>
<asrwt>0</asrwt>
<pdfrwt beam="1">  1        1 0.37475922E+00 0.64161246E+03</pdfrwt>
<pdfrwt beam="2">0</pdfrwt>
<totfact> 0.17332627E+00</totfact>
</mgrwt>
</event>
<event>
 6    1  0.2234319E-003  0.6540666E+03  0.7818608E-02  0.9799178E-01
          1   -1    0    0  502    0  0.00000000000E+00  0.00000000000E+00  0.10695178211E+03  0.10695178211E+03  0.00000000000E+00 0.  1.
         13   -1    0    0    0    0 -0.00000000000E+00 -0.00000000000E+00 -0.10000000000E+04  0.10000000000E+04  0.00000000000E+00 0.  1.
    9000005    2    1    2  501    0 -0.97539334959E-03 -0.53733961073E-03 -0.89304886935E+03  0.11069504919E+04  0.65406659337E+03 0.  0.
         13    1    3    3    0    0 -0.21253615302E+01 -0.12687660267E+03  0.63587357038E+02  0.14193499020E+03  0.00000000000E+00 0.  1.
          3    1    3    3  501    0  0.21243861369E+01  0.12687606533E+03 -0.95663622639E+03  0.96501550175E+03  0.00000000000E+00 0.  1.
         21    1    1    2  502  501  0.97539334959E-03  0.53733961074E-03  0.65146356196E-03  0.12901669722E-02  0.00000000000E+00 0. -1.
<mgrwt>
<rscale>  1 0.65406659E+03</rscale>
<asrwt>0</asrwt>
<pdfrwt beam="1">  1        1 0.38891639E+00 0.65406659E+03</pdfrwt>
<pdfrwt beam="2">0</pdfrwt>
<totfact> 0.14974247E+00</totfact>
</mgrwt>
</event>
<event>
 6    1  0.2234319E-003  0.6537001E+03  0.7818608E-02  0.9799861E-01
          3   -1    0    0  502    0  0.00000000000E+00  0.00000000000E+00  0.13539337896E+03  0.13539337896E+03  0.00000000000E+00 0.  1.
         13   -1    0    0    0    0 -0.00000000000E+00 -0.00000000000E+00 -0.10000000000E+04  0.10000000000E+04  0.00000000000E+00 0.  1.
    9000005    2    1    2  501    0  0.74530500353E+01  0.17600503171E+01 -0.89259976871E+03  0.11063716277E+04  0.65365524986E+03 0.  0.
         13    1    3    3    0    0 -0.16907564128E+03  0.18760967782E+03 -0.79152152869E+03  0.83083710441E+03  0.00000000000E+00 0.  1.
          3    1    3    3  501    0  0.17652869132E+03 -0.18584962750E+03 -0.10107824002E+03  0.27553452326E+03  0.00000000000E+00 0.  1.
         21    1    1    2  502  501 -0.74530500353E+01 -0.17600503171E+01  0.27993147668E+02  0.29021751297E+02  0.00000000000E+00 0.  1.
<mgrwt>
<rscale>  1 0.65370011E+03</rscale>
<asrwt>0</asrwt>
<pdfrwt beam="1">  1        3 0.49234060E+00 0.65370011E+03</pdfrwt>
<pdfrwt beam="2">0</pdfrwt>
<totfact> 0.20105215E-02</totfact>
</mgrwt>
</event>
<event>
 6    1  0.2234319E-003  0.6457443E+03  0.7818608E-02  0.9814798E-01
          1   -1    0    0  502    0  0.00000000000E+00  0.00000000000E+00  0.10598576190E+03  0.10598576190E+03  0.00000000000E+00 0.  1.
         13   -1    0    0    0    0 -0.00000000000E+00 -0.00000000000E+00 -0.10000000000E+04  0.10000000000E+04  0.00000000000E+00 0.  1.
    9000005    2    1    2  501    0 -0.14261136220E+01  0.40104694721E+01 -0.89218321530E+03  0.11013521553E+04  0.64573025538E+03 0.  0.
         13    1    3    3    0    0  0.24278217267E+03 -0.20465142676E+03 -0.52444642714E+03  0.61308192338E+03  0.00000000000E+00 0.  1.
          1    1    3    3  501    0 -0.24420828630E+03  0.20866189623E+03 -0.36773678816E+03  0.48827023194E+03  0.00000000000E+00 0.  1.
         21    1    1    2  502  501  0.14261136220E+01 -0.40104694721E+01 -0.18310228020E+01  0.46336065814E+01  0.00000000000E+00 0.  1.
<mgrwt>
<rscale>  1 0.64574428E+03</rscale>
<asrwt>0</asrwt>
<pdfrwt beam="1">  1        1 0.38540358E+00 0.64574428E+03</pdfrwt>
<pdfrwt beam="2">0</pdfrwt>
<totfact> 0.15544247E+00</totfact>
</mgrwt>
</event>
<event>
 6    1  0.2234319E-003  0.6510831E+03  0.7818608E-02  0.9804749E-01
          1   -1    0    0  502    0  0.00000000000E+00  0.00000000000E+00  0.10599317244E+03  0.10599317244E+03  0.00000000000E+00 0.  1.
         13   -1    0    0    0    0 -0.00000000000E+00 -0.00000000000E+00 -0.10000000000E+04  0.10000000000E+04  0.00000000000E+00 0.  1.
    9000005    2    1    2  501    0 -0.16000158091E-02 -0.36079502495E-01 -0.89399556020E+03  0.11059553406E+04  0.65108306118E+03 0.  0.
         13    1    3    3    0    0  0.28901285314E+03 -0.11561762511E+03 -0.28509815499E+03  0.42210996493E+03  0.00000000000E+00 0.  1.
          3    1    3    3  501    0 -0.28901445316E+03  0.11558154561E+03 -0.60889740521E+03  0.68384537571E+03  0.00000000000E+00 0.  1.
         21    1    1    2  502  501  0.16000158091E-02  0.36079502495E-01 -0.11267367792E-01  0.37831787267E-01  0.00000000000E+00 0. -1.
<mgrwt>
<rscale>  1 0.65108306E+03</rscale>
<asrwt>0</asrwt>
<pdfrwt beam="1">  1        1 0.38543053E+00 0.65108306E+03</pdfrwt>
<pdfrwt beam="2">0</pdfrwt>
<totfact> 0.15524615E+00</totfact>
</mgrwt>
</event>
<event>
 6    1  0.2234319E-003  0.6496307E+03  0.7818608E-02  0.9807472E-01
          1   -1    0    0  502    0  0.00000000000E+00  0.00000000000E+00  0.10595634899E+03  0.10595634899E+03  0.00000000000E+00 0.  1.
         13   -1    0    0    0    0 -0.00000000000E+00 -0.00000000000E+00 -0.10000000000E+04  0.10000000000E+04  0.00000000000E+00 0.  1.
    9000005    2    1    2  501    0 -0.69434323050E+00 -0.97056181029E-01 -0.89417191172E+03  0.11052436196E+04  0.64963032514E+03 0.  0.
         13    1    3    3    0    0 -0.20754310510E+03  0.20097219545E+01 -0.87296568907E+03  0.89729999095E+03  0.00000000000E+00 0.  1.
          3    1    3    3  501    0  0.20684876187E+03 -0.21067781355E+01 -0.21206222649E+02  0.20794362861E+03  0.00000000000E+00 0.  1.
         21    1    1    2  502  501  0.69434323050E+00  0.97056181029E-01  0.12826071099E+00  0.71272942552E+00  0.00000000000E+00 0. -1.
<mgrwt>
<rscale>  1 0.64963070E+03</rscale>
<asrwt>0</asrwt>
<pdfrwt beam="1">  1        1 0.38529663E+00 0.64963070E+03</pdfrwt>
<pdfrwt beam="2">0</pdfrwt>
<totfact> 0.15549978E+00</totfact>
</mgrwt>
</event>
<event>
 6    1  0.2234319E-003  0.6474667E+03  0.7818608E-02  0.9811544E-01
          1   -1    0    0  502    0  0.00000000000E+00  0.00000000000E+00  0.10481354738E+03  0.10481354738E+03  0.00000000000E+00 0.  1.
         13   -1    0    0    0    0 -0.00000000000E+00 -0.00000000000E+00 -0.10000000000E+04  0.10000000000E+04  0.00000000000E+00 0.  1.
    9000005    2    1    2  501    0 -0.10122138587E-02  0.32863653331E-03 -0.89519668002E+03  0.11048032648E+04  0.64746672340E+03 0.  0.
         13    1    3    3    0    0  0.20572754709E+03 -0.17267887707E+03 -0.13921961868E+03  0.30252920594E+03  0.00000000000E+00 0.  1.
          1    1    3    3  501    0 -0.20572855931E+03  0.17267920571E+03 -0.75597706134E+03  0.80227405883E+03  0.00000000000E+00 0.  1.
         21    1    1    2  502  501  0.10122138587E-02 -0.32863653330E-03  0.10227396329E-01  0.10282617105E-01  0.00000000000E+00 0. -1.
<mgrwt>
<rscale>  1 0.64746672E+03</rscale>
<asrwt>0</asrwt>
<pdfrwt beam="1">  1        1 0.38114098E+00 0.64746672E+03</pdfrwt>
<pdfrwt beam="2">0</pdfrwt>
<totfact> 0.16228104E+00</totfact>
</mgrwt>
</event>
<event>
 6    1  0.2234319E-003  0.6395338E+03  0.7818608E-02  0.9826619E-01
          1   -1    0    0  502    0  0.00000000000E+00  0.00000000000E+00  0.10225088229E+03  0.10225088229E+03  0.00000000000E+00 0.  1.
         13   -1    0    0    0    0 -0.00000000000E+00 -0.00000000000E+00 -0.10000000000E+04  0.10000000000E+04  0.00000000000E+00 0.  1.
    9000005    2    1    2  501    0  0.45519701075E-06 -0.72828945861E-05 -0.89774913201E+03  0.11022508662E+04  0.63953378965E+03 0.  0.
         13    1    3    3    0    0  0.17791307567E+03 -0.22513485162E+03 -0.20566786771E+03  0.35304112468E+03  0.00000000000E+00 0.  1.
          1    1    3    3  501    0 -0.17791307521E+03  0.22513484433E+03 -0.69208126429E+03  0.74920974156E+03  0.00000000000E+00 0.  1.
         21    1    1    2  502  501 -0.45519700561E-06  0.72828945868E-05  0.14300637041E-04  0.16054780523E-04  0.00000000000E+00 0. -1.
<mgrwt>
<rscale>  1 0.63953379E+03</rscale>
<asrwt>0</asrwt>
<pdfrwt beam="1">  1        1 0.37182217E+00 0.63953379E+03</pdfrwt>
<pdfrwt beam="2">0</pdfrwt>
<totfact> 0.17862716E+00</totfact>
</mgrwt>
</event>
<event>
 6    1  0.2234319E-003  0.6527715E+03  0.7818608E-02  0.9801592E-01
          1   -1    0    0  502    0  0.00000000000E+00  0.00000000000E+00  0.10652774853E+03  0.10652774853E+03  0.00000000000E+00 0.  1.
         13   -1    0    0    0    0 -0.00000000000E+00 -0.00000000000E+00 -0.10000000000E+04  0.10000000000E+04  0.00000000000E+00 0.  1.
    9000005    2    1    2  501    0  0.19602968280E-04 -0.75467259677E-05 -0.89347233007E+03  0.11065276672E+04  0.65277153248E+03 0.  0.
         13    1    3    3    0    0 -0.27789294267E+03 -0.37972322238E+02 -0.16379143630E+03  0.32479842895E+03  0.00000000000E+00 0.  1.
          3    1    3    3  501    0  0.27789296227E+03  0.37972314691E+02 -0.72968089377E+03  0.78172923822E+03  0.00000000000E+00 0.  1.
         21    1    1    2  502  501 -0.19602968263E-04  0.75467259696E-05  0.78600012081E-04  0.81358412821E-04  0.00000000000E+00 0.  1.
<mgrwt>
<rscale>  1 0.65277153E+03</rscale>
<asrwt>0</asrwt>
<pdfrwt beam="1">  1        1 0.38737445E+00 0.65277153E+03</pdfrwt>
<pdfrwt beam="2">0</pdfrwt>
<totfact> 0.15215304E+00</totfact>
</mgrwt>
</event>
<event>
 6    1  0.2234319E-003  0.5091780E+03  0.7818608E-02  0.1011411E+00
          1   -1    0    0  502    0  0.00000000000E+00  0.00000000000E+00  0.64817598920E+02  0.64817598920E+02  0.00000000000E+00 0.  1.
         13   -1    0    0    0    0 -0.00000000000E+00 -0.00000000000E+00 -0.10000000000E+04  0.10000000000E+04  0.00000000000E+00 0.  1.
    9000005    2    1    2  501    0  0.25011657200E-04  0.66131358081E-03 -0.93518438398E+03  0.10648155085E+04  0.50917799943E+03 0.  0.
         13    1    3    3    0    0  0.85434407945E+02  0.11031784896E+03 -0.22267593426E+02  0.14129724547E+03  0.00000000000E+00 0.  1.
          3    1    3    3  501    0 -0.85434382933E+02 -0.11031718765E+03 -0.91291679055E+03  0.92351826303E+03  0.00000000000E+00 0.  1.
         21    1    1    2  502  501 -0.25011657197E-04 -0.66131358081E-03  0.19828993503E-02  0.20904188739E-02  0.00000000000E+00 0.  1.
<mgrwt>
<rscale>  1 0.50917800E+03</rscale>
<asrwt>0</asrwt>
<pdfrwt beam="1">  1        1 0.23570086E+00 0.50917800E+03</pdfrwt>
<pdfrwt beam="2">0</pdfrwt>
<totfact> 0.71197340E+00</totfact>
</mgrwt>
</event>
<event>
 6    1  0.2234319E-003  0.6552819E+03  0.7818608E-02  0.9796918E-01
          1   -1    0    0  502    0  0.00000000000E+00  0.00000000000E+00  0.11790468173E+03  0.11790468173E+03  0.00000000000E+00 0.  1.
         13   -1    0    0    0    0 -0.00000000000E+00 -0.00000000000E+00 -0.10000000000E+04  0.10000000000E+04  0.00000000000E+00 0.  1.
    9000005    2    1    2  501    0  0.11824381715E+02  0.13101919079E+02 -0.88374212103E+03  0.11001793257E+04  0.65504422444E+03 0.  0.
         13    1    3    3    0    0  0.42836922757E+02 -0.24854139347E+03 -0.77524825942E+03  0.81524087848E+03  0.00000000000E+00 0.  1.
          1    1    3    3  501    0 -0.31012541042E+02  0.26164331255E+03 -0.10849386161E+03  0.28493844723E+03  0.00000000000E+00 0.  1.
         21    1    1    2  502  501 -0.11824381715E+02 -0.13101919079E+02  0.16468027611E+01  0.17725356014E+02  0.00000000000E+00 0. -1.
<mgrwt>
<rscale>  1 0.65528193E+03</rscale>
<asrwt>0</asrwt>
<pdfrwt beam="1">  1        1 0.42874520E+00 0.65528193E+03</pdfrwt>
<pdfrwt beam="2">0</pdfrwt>
<totfact> 0.99253449E-01</totfact>
</mgrwt>
</event>
<event>
 6    1  0.2234319E-003  0.7031359E+03  0.7818608E-02  0.9711884E-01
          1   -1    0    0  502    0  0.00000000000E+00  0.00000000000E+00  0.12360061155E+03  0.12360061155E+03  0.00000000000E+00 0.  1.
         13   -1    0    0    0    0 -0.00000000000E+00 -0.00000000000E+00 -0.10000000000E+04  0.10000000000E+04  0.00000000000E+00 0.  1.
    9000005    2    1    2  501    0 -0.17601469020E-03  0.12278340293E-03 -0.87639997053E+03  0.11235999912E+04  0.70313585586E+03 0.  0.
         13    1    3    3    0    0 -0.13532171274E+03 -0.12380662509E+03  0.41088637287E+02  0.18795829981E+03  0.00000000000E+00 0.  1.
          3    1    3    3  501    0  0.13532153672E+03  0.12380674787E+03 -0.91748860782E+03  0.93564169135E+03  0.00000000000E+00 0.  1.
         21    1    1    2  502  501  0.17601469019E-03 -0.12278340294E-03  0.58207941106E-03  0.62038163737E-03  0.00000000000E+00 0.  1.
<mgrwt>
<rscale>  1 0.70313586E+03</rscale>
<asrwt>0</asrwt>
<pdfrwt beam="1">  1        1 0.44945772E+00 0.70313586E+03</pdfrwt>
<pdfrwt beam="2">0</pdfrwt>
<totfact> 0.79055171E-01</totfact>
</mgrwt>
</event>
<event>
 6    1  0.2234319E-003  0.6527454E+03  0.7818608E-02  0.9801641E-01
          1   -1    0    0  502    0  0.00000000000E+00  0.00000000000E+00  0.10653514334E+03  0.10653514334E+03  0.00000000000E+00 0.  1.
         13   -1    0    0    0    0 -0.00000000000E+00 -0.00000000000E+00 -0.10000000000E+04  0.10000000000E+04  0.00000000000E+00 0.  1.
    9000005    2    1    2  501    0 -0.55541307204E-02  0.19308664230E-02 -0.89348025064E+03  0.11065186645E+04  0.65274543019E+03 0.  0.
         13    1    3    3    0    0 -0.32465498047E+03 -0.18803390683E+02 -0.49367579878E+03  0.59116006136E+03  0.00000000000E+00 0.  1.
          1    1    3    3  501    0  0.32464942633E+03  0.18805321549E+02 -0.39980445186E+03  0.51535860317E+03  0.00000000000E+00 0.  1.
         21    1    1    2  502  501  0.55541307204E-02 -0.19308664230E-02  0.15393974764E-01  0.16478806760E-01  0.00000000000E+00 0. -1.
<mgrwt>
<rscale>  1 0.65274543E+03</rscale>
<asrwt>0</asrwt>
<pdfrwt beam="1">  1        1 0.38740134E+00 0.65274543E+03</pdfrwt>
<pdfrwt beam="2">0</pdfrwt>
<totfact> 0.15211206E+00</totfact>
</mgrwt>
</event>
<event>
 6    1  0.2234319E-003  0.6531949E+03  0.7818608E-02  0.9800803E-01
          3   -1    0    0  502    0  0.00000000000E+00  0.00000000000E+00  0.10666592439E+03  0.10666592439E+03  0.00000000000E+00 0.  1.
         13   -1    0    0    0    0 -0.00000000000E+00 -0.00000000000E+00 -0.10000000000E+04  0.10000000000E+04  0.00000000000E+00 0.  1.
    9000005    2    1    2  501    0 -0.40885407657E-04  0.58187849163E-04 -0.89333407658E+03  0.11066658533E+04  0.65319487017E+03 0.  0.
         13    1    3    3    0    0  0.27978324268E+03 -0.15450044860E+03 -0.33280211779E+03  0.46141770784E+03  0.00000000000E+00 0.  1.
          1    1    3    3  501    0 -0.27978328357E+03  0.15450050678E+03 -0.56053195879E+03  0.64524814543E+03  0.00000000000E+00 0.  1.
         21    1    1    2  502  501  0.40885407621E-04 -0.58187849157E-04  0.96857160483E-06  0.71122292404E-04  0.00000000000E+00 0. -1.
<mgrwt>
<rscale>  1 0.65319487E+03</rscale>
<asrwt>0</asrwt>
<pdfrwt beam="1">  1        3 0.38787691E+00 0.65319487E+03</pdfrwt>
<pdfrwt beam="2">0</pdfrwt>
<totfact> 0.68556778E-02</totfact>
</mgrwt>
</event>
<event>
 6    1  0.2234319E-003  0.6651971E+03  0.7818608E-02  0.9778673E-01
          1   -1    0    0  502    0  0.00000000000E+00  0.00000000000E+00  0.11370171796E+03  0.11370171796E+03  0.00000000000E+00 0.  1.
         13   -1    0    0    0    0 -0.00000000000E+00 -0.00000000000E+00 -0.10000000000E+04  0.10000000000E+04  0.00000000000E+00 0.  1.
    9000005    2    1    2  501    0 -0.29117912037E-01  0.16364461829E+00 -0.88937571209E+03  0.11106198025E+04  0.66519708412E+03 0.  0.
         13    1    3    3    0    0  0.43049957079E+02 -0.59607957128E+02  0.96876052851E+02  0.12161980502E+03  0.00000000000E+00 0.  1.
          1    1    3    3  501    0 -0.43079074991E+02  0.59771601746E+02 -0.98625176494E+03  0.98899999744E+03  0.00000000000E+00 0.  1.
         21    1    1    2  502  501  0.29117912037E-01 -0.16364461829E+00  0.30774300495E+01  0.30819154958E+01  0.00000000000E+00 0.  1.
<mgrwt>
<rscale>  1 0.66519710E+03</rscale>
<asrwt>0</asrwt>
<pdfrwt beam="1">  1        1 0.41346166E+00 0.66519710E+03</pdfrwt>
<pdfrwt beam="2">0</pdfrwt>
<totfact> 0.11612042E+00</totfact>
</mgrwt>
</event>
<event>
 6    1  0.2234319E-003  0.4699361E+03  0.7818608E-02  0.1021938E+00
          1   -1    0    0  502    0  0.00000000000E+00  0.00000000000E+00  0.55296110902E+02  0.55296110902E+02  0.00000000000E+00 0.  1.
         13   -1    0    0    0    0 -0.00000000000E+00 -0.00000000000E+00 -0.10000000000E+04  0.10000000000E+04  0.00000000000E+00 0.  1.
    9000005    2    1    2  501    0 -0.64618527899E-01 -0.14995111265E+00 -0.94470384808E+03  0.10551328293E+04  0.46993605966E+03 0.  0.
         13    1    3    3    0    0  0.40208497091E+01  0.10913080501E+03 -0.93931633642E+03  0.94564310377E+03  0.00000000000E+00 0.  1.
          1    1    3    3  501    0 -0.40854682370E+01 -0.10928075612E+03 -0.53875116529E+01  0.10948972550E+03  0.00000000000E+00 0.  1.
         21    1    1    2  502  501  0.64618527899E-01  0.14995111265E+00 -0.41022161518E-04  0.16328163404E+00  0.00000000000E+00 0. -1.
<mgrwt>
<rscale>  1 0.46993609E+03</rscale>
<asrwt>0</asrwt>
<pdfrwt beam="1">  1        1 0.20107719E+00 0.46993609E+03</pdfrwt>
<pdfrwt beam="2">0</pdfrwt>
<totfact> 0.10213809E+01</totfact>
</mgrwt>
</event>
<event>
 6    1  0.2234319E-003  0.6611806E+03  0.7818608E-02  0.9786023E-01
          1   -1    0    0  502    0  0.00000000000E+00  0.00000000000E+00  0.11100813740E+03  0.11100813740E+03  0.00000000000E+00 0.  1.
         13   -1    0    0    0    0 -0.00000000000E+00 -0.00000000000E+00 -0.10000000000E+04  0.10000000000E+04  0.00000000000E+00 0.  1.
    9000005    2    1    2  501    0 -0.94631446236E+00  0.74484836016E+00 -0.89047274590E+03  0.11090993877E+04  0.66117946903E+03 0.  0.
         13    1    3    3    0    0 -0.28082542173E+03  0.89887467721E+02 -0.19329300474E+03  0.35256894365E+03  0.00000000000E+00 0.  1.
          3    1    3    3  501    0  0.27987910727E+03 -0.89142619361E+02 -0.69717974115E+03  0.75653044403E+03  0.00000000000E+00 0.  1.
         21    1    1    2  502  501  0.94631446236E+00 -0.74484836016E+00  0.14808832932E+01  0.19087497137E+01  0.00000000000E+00 0. -1.
<mgrwt>
<rscale>  1 0.66118057E+03</rscale>
<asrwt>0</asrwt>
<pdfrwt beam="1">  1        1 0.40366681E+00 0.66118057E+03</pdfrwt>
<pdfrwt beam="2">0</pdfrwt>
<totfact> 0.12856737E+00</totfact>
</mgrwt>
</event>
<event>
 6    1  0.2234319E-003  0.6375531E+03  0.7818608E-02  0.9830419E-01
          1   -1    0    0  502    0  0.00000000000E+00  0.00000000000E+00  0.10161978125E+03  0.10161978125E+03  0.00000000000E+00 0.  1.
         13   -1    0    0    0    0 -0.00000000000E+00 -0.00000000000E+00 -0.10000000000E+04  0.10000000000E+04  0.00000000000E+00 0.  1.
    9000005    2    1    2  501    0 -0.83028769836E-03  0.70445558163E-03 -0.89838126610E+03  0.11016182704E+04  0.63755306795E+03 0.  0.
         13    1    3    3    0    0 -0.90497413514E+02  0.24217698574E+03 -0.12695455369E+03  0.28802245222E+03  0.00000000000E+00 0.  1.
          3    1    3    3  501    0  0.90496583226E+02 -0.24217628129E+03 -0.77142671241E+03  0.81359581821E+03  0.00000000000E+00 0.  1.
         21    1    1    2  502  501  0.83028769837E-03 -0.70445558162E-03  0.10473471610E-02  0.15108181241E-02  0.00000000000E+00 0. -1.
<mgrwt>
<rscale>  1 0.63755307E+03</rscale>
<asrwt>0</asrwt>
<pdfrwt beam="1">  1        1 0.36952726E+00 0.63755307E+03</pdfrwt>
<pdfrwt beam="2">0</pdfrwt>
<totfact> 0.18288843E+00</totfact>
</mgrwt>
</event>
<event>
 6    1  0.2234319E-003  0.6452288E+03  0.7818608E-02  0.9815773E-01
          1   -1    0    0  502    0  0.00000000000E+00  0.00000000000E+00  0.10432588335E+03  0.10432588335E+03  0.00000000000E+00 0.  1.
         13   -1    0    0    0    0 -0.00000000000E+00 -0.00000000000E+00 -0.10000000000E+04  0.10000000000E+04  0.00000000000E+00 0.  1.
    9000005    2    1    2  501    0 -0.67989925029E+00 -0.36159098933E-01 -0.89520111456E+03  0.11034968469E+04  0.64522848049E+03 0.  0.
         13    1    3    3    0    0 -0.29827847486E+03 -0.74093226372E+02 -0.27851604900E+03  0.41476625262E+03  0.00000000000E+00 0.  1.
          3    1    3    3  501    0  0.29759857561E+03  0.74057067273E+02 -0.61668506556E+03  0.68873059428E+03  0.00000000000E+00 0.  1.
         21    1    1    2  502  501  0.67989925029E+00  0.36159098933E-01 -0.47300208625E+00  0.82903645552E+00  0.00000000000E+00 0.  1.
<mgrwt>
<rscale>  1 0.64522884E+03</rscale>
<asrwt>0</asrwt>
<pdfrwt beam="1">  1        1 0.37936765E+00 0.64522884E+03</pdfrwt>
<pdfrwt beam="2">0</pdfrwt>
<totfact> 0.16529958E+00</totfact>
</mgrwt>
</event>
<event>
 6    1  0.2234319E-003  0.6487792E+03  0.7818608E-02  0.9809073E-01
          1   -1    0    0  502    0  0.00000000000E+00  0.00000000000E+00  0.10522862260E+03  0.10522862260E+03  0.00000000000E+00 0.  1.
         13   -1    0    0    0    0 -0.00000000000E+00 -0.00000000000E+00 -0.10000000000E+04  0.10000000000E+04  0.00000000000E+00 0.  1.
    9000005    2    1    2  501    0 -0.35473488254E-05  0.35102121387E-06 -0.89477138092E+03  0.11052286176E+04  0.64877921747E+03 0.  0.
         13    1    3    3    0    0 -0.23293202839E+03  0.22071573041E+03 -0.52829730295E+03  0.61811876189E+03  0.00000000000E+00 0.  1.
          3    1    3    3  501    0  0.23293202484E+03 -0.22071573006E+03 -0.36647407797E+03  0.48710985570E+03  0.00000000000E+00 0.  1.
         21    1    1    2  502  501  0.35473488343E-05 -0.35102121313E-06  0.35247251255E-05  0.50130416769E-05  0.00000000000E+00 0.  1.
<mgrwt>
<rscale>  1 0.64877922E+03</rscale>
<asrwt>0</asrwt>
<pdfrwt beam="1">  1        1 0.38265034E+00 0.64877922E+03</pdfrwt>
<pdfrwt beam="2">0</pdfrwt>
<totfact> 0.15977062E+00</totfact>
</mgrwt>
</event>
<event>
 6    1  0.2234319E-003  0.6661698E+03  0.7818608E-02  0.9776902E-01
          1   -1    0    0  502    0  0.00000000000E+00  0.00000000000E+00  0.11711703538E+03  0.11711703538E+03  0.00000000000E+00 0.  1.
         13   -1    0    0    0    0 -0.00000000000E+00 -0.00000000000E+00 -0.10000000000E+04  0.10000000000E+04  0.00000000000E+00 0.  1.
    9000005    2    1    2  501    0 -0.16875212021E+00 -0.18436379037E+00 -0.88905164685E+03  0.11109432920E+04  0.66616972667E+03 0.  0.
         13    1    3    3    0    0 -0.31621227246E+03 -0.56050774030E+02 -0.59266516234E+03  0.67408002876E+03  0.00000000000E+00 0.  1.
          3    1    3    3  501    0  0.31604352034E+03  0.55866410240E+02 -0.29638648451E+03  0.43686326321E+03  0.00000000000E+00 0.  1.
         21    1    1    2  502  501  0.16875212021E+00  0.18436379037E+00  0.61686822266E+01  0.61737434104E+01  0.00000000000E+00 0. -1.
<mgrwt>
<rscale>  1 0.66616977E+03</rscale>
<asrwt>0</asrwt>
<pdfrwt beam="1">  1        1 0.42588103E+00 0.66616977E+03</pdfrwt>
<pdfrwt beam="2">0</pdfrwt>
<totfact> 0.10204574E+00</totfact>
</mgrwt>
</event>
<event>
 6    1  0.2234319E-003  0.6145971E+03  0.7818608E-02  0.9875576E-01
          1   -1    0    0  502    0  0.00000000000E+00  0.00000000000E+00  0.94432574605E+02  0.94432574605E+02  0.00000000000E+00 0.  1.
         13   -1    0    0    0    0 -0.00000000000E+00 -0.00000000000E+00 -0.10000000000E+04  0.10000000000E+04  0.00000000000E+00 0.  1.
    9000005    2    1    2  501    0  0.31260320057E-04 -0.21073177493E-04 -0.90556760427E+03  0.10944323918E+04  0.61459708290E+03 0.  0.
         13    1    3    3    0    0 -0.97854985641E+02 -0.20863473236E+03 -0.90772234754E+02  0.24767649942E+03  0.00000000000E+00 0.  1.
          3    1    3    3  501    0  0.97855016901E+02  0.20863471129E+03 -0.81479536952E+03  0.84675589238E+03  0.00000000000E+00 0.  1.
         21    1    1    2  502  501 -0.31260320054E-04  0.21073177519E-04  0.17887866612E-03  0.18280827009E-03  0.00000000000E+00 0.  1.
<mgrwt>
<rscale>  1 0.61459708E+03</rscale>
<asrwt>0</asrwt>
<pdfrwt beam="1">  1        1 0.34339190E+00 0.61459708E+03</pdfrwt>
<pdfrwt beam="2">0</pdfrwt>
<totfact> 0.23885946E+00</totfact>
</mgrwt>
</event>
<event>
 6    1  0.2234319E-003  0.5564825E+03  0.7818608E-02  0.1000005E+00
          1   -1    0    0  502    0  0.00000000000E+00  0.00000000000E+00  0.77429772056E+02  0.77429772056E+02  0.00000000000E+00 0.  1.
         13   -1    0    0    0    0 -0.00000000000E+00 -0.00000000000E+00 -0.10000000000E+04  0.10000000000E+04  0.00000000000E+00 0.  1.
    9000005    2    1    2  501    0 -0.20045765017E-02  0.37452272565E-02 -0.92258138962E+03  0.10774178294E+04  0.55648248717E+03 0.  0.
         13    1    3    3    0    0 -0.16852699025E+03 -0.90712932464E+02 -0.85231061528E+03  0.87353509802E+03  0.00000000000E+00 0.  1.
          3    1    3    3  501    0  0.16852498568E+03  0.90716677691E+02 -0.70270774339E+02  0.20388273133E+03  0.00000000000E+00 0.  1.
         21    1    1    2  502  501  0.20045765017E-02 -0.37452272565E-02  0.11161675605E-01  0.11942698877E-01  0.00000000000E+00 0. -1.
<mgrwt>
<rscale>  1 0.55648249E+03</rscale>
<asrwt>0</asrwt>
<pdfrwt beam="1">  1        1 0.28156340E+00 0.55648249E+03</pdfrwt>
<pdfrwt beam="2">0</pdfrwt>
<totfact> 0.44654972E+00</totfact>
</mgrwt>
</event>
<event>
 6    1  0.2234319E-003  0.6588336E+03  0.7818608E-02  0.9790343E-01
          1   -1    0    0  502    0  0.00000000000E+00  0.00000000000E+00  0.10851687653E+03  0.10851687653E+03  0.00000000000E+00 0.  1.
         13   -1    0    0    0    0 -0.00000000000E+00 -0.00000000000E+00 -0.10000000000E+04  0.10000000000E+04  0.00000000000E+00 0.  1.
    9000005    2    1    2  501    0  0.63366401946E-04  0.32447638009E-03 -0.89148456671E+03  0.11085153959E+04  0.65883355278E+03 0.  0.
         13    1    3    3    0    0  0.17047988362E+03  0.25362658906E+03 -0.23881254671E+03  0.38784181036E+03  0.00000000000E+00 0.  1.
          1    1    3    3  501    0 -0.17047982026E+03 -0.25362626458E+03 -0.65267202001E+03  0.72067358554E+03  0.00000000000E+00 0.  1.
         21    1    1    2  502  501 -0.63366401950E-04 -0.32447638009E-03  0.14432478439E-02  0.14806297853E-02  0.00000000000E+00 0.  1.
<mgrwt>
<rscale>  1 0.65883355E+03</rscale>
<asrwt>0</asrwt>
<pdfrwt beam="1">  1        1 0.39460766E+00 0.65883355E+03</pdfrwt>
<pdfrwt beam="2">0</pdfrwt>
<totfact> 0.14115524E+00</totfact>
</mgrwt>
</event>
<event>
 6    1  0.2234319E-003  0.6336504E+03  0.7818608E-02  0.9837951E-01
          1   -1    0    0  502    0  0.00000000000E+00  0.00000000000E+00  0.10037822946E+03  0.10037822946E+03  0.00000000000E+00 0.  1.
         13   -1    0    0    0    0 -0.00000000000E+00 -0.00000000000E+00 -0.10000000000E+04  0.10000000000E+04  0.00000000000E+00 0.  1.
    9000005    2    1    2  501    0  0.53962272943E-05 -0.55499786242E-05 -0.89962178137E+03  0.11003782161E+04  0.63365043127E+03 0.  0.
         13    1    3    3    0    0 -0.23946776156E+03 -0.19354604249E+03 -0.57945414536E+03  0.65617984269E+03  0.00000000000E+00 0.  1.
          1    1    3    3  501    0  0.23946776695E+03  0.19354603694E+03 -0.32016763602E+03  0.44419837345E+03  0.00000000000E+00 0.  1.
         21    1    1    2  502  501 -0.53962273091E-05  0.55499786110E-05  0.10835264470E-04  0.13316324113E-04  0.00000000000E+00 0. -1.
<mgrwt>
<rscale>  1 0.63365043E+03</rscale>
<asrwt>0</asrwt>
<pdfrwt beam="1">  1        1 0.36501251E+00 0.63365043E+03</pdfrwt>
<pdfrwt beam="2">0</pdfrwt>
<totfact> 0.19155727E+00</totfact>
</mgrwt>
</event>
<event>
 6    1  0.2234319E-003  0.5396060E+03  0.7818608E-02  0.1003929E+00
          1   -1    0    0  502    0  0.00000000000E+00  0.00000000000E+00  0.72794059395E+02  0.72794059395E+02  0.00000000000E+00 0.  1.
         13   -1    0    0    0    0 -0.00000000000E+00 -0.00000000000E+00 -0.10000000000E+04  0.10000000000E+04  0.00000000000E+00 0.  1.
    9000005    2    1    2  501    0 -0.30808716076E-05  0.20008536094E-04 -0.92720633634E+03  0.10727936631E+04  0.53960601696E+03 0.  0.
         13    1    3    3    0    0 -0.21436206487E+03  0.16956750572E+02 -0.78757920233E+03  0.81640653243E+03  0.00000000000E+00 0.  1.
          1    1    3    3  501    0  0.21436206179E+03 -0.16956730563E+02 -0.13962713401E+03  0.25638713072E+03  0.00000000000E+00 0.  1.
         21    1    1    2  502  501  0.30808716006E-05 -0.20008536095E-04  0.39573376493E-03  0.39625124100E-03  0.00000000000E+00 0.  1.
<mgrwt>
<rscale>  1 0.53960602E+03</rscale>
<asrwt>0</asrwt>
<pdfrwt beam="1">  1        1 0.26470623E+00 0.53960602E+03</pdfrwt>
<pdfrwt beam="2">0</pdfrwt>
<totfact> 0.52964197E+00</totfact>
</mgrwt>
</event>
<event>
 6    1  0.2234319E-003  0.6764759E+03  0.7818608E-02  0.9758329E-01
          1   -1    0    0  502    0  0.00000000000E+00  0.00000000000E+00  0.11468636241E+03  0.11468636241E+03  0.00000000000E+00 0.  1.
         13   -1    0    0    0    0 -0.00000000000E+00 -0.00000000000E+00 -0.10000000000E+04  0.10000000000E+04  0.00000000000E+00 0.  1.
    9000005    2    1    2  501    0 -0.27181936881E-01 -0.62328880767E-02 -0.88559432565E+03  0.11144042924E+04  0.67647588021E+03 0.  0.
         13    1    3    3    0    0  0.19630697579E+03  0.25090514050E+03 -0.62994813117E+03  0.70592100566E+03  0.00000000000E+00 0.  1.
          3    1    3    3  501    0 -0.19633415772E+03 -0.25091137339E+03 -0.25564619448E+03  0.40848328673E+03  0.00000000000E+00 0.  1.
         21    1    1    2  502  501  0.27181936881E-01  0.62328880767E-02  0.28068805791E+00  0.28207001337E+00  0.00000000000E+00 0.  1.
<mgrwt>
<rscale>  1 0.67647588E+03</rscale>
<asrwt>0</asrwt>
<pdfrwt beam="1">  1        1 0.41704220E+00 0.67647588E+03</pdfrwt>
<pdfrwt beam="2">0</pdfrwt>
<totfact> 0.11165093E+00</totfact>
</mgrwt>
</event>
<event>
 6    1  0.2234319E-003  0.6477450E+03  0.7818608E-02  0.9811020E-01
          1   -1    0    0  502    0  0.00000000000E+00  0.00000000000E+00  0.10747117104E+03  0.10747117104E+03  0.00000000000E+00 0.  1.
         13   -1    0    0    0    0 -0.00000000000E+00 -0.00000000000E+00 -0.10000000000E+04  0.10000000000E+04  0.00000000000E+00 0.  1.
    9000005    2    1    2  501    0 -0.65702734456E-01  0.10006392412E+00 -0.89510508315E+03  0.11048921373E+04  0.64774494268E+03 0.  0.
         13    1    3    3    0    0 -0.12297135519E+03 -0.25441275848E+02  0.61680998707E+02  0.13990624831E+03  0.00000000000E+00 0.  1.
          1    1    3    3  501    0  0.12290565245E+03  0.25541339772E+02 -0.95678608185E+03  0.96498588895E+03  0.00000000000E+00 0.  1.
         21    1    1    2  502  501  0.65702734456E-01 -0.10006392412E+00  0.25762541904E+01  0.25790337903E+01  0.00000000000E+00 0. -1.
<mgrwt>
<rscale>  1 0.64774495E+03</rscale>
<asrwt>0</asrwt>
<pdfrwt beam="1">  1        1 0.39080508E+00 0.64774495E+03</pdfrwt>
<pdfrwt beam="2">0</pdfrwt>
<totfact> 0.14705587E+00</totfact>
</mgrwt>
</event>
<event>
 6    1  0.2234319E-003  0.6486409E+03  0.7818608E-02  0.9809333E-01
          1   -1    0    0  502    0  0.00000000000E+00  0.00000000000E+00  0.10518383770E+03  0.10518383770E+03  0.00000000000E+00 0.  1.
         13   -1    0    0    0    0 -0.00000000000E+00 -0.00000000000E+00 -0.10000000000E+04  0.10000000000E+04  0.00000000000E+00 0.  1.
    9000005    2    1    2  501    0 -0.73739341794E-04 -0.47427547486E-04 -0.89481623903E+03  0.11051837212E+04  0.64864085282E+03 0.  0.
         13    1    3    3    0    0  0.46241882289E+02 -0.30531942808E+03 -0.61629940653E+03  0.68933534896E+03  0.00000000000E+00 0.  1.
          1    1    3    3  501    0 -0.46241956028E+02  0.30531938065E+03 -0.27851683250E+03  0.41584837223E+03  0.00000000000E+00 0.  1.
         21    1    1    2  502  501  0.73739341794E-04  0.47427547459E-04  0.76731677088E-04  0.11651014143E-03  0.00000000000E+00 0.  1.
<mgrwt>
<rscale>  1 0.64864085E+03</rscale>
<asrwt>0</asrwt>
<pdfrwt beam="1">  1        1 0.38248749E+00 0.64864085E+03</pdfrwt>
<pdfrwt beam="2">0</pdfrwt>
<totfact> 0.16003960E+00</totfact>
</mgrwt>
</event>
<event>
 6    1  0.2234319E-003  0.6860507E+03  0.7818608E-02  0.9741389E-01
          1   -1    0    0  502    0  0.00000000000E+00  0.00000000000E+00  0.11766668505E+03  0.11766668505E+03  0.00000000000E+00 0.  1.
         13   -1    0    0    0    0 -0.00000000000E+00 -0.00000000000E+00 -0.10000000000E+04  0.10000000000E+04  0.00000000000E+00 0.  1.
    9000005    2    1    2  501    0 -0.12741285619E-03  0.28105421933E-04 -0.88233358301E+03  0.11176663869E+04  0.68605072752E+03 0.  0.
         13    1    3    3    0    0  0.25101068802E+03 -0.15295912365E+03 -0.15311213808E+03  0.33143051434E+03  0.00000000000E+00 0.  1.
          1    1    3    3  501    0 -0.25101081544E+03  0.15295915175E+03 -0.72922144494E+03  0.78623587258E+03  0.00000000000E+00 0.  1.
         21    1    1    2  502  501  0.12741285621E-03 -0.28105421950E-04  0.26806395340E-03  0.29813123584E-03  0.00000000000E+00 0.  1.
<mgrwt>
<rscale>  1 0.68605073E+03</rscale>
<asrwt>0</asrwt>
<pdfrwt beam="1">  1        1 0.42787976E+00 0.68605073E+03</pdfrwt>
<pdfrwt beam="2">0</pdfrwt>
<totfact> 0.99554763E-01</totfact>
</mgrwt>
</event>
<event>
 6    1  0.2234319E-003  0.6569027E+03  0.7818608E-02  0.9793912E-01
          1   -1    0    0  502    0  0.00000000000E+00  0.00000000000E+00  0.10792282822E+03  0.10792282822E+03  0.00000000000E+00 0.  1.
         13   -1    0    0    0    0 -0.00000000000E+00 -0.00000000000E+00 -0.10000000000E+04  0.10000000000E+04  0.00000000000E+00 0.  1.
    9000005    2    1    2  501    0  0.64951205011E-02  0.20672331466E-02 -0.89211940553E+03  0.11078800480E+04  0.65690270734E+03 0.  0.
         13    1    3    3    0    0 -0.20234309119E+03  0.79289789549E+02 -0.30715697636E+02  0.21948360157E+03  0.00000000000E+00 0.  1.
          3    1    3    3  501    0  0.20234958631E+03 -0.79287722315E+02 -0.86140370790E+03  0.88839644640E+03  0.00000000000E+00 0.  1.
         21    1    1    2  502  501 -0.64951205011E-02 -0.20672331466E-02  0.42233758335E-01  0.42780256969E-01  0.00000000000E+00 0.  1.
<mgrwt>
<rscale>  1 0.65690271E+03</rscale>
<asrwt>0</asrwt>
<pdfrwt beam="1">  1        1 0.39244748E+00 0.65690271E+03</pdfrwt>
<pdfrwt beam="2">0</pdfrwt>
<totfact> 0.14436142E+00</totfact>
</mgrwt>
</event>
<event>
 6    1  0.2234319E-003  0.6470567E+03  0.7818608E-02  0.9812318E-01
          1   -1    0    0  502    0  0.00000000000E+00  0.00000000000E+00  0.10467087805E+03  0.10467087805E+03  0.00000000000E+00 0.  1.
         13   -1    0    0    0    0 -0.00000000000E+00 -0.00000000000E+00 -0.10000000000E+04  0.10000000000E+04  0.00000000000E+00 0.  1.
    9000005    2    1    2  501    0  0.79489324492E-05 -0.21409299507E-05 -0.89532940822E+03  0.11046705917E+04  0.64705669525E+03 0.  0.
         13    1    3    3    0    0  0.13188864174E+03 -0.21410731542E+03 -0.10015328712E+03  0.27067921468E+03  0.00000000000E+00 0.  1.
          1    1    3    3  501    0 -0.13188863379E+03  0.21410731328E+03 -0.79517612109E+03  0.83399137698E+03  0.00000000000E+00 0.  1.
         21    1    1    2  502  501 -0.79489324601E-05  0.21409299316E-05  0.28626935206E-03  0.28638769359E-03  0.00000000000E+00 0.  1.
<mgrwt>
<rscale>  1 0.64705670E+03</rscale>
<asrwt>0</asrwt>
<pdfrwt beam="1">  1        1 0.38062218E+00 0.64705670E+03</pdfrwt>
<pdfrwt beam="2">0</pdfrwt>
<totfact> 0.16315132E+00</totfact>
</mgrwt>
</event>
<event>
 6    1  0.2234319E-003  0.6302273E+03  0.7818608E-02  0.9844605E-01
          1   -1    0    0  502    0  0.00000000000E+00  0.00000000000E+00  0.99299179196E+02  0.99299179196E+02  0.00000000000E+00 0.  1.
         13   -1    0    0    0    0 -0.00000000000E+00 -0.00000000000E+00 -0.10000000000E+04  0.10000000000E+04  0.00000000000E+00 0.  1.
    9000005    2    1    2  501    0  0.33007504146E-03 -0.18282011794E-03 -0.90070337894E+03  0.10992965934E+04  0.63022727916E+03 0.  0.
         13    1    3    3    0    0  0.19686371249E+03  0.48275047309E+01 -0.21250243171E+02  0.19806614787E+03  0.00000000000E+00 0.  1.
          1    1    3    3  501    0 -0.19686338242E+03 -0.48276875510E+01 -0.87945313577E+03  0.90123044551E+03  0.00000000000E+00 0.  1.
         21    1    1    2  502  501 -0.33007504147E-03  0.18282011794E-03  0.25581344787E-02  0.25858122012E-02  0.00000000000E+00 0. -1.
<mgrwt>
<rscale>  1 0.63022728E+03</rscale>
<asrwt>0</asrwt>
<pdfrwt beam="1">  1        1 0.36108869E+00 0.63022728E+03</pdfrwt>
<pdfrwt beam="2">0</pdfrwt>
<totfact> 0.19941119E+00</totfact>
</mgrwt>
</event>
<event>
 6    1  0.2234319E-003  0.6434673E+03  0.7818608E-02  0.9819115E-01
          1   -1    0    0  502    0  0.00000000000E+00  0.00000000000E+00  0.10351263252E+03  0.10351263252E+03  0.00000000000E+00 0.  1.
         13   -1    0    0    0    0 -0.00000000000E+00 -0.00000000000E+00 -0.10000000000E+04  0.10000000000E+04  0.00000000000E+00 0.  1.
    9000005    2    1    2  501    0 -0.68919011284E-04 -0.11944941349E-04 -0.89648745443E+03  0.11035125209E+04  0.64346727026E+03 0.  0.
         13    1    3    3    0    0  0.36238146076E+02  0.19734374956E+03 -0.87956157357E+03  0.90215648334E+03  0.00000000000E+00 0.  1.
          3    1    3    3  501    0 -0.36238214995E+02 -0.19734376150E+03 -0.16925880857E+02  0.20135603759E+03  0.00000000000E+00 0.  1.
         21    1    1    2  502  501  0.68919011287E-04  0.11944941344E-04  0.86956575958E-04  0.11159730213E-03  0.00000000000E+00 0. -1.
<mgrwt>
<rscale>  1 0.64346727E+03</rscale>
<asrwt>0</asrwt>
<pdfrwt beam="1">  1        1 0.37641037E+00 0.64346727E+03</pdfrwt>
<pdfrwt beam="2">0</pdfrwt>
<totfact> 0.17039113E+00</totfact>
</mgrwt>
</event>
<event>
 6    1  0.2234319E-003  0.6481748E+03  0.7818608E-02  0.9810210E-01
          1   -1    0    0  502    0  0.00000000000E+00  0.00000000000E+00  0.10556871901E+03  0.10556871901E+03  0.00000000000E+00 0.  1.
         13   -1    0    0    0    0 -0.00000000000E+00 -0.00000000000E+00 -0.10000000000E+04  0.10000000000E+04  0.00000000000E+00 0.  1.
    9000005    2    1    2  501    0 -0.15593570758E+00 -0.84476472297E-01 -0.89495109069E+03  0.11050194883E+04  0.64817480931E+03 0.  0.
         13    1    3    3    0    0 -0.13107853188E+03 -0.80249434324E+02 -0.93404390255E+03  0.94660422835E+03  0.00000000000E+00 0.  1.
          3    1    3    3  501    0  0.13092259617E+03  0.80164957852E+02  0.39092811868E+02  0.15841525998E+03  0.00000000000E+00 0.  1.
         21    1    1    2  502  501  0.15593570758E+00  0.84476472297E-01  0.51980969500E+00  0.54923067858E+00  0.00000000000E+00 0. -1.
<mgrwt>
<rscale>  1 0.64817483E+03</rscale>
<asrwt>0</asrwt>
<pdfrwt beam="1">  1        1 0.38388706E+00 0.64817483E+03</pdfrwt>
<pdfrwt beam="2">0</pdfrwt>
<totfact> 0.15779017E+00</totfact>
</mgrwt>
</event>
<event>
 6    1  0.2234319E-003  0.6420045E+03  0.7818608E-02  0.9821899E-01
          3   -1    0    0  502    0  0.00000000000E+00  0.00000000000E+00  0.10647867339E+03  0.10647867339E+03  0.00000000000E+00 0.  1.
         13   -1    0    0    0    0 -0.00000000000E+00 -0.00000000000E+00 -0.10000000000E+04  0.10000000000E+04  0.00000000000E+00 0.  1.
    9000005    2    1    2  501    0  0.18002284231E+01  0.10031525831E+01 -0.89661349459E+03  0.11027626755E+04  0.64200117809E+03 0.  0.
         13    1    3    3    0    0 -0.97679830789E+02 -0.26712760571E+03 -0.19431448214E+03  0.34446570953E+03  0.00000000000E+00 0.  1.
          1    1    3    3  501    0  0.99480059212E+02  0.26813075829E+03 -0.70229901245E+03  0.75829696597E+03  0.00000000000E+00 0.  1.
         21    1    1    2  502  501 -0.18002284231E+01 -0.10031525831E+01  0.30921679828E+01  0.37159978895E+01  0.00000000000E+00 0.  1.
<mgrwt>
<rscale>  1 0.64200449E+03</rscale>
<asrwt>0</asrwt>
<pdfrwt beam="1">  1        3 0.38719599E+00 0.64200449E+03</pdfrwt>
<pdfrwt beam="2">0</pdfrwt>
<totfact> 0.69255179E-02</totfact>
</mgrwt>
</event>
<event>
 6    1  0.2234319E-003  0.6512595E+03  0.7818608E-02  0.9804419E-01
          1   -1    0    0  502    0  0.00000000000E+00  0.00000000000E+00  0.10604944534E+03  0.10604944534E+03  0.00000000000E+00 0.  1.
         13   -1    0    0    0    0 -0.00000000000E+00 -0.00000000000E+00 -0.10000000000E+04  0.10000000000E+04  0.00000000000E+00 0.  1.
    9000005    2    1    2  501    0  0.17676872987E-01 -0.42149363780E-02 -0.89395880907E+03  0.11060294861E+04  0.65125945014E+03 0.  0.
         13    1    3    3    0    0  0.20381813818E+03  0.24453318437E+03 -0.33056836689E+03  0.45892674458E+03  0.00000000000E+00 0.  1.
          1    1    3    3  501    0 -0.20380046130E+03 -0.24453739930E+03 -0.56339044218E+03  0.64710274148E+03  0.00000000000E+00 0.  1.
         21    1    1    2  502  501 -0.17676872987E-01  0.42149363780E-02  0.82544139640E-02  0.19959280477E-01  0.00000000000E+00 0. -1.
<mgrwt>
<rscale>  1 0.65125945E+03</rscale>
<asrwt>0</asrwt>
<pdfrwt beam="1">  1        1 0.38563516E+00 0.65125945E+03</pdfrwt>
<pdfrwt beam="2">0</pdfrwt>
<totfact> 0.15491779E+00</totfact>
</mgrwt>
</event>
<event>
 6    1  0.2234319E-003  0.6593782E+03  0.7818608E-02  0.9789339E-01
          1   -1    0    0  502    0  0.00000000000E+00  0.00000000000E+00  0.10869553681E+03  0.10869553681E+03  0.00000000000E+00 0.  1.
         13   -1    0    0    0    0 -0.00000000000E+00 -0.00000000000E+00 -0.10000000000E+04  0.10000000000E+04  0.00000000000E+00 0.  1.
    9000005    2    1    2  501    0  0.15487681858E-03 -0.28269920773E-03 -0.89130506313E+03  0.11086948558E+04  0.65937816738E+03 0.  0.
         13    1    3    3    0    0 -0.17597148583E+03  0.27430821652E+03 -0.36185347396E+03  0.48697936105E+03  0.00000000000E+00 0.  1.
          3    1    3    3  501    0  0.17597164071E+03 -0.27430849922E+03 -0.52945158917E+03  0.62171549470E+03  0.00000000000E+00 0.  1.
         21    1    1    2  502  501 -0.15487681857E-03  0.28269920775E-03  0.59994151591E-03  0.68105469200E-03  0.00000000000E+00 0. -1.
<mgrwt>
<rscale>  1 0.65937817E+03</rscale>
<asrwt>0</asrwt>
<pdfrwt beam="1">  1        1 0.39525733E+00 0.65937817E+03</pdfrwt>
<pdfrwt beam="2">0</pdfrwt>
<totfact> 0.14020519E+00</totfact>
</mgrwt>
</event>
<event>
 6    1  0.2234319E-003  0.6339721E+03  0.7818608E-02  0.9837328E-01
          1   -1    0    0  502    0  0.00000000000E+00  0.00000000000E+00  0.10050212847E+03  0.10050212847E+03  0.00000000000E+00 0.  1.
         13   -1    0    0    0    0 -0.00000000000E+00 -0.00000000000E+00 -0.10000000000E+04  0.10000000000E+04  0.00000000000E+00 0.  1.
    9000005    2    1    2  501    0 -0.29177139591E-02  0.34582152284E-02 -0.89951957630E+03  0.11004799571E+04  0.63397213491E+03 0.  0.
         13    1    3    3    0    0  0.27583640068E+03 -0.11181729211E+03 -0.26047673653E+03  0.39552112084E+03  0.00000000000E+00 0.  1.
          1    1    3    3  501    0 -0.27583931840E+03  0.11182075033E+03 -0.63904283977E+03  0.70495883627E+03  0.00000000000E+00 0.  1.
         21    1    1    2  502  501  0.29177139591E-02 -0.34582152284E-02  0.21704772201E-01  0.22171365398E-01  0.00000000000E+00 0.  1.
<mgrwt>
<rscale>  1 0.63397213E+03</rscale>
<asrwt>0</asrwt>
<pdfrwt beam="1">  1        1 0.36546306E+00 0.63397213E+03</pdfrwt>
<pdfrwt beam="2">0</pdfrwt>
<totfact> 0.19067716E+00</totfact>
</mgrwt>
</event>
<event>
 6    1  0.2234319E-003  0.6617762E+03  0.7818608E-02  0.9784930E-01
          1   -1    0    0  502    0  0.00000000000E+00  0.00000000000E+00  0.10949858248E+03  0.10949858248E+03  0.00000000000E+00 0.  1.
         13   -1    0    0    0    0 -0.00000000000E+00 -0.00000000000E+00 -0.10000000000E+04  0.10000000000E+04  0.00000000000E+00 0.  1.
    9000005    2    1    2  501    0  0.61142491158E-03 -0.18089142381E-03 -0.89051306122E+03  0.11094869213E+04  0.66177618303E+03 0.  0.
         13    1    3    3    0    0 -0.95938073077E+02  0.20566382482E+03 -0.41546529393E+02  0.23071158794E+03  0.00000000000E+00 0.  1.
          3    1    3    3  501    0  0.95938684501E+02 -0.20566400572E+03 -0.84896653182E+03  0.87877533340E+03  0.00000000000E+00 0.  1.
         21    1    1    2  502  501 -0.61142491158E-03  0.18089142381E-03  0.11643698888E-01  0.11661144280E-01  0.00000000000E+00 0. -1.
<mgrwt>
<rscale>  1 0.66177618E+03</rscale>
<asrwt>0</asrwt>
<pdfrwt beam="1">  1        1 0.39817750E+00 0.66177618E+03</pdfrwt>
<pdfrwt beam="2">0</pdfrwt>
<totfact> 0.13601034E+00</totfact>
</mgrwt>
</event>
<event>
 6    1  0.2234319E-003  0.6501055E+03  0.7818608E-02  0.9806581E-01
          1   -1    0    0  502    0  0.00000000000E+00  0.00000000000E+00  0.10568373476E+03  0.10568373476E+03  0.00000000000E+00 0.  1.
         13   -1    0    0    0    0 -0.00000000000E+00 -0.00000000000E+00 -0.10000000000E+04  0.10000000000E+04  0.00000000000E+00 0.  1.
    9000005    2    1    2  501    0 -0.35599928238E-01 -0.22260176392E-01 -0.89431893745E+03  0.11056416633E+04  0.65010547136E+03 0.  0.
         13    1    3    3    0    0  0.64433099086E+02  0.31836721704E+03 -0.42697411000E+03  0.53648504150E+03  0.00000000000E+00 0.  1.
          3    1    3    3  501    0 -0.64468699014E+02 -0.31838947721E+03 -0.46734482745E+03  0.56915662176E+03  0.00000000000E+00 0.  1.
         21    1    1    2  502  501  0.35599928238E-01  0.22260176392E-01  0.26722174178E-02  0.42071499729E-01  0.00000000000E+00 0.  1.
<mgrwt>
<rscale>  1 0.65010547E+03</rscale>
<asrwt>0</asrwt>
<pdfrwt beam="1">  1        1 0.38430530E+00 0.65010547E+03</pdfrwt>
<pdfrwt beam="2">0</pdfrwt>
<totfact> 0.15706378E+00</totfact>
</mgrwt>
</event>
<event>
 6    1  0.2234319E-003  0.6517914E+03  0.7818608E-02  0.9803424E-01
          1   -1    0    0  502    0  0.00000000000E+00  0.00000000000E+00  0.10626570937E+03  0.10626570937E+03  0.00000000000E+00 0.  1.
         13   -1    0    0    0    0 -0.00000000000E+00 -0.00000000000E+00 -0.10000000000E+04  0.10000000000E+04  0.00000000000E+00 0.  1.
    9000005    2    1    2  501    0 -0.40205945337E-02  0.98119479748E-02 -0.89379144829E+03  0.11062075764E+04  0.65179141528E+03 0.  0.
         13    1    3    3    0    0  0.27705841151E+03 -0.58355383971E+02 -0.17302168342E+03  0.33181804827E+03  0.00000000000E+00 0.  1.
          3    1    3    3  501    0 -0.27706243211E+03  0.58365195919E+02 -0.72076976487E+03  0.77438952817E+03  0.00000000000E+00 0.  1.
         21    1    1    2  502  501  0.40205945337E-02 -0.98119479748E-02  0.57157653603E-01  0.58132924138E-01  0.00000000000E+00 0.  1.
<mgrwt>
<rscale>  1 0.65179142E+03</rscale>
<asrwt>0</asrwt>
<pdfrwt beam="1">  1        1 0.38642158E+00 0.65179142E+03</pdfrwt>
<pdfrwt beam="2">0</pdfrwt>
<totfact> 0.15366617E+00</totfact>
</mgrwt>
</event>
<event>
 6    1  0.2234319E-003  0.6526915E+03  0.7818608E-02  0.9801742E-01
          1   -1    0    0  502    0  0.00000000000E+00  0.00000000000E+00  0.10650334213E+03  0.10650334213E+03  0.00000000000E+00 0.  1.
         13   -1    0    0    0    0 -0.00000000000E+00 -0.00000000000E+00 -0.10000000000E+04  0.10000000000E+04  0.00000000000E+00 0.  1.
    9000005    2    1    2  501    0  0.32209065810E-03  0.86548553008E-03 -0.89349832233E+03  0.11065014386E+04  0.65269149046E+03 0.  0.
         13    1    3    3    0    0 -0.17041939415E+03 -0.22358372093E+03 -0.72772141886E+03  0.78013518934E+03  0.00000000000E+00 0.  1.
          1    1    3    3  501    0  0.17041971624E+03  0.22358458642E+03 -0.16577690347E+03  0.32636624931E+03  0.00000000000E+00 0.  1.
         21    1    1    2  502  501 -0.32209065811E-03 -0.86548553008E-03  0.16644664208E-02  0.19034852405E-02  0.00000000000E+00 0. -1.
<mgrwt>
<rscale>  1 0.65269149E+03</rscale>
<asrwt>0</asrwt>
<pdfrwt beam="1">  1        1 0.38728570E+00 0.65269149E+03</pdfrwt>
<pdfrwt beam="2">0</pdfrwt>
<totfact> 0.15229306E+00</totfact>
</mgrwt>
</event>
<event>
 6    1  0.2234319E-003  0.6726728E+03  0.7818608E-02  0.9765141E-01
          1   -1    0    0  502    0  0.00000000000E+00  0.00000000000E+00  0.11391143778E+03  0.11391143778E+03  0.00000000000E+00 0.  1.
         13   -1    0    0    0    0 -0.00000000000E+00 -0.00000000000E+00 -0.10000000000E+04  0.10000000000E+04  0.00000000000E+00 0.  1.
    9000005    2    1    2  501    0 -0.10571152345E+00 -0.38189072092E-01 -0.88687336608E+03  0.11131186261E+04  0.67267279980E+03 0.  0.
         13    1    3    3    0    0 -0.30125467715E+03  0.14955666869E+03 -0.45204311049E+03  0.56343992705E+03  0.00000000000E+00 0.  1.
          3    1    3    3  501    0  0.30114896563E+03 -0.14959485777E+03 -0.43483025559E+03  0.54967869901E+03  0.00000000000E+00 0.  1.
         21    1    1    2  502  501  0.10571152345E+00  0.38189072092E-01  0.78480385774E+00  0.79281172200E+00  0.00000000000E+00 0. -1.
<mgrwt>
<rscale>  1 0.67267281E+03</rscale>
<asrwt>0</asrwt>
<pdfrwt beam="1">  1        1 0.41422428E+00 0.67267281E+03</pdfrwt>
<pdfrwt beam="2">0</pdfrwt>
<totfact> 0.11504326E+00</totfact>
</mgrwt>
</event>
<event>
 6    1  0.2234319E-003  0.5773723E+03  0.7818608E-02  0.9953496E-01
          1   -1    0    0  502    0  0.00000000000E+00  0.00000000000E+00  0.83682034035E+02  0.83682034035E+02  0.00000000000E+00 0.  1.
         13   -1    0    0    0    0 -0.00000000000E+00 -0.00000000000E+00 -0.10000000000E+04  0.10000000000E+04  0.00000000000E+00 0.  1.
    9000005    2    1    2  501    0 -0.63746930878E-02  0.50274529492E-02 -0.91666025134E+03  0.10833396524E+04  0.57737231143E+03 0.  0.
         13    1    3    3    0    0 -0.20293922870E+02  0.88837572037E+02 -0.97230959728E+03  0.97657048413E+03  0.00000000000E+00 0.  1.
          3    1    3    3  501    0  0.20287548176E+02 -0.88832544584E+02  0.55649345944E+02  0.10676916827E+03  0.00000000000E+00 0.  1.
         21    1    1    2  502  501  0.63746930878E-02 -0.50274529492E-02  0.34228537052E+00  0.34238163921E+00  0.00000000000E+00 0. -1.
<mgrwt>
<rscale>  1 0.57737231E+03</rscale>
<asrwt>0</asrwt>
<pdfrwt beam="1">  1        1 0.30429895E+00 0.57737231E+03</pdfrwt>
<pdfrwt beam="2">0</pdfrwt>
<totfact> 0.35497858E+00</totfact>
</mgrwt>
</event>
<event>
 6    1  0.2234319E-003  0.5090696E+03  0.7818608E-02  0.1011438E+00
          1   -1    0    0  502    0  0.00000000000E+00  0.00000000000E+00  0.64790097457E+02  0.64790097457E+02  0.00000000000E+00 0.  1.
         13   -1    0    0    0    0 -0.00000000000E+00 -0.00000000000E+00 -0.10000000000E+04  0.10000000000E+04  0.00000000000E+00 0.  1.
    9000005    2    1    2  501    0  0.27423702539E-02 -0.37737919392E-02 -0.93520908936E+03  0.10647853621E+04  0.50906956947E+03 0.  0.
         13    1    3    3    0    0  0.13887495025E+03  0.20937291898E+03 -0.55293226385E+03  0.60733628199E+03  0.00000000000E+00 0.  1.
          1    1    3    3  501    0 -0.13887220788E+03 -0.20937669277E+03 -0.38227682550E+03  0.45744908013E+03  0.00000000000E+00 0.  1.
         21    1    1    2  502  501 -0.27423702539E-02  0.37737919393E-02 -0.81318797924E-03  0.47353326071E-02  0.00000000000E+00 0.  1.
<mgrwt>
<rscale>  1 0.50906957E+03</rscale>
<asrwt>0</asrwt>
<pdfrwt beam="1">  1        1 0.23560085E+00 0.50906957E+03</pdfrwt>
<pdfrwt beam="2">0</pdfrwt>
<totfact> 0.71270532E+00</totfact>
</mgrwt>
</event>
<event>
 6    1  0.2234319E-003  0.6530336E+03  0.7818608E-02  0.9801103E-01
          1   -1    0    0  502    0  0.00000000000E+00  0.00000000000E+00  0.10678376282E+03  0.10678376282E+03  0.00000000000E+00 0.  1.
         13   -1    0    0    0    0 -0.00000000000E+00 -0.00000000000E+00 -0.10000000000E+04  0.10000000000E+04  0.00000000000E+00 0.  1.
    9000005    2    1    2  501    0 -0.16635239802E-01  0.61876111284E-02 -0.89338627738E+03  0.11066127988E+04  0.65303357157E+03 0.  0.
         13    1    3    3    0    0  0.60425688273E+02 -0.27879993232E+03 -0.17752327017E+03  0.33599877607E+03  0.00000000000E+00 0.  1.
          3    1    3    3  501    0 -0.60442323513E+02  0.27880611993E+03 -0.71586300721E+03  0.77061402276E+03  0.00000000000E+00 0.  1.
         21    1    1    2  502  501  0.16635239802E-01 -0.61876111284E-02  0.17004020186E+00  0.17096399616E+00  0.00000000000E+00 0. -1.
<mgrwt>
<rscale>  1 0.65303357E+03</rscale>
<asrwt>0</asrwt>
<pdfrwt beam="1">  1        1 0.38830541E+00 0.65303357E+03</pdfrwt>
<pdfrwt beam="2">0</pdfrwt>
<totfact> 0.15070778E+00</totfact>
</mgrwt>
</event>
<event>
 6    1  0.2234319E-003  0.6314156E+03  0.7818608E-02  0.9842290E-01
          1   -1    0    0  502    0  0.00000000000E+00  0.00000000000E+00  0.99671542101E+02  0.99671542101E+02  0.00000000000E+00 0.  1.
         13   -1    0    0    0    0 -0.00000000000E+00 -0.00000000000E+00 -0.10000000000E+04  0.10000000000E+04  0.00000000000E+00 0.  1.
    9000005    2    1    2  501    0  0.14095817053E-03 -0.25038809346E-03 -0.90032838862E+03  0.10996712465E+04  0.63141558667E+03 0.  0.
         13    1    3    3    0    0  0.12705717315E+03  0.17589747516E+03 -0.50780155125E+02  0.22284988484E+03  0.00000000000E+00 0.  1.
          1    1    3    3  501    0 -0.12705703219E+03 -0.17589772555E+03 -0.84954823350E+03  0.87682136169E+03  0.00000000000E+00 0.  1.
         21    1    1    2  502  501 -0.14095817053E-03  0.25038809349E-03 -0.69276947580E-04  0.29557181643E-03  0.00000000000E+00 0.  1.
<mgrwt>
<rscale>  1 0.63141559E+03</rscale>
<asrwt>0</asrwt>
<pdfrwt beam="1">  1        1 0.36244274E+00 0.63141559E+03</pdfrwt>
<pdfrwt beam="2">0</pdfrwt>
<totfact> 0.19666641E+00</totfact>
</mgrwt>
</event>
<event>
 6    1  0.2234319E-003  0.6480521E+03  0.7818608E-02  0.9810441E-01
          1   -1    0    0  502    0  0.00000000000E+00  0.00000000000E+00  0.10499649496E+03  0.10499649496E+03  0.00000000000E+00 0.  1.
         13   -1    0    0    0    0 -0.00000000000E+00 -0.00000000000E+00 -0.10000000000E+04  0.10000000000E+04  0.00000000000E+00 0.  1.
    9000005    2    1    2  501    0 -0.26220077995E-03  0.95625404660E-04 -0.89500712210E+03  0.11049928671E+04  0.64805207186E+03 0.  0.
         13    1    3    3    0    0  0.33093428326E+02  0.64579509717E+01  0.10199346553E+03  0.10742228419E+03  0.00000000000E+00 0.  1.
          3    1    3    3  501    0 -0.33093690527E+02 -0.64578553463E+01 -0.99700058763E+03  0.99757058296E+03  0.00000000000E+00 0.  1.
         21    1    1    2  502  501  0.26220077995E-03 -0.95625404661E-04  0.36170600101E-02  0.36278115420E-02  0.00000000000E+00 0. -1.
<mgrwt>
<rscale>  1 0.64805207E+03</rscale>
<asrwt>0</asrwt>
<pdfrwt beam="1">  1        1 0.38180624E+00 0.64805207E+03</pdfrwt>
<pdfrwt beam="2">0</pdfrwt>
<totfact> 0.16116976E+00</totfact>
</mgrwt>
</event>
<event>
 6    1  0.2234319E-003  0.6432735E+03  0.7818608E-02  0.9819484E-01
          1   -1    0    0  502    0  0.00000000000E+00  0.00000000000E+00  0.10350321644E+03  0.10350321644E+03  0.00000000000E+00 0.  1.
         13   -1    0    0    0    0 -0.00000000000E+00 -0.00000000000E+00 -0.10000000000E+04  0.10000000000E+04  0.00000000000E+00 0.  1.
    9000005    2    1    2  501    0  0.34986458848E-01 -0.28782755210E-01 -0.89653892963E+03  0.11034413392E+04  0.64327345251E+03 0.  0.
         13    1    3    3    0    0 -0.27382006613E+03 -0.13039104000E+03 -0.63192869879E+03  0.70093732408E+03  0.00000000000E+00 0.  1.
          3    1    3    3  501    0  0.27385505259E+03  0.13036225724E+03 -0.26461023083E+03  0.40250401514E+03  0.00000000000E+00 0.  1.
         21    1    1    2  502  501 -0.34986458848E-01  0.28782755210E-01  0.42146067315E-01  0.61877219478E-01  0.00000000000E+00 0.  1.
<mgrwt>
<rscale>  1 0.64327345E+03</rscale>
<asrwt>0</asrwt>
<pdfrwt beam="1">  1        1 0.37637613E+00 0.64327345E+03</pdfrwt>
<pdfrwt beam="2">0</pdfrwt>
<totfact> 0.17045636E+00</totfact>
</mgrwt>
</event>
<event>
 6    1  0.2234319E-003  0.6056714E+03  0.7818608E-02  0.9893709E-01
          3   -1    0    0  502    0  0.00000000000E+00  0.00000000000E+00  0.92454008165E+02  0.92454008165E+02  0.00000000000E+00 0.  1.
         13   -1    0    0    0    0 -0.00000000000E+00 -0.00000000000E+00 -0.10000000000E+04  0.10000000000E+04  0.00000000000E+00 0.  1.
    9000005    2    1    2  501    0  0.36816930573E+00 -0.31388120550E+00 -0.90820390314E+03  0.10916373581E+04  0.60567116313E+03 0.  0.
         13    1    3    3    0    0 -0.14482181302E+03  0.23873473107E+03 -0.24349049406E+03  0.37047975659E+03  0.00000000000E+00 0.  1.
          1    1    3    3  501    0  0.14518998232E+03 -0.23904861228E+03 -0.66471340908E+03  0.72115760151E+03  0.00000000000E+00 0.  1.
         21    1    1    2  502  501 -0.36816930573E+00  0.31388120550E+00  0.65791130380E+00  0.81665006736E+00  0.00000000000E+00 0. -1.
<mgrwt>
<rscale>  1 0.60567136E+03</rscale>
<asrwt>0</asrwt>
<pdfrwt beam="1">  1        3 0.33619710E+00 0.60567136E+03</pdfrwt>
<pdfrwt beam="2">0</pdfrwt>
<totfact> 0.12992613E-01</totfact>
</mgrwt>
</event>
<event>
 6    1  0.2234319E-003  0.6429501E+03  0.7818608E-02  0.9820099E-01
          1   -1    0    0  502    0  0.00000000000E+00  0.00000000000E+00  0.10343159415E+03  0.10343159415E+03  0.00000000000E+00 0.  1.
         13   -1    0    0    0    0 -0.00000000000E+00 -0.00000000000E+00 -0.10000000000E+04  0.10000000000E+04  0.00000000000E+00 0.  1.
    9000005    2    1    2  501    0 -0.87182631068E-01  0.29577238911E-01 -0.89662555434E+03  0.11033232356E+04  0.64295005177E+03 0.  0.
         13    1    3    3    0    0 -0.36482186298E+02  0.28190771621E+03 -0.19061960334E+03  0.34225537769E+03  0.00000000000E+00 0.  1.
          3    1    3    3  501    0  0.36395003667E+02 -0.28187813897E+03 -0.70600595099E+03  0.76106785792E+03  0.00000000000E+00 0.  1.
         21    1    1    2  502  501  0.87182631068E-01 -0.29577238911E-01  0.57148487069E-01  0.10835854279E+00  0.00000000000E+00 0.  1.
<mgrwt>
<rscale>  1 0.64295006E+03</rscale>
<asrwt>0</asrwt>
<pdfrwt beam="1">  1        1 0.37611568E+00 0.64295006E+03</pdfrwt>
<pdfrwt beam="2">0</pdfrwt>
<totfact> 0.17091730E+00</totfact>
</mgrwt>
</event>
<event>
 6    1  0.2234319E-003  0.6652773E+03  0.7818608E-02  0.9778527E-01
          1   -1    0    0  502    0  0.00000000000E+00  0.00000000000E+00  0.11092193352E+03  0.11092193352E+03  0.00000000000E+00 0.  1.
         13   -1    0    0    0    0 -0.00000000000E+00 -0.00000000000E+00 -0.10000000000E+04  0.10000000000E+04  0.00000000000E+00 0.  1.
    9000005    2    1    2  501    0  0.28646864345E-02 -0.69157538351E-02 -0.88935146172E+03  0.11106484358E+04  0.66527732973E+03 0.  0.
         13    1    3    3    0    0  0.12430939194E+03  0.30157513104E+03 -0.55346067343E+03  0.64243217667E+03  0.00000000000E+00 0.  1.
          1    1    3    3  501    0 -0.12430652725E+03 -0.30158204680E+03 -0.33589078829E+03  0.46821625914E+03  0.00000000000E+00 0.  1.
         21    1    1    2  502  501 -0.28646864345E-02  0.69157538351E-02  0.27339524874E+00  0.27349770769E+00  0.00000000000E+00 0. -1.
<mgrwt>
<rscale>  1 0.66527733E+03</rscale>
<asrwt>0</asrwt>
<pdfrwt beam="1">  1        1 0.40335334E+00 0.66527733E+03</pdfrwt>
<pdfrwt beam="2">0</pdfrwt>
<totfact> 0.12888322E+00</totfact>
</mgrwt>
</event>
<event>
 6    1  0.2234319E-003  0.6739485E+03  0.7818608E-02  0.9762851E-01
          1   -1    0    0  502    0  0.00000000000E+00  0.00000000000E+00  0.11399099513E+03  0.11399099513E+03  0.00000000000E+00 0.  1.
         13   -1    0    0    0    0 -0.00000000000E+00 -0.00000000000E+00 -0.10000000000E+04  0.10000000000E+04  0.00000000000E+00 0.  1.
    9000005    2    1    2  501    0  0.24397254647E-01  0.32651801908E-01 -0.88644728876E+03  0.11135508200E+04  0.67394853759E+03 0.  0.
         13    1    3    3    0    0  0.29384228261E+03 -0.15541155834E+03 -0.35186235934E+03  0.48404871597E+03  0.00000000000E+00 0.  1.
          3    1    3    3  501    0 -0.29381788535E+03  0.15544421014E+03 -0.53458492942E+03  0.62950210404E+03  0.00000000000E+00 0.  1.
         21    1    1    2  502  501 -0.24397254647E-01 -0.32651801908E-01  0.43828389429E+00  0.44017512219E+00  0.00000000000E+00 0.  1.
<mgrwt>
<rscale>  1 0.67394854E+03</rscale>
<asrwt>0</asrwt>
<pdfrwt beam="1">  1        1 0.41451358E+00 0.67394854E+03</pdfrwt>
<pdfrwt beam="2">0</pdfrwt>
<totfact> 0.11467132E+00</totfact>
</mgrwt>
</event>
<event>
 6    1  0.2234319E-003  0.6479907E+03  0.7818608E-02  0.9810557E-01
          1   -1    0    0  502    0  0.00000000000E+00  0.00000000000E+00  0.11646314166E+03  0.11646314166E+03  0.00000000000E+00 0.  1.
         13   -1    0    0    0    0 -0.00000000000E+00 -0.00000000000E+00 -0.10000000000E+04  0.10000000000E+04  0.00000000000E+00 0.  1.
    9000005    2    1    2  501    0  0.11806779854E+02  0.10634459648E+02 -0.88861117417E+03  0.10997826002E+04  0.64779584519E+03 0.  0.
         13    1    3    3    0    0 -0.11121013672E+03 -0.11464635909E+03  0.31728641892E+02  0.16284406307E+03  0.00000000000E+00 0.  1.
          3    1    3    3  501    0  0.12301691657E+03  0.12528081874E+03 -0.92033981606E+03  0.93693853712E+03  0.00000000000E+00 0.  1.
         21    1    1    2  502  501 -0.11806779854E+02 -0.10634459648E+02  0.50743158255E+01  0.16680541467E+02  0.00000000000E+00 0.  1.
<mgrwt>
<rscale>  1 0.64799070E+03</rscale>
<asrwt>0</asrwt>
<pdfrwt beam="1">  1        1 0.42350323E+00 0.64799070E+03</pdfrwt>
<pdfrwt beam="2">0</pdfrwt>
<totfact> 0.10498158E+00</totfact>
</mgrwt>
</event>
<event>
 6    1  0.2234319E-003  0.7547537E+03  0.7818608E-02  0.9627922E-01
          1   -1    0    0  502    0  0.00000000000E+00  0.00000000000E+00  0.14336490999E+03  0.14336490999E+03  0.00000000000E+00 0.  1.
         13   -1    0    0    0    0 -0.00000000000E+00 -0.00000000000E+00 -0.10000000000E+04  0.10000000000E+04  0.00000000000E+00 0.  1.
    9000005    2    1    2  501    0 -0.92825300859E-02 -0.10000902440E+00 -0.85758367104E+03  0.11424110264E+04  0.75475372823E+03 0.  0.
         13    1    3    3    0    0 -0.10494742587E+03  0.30735650794E+03 -0.71951019477E+03  0.78941554681E+03  0.00000000000E+00 0.  1.
          1    1    3    3  501    0  0.10493814334E+03 -0.30745651696E+03 -0.13807347627E+03  0.35299547957E+03  0.00000000000E+00 0.  1.
         21    1    1    2  502  501  0.92825300859E-02  0.10000902440E+00  0.94858103183E+00  0.95388361149E+00  0.00000000000E+00 0. -1.
<mgrwt>
<rscale>  1 0.75475373E+03</rscale>
<asrwt>0</asrwt>
<pdfrwt beam="1">  1        1 0.52132804E+00 0.75475373E+03</pdfrwt>
<pdfrwt beam="2">0</pdfrwt>
<totfact> 0.35598147E-01</totfact>
</mgrwt>
</event>
<event>
 6    1  0.2234319E-003  0.6521239E+03  0.7818608E-02  0.9802802E-01
          1   -1    0    0  502    0  0.00000000000E+00  0.00000000000E+00  0.10631661085E+03  0.10631661085E+03  0.00000000000E+00 0.  1.
         13   -1    0    0    0    0 -0.00000000000E+00 -0.00000000000E+00 -0.10000000000E+04  0.10000000000E+04  0.00000000000E+00 0.  1.
    9000005    2    1    2  501    0 -0.22113814805E-03  0.26720148219E-03 -0.89368345783E+03  0.11063162573E+04  0.65212386732E+03 0.  0.
         13    1    3    3    0    0 -0.59907734257E+02  0.31473456295E+03 -0.34407237492E+03  0.47014102237E+03  0.00000000000E+00 0.  1.
          3    1    3    3  501    0  0.59907513119E+02 -0.31473429575E+03 -0.54961108291E+03  0.63617523490E+03  0.00000000000E+00 0.  1.
         21    1    1    2  502  501  0.22113814804E-03 -0.26720148220E-03  0.68680972311E-04  0.35357571829E-03  0.00000000000E+00 0. -1.
<mgrwt>
<rscale>  1 0.65212387E+03</rscale>
<asrwt>0</asrwt>
<pdfrwt beam="1">  1        1 0.38660667E+00 0.65212387E+03</pdfrwt>
<pdfrwt beam="2">0</pdfrwt>
<totfact> 0.15336710E+00</totfact>
</mgrwt>
</event>
<event>
 6    1  0.2234319E-003  0.6432777E+03  0.7818608E-02  0.9819476E-01
          1   -1    0    0  502    0  0.00000000000E+00  0.00000000000E+00  0.10445216487E+03  0.10445216487E+03  0.00000000000E+00 0.  1.
         13   -1    0    0    0    0 -0.00000000000E+00 -0.00000000000E+00 -0.10000000000E+04  0.10000000000E+04  0.00000000000E+00 0.  1.
    9000005    2    1    2  501    0  0.33051691131E+00 -0.14797441762E+00 -0.89651217547E+03  0.11034220726E+04  0.64327759042E+03 0.  0.
         13    1    3    3    0    0  0.10936985138E+03  0.30010749284E+03 -0.51280652804E+03  0.60414965600E+03  0.00000000000E+00 0.  1.
          1    1    3    3  501    0 -0.10903933447E+03 -0.30025546726E+03 -0.38370564743E+03  0.49927241657E+03  0.00000000000E+00 0.  1.
         21    1    1    2  502  501 -0.33051691131E+00  0.14797441762E+00  0.96434034145E+00  0.10300923022E+01  0.00000000000E+00 0. -1.
<mgrwt>
<rscale>  1 0.64327769E+03</rscale>
<asrwt>0</asrwt>
<pdfrwt beam="1">  1        1 0.37982686E+00 0.64327769E+03</pdfrwt>
<pdfrwt beam="2">0</pdfrwt>
<totfact> 0.16458953E+00</totfact>
</mgrwt>
</event>
<event>
 6    1  0.2234319E-003  0.6025256E+03  0.7818608E-02  0.9900180E-01
          1   -1    0    0  502    0  0.00000000000E+00  0.00000000000E+00  0.90759315629E+02  0.90759315629E+02  0.00000000000E+00 0.  1.
         13   -1    0    0    0    0 -0.00000000000E+00 -0.00000000000E+00 -0.10000000000E+04  0.10000000000E+04  0.00000000000E+00 0.  1.
    9000005    2    1    2  501    0 -0.19343611086E-04 -0.11370679999E-04 -0.90924073576E+03  0.10907592596E+04  0.60252555691E+03 0.  0.
         13    1    3    3    0    0 -0.58539873639E+02 -0.22533164420E+03 -0.80075468074E+03  0.83391206095E+03  0.00000000000E+00 0.  1.
          3    1    3    3  501    0  0.58539854295E+02  0.22533163283E+03 -0.10848605502E+03  0.25684719860E+03  0.00000000000E+00 0.  1.
         21    1    1    2  502  501  0.19343611082E-04  0.11370680009E-04  0.51389943253E-04  0.56074895641E-04  0.00000000000E+00 0.  1.
<mgrwt>
<rscale>  1 0.60252556E+03</rscale>
<asrwt>0</asrwt>
<pdfrwt beam="1">  1        1 0.33003457E+00 0.60252556E+03</pdfrwt>
<pdfrwt beam="2">0</pdfrwt>
<totfact> 0.27354819E+00</totfact>
</mgrwt>
</event>
<event>
 6    1  0.2234319E-003  0.6361535E+03  0.7818608E-02  0.9833114E-01
          1   -1    0    0  502    0  0.00000000000E+00  0.00000000000E+00  0.10138173290E+03  0.10138173290E+03  0.00000000000E+00 0.  1.
         13   -1    0    0    0    0 -0.00000000000E+00 -0.00000000000E+00 -0.10000000000E+04  0.10000000000E+04  0.00000000000E+00 0.  1.
    9000005    2    1    2  501    0  0.95813090868E-02 -0.24599058818E-01 -0.89882625150E+03  0.11011720798E+04  0.63615353354E+03 0.  0.
         13    1    3    3    0    0  0.12131400473E+03 -0.11377894790E+03  0.19908204336E+02  0.16750842764E+03  0.00000000000E+00 0.  1.
          1    1    3    3  501    0 -0.12130442343E+03  0.11375434884E+03 -0.91873445583E+03  0.93366365216E+03  0.00000000000E+00 0.  1.
         21    1    1    2  502  501 -0.95813090868E-02  0.24599058818E-01  0.20798440133E+00  0.20965310963E+00  0.00000000000E+00 0. -1.
<mgrwt>
<rscale>  1 0.63615353E+03</rscale>
<asrwt>0</asrwt>
<pdfrwt beam="1">  1        1 0.36866162E+00 0.63615353E+03</pdfrwt>
<pdfrwt beam="2">0</pdfrwt>
<totfact> 0.18454277E+00</totfact>
</mgrwt>
</event>
<event>
 6    1  0.2234319E-003  0.6535307E+03  0.7818608E-02  0.9800177E-01
          1   -1    0    0  502    0  0.00000000000E+00  0.00000000000E+00  0.10677588689E+03  0.10677588689E+03  0.00000000000E+00 0.  1.
         13   -1    0    0    0    0 -0.00000000000E+00 -0.00000000000E+00 -0.10000000000E+04  0.10000000000E+04  0.00000000000E+00 0.  1.
    9000005    2    1    2  501    0  0.34383029572E-04 -0.17780904273E-04 -0.89322441705E+03  0.11067755805E+04  0.65353066214E+03 0.  0.
         13    1    3    3    0    0 -0.15710022079E+03 -0.26883053359E+03 -0.27874521379E+03  0.41791055188E+03  0.00000000000E+00 0.  1.
          3    1    3    3  501    0  0.15710025517E+03  0.26883051581E+03 -0.61447920327E+03  0.68886502862E+03  0.00000000000E+00 0.  1.
         21    1    1    2  502  501 -0.34383029560E-04  0.17780904296E-04  0.30394450902E-03  0.30639944165E-03  0.00000000000E+00 0. -1.
<mgrwt>
<rscale>  1 0.65353066E+03</rscale>
<asrwt>0</asrwt>
<pdfrwt beam="1">  1        1 0.38827677E+00 0.65353066E+03</pdfrwt>
<pdfrwt beam="2">0</pdfrwt>
<totfact> 0.15073794E+00</totfact>
</mgrwt>
</event>
<event>
 6    1  0.2234319E-003  0.6511834E+03  0.7818608E-02  0.9804561E-01
          1   -1    0    0  502    0  0.00000000000E+00  0.00000000000E+00  0.13177931760E+03  0.13177931760E+03  0.00000000000E+00 0.  1.
         13   -1    0    0    0    0 -0.00000000000E+00 -0.00000000000E+00 -0.10000000000E+04  0.10000000000E+04  0.00000000000E+00 0.  1.
    9000005    2    1    2  501    0  0.26410208318E+02 -0.70009958041E+02 -0.78122782424E+03  0.10170332907E+04  0.64687008557E+03 0.  0.
         13    1    3    3    0    0 -0.19349829766E+03  0.14263332945E+03 -0.82285403568E+02  0.25408019503E+03  0.00000000000E+00 0.  1.
          3    1    3    3  501    0  0.21990850597E+03 -0.21264328749E+03 -0.69894242067E+03  0.76295309563E+03  0.00000000000E+00 0.  1.
         21    1    1    2  502  501 -0.26410208318E+02  0.70009958041E+02 -0.86992858159E+02  0.11474602694E+03  0.00000000000E+00 0.  1.
<mgrwt>
<rscale>  1 0.65118339E+03</rscale>
<asrwt>0</asrwt>
<pdfrwt beam="1">  1        1 0.47919853E+00 0.65118339E+03</pdfrwt>
<pdfrwt beam="2">0</pdfrwt>
<totfact> 0.58067027E-01</totfact>
</mgrwt>
</event>
<event>
 6    1  0.2234319E-003  0.6440481E+03  0.7818608E-02  0.9818012E-01
          1   -1    0    0  502    0  0.00000000000E+00  0.00000000000E+00  0.10774918915E+03  0.10774918915E+03  0.00000000000E+00 0.  1.
         13   -1    0    0    0    0 -0.00000000000E+00 -0.00000000000E+00 -0.10000000000E+04  0.10000000000E+04  0.00000000000E+00 0.  1.
    9000005    2    1    2  501    0 -0.10782308018E-01  0.56428142316E-01 -0.89630029734E+03  0.11036992952E+04  0.64404806331E+03 0.  0.
         13    1    3    3    0    0 -0.14891076206E+03  0.10065822073E+03 -0.90607829398E+03  0.92373392667E+03  0.00000000000E+00 0.  1.
          3    1    3    3  501    0  0.14889997976E+03 -0.10060179259E+03  0.97779966407E+01  0.17996536851E+03  0.00000000000E+00 0.  1.
         21    1    1    2  502  501  0.10782308018E-01 -0.56428142316E-01  0.40494864838E+01  0.40498939710E+01  0.00000000000E+00 0.  1.
<mgrwt>
<rscale>  1 0.64404807E+03</rscale>
<asrwt>0</asrwt>
<pdfrwt beam="1">  1        1 0.39181606E+00 0.64404807E+03</pdfrwt>
<pdfrwt beam="2">0</pdfrwt>
<totfact> 0.14564630E+00</totfact>
</mgrwt>
</event>
<event>
 6    1  0.2234319E-003  0.6533482E+03  0.7818608E-02  0.9800517E-01
          1   -1    0    0  502    0  0.00000000000E+00  0.00000000000E+00  0.10672290294E+03  0.10672290294E+03  0.00000000000E+00 0.  1.
         13   -1    0    0    0    0 -0.00000000000E+00 -0.00000000000E+00 -0.10000000000E+04  0.10000000000E+04  0.00000000000E+00 0.  1.
    9000005    2    1    2  501    0 -0.47431416516E-03 -0.18809624781E-03 -0.89328402927E+03  0.11067159520E+04  0.65334817777E+03 0.  0.
         13    1    3    3    0    0 -0.26818435817E+03 -0.37703418299E+02 -0.75608527302E+03  0.80312473364E+03  0.00000000000E+00 0.  1.
          1    1    3    3  501    0  0.26818388386E+03  0.37703230203E+02 -0.13719875626E+03  0.30359121833E+03  0.00000000000E+00 0.  1.
         21    1    1    2  502  501  0.47431416517E-03  0.18809624781E-03  0.69322144309E-02  0.69509676335E-02  0.00000000000E+00 0. -1.
<mgrwt>
<rscale>  1 0.65334818E+03</rscale>
<asrwt>0</asrwt>
<pdfrwt beam="1">  1        1 0.38808410E+00 0.65334818E+03</pdfrwt>
<pdfrwt beam="2">0</pdfrwt>
<totfact> 0.15103962E+00</totfact>
</mgrwt>
</event>
<event>
 6    1  0.2589009E-003  0.6499891E+03  0.7818608E-02  0.9806800E-01
          1   -1    0    0  502    0  0.00000000000E+00  0.00000000000E+00  0.10562144923E+03  0.10562144923E+03  0.00000000000E+00 0.  1.
         13   -1    0    0    0    0 -0.00000000000E+00 -0.00000000000E+00 -0.10000000000E+04  0.10000000000E+04  0.00000000000E+00 0.  1.
    9000005    2    1    2  501    0 -0.56740933019E-06  0.16584722644E-05 -0.89437855381E+03  0.11056214457E+04  0.64998906431E+03 0.  0.
         13    1    3    3    0    0  0.11267885743E+03  0.23489627770E+02  0.69790197584E+02  0.13460668335E+03  0.00000000000E+00 0.  1.
          1    1    3    3  501    0 -0.11267885800E+03 -0.23489626112E+02 -0.96416875139E+03  0.97101476237E+03  0.00000000000E+00 0.  1.
         21    1    1    2  502  501  0.56740932282E-06 -0.16584722644E-05  0.30398677487E-05  0.35090282873E-05  0.00000000000E+00 0.  1.
<mgrwt>
<rscale>  1 0.64998906E+03</rscale>
<asrwt>0</asrwt>
<pdfrwt beam="1">  1        1 0.38407881E+00 0.64998906E+03</pdfrwt>
<pdfrwt beam="2">0</pdfrwt>
<totfact> 0.15742975E+00</totfact>
</mgrwt>
</event>
<event>
 6    1  0.2234319E-003  0.6492040E+03  0.7818608E-02  0.9808274E-01
          1   -1    0    0  502    0  0.00000000000E+00  0.00000000000E+00  0.10650836265E+03  0.10650836265E+03  0.00000000000E+00 0.  1.
         13   -1    0    0    0    0 -0.00000000000E+00 -0.00000000000E+00 -0.10000000000E+04  0.10000000000E+04  0.00000000000E+00 0.  1.
    9000005    2    1    2  501    0 -0.44897665359E+00 -0.34610772760E+01 -0.88929386636E+03  0.11010492494E+04  0.64919464589E+03 0.  0.
         13    1    3    3    0    0 -0.26674502312E+03  0.68633728351E+02 -0.73508555431E+03  0.78499316442E+03  0.00000000000E+00 0.  1.
          1    1    3    3  501    0  0.26629604646E+03 -0.72094805627E+02 -0.15420831206E+03  0.31605608500E+03  0.00000000000E+00 0.  1.
         21    1    1    2  502  501  0.44897665359E+00  0.34610772760E+01 -0.41977709898E+01  0.54591132273E+01  0.00000000000E+00 0.  1.
<mgrwt>
<rscale>  1 0.64920403E+03</rscale>
<asrwt>0</asrwt>
<pdfrwt beam="1">  1        1 0.38730395E+00 0.64920403E+03</pdfrwt>
<pdfrwt beam="2">0</pdfrwt>
<totfact> 0.15236318E+00</totfact>
</mgrwt>
</event>
<event>
 6    1  0.2234319E-003  0.6427989E+03  0.7818608E-02  0.9820386E-01
          1   -1    0    0  502    0  0.00000000000E+00  0.00000000000E+00  0.10342466918E+03  0.10342466918E+03  0.00000000000E+00 0.  1.
         13   -1    0    0    0    0 -0.00000000000E+00 -0.00000000000E+00 -0.10000000000E+04  0.10000000000E+04  0.00000000000E+00 0.  1.
    9000005    2    1    2  501    0 -0.18761177050E-02 -0.36632456039E-03 -0.89670238458E+03  0.11032976010E+04  0.64279890319E+03 0.  0.
         13    1    3    3    0    0 -0.21733007161E+03 -0.20444035900E+03 -0.24331745308E+03  0.38500857573E+03  0.00000000000E+00 0.  1.
          1    1    3    3  501    0  0.21732819549E+03  0.20443999268E+03 -0.65338493150E+03  0.71828902531E+03  0.00000000000E+00 0.  1.
         21    1    1    2  502  501  0.18761177050E-02  0.36632456038E-03  0.12705376613E+00  0.12706814510E+00  0.00000000000E+00 0. -1.
<mgrwt>
<rscale>  1 0.64279890E+03</rscale>
<asrwt>0</asrwt>
<pdfrwt beam="1">  1        1 0.37609050E+00 0.64279890E+03</pdfrwt>
<pdfrwt beam="2">0</pdfrwt>
<totfact> 0.17096569E+00</totfact>
</mgrwt>
</event>
<event>
 6    1  0.2234319E-003  0.6396453E+03  0.7818608E-02  0.9826405E-01
          3   -1    0    0  502    0  0.00000000000E+00  0.00000000000E+00  0.10229146913E+03  0.10229146913E+03  0.00000000000E+00 0.  1.
         13   -1    0    0    0    0 -0.00000000000E+00 -0.00000000000E+00 -0.10000000000E+04  0.10000000000E+04  0.00000000000E+00 0.  1.
    9000005    2    1    2  501    0  0.62182222774E-03  0.56555903993E-03 -0.89771342220E+03  0.11022865061E+04  0.63964533388E+03 0.  0.
         13    1    3    3    0    0  0.27450922800E+03 -0.83158714977E+02 -0.20505141600E+03  0.35258583542E+03  0.00000000000E+00 0.  1.
          1    1    3    3  501    0 -0.27450860618E+03  0.83159280536E+02 -0.69266200620E+03  0.74970067069E+03  0.00000000000E+00 0.  1.
         21    1    1    2  502  501 -0.62182222774E-03 -0.56555903992E-03  0.48913257031E-02  0.49630219670E-02  0.00000000000E+00 0.  1.
<mgrwt>
<rscale>  1 0.63964533E+03</rscale>
<asrwt>0</asrwt>
<pdfrwt beam="1">  1        3 0.37196976E+00 0.63964533E+03</pdfrwt>
<pdfrwt beam="2">0</pdfrwt>
<totfact> 0.83374875E-02</totfact>
</mgrwt>
</event>
<event>
 6    1  0.2234319E-003  0.6329442E+03  0.7818608E-02  0.9839320E-01
          1   -1    0    0  502    0  0.00000000000E+00  0.00000000000E+00  0.10015474547E+03  0.10015474547E+03  0.00000000000E+00 0.  1.
         13   -1    0    0    0    0 -0.00000000000E+00 -0.00000000000E+00 -0.10000000000E+04  0.10000000000E+04  0.00000000000E+00 0.  1.
    9000005    2    1    2  501    0 -0.55081085861E-05  0.69923883785E-05 -0.89984541068E+03  0.11001545891E+04  0.63294419716E+03 0.  0.
         13    1    3    3    0    0  0.24483474637E+03  0.11940382040E+03 -0.72993962688E+03  0.77911050836E+03  0.00000000000E+00 0.  1.
          3    1    3    3  501    0 -0.24483475188E+03 -0.11940381341E+03 -0.16990578380E+03  0.32104408070E+03  0.00000000000E+00 0.  1.
         21    1    1    2  502  501  0.55081085743E-05 -0.69923883898E-05  0.15614684148E-03  0.15640034801E-03  0.00000000000E+00 0.  1.
<mgrwt>
<rscale>  1 0.63294420E+03</rscale>
<asrwt>0</asrwt>
<pdfrwt beam="1">  1        1 0.36419984E+00 0.63294420E+03</pdfrwt>
<pdfrwt beam="2">0</pdfrwt>
<totfact> 0.19315906E+00</totfact>
</mgrwt>
</event>
<event>
 6    1  0.2234319E-003  0.6432551E+03  0.7818608E-02  0.9819518E-01
          1   -1    0    0  502    0  0.00000000000E+00  0.00000000000E+00  0.13475385367E+03  0.13475385367E+03  0.00000000000E+00 0.  1.
         13   -1    0    0    0    0 -0.00000000000E+00 -0.00000000000E+00 -0.10000000000E+04  0.10000000000E+04  0.00000000000E+00 0.  1.
    9000005    2    1    2  501    0  0.40758896110E+01 -0.10537530688E+02 -0.89542708251E+03  0.11025274462E+04  0.64315585757E+03 0.  0.
         13    1    3    3    0    0  0.27781067244E+03  0.26726972458E+02 -0.72758630594E+03  0.77927846972E+03  0.00000000000E+00 0.  1.
          1    1    3    3  501    0 -0.27373478283E+03 -0.37264503146E+02 -0.16784077657E+03  0.32324897649E+03  0.00000000000E+00 0.  1.
         21    1    1    2  502  501 -0.40758896110E+01  0.10537530688E+02  0.30180936176E+02  0.32226407457E+02  0.00000000000E+00 0.  1.
<mgrwt>
<rscale>  1 0.64325509E+03</rscale>
<asrwt>0</asrwt>
<pdfrwt beam="1">  1        1 0.49001505E+00 0.64325509E+03</pdfrwt>
<pdfrwt beam="2">0</pdfrwt>
<totfact> 0.51693042E-01</totfact>
</mgrwt>
</event>
<event>
 6    1  0.2234319E-003  0.6532389E+03  0.7818608E-02  0.9800720E-01
          1   -1    0    0  502    0  0.00000000000E+00  0.00000000000E+00  0.10735986885E+03  0.10735986885E+03  0.00000000000E+00 0.  1.
         13   -1    0    0    0    0 -0.00000000000E+00 -0.00000000000E+00 -0.10000000000E+04  0.10000000000E+04  0.00000000000E+00 0.  1.
    9000005    2    1    2  501    0 -0.11420049500E+01 -0.13840203267E+00 -0.89273191321E+03  0.11062058522E+04  0.65323793161E+03 0.  0.
         13    1    3    3    0    0 -0.17618640578E+03 -0.11370653585E+03 -0.22024397327E+02  0.21084567805E+03  0.00000000000E+00 0.  1.
          3    1    3    3  501    0  0.17504440083E+03  0.11356813382E+03 -0.87070751588E+03  0.89536017417E+03  0.00000000000E+00 0.  1.
         21    1    1    2  502  501  0.11420049500E+01  0.13840203267E+00  0.91782055172E-01  0.11540166264E+01  0.00000000000E+00 0.  1.
<mgrwt>
<rscale>  1 0.65323894E+03</rscale>
<asrwt>0</asrwt>
<pdfrwt beam="1">  1        1 0.39040035E+00 0.65323894E+03</pdfrwt>
<pdfrwt beam="2">0</pdfrwt>
<totfact> 0.14751360E+00</totfact>
</mgrwt>
</event>
<event>
 6    1  0.2234319E-003  0.6611447E+03  0.7818608E-02  0.9786089E-01
          1   -1    0    0  502    0  0.00000000000E+00  0.00000000000E+00  0.15207417717E+03  0.15207417717E+03  0.00000000000E+00 0.  1.
         13   -1    0    0    0    0 -0.00000000000E+00 -0.00000000000E+00 -0.10000000000E+04  0.10000000000E+04  0.00000000000E+00 0.  1.
    9000005    2    1    2  501    0 -0.67125720563E+00  0.11563631424E+01 -0.89071033495E+03  0.11092687775E+04  0.66114335227E+03 0.  0.
         13    1    3    3    0    0  0.20028954622E+03 -0.25849253237E+03 -0.51779551390E+03  0.61241039004E+03  0.00000000000E+00 0.  1.
          3    1    3    3  501    0 -0.20096080343E+03  0.25964889551E+03 -0.37291482105E+03  0.49685838748E+03  0.00000000000E+00 0.  1.
         21    1    1    2  502  501  0.67125720563E+00 -0.11563631424E+01  0.42784512115E+02  0.42805399646E+02  0.00000000000E+00 0.  1.
<mgrwt>
<rscale>  1 0.66114470E+03</rscale>
<asrwt>0</asrwt>
<pdfrwt beam="1">  1        1 0.55299817E+00 0.66114470E+03</pdfrwt>
<pdfrwt beam="2">0</pdfrwt>
<totfact> 0.25208787E-01</totfact>
</mgrwt>
</event>
<event>
 6    1  0.2234319E-003  0.6696802E+03  0.7818608E-02  0.9770536E-01
          1   -1    0    0  502    0  0.00000000000E+00  0.00000000000E+00  0.11312157758E+03  0.11312157758E+03  0.00000000000E+00 0.  1.
         13   -1    0    0    0    0 -0.00000000000E+00 -0.00000000000E+00 -0.10000000000E+04  0.10000000000E+04  0.00000000000E+00 0.  1.
    9000005    2    1    2  501    0  0.17066870668E+00  0.34478833359E+00 -0.88784092558E+03  0.11120850357E+04  0.66968012469E+03 0.  0.
         13    1    3    3    0    0  0.12861087640E+03  0.66889149973E+02 -0.94536278061E+03  0.95641293533E+03  0.00000000000E+00 0.  1.
          3    1    3    3  501    0 -0.12844020769E+03 -0.66544361640E+02  0.57521855022E+02  0.15567210033E+03  0.00000000000E+00 0.  1.
         21    1    1    2  502  501 -0.17066870668E+00 -0.34478833359E+00  0.96250316433E+00  0.10365419161E+01  0.00000000000E+00 0. -1.
<mgrwt>
<rscale>  1 0.66968024E+03</rscale>
<asrwt>0</asrwt>
<pdfrwt beam="1">  1        1 0.41135206E+00 0.66968024E+03</pdfrwt>
<pdfrwt beam="2">0</pdfrwt>
<totfact> 0.11858060E+00</totfact>
</mgrwt>
</event>
<event>
 6    1  0.2234319E-003  0.6449324E+03  0.7818608E-02  0.9816335E-01
          1   -1    0    0  502    0  0.00000000000E+00  0.00000000000E+00  0.10398478240E+03  0.10398478240E+03  0.00000000000E+00 0.  1.
         13   -1    0    0    0    0 -0.00000000000E+00 -0.00000000000E+00 -0.10000000000E+04  0.10000000000E+04  0.00000000000E+00 0.  1.
    9000005    2    1    2  501    0 -0.20845365327E-04 -0.14755206848E-04 -0.89601553633E+03  0.11039844626E+04  0.64493244019E+03 0.  0.
         13    1    3    3    0    0 -0.16449286195E+03  0.27734299021E+03 -0.44334285511E+03  0.54820609540E+03  0.00000000000E+00 0.  1.
          3    1    3    3  501    0  0.16449284110E+03 -0.27734300497E+03 -0.45267268122E+03  0.55577836725E+03  0.00000000000E+00 0.  1.
         21    1    1    2  502  501  0.20845365317E-04  0.14755206861E-04  0.31873216833E-03  0.31975371853E-03  0.00000000000E+00 0.  1.
<mgrwt>
<rscale>  1 0.64493244E+03</rscale>
<asrwt>0</asrwt>
<pdfrwt beam="1">  1        1 0.37812728E+00 0.64493244E+03</pdfrwt>
<pdfrwt beam="2">0</pdfrwt>
<totfact> 0.16740361E+00</totfact>
</mgrwt>
</event>
<event>
 6    1  0.2234319E-003  0.6479276E+03  0.7818608E-02  0.9810676E-01
          1   -1    0    0  502    0  0.00000000000E+00  0.00000000000E+00  0.11202797487E+03  0.11202797487E+03  0.00000000000E+00 0.  1.
         13   -1    0    0    0    0 -0.00000000000E+00 -0.00000000000E+00 -0.10000000000E+04  0.10000000000E+04  0.00000000000E+00 0.  1.
    9000005    2    1    2  501    0  0.14619497970E+01  0.15061939386E+00 -0.89496304247E+03  0.11048841449E+04  0.64792589564E+03 0.  0.
         13    1    3    3    0    0  0.27566837576E+03 -0.93878869088E+02 -0.20394764008E+03  0.35552909213E+03  0.00000000000E+00 0.  1.
          1    1    3    3  501    0 -0.27420642596E+03  0.94029488482E+02 -0.69101540240E+03  0.74935505276E+03  0.00000000000E+00 0.  1.
         21    1    1    2  502  501 -0.14619497970E+01 -0.15061939386E+00  0.69910173459E+01  0.71438299910E+01  0.00000000000E+00 0.  1.
<mgrwt>
<rscale>  1 0.64792756E+03</rscale>
<asrwt>0</asrwt>
<pdfrwt beam="1">  1        1 0.40737531E+00 0.64792756E+03</pdfrwt>
<pdfrwt beam="2">0</pdfrwt>
<totfact> 0.12406458E+00</totfact>
</mgrwt>
</event>
<event>
 6    1  0.2234319E-003  0.5370891E+03  0.7818608E-02  0.1004527E+00
          1   -1    0    0  502    0  0.00000000000E+00  0.00000000000E+00  0.74094597860E+02  0.74094597860E+02  0.00000000000E+00 0.  1.
         13   -1    0    0    0    0 -0.00000000000E+00 -0.00000000000E+00 -0.10000000000E+04  0.10000000000E+04  0.00000000000E+00 0.  1.
    9000005    2    1    2  501    0 -0.73168843368E+00 -0.59081478271E+00 -0.92776350445E+03  0.10720120575E+04  0.53708830450E+03 0.  0.
         13    1    3    3    0    0 -0.74320933299E+02  0.23687299926E+03 -0.66713285996E+03  0.71182769807E+03  0.00000000000E+00 0.  1.
          1    1    3    3  501    0  0.73589244865E+02 -0.23746381404E+03 -0.26063064449E+03  0.36018435944E+03  0.00000000000E+00 0.  1.
         21    1    1    2  502  501  0.73168843368E+00  0.59081478271E+00  0.18581023137E+01  0.20825403428E+01  0.00000000000E+00 0. -1.
<mgrwt>
<rscale>  1 0.53708913E+03</rscale>
<asrwt>0</asrwt>
<pdfrwt beam="1">  1        1 0.26943547E+00 0.53708913E+03</pdfrwt>
<pdfrwt beam="2">0</pdfrwt>
<totfact> 0.50548133E+00</totfact>
</mgrwt>
</event>
<event>
 6    1  0.2234319E-003  0.6067263E+03  0.7818608E-02  0.9891549E-01
          1   -1    0    0  502    0  0.00000000000E+00  0.00000000000E+00  0.95926861658E+02  0.95926861658E+02  0.00000000000E+00 0.  1.
         13   -1    0    0    0    0 -0.00000000000E+00 -0.00000000000E+00 -0.10000000000E+04  0.10000000000E+04  0.00000000000E+00 0.  1.
    9000005    2    1    2  501    0  0.43499315175E+00 -0.21438839968E+01 -0.90763313297E+03  0.10917484625E+04  0.60672235487E+03 0.  0.
         13    1    3    3    0    0  0.29413664556E+03  0.43921433311E+02 -0.56208521561E+03  0.63591292499E+03  0.00000000000E+00 0.  1.
          3    1    3    3  501    0 -0.29370165241E+03 -0.46065317308E+02 -0.34554791736E+03  0.45583553753E+03  0.00000000000E+00 0.  1.
         21    1    1    2  502  501 -0.43499315175E+00  0.21438839968E+01  0.35599946240E+01  0.41783991381E+01  0.00000000000E+00 0. -1.
<mgrwt>
<rscale>  1 0.60672630E+03</rscale>
<asrwt>0</asrwt>
<pdfrwt beam="1">  1        1 0.34882569E+00 0.60672630E+03</pdfrwt>
<pdfrwt beam="2">0</pdfrwt>
<totfact> 0.22652537E+00</totfact>
</mgrwt>
</event>
<event>
 6    1  0.2234319E-003  0.6589355E+03  0.7818608E-02  0.9790155E-01
          1   -1    0    0  502    0  0.00000000000E+00  0.00000000000E+00  0.11328810151E+03  0.11328810151E+03  0.00000000000E+00 0.  1.
         13   -1    0    0    0    0 -0.00000000000E+00 -0.00000000000E+00 -0.10000000000E+04  0.10000000000E+04  0.00000000000E+00 0.  1.
    9000005    2    1    2  501    0  0.61199771153E+00 -0.28365594208E-01 -0.89142905546E+03  0.11085313257E+04  0.65893517428E+03 0.  0.
         13    1    3    3    0    0 -0.14961767125E+03  0.95003552789E+02  0.21432099430E+02  0.17852298866E+03  0.00000000000E+00 0.  1.
          3    1    3    3  501    0  0.15022966896E+03 -0.95031918383E+02 -0.91286115489E+03  0.93000833709E+03  0.00000000000E+00 0.  1.
         21    1    1    2  502  501 -0.61199771153E+00  0.28365594208E-01  0.47171569636E+01  0.47567757594E+01  0.00000000000E+00 0. -1.
<mgrwt>
<rscale>  1 0.65893546E+03</rscale>
<asrwt>0</asrwt>
<pdfrwt beam="1">  1        1 0.41195760E+00 0.65893546E+03</pdfrwt>
<pdfrwt beam="2">0</pdfrwt>
<totfact> 0.11808270E+00</totfact>
</mgrwt>
</event>
<event>
 6    1  0.2234319E-003  0.6500726E+03  0.7818608E-02  0.9806643E-01
          1   -1    0    0  502    0  0.00000000000E+00  0.00000000000E+00  0.10566044511E+03  0.10566044511E+03  0.00000000000E+00 0.  1.
         13   -1    0    0    0    0 -0.00000000000E+00 -0.00000000000E+00 -0.10000000000E+04  0.10000000000E+04  0.00000000000E+00 0.  1.
    9000005    2    1    2  501    0  0.11415971358E-03  0.14852086657E-02 -0.89435136273E+03  0.11056485437E+04  0.65007256681E+03 0.  0.
         13    1    3    3    0    0  0.20469788139E+03 -0.15962523170E+03 -0.77988618038E+03  0.82195127081E+03  0.00000000000E+00 0.  1.
          1    1    3    3  501    0 -0.20469776723E+03  0.15962671691E+03 -0.11446518235E+03  0.28369727287E+03  0.00000000000E+00 0.  1.
         21    1    1    2  502  501 -0.11415971357E-03 -0.14852086657E-02  0.11807839388E-01  0.11901426311E-01  0.00000000000E+00 0. -1.
<mgrwt>
<rscale>  1 0.65007257E+03</rscale>
<asrwt>0</asrwt>
<pdfrwt beam="1">  1        1 0.38422061E+00 0.65007257E+03</pdfrwt>
<pdfrwt beam="2">0</pdfrwt>
<totfact> 0.15720022E+00</totfact>
</mgrwt>
</event>
<event>
 6    1  0.2234319E-003  0.6547227E+03  0.7818608E-02  0.9797958E-01
          1   -1    0    0  502    0  0.00000000000E+00  0.00000000000E+00  0.10716784554E+03  0.10716784554E+03  0.00000000000E+00 0.  1.
         13   -1    0    0    0    0 -0.00000000000E+00 -0.00000000000E+00 -0.10000000000E+04  0.10000000000E+04  0.00000000000E+00 0.  1.
    9000005    2    1    2  501    0 -0.58555617426E-03  0.98596827598E-04 -0.89283451469E+03  0.11071654118E+04  0.65472267286E+03 0.  0.
         13    1    3    3    0    0  0.21062001149E+03 -0.18430523427E+03 -0.15925735651E+03  0.32201259948E+03  0.00000000000E+00 0.  1.
          1    1    3    3  501    0 -0.21062059704E+03  0.18430533287E+03 -0.73357715818E+03  0.78515281228E+03  0.00000000000E+00 0.  1.
         21    1    1    2  502  501  0.58555617427E-03 -0.98596827614E-04  0.23602336862E-02  0.24337831500E-02  0.00000000000E+00 0. -1.
<mgrwt>
<rscale>  1 0.65472267E+03</rscale>
<asrwt>0</asrwt>
<pdfrwt beam="1">  1        1 0.38970208E+00 0.65472267E+03</pdfrwt>
<pdfrwt beam="2">0</pdfrwt>
<totfact> 0.14852827E+00</totfact>
</mgrwt>
</event>
<event>
 6    1  0.2234319E-003  0.6024371E+03  0.7818608E-02  0.9900363E-01
          1   -1    0    0  502    0  0.00000000000E+00  0.00000000000E+00  0.10521859059E+03  0.10521859059E+03  0.00000000000E+00 0.  1.
         13   -1    0    0    0    0 -0.00000000000E+00 -0.00000000000E+00 -0.10000000000E+04  0.10000000000E+04  0.00000000000E+00 0.  1.
    9000005    2    1    2  501    0  0.71921403324E+00 -0.56867074760E+00 -0.90925156692E+03  0.10907194143E+04  0.60243637678E+03 0.  0.
         13    1    3    3    0    0  0.27201971034E+03  0.11418674166E+03 -0.34291084177E+03  0.45235072696E+03  0.00000000000E+00 0.  1.
          3    1    3    3  501    0 -0.27130049631E+03 -0.11475541240E+03 -0.56634072516E+03  0.63836868732E+03  0.00000000000E+00 0.  1.
         21    1    1    2  502  501 -0.71921403324E+00  0.56867074760E+00  0.14470157519E+02  0.14499176317E+02  0.00000000000E+00 0. -1.
<mgrwt>
<rscale>  1 0.60243707E+03</rscale>
<asrwt>0</asrwt>
<pdfrwt beam="1">  1        1 0.38261386E+00 0.60243707E+03</pdfrwt>
<pdfrwt beam="2">0</pdfrwt>
<totfact> 0.16124514E+00</totfact>
</mgrwt>
</event>
<event>
 6    1  0.2234319E-003  0.6460001E+03  0.7818608E-02  0.9814314E-01
          1   -1    0    0  502    0  0.00000000000E+00  0.00000000000E+00  0.12135645720E+03  0.12135645720E+03  0.00000000000E+00 0.  1.
         13   -1    0    0    0    0 -0.00000000000E+00 -0.00000000000E+00 -0.10000000000E+04  0.10000000000E+04  0.00000000000E+00 0.  1.
    9000005    2    1    2  501    0  0.16357860504E+02 -0.18705652039E+02 -0.88501430112E+03  0.10957036293E+04  0.64552199731E+03 0.  0.
         13    1    3    3    0    0  0.25283370900E+03  0.32500828675E+02 -0.79937877464E+03  0.83903969729E+03  0.00000000000E+00 0.  1.
          1    1    3    3  501    0 -0.23647584850E+03 -0.51206480714E+02 -0.85635526482E+02  0.25666393199E+03  0.00000000000E+00 0.  1.
         21    1    1    2  502  501 -0.16357860504E+02  0.18705652039E+02  0.63707583188E+01  0.25652827915E+02  0.00000000000E+00 0.  1.
<mgrwt>
<rscale>  1 0.64600010E+03</rscale>
<asrwt>0</asrwt>
<pdfrwt beam="1">  1        1 0.44129714E+00 0.64600010E+03</pdfrwt>
<pdfrwt beam="2">0</pdfrwt>
<totfact> 0.87173671E-01</totfact>
</mgrwt>
</event>
<event>
 6    1  0.2234319E-003  0.6461977E+03  0.7818608E-02  0.9813940E-01
          1   -1    0    0  502    0  0.00000000000E+00  0.00000000000E+00  0.10439290015E+03  0.10439290015E+03  0.00000000000E+00 0.  1.
         13   -1    0    0    0    0 -0.00000000000E+00 -0.00000000000E+00 -0.10000000000E+04  0.10000000000E+04  0.00000000000E+00 0.  1.
    9000005    2    1    2  501    0 -0.18603964948E-04 -0.27902907377E-04 -0.89560709781E+03  0.11043928666E+04  0.64619774840E+03 0.  0.
         13    1    3    3    0    0  0.11680186948E+02 -0.70429681560E+02  0.90744284599E+02  0.11546121426E+03  0.00000000000E+00 0.  1.
          1    1    3    3  501    0 -0.11680205552E+02  0.70429653657E+02 -0.98635138241E+03  0.98893165229E+03  0.00000000000E+00 0.  1.
         21    1    1    2  502  501  0.18603964948E-04  0.27902907388E-04 -0.20379505363E-05  0.33598109990E-04  0.00000000000E+00 0. -1.
<mgrwt>
<rscale>  1 0.64619775E+03</rscale>
<asrwt>0</asrwt>
<pdfrwt beam="1">  1        1 0.37961135E+00 0.64619775E+03</pdfrwt>
<pdfrwt beam="2">0</pdfrwt>
<totfact> 0.16486158E+00</totfact>
</mgrwt>
</event>
<event>
 6    1  0.2234319E-003  0.6857317E+03  0.7818608E-02  0.9741949E-01
          3   -1    0    0  502    0  0.00000000000E+00  0.00000000000E+00  0.11755718112E+03  0.11755718112E+03  0.00000000000E+00 0.  1.
         13   -1    0    0    0    0 -0.00000000000E+00 -0.00000000000E+00 -0.10000000000E+04  0.10000000000E+04  0.00000000000E+00 0.  1.
    9000005    2    1    2  501    0  0.31446007355E-04  0.78725589276E-04 -0.88244299318E+03  0.11175569873E+04  0.68573171406E+03 0.  0.
         13    1    3    3    0    0 -0.48413463280E+02 -0.84571273554E+02  0.94512976188E+02  0.13575296094E+03  0.00000000000E+00 0.  1.
          1    1    3    3  501    0  0.48413494726E+02  0.84571352280E+02 -0.97695596936E+03  0.98180402636E+03  0.00000000000E+00 0.  1.
         21    1    1    2  502  501 -0.31446007357E-04 -0.78725589275E-04  0.17429448431E-03  0.19381727747E-03  0.00000000000E+00 0. -1.
<mgrwt>
<rscale>  1 0.68573171E+03</rscale>
<asrwt>0</asrwt>
<pdfrwt beam="1">  1        3 0.42748156E+00 0.68573171E+03</pdfrwt>
<pdfrwt beam="2">0</pdfrwt>
<totfact> 0.42360985E-02</totfact>
</mgrwt>
</event>
<event>
 6    1  0.2234319E-003  0.6556504E+03  0.7818608E-02  0.9796234E-01
          1   -1    0    0  502    0  0.00000000000E+00  0.00000000000E+00  0.10747798147E+03  0.10747798147E+03  0.00000000000E+00 0.  1.
         13   -1    0    0    0    0 -0.00000000000E+00 -0.00000000000E+00 -0.10000000000E+04  0.10000000000E+04  0.00000000000E+00 0.  1.
    9000005    2    1    2  501    0  0.15130682216E-02  0.11236275310E-03 -0.89253056817E+03  0.11074692983E+04  0.65565038813E+03 0.  0.
         13    1    3    3    0    0  0.25145930059E+03 -0.95406179339E+02 -0.76288223824E+03  0.80890260745E+03  0.00000000000E+00 0.  1.
          1    1    3    3  501    0 -0.25145778753E+03  0.95406291702E+02 -0.12964832992E+03  0.29856669080E+03  0.00000000000E+00 0.  1.
         21    1    1    2  502  501 -0.15130682216E-02 -0.11236275310E-03  0.85496410766E-02  0.86832230980E-02  0.00000000000E+00 0. -1.
<mgrwt>
<rscale>  1 0.65565039E+03</rscale>
<asrwt>0</asrwt>
<pdfrwt beam="1">  1        1 0.39082985E+00 0.65565039E+03</pdfrwt>
<pdfrwt beam="2">0</pdfrwt>
<totfact> 0.14680210E+00</totfact>
</mgrwt>
</event>
<event>
 6    1  0.2234319E-003  0.6101800E+03  0.7818608E-02  0.9884508E-01
          1   -1    0    0  502    0  0.00000000000E+00  0.00000000000E+00  0.93084470051E+02  0.93084470051E+02  0.00000000000E+00 0.  1.
         13   -1    0    0    0    0 -0.00000000000E+00 -0.00000000000E+00 -0.10000000000E+04  0.10000000000E+04  0.00000000000E+00 0.  1.
    9000005    2    1    2  501    0  0.26889839341E-02  0.39336431710E-02 -0.90691868498E+03  0.10930787553E+04  0.61018002598E+03 0.  0.
         13    1    3    3    0    0  0.13867739310E+03 -0.26767574719E+03 -0.36948094920E+03  0.47686255547E+03  0.00000000000E+00 0.  1.
          3    1    3    3  501    0 -0.13867470412E+03  0.26767968083E+03 -0.53743773578E+03  0.61621619983E+03  0.00000000000E+00 0.  1.
         21    1    1    2  502  501 -0.26889839341E-02 -0.39336431710E-02  0.31550264245E-02  0.57147506449E-02  0.00000000000E+00 0. -1.
<mgrwt>
<rscale>  1 0.61018003E+03</rscale>
<asrwt>0</asrwt>
<pdfrwt beam="1">  1        1 0.33848970E+00 0.61018003E+03</pdfrwt>
<pdfrwt beam="2">0</pdfrwt>
<totfact> 0.25106191E+00</totfact>
</mgrwt>
</event>
<event>
 6    1  0.2234319E-003  0.6367241E+03  0.7818608E-02  0.9832014E-01
          1   -1    0    0  502    0  0.00000000000E+00  0.00000000000E+00  0.10135449277E+03  0.10135449277E+03  0.00000000000E+00 0.  1.
         13   -1    0    0    0    0 -0.00000000000E+00 -0.00000000000E+00 -0.10000000000E+04  0.10000000000E+04  0.00000000000E+00 0.  1.
    9000005    2    1    2  501    0  0.10813182371E-04  0.12509775985E-04 -0.89864559331E+03  0.11013544051E+04  0.63672413437E+03 0.  0.
         13    1    3    3    0    0  0.28110256083E+03 -0.13280481818E+03 -0.33075636419E+03  0.45393341130E+03  0.00000000000E+00 0.  1.
          1    1    3    3  501    0 -0.28110255002E+03  0.13280483069E+03 -0.56788922912E+03  0.64742099382E+03  0.00000000000E+00 0.  1.
         21    1    1    2  502  501 -0.10813182408E-04 -0.12509776000E-04  0.86086271465E-04  0.87659942642E-04  0.00000000000E+00 0. -1.
<mgrwt>
<rscale>  1 0.63672413E+03</rscale>
<asrwt>0</asrwt>
<pdfrwt beam="1">  1        1 0.36856257E+00 0.63672413E+03</pdfrwt>
<pdfrwt beam="2">0</pdfrwt>
<totfact> 0.18470843E+00</totfact>
</mgrwt>
</event>
<event>
 6    1  0.2234319E-003  0.6203406E+03  0.7818608E-02  0.9864082E-01
          1   -1    0    0  502    0  0.00000000000E+00  0.00000000000E+00  0.96206023172E+02  0.96206023172E+02  0.00000000000E+00 0.  1.
         13   -1    0    0    0    0 -0.00000000000E+00 -0.00000000000E+00 -0.10000000000E+04  0.10000000000E+04  0.00000000000E+00 0.  1.
    9000005    2    1    2  501    0  0.14601849876E-03  0.20507695032E-03 -0.90379432798E+03  0.10962055911E+04  0.62034064085E+03 0.  0.
         13    1    3    3    0    0  0.31601985450E+02  0.23819644661E+03 -0.10530431250E+03  0.26234563250E+03  0.00000000000E+00 0.  1.
          3    1    3    3  501    0 -0.31601839432E+02 -0.23819624154E+03 -0.79849001548E+03  0.83385995860E+03  0.00000000000E+00 0.  1.
         21    1    1    2  502  501 -0.14601849876E-03 -0.20507695033E-03  0.35114836024E-03  0.43206843027E-03  0.00000000000E+00 0.  1.
<mgrwt>
<rscale>  1 0.62034064E+03</rscale>
<asrwt>0</asrwt>
<pdfrwt beam="1">  1        1 0.34984082E+00 0.62034064E+03</pdfrwt>
<pdfrwt beam="2">0</pdfrwt>
<totfact> 0.22368124E+00</totfact>
</mgrwt>
</event>
<event>
 6    1  0.2234319E-003  0.6598396E+03  0.7818608E-02  0.9788489E-01
          1   -1    0    0  502    0  0.00000000000E+00  0.00000000000E+00  0.10884712126E+03  0.10884712126E+03  0.00000000000E+00 0.  1.
         13   -1    0    0    0    0 -0.00000000000E+00 -0.00000000000E+00 -0.10000000000E+04  0.10000000000E+04  0.00000000000E+00 0.  1.
    9000005    2    1    2  501    0  0.95077713240E-05  0.17862107882E-05 -0.89115291938E+03  0.11088470795E+04  0.65983961683E+03 0.  0.
         13    1    3    3    0    0 -0.21253735680E+03  0.24871102549E+03 -0.37392855521E+03  0.49684189300E+03  0.00000000000E+00 0.  1.
          3    1    3    3  501    0  0.21253736631E+03 -0.24871102370E+03 -0.51722436417E+03  0.61200518648E+03  0.00000000000E+00 0.  1.
         21    1    1    2  502  501 -0.95077713197E-05 -0.17862108160E-05  0.40647802854E-04  0.41783156193E-04  0.00000000000E+00 0.  1.
<mgrwt>
<rscale>  1 0.65983962E+03</rscale>
<asrwt>0</asrwt>
<pdfrwt beam="1">  1        1 0.39580855E+00 0.65983962E+03</pdfrwt>
<pdfrwt beam="2">0</pdfrwt>
<totfact> 0.13940388E+00</totfact>
</mgrwt>
</event>
<event>
 6    1  0.2234319E-003  0.6563210E+03  0.7818608E-02  0.9794990E-01
          1   -1    0    0  502    0  0.00000000000E+00  0.00000000000E+00  0.10790177987E+03  0.10790177987E+03  0.00000000000E+00 0.  1.
         13   -1    0    0    0    0 -0.00000000000E+00 -0.00000000000E+00 -0.10000000000E+04  0.10000000000E+04  0.00000000000E+00 0.  1.
    9000005    2    1    2  501    0 -0.10444286480E+00  0.76903917424E-01 -0.89228853149E+03  0.11076714737E+04  0.65632099873E+03 0.  0.
         13    1    3    3    0    0  0.11472244367E+03  0.25423569819E+03 -0.15433044543E+03  0.31877094551E+03  0.00000000000E+00 0.  1.
          1    1    3    3  501    0 -0.11482688653E+03 -0.25415879427E+03 -0.73795808606E+03  0.78890052818E+03  0.00000000000E+00 0.  1.
         21    1    1    2  502  501  0.10444286480E+00 -0.76903917424E-01  0.19031135943E+00  0.23030618327E+00  0.00000000000E+00 0.  1.
<mgrwt>
<rscale>  1 0.65632101E+03</rscale>
<asrwt>0</asrwt>
<pdfrwt beam="1">  1        1 0.39237094E+00 0.65632101E+03</pdfrwt>
<pdfrwt beam="2">0</pdfrwt>
<totfact> 0.14449006E+00</totfact>
</mgrwt>
</event>
<event>
 6    1  0.2234319E-003  0.5915583E+03  0.7818608E-02  0.9923076E-01
          1   -1    0    0  502    0  0.00000000000E+00  0.00000000000E+00  0.87485645344E+02  0.87485645344E+02  0.00000000000E+00 0.  1.
         13   -1    0    0    0    0 -0.00000000000E+00 -0.00000000000E+00 -0.10000000000E+04  0.10000000000E+04  0.00000000000E+00 0.  1.
    9000005    2    1    2  501    0  0.35152215405E-03 -0.42516657274E-03 -0.91251444437E+03  0.10874850864E+04  0.59155828287E+03 0.  0.
         13    1    3    3    0    0 -0.71678288180E+02 -0.21724643800E+03 -0.80092317977E+03  0.83295361919E+03  0.00000000000E+00 0.  1.
          3    1    3    3  501    0  0.71678639702E+02  0.21724601284E+03 -0.11159126459E+03  0.25453146724E+03  0.00000000000E+00 0.  1.
         21    1    1    2  502  501 -0.35152215404E-03  0.42516657273E-03  0.89710557004E-04  0.55891182076E-03  0.00000000000E+00 0. -1.
<mgrwt>
<rscale>  1 0.59155828E+03</rscale>
<asrwt>0</asrwt>
<pdfrwt beam="1">  1        1 0.31813029E+00 0.59155828E+03</pdfrwt>
<pdfrwt beam="2">0</pdfrwt>
<totfact> 0.30859071E+00</totfact>
</mgrwt>
</event>
<event>
 6    1  0.2234319E-003  0.6580374E+03  0.7818608E-02  0.9791813E-01
          1   -1    0    0  502    0  0.00000000000E+00  0.00000000000E+00  0.10825374629E+03  0.10825374629E+03  0.00000000000E+00 0.  1.
         13   -1    0    0    0    0 -0.00000000000E+00 -0.00000000000E+00 -0.10000000000E+04  0.10000000000E+04  0.00000000000E+00 0.  1.
    9000005    2    1    2  501    0  0.38054888108E-04 -0.36563012632E-04 -0.89174668143E+03  0.11082533153E+04  0.65803743593E+03 0.  0.
         13    1    3    3    0    0  0.19852585398E+03  0.18636711366E+02 -0.88664440267E+03  0.90878938071E+03  0.00000000000E+00 0.  1.
          1    1    3    3  501    0 -0.19852581593E+03 -0.18636747929E+02 -0.51022787653E+01  0.19946393462E+03  0.00000000000E+00 0.  1.
         21    1    1    2  502  501 -0.38054888098E-04  0.36563012632E-04  0.42772540153E-03  0.43096873148E-03  0.00000000000E+00 0. -1.
<mgrwt>
<rscale>  1 0.65803744E+03</rscale>
<asrwt>0</asrwt>
<pdfrwt beam="1">  1        1 0.39365082E+00 0.65803744E+03</pdfrwt>
<pdfrwt beam="2">0</pdfrwt>
<totfact> 0.14256542E+00</totfact>
</mgrwt>
</event>
<event>
 6    1  0.2234319E-003  0.6601191E+03  0.7818608E-02  0.9787974E-01
          1   -1    0    0  502    0  0.00000000000E+00  0.00000000000E+00  0.10896844620E+03  0.10896844620E+03  0.00000000000E+00 0.  1.
         13   -1    0    0    0    0 -0.00000000000E+00 -0.00000000000E+00 -0.10000000000E+04  0.10000000000E+04  0.00000000000E+00 0.  1.
    9000005    2    1    2  501    0 -0.11015677808E-03 -0.38826826093E-03 -0.89106068469E+03  0.11089393125E+04  0.66011912186E+03 0.  0.
         13    1    3    3    0    0 -0.28037187480E+03  0.14051983562E+03 -0.27269497647E+03  0.41559206269E+03  0.00000000000E+00 0.  1.
          3    1    3    3  501    0  0.28037176465E+03 -0.14052022389E+03 -0.61836570822E+03  0.69334724982E+03  0.00000000000E+00 0.  1.
         21    1    1    2  502  501  0.11015677810E-03  0.38826826094E-03  0.29130889074E-01  0.29133684713E-01  0.00000000000E+00 0.  1.
<mgrwt>
<rscale>  1 0.66011912E+03</rscale>
<asrwt>0</asrwt>
<pdfrwt beam="1">  1        1 0.39624973E+00 0.66011912E+03</pdfrwt>
<pdfrwt beam="2">0</pdfrwt>
<totfact> 0.13876797E+00</totfact>
</mgrwt>
</event>
<event>
 6    1  0.2234319E-003  0.6560520E+03  0.7818608E-02  0.9795489E-01
          1   -1    0    0  502    0  0.00000000000E+00  0.00000000000E+00  0.10760119245E+03  0.10760119245E+03  0.00000000000E+00 0.  1.
         13   -1    0    0    0    0 -0.00000000000E+00 -0.00000000000E+00 -0.10000000000E+04  0.10000000000E+04  0.00000000000E+00 0.  1.
    9000005    2    1    2  501    0  0.17260459288E-04  0.62384538353E-05 -0.89239892969E+03  0.11076010689E+04  0.65605203926E+03 0.  0.
         13    1    3    3    0    0 -0.27758312701E+03 -0.84097477256E+02 -0.18752128750E+03  0.34538241319E+03  0.00000000000E+00 0.  1.
          3    1    3    3  501    0  0.27758314427E+03  0.84097483494E+02 -0.70487764219E+03  0.76221865575E+03  0.00000000000E+00 0.  1.
         21    1    1    2  502  501 -0.17260459278E-04 -0.62384538420E-05  0.12213280979E-03  0.12350410919E-03  0.00000000000E+00 0. -1.
<mgrwt>
<rscale>  1 0.65605204E+03</rscale>
<asrwt>0</asrwt>
<pdfrwt beam="1">  1        1 0.39127789E+00 0.65605204E+03</pdfrwt>
<pdfrwt beam="2">0</pdfrwt>
<totfact> 0.14612072E+00</totfact>
</mgrwt>
</event>
<event>
 6    1  0.2234319E-003  0.6549142E+03  0.7818608E-02  0.9797601E-01
          1   -1    0    0  502    0  0.00000000000E+00  0.00000000000E+00  0.10722819364E+03  0.10722819364E+03  0.00000000000E+00 0.  1.
         13   -1    0    0    0    0 -0.00000000000E+00 -0.00000000000E+00 -0.10000000000E+04  0.10000000000E+04  0.00000000000E+00 0.  1.
    9000005    2    1    2  501    0 -0.83183070103E-05 -0.19522889815E-04 -0.89277183839E+03  0.11072281552E+04  0.65491421751E+03 0.  0.
         13    1    3    3    0    0 -0.20546818051E+03 -0.73413766065E+02 -0.33572500814E+02  0.22075748472E+03  0.00000000000E+00 0.  1.
          1    1    3    3  501    0  0.20546817219E+03  0.73413746542E+02 -0.85919933757E+03  0.88647067050E+03  0.00000000000E+00 0.  1.
         21    1    1    2  502  501  0.83183070119E-05  0.19522889816E-04  0.32032149973E-04  0.38423899987E-04  0.00000000000E+00 0.  1.
<mgrwt>
<rscale>  1 0.65491422E+03</rscale>
<asrwt>0</asrwt>
<pdfrwt beam="1">  1        1 0.38992153E+00 0.65491422E+03</pdfrwt>
<pdfrwt beam="2">0</pdfrwt>
<totfact> 0.14819058E+00</totfact>
</mgrwt>
</event>
<event>
 6    1  0.2234319E-003  0.6464142E+03  0.7818608E-02  0.9813531E-01
          1   -1    0    0  502    0  0.00000000000E+00  0.00000000000E+00  0.10446416809E+03  0.10446416809E+03  0.00000000000E+00 0.  1.
         13   -1    0    0    0    0 -0.00000000000E+00 -0.00000000000E+00 -0.10000000000E+04  0.10000000000E+04  0.00000000000E+00 0.  1.
    9000005    2    1    2  501    0 -0.41894189849E-04 -0.28986935376E-05 -0.89553717650E+03  0.11044628228E+04  0.64641418035E+03 0.  0.
         13    1    3    3    0    0  0.14087765669E+03 -0.26574016557E+03 -0.24561544021E+03  0.38831854736E+03  0.00000000000E+00 0.  1.
          3    1    3    3  501    0 -0.14087769858E+03  0.26574016268E+03 -0.64992173629E+03  0.71614427549E+03  0.00000000000E+00 0.  1.
         21    1    1    2  502  501  0.41894189848E-04  0.28986935330E-05  0.13445916944E-02  0.13452473194E-02  0.00000000000E+00 0.  1.
<mgrwt>
<rscale>  1 0.64641418E+03</rscale>
<asrwt>0</asrwt>
<pdfrwt beam="1">  1        1 0.37987050E+00 0.64641418E+03</pdfrwt>
<pdfrwt beam="2">0</pdfrwt>
<totfact> 0.16442159E+00</totfact>
</mgrwt>
</event>
<event>
 6    1  0.2234319E-003  0.5459671E+03  0.7818608E-02  0.1002432E+00
          1   -1    0    0  502    0  0.00000000000E+00  0.00000000000E+00  0.75692866276E+02  0.75692866276E+02  0.00000000000E+00 0.  1.
         13   -1    0    0    0    0 -0.00000000000E+00 -0.00000000000E+00 -0.10000000000E+04  0.10000000000E+04  0.00000000000E+00 0.  1.
    9000005    2    1    2  501    0  0.41352563700E+00 -0.13462722583E+01 -0.92501277758E+03  0.10741176248E+04  0.54596524593E+03 0.  0.
         13    1    3    3    0    0 -0.27398803261E+02 -0.26961168219E+03 -0.53798900913E+03  0.60238968080E+03  0.00000000000E+00 0.  1.
          3    1    3    3  501    0  0.27812328898E+02  0.26826540993E+03 -0.38702376846E+03  0.47172794400E+03  0.00000000000E+00 0.  1.
         21    1    1    2  502  501 -0.41352563700E+00  0.13462722583E+01  0.70564385936E+00  0.15752414742E+01  0.00000000000E+00 0. -1.
<mgrwt>
<rscale>  1 0.54596706E+03</rscale>
<asrwt>0</asrwt>
<pdfrwt beam="1">  1        1 0.27524737E+00 0.54596706E+03</pdfrwt>
<pdfrwt beam="2">0</pdfrwt>
<totfact> 0.47635162E+00</totfact>
</mgrwt>
</event>
<event>
 6    1  0.3492094E-003  0.6569072E+03  0.7818608E-02  0.9793904E-01
          1   -1    0    0  502    0  0.00000000000E+00  0.00000000000E+00  0.10788176843E+03  0.10788176843E+03  0.00000000000E+00 0.  1.
         13   -1    0    0    0    0 -0.00000000000E+00 -0.00000000000E+00 -0.10000000000E+04  0.10000000000E+04  0.00000000000E+00 0.  1.
    9000005    2    1    2  501    0 -0.11038729326E-05  0.10756630019E-04 -0.89211822496E+03  0.11078817558E+04  0.65690719088E+03 0.  0.
         13    1    3    3    0    0  0.28115800106E+03  0.16878672397E+03 -0.47729311983E+03  0.57909196332E+03  0.00000000000E+00 0.  1.
          1    1    3    3  501    0 -0.28115800216E+03 -0.16878671321E+03 -0.41482510513E+03  0.52878979244E+03  0.00000000000E+00 0.  1.
         21    1    1    2  502  501  0.11038729080E-05 -0.10756630007E-04 -0.66073224142E-05  0.12672029592E-04  0.00000000000E+00 0. -1.
<mgrwt>
<rscale>  1 0.65690719E+03</rscale>
<asrwt>0</asrwt>
<pdfrwt beam="1">  1        1 0.39229817E+00 0.65690719E+03</pdfrwt>
<pdfrwt beam="2">0</pdfrwt>
<totfact> 0.14458185E+00</totfact>
</mgrwt>
</event>
<event>
 6    1  0.2234319E-003  0.6578250E+03  0.7818608E-02  0.9792206E-01
          1   -1    0    0  502    0  0.00000000000E+00  0.00000000000E+00  0.10822075899E+03  0.10822075899E+03  0.00000000000E+00 0.  1.
         13   -1    0    0    0    0 -0.00000000000E+00 -0.00000000000E+00 -0.10000000000E+04  0.10000000000E+04  0.00000000000E+00 0.  1.
    9000005    2    1    2  501    0 -0.29559826754E-02  0.48784447777E-02 -0.89181632580E+03  0.11081832381E+04  0.65782499966E+03 0.  0.
         13    1    3    3    0    0  0.32341382597E+03  0.11935419633E+02 -0.54476302095E+03  0.63364477909E+03  0.00000000000E+00 0.  1.
          3    1    3    3  501    0 -0.32341678195E+03 -0.11930541188E+02 -0.34705330485E+03  0.47453845899E+03  0.00000000000E+00 0.  1.
         21    1    1    2  502  501  0.29559826754E-02 -0.48784447777E-02  0.37084786646E-01  0.37520906941E-01  0.00000000000E+00 0.  1.
<mgrwt>
<rscale>  1 0.65782500E+03</rscale>
<asrwt>0</asrwt>
<pdfrwt beam="1">  1        1 0.39353086E+00 0.65782500E+03</pdfrwt>
<pdfrwt beam="2">0</pdfrwt>
<totfact> 0.14274614E+00</totfact>
</mgrwt>
</event>
<event>
 6    1  0.2234319E-003  0.6550698E+03  0.7818608E-02  0.9797312E-01
          1   -1    0    0  502    0  0.00000000000E+00  0.00000000000E+00  0.10761906310E+03  0.10761906310E+03  0.00000000000E+00 0.  1.
         13   -1    0    0    0    0 -0.00000000000E+00 -0.00000000000E+00 -0.10000000000E+04  0.10000000000E+04  0.00000000000E+00 0.  1.
    9000005    2    1    2  501    0  0.84433275629E-03  0.68194113057E-02 -0.89272084273E+03  0.11072790878E+04  0.65506982469E+03 0.  0.
         13    1    3    3    0    0 -0.18588975516E+02  0.28971489150E+03 -0.70271907396E+03  0.76032517075E+03  0.00000000000E+00 0.  1.
          3    1    3    3  501    0  0.18589819849E+02 -0.28970807209E+03 -0.19000176878E+03  0.34695391707E+03  0.00000000000E+00 0.  1.
         21    1    1    2  502  501 -0.84433275629E-03 -0.68194113057E-02  0.33990583110E+00  0.33997528040E+00  0.00000000000E+00 0. -1.
<mgrwt>
<rscale>  1 0.65506982E+03</rscale>
<asrwt>0</asrwt>
<pdfrwt beam="1">  1        1 0.39134287E+00 0.65506982E+03</pdfrwt>
<pdfrwt beam="2">0</pdfrwt>
<totfact> 0.14605036E+00</totfact>
</mgrwt>
</event>
<event>
 6    1  0.2234319E-003  0.6602864E+03  0.7818608E-02  0.9787667E-01
          1   -1    0    0  502    0  0.00000000000E+00  0.00000000000E+00  0.11110085759E+03  0.11110085759E+03  0.00000000000E+00 0.  1.
         13   -1    0    0    0    0 -0.00000000000E+00 -0.00000000000E+00 -0.10000000000E+04  0.10000000000E+04  0.00000000000E+00 0.  1.
    9000005    2    1    2  501    0  0.36688274976E+00 -0.17148413283E+00 -0.89098384506E+03  0.11089771827E+04  0.66028631341E+03 0.  0.
         13    1    3    3    0    0  0.11750011198E+03 -0.30833692768E+03 -0.42120287565E+03  0.53506055708E+03  0.00000000000E+00 0.  1.
          1    1    3    3  501    0 -0.11713322923E+03  0.30816544355E+03 -0.46978096941E+03  0.57391662566E+03  0.00000000000E+00 0.  1.
         21    1    1    2  502  501 -0.36688274976E+00  0.17148413283E+00  0.20847026426E+01  0.21236748498E+01  0.00000000000E+00 0.  1.
<mgrwt>
<rscale>  1 0.66028644E+03</rscale>
<asrwt>0</asrwt>
<pdfrwt beam="1">  1        1 0.40400397E+00 0.66028644E+03</pdfrwt>
<pdfrwt beam="2">0</pdfrwt>
<totfact> 0.12814378E+00</totfact>
</mgrwt>
</event>
<event>
 6    1  0.2234319E-003  0.6426797E+03  0.7818608E-02  0.9820613E-01
          1   -1    0    0  502    0  0.00000000000E+00  0.00000000000E+00  0.10346392612E+03  0.10346392612E+03  0.00000000000E+00 0.  1.
         13   -1    0    0    0    0 -0.00000000000E+00 -0.00000000000E+00 -0.10000000000E+04  0.10000000000E+04  0.00000000000E+00 0.  1.
    9000005    2    1    2  501    0  0.84955782544E-02 -0.97033070348E-02 -0.89674047842E+03  0.11032591151E+04  0.64267969416E+03 0.  0.
         13    1    3    3    0    0  0.27478111395E+03  0.16015672591E+03 -0.36960684302E+03  0.48761055756E+03  0.00000000000E+00 0.  1.
          1    1    3    3  501    0 -0.27477261837E+03 -0.16016642922E+03 -0.52713363540E+03  0.61564855756E+03  0.00000000000E+00 0.  1.
         21    1    1    2  502  501 -0.84955782544E-02  0.97033070348E-02  0.20440453749E+00  0.20481099571E+00  0.00000000000E+00 0. -1.
<mgrwt>
<rscale>  1 0.64267969E+03</rscale>
<asrwt>0</asrwt>
<pdfrwt beam="1">  1        1 0.37623325E+00 0.64267969E+03</pdfrwt>
<pdfrwt beam="2">0</pdfrwt>
<totfact> 0.17072210E+00</totfact>
</mgrwt>
</event>
<event>
 6    1  0.2234319E-003  0.6349422E+03  0.7818608E-02  0.9835452E-01
          1   -1    0    0  502    0  0.00000000000E+00  0.00000000000E+00  0.10078791613E+03  0.10078791613E+03  0.00000000000E+00 0.  1.
         13   -1    0    0    0    0 -0.00000000000E+00 -0.00000000000E+00 -0.10000000000E+04  0.10000000000E+04  0.00000000000E+00 0.  1.
    9000005    2    1    2  501    0  0.17874253349E-05 -0.39540869352E-05 -0.89921208939E+03  0.11007879091E+04  0.63494223292E+03 0.  0.
         13    1    3    3    0    0  0.71918143443E+01  0.15955968949E+03  0.26057949385E+02  0.16183335079E+03  0.00000000000E+00 0.  1.
          1    1    3    3  501    0 -0.71918125569E+01 -0.15955969344E+03 -0.92527003877E+03  0.93895455832E+03  0.00000000000E+00 0.  1.
         21    1    1    2  502  501 -0.17874253348E-05  0.39540869297E-05  0.55203456279E-05  0.70216742040E-05  0.00000000000E+00 0. -1.
<mgrwt>
<rscale>  1 0.63494223E+03</rscale>
<asrwt>0</asrwt>
<pdfrwt beam="1">  1        1 0.36650229E+00 0.63494223E+03</pdfrwt>
<pdfrwt beam="2">0</pdfrwt>
<totfact> 0.18865400E+00</totfact>
</mgrwt>
</event>
<event>
 6    1  0.2234319E-003  0.6203210E+03  0.7818608E-02  0.9864121E-01
          1   -1    0    0  502    0  0.00000000000E+00  0.00000000000E+00  0.96222959304E+02  0.96222959304E+02  0.00000000000E+00 0.  1.
         13   -1    0    0    0    0 -0.00000000000E+00 -0.00000000000E+00 -0.10000000000E+04  0.10000000000E+04  0.00000000000E+00 0.  1.
    9000005    2    1    2  501    0 -0.23800302002E-02  0.21715532630E-02 -0.90380033345E+03  0.10961994448E+04  0.62032102978E+03 0.  0.
         13    1    3    3    0    0 -0.10942562907E+03  0.28527476299E+03 -0.35764897684E+03  0.47039180407E+03  0.00000000000E+00 0.  1.
          3    1    3    3  501    0  0.10942324904E+03 -0.28527259144E+03 -0.54615135661E+03  0.62580764072E+03  0.00000000000E+00 0.  1.
         21    1    1    2  502  501  0.23800302002E-02 -0.21715532630E-02  0.23292754775E-01  0.23514519182E-01  0.00000000000E+00 0. -1.
<mgrwt>
<rscale>  1 0.62032103E+03</rscale>
<asrwt>0</asrwt>
<pdfrwt beam="1">  1        1 0.34990241E+00 0.62032103E+03</pdfrwt>
<pdfrwt beam="2">0</pdfrwt>
<totfact> 0.22354386E+00</totfact>
</mgrwt>
</event>
<event>
 6    1  0.2234319E-003  0.6089623E+03  0.7818608E-02  0.9886985E-01
          1   -1    0    0  502    0  0.00000000000E+00  0.00000000000E+00  0.92904661364E+02  0.92904661364E+02  0.00000000000E+00 0.  1.
         13   -1    0    0    0    0 -0.00000000000E+00 -0.00000000000E+00 -0.10000000000E+04  0.10000000000E+04  0.00000000000E+00 0.  1.
    9000005    2    1    2  501    0  0.12780838163E+00  0.18853515480E+00 -0.90721644956E+03  0.10926466917E+04  0.60896227689E+03 0.  0.
         13    1    3    3    0    0 -0.23926809666E+02 -0.21286300076E+03 -0.65414103075E+02  0.22396909205E+03  0.00000000000E+00 0.  1.
          1    1    3    3  501    0  0.24054618048E+02  0.21305153591E+03 -0.84180234648E+03  0.86867759966E+03  0.00000000000E+00 0.  1.
         21    1    1    2  502  501 -0.12780838163E+00 -0.18853515480E+00  0.12111092233E+00  0.25796965426E+00  0.00000000000E+00 0.  1.
<mgrwt>
<rscale>  1 0.60896232E+03</rscale>
<asrwt>0</asrwt>
<pdfrwt beam="1">  1        1 0.33783584E+00 0.60896232E+03</pdfrwt>
<pdfrwt beam="2">0</pdfrwt>
<totfact> 0.25276263E+00</totfact>
</mgrwt>
</event>
<event>
 6    1  0.2234319E-003  0.6462804E+03  0.7818608E-02  0.9813784E-01
          1   -1    0    0  502    0  0.00000000000E+00  0.00000000000E+00  0.10448323218E+03  0.10448323218E+03  0.00000000000E+00 0.  1.
         13   -1    0    0    0    0 -0.00000000000E+00 -0.00000000000E+00 -0.10000000000E+04  0.10000000000E+04  0.00000000000E+00 0.  1.
    9000005    2    1    2  501    0  0.11902433074E-01  0.25148398970E-02 -0.89557975598E+03  0.11044190800E+04  0.64628043822E+03 0.  0.
         13    1    3    3    0    0 -0.30147854965E+03 -0.89835106071E+02 -0.32155389248E+03  0.44984060283E+03  0.00000000000E+00 0.  1.
          1    1    3    3  501    0  0.30149045208E+03  0.89837620911E+02 -0.57402586350E+03  0.65457847719E+03  0.00000000000E+00 0.  1.
         21    1    1    2  502  501 -0.11902433074E-01 -0.25148398970E-02  0.62988158581E-01  0.64152166404E-01  0.00000000000E+00 0.  1.
<mgrwt>
<rscale>  1 0.64628044E+03</rscale>
<asrwt>0</asrwt>
<pdfrwt beam="1">  1        1 0.37993983E+00 0.64628044E+03</pdfrwt>
<pdfrwt beam="2">0</pdfrwt>
<totfact> 0.16430988E+00</totfact>
</mgrwt>
</event>
<event>
 6    1  0.2234319E-003  0.6497279E+03  0.7818608E-02  0.9807290E-01
          1   -1    0    0  502    0  0.00000000000E+00  0.00000000000E+00  0.10553677022E+03  0.10553677022E+03  0.00000000000E+00 0.  1.
         13   -1    0    0    0    0 -0.00000000000E+00 -0.00000000000E+00 -0.10000000000E+04  0.10000000000E+04  0.00000000000E+00 0.  1.
    9000005    2    1    2  501    0 -0.52393758494E-04 -0.11624803511E-03 -0.89446337723E+03  0.11055365753E+04  0.64972793234E+03 0.  0.
         13    1    3    3    0    0  0.22103238005E+03  0.23546108101E+03 -0.38733061832E+03  0.50430371959E+03  0.00000000000E+00 0.  1.
          1    1    3    3  501    0 -0.22103243244E+03 -0.23546119725E+03 -0.50713275891E+03  0.60123285569E+03  0.00000000000E+00 0.  1.
         21    1    1    2  502  501  0.52393758469E-04  0.11624803511E-03  0.14745093231E-03  0.19493714123E-03  0.00000000000E+00 0. -1.
<mgrwt>
<rscale>  1 0.64972793E+03</rscale>
<asrwt>0</asrwt>
<pdfrwt beam="1">  1        1 0.38377088E+00 0.64972793E+03</pdfrwt>
<pdfrwt beam="2">0</pdfrwt>
<totfact> 0.15793159E+00</totfact>
</mgrwt>
</event>
<event>
 6    1  0.2234319E-003  0.6532750E+03  0.7818608E-02  0.9800653E-01
          1   -1    0    0  502    0  0.00000000000E+00  0.00000000000E+00  0.10672383374E+03  0.10672383374E+03  0.00000000000E+00 0.  1.
         13   -1    0    0    0    0 -0.00000000000E+00 -0.00000000000E+00 -0.10000000000E+04  0.10000000000E+04  0.00000000000E+00 0.  1.
    9000005    2    1    2  501    0 -0.17883350477E-02  0.93503096497E-03 -0.89330791642E+03  0.11066920195E+04  0.65327497466E+03 0.  0.
         13    1    3    3    0    0 -0.76172606847E+00  0.28963174039E+03 -0.19082677756E+03  0.34684576443E+03  0.00000000000E+00 0.  1.
          3    1    3    3  501    0  0.75993773343E+00 -0.28963080536E+03 -0.70248113886E+03  0.75984625509E+03  0.00000000000E+00 0.  1.
         21    1    1    2  502  501  0.17883350477E-02 -0.93503096495E-03  0.31750156325E-01  0.31814224049E-01  0.00000000000E+00 0.  1.
<mgrwt>
<rscale>  1 0.65327497E+03</rscale>
<asrwt>0</asrwt>
<pdfrwt beam="1">  1        1 0.38808749E+00 0.65327497E+03</pdfrwt>
<pdfrwt beam="2">0</pdfrwt>
<totfact> 0.15103645E+00</totfact>
</mgrwt>
</event>
<event>
 6    1  0.2234319E-003  0.6507921E+03  0.7818608E-02  0.9805294E-01
          1   -1    0    0  502    0  0.00000000000E+00  0.00000000000E+00  0.10588278285E+03  0.10588278285E+03  0.00000000000E+00 0.  1.
         13   -1    0    0    0    0 -0.00000000000E+00 -0.00000000000E+00 -0.10000000000E+04  0.10000000000E+04  0.00000000000E+00 0.  1.
    9000005    2    1    2  501    0 -0.24047649333E-04  0.12640628313E-04 -0.89411741554E+03  0.11058825826E+04  0.65079208180E+03 0.  0.
         13    1    3    3    0    0  0.16571518713E+03  0.26124712404E+03 -0.27568326811E+03  0.41438248923E+03  0.00000000000E+00 0.  1.
          3    1    3    3  501    0 -0.16571521118E+03 -0.26124711139E+03 -0.61843414743E+03  0.69150009337E+03  0.00000000000E+00 0.  1.
         21    1    1    2  502  501  0.24047649328E-04 -0.12640628269E-04  0.19839630055E-03  0.20024776401E-03  0.00000000000E+00 0.  1.
<mgrwt>
<rscale>  1 0.65079208E+03</rscale>
<asrwt>0</asrwt>
<pdfrwt beam="1">  1        1 0.38502911E+00 0.65079208E+03</pdfrwt>
<pdfrwt beam="2">0</pdfrwt>
<totfact> 0.15589061E+00</totfact>
</mgrwt>
</event>
<event>
 6    1  0.2234319E-003  0.6532726E+03  0.7818608E-02  0.9800658E-01
          1   -1    0    0  502    0  0.00000000000E+00  0.00000000000E+00  0.10669526161E+03  0.10669526161E+03  0.00000000000E+00 0.  1.
         13   -1    0    0    0    0 -0.00000000000E+00 -0.00000000000E+00 -0.10000000000E+04  0.10000000000E+04  0.00000000000E+00 0.  1.
    9000005    2    1    2  501    0 -0.51582536943E-02 -0.10395030318E-02 -0.89330669329E+03  0.11066896483E+04  0.65327263010E+03 0.  0.
         13    1    3    3    0    0 -0.33371810989E+02 -0.16896367096E+03 -0.91682867423E+03  0.93286505871E+03  0.00000000000E+00 0.  1.
          3    1    3    3  501    0  0.33366652735E+02  0.16896263146E+03  0.23521980934E+02  0.17382458955E+03  0.00000000000E+00 0.  1.
         21    1    1    2  502  501  0.51582536943E-02  0.10395030318E-02  0.19549091534E-02  0.56133606268E-02  0.00000000000E+00 0. -1.
<mgrwt>
<rscale>  1 0.65327263E+03</rscale>
<asrwt>0</asrwt>
<pdfrwt beam="1">  1        1 0.38798359E+00 0.65327263E+03</pdfrwt>
<pdfrwt beam="2">0</pdfrwt>
<totfact> 0.15119668E+00</totfact>
</mgrwt>
</event>
<event>
 6    1  0.2234319E-003  0.6539156E+03  0.7818608E-02  0.9799459E-01
          1   -1    0    0  502    0  0.00000000000E+00  0.00000000000E+00  0.10690154534E+03  0.10690154534E+03  0.00000000000E+00 0.  1.
         13   -1    0    0    0    0 -0.00000000000E+00 -0.00000000000E+00 -0.10000000000E+04  0.10000000000E+04  0.00000000000E+00 0.  1.
    9000005    2    1    2  501    0  0.95151363894E-04  0.12205185601E-03 -0.89309854093E+03  0.11069013682E+04  0.65391561765E+03 0.  0.
         13    1    3    3    0    0  0.13426774245E+03  0.28772793299E+03 -0.31449198371E+03  0.44690088152E+03  0.00000000000E+00 0.  1.
          1    1    3    3  501    0 -0.13426764730E+03 -0.28772781094E+03 -0.57860655722E+03  0.66000048663E+03  0.00000000000E+00 0.  1.
         21    1    1    2  502  501 -0.95151363875E-04 -0.12205185602E-03  0.86267573205E-04  0.17717937744E-03  0.00000000000E+00 0.  1.
<mgrwt>
<rscale>  1 0.65391562E+03</rscale>
<asrwt>0</asrwt>
<pdfrwt beam="1">  1        1 0.38873371E+00 0.65391562E+03</pdfrwt>
<pdfrwt beam="2">0</pdfrwt>
<totfact> 0.15002609E+00</totfact>
</mgrwt>
</event>
<event>
 6    1  0.2234319E-003  0.6370203E+03  0.7818608E-02  0.9831444E-01
          1   -1    0    0  502    0  0.00000000000E+00  0.00000000000E+00  0.10173409302E+03  0.10173409302E+03  0.00000000000E+00 0.  1.
         13   -1    0    0    0    0 -0.00000000000E+00 -0.00000000000E+00 -0.10000000000E+04  0.10000000000E+04  0.00000000000E+00 0.  1.
    9000005    2    1    2  501    0  0.54236390446E-02  0.34457121794E-03 -0.89855124130E+03  0.11014487070E+04  0.63702034566E+03 0.  0.
         13    1    3    3    0    0  0.11639852078E+03  0.14189349864E+03  0.83446710114E+00  0.18352949880E+03  0.00000000000E+00 0.  1.
          3    1    3    3  501    0 -0.11639309714E+03 -0.14189315407E+03 -0.89938570840E+03  0.91791920816E+03  0.00000000000E+00 0.  1.
         21    1    1    2  502  501 -0.54236390446E-02 -0.34457121794E-03  0.28533431136E+00  0.28538606103E+00  0.00000000000E+00 0.  1.
<mgrwt>
<rscale>  1 0.63702035E+03</rscale>
<asrwt>0</asrwt>
<pdfrwt beam="1">  1        1 0.36994294E+00 0.63702035E+03</pdfrwt>
<pdfrwt beam="2">0</pdfrwt>
<totfact> 0.18213903E+00</totfact>
</mgrwt>
</event>
<event>
 6    1  0.2234319E-003  0.6505462E+03  0.7818608E-02  0.9805755E-01
          1   -1    0    0  502    0  0.00000000000E+00  0.00000000000E+00  0.10580260639E+03  0.10580260639E+03  0.00000000000E+00 0.  1.
         13   -1    0    0    0    0 -0.00000000000E+00 -0.00000000000E+00 -0.10000000000E+04  0.10000000000E+04  0.00000000000E+00 0.  1.
    9000005    2    1    2  501    0 -0.23114003511E-05 -0.39898458795E-05 -0.89419741915E+03  0.11058025804E+04  0.65054617245E+03 0.  0.
         13    1    3    3    0    0 -0.23763787004E+03  0.18298850010E+03 -0.23312533396E+03  0.37987362343E+03  0.00000000000E+00 0.  1.
          1    1    3    3  501    0  0.23763786773E+03 -0.18298850409E+03 -0.66107208519E+03  0.72592895701E+03  0.00000000000E+00 0.  1.
         21    1    1    2  502  501  0.23114003278E-05  0.39898458772E-05  0.25544840193E-04  0.25957663649E-04  0.00000000000E+00 0. -1.
<mgrwt>
<rscale>  1 0.65054617E+03</rscale>
<asrwt>0</asrwt>
<pdfrwt beam="1">  1        1 0.38473756E+00 0.65054617E+03</pdfrwt>
<pdfrwt beam="2">0</pdfrwt>
<totfact> 0.15636127E+00</totfact>
</mgrwt>
</event>
<event>
 6    1  0.2234319E-003  0.6498630E+03  0.7818608E-02  0.9807036E-01
          1   -1    0    0  502    0  0.00000000000E+00  0.00000000000E+00  0.11706533077E+03  0.11706533077E+03  0.00000000000E+00 0.  1.
         13   -1    0    0    0    0 -0.00000000000E+00 -0.00000000000E+00 -0.10000000000E+04  0.10000000000E+04  0.00000000000E+00 0.  1.
    9000005    2    1    2  501    0 -0.10846730032E+02  0.21573650010E+01 -0.89139927642E+03  0.11031385454E+04  0.64976893934E+03 0.  0.
         13    1    3    3    0    0 -0.31220903187E+03 -0.22964925405E+02 -0.27555463539E+03  0.41705182468E+03  0.00000000000E+00 0.  1.
          3    1    3    3  501    0  0.30136230184E+03  0.25122290406E+02 -0.61584464103E+03  0.68608672071E+03  0.00000000000E+00 0.  1.
         21    1    1    2  502  501  0.10846730032E+02 -0.21573650010E+01  0.84646071948E+01  0.13926785383E+02  0.00000000000E+00 0.  1.
<mgrwt>
<rscale>  1 0.64986305E+03</rscale>
<asrwt>0</asrwt>
<pdfrwt beam="1">  1        1 0.42569301E+00 0.64986305E+03</pdfrwt>
<pdfrwt beam="2">0</pdfrwt>
<totfact> 0.10257610E+00</totfact>
</mgrwt>
</event>
<event>
 6    1  0.2234319E-003  0.6526164E+03  0.7818608E-02  0.9801882E-01
          1   -1    0    0  502    0  0.00000000000E+00  0.00000000000E+00  0.10647744876E+03  0.10647744876E+03  0.00000000000E+00 0.  1.
         13   -1    0    0    0    0 -0.00000000000E+00 -0.00000000000E+00 -0.10000000000E+04  0.10000000000E+04  0.00000000000E+00 0.  1.
    9000005    2    1    2  501    0 -0.59684059295E-04 -0.84440993220E-05 -0.89352294079E+03  0.11064770546E+04  0.65261644676E+03 0.  0.
         13    1    3    3    0    0 -0.27458639617E+03  0.80669313964E+02 -0.18099313935E+03  0.33862035330E+03  0.00000000000E+00 0.  1.
          1    1    3    3  501    0  0.27458633648E+03 -0.80669322408E+02 -0.71252980144E+03  0.76785670128E+03  0.00000000000E+00 0.  1.
         21    1    1    2  502  501  0.59684059265E-04  0.84440993227E-05  0.38954536737E-03  0.39418153557E-03  0.00000000000E+00 0.  1.
<mgrwt>
<rscale>  1 0.65261645E+03</rscale>
<asrwt>0</asrwt>
<pdfrwt beam="1">  1        1 0.38719154E+00 0.65261645E+03</pdfrwt>
<pdfrwt beam="2">0</pdfrwt>
<totfact> 0.15244146E+00</totfact>
</mgrwt>
</event>
<event>
 6    1  0.2234319E-003  0.6494974E+03  0.7818608E-02  0.9807723E-01
          1   -1    0    0  502    0  0.00000000000E+00  0.00000000000E+00  0.10726675122E+03  0.10726675122E+03  0.00000000000E+00 0.  1.
         13   -1    0    0    0    0 -0.00000000000E+00 -0.00000000000E+00 -0.10000000000E+04  0.10000000000E+04  0.00000000000E+00 0.  1.
    9000005    2    1    2  501    0  0.11991207131E+00  0.27111606181E+00 -0.89452481787E+03  0.11054508210E+04  0.64949732865E+03 0.  0.
         13    1    3    3    0    0 -0.21550203481E+03 -0.24030269813E+03 -0.50563897301E+03  0.59988105884E+03  0.00000000000E+00 0.  1.
          1    1    3    3  501    0  0.21562194688E+03  0.24057381419E+03 -0.38888584487E+03  0.50556976214E+03  0.00000000000E+00 0.  1.
         21    1    1    2  502  501 -0.11991207131E+00 -0.27111606181E+00  0.17915690923E+01  0.18159302399E+01  0.00000000000E+00 0. -1.
<mgrwt>
<rscale>  1 0.64949740E+03</rscale>
<asrwt>0</asrwt>
<pdfrwt beam="1">  1        1 0.39006174E+00 0.64949740E+03</pdfrwt>
<pdfrwt beam="2">0</pdfrwt>
<totfact> 0.14812778E+00</totfact>
</mgrwt>
</event>
<event>
 6    1  0.2234319E-003  0.6475745E+03  0.7818608E-02  0.9811341E-01
          1   -1    0    0  502    0  0.00000000000E+00  0.00000000000E+00  0.10517827191E+03  0.10517827191E+03  0.00000000000E+00 0.  1.
         13   -1    0    0    0    0 -0.00000000000E+00 -0.00000000000E+00 -0.10000000000E+04  0.10000000000E+04  0.00000000000E+00 0.  1.
    9000005    2    1    2  501    0  0.21108943178E-01  0.51547379048E-02 -0.89516144502E+03  0.11048378608E+04  0.64757446325E+03 0.  0.
         13    1    3    3    0    0 -0.13698073907E+03  0.10574008609E+03  0.19324468893E+02  0.17412100327E+03  0.00000000000E+00 0.  1.
          1    1    3    3  501    0  0.13700184801E+03 -0.10573493136E+03 -0.91448591391E+03  0.93071685749E+03  0.00000000000E+00 0.  1.
         21    1    1    2  502  501 -0.21108943178E-01 -0.51547379048E-02  0.33971692917E+00  0.34041114960E+00  0.00000000000E+00 0.  1.
<mgrwt>
<rscale>  1 0.64757446E+03</rscale>
<asrwt>0</asrwt>
<pdfrwt beam="1">  1        1 0.38246725E+00 0.64757446E+03</pdfrwt>
<pdfrwt beam="2">0</pdfrwt>
<totfact> 0.16010401E+00</totfact>
</mgrwt>
</event>
<event>
 6    1  0.2234319E-003  0.6451752E+03  0.7818608E-02  0.9815875E-01
          1   -1    0    0  502    0  0.00000000000E+00  0.00000000000E+00  0.10421108614E+03  0.10421108614E+03  0.00000000000E+00 0.  1.
         13   -1    0    0    0    0 -0.00000000000E+00 -0.00000000000E+00 -0.10000000000E+04  0.10000000000E+04  0.00000000000E+00 0.  1.
    9000005    2    1    2  501    0  0.15587033299E-02  0.22339013332E-01 -0.89593630971E+03  0.11040619989E+04  0.64517519009E+03 0.  0.
         13    1    3    3    0    0  0.98876809715E+02  0.30335125832E+03 -0.36643160020E+03  0.48587110127E+03  0.00000000000E+00 0.  1.
          1    1    3    3  501    0 -0.98875251011E+02 -0.30332891931E+03 -0.52950470951E+03  0.61819089766E+03  0.00000000000E+00 0.  1.
         21    1    1    2  502  501 -0.15587033299E-02 -0.22339013332E-01  0.14739585066E+00  0.14908721563E+00  0.00000000000E+00 0. -1.
<mgrwt>
<rscale>  1 0.64517519E+03</rscale>
<asrwt>0</asrwt>
<pdfrwt beam="1">  1        1 0.37895020E+00 0.64517519E+03</pdfrwt>
<pdfrwt beam="2">0</pdfrwt>
<totfact> 0.16600345E+00</totfact>
</mgrwt>
</event>
<event>
 6    1  0.2234319E-003  0.6525139E+03  0.7818608E-02  0.9802073E-01
          1   -1    0    0  502    0  0.00000000000E+00  0.00000000000E+00  0.10644544332E+03  0.10644544332E+03  0.00000000000E+00 0.  1.
         13   -1    0    0    0    0 -0.00000000000E+00 -0.00000000000E+00 -0.10000000000E+04  0.10000000000E+04  0.00000000000E+00 0.  1.
    9000005    2    1    2  501    0 -0.46329129624E-03  0.65275094184E-03 -0.89355631091E+03  0.11064435151E+04  0.65251388592E+03 0.  0.
         13    1    3    3    0    0 -0.40523286108E+02  0.16594978240E+03 -0.91810634943E+03  0.93386333896E+03  0.00000000000E+00 0.  1.
          1    1    3    3  501    0  0.40522822817E+02 -0.16594912965E+03  0.24550038516E+02  0.17258017613E+03  0.00000000000E+00 0.  1.
         21    1    1    2  502  501  0.46329129624E-03 -0.65275094185E-03  0.17542368292E-02  0.19282296207E-02  0.00000000000E+00 0.  1.
<mgrwt>
<rscale>  1 0.65251389E+03</rscale>
<asrwt>0</asrwt>
<pdfrwt beam="1">  1        1 0.38707516E+00 0.65251389E+03</pdfrwt>
<pdfrwt beam="2">0</pdfrwt>
<totfact> 0.15262536E+00</totfact>
</mgrwt>
</event>
<event>
 6    1  0.2234319E-003  0.6474099E+03  0.7818608E-02  0.9811652E-01
          1   -1    0    0  502    0  0.00000000000E+00  0.00000000000E+00  0.10479820191E+03  0.10479820191E+03  0.00000000000E+00 0.  1.
         13   -1    0    0    0    0 -0.00000000000E+00 -0.00000000000E+00 -0.10000000000E+04  0.10000000000E+04  0.00000000000E+00 0.  1.
    9000005    2    1    2  501    0  0.31275509463E-01  0.58470831599E-02 -0.89518938663E+03  0.11047640495E+04  0.64740989027E+03 0.  0.
         13    1    3    3    0    0 -0.15224696398E+03  0.74252393226E+02 -0.91828990612E+03  0.93378204503E+03  0.00000000000E+00 0.  1.
          3    1    3    3  501    0  0.15227823949E+03 -0.74246546143E+02  0.23100519487E+02  0.17098200443E+03  0.00000000000E+00 0.  1.
         21    1    1    2  502  501 -0.31275509463E-01 -0.58470831599E-02 -0.12411456284E-01  0.34152454096E-01  0.00000000000E+00 0. -1.
<mgrwt>
<rscale>  1 0.64740989E+03</rscale>
<asrwt>0</asrwt>
<pdfrwt beam="1">  1        1 0.38108517E+00 0.64740989E+03</pdfrwt>
<pdfrwt beam="2">0</pdfrwt>
<totfact> 0.16237481E+00</totfact>
</mgrwt>
</event>
<event>
 6    1  0.2234319E-003  0.6529869E+03  0.7818608E-02  0.9801191E-01
          1   -1    0    0  502    0  0.00000000000E+00  0.00000000000E+00  0.10875508920E+03  0.10875508920E+03  0.00000000000E+00 0.  1.
         13   -1    0    0    0    0 -0.00000000000E+00 -0.00000000000E+00 -0.10000000000E+04  0.10000000000E+04  0.00000000000E+00 0.  1.
    9000005    2    1    2  501    0 -0.11038258396E-02 -0.31282522770E-01 -0.89340189827E+03  0.11065978746E+04  0.65298690899E+03 0.  0.
         13    1    3    3    0    0  0.60905653317E+02  0.20808500732E+03 -0.33025930369E+02  0.21931616665E+03  0.00000000000E+00 0.  1.
          3    1    3    3  501    0 -0.60906757143E+02 -0.20811628984E+03 -0.86037596790E+03  0.88728170797E+03  0.00000000000E+00 0.  1.
         21    1    1    2  502  501  0.11038258396E-02  0.31282522770E-01  0.21569874694E+01  0.21572145832E+01  0.00000000000E+00 0.  1.
<mgrwt>
<rscale>  1 0.65298691E+03</rscale>
<asrwt>0</asrwt>
<pdfrwt beam="1">  1        1 0.39547389E+00 0.65298691E+03</pdfrwt>
<pdfrwt beam="2">0</pdfrwt>
<totfact> 0.14006195E+00</totfact>
</mgrwt>
</event>
<event>
 6    1  0.2234319E-003  0.6477939E+03  0.7818608E-02  0.9810928E-01
          1   -1    0    0  502    0  0.00000000000E+00  0.00000000000E+00  0.10492448037E+03  0.10492448037E+03  0.00000000000E+00 0.  1.
         13   -1    0    0    0    0 -0.00000000000E+00 -0.00000000000E+00 -0.10000000000E+04  0.10000000000E+04  0.00000000000E+00 0.  1.
    9000005    2    1    2  501    0  0.16785948520E-03 -0.32974166606E-03 -0.89509075468E+03  0.11049092408E+04  0.64779392661E+03 0.  0.
         13    1    3    3    0    0  0.15821187260E+03  0.26885463916E+03 -0.59619497285E+03  0.67287610991E+03  0.00000000000E+00 0.  1.
          3    1    3    3  501    0 -0.15821170474E+03 -0.26885496890E+03 -0.29889578182E+03  0.43203313092E+03  0.00000000000E+00 0.  1.
         21    1    1    2  502  501 -0.16785948519E-03  0.32974166604E-03  0.15235047204E-01  0.15239539681E-01  0.00000000000E+00 0. -1.
<mgrwt>
<rscale>  1 0.64779393E+03</rscale>
<asrwt>0</asrwt>
<pdfrwt beam="1">  1        1 0.38154437E+00 0.64779393E+03</pdfrwt>
<pdfrwt beam="2">0</pdfrwt>
<totfact> 0.16160715E+00</totfact>
</mgrwt>
</event>
<event>
 6    1  0.2234319E-003  0.6400803E+03  0.7818608E-02  0.9825573E-01
          1   -1    0    0  502    0  0.00000000000E+00  0.00000000000E+00  0.10251684270E+03  0.10251684270E+03  0.00000000000E+00 0.  1.
         13   -1    0    0    0    0 -0.00000000000E+00 -0.00000000000E+00 -0.10000000000E+04  0.10000000000E+04  0.00000000000E+00 0.  1.
    9000005    2    1    2  501    0  0.43862907779E-01  0.76721390811E-01 -0.89755007210E+03  0.11024059927E+04  0.64008033329E+03 0.  0.
         13    1    3    3    0    0  0.16256656580E+03  0.15154670172E+03 -0.52126823861E+02  0.22827942720E+03  0.00000000000E+00 0.  1.
          1    1    3    3  501    0 -0.16252270289E+03 -0.15146998032E+03 -0.84542324824E+03  0.87412656552E+03  0.00000000000E+00 0.  1.
         21    1    1    2  502  501 -0.43862907779E-01 -0.76721390811E-01  0.66914796923E-01  0.11084997309E+00  0.00000000000E+00 0.  1.
<mgrwt>
<rscale>  1 0.64008034E+03</rscale>
<asrwt>0</asrwt>
<pdfrwt beam="1">  1        1 0.37278931E+00 0.64008034E+03</pdfrwt>
<pdfrwt beam="2">0</pdfrwt>
<totfact> 0.17686923E+00</totfact>
</mgrwt>
</event>
<event>
 6    1  0.3840682E-003  0.6456797E+03  0.7818608E-02  0.9814920E-01
          1   -1    0    0  502    0  0.00000000000E+00  0.00000000000E+00  0.10422555529E+03  0.10422555529E+03  0.00000000000E+00 0.  1.
         13   -1    0    0    0    0 -0.00000000000E+00 -0.00000000000E+00 -0.10000000000E+04  0.10000000000E+04  0.00000000000E+00 0.  1.
    9000005    2    1    2  501    0  0.15850731927E-05 -0.17283196030E-06 -0.89577444683E+03  0.11042255526E+04  0.64567965083E+03 0.  0.
         13    1    3    3    0    0 -0.22639350611E+03 -0.19577561743E+03 -0.24093873472E+03  0.38423116204E+03  0.00000000000E+00 0.  1.
          1    1    3    3  501    0  0.22639350770E+03  0.19577561725E+03 -0.65483571211E+03  0.71999439060E+03  0.00000000000E+00 0.  1.
         21    1    1    2  502  501 -0.15850732026E-05  0.17283195354E-06  0.21204747014E-05  0.26530625513E-05  0.00000000000E+00 0. -1.
<mgrwt>
<rscale>  1 0.64567965E+03</rscale>
<asrwt>0</asrwt>
<pdfrwt beam="1">  1        1 0.37900282E+00 0.64567965E+03</pdfrwt>
<pdfrwt beam="2">0</pdfrwt>
<totfact> 0.16589941E+00</totfact>
</mgrwt>
</event>
<event>
 6    1  0.2234319E-003  0.6007501E+03  0.7818608E-02  0.9903851E-01
          1   -1    0    0  502    0  0.00000000000E+00  0.00000000000E+00  0.90371426786E+02  0.90371426786E+02  0.00000000000E+00 0.  1.
         13   -1    0    0    0    0 -0.00000000000E+00 -0.00000000000E+00 -0.10000000000E+04  0.10000000000E+04  0.00000000000E+00 0.  1.
    9000005    2    1    2  501    0 -0.11437347537E+00 -0.34520014977E-01 -0.90974781902E+03  0.10902026296E+04  0.60075008541E+03 0.  0.
         13    1    3    3    0    0 -0.12230926047E+03 -0.25826841728E+03 -0.28677761035E+03  0.40485000724E+03  0.00000000000E+00 0.  1.
          3    1    3    3  501    0  0.12219488699E+03  0.25823389726E+03 -0.62297020867E+03  0.68535262237E+03  0.00000000000E+00 0.  1.
         21    1    1    2  502  501  0.11437347537E+00  0.34520014977E-01  0.11924581050E+00  0.16879717600E+00  0.00000000000E+00 0. -1.
<mgrwt>
<rscale>  1 0.60075010E+03</rscale>
<asrwt>0</asrwt>
<pdfrwt beam="1">  1        1 0.32862406E+00 0.60075010E+03</pdfrwt>
<pdfrwt beam="2">0</pdfrwt>
<totfact> 0.27750982E+00</totfact>
</mgrwt>
</event>
<event>
 6    1  0.2234319E-003  0.6308698E+03  0.7818608E-02  0.9843353E-01
          3   -1    0    0  502    0  0.00000000000E+00  0.00000000000E+00  0.10521623070E+03  0.10521623070E+03  0.00000000000E+00 0.  1.
         13   -1    0    0    0    0 -0.00000000000E+00 -0.00000000000E+00 -0.10000000000E+04  0.10000000000E+04  0.00000000000E+00 0.  1.
    9000005    2    1    2  501    0 -0.32892196312E-01 -0.79472443398E+00 -0.90047037595E+03  0.10994742655E+04  0.63086934459E+03 0.  0.
         13    1    3    3    0    0 -0.11791948998E+00  0.28600743718E+03 -0.21935883019E+03  0.36044217902E+03  0.00000000000E+00 0.  1.
          1    1    3    3  501    0  0.85027293670E-01 -0.28680216162E+03 -0.68111154576E+03  0.73903208652E+03  0.00000000000E+00 0.  1.
         21    1    1    2  502  501  0.32892196312E-01  0.79472443398E+00  0.56866066442E+01  0.57419651644E+01  0.00000000000E+00 0.  1.
<mgrwt>
<rscale>  1 0.63086985E+03</rscale>
<asrwt>0</asrwt>
<pdfrwt beam="1">  1        3 0.38260528E+00 0.63086985E+03</pdfrwt>
<pdfrwt beam="2">0</pdfrwt>
<totfact> 0.73360971E-02</totfact>
</mgrwt>
</event>
<event>
 6    1  0.2234319E-003  0.6523031E+03  0.7818608E-02  0.9802467E-01
          1   -1    0    0  502    0  0.00000000000E+00  0.00000000000E+00  0.10637731264E+03  0.10637731264E+03  0.00000000000E+00 0.  1.
         13   -1    0    0    0    0 -0.00000000000E+00 -0.00000000000E+00 -0.10000000000E+04  0.10000000000E+04  0.00000000000E+00 0.  1.
    9000005    2    1    2  501    0  0.26726997453E-03  0.14737652373E-03 -0.89362515812E+03  0.11063748231E+04  0.65230309364E+03 0.  0.
         13    1    3    3    0    0 -0.79267422650E+02 -0.25824569478E+03 -0.13683504881E+03  0.30281676596E+03  0.00000000000E+00 0.  1.
          3    1    3    3  501    0  0.79267689920E+02  0.25824584215E+03 -0.75679010931E+03  0.80355805714E+03  0.00000000000E+00 0.  1.
         21    1    1    2  502  501 -0.26726997453E-03 -0.14737652373E-03  0.24707607783E-02  0.24895405003E-02  0.00000000000E+00 0. -1.
<mgrwt>
<rscale>  1 0.65230309E+03</rscale>
<asrwt>0</asrwt>
<pdfrwt beam="1">  1        1 0.38682741E+00 0.65230309E+03</pdfrwt>
<pdfrwt beam="2">0</pdfrwt>
<totfact> 0.15301732E+00</totfact>
</mgrwt>
</event>
<event>
 6    1  0.2234319E-003  0.6530013E+03  0.7818608E-02  0.9801164E-01
          1   -1    0    0  502    0  0.00000000000E+00  0.00000000000E+00  0.12446507996E+03  0.12446507996E+03  0.00000000000E+00 0.  1.
         13   -1    0    0    0    0 -0.00000000000E+00 -0.00000000000E+00 -0.10000000000E+04  0.10000000000E+04  0.00000000000E+00 0.  1.
    9000005    2    1    2  501    0 -0.13314510515E+02 -0.52165807452E+01 -0.89017313218E+03  0.11040013032E+04  0.65284468544E+03 0.  0.
         13    1    3    3    0    0  0.14014809118E+03  0.28073757763E+03 -0.55434875001E+03  0.63699106084E+03  0.00000000000E+00 0.  1.
          3    1    3    3  501    0 -0.15346260169E+03 -0.28595415837E+03 -0.33582438216E+03  0.46701024235E+03  0.00000000000E+00 0.  1.
         21    1    1    2  502  501  0.13314510515E+02  0.52165807452E+01  0.14638212133E+02  0.20463776762E+02  0.00000000000E+00 0. -1.
<mgrwt>
<rscale>  1 0.65300128E+03</rscale>
<asrwt>0</asrwt>
<pdfrwt beam="1">  1        1 0.45260125E+00 0.65300128E+03</pdfrwt>
<pdfrwt beam="2">0</pdfrwt>
<totfact> 0.77235788E-01</totfact>
</mgrwt>
</event>
<event>
 6    1  0.2234319E-003  0.6512090E+03  0.7818608E-02  0.9804513E-01
          1   -1    0    0  502    0  0.00000000000E+00  0.00000000000E+00  0.10601832036E+03  0.10601832036E+03  0.00000000000E+00 0.  1.
         13   -1    0    0    0    0 -0.00000000000E+00 -0.00000000000E+00 -0.10000000000E+04  0.10000000000E+04  0.00000000000E+00 0.  1.
    9000005    2    1    2  501    0  0.21229057893E-04  0.29771305066E-05 -0.89398168867E+03  0.11060182971E+04  0.65120904006E+03 0.  0.
         13    1    3    3    0    0  0.22930739095E+03 -0.73473508536E+02 -0.81924082784E+03  0.85389447240E+03  0.00000000000E+00 0.  1.
          1    1    3    3  501    0 -0.22930736972E+03  0.73473511513E+02 -0.74740860825E+02  0.25212382470E+03  0.00000000000E+00 0.  1.
         21    1    1    2  502  501 -0.21229057891E-04 -0.29771305017E-05  0.90261469683E-05  0.23259568656E-04  0.00000000000E+00 0.  1.
<mgrwt>
<rscale>  1 0.65120904E+03</rscale>
<asrwt>0</asrwt>
<pdfrwt beam="1">  1        1 0.38552198E+00 0.65120904E+03</pdfrwt>
<pdfrwt beam="2">0</pdfrwt>
<totfact> 0.15509798E+00</totfact>
</mgrwt>
</event>
<event>
 6    1  0.2234319E-003  0.6393248E+03  0.7818608E-02  0.9827019E-01
          1   -1    0    0  502    0  0.00000000000E+00  0.00000000000E+00  0.17431138890E+03  0.17431138890E+03  0.00000000000E+00 0.  1.
         13   -1    0    0    0    0 -0.00000000000E+00 -0.00000000000E+00 -0.10000000000E+04  0.10000000000E+04  0.00000000000E+00 0.  1.
    9000005    2    1    2  501    0  0.45513784360E+01  0.65481341624E+01 -0.89757291611E+03  0.11019861069E+04  0.63927509493E+03 0.  0.
         13    1    3    3    0    0 -0.16807953395E+03  0.95399084739E+02 -0.88671051868E+03  0.90752810372E+03  0.00000000000E+00 0.  1.
          3    1    3    3  501    0  0.17263091239E+03 -0.88850950577E+02 -0.10862397433E+02  0.19445800320E+03  0.00000000000E+00 0.  1.
         21    1    1    2  502  501 -0.45513784360E+01 -0.65481341624E+01  0.71884305015E+02  0.72325281985E+02  0.00000000000E+00 0. -1.
<mgrwt>
<rscale>  1 0.63932483E+03</rscale>
<asrwt>0</asrwt>
<pdfrwt beam="1">  1        1 0.63386093E+00 0.63932483E+03</pdfrwt>
<pdfrwt beam="2">0</pdfrwt>
<totfact> 0.92619984E-02</totfact>
</mgrwt>
</event>
<event>
 6    1  0.2234319E-003  0.6487734E+03  0.7818608E-02  0.9809083E-01
          1   -1    0    0  502    0  0.00000000000E+00  0.00000000000E+00  0.10524499782E+03  0.10524499782E+03  0.00000000000E+00 0.  1.
         13   -1    0    0    0    0 -0.00000000000E+00 -0.00000000000E+00 -0.10000000000E+04  0.10000000000E+04  0.00000000000E+00 0.  1.
    9000005    2    1    2  501    0 -0.16806640228E-02 -0.50481361876E-03 -0.89477321291E+03  0.11052267027E+04  0.64877342878E+03 0.  0.
         13    1    3    3    0    0  0.81781743334E+02  0.27182411730E+03 -0.17992188640E+03  0.33607810029E+03  0.00000000000E+00 0.  1.
          1    1    3    3  501    0 -0.81783423998E+02 -0.27182462211E+03 -0.71485132651E+03  0.76914860245E+03  0.00000000000E+00 0.  1.
         21    1    1    2  502  501  0.16806640228E-02  0.50481361875E-03  0.18210726326E-01  0.18295081899E-01  0.00000000000E+00 0. -1.
<mgrwt>
<rscale>  1 0.64877343E+03</rscale>
<asrwt>0</asrwt>
<pdfrwt beam="1">  1        1 0.38270989E+00 0.64877343E+03</pdfrwt>
<pdfrwt beam="2">0</pdfrwt>
<totfact> 0.15967403E+00</totfact>
</mgrwt>
</event>
<event>
 6    1  0.2234319E-003  0.6457660E+03  0.7818608E-02  0.9814756E-01
          1   -1    0    0  502    0  0.00000000000E+00  0.00000000000E+00  0.10439795818E+03  0.10439795818E+03  0.00000000000E+00 0.  1.
         13   -1    0    0    0    0 -0.00000000000E+00 -0.00000000000E+00 -0.10000000000E+04  0.10000000000E+04  0.00000000000E+00 0.  1.
    9000005    2    1    2  501    0 -0.92315516453E-01  0.19871315954E+00 -0.89564856710E+03  0.11041739634E+04  0.64576600840E+03 0.  0.
         13    1    3    3    0    0 -0.25949642443E+03  0.13094018181E+03 -0.68865069009E+03  0.74747809230E+03  0.00000000000E+00 0.  1.
          3    1    3    3  501    0  0.25940410892E+03 -0.13074146865E+03 -0.20699787702E+03  0.35669587107E+03  0.00000000000E+00 0.  1.
         21    1    1    2  502  501  0.92315516453E-01 -0.19871315954E+00  0.46525284779E-01  0.22399481350E+00  0.00000000000E+00 0. -1.
<mgrwt>
<rscale>  1 0.64576605E+03</rscale>
<asrwt>0</asrwt>
<pdfrwt beam="1">  1        1 0.37962974E+00 0.64576605E+03</pdfrwt>
<pdfrwt beam="2">0</pdfrwt>
<totfact> 0.16484385E+00</totfact>
</mgrwt>
</event>
<event>
 6    1  0.2234319E-003  0.6479237E+03  0.7818608E-02  0.9810683E-01
          1   -1    0    0  502    0  0.00000000000E+00  0.00000000000E+00  0.11244591175E+03  0.11244591175E+03  0.00000000000E+00 0.  1.
         13   -1    0    0    0    0 -0.00000000000E+00 -0.00000000000E+00 -0.10000000000E+04  0.10000000000E+04  0.00000000000E+00 0.  1.
    9000005    2    1    2  501    0 -0.68159638370E+00 -0.40014043342E+00 -0.89502568103E+03  0.11049326312E+04  0.64792324012E+03 0.  0.
         13    1    3    3    0    0 -0.28080575305E+02  0.31398502017E+03 -0.32116584856E+03  0.45002512583E+03  0.00000000000E+00 0.  1.
          1    1    3    3  501    0  0.27398978921E+02 -0.31438516060E+03 -0.57385983247E+03  0.65490750536E+03  0.00000000000E+00 0.  1.
         21    1    1    2  502  501  0.68159638370E+00  0.40014043342E+00  0.74715927805E+01  0.75132805534E+01  0.00000000000E+00 0.  1.
<mgrwt>
<rscale>  1 0.64792372E+03</rscale>
<asrwt>0</asrwt>
<pdfrwt beam="1">  1        1 0.40889509E+00 0.64792372E+03</pdfrwt>
<pdfrwt beam="2">0</pdfrwt>
<totfact> 0.12213597E+00</totfact>
</mgrwt>
</event>
<event>
 6    1  0.2234319E-003  0.6511727E+03  0.7818608E-02  0.9804581E-01
          1   -1    0    0  502    0  0.00000000000E+00  0.00000000000E+00  0.12378682713E+03  0.12378682713E+03  0.00000000000E+00 0.  1.
         13   -1    0    0    0    0 -0.00000000000E+00 -0.00000000000E+00 -0.10000000000E+04  0.10000000000E+04  0.00000000000E+00 0.  1.
    9000005    2    1    2  501    0  0.36993503264E+00 -0.10614780411E-01 -0.89399140518E+03  0.11060047432E+04  0.65117257505E+03 0.  0.
         13    1    3    3    0    0 -0.13064867650E+02 -0.27919351528E+03 -0.16336648003E+03  0.32374112581E+03  0.00000000000E+00 0.  1.
          1    1    3    3  501    0  0.13434802682E+02  0.27918290050E+03 -0.73062492515E+03  0.78226361740E+03  0.00000000000E+00 0.  1.
         21    1    1    2  502  501 -0.36993503264E+00  0.10614780411E-01  0.17778232309E+02  0.17782083923E+02  0.00000000000E+00 0. -1.
<mgrwt>
<rscale>  1 0.65117268E+03</rscale>
<asrwt>0</asrwt>
<pdfrwt beam="1">  1        1 0.45013487E+00 0.65117268E+03</pdfrwt>
<pdfrwt beam="2">0</pdfrwt>
<totfact> 0.79314869E-01</totfact>
</mgrwt>
</event>
<event>
 6    1  0.2234319E-003  0.6515705E+03  0.7818608E-02  0.9803837E-01
          1   -1    0    0  502    0  0.00000000000E+00  0.00000000000E+00  0.10662537850E+03  0.10662537850E+03  0.00000000000E+00 0.  1.
         13   -1    0    0    0    0 -0.00000000000E+00 -0.00000000000E+00 -0.10000000000E+04  0.10000000000E+04  0.00000000000E+00 0.  1.
    9000005    2    1    2  501    0  0.35738907002E-01 -0.29690987689E-01 -0.89386275974E+03  0.11061350340E+04  0.65157047046E+03 0.  0.
         13    1    3    3    0    0  0.18656541642E+03 -0.25667668318E+03 -0.32151100276E+03  0.45172878941E+03  0.00000000000E+00 0.  1.
          1    1    3    3  501    0 -0.18652967751E+03  0.25664699219E+03 -0.57235175698E+03  0.65440624455E+03  0.00000000000E+00 0.  1.
         21    1    1    2  502  501 -0.35738907002E-01  0.29690987689E-01  0.48813823948E+00  0.49034453710E+00  0.00000000000E+00 0.  1.
<mgrwt>
<rscale>  1 0.65157047E+03</rscale>
<asrwt>0</asrwt>
<pdfrwt beam="1">  1        1 0.38772947E+00 0.65157047E+03</pdfrwt>
<pdfrwt beam="2">0</pdfrwt>
<totfact> 0.15163688E+00</totfact>
</mgrwt>
</event>
<event>
 6    1  0.2234319E-003  0.6429430E+03  0.7818608E-02  0.9820112E-01
          1   -1    0    0  502    0  0.00000000000E+00  0.00000000000E+00  0.10481076421E+03  0.10481076421E+03  0.00000000000E+00 0.  1.
         13   -1    0    0    0    0 -0.00000000000E+00 -0.00000000000E+00 -0.10000000000E+04  0.10000000000E+04  0.00000000000E+00 0.  1.
    9000005    2    1    2  501    0 -0.51573988713E+00 -0.52657457265E+00 -0.89655323609E+03  0.11032603561E+04  0.64294258297E+03 0.  0.
         13    1    3    3    0    0 -0.19103610433E+03 -0.14465479856E+03 -0.80229569178E+02  0.25269861035E+03  0.00000000000E+00 0.  1.
          3    1    3    3  501    0  0.19052036444E+03  0.14412822399E+03 -0.81632366691E+03  0.85056174577E+03  0.00000000000E+00 0.  1.
         21    1    1    2  502  501  0.51573988713E+00  0.52657457265E+00  0.13640003014E+01  0.15504080863E+01  0.00000000000E+00 0.  1.
<mgrwt>
<rscale>  1 0.64294301E+03</rscale>
<asrwt>0</asrwt>
<pdfrwt beam="1">  1        1 0.38113086E+00 0.64294301E+03</pdfrwt>
<pdfrwt beam="2">0</pdfrwt>
<totfact> 0.16243325E+00</totfact>
</mgrwt>
</event>
<event>
 6    1  0.2234319E-003  0.6294316E+03  0.7818608E-02  0.9846159E-01
          1   -1    0    0  502    0  0.00000000000E+00  0.00000000000E+00  0.10137504579E+03  0.10137504579E+03  0.00000000000E+00 0.  1.
         13   -1    0    0    0    0 -0.00000000000E+00 -0.00000000000E+00 -0.10000000000E+04  0.10000000000E+04  0.00000000000E+00 0.  1.
    9000005    2    1    2  501    0  0.17074134754E+01 -0.50693948888E+00 -0.90057411634E+03  0.10987346895E+04  0.62942911166E+03 0.  0.
         13    1    3    3    0    0  0.27088858828E+03  0.15334671063E+03 -0.36329069488E+03  0.47840983467E+03  0.00000000000E+00 0.  1.
          1    1    3    3  501    0 -0.26918117481E+03 -0.15385365012E+03 -0.53728342146E+03  0.62032485482E+03  0.00000000000E+00 0.  1.
         21    1    1    2  502  501 -0.17074134754E+01  0.50693948888E+00  0.19491621322E+01  0.26403563091E+01  0.00000000000E+00 0.  1.
<mgrwt>
<rscale>  1 0.62943163E+03</rscale>
<asrwt>0</asrwt>
<pdfrwt beam="1">  1        1 0.36863731E+00 0.62943163E+03</pdfrwt>
<pdfrwt beam="2">0</pdfrwt>
<totfact> 0.18481521E+00</totfact>
</mgrwt>
</event>
<event>
 6    1  0.2234319E-003  0.6578617E+03  0.7818608E-02  0.9792138E-01
          1   -1    0    0  502    0  0.00000000000E+00  0.00000000000E+00  0.10855800760E+03  0.10855800760E+03  0.00000000000E+00 0.  1.
         13   -1    0    0    0    0 -0.00000000000E+00 -0.00000000000E+00 -0.10000000000E+04  0.10000000000E+04  0.00000000000E+00 0.  1.
    9000005    2    1    2  501    0  0.24950930001E-01 -0.16707944848E-01 -0.89180379237E+03  0.11081949636E+04  0.65786174265E+03 0.  0.
         13    1    3    3    0    0 -0.23890757170E+03 -0.20175121924E+03 -0.61779027256E+03  0.69241981712E+03  0.00000000000E+00 0.  1.
          1    1    3    3  501    0  0.23893252263E+03  0.20173451129E+03 -0.27401351981E+03  0.41577514651E+03  0.00000000000E+00 0.  1.
         21    1    1    2  502  501 -0.24950930001E-01  0.16707944848E-01  0.36179996422E+00  0.36304396213E+00  0.00000000000E+00 0. -1.
<mgrwt>
<rscale>  1 0.65786174E+03</rscale>
<asrwt>0</asrwt>
<pdfrwt beam="1">  1        1 0.39475722E+00 0.65786174E+03</pdfrwt>
<pdfrwt beam="2">0</pdfrwt>
<totfact> 0.14096479E+00</totfact>
</mgrwt>
</event>
<event>
 6    1  0.2234319E-003  0.6661252E+03  0.7818608E-02  0.9776983E-01
          1   -1    0    0  502    0  0.00000000000E+00  0.00000000000E+00  0.11093548280E+03  0.11093548280E+03  0.00000000000E+00 0.  1.
         13   -1    0    0    0    0 -0.00000000000E+00 -0.00000000000E+00 -0.10000000000E+04  0.10000000000E+04  0.00000000000E+00 0.  1.
    9000005    2    1    2  501    0  0.96447177399E-02  0.82673669609E-02 -0.88903429649E+03  0.11109027008E+04  0.66612523604E+03 0.  0.
         13    1    3    3    0    0 -0.17910104798E+03 -0.47513340855E+02  0.17035428662E+02  0.18607769553E+03  0.00000000000E+00 0.  1.
          1    1    3    3  501    0  0.17911069269E+03  0.47521608222E+02 -0.90606972515E+03  0.92482500524E+03  0.00000000000E+00 0.  1.
         21    1    1    2  502  501 -0.96447177399E-02 -0.82673669609E-02 -0.30220713973E-01  0.32782029983E-01  0.00000000000E+00 0.  1.
<mgrwt>
<rscale>  1 0.66612524E+03</rscale>
<asrwt>0</asrwt>
<pdfrwt beam="1">  1        1 0.40340261E+00 0.66612524E+03</pdfrwt>
<pdfrwt beam="2">0</pdfrwt>
<totfact> 0.12879742E+00</totfact>
</mgrwt>
</event>
<event>
 6    1  0.2234319E-003  0.6511400E+03  0.7818608E-02  0.9804642E-01
          3   -1    0    0  502    0  0.00000000000E+00  0.00000000000E+00  0.10672647084E+03  0.10672647084E+03  0.00000000000E+00 0.  1.
         13   -1    0    0    0    0 -0.00000000000E+00 -0.00000000000E+00 -0.10000000000E+04  0.10000000000E+04  0.00000000000E+00 0.  1.
    9000005    2    1    2  501    0  0.12599293674E+01 -0.77423608285E+00 -0.89305936736E+03  0.11052322390E+04  0.65113829685E+03 0.  0.
         13    1    3    3    0    0  0.25752206103E+03  0.14781533566E+03 -0.67493657482E+03  0.73736447256E+03  0.00000000000E+00 0.  1.
          1    1    3    3  501    0 -0.25626213166E+03 -0.14858957174E+03 -0.21812279255E+03  0.36786776644E+03  0.00000000000E+00 0.  1.
         21    1    1    2  502  501 -0.12599293674E+01  0.77423608285E+00 -0.21416179446E+00  0.14942318418E+01  0.00000000000E+00 0.  1.
<mgrwt>
<rscale>  1 0.65113998E+03</rscale>
<asrwt>0</asrwt>
<pdfrwt beam="1">  1        3 0.38809708E+00 0.65113998E+03</pdfrwt>
<pdfrwt beam="2">0</pdfrwt>
<totfact> 0.68397481E-02</totfact>
</mgrwt>
</event>
<event>
 6    1  0.2234319E-003  0.6331439E+03  0.7818608E-02  0.9838933E-01
          1   -1    0    0  502    0  0.00000000000E+00  0.00000000000E+00  0.10022650508E+03  0.10022650508E+03  0.00000000000E+00 0.  1.
         13   -1    0    0    0    0 -0.00000000000E+00 -0.00000000000E+00 -0.10000000000E+04  0.10000000000E+04  0.00000000000E+00 0.  1.
    9000005    2    1    2  501    0  0.17868942929E-02  0.16216435671E-01 -0.89977287049E+03  0.11002101785E+04  0.63314391589E+03 0.  0.
         13    1    3    3    0    0 -0.24868721485E+03  0.46009281125E+02 -0.11901307241E+03  0.27951081586E+03  0.00000000000E+00 0.  1.
          3    1    3    3  501    0  0.24868900175E+03 -0.45993064690E+02 -0.78075979809E+03  0.82069936268E+03  0.00000000000E+00 0.  1.
         21    1    1    2  502  501 -0.17868942929E-02 -0.16216435671E-01 -0.62442864760E-03  0.16326533258E-01  0.00000000000E+00 0.  1.
<mgrwt>
<rscale>  1 0.63314392E+03</rscale>
<asrwt>0</asrwt>
<pdfrwt beam="1">  1        1 0.36446079E+00 0.63314392E+03</pdfrwt>
<pdfrwt beam="2">0</pdfrwt>
<totfact> 0.19264428E+00</totfact>
</mgrwt>
</event>
<event>
 6    1  0.2234319E-003  0.6480158E+03  0.7818608E-02  0.9810510E-01
          1   -1    0    0  502    0  0.00000000000E+00  0.00000000000E+00  0.10500211001E+03  0.10500211001E+03  0.00000000000E+00 0.  1.
         13   -1    0    0    0    0 -0.00000000000E+00 -0.00000000000E+00 -0.10000000000E+04  0.10000000000E+04  0.00000000000E+00 0.  1.
    9000005    2    1    2  501    0  0.11787771495E-01 -0.40082230841E-03 -0.89501703305E+03  0.11049796251E+04  0.64801580412E+03 0.  0.
         13    1    3    3    0    0 -0.10709379311E+03 -0.93769580365E+02 -0.94382013584E+03  0.95449372105E+03  0.00000000000E+00 0.  1.
          1    1    3    3  501    0  0.10710558089E+03  0.93769179542E+02  0.48803102781E+02  0.15048590409E+03  0.00000000000E+00 0.  1.
         21    1    1    2  502  501 -0.11787771495E-01  0.40082230841E-03  0.19143063445E-01  0.22484863651E-01  0.00000000000E+00 0.  1.
<mgrwt>
<rscale>  1 0.64801580E+03</rscale>
<asrwt>0</asrwt>
<pdfrwt beam="1">  1        1 0.38182666E+00 0.64801580E+03</pdfrwt>
<pdfrwt beam="2">0</pdfrwt>
<totfact> 0.16113737E+00</totfact>
</mgrwt>
</event>
<event>
 6    1  0.2234319E-003  0.6432573E+03  0.7818608E-02  0.9819514E-01
          1   -1    0    0  502    0  0.00000000000E+00  0.00000000000E+00  0.10432685871E+03  0.10432685871E+03  0.00000000000E+00 0.  1.
         13   -1    0    0    0    0 -0.00000000000E+00 -0.00000000000E+00 -0.10000000000E+04  0.10000000000E+04  0.00000000000E+00 0.  1.
    9000005    2    1    2  501    0  0.81312012583E+00 -0.71936284357E+00 -0.89617057499E+03  0.11031326696E+04  0.64325640976E+03 0.  0.
         13    1    3    3    0    0  0.20145776471E+02 -0.31854026739E+03 -0.37552883146E+03  0.49284445570E+03  0.00000000000E+00 0.  1.
          3    1    3    3  501    0 -0.19332656345E+02  0.31782090454E+03 -0.52064174353E+03  0.61028821394E+03  0.00000000000E+00 0.  1.
         21    1    1    2  502  501 -0.81312012583E+00  0.71936284357E+00  0.49743369926E+00  0.11941890658E+01  0.00000000000E+00 0. -1.
<mgrwt>
<rscale>  1 0.64325733E+03</rscale>
<asrwt>0</asrwt>
<pdfrwt beam="1">  1        1 0.37937120E+00 0.64325733E+03</pdfrwt>
<pdfrwt beam="2">0</pdfrwt>
<totfact> 0.16535362E+00</totfact>
</mgrwt>
</event>
<event>
 6    1  0.2234319E-003  0.6494707E+03  0.7818608E-02  0.9807773E-01
          1   -1    0    0  502    0  0.00000000000E+00  0.00000000000E+00  0.11095644848E+03  0.11095644848E+03  0.00000000000E+00 0.  1.
         13   -1    0    0    0    0 -0.00000000000E+00 -0.00000000000E+00 -0.10000000000E+04  0.10000000000E+04  0.00000000000E+00 0.  1.
    9000005    2    1    2  501    0  0.31297742688E+01  0.22113683571E+01 -0.89379977037E+03  0.11048484820E+04  0.64945935437E+03 0.  0.
         13    1    3    3    0    0 -0.15757919359E+03 -0.17118717708E+03 -0.62979675628E+02  0.24104499869E+03  0.00000000000E+00 0.  1.
          3    1    3    3  501    0  0.16070896786E+03  0.17339854544E+03 -0.83082009475E+03  0.86380348329E+03  0.00000000000E+00 0.  1.
         21    1    1    2  502  501 -0.31297742688E+01 -0.22113683571E+01  0.47562188481E+01  0.61079664960E+01  0.00000000000E+00 0.  1.
<mgrwt>
<rscale>  1 0.64947066E+03</rscale>
<asrwt>0</asrwt>
<pdfrwt beam="1">  1        1 0.40347885E+00 0.64947066E+03</pdfrwt>
<pdfrwt beam="2">0</pdfrwt>
<totfact> 0.12910349E+00</totfact>
</mgrwt>
</event>
<event>
 6    1  0.2234319E-003  0.6483346E+03  0.7818608E-02  0.9809909E-01
          1   -1    0    0  502    0  0.00000000000E+00  0.00000000000E+00  0.10508617247E+03  0.10508617247E+03  0.00000000000E+00 0.  1.
         13   -1    0    0    0    0 -0.00000000000E+00 -0.00000000000E+00 -0.10000000000E+04  0.10000000000E+04  0.00000000000E+00 0.  1.
    9000005    2    1    2  501    0  0.22824679968E-03  0.17836230441E-04 -0.89491556785E+03  0.11050844172E+04  0.64833455518E+03 0.  0.
         13    1    3    3    0    0 -0.22356337791E+03 -0.67605845838E+02 -0.83062180307E+03  0.86283469684E+03  0.00000000000E+00 0.  1.
          1    1    3    3  501    0  0.22356360616E+03  0.67605863674E+02 -0.64293764786E+02  0.24224972031E+03  0.00000000000E+00 0.  1.
         21    1    1    2  502  501 -0.22824679969E-03 -0.17836230442E-04  0.17403252128E-02  0.17553195090E-02  0.00000000000E+00 0.  1.
<mgrwt>
<rscale>  1 0.64833456E+03</rscale>
<asrwt>0</asrwt>
<pdfrwt beam="1">  1        1 0.38213234E+00 0.64833456E+03</pdfrwt>
<pdfrwt beam="2">0</pdfrwt>
<totfact> 0.16062781E+00</totfact>
</mgrwt>
</event>
<event>
 6    1  0.2234319E-003  0.6644259E+03  0.7818608E-02  0.9780080E-01
          1   -1    0    0  502    0  0.00000000000E+00  0.00000000000E+00  0.11086717531E+03  0.11086717531E+03  0.00000000000E+00 0.  1.
         13   -1    0    0    0    0 -0.00000000000E+00 -0.00000000000E+00 -0.10000000000E+04  0.10000000000E+04  0.00000000000E+00 0.  1.
    9000005    2    1    2  501    0 -0.62114799737E-01 -0.16872330200E-01 -0.88963225172E+03  0.11103636177E+04  0.66442592969E+03 0.  0.
         13    1    3    3    0    0 -0.14850243400E+03  0.22630718023E+03 -0.12292562959E+03  0.29728542369E+03  0.00000000000E+00 0.  1.
          1    1    3    3  501    0  0.14844031920E+03 -0.22632405256E+03 -0.76670662213E+03  0.81307819400E+03  0.00000000000E+00 0.  1.
         21    1    1    2  502  501  0.62114799737E-01  0.16872330200E-01  0.49942702434E+00  0.50355761985E+00  0.00000000000E+00 0.  1.
<mgrwt>
<rscale>  1 0.66442593E+03</rscale>
<asrwt>0</asrwt>
<pdfrwt beam="1">  1        1 0.40315421E+00 0.66442593E+03</pdfrwt>
<pdfrwt beam="2">0</pdfrwt>
<totfact> 0.12916814E+00</totfact>
</mgrwt>
</event>
<event>
 6    1  0.2234319E-003  0.6490611E+03  0.7818608E-02  0.9808543E-01
          1   -1    0    0  502    0  0.00000000000E+00  0.00000000000E+00  0.10573500883E+03  0.10573500883E+03  0.00000000000E+00 0.  1.
         13   -1    0    0    0    0 -0.00000000000E+00 -0.00000000000E+00 -0.10000000000E+04  0.10000000000E+04  0.00000000000E+00 0.  1.
    9000005    2    1    2  501    0 -0.66425588951E+00  0.79480934089E+00 -0.89377869079E+03  0.11045906986E+04  0.64906023638E+03 0.  0.
         13    1    3    3    0    0  0.15885686023E+03  0.26657127546E+02 -0.92591566440E+03  0.93982228217E+03  0.00000000000E+00 0.  1.
          1    1    3    3  501    0 -0.15952111612E+03 -0.25862318205E+02  0.32136973613E+02  0.16476841646E+03  0.00000000000E+00 0.  1.
         21    1    1    2  502  501  0.66425588951E+00 -0.79480934089E+00 -0.48630037784E+00  0.11443101995E+01  0.00000000000E+00 0. -1.
<mgrwt>
<rscale>  1 0.64906106E+03</rscale>
<asrwt>0</asrwt>
<pdfrwt beam="1">  1        1 0.38449175E+00 0.64906106E+03</pdfrwt>
<pdfrwt beam="2">0</pdfrwt>
<totfact> 0.15679613E+00</totfact>
</mgrwt>
</event>
<event>
 6    1  0.2234319E-003  0.6590342E+03  0.7818608E-02  0.9789973E-01
          1   -1    0    0  502    0  0.00000000000E+00  0.00000000000E+00  0.10858154678E+03  0.10858154678E+03  0.00000000000E+00 0.  1.
         13   -1    0    0    0    0 -0.00000000000E+00 -0.00000000000E+00 -0.10000000000E+04  0.10000000000E+04  0.00000000000E+00 0.  1.
    9000005    2    1    2  501    0 -0.21584362912E-04 -0.31470018740E-04 -0.89141844030E+03  0.11085815065E+04  0.65903423344E+03 0.  0.
         13    1    3    3    0    0  0.17027261001E+03  0.70015045632E+02  0.13997839984E+02  0.18463696233E+03  0.00000000000E+00 0.  1.
          3    1    3    3  501    0 -0.17027263160E+03 -0.70015077102E+02 -0.90541628028E+03  0.92394454416E+03  0.00000000000E+00 0.  1.
         21    1    1    2  502  501  0.21584362929E-04  0.31470018737E-04 -0.12919103184E-04  0.40288336146E-04  0.00000000000E+00 0.  1.
<mgrwt>
<rscale>  1 0.65903423E+03</rscale>
<asrwt>0</asrwt>
<pdfrwt beam="1">  1        1 0.39484282E+00 0.65903423E+03</pdfrwt>
<pdfrwt beam="2">0</pdfrwt>
<totfact> 0.14081055E+00</totfact>
</mgrwt>
</event>
<event>
 6    1  0.2234319E-003  0.6572049E+03  0.7818608E-02  0.9793353E-01
          1   -1    0    0  502    0  0.00000000000E+00  0.00000000000E+00  0.10814217428E+03  0.10814217428E+03  0.00000000000E+00 0.  1.
         13   -1    0    0    0    0 -0.00000000000E+00 -0.00000000000E+00 -0.10000000000E+04  0.10000000000E+04  0.00000000000E+00 0.  1.
    9000005    2    1    2  501    0  0.13335570290E-01  0.52217313500E-02 -0.89202007882E+03  0.11079792904E+04  0.65720490461E+03 0.  0.
         13    1    3    3    0    0  0.26522766948E+03 -0.61858442743E+02 -0.13601981411E+03  0.30442334574E+03  0.00000000000E+00 0.  1.
          3    1    3    3  501    0 -0.26521433391E+03  0.61863664474E+02 -0.75600026471E+03  0.80355594462E+03  0.00000000000E+00 0.  1.
         21    1    1    2  502  501 -0.13335570290E-01 -0.52217313500E-02  0.16225309356E+00  0.16288391659E+00  0.00000000000E+00 0. -1.
<mgrwt>
<rscale>  1 0.65720490E+03</rscale>
<asrwt>0</asrwt>
<pdfrwt beam="1">  1        1 0.39324510E+00 0.65720490E+03</pdfrwt>
<pdfrwt beam="2">0</pdfrwt>
<totfact> 0.14318056E+00</totfact>
</mgrwt>
</event>
<event>
 6    1  0.2234319E-003  0.6536452E+03  0.7818608E-02  0.9799963E-01
          1   -1    0    0  502    0  0.00000000000E+00  0.00000000000E+00  0.10681306290E+03  0.10681306290E+03  0.00000000000E+00 0.  1.
         13   -1    0    0    0    0 -0.00000000000E+00 -0.00000000000E+00 -0.10000000000E+04  0.10000000000E+04  0.00000000000E+00 0.  1.
    9000005    2    1    2  501    0  0.33764483618E-05 -0.50327016083E-05 -0.89318699550E+03  0.11068130042E+04  0.65364517692E+03 0.  0.
         13    1    3    3    0    0  0.24859784169E+02  0.32362327149E+03 -0.51135996179E+03  0.60567238771E+03  0.00000000000E+00 0.  1.
          3    1    3    3  501    0 -0.24859780793E+02 -0.32362327652E+03 -0.38182703371E+03  0.50114061648E+03  0.00000000000E+00 0.  1.
         21    1    1    2  502  501 -0.33764483637E-05  0.50327015628E-05  0.58401392372E-04  0.58714999102E-04  0.00000000000E+00 0. -1.
<mgrwt>
<rscale>  1 0.65364518E+03</rscale>
<asrwt>0</asrwt>
<pdfrwt beam="1">  1        1 0.38841196E+00 0.65364518E+03</pdfrwt>
<pdfrwt beam="2">0</pdfrwt>
<totfact> 0.15052699E+00</totfact>
</mgrwt>
</event>
<event>
 6    1  0.2234319E-003  0.6451087E+03  0.7818608E-02  0.9816001E-01
          1   -1    0    0  502    0  0.00000000000E+00  0.00000000000E+00  0.10467442326E+03  0.10467442326E+03  0.00000000000E+00 0.  1.
         13   -1    0    0    0    0 -0.00000000000E+00 -0.00000000000E+00 -0.10000000000E+04  0.10000000000E+04  0.00000000000E+00 0.  1.
    9000005    2    1    2  501    0 -0.43317952846E+00  0.83160178877E+00 -0.89555055600E+03  0.11037101506E+04  0.64510806774E+03 0.  0.
         13    1    3    3    0    0 -0.29575990675E+03 -0.87457791119E+02 -0.28582344404E+03  0.42049712107E+03  0.00000000000E+00 0.  1.
          3    1    3    3  501    0  0.29532672722E+03  0.88289392908E+02 -0.60972711196E+03  0.68321302956E+03  0.00000000000E+00 0.  1.
         21    1    1    2  502  501  0.43317952846E+00 -0.83160178877E+00  0.22497926009E+00  0.96427263076E+00  0.00000000000E+00 0.  1.
<mgrwt>
<rscale>  1 0.64510875E+03</rscale>
<asrwt>0</asrwt>
<pdfrwt beam="1">  1        1 0.38063507E+00 0.64510875E+03</pdfrwt>
<pdfrwt beam="2">0</pdfrwt>
<totfact> 0.16318845E+00</totfact>
</mgrwt>
</event>
<event>
 6    1  0.2234319E-003  0.6487706E+03  0.7818608E-02  0.9809089E-01
          1   -1    0    0  502    0  0.00000000000E+00  0.00000000000E+00  0.10522625890E+03  0.10522625890E+03  0.00000000000E+00 0.  1.
         13   -1    0    0    0    0 -0.00000000000E+00 -0.00000000000E+00 -0.10000000000E+04  0.10000000000E+04  0.00000000000E+00 0.  1.
    9000005    2    1    2  501    0 -0.10234932958E-03  0.23908261682E-04 -0.89477417325E+03  0.11052258142E+04  0.64877059054E+03 0.  0.
         13    1    3    3    0    0 -0.19971795593E+03  0.17696560797E+03 -0.76161032594E+03  0.80700333141E+03  0.00000000000E+00 0.  1.
          1    1    3    3  501    0  0.19971785358E+03 -0.17696558407E+03 -0.13316384731E+03  0.29822248274E+03  0.00000000000E+00 0.  1.
         21    1    1    2  502  501  0.10234932956E-03 -0.23908261680E-04  0.43215129789E-03  0.44474906914E-03  0.00000000000E+00 0. -1.
<mgrwt>
<rscale>  1 0.64877059E+03</rscale>
<asrwt>0</asrwt>
<pdfrwt beam="1">  1        1 0.38264175E+00 0.64877059E+03</pdfrwt>
<pdfrwt beam="2">0</pdfrwt>
<totfact> 0.15978484E+00</totfact>
</mgrwt>
</event>
<event>
 6    1  0.2234319E-003  0.6495549E+03  0.7818608E-02  0.9807615E-01
          1   -1    0    0  502    0  0.00000000000E+00  0.00000000000E+00  0.10571333001E+03  0.10571333001E+03  0.00000000000E+00 0.  1.
         13   -1    0    0    0    0 -0.00000000000E+00 -0.00000000000E+00 -0.10000000000E+04  0.10000000000E+04  0.00000000000E+00 0.  1.
    9000005    2    1    2  501    0 -0.27700520163E-02  0.23422107160E-02 -0.89451959385E+03  0.11054803779E+04  0.64955489541E+03 0.  0.
         13    1    3    3    0    0 -0.24976191987E+02  0.33631557615E+01 -0.99833375318E+03  0.99865179302E+03  0.00000000000E+00 0.  1.
          3    1    3    3  501    0  0.24973421935E+02 -0.33608135508E+01  0.10381415933E+03  0.10682858488E+03  0.00000000000E+00 0.  1.
         21    1    1    2  502  501  0.27700520163E-02 -0.23422107160E-02  0.23292385338E+00  0.23295209940E+00  0.00000000000E+00 0. -1.
<mgrwt>
<rscale>  1 0.64955490E+03</rscale>
<asrwt>0</asrwt>
<pdfrwt beam="1">  1        1 0.38441292E+00 0.64955490E+03</pdfrwt>
<pdfrwt beam="2">0</pdfrwt>
<totfact> 0.15690772E+00</totfact>
</mgrwt>
</event>
<event>
 6    1  0.2234319E-003  0.6545241E+03  0.7818608E-02  0.9798327E-01
          1   -1    0    0  502    0  0.00000000000E+00  0.00000000000E+00  0.10710084341E+03  0.10710084341E+03  0.00000000000E+00 0.  1.
         13   -1    0    0    0    0 -0.00000000000E+00 -0.00000000000E+00 -0.10000000000E+04  0.10000000000E+04  0.00000000000E+00 0.  1.
    9000005    2    1    2  501    0 -0.23235059840E-03 -0.69323547244E-04 -0.89289949133E+03  0.11071004301E+04  0.65452414827E+03 0.  0.
         13    1    3    3    0    0  0.10727752598E+03 -0.25500957818E+02 -0.96763215726E+03  0.97389463403E+03  0.00000000000E+00 0.  1.
          1    1    3    3  501    0 -0.10727775833E+03  0.25500888495E+02  0.74732665928E+02  0.13320579605E+03  0.00000000000E+00 0.  1.
         21    1    1    2  502  501  0.23235059839E-03  0.69323547244E-04  0.33474161963E-03  0.41333340863E-03  0.00000000000E+00 0. -1.
<mgrwt>
<rscale>  1 0.65452415E+03</rscale>
<asrwt>0</asrwt>
<pdfrwt beam="1">  1        1 0.38945843E+00 0.65452415E+03</pdfrwt>
<pdfrwt beam="2">0</pdfrwt>
<totfact> 0.14890366E+00</totfact>
</mgrwt>
</event>
<event>
 6    1  0.2234319E-003  0.6472045E+03  0.7818608E-02  0.9812039E-01
          1   -1    0    0  502    0  0.00000000000E+00  0.00000000000E+00  0.10472060216E+03  0.10472060216E+03  0.00000000000E+00 0.  1.
         13   -1    0    0    0    0 -0.00000000000E+00 -0.00000000000E+00 -0.10000000000E+04  0.10000000000E+04  0.00000000000E+00 0.  1.
    9000005    2    1    2  501    0 -0.55472014341E-03 -0.33104263341E-03 -0.89528152386E+03  0.11047183802E+04  0.64720452138E+03 0.  0.
         13    1    3    3    0    0 -0.22813647468E+03  0.10546828526E+02 -0.83897007866E+03  0.86949886691E+03  0.00000000000E+00 0.  1.
          1    1    3    3  501    0  0.22813591996E+03 -0.10547159568E+02 -0.56311445206E+02  0.23521951325E+03  0.00000000000E+00 0.  1.
         21    1    1    2  502  501  0.55472014341E-03  0.33104263341E-03  0.21260198043E-02  0.22219954705E-02  0.00000000000E+00 0. -1.
<mgrwt>
<rscale>  1 0.64720452E+03</rscale>
<asrwt>0</asrwt>
<pdfrwt beam="1">  1        1 0.38080299E+00 0.64720452E+03</pdfrwt>
<pdfrwt beam="2">0</pdfrwt>
<totfact> 0.16284735E+00</totfact>
</mgrwt>
</event>
<event>
 6    1  0.2234319E-003  0.6227331E+03  0.7818608E-02  0.9859333E-01
          1   -1    0    0  502    0  0.00000000000E+00  0.00000000000E+00  0.96960099404E+02  0.96960099404E+02  0.00000000000E+00 0.  1.
         13   -1    0    0    0    0 -0.00000000000E+00 -0.00000000000E+00 -0.10000000000E+04  0.10000000000E+04  0.00000000000E+00 0.  1.
    9000005    2    1    2  501    0  0.18960803146E-01 -0.54300182148E-03 -0.90304112721E+03  0.10969410912E+04  0.62273307266E+03 0.  0.
         13    1    3    3    0    0  0.11902596885E+03 -0.93208608894E+02  0.27964480476E+02  0.15374341677E+03  0.00000000000E+00 0.  1.
          1    1    3    3  501    0 -0.11900700805E+03  0.93208065892E+02 -0.93100560769E+03  0.94319767443E+03  0.00000000000E+00 0.  1.
         21    1    1    2  502  501 -0.18960803146E-01  0.54300182149E-03  0.12266167526E-02  0.19008195484E-01  0.00000000000E+00 0. -1.
<mgrwt>
<rscale>  1 0.62273307E+03</rscale>
<asrwt>0</asrwt>
<pdfrwt beam="1">  1        1 0.35258292E+00 0.62273307E+03</pdfrwt>
<pdfrwt beam="2">0</pdfrwt>
<totfact> 0.21751548E+00</totfact>
</mgrwt>
</event>
<event>
 6    1  0.2234319E-003  0.6556709E+03  0.7818608E-02  0.9796196E-01
          1   -1    0    0  502    0  0.00000000000E+00  0.00000000000E+00  0.10747952298E+03  0.10747952298E+03  0.00000000000E+00 0.  1.
         13   -1    0    0    0    0 -0.00000000000E+00 -0.00000000000E+00 -0.10000000000E+04  0.10000000000E+04  0.00000000000E+00 0.  1.
    9000005    2    1    2  501    0  0.42843295714E-02 -0.85113208254E-02 -0.89249869937E+03  0.11074557519E+04  0.65567088845E+03 0.  0.
         13    1    3    3    0    0  0.18207435480E+03  0.65519422215E+02 -0.89323187525E+03  0.91395133805E+03  0.00000000000E+00 0.  1.
          1    1    3    3  501    0 -0.18207007047E+03 -0.65527933536E+02  0.73317587580E+00  0.19350441386E+03  0.00000000000E+00 0.  1.
         21    1    1    2  502  501 -0.42843295715E-02  0.85113208254E-02 -0.21777646665E-01  0.23771073942E-01  0.00000000000E+00 0.  1.
<mgrwt>
<rscale>  1 0.65567089E+03</rscale>
<asrwt>0</asrwt>
<pdfrwt beam="1">  1        1 0.39083545E+00 0.65567089E+03</pdfrwt>
<pdfrwt beam="2">0</pdfrwt>
<totfact> 0.14679313E+00</totfact>
</mgrwt>
</event>
<event>
 6    1  0.2234319E-003  0.6688824E+03  0.7818608E-02  0.9771979E-01
          1   -1    0    0  502    0  0.00000000000E+00  0.00000000000E+00  0.11560316123E+03  0.11560316123E+03  0.00000000000E+00 0.  1.
         13   -1    0    0    0    0 -0.00000000000E+00 -0.00000000000E+00 -0.10000000000E+04  0.10000000000E+04  0.00000000000E+00 0.  1.
    9000005    2    1    2  501    0 -0.38098932582E+00 -0.39185173166E-01 -0.88813821012E+03  0.11118422374E+04  0.66888230202E+03 0.  0.
         13    1    3    3    0    0 -0.33318898727E+03  0.30091944812E+02 -0.45678185735E+03  0.56618909525E+03  0.00000000000E+00 0.  1.
          3    1    3    3  501    0  0.33280799794E+03 -0.30131129985E+02 -0.43135635277E+03  0.54565314217E+03  0.00000000000E+00 0.  1.
         21    1    1    2  502  501  0.38098932582E+00  0.39185173166E-01  0.37413713445E+01  0.37609238069E+01  0.00000000000E+00 0. -1.
<mgrwt>
<rscale>  1 0.66888241E+03</rscale>
<asrwt>0</asrwt>
<pdfrwt beam="1">  1        1 0.42037602E+00 0.66888241E+03</pdfrwt>
<pdfrwt beam="2">0</pdfrwt>
<totfact> 0.10800858E+00</totfact>
</mgrwt>
</event>
<event>
 6    1  0.2234319E-003  0.6592739E+03  0.7818608E-02  0.9789531E-01
          1   -1    0    0  502    0  0.00000000000E+00  0.00000000000E+00  0.11017406167E+03  0.11017406167E+03  0.00000000000E+00 0.  1.
         13   -1    0    0    0    0 -0.00000000000E+00 -0.00000000000E+00 -0.10000000000E+04  0.10000000000E+04  0.00000000000E+00 0.  1.
    9000005    2    1    2  501    0 -0.86698115740E-01  0.14124184449E+00 -0.89133446302E+03  0.11086564607E+04  0.65927383956E+03 0.  0.
         13    1    3    3    0    0  0.17999005441E+03  0.18794841033E+03 -0.78598831577E+03  0.82794846287E+03  0.00000000000E+00 0.  1.
          1    1    3    3  501    0 -0.18007675253E+03 -0.18780716848E+03 -0.10534614725E+03  0.28070799788E+03  0.00000000000E+00 0.  1.
         21    1    1    2  502  501  0.86698115740E-01 -0.14124184449E+00  0.15085246909E+01  0.15176009242E+01  0.00000000000E+00 0. -1.
<mgrwt>
<rscale>  1 0.65927386E+03</rscale>
<asrwt>0</asrwt>
<pdfrwt beam="1">  1        1 0.40063380E+00 0.65927386E+03</pdfrwt>
<pdfrwt beam="2">0</pdfrwt>
<totfact> 0.13268649E+00</totfact>
</mgrwt>
</event>
<event>
 6    1  0.2234319E-003  0.6518335E+03  0.7818608E-02  0.9803345E-01
          1   -1    0    0  502    0  0.00000000000E+00  0.00000000000E+00  0.10622173445E+03  0.10622173445E+03  0.00000000000E+00 0.  1.
         13   -1    0    0    0    0 -0.00000000000E+00 -0.00000000000E+00 -0.10000000000E+04  0.10000000000E+04  0.00000000000E+00 0.  1.
    9000005    2    1    2  501    0  0.60055617155E-05 -0.33670747257E-06 -0.89377827735E+03  0.11062217212E+04  0.65183348134E+03 0.  0.
         13    1    3    3    0    0 -0.10313375609E+03  0.65192373634E+02  0.66001039628E+02  0.13871825567E+03  0.00000000000E+00 0.  1.
          3    1    3    3  501    0  0.10313376209E+03 -0.65192373971E+02 -0.95977931698E+03  0.96750346553E+03  0.00000000000E+00 0.  1.
         21    1    1    2  502  501 -0.60055617105E-05  0.33670747160E-06  0.11801685892E-04  0.13246128992E-04  0.00000000000E+00 0.  1.
<mgrwt>
<rscale>  1 0.65183348E+03</rscale>
<asrwt>0</asrwt>
<pdfrwt beam="1">  1        1 0.38626167E+00 0.65183348E+03</pdfrwt>
<pdfrwt beam="2">0</pdfrwt>
<totfact> 0.15391562E+00</totfact>
</mgrwt>
</event>
<event>
 6    1  0.2234319E-003  0.5649126E+03  0.7818608E-02  0.9981000E-01
          3   -1    0    0  502    0  0.00000000000E+00  0.00000000000E+00  0.83638625905E+02  0.83638625905E+02  0.00000000000E+00 0.  1.
         13   -1    0    0    0    0 -0.00000000000E+00 -0.00000000000E+00 -0.10000000000E+04  0.10000000000E+04  0.00000000000E+00 0.  1.
    9000005    2    1    2  501    0 -0.32082772206E+00 -0.30360347669E+00 -0.92020478937E+03  0.10797699121E+04  0.56491239462E+03 0.  0.
         13    1    3    3    0    0 -0.92366660036E+02  0.21983398703E+03 -0.74915146221E+03  0.78618477158E+03  0.00000000000E+00 0.  1.
          3    1    3    3  501    0  0.92045832314E+02 -0.22013759051E+03 -0.17105332716E+03  0.29358514052E+03  0.00000000000E+00 0.  1.
         21    1    1    2  502  501  0.32082772206E+00  0.30360347669E+00  0.38434152747E+01  0.38687138007E+01  0.00000000000E+00 0.  1.
<mgrwt>
<rscale>  1 0.56491257E+03</rscale>
<asrwt>0</asrwt>
<pdfrwt beam="1">  1        3 0.30414110E+00 0.56491257E+03</pdfrwt>
<pdfrwt beam="2">0</pdfrwt>
<totfact> 0.19430910E-01</totfact>
</mgrwt>
</event>
<event>
 6    1  0.2234319E-003  0.6455048E+03  0.7818608E-02  0.9815251E-01
          3   -1    0    0  502    0  0.00000000000E+00  0.00000000000E+00  0.10416917285E+03  0.10416917285E+03  0.00000000000E+00 0.  1.
         13   -1    0    0    0    0 -0.00000000000E+00 -0.00000000000E+00 -0.10000000000E+04  0.10000000000E+04  0.00000000000E+00 0.  1.
    9000005    2    1    2  501    0 -0.50813764688E-04  0.37456720321E-04 -0.89583085908E+03  0.11041691021E+04  0.64550482413E+03 0.  0.
         13    1    3    3    0    0  0.80623724413E+02 -0.12465954517E+03  0.42296843331E+02  0.15436712764E+03  0.00000000000E+00 0.  1.
          3    1    3    3  501    0 -0.80623775227E+02  0.12465958263E+03 -0.93812770241E+03  0.94980197447E+03  0.00000000000E+00 0.  1.
         21    1    1    2  502  501  0.50813764693E-04 -0.37456720322E-04  0.31925634777E-04  0.70741011694E-04  0.00000000000E+00 0. -1.
<mgrwt>
<rscale>  1 0.64550482E+03</rscale>
<asrwt>0</asrwt>
<pdfrwt beam="1">  1        3 0.37879779E+00 0.64550482E+03</pdfrwt>
<pdfrwt beam="2">0</pdfrwt>
<totfact> 0.76648100E-02</totfact>
</mgrwt>
</event>
<event>
 6    1  0.2234319E-003  0.6412971E+03  0.7818608E-02  0.9823248E-01
          1   -1    0    0  502    0  0.00000000000E+00  0.00000000000E+00  0.10315151994E+03  0.10315151994E+03  0.00000000000E+00 0.  1.
         13   -1    0    0    0    0 -0.00000000000E+00 -0.00000000000E+00 -0.10000000000E+04  0.10000000000E+04  0.00000000000E+00 0.  1.
    9000005    2    1    2  501    0  0.93265300949E-02 -0.29516570239E-01 -0.89718371389E+03  0.11028148600E+04  0.64129712143E+03 0.  0.
         13    1    3    3    0    0  0.21122980097E+03  0.23088106082E+03 -0.56879250588E+03  0.64919104107E+03  0.00000000000E+00 0.  1.
          1    1    3    3  501    0 -0.21122047444E+03 -0.23091057739E+03 -0.32839120801E+03  0.45362381890E+03  0.00000000000E+00 0.  1.
         21    1    1    2  502  501 -0.93265300949E-02  0.29516570239E-01  0.33523383193E+00  0.33665996815E+00  0.00000000000E+00 0.  1.
<mgrwt>
<rscale>  1 0.64129712E+03</rscale>
<asrwt>0</asrwt>
<pdfrwt beam="1">  1        1 0.37509723E+00 0.64129712E+03</pdfrwt>
<pdfrwt beam="2">0</pdfrwt>
<totfact> 0.17274350E+00</totfact>
</mgrwt>
</event>
<event>
 6    1  0.2234319E-003  0.6250315E+03  0.7818608E-02  0.9854793E-01
          1   -1    0    0  502    0  0.00000000000E+00  0.00000000000E+00  0.98129924860E+02  0.98129924860E+02  0.00000000000E+00 0.  1.
         13   -1    0    0    0    0 -0.00000000000E+00 -0.00000000000E+00 -0.10000000000E+04  0.10000000000E+04  0.00000000000E+00 0.  1.
    9000005    2    1    2  501    0  0.10646838133E-01  0.19070541488E-01 -0.90233362689E+03  0.10976658588E+04  0.62503148959E+03 0.  0.
         13    1    3    3    0    0 -0.17571436487E+03 -0.15792982735E+03 -0.91916085268E+02  0.25350726838E+03  0.00000000000E+00 0.  1.
          3    1    3    3  501    0  0.17572501171E+03  0.15794889789E+03 -0.81041754162E+03  0.84415859047E+03  0.00000000000E+00 0.  1.
         21    1    1    2  502  501 -0.10646838133E-01 -0.19070541488E-01  0.46355175158E+00  0.46406601590E+00  0.00000000000E+00 0. -1.
<mgrwt>
<rscale>  1 0.62503149E+03</rscale>
<asrwt>0</asrwt>
<pdfrwt beam="1">  1        1 0.35683684E+00 0.62503149E+03</pdfrwt>
<pdfrwt beam="2">0</pdfrwt>
<totfact> 0.20832623E+00</totfact>
</mgrwt>
</event>
<event>
 6    1  0.2234319E-003  0.6536720E+03  0.7818608E-02  0.9799913E-01
          1   -1    0    0  502    0  0.00000000000E+00  0.00000000000E+00  0.10682454556E+03  0.10682454556E+03  0.00000000000E+00 0.  1.
         13   -1    0    0    0    0 -0.00000000000E+00 -0.00000000000E+00 -0.10000000000E+04  0.10000000000E+04  0.00000000000E+00 0.  1.
    9000005    2    1    2  501    0  0.48115460034E-02  0.39943356893E-03 -0.89317564997E+03  0.11068197135E+04  0.65367204046E+03 0.  0.
         13    1    3    3    0    0  0.24389451258E+03  0.87059649069E+02 -0.10896494318E+03  0.28095778082E+03  0.00000000000E+00 0.  1.
          1    1    3    3  501    0 -0.24388970103E+03 -0.87059249636E+02 -0.78421070678E+03  0.82586193268E+03  0.00000000000E+00 0.  1.
         21    1    1    2  502  501 -0.48115460034E-02 -0.39943356893E-03  0.19552192667E-03  0.48320545261E-02  0.00000000000E+00 0.  1.
<mgrwt>
<rscale>  1 0.65367204E+03</rscale>
<asrwt>0</asrwt>
<pdfrwt beam="1">  1        1 0.38845371E+00 0.65367204E+03</pdfrwt>
<pdfrwt beam="2">0</pdfrwt>
<totfact> 0.15046213E+00</totfact>
</mgrwt>
</event>
<event>
 6    1  0.2234319E-003  0.6345650E+03  0.7818608E-02  0.9836181E-01
          1   -1    0    0  502    0  0.00000000000E+00  0.00000000000E+00  0.10069550024E+03  0.10069550024E+03  0.00000000000E+00 0.  1.
         13   -1    0    0    0    0 -0.00000000000E+00 -0.00000000000E+00 -0.10000000000E+04  0.10000000000E+04  0.00000000000E+00 0.  1.
    9000005    2    1    2  501    0 -0.30892468206E-02  0.16310202357E-02 -0.89933167966E+03  0.11006680968E+04  0.63456503935E+03 0.  0.
         13    1    3    3    0    0  0.20031336514E+03 -0.17976019770E+03 -0.15824259387E+03  0.31221769880E+03  0.00000000000E+00 0.  1.
          3    1    3    3  501    0 -0.20031645439E+03  0.17976182872E+03 -0.74108908580E+03  0.78845039796E+03  0.00000000000E+00 0.  1.
         21    1    1    2  502  501  0.30892468206E-02 -0.16310202357E-02  0.27179897577E-01  0.27403476152E-01  0.00000000000E+00 0. -1.
<mgrwt>
<rscale>  1 0.63456504E+03</rscale>
<asrwt>0</asrwt>
<pdfrwt beam="1">  1        1 0.36616623E+00 0.63456504E+03</pdfrwt>
<pdfrwt beam="2">0</pdfrwt>
<totfact> 0.18930816E+00</totfact>
</mgrwt>
</event>
<event>
 6    1  0.2234319E-003  0.6186654E+03  0.7818608E-02  0.9867420E-01
          1   -1    0    0  502    0  0.00000000000E+00  0.00000000000E+00  0.10599549001E+03  0.10599549001E+03  0.00000000000E+00 0.  1.
         13   -1    0    0    0    0 -0.00000000000E+00 -0.00000000000E+00 -0.10000000000E+04  0.10000000000E+04  0.00000000000E+00 0.  1.
    9000005    2    1    2  501    0  0.44665818464E+00  0.20972863033E+00 -0.90430680523E+03  0.10956813843E+04  0.61866521998E+03 0.  0.
         13    1    3    3    0    0 -0.12451254759E+03  0.27800748687E+03 -0.54749602392E+03  0.62653286703E+03  0.00000000000E+00 0.  1.
          1    1    3    3  501    0  0.12495920577E+03 -0.27779775824E+03 -0.35681078131E+03  0.46914851726E+03  0.00000000000E+00 0.  1.
         21    1    1    2  502  501 -0.44665818464E+00 -0.20972863033E+00  0.10302295234E+02  0.10314105716E+02  0.00000000000E+00 0. -1.
<mgrwt>
<rscale>  1 0.61866542E+03</rscale>
<asrwt>0</asrwt>
<pdfrwt beam="1">  1        1 0.38543896E+00 0.61866542E+03</pdfrwt>
<pdfrwt beam="2">0</pdfrwt>
<totfact> 0.15618591E+00</totfact>
</mgrwt>
</event>
<event>
 6    1  0.2234319E-003  0.6550242E+03  0.7818608E-02  0.9797397E-01
          1   -1    0    0  502    0  0.00000000000E+00  0.00000000000E+00  0.10731024872E+03  0.10731024872E+03  0.00000000000E+00 0.  1.
         13   -1    0    0    0    0 -0.00000000000E+00 -0.00000000000E+00 -0.10000000000E+04  0.10000000000E+04  0.00000000000E+00 0.  1.
    9000005    2    1    2  501    0 -0.24695808321E-04 -0.12505212558E-02 -0.89273582196E+03  0.11072641611E+04  0.65502417862E+03 0.  0.
         13    1    3    3    0    0  0.11517024538E+03  0.20325424119E+03 -0.83438143300E+03  0.86646918452E+03  0.00000000000E+00 0.  1.
          3    1    3    3  501    0 -0.11517027008E+03 -0.20325549171E+03 -0.58354388952E+02  0.24079497655E+03  0.00000000000E+00 0.  1.
         21    1    1    2  502  501  0.24695808320E-04  0.12505212558E-02  0.46070673546E-01  0.46087648825E-01  0.00000000000E+00 0. -1.
<mgrwt>
<rscale>  1 0.65502418E+03</rscale>
<asrwt>0</asrwt>
<pdfrwt beam="1">  1        1 0.39021991E+00 0.65502418E+03</pdfrwt>
<pdfrwt beam="2">0</pdfrwt>
<totfact> 0.14773671E+00</totfact>
</mgrwt>
</event>
<event>
 6    1  0.2234319E-003  0.6460335E+03  0.7818608E-02  0.9814251E-01
          1   -1    0    0  502    0  0.00000000000E+00  0.00000000000E+00  0.10434001371E+03  0.10434001371E+03  0.00000000000E+00 0.  1.
         13   -1    0    0    0    0 -0.00000000000E+00 -0.00000000000E+00 -0.10000000000E+04  0.10000000000E+04  0.00000000000E+00 0.  1.
    9000005    2    1    2  501    0  0.49425156305E-05 -0.10209014476E-04 -0.89566019147E+03  0.11043398082E+04  0.64603346153E+03 0.  0.
         13    1    3    3    0    0 -0.51551178131E+02 -0.14662699940E+03  0.36217808928E+02  0.15958925592E+03  0.00000000000E+00 0.  1.
          3    1    3    3  501    0  0.51551183074E+02  0.14662698919E+03 -0.93187800040E+03  0.94475055230E+03  0.00000000000E+00 0.  1.
         21    1    1    2  502  501 -0.49425156256E-05  0.10209014484E-04  0.20518384368E-03  0.20549710982E-03  0.00000000000E+00 0.  1.
<mgrwt>
<rscale>  1 0.64603346E+03</rscale>
<asrwt>0</asrwt>
<pdfrwt beam="1">  1        1 0.37941903E+00 0.64603346E+03</pdfrwt>
<pdfrwt beam="2">0</pdfrwt>
<totfact> 0.16518891E+00</totfact>
</mgrwt>
</event>
<event>
 6    1  0.2234319E-003  0.5492178E+03  0.7818608E-02  0.1001675E+00
          1   -1    0    0  502    0  0.00000000000E+00  0.00000000000E+00  0.75829292362E+02  0.75829292362E+02  0.00000000000E+00 0.  1.
         13   -1    0    0    0    0 -0.00000000000E+00 -0.00000000000E+00 -0.10000000000E+04  0.10000000000E+04  0.00000000000E+00 0.  1.
    9000005    2    1    2  501    0  0.14932748911E+01 -0.13856680843E+00 -0.92214814417E+03  0.10733113897E+04  0.54921570486E+03 0.  0.
         13    1    3    3    0    0 -0.23176087071E+02  0.97756418604E+02  0.38339194288E+02  0.10753298196E+03  0.00000000000E+00 0.  1.
          3    1    3    3  501    0  0.24669361962E+02 -0.97894985412E+02 -0.96048733846E+03  0.96577840778E+03  0.00000000000E+00 0.  1.
         21    1    1    2  502  501 -0.14932748911E+01  0.13856680843E+00 -0.20225634629E+01  0.25179026236E+01  0.00000000000E+00 0.  1.
<mgrwt>
<rscale>  1 0.54921775E+03</rscale>
<asrwt>0</asrwt>
<pdfrwt beam="1">  1        1 0.27574346E+00 0.54921775E+03</pdfrwt>
<pdfrwt beam="2">0</pdfrwt>
<totfact> 0.47374270E+00</totfact>
</mgrwt>
</event>
<event>
 6    1  0.2234319E-003  0.6620894E+03  0.7818608E-02  0.9784355E-01
          1   -1    0    0  502    0  0.00000000000E+00  0.00000000000E+00  0.10974823632E+03  0.10974823632E+03  0.00000000000E+00 0.  1.
         13   -1    0    0    0    0 -0.00000000000E+00 -0.00000000000E+00 -0.10000000000E+04  0.10000000000E+04  0.00000000000E+00 0.  1.
    9000005    2    1    2  501    0  0.11429223113E-01 -0.61465165244E-01 -0.89040248338E+03  0.11095850646E+04  0.66208944199E+03 0.  0.
         13    1    3    3    0    0 -0.22270580183E+03 -0.10348735952E+03 -0.81726622066E+03  0.85336485936E+03  0.00000000000E+00 0.  1.
          3    1    3    3  501    0  0.22271723106E+03  0.10342589436E+03 -0.73136262715E+02  0.25622020521E+03  0.00000000000E+00 0.  1.
         21    1    1    2  502  501 -0.11429223113E-01  0.61465165244E-01  0.15071969807E+00  0.16317175327E+00  0.00000000000E+00 0. -1.
<mgrwt>
<rscale>  1 0.66208944E+03</rscale>
<asrwt>0</asrwt>
<pdfrwt beam="1">  1        1 0.39908534E+00 0.66208944E+03</pdfrwt>
<pdfrwt beam="2">0</pdfrwt>
<totfact> 0.13474149E+00</totfact>
</mgrwt>
</event>
<event>
 6    1  0.2234319E-003  0.6469200E+03  0.7818608E-02  0.9812576E-01
          1   -1    0    0  502    0  0.00000000000E+00  0.00000000000E+00  0.10462912244E+03  0.10462912244E+03  0.00000000000E+00 0.  1.
         13   -1    0    0    0    0 -0.00000000000E+00 -0.00000000000E+00 -0.10000000000E+04  0.10000000000E+04  0.00000000000E+00 0.  1.
    9000005    2    1    2  501    0 -0.15178024879E-02  0.63130822154E-02 -0.89536853909E+03  0.11046222212E+04  0.64691995698E+03 0.  0.
         13    1    3    3    0    0 -0.11263879149E+03 -0.27695944868E+03 -0.23695212898E+03  0.38149750325E+03  0.00000000000E+00 0.  1.
          1    1    3    3  501    0  0.11263727369E+03  0.27696576176E+03 -0.65841641011E+03  0.72312471795E+03  0.00000000000E+00 0.  1.
         21    1    1    2  502  501  0.15178024879E-02 -0.63130822154E-02 -0.23384707370E-02  0.69012445862E-02  0.00000000000E+00 0.  1.
<mgrwt>
<rscale>  1 0.64691996E+03</rscale>
<asrwt>0</asrwt>
<pdfrwt beam="1">  1        1 0.38047034E+00 0.64691996E+03</pdfrwt>
<pdfrwt beam="2">0</pdfrwt>
<totfact> 0.16340737E+00</totfact>
</mgrwt>
</event>
<event>
 6    1  0.2234319E-003  0.6506008E+03  0.7818608E-02  0.9805652E-01
          1   -1    0    0  502    0  0.00000000000E+00  0.00000000000E+00  0.10582072796E+03  0.10582072796E+03  0.00000000000E+00 0.  1.
         13   -1    0    0    0    0 -0.00000000000E+00 -0.00000000000E+00 -0.10000000000E+04  0.10000000000E+04  0.00000000000E+00 0.  1.
    9000005    2    1    2  501    0  0.57441342078E-03 -0.94102636120E-03 -0.89417827306E+03  0.11058192402E+04  0.65060080538E+03 0.  0.
         13    1    3    3    0    0  0.65478698294E+02  0.23030737260E+03 -0.82137264638E+03  0.85555944856E+03  0.00000000000E+00 0.  1.
          3    1    3    3  501    0 -0.65478123880E+02 -0.23030831362E+03 -0.72805626683E+02  0.25025979163E+03  0.00000000000E+00 0.  1.
         21    1    1    2  502  501 -0.57441342077E-03  0.94102636120E-03 -0.99897638347E-03  0.14877618106E-02  0.00000000000E+00 0.  1.
<mgrwt>
<rscale>  1 0.65060081E+03</rscale>
<asrwt>0</asrwt>
<pdfrwt beam="1">  1        1 0.38480346E+00 0.65060081E+03</pdfrwt>
<pdfrwt beam="2">0</pdfrwt>
<totfact> 0.15625480E+00</totfact>
</mgrwt>
</event>
<event>
 6    1  0.2234319E-003  0.6974049E+03  0.7818608E-02  0.9721680E-01
          1   -1    0    0  502    0  0.00000000000E+00  0.00000000000E+00  0.12159683241E+03  0.12159683241E+03  0.00000000000E+00 0.  1.
         13   -1    0    0    0    0 -0.00000000000E+00 -0.00000000000E+00 -0.10000000000E+04  0.10000000000E+04  0.00000000000E+00 0.  1.
    9000005    2    1    2  501    0  0.21429428594E-03  0.21142246570E-03 -0.87840659107E+03  0.11215933957E+04  0.69740490827E+03 0.  0.
         13    1    3    3    0    0 -0.12176391102E+03  0.59876037809E+02  0.77393859618E+02  0.15620947295E+03  0.00000000000E+00 0.  1.
          3    1    3    3  501    0  0.12176412532E+03 -0.59875826387E+02 -0.95580045069E+03  0.96538392277E+03  0.00000000000E+00 0.  1.
         21    1    1    2  502  501 -0.21429428594E-03 -0.21142246571E-03  0.34234840872E-02  0.34366938757E-02  0.00000000000E+00 0. -1.
<mgrwt>
<rscale>  1 0.69740491E+03</rscale>
<asrwt>0</asrwt>
<pdfrwt beam="1">  1        1 0.44217123E+00 0.69740491E+03</pdfrwt>
<pdfrwt beam="2">0</pdfrwt>
<totfact> 0.85490598E-01</totfact>
</mgrwt>
</event>
<event>
 6    1  0.2234319E-003  0.6592113E+03  0.7818608E-02  0.9789647E-01
          1   -1    0    0  502    0  0.00000000000E+00  0.00000000000E+00  0.10863990993E+03  0.10863990993E+03  0.00000000000E+00 0.  1.
         13   -1    0    0    0    0 -0.00000000000E+00 -0.00000000000E+00 -0.10000000000E+04  0.10000000000E+04  0.00000000000E+00 0.  1.
    9000005    2    1    2  501    0 -0.89549137243E-05 -0.12139718564E-05 -0.89136011038E+03  0.11086398877E+04  0.65921131228E+03 0.  0.
         13    1    3    3    0    0 -0.97753625512E+02 -0.62337866217E+02  0.73215567437E+02  0.13712147965E+03  0.00000000000E+00 0.  1.
          1    1    3    3  501    0  0.97753616557E+02  0.62337865003E+02 -0.96457567781E+03  0.97151840806E+03  0.00000000000E+00 0.  1.
         21    1    1    2  502  501  0.89549137341E-05  0.12139718581E-05  0.20303563642E-04  0.22223836397E-04  0.00000000000E+00 0.  1.
<mgrwt>
<rscale>  1 0.65921131E+03</rscale>
<asrwt>0</asrwt>
<pdfrwt beam="1">  1        1 0.39505505E+00 0.65921131E+03</pdfrwt>
<pdfrwt beam="2">0</pdfrwt>
<totfact> 0.14050027E+00</totfact>
</mgrwt>
</event>
<event>
 6    1  0.2234319E-003  0.6528035E+03  0.7818608E-02  0.9801533E-01
          1   -1    0    0  502    0  0.00000000000E+00  0.00000000000E+00  0.10653987176E+03  0.10653987176E+03  0.00000000000E+00 0.  1.
         13   -1    0    0    0    0 -0.00000000000E+00 -0.00000000000E+00 -0.10000000000E+04  0.10000000000E+04  0.00000000000E+00 0.  1.
    9000005    2    1    2  501    0  0.47714457253E-04  0.56770595421E-04 -0.89346189365E+03  0.11065381048E+04  0.65280350946E+03 0.  0.
         13    1    3    3    0    0 -0.26090757399E+03 -0.10830101698E+03 -0.72389301303E+03  0.77706046532E+03  0.00000000000E+00 0.  1.
          1    1    3    3  501    0  0.26090762171E+03  0.10830107375E+03 -0.16956888062E+03  0.32947763947E+03  0.00000000000E+00 0.  1.
         21    1    1    2  502  501 -0.47714457254E-04 -0.56770595421E-04  0.17654098487E-02  0.17669667523E-02  0.00000000000E+00 0.  1.
<mgrwt>
<rscale>  1 0.65280351E+03</rscale>
<asrwt>0</asrwt>
<pdfrwt beam="1">  1        1 0.38741853E+00 0.65280351E+03</pdfrwt>
<pdfrwt beam="2">0</pdfrwt>
<totfact> 0.15208376E+00</totfact>
</mgrwt>
</event>
<event>
 6    1  0.2234319E-003  0.6755078E+03  0.7818608E-02  0.9760059E-01
          1   -1    0    0  502    0  0.00000000000E+00  0.00000000000E+00  0.11407783969E+03  0.11407783969E+03  0.00000000000E+00 0.  1.
         13   -1    0    0    0    0 -0.00000000000E+00 -0.00000000000E+00 -0.10000000000E+04  0.10000000000E+04  0.00000000000E+00 0.  1.
    9000005    2    1    2  501    0  0.67069277634E-05  0.11144455129E-04 -0.88592231206E+03  0.11140776874E+04  0.67550777237E+03 0.  0.
         13    1    3    3    0    0 -0.29479431551E+03 -0.16401117084E+03 -0.41564479431E+03  0.53531667978E+03  0.00000000000E+00 0.  1.
          3    1    3    3  501    0  0.29479432222E+03  0.16401118198E+03 -0.47027751775E+03  0.57876100761E+03  0.00000000000E+00 0.  1.
         21    1    1    2  502  501 -0.67069277770E-05 -0.11144455112E-04  0.15174808446E-03  0.15230450714E-03  0.00000000000E+00 0.  1.
<mgrwt>
<rscale>  1 0.67550777E+03</rscale>
<asrwt>0</asrwt>
<pdfrwt beam="1">  1        1 0.41482938E+00 0.67550777E+03</pdfrwt>
<pdfrwt beam="2">0</pdfrwt>
<totfact> 0.11426303E+00</totfact>
</mgrwt>
</event>
<event>
 6    1  0.2234319E-003  0.5301232E+03  0.7818608E-02  0.1006202E+00
          1   -1    0    0  502    0  0.00000000000E+00  0.00000000000E+00  0.70268723158E+02  0.70268723158E+02  0.00000000000E+00 0.  1.
         13   -1    0    0    0    0 -0.00000000000E+00 -0.00000000000E+00 -0.10000000000E+04  0.10000000000E+04  0.00000000000E+00 0.  1.
    9000005    2    1    2  501    0 -0.24411031404E-03 -0.17060102178E-03 -0.92974235015E+03  0.10702576458E+04  0.53012318456E+03 0.  0.
         13    1    3    3    0    0  0.25255526896E+02  0.14818711096E+03 -0.90561889444E+03  0.91801026327E+03  0.00000000000E+00 0.  1.
          3    1    3    3  501    0 -0.25255771007E+02 -0.14818728156E+03 -0.24123455710E+02  0.15224738257E+03  0.00000000000E+00 0.  1.
         21    1    1    2  502  501  0.24411031404E-03  0.17060102176E-03  0.11073312225E-01  0.11077316380E-01  0.00000000000E+00 0. -1.
<mgrwt>
<rscale>  1 0.53012318E+03</rscale>
<asrwt>0</asrwt>
<pdfrwt beam="1">  1        1 0.25552317E+00 0.53012318E+03</pdfrwt>
<pdfrwt beam="2">0</pdfrwt>
<totfact> 0.58142562E+00</totfact>
</mgrwt>
</event>
<event>
 6    1  0.2234319E-003  0.6568534E+03  0.7818608E-02  0.9794004E-01
          1   -1    0    0  502    0  0.00000000000E+00  0.00000000000E+00  0.10786416091E+03  0.10786416091E+03  0.00000000000E+00 0.  1.
         13   -1    0    0    0    0 -0.00000000000E+00 -0.00000000000E+00 -0.10000000000E+04  0.10000000000E+04  0.00000000000E+00 0.  1.
    9000005    2    1    2  501    0  0.99835395901E-04  0.20613861491E-03 -0.89213564319E+03  0.11078638595E+04  0.65685335151E+03 0.  0.
         13    1    3    3    0    0  0.23630181294E+03 -0.21819447494E+03 -0.33397796246E+03  0.46366869110E+03  0.00000000000E+00 0.  1.
          3    1    3    3  501    0 -0.23630171311E+03  0.21819468108E+03 -0.55815768073E+03  0.64419516843E+03  0.00000000000E+00 0.  1.
         21    1    1    2  502  501 -0.99835395881E-04 -0.20613861491E-03 -0.19589939823E-03  0.30139145485E-03  0.00000000000E+00 0.  1.
<mgrwt>
<rscale>  1 0.65685335E+03</rscale>
<asrwt>0</asrwt>
<pdfrwt beam="1">  1        1 0.39223414E+00 0.65685335E+03</pdfrwt>
<pdfrwt beam="2">0</pdfrwt>
<totfact> 0.14467797E+00</totfact>
</mgrwt>
</event>
<event>
 6    1  0.2234319E-003  0.6527727E+03  0.7818608E-02  0.9801590E-01
          3   -1    0    0  502    0  0.00000000000E+00  0.00000000000E+00  0.10941251781E+03  0.10941251781E+03  0.00000000000E+00 0.  1.
         13   -1    0    0    0    0 -0.00000000000E+00 -0.00000000000E+00 -0.10000000000E+04  0.10000000000E+04  0.00000000000E+00 0.  1.
    9000005    2    1    2  501    0 -0.62224645794E-01  0.24650087732E-02 -0.89347157591E+03  0.11065277519E+04  0.65277270531E+03 0.  0.
         13    1    3    3    0    0  0.86520221039E+02 -0.17225377271E+03 -0.89317165229E+03  0.91373558063E+03  0.00000000000E+00 0.  1.
          1    1    3    3  501    0 -0.86582445685E+02  0.17225623772E+03 -0.29992362640E+00  0.19279217123E+03  0.00000000000E+00 0.  1.
         21    1    1    2  502  501  0.62224645794E-01 -0.24650087732E-02  0.28840937268E+01  0.28847659538E+01  0.00000000000E+00 0. -1.
<mgrwt>
<rscale>  1 0.65277271E+03</rscale>
<asrwt>0</asrwt>
<pdfrwt beam="1">  1        3 0.39786454E+00 0.65277271E+03</pdfrwt>
<pdfrwt beam="2">0</pdfrwt>
<totfact> 0.60756590E-02</totfact>
</mgrwt>
</event>
<event>
 6    1  0.2234319E-003  0.6516297E+03  0.7818608E-02  0.9803726E-01
          1   -1    0    0  502    0  0.00000000000E+00  0.00000000000E+00  0.10620094210E+03  0.10620094210E+03  0.00000000000E+00 0.  1.
         13   -1    0    0    0    0 -0.00000000000E+00 -0.00000000000E+00 -0.10000000000E+04  0.10000000000E+04  0.00000000000E+00 0.  1.
    9000005    2    1    2  501    0  0.33259947947E-02 -0.20993995570E-03 -0.89384463231E+03  0.11061552460E+04  0.65162965060E+03 0.  0.
         13    1    3    3    0    0  0.28267426089E+03 -0.80879827363E+02 -0.20860555274E+03  0.36050320509E+03  0.00000000000E+00 0.  1.
          3    1    3    3  501    0 -0.28267093490E+03  0.80879617423E+02 -0.68523907957E+03  0.74565204091E+03  0.00000000000E+00 0.  1.
         21    1    1    2  502  501 -0.33259947947E-02  0.20993995570E-03  0.45574413528E-01  0.45696099227E-01  0.00000000000E+00 0.  1.
<mgrwt>
<rscale>  1 0.65162965E+03</rscale>
<asrwt>0</asrwt>
<pdfrwt beam="1">  1        1 0.38618606E+00 0.65162965E+03</pdfrwt>
<pdfrwt beam="2">0</pdfrwt>
<totfact> 0.15404007E+00</totfact>
</mgrwt>
</event>
<event>
 6    1  0.2234319E-003  0.6595789E+03  0.7818608E-02  0.9788969E-01
          1   -1    0    0  502    0  0.00000000000E+00  0.00000000000E+00  0.10876129500E+03  0.10876129500E+03  0.00000000000E+00 0.  1.
         13   -1    0    0    0    0 -0.00000000000E+00 -0.00000000000E+00 -0.10000000000E+04  0.10000000000E+04  0.00000000000E+00 0.  1.
    9000005    2    1    2  501    0  0.25744477004E-03 -0.10957700192E-03 -0.89123881057E+03  0.11087609960E+04  0.65957890254E+03 0.  0.
         13    1    3    3    0    0  0.53440090889E+01 -0.30385570264E+03 -0.66092225934E+03  0.72744421047E+03  0.00000000000E+00 0.  1.
          3    1    3    3  501    0 -0.53437516441E+01  0.30385559306E+03 -0.23031655124E+03  0.38131678548E+03  0.00000000000E+00 0.  1.
         21    1    1    2  502  501 -0.25744477004E-03  0.10957700190E-03  0.10557370566E-03  0.29904972211E-03  0.00000000000E+00 0. -1.
<mgrwt>
<rscale>  1 0.65957890E+03</rscale>
<asrwt>0</asrwt>
<pdfrwt beam="1">  1        1 0.39549645E+00 0.65957890E+03</pdfrwt>
<pdfrwt beam="2">0</pdfrwt>
<totfact> 0.13985703E+00</totfact>
</mgrwt>
</event>
<event>
 6    1  0.2234319E-003  0.5848953E+03  0.7818608E-02  0.9937249E-01
          1   -1    0    0  502    0  0.00000000000E+00  0.00000000000E+00  0.85537783389E+02  0.85537783389E+02  0.00000000000E+00 0.  1.
         13   -1    0    0    0    0 -0.00000000000E+00 -0.00000000000E+00 -0.10000000000E+04  0.10000000000E+04  0.00000000000E+00 0.  1.
    9000005    2    1    2  501    0 -0.34207381200E-01  0.23309393316E-01 -0.91440477767E+03  0.10854669829E+04  0.58489526575E+03 0.  0.
         13    1    3    3    0    0  0.21310994099E+03 -0.13660229768E+03 -0.18544170666E+03  0.31379079217E+03  0.00000000000E+00 0.  1.
          1    1    3    3  501    0 -0.21314414837E+03  0.13662560708E+03 -0.72896307101E+03  0.77167619076E+03  0.00000000000E+00 0.  1.
         21    1    1    2  502  501  0.34207381200E-01 -0.23309393316E-01 -0.57438944568E-01  0.70800459734E-01  0.00000000000E+00 0.  1.
<mgrwt>
<rscale>  1 0.58489527E+03</rscale>
<asrwt>0</asrwt>
<pdfrwt beam="1">  1        1 0.31104714E+00 0.58489527E+03</pdfrwt>
<pdfrwt beam="2">0</pdfrwt>
<totfact> 0.33151039E+00</totfact>
</mgrwt>
</event>
<event>
 6    1  0.2234319E-003  0.5613034E+03  0.7818608E-02  0.9989110E-01
          1   -1    0    0  502    0  0.00000000000E+00  0.00000000000E+00  0.78893471594E+02  0.78893471594E+02  0.00000000000E+00 0.  1.
         13   -1    0    0    0    0 -0.00000000000E+00 -0.00000000000E+00 -0.10000000000E+04  0.10000000000E+04  0.00000000000E+00 0.  1.
    9000005    2    1    2  501    0 -0.69349170578E-01  0.61324317541E-03 -0.92122445285E+03  0.10787566657E+04  0.56130334615E+03 0.  0.
         13    1    3    3    0    0 -0.12871356099E+03  0.22420296239E+02 -0.93804021291E+03  0.94709518609E+03  0.00000000000E+00 0.  1.
          3    1    3    3  501    0  0.12864421182E+03 -0.22419682996E+02  0.16815760060E+02  0.13166147959E+03  0.00000000000E+00 0.  1.
         21    1    1    2  502  501  0.69349170578E-01 -0.61324317541E-03  0.11792444824E+00  0.13680591734E+00  0.00000000000E+00 0. -1.
<mgrwt>
<rscale>  1 0.56130335E+03</rscale>
<asrwt>0</asrwt>
<pdfrwt beam="1">  1        1 0.28688596E+00 0.56130335E+03</pdfrwt>
<pdfrwt beam="2">0</pdfrwt>
<totfact> 0.42319374E+00</totfact>
</mgrwt>
</event>
<event>
 6    1  0.2234319E-003  0.6476698E+03  0.7818608E-02  0.9811162E-01
          1   -1    0    0  502    0  0.00000000000E+00  0.00000000000E+00  0.10486906129E+03  0.10486906129E+03  0.00000000000E+00 0.  1.
         13   -1    0    0    0    0 -0.00000000000E+00 -0.00000000000E+00 -0.10000000000E+04  0.10000000000E+04  0.00000000000E+00 0.  1.
    9000005    2    1    2  501    0  0.22042261492E-05 -0.24960112910E-05 -0.89513097168E+03  0.11048690282E+04  0.64766975606E+03 0.  0.
         13    1    3    3    0    0  0.77106351412E+02 -0.13901246640E+03  0.33729636380E+02  0.16250398030E+03  0.00000000000E+00 0.  1.
          1    1    3    3  501    0 -0.77106349208E+02  0.13901246391E+03 -0.92886060806E+03  0.94236504785E+03  0.00000000000E+00 0.  1.
         21    1    1    2  502  501 -0.22042261559E-05  0.24960112998E-05  0.32968475367E-04  0.33136219660E-04  0.00000000000E+00 0.  1.
<mgrwt>
<rscale>  1 0.64766976E+03</rscale>
<asrwt>0</asrwt>
<pdfrwt beam="1">  1        1 0.38134285E+00 0.64766976E+03</pdfrwt>
<pdfrwt beam="2">0</pdfrwt>
<totfact> 0.16194230E+00</totfact>
</mgrwt>
</event>
<event>
 6    1  0.2234319E-003  0.6442792E+03  0.7818608E-02  0.9817573E-01
          1   -1    0    0  502    0  0.00000000000E+00  0.00000000000E+00  0.10406268095E+03  0.10406268095E+03  0.00000000000E+00 0.  1.
         13   -1    0    0    0    0 -0.00000000000E+00 -0.00000000000E+00 -0.10000000000E+04  0.10000000000E+04  0.00000000000E+00 0.  1.
    9000005    2    1    2  501    0 -0.40448244802E-02  0.16069774593E-02 -0.89622606637E+03  0.11037739008E+04  0.64427918023E+03 0.  0.
         13    1    3    3    0    0  0.14453795521E+03  0.28293011900E+03 -0.53930080867E+03  0.62592813881E+03  0.00000000000E+00 0.  1.
          1    1    3    3  501    0 -0.14454200003E+03 -0.28292851202E+03 -0.35692525771E+03  0.47784576201E+03  0.00000000000E+00 0.  1.
         21    1    1    2  502  501  0.40448244802E-02 -0.16069774593E-02  0.28874731942E+00  0.28878011956E+00  0.00000000000E+00 0. -1.
<mgrwt>
<rscale>  1 0.64427918E+03</rscale>
<asrwt>0</asrwt>
<pdfrwt beam="1">  1        1 0.37841055E+00 0.64427918E+03</pdfrwt>
<pdfrwt beam="2">0</pdfrwt>
<totfact> 0.16694297E+00</totfact>
</mgrwt>
</event>
<event>
 6    1  0.2234319E-003  0.6526816E+03  0.7818608E-02  0.9801760E-01
          1   -1    0    0  502    0  0.00000000000E+00  0.00000000000E+00  0.10650173167E+03  0.10650173167E+03  0.00000000000E+00 0.  1.
         13   -1    0    0    0    0 -0.00000000000E+00 -0.00000000000E+00 -0.10000000000E+04  0.10000000000E+04  0.00000000000E+00 0.  1.
    9000005    2    1    2  501    0  0.59791693161E-04 -0.13952769599E-04 -0.89350167352E+03  0.11064983259E+04  0.65268162582E+03 0.  0.
         13    1    3    3    0    0 -0.71452267199E+02 -0.40305922514E+02 -0.98223387209E+03  0.98565377966E+03  0.00000000000E+00 0.  1.
          3    1    3    3  501    0  0.71452326990E+02  0.40305908561E+02  0.88732198573E+02  0.12084454626E+03  0.00000000000E+00 0.  1.
         21    1    1    2  502  501 -0.59791693167E-04  0.13952769597E-04  0.34051940284E-02  0.34057475093E-02  0.00000000000E+00 0.  1.
<mgrwt>
<rscale>  1 0.65268163E+03</rscale>
<asrwt>0</asrwt>
<pdfrwt beam="1">  1        1 0.38727984E+00 0.65268163E+03</pdfrwt>
<pdfrwt beam="2">0</pdfrwt>
<totfact> 0.15230243E+00</totfact>
</mgrwt>
</event>
<event>
 6    1  0.2234319E-003  0.6316123E+03  0.7818608E-02  0.9841908E-01
          1   -1    0    0  502    0  0.00000000000E+00  0.00000000000E+00  0.99794440176E+02  0.99794440176E+02  0.00000000000E+00 0.  1.
         13   -1    0    0    0    0 -0.00000000000E+00 -0.00000000000E+00 -0.10000000000E+04  0.10000000000E+04  0.00000000000E+00 0.  1.
    9000005    2    1    2  501    0  0.22839273446E-01 -0.16152695298E-01 -0.90026291919E+03  0.10997306229E+04  0.63161231670E+03 0.  0.
         13    1    3    3    0    0  0.12157861132E+03  0.12440660596E+03 -0.90907003539E+03  0.92556290526E+03  0.00000000000E+00 0.  1.
          1    1    3    3  501    0 -0.12155577205E+03 -0.12442275866E+03  0.88071162082E+01  0.17416771769E+03  0.00000000000E+00 0.  1.
         21    1    1    2  502  501 -0.22839273446E-01  0.16152695298E-01  0.57359362873E-01  0.63817227189E-01  0.00000000000E+00 0.  1.
<mgrwt>
<rscale>  1 0.63161232E+03</rscale>
<asrwt>0</asrwt>
<pdfrwt beam="1">  1        1 0.36288964E+00 0.63161232E+03</pdfrwt>
<pdfrwt beam="2">0</pdfrwt>
<totfact> 0.19577540E+00</totfact>
</mgrwt>
</event>
<event>
 6    1  0.2234319E-003  0.6518022E+03  0.7818608E-02  0.9803403E-01
          1   -1    0    0  502    0  0.00000000000E+00  0.00000000000E+00  0.10621172567E+03  0.10621172567E+03  0.00000000000E+00 0.  1.
         13   -1    0    0    0    0 -0.00000000000E+00 -0.00000000000E+00 -0.10000000000E+04  0.10000000000E+04  0.00000000000E+00 0.  1.
    9000005    2    1    2  501    0  0.14225615971E-04 -0.28424631751E-05 -0.89378847112E+03  0.11062115283E+04  0.65180220492E+03 0.  0.
         13    1    3    3    0    0  0.87094652621E+02  0.31203360654E+03 -0.50716316453E+03  0.60180140045E+03  0.00000000000E+00 0.  1.
          1    1    3    3  501    0 -0.87094638396E+02 -0.31203360939E+03 -0.38662530659E+03  0.50441012789E+03  0.00000000000E+00 0.  1.
         21    1    1    2  502  501 -0.14225615975E-04  0.28424631977E-05  0.19679203594E-03  0.19732600729E-03  0.00000000000E+00 0. -1.
<mgrwt>
<rscale>  1 0.65180220E+03</rscale>
<asrwt>0</asrwt>
<pdfrwt beam="1">  1        1 0.38622527E+00 0.65180220E+03</pdfrwt>
<pdfrwt beam="2">0</pdfrwt>
<totfact> 0.15397361E+00</totfact>
</mgrwt>
</event>
<event>
 6    1  0.2234319E-003  0.6567444E+03  0.7818608E-02  0.9794206E-01
          3   -1    0    0  502    0  0.00000000000E+00  0.00000000000E+00  0.10785118833E+03  0.10785118833E+03  0.00000000000E+00 0.  1.
         13   -1    0    0    0    0 -0.00000000000E+00 -0.00000000000E+00 -0.10000000000E+04  0.10000000000E+04  0.00000000000E+00 0.  1.
    9000005    2    1    2  501    0 -0.28397740726E-03  0.41077903066E-03 -0.89217170419E+03  0.11078282904E+04  0.65674437277E+03 0.  0.
         13    1    3    3    0    0 -0.29703041137E+03  0.99554619078E+02 -0.61213774258E+03  0.68764147878E+03  0.00000000000E+00 0.  1.
          1    1    3    3  501    0  0.29703012739E+03 -0.99554208299E+02 -0.28003396162E+03  0.42018681158E+03  0.00000000000E+00 0.  1.
         21    1    1    2  502  501  0.28397740724E-03 -0.41077903066E-03  0.22892521263E-01  0.22897967429E-01  0.00000000000E+00 0. -1.
<mgrwt>
<rscale>  1 0.65674437E+03</rscale>
<asrwt>0</asrwt>
<pdfrwt beam="1">  1        3 0.39218697E+00 0.65674437E+03</pdfrwt>
<pdfrwt beam="2">0</pdfrwt>
<totfact> 0.65030192E-02</totfact>
</mgrwt>
</event>
<event>
 6    1  0.2234319E-003  0.6557473E+03  0.7818608E-02  0.9796054E-01
          1   -1    0    0  502    0  0.00000000000E+00  0.00000000000E+00  0.11182078586E+03  0.11182078586E+03  0.00000000000E+00 0.  1.
         13   -1    0    0    0    0 -0.00000000000E+00 -0.00000000000E+00 -0.10000000000E+04  0.10000000000E+04  0.00000000000E+00 0.  1.
    9000005    2    1    2  501    0 -0.25056727308E+01 -0.12469091440E+02 -0.86608830572E+03  0.10863302999E+04  0.65562398571E+03 0.  0.
         13    1    3    3    0    0  0.29250220115E+03 -0.11299022508E+03 -0.27047315057E+03  0.41410150184E+03  0.00000000000E+00 0.  1.
          3    1    3    3  501    0 -0.29500787388E+03  0.10052113364E+03 -0.59561515515E+03  0.67222879811E+03  0.00000000000E+00 0.  1.
         21    1    1    2  502  501  0.25056727308E+01  0.12469091440E+02 -0.22090908425E+02  0.25490485916E+02  0.00000000000E+00 0. -1.
<mgrwt>
<rscale>  1 0.65574733E+03</rscale>
<asrwt>0</asrwt>
<pdfrwt beam="1">  1        1 0.40662190E+00 0.65574733E+03</pdfrwt>
<pdfrwt beam="2">0</pdfrwt>
<totfact> 0.12484349E+00</totfact>
</mgrwt>
</event>
<event>
 6    1  0.2234319E-003  0.6502463E+03  0.7818608E-02  0.9806317E-01
          1   -1    0    0  502    0  0.00000000000E+00  0.00000000000E+00  0.10570513674E+03  0.10570513674E+03  0.00000000000E+00 0.  1.
         13   -1    0    0    0    0 -0.00000000000E+00 -0.00000000000E+00 -0.10000000000E+04  0.10000000000E+04  0.00000000000E+00 0.  1.
    9000005    2    1    2  501    0 -0.32870326663E-04 -0.10478667662E-04 -0.89429492202E+03  0.11057050686E+04  0.65024633114E+03 0.  0.
         13    1    3    3    0    0 -0.18729272912E+03 -0.26287132014E+03 -0.51355581040E+03  0.60656365514E+03  0.00000000000E+00 0.  1.
          3    1    3    3  501    0  0.18729269625E+03  0.26287130966E+03 -0.38073911162E+03  0.49914141346E+03  0.00000000000E+00 0.  1.
         21    1    1    2  502  501  0.32870326665E-04  0.10478667651E-04  0.58762553967E-04  0.68141753717E-04  0.00000000000E+00 0. -1.
<mgrwt>
<rscale>  1 0.65024633E+03</rscale>
<asrwt>0</asrwt>
<pdfrwt beam="1">  1        1 0.38438313E+00 0.65024633E+03</pdfrwt>
<pdfrwt beam="2">0</pdfrwt>
<totfact> 0.15693530E+00</totfact>
</mgrwt>
</event>
<event>
 6    1  0.2234319E-003  0.6478970E+03  0.7818608E-02  0.9810733E-01
          1   -1    0    0  502    0  0.00000000000E+00  0.00000000000E+00  0.10494269627E+03  0.10494269627E+03  0.00000000000E+00 0.  1.
         13   -1    0    0    0    0 -0.00000000000E+00 -0.00000000000E+00 -0.10000000000E+04  0.10000000000E+04  0.00000000000E+00 0.  1.
    9000005    2    1    2  501    0  0.45602066407E-04  0.68939939695E-05 -0.89505735687E+03  0.11049426259E+04  0.64789700915E+03 0.  0.
         13    1    3    3    0    0  0.68983630157E+02 -0.17651994926E+03  0.53083589960E+00  0.18952127981E+03  0.00000000000E+00 0.  1.
          3    1    3    3  501    0 -0.68983584555E+02  0.17651995615E+03 -0.89558819277E+03  0.91542134610E+03  0.00000000000E+00 0.  1.
         21    1    1    2  502  501 -0.45602066406E-04 -0.68939939779E-05  0.53145063889E-04  0.70366706824E-04  0.00000000000E+00 0. -1.
<mgrwt>
<rscale>  1 0.64789701E+03</rscale>
<asrwt>0</asrwt>
<pdfrwt beam="1">  1        1 0.38161061E+00 0.64789701E+03</pdfrwt>
<pdfrwt beam="2">0</pdfrwt>
<totfact> 0.16149529E+00</totfact>
</mgrwt>
</event>
<event>
 6    1  0.2234319E-003  0.6495601E+03  0.7818608E-02  0.9807605E-01
          1   -1    0    0  502    0  0.00000000000E+00  0.00000000000E+00  0.10570572544E+03  0.10570572544E+03  0.00000000000E+00 0.  1.
         13   -1    0    0    0    0 -0.00000000000E+00 -0.00000000000E+00 -0.10000000000E+04  0.10000000000E+04  0.00000000000E+00 0.  1.
    9000005    2    1    2  501    0  0.28320146508E+00  0.12424917653E+00 -0.89439307480E+03  0.11053810681E+04  0.64956003397E+03 0.  0.
         13    1    3    3    0    0  0.12164467064E+03  0.13129970445E+02 -0.95934703473E+03  0.96711765317E+03  0.00000000000E+00 0.  1.
          3    1    3    3  501    0 -0.12136146918E+03 -0.13005721268E+02  0.64953959933E+02  0.13826341489E+03  0.00000000000E+00 0.  1.
         21    1    1    2  502  501 -0.28320146508E+00 -0.12424917653E+00  0.98800237503E-01  0.32465738036E+00  0.00000000000E+00 0.  1.
<mgrwt>
<rscale>  1 0.64956011E+03</rscale>
<asrwt>0</asrwt>
<pdfrwt beam="1">  1        1 0.38438527E+00 0.64956011E+03</pdfrwt>
<pdfrwt beam="2">0</pdfrwt>
<totfact> 0.15695175E+00</totfact>
</mgrwt>
</event>
