<event>
 6    1  0.3119859E-002  0.6518987E+03  0.7818608E-02  0.9803223E-01
          1   -1    0    0  502    0  0.00000000000E+00  0.00000000000E+00  0.10728310711E+03  0.10728310711E+03  0.00000000000E+00 0.  1.
         13   -1    0    0    0    0 -0.00000000000E+00 -0.00000000000E+00 -0.10000000000E+04  0.10000000000E+04  0.00000000000E+00 0.  1.
    9000005    2    1    2  501    0 -0.54096968071E+00  0.11581426437E+01 -0.89330358087E+03  0.11058766416E+04  0.65189740358E+03 0.  0.
         13    1    3    3    0    0  0.49488027883E+02  0.19685582938E+03 -0.88037515581E+03  0.90347202361E+03  0.00000000000E+00 0.  1.
          1    1    3    3  501    0 -0.50028997564E+02 -0.19569768674E+03 -0.12928425055E+02  0.20240461795E+03  0.00000000000E+00 0.  1.
         21    1    1    2  502  501  0.54096968071E+00 -0.11581426437E+01  0.58668797528E+00  0.14064655555E+01  0.00000000000E+00 0.  1.
<mgrwt>
<rscale>  1 0.65189866E+03</rscale>
<asrwt>0</asrwt>
<pdfrwt beam="1">  1        1 0.39012121E+00 0.65189866E+03</pdfrwt>
<pdfrwt beam="2">0</pdfrwt>
<totfact> 0.14797159E+00</totfact>
</mgrwt>
</event>
<event>
 6    1  0.3119859E-002  0.5977960E+03  0.7818608E-02  0.9909989E-01
          1   -1    0    0  502    0  0.00000000000E+00  0.00000000000E+00  0.89559814010E+02  0.89559814010E+02  0.00000000000E+00 0.  1.
         13   -1    0    0    0    0 -0.00000000000E+00 -0.00000000000E+00 -0.10000000000E+04  0.10000000000E+04  0.00000000000E+00 0.  1.
    9000005    2    1    2  501    0 -0.21800567975E-02  0.66585778721E-02 -0.91065993104E+03  0.10893399573E+04  0.59779597900E+03 0.  0.
         13    1    3    3    0    0 -0.95843853020E+02  0.13730748223E+03 -0.41559295290E+01  0.16750122563E+03  0.00000000000E+00 0.  1.
          1    1    3    3  501    0  0.95841672963E+02 -0.13730082365E+03 -0.90650400151E+03  0.92183873167E+03  0.00000000000E+00 0.  1.
         21    1    1    2  502  501  0.21800567975E-02 -0.66585778721E-02  0.21974504722E+00  0.21985671490E+00  0.00000000000E+00 0.  1.
<mgrwt>
<rscale>  1 0.59779598E+03</rscale>
<asrwt>0</asrwt>
<pdfrwt beam="1">  1        1 0.32567274E+00 0.59779598E+03</pdfrwt>
<pdfrwt beam="2">0</pdfrwt>
<totfact> 0.28594299E+00</totfact>
</mgrwt>
</event>
<event>
 6    1  0.3119859E-002  0.6436782E+03  0.7818608E-02  0.9818714E-01
          1   -1    0    0  502    0  0.00000000000E+00  0.00000000000E+00  0.10358454148E+03  0.10358454148E+03  0.00000000000E+00 0.  1.
         13   -1    0    0    0    0 -0.00000000000E+00 -0.00000000000E+00 -0.10000000000E+04  0.10000000000E+04  0.00000000000E+00 0.  1.
    9000005    2    1    2  501    0  0.30683173389E-03  0.19875145572E-03 -0.89641959313E+03  0.11035803907E+04  0.64367817414E+03 0.  0.
         13    1    3    3    0    0 -0.20190017943E+03 -0.17920902858E+02 -0.19602383321E+02  0.20363961954E+03  0.00000000000E+00 0.  1.
          3    1    3    3  501    0  0.20190048626E+03  0.17921101609E+02 -0.87681720981E+03  0.89994077120E+03  0.00000000000E+00 0.  1.
         21    1    1    2  502  501 -0.30683173391E-03 -0.19875145571E-03  0.41346108814E-02  0.41507414994E-02  0.00000000000E+00 0.  1.
<mgrwt>
<rscale>  1 0.64367817E+03</rscale>
<asrwt>0</asrwt>
<pdfrwt beam="1">  1        1 0.37667185E+00 0.64367817E+03</pdfrwt>
<pdfrwt beam="2">0</pdfrwt>
<totfact> 0.16993325E+00</totfact>
</mgrwt>
</event>
<event>
 6    1  0.3119859E-002  0.6488710E+03  0.7818608E-02  0.9808900E-01
          1   -1    0    0  502    0  0.00000000000E+00  0.00000000000E+00  0.10525844065E+03  0.10525844065E+03  0.00000000000E+00 0.  1.
         13   -1    0    0    0    0 -0.00000000000E+00 -0.00000000000E+00 -0.10000000000E+04  0.10000000000E+04  0.00000000000E+00 0.  1.
    9000005    2    1    2  501    0  0.48520766541E-04  0.78616766075E-04 -0.89474153408E+03  0.11052583449E+04  0.64887101653E+03 0.  0.
         13    1    3    3    0    0  0.29638491381E+03  0.13151052941E+03 -0.42875918912E+03  0.53756253472E+03  0.00000000000E+00 0.  1.
          3    1    3    3  501    0 -0.29638486529E+03 -0.13151045079E+03 -0.46598234496E+03  0.56769581015E+03  0.00000000000E+00 0.  1.
         21    1    1    2  502  501 -0.48520766534E-04 -0.78616766072E-04 -0.25271039843E-04  0.95778317731E-04  0.00000000000E+00 0. -1.
<mgrwt>
<rscale>  1 0.64887102E+03</rscale>
<asrwt>0</asrwt>
<pdfrwt beam="1">  1        1 0.38275877E+00 0.64887102E+03</pdfrwt>
<pdfrwt beam="2">0</pdfrwt>
<totfact> 0.15959178E+00</totfact>
</mgrwt>
</event>
<event>
 6    1  0.3119859E-002  0.6405399E+03  0.7818608E-02  0.9824694E-01
          1   -1    0    0  502    0  0.00000000000E+00  0.00000000000E+00  0.10458432966E+03  0.10458432966E+03  0.00000000000E+00 0.  1.
         13   -1    0    0    0    0 -0.00000000000E+00 -0.00000000000E+00 -0.10000000000E+04  0.10000000000E+04  0.00000000000E+00 0.  1.
    9000005    2    1    2  501    0  0.81182838790E+00 -0.73528966298E+00 -0.89726149048E+03  0.11024379913E+04  0.64053894708E+03 0.  0.
         13    1    3    3    0    0 -0.29203429264E+03 -0.49710064785E+02 -0.24010988775E+03  0.38132384769E+03  0.00000000000E+00 0.  1.
          3    1    3    3  501    0  0.29284612103E+03  0.48974775122E+02 -0.65715160273E+03  0.72111414365E+03  0.00000000000E+00 0.  1.
         21    1    1    2  502  501 -0.81182838790E+00  0.73528966298E+00  0.18458201377E+01  0.21463383239E+01  0.00000000000E+00 0.  1.
<mgrwt>
<rscale>  1 0.64053988E+03</rscale>
<asrwt>0</asrwt>
<pdfrwt beam="1">  1        1 0.38030746E+00 0.64053988E+03</pdfrwt>
<pdfrwt beam="2">0</pdfrwt>
<totfact> 0.16387091E+00</totfact>
</mgrwt>
</event>
<event>
 6    1  0.3119859E-002  0.6492082E+03  0.7818608E-02  0.9808266E-01
          1   -1    0    0  502    0  0.00000000000E+00  0.00000000000E+00  0.10546192462E+03  0.10546192462E+03  0.00000000000E+00 0.  1.
         13   -1    0    0    0    0 -0.00000000000E+00 -0.00000000000E+00 -0.10000000000E+04  0.10000000000E+04  0.00000000000E+00 0.  1.
    9000005    2    1    2  501    0  0.28764368985E-01 -0.10450684494E+00 -0.89459635936E+03  0.11053388552E+04  0.64920823068E+03 0.  0.
         13    1    3    3    0    0  0.15092645588E+03  0.25409225279E+03 -0.21879884295E+03  0.36771538136E+03  0.00000000000E+00 0.  1.
          1    1    3    3  501    0 -0.15089769151E+03 -0.25419675963E+03 -0.67579751641E+03  0.73762347380E+03  0.00000000000E+00 0.  1.
         21    1    1    2  502  501 -0.28764368985E-01  0.10450684494E+00  0.58283981905E-01  0.12306946050E+00  0.00000000000E+00 0. -1.
<mgrwt>
<rscale>  1 0.64920824E+03</rscale>
<asrwt>0</asrwt>
<pdfrwt beam="1">  1        1 0.38349872E+00 0.64920824E+03</pdfrwt>
<pdfrwt beam="2">0</pdfrwt>
<totfact> 0.15838486E+00</totfact>
</mgrwt>
</event>
<event>
 6    1  0.3119859E-002  0.6520343E+03  0.7818608E-02  0.9802969E-01
          1   -1    0    0  502    0  0.00000000000E+00  0.00000000000E+00  0.10628725633E+03  0.10628725633E+03  0.00000000000E+00 0.  1.
         13   -1    0    0    0    0 -0.00000000000E+00 -0.00000000000E+00 -0.10000000000E+04  0.10000000000E+04  0.00000000000E+00 0.  1.
    9000005    2    1    2  501    0 -0.57798762370E-04  0.45591549792E-04 -0.89371280502E+03  0.11062871605E+04  0.65203428102E+03 0.  0.
         13    1    3    3    0    0  0.11345163641E+03  0.30536423366E+03 -0.42482619741E+03  0.53534651116E+03  0.00000000000E+00 0.  1.
          1    1    3    3  501    0 -0.11345169421E+03 -0.30536418807E+03 -0.46888660761E+03  0.57094064934E+03  0.00000000000E+00 0.  1.
         21    1    1    2  502  501  0.57798762364E-04 -0.45591549800E-04  0.61357011624E-04  0.95833027811E-04  0.00000000000E+00 0.  1.
<mgrwt>
<rscale>  1 0.65203428E+03</rscale>
<asrwt>0</asrwt>
<pdfrwt beam="1">  1        1 0.38649993E+00 0.65203428E+03</pdfrwt>
<pdfrwt beam="2">0</pdfrwt>
<totfact> 0.15353661E+00</totfact>
</mgrwt>
</event>
<event>
 6    1  0.3119859E-002  0.4849550E+03  0.7818608E-02  0.1017782E+00
          1   -1    0    0  502    0  0.00000000000E+00  0.00000000000E+00  0.58910549549E+02  0.58910549549E+02  0.00000000000E+00 0.  1.
         13   -1    0    0    0    0 -0.00000000000E+00 -0.00000000000E+00 -0.10000000000E+04  0.10000000000E+04  0.00000000000E+00 0.  1.
    9000005    2    1    2  501    0  0.47206748934E-02 -0.27970345203E-01 -0.94120280871E+03  0.10587936961E+04  0.48495501137E+03 0.  0.
         13    1    3    3    0    0  0.21070414897E+03  0.10065223232E+03 -0.61320122493E+03  0.65615764304E+03  0.00000000000E+00 0.  1.
          3    1    3    3  501    0 -0.21069942829E+03 -0.10068020266E+03 -0.32800158378E+03  0.40263605310E+03  0.00000000000E+00 0.  1.
         21    1    1    2  502  501 -0.47206748934E-02  0.27970345203E-01  0.11335825810E+00  0.11685341100E+00  0.00000000000E+00 0. -1.
<mgrwt>
<rscale>  1 0.48495501E+03</rscale>
<asrwt>0</asrwt>
<pdfrwt beam="1">  1        1 0.21422063E+00 0.48495501E+03</pdfrwt>
<pdfrwt beam="2">0</pdfrwt>
<totfact> 0.88942475E+00</totfact>
</mgrwt>
</event>
<event>
 6    1  0.3119859E-002  0.6555491E+03  0.7818608E-02  0.9796422E-01
          1   -1    0    0  502    0  0.00000000000E+00  0.00000000000E+00  0.10747151601E+03  0.10747151601E+03  0.00000000000E+00 0.  1.
         13   -1    0    0    0    0 -0.00000000000E+00 -0.00000000000E+00 -0.10000000000E+04  0.10000000000E+04  0.00000000000E+00 0.  1.
    9000005    2    1    2  501    0  0.30951127375E-01 -0.26382246940E-01 -0.89255039542E+03  0.11074253196E+04  0.65554910458E+03 0.  0.
         13    1    3    3    0    0 -0.29025644074E+02  0.29036361936E+03 -0.19413637789E+03  0.35048887669E+03  0.00000000000E+00 0.  1.
          3    1    3    3  501    0  0.29056595201E+02 -0.29039000161E+03 -0.69841401753E+03  0.75693644294E+03  0.00000000000E+00 0.  1.
         21    1    1    2  502  501 -0.30951127375E-01  0.26382246940E-01  0.21911438196E-01  0.46196389071E-01  0.00000000000E+00 0. -1.
<mgrwt>
<rscale>  1 0.65554911E+03</rscale>
<asrwt>0</asrwt>
<pdfrwt beam="1">  1        1 0.39080634E+00 0.65554911E+03</pdfrwt>
<pdfrwt beam="2">0</pdfrwt>
<totfact> 0.14684012E+00</totfact>
</mgrwt>
</event>
<event>
 6    1  0.3119859E-002  0.6300867E+03  0.7818608E-02  0.9844880E-01
          1   -1    0    0  502    0  0.00000000000E+00  0.00000000000E+00  0.99252461497E+02  0.99252461497E+02  0.00000000000E+00 0.  1.
         13   -1    0    0    0    0 -0.00000000000E+00 -0.00000000000E+00 -0.10000000000E+04  0.10000000000E+04  0.00000000000E+00 0.  1.
    9000005    2    1    2  501    0 -0.44920220923E-04 -0.49736256770E-04 -0.90074769495E+03  0.10992522913E+04  0.63008665276E+03 0.  0.
         13    1    3    3    0    0 -0.17455725455E+02 -0.77193095036E+02 -0.98237489830E+03  0.98555766807E+03  0.00000000000E+00 0.  1.
          3    1    3    3  501    0  0.17455680535E+02  0.77193045300E+02  0.81627203353E+02  0.11369462324E+03  0.00000000000E+00 0.  1.
         21    1    1    2  502  501  0.44920220922E-04  0.49736256762E-04  0.15644377903E-03  0.17019452836E-03  0.00000000000E+00 0. -1.
<mgrwt>
<rscale>  1 0.63008665E+03</rscale>
<asrwt>0</asrwt>
<pdfrwt beam="1">  1        1 0.36091880E+00 0.63008665E+03</pdfrwt>
<pdfrwt beam="2">0</pdfrwt>
<totfact> 0.19975783E+00</totfact>
</mgrwt>
</event>
<event>
 6    1  0.3119859E-002  0.6404190E+03  0.7818608E-02  0.9824925E-01
          1   -1    0    0  502    0  0.00000000000E+00  0.00000000000E+00  0.10254615254E+03  0.10254615254E+03  0.00000000000E+00 0.  1.
         13   -1    0    0    0    0 -0.00000000000E+00 -0.00000000000E+00 -0.10000000000E+04  0.10000000000E+04  0.00000000000E+00 0.  1.
    9000005    2    1    2  501    0 -0.36048841197E-01  0.82177536422E-02 -0.89741255713E+03  0.11024907274E+04  0.64041900738E+03 0.  0.
         13    1    3    3    0    0 -0.20852003423E+03  0.20918170061E+03 -0.23574670678E+03  0.37790752612E+03  0.00000000000E+00 0.  1.
          3    1    3    3  501    0  0.20848398539E+03 -0.20917348285E+03 -0.66166585035E+03  0.72458320131E+03  0.00000000000E+00 0.  1.
         21    1    1    2  502  501  0.36048841197E-01 -0.82177536423E-02 -0.41290336328E-01  0.55425105329E-01  0.00000000000E+00 0. -1.
<mgrwt>
<rscale>  1 0.64041901E+03</rscale>
<asrwt>0</asrwt>
<pdfrwt beam="1">  1        1 0.37289589E+00 0.64041901E+03</pdfrwt>
<pdfrwt beam="2">0</pdfrwt>
<totfact> 0.17666753E+00</totfact>
</mgrwt>
</event>
<event>
 6    1  0.3119859E-002  0.6530640E+03  0.7818608E-02  0.9801047E-01
          1   -1    0    0  502    0  0.00000000000E+00  0.00000000000E+00  0.10739696335E+03  0.10739696335E+03  0.00000000000E+00 0.  1.
         13   -1    0    0    0    0 -0.00000000000E+00 -0.00000000000E+00 -0.10000000000E+04  0.10000000000E+04  0.00000000000E+00 0.  1.
    9000005    2    1    2  501    0 -0.42904363038E+00  0.12599059664E+01 -0.89268359063E+03  0.11060635728E+04  0.65306267893E+03 0.  0.
         13    1    3    3    0    0  0.46225356679E+02 -0.24617298790E+03 -0.79911019124E+03  0.83744553335E+03  0.00000000000E+00 0.  1.
          1    1    3    3  501    0 -0.46654400310E+02  0.24743289387E+03 -0.93573399388E+02  0.26861803943E+03  0.00000000000E+00 0.  1.
         21    1    1    2  502  501  0.42904363038E+00 -0.12599059664E+01  0.80553984644E-01  0.13333905749E+01  0.00000000000E+00 0.  1.
<mgrwt>
<rscale>  1 0.65306404E+03</rscale>
<asrwt>0</asrwt>
<pdfrwt beam="1">  1        1 0.39053524E+00 0.65306404E+03</pdfrwt>
<pdfrwt beam="2">0</pdfrwt>
<totfact> 0.14731531E+00</totfact>
</mgrwt>
</event>
<event>
 6    1  0.3119859E-002  0.6584701E+03  0.7818608E-02  0.9791014E-01
          1   -1    0    0  502    0  0.00000000000E+00  0.00000000000E+00  0.10840690928E+03  0.10840690928E+03  0.00000000000E+00 0.  1.
         13   -1    0    0    0    0 -0.00000000000E+00 -0.00000000000E+00 -0.10000000000E+04  0.10000000000E+04  0.00000000000E+00 0.  1.
    9000005    2    1    2  501    0  0.17339230234E-03 -0.85214870921E-04 -0.89160428578E+03  0.11083957126E+04  0.65847008527E+03 0.  0.
         13    1    3    3    0    0  0.20825483082E+03  0.15273974453E+03 -0.10208029781E+03  0.27770468365E+03  0.00000000000E+00 0.  1.
          1    1    3    3  501    0 -0.20825465742E+03 -0.15273982975E+03 -0.78952398797E+03  0.83069102891E+03  0.00000000000E+00 0.  1.
         21    1    1    2  502  501 -0.17339230233E-03  0.85214870909E-04  0.11195056323E-01  0.11196723295E-01  0.00000000000E+00 0.  1.
<mgrwt>
<rscale>  1 0.65847009E+03</rscale>
<asrwt>0</asrwt>
<pdfrwt beam="1">  1        1 0.39420777E+00 0.65847009E+03</pdfrwt>
<pdfrwt beam="2">0</pdfrwt>
<totfact> 0.14174378E+00</totfact>
</mgrwt>
</event>
<event>
 6    1  0.3119859E-002  0.4617474E+03  0.7818608E-02  0.1024276E+00
          1   -1    0    0  502    0  0.00000000000E+00  0.00000000000E+00  0.53434707916E+02  0.53434707916E+02  0.00000000000E+00 0.  1.
         13   -1    0    0    0    0 -0.00000000000E+00 -0.00000000000E+00 -0.10000000000E+04  0.10000000000E+04  0.00000000000E+00 0.  1.
    9000005    2    1    2  501    0 -0.22745688445E-01  0.10022506155E-01 -0.94669611057E+03  0.10533015490E+04  0.46174736250E+03 0.  0.
         13    1    3    3    0    0 -0.15465379042E+02 -0.13348959041E+03 -0.45106005168E+02  0.14175048641E+03  0.00000000000E+00 0.  1.
          1    1    3    3  501    0  0.15442633354E+02  0.13349961291E+03 -0.90159010540E+03  0.91155106260E+03  0.00000000000E+00 0.  1.
         21    1    1    2  502  501  0.22745688445E-01 -0.10022506155E-01  0.13081848520E+00  0.13315890147E+00  0.00000000000E+00 0. -1.
<mgrwt>
<rscale>  1 0.46174736E+03</rscale>
<asrwt>0</asrwt>
<pdfrwt beam="1">  1        1 0.19430844E+00 0.46174736E+03</pdfrwt>
<pdfrwt beam="2">0</pdfrwt>
<totfact> 0.10977692E+01</totfact>
</mgrwt>
</event>
<event>
 6    1  0.3119859E-002  0.6490371E+03  0.7818608E-02  0.9808588E-01
          1   -1    0    0  502    0  0.00000000000E+00  0.00000000000E+00  0.10531250689E+03  0.10531250689E+03  0.00000000000E+00 0.  1.
         13   -1    0    0    0    0 -0.00000000000E+00 -0.00000000000E+00 -0.10000000000E+04  0.10000000000E+04  0.00000000000E+00 0.  1.
    9000005    2    1    2  501    0  0.50851622535E-03  0.38153067509E-03 -0.89468702736E+03  0.11053117188E+04  0.64903707044E+03 0.  0.
         13    1    3    3    0    0  0.31969514522E+03  0.47415617416E+02 -0.49726347773E+03  0.59306339706E+03  0.00000000000E+00 0.  1.
          3    1    3    3  501    0 -0.31969463670E+03 -0.47415235885E+02 -0.39742354963E+03  0.51224832174E+03  0.00000000000E+00 0.  1.
         21    1    1    2  502  501 -0.50851622540E-03 -0.38153067508E-03 -0.46574788627E-03  0.78808343536E-03  0.00000000000E+00 0.  1.
<mgrwt>
<rscale>  1 0.64903707E+03</rscale>
<asrwt>0</asrwt>
<pdfrwt beam="1">  1        1 0.38295538E+00 0.64903707E+03</pdfrwt>
<pdfrwt beam="2">0</pdfrwt>
<totfact> 0.15926800E+00</totfact>
</mgrwt>
</event>
<event>
 6    1  0.3119859E-002  0.8416124E+03  0.7818608E-02  0.9501664E-01
          1   -1    0    0  502    0  0.00000000000E+00  0.00000000000E+00  0.17725153166E+03  0.17725153166E+03  0.00000000000E+00 0.  1.
         13   -1    0    0    0    0 -0.00000000000E+00 -0.00000000000E+00 -0.10000000000E+04  0.10000000000E+04  0.00000000000E+00 0.  1.
    9000005    2    1    2  501    0  0.80548954619E-02 -0.10408415833E-02 -0.82292202021E+03  0.11770777899E+04  0.84161242383E+03 0.  0.
         13    1    3    3    0    0 -0.11605896672E+03 -0.20805194351E+03  0.73677816238E+02  0.24936662881E+03  0.00000000000E+00 0.  1.
          3    1    3    3  501    0  0.11606702162E+03  0.20805090267E+03 -0.89659983645E+03  0.92771116105E+03  0.00000000000E+00 0.  1.
         21    1    1    2  502  501 -0.80548954619E-02  0.10408415833E-02  0.17355186736E+00  0.17374180659E+00  0.00000000000E+00 0.  1.
<mgrwt>
<rscale>  1 0.84161242E+03</rscale>
<asrwt>0</asrwt>
<pdfrwt beam="1">  1        1 0.64455238E+00 0.84161242E+03</pdfrwt>
<pdfrwt beam="2">0</pdfrwt>
<totfact> 0.76310366E-02</totfact>
</mgrwt>
</event>
<event>
 6    1  0.3119859E-002  0.6153951E+03  0.7818608E-02  0.9873971E-01
          1   -1    0    0  502    0  0.00000000000E+00  0.00000000000E+00  0.94677778227E+02  0.94677778227E+02  0.00000000000E+00 0.  1.
         13   -1    0    0    0    0 -0.00000000000E+00 -0.00000000000E+00 -0.10000000000E+04  0.10000000000E+04  0.00000000000E+00 0.  1.
    9000005    2    1    2  501    0  0.14273779243E-05 -0.31354448993E-06 -0.90532222119E+03  0.10946777767E+04  0.61539508490E+03 0.  0.
         13    1    3    3    0    0  0.24185763262E+03 -0.19004495342E+03 -0.46706618620E+03  0.55925219809E+03  0.00000000000E+00 0.  1.
          3    1    3    3  501    0 -0.24185763120E+03  0.19004495311E+03 -0.43825603499E+03  0.53542557856E+03  0.00000000000E+00 0.  1.
         21    1    1    2  502  501 -0.14273779323E-05  0.31354451361E-06 -0.57891830121E-06  0.15718983184E-05  0.00000000000E+00 0.  1.
<mgrwt>
<rscale>  1 0.61539508E+03</rscale>
<asrwt>0</asrwt>
<pdfrwt beam="1">  1        1 0.34428356E+00 0.61539508E+03</pdfrwt>
<pdfrwt beam="2">0</pdfrwt>
<totfact> 0.23670287E+00</totfact>
</mgrwt>
</event>
<event>
 6    1  0.3119859E-002  0.7082369E+03  0.7818608E-02  0.9703249E-01
          1   -1    0    0  502    0  0.00000000000E+00  0.00000000000E+00  0.12836298630E+03  0.12836298630E+03  0.00000000000E+00 0.  1.
         13   -1    0    0    0    0 -0.00000000000E+00 -0.00000000000E+00 -0.10000000000E+04  0.10000000000E+04  0.00000000000E+00 0.  1.
    9000005    2    1    2  501    0 -0.50375616925E+00 -0.17983766985E+00 -0.87457291145E+03  0.11253787599E+04  0.70823674684E+03 0.  0.
         13    1    3    3    0    0  0.61869613395E+02  0.33560978961E+03 -0.28767349871E+03  0.44633823699E+03  0.00000000000E+00 0.  1.
          1    1    3    3  501    0 -0.62373369564E+02 -0.33578962728E+03 -0.58689941274E+03  0.67904052286E+03  0.00000000000E+00 0.  1.
         21    1    1    2  502  501  0.50375616925E+00  0.17983766985E+00  0.29358977527E+01  0.29842264458E+01  0.00000000000E+00 0. -1.
<mgrwt>
<rscale>  1 0.70823695E+03</rscale>
<asrwt>0</asrwt>
<pdfrwt beam="1">  1        1 0.46677548E+00 0.70823695E+03</pdfrwt>
<pdfrwt beam="2">0</pdfrwt>
<totfact> 0.65628190E-01</totfact>
</mgrwt>
</event>
