<event>
 6    1  0.1959824E-002  0.6472361E+03  0.7818608E-02  0.9811979E-01
          1   -1    0    0  502    0  0.00000000000E+00  0.00000000000E+00  0.10474571498E+03  0.10474571498E+03  0.00000000000E+00 0.  1.
         13   -1    0    0    0    0 -0.00000000000E+00 -0.00000000000E+00 -0.10000000000E+04  0.10000000000E+04  0.00000000000E+00 0.  1.
    9000005    2    1    2  501    0 -0.67394023020E-04 -0.87383385323E-03 -0.89527134292E+03  0.11047286346E+04  0.64723610731E+03 0.  0.
         13    1    3    3    0    0 -0.11517867664E+03 -0.22749995791E+03 -0.10752279499E+03  0.27673725779E+03  0.00000000000E+00 0.  1.
          1    1    3    3  501    0  0.11517860925E+03  0.22749908408E+03 -0.78774854793E+03  0.82799137679E+03  0.00000000000E+00 0.  1.
         21    1    1    2  502  501  0.67394023017E-04  0.87383385324E-03  0.17057896750E-01  0.17080397217E-01  0.00000000000E+00 0. -1.
<mgrwt>
<rscale>  1 0.64723611E+03</rscale>
<asrwt>0</asrwt>
<pdfrwt beam="1">  1        1 0.38089431E+00 0.64723611E+03</pdfrwt>
<pdfrwt beam="2">0</pdfrwt>
<totfact> 0.16269533E+00</totfact>
</mgrwt>
</event>
<event>
 6    1  0.1959824E-002  0.6609692E+03  0.7818608E-02  0.9786411E-01
          1   -1    0    0  502    0  0.00000000000E+00  0.00000000000E+00  0.10931904398E+03  0.10931904398E+03  0.00000000000E+00 0.  1.
         13   -1    0    0    0    0 -0.00000000000E+00 -0.00000000000E+00 -0.10000000000E+04  0.10000000000E+04  0.00000000000E+00 0.  1.
    9000005    2    1    2  501    0 -0.35400446038E-01  0.43588137004E-02 -0.89077634882E+03  0.11092172011E+04  0.66096920826E+03 0.  0.
         13    1    3    3    0    0  0.32170205119E+03 -0.28901993855E+02 -0.32812063644E+03  0.46042446399E+03  0.00000000000E+00 0.  1.
          3    1    3    3  501    0 -0.32173745164E+03  0.28906352669E+02 -0.56265571238E+03  0.64879273708E+03  0.00000000000E+00 0.  1.
         21    1    1    2  502  501  0.35400446038E-01 -0.43588137004E-02  0.95392804531E-01  0.10184290841E+00  0.00000000000E+00 0. -1.
<mgrwt>
<rscale>  1 0.66096921E+03</rscale>
<asrwt>0</asrwt>
<pdfrwt beam="1">  1        1 0.39752463E+00 0.66096921E+03</pdfrwt>
<pdfrwt beam="2">0</pdfrwt>
<totfact> 0.13694468E+00</totfact>
</mgrwt>
</event>
<event>
 6    1  0.1959824E-002  0.6524130E+03  0.7818608E-02  0.9802262E-01
          1   -1    0    0  502    0  0.00000000000E+00  0.00000000000E+00  0.10641476211E+03  0.10641476211E+03  0.00000000000E+00 0.  1.
         13   -1    0    0    0    0 -0.00000000000E+00 -0.00000000000E+00 -0.10000000000E+04  0.10000000000E+04  0.00000000000E+00 0.  1.
    9000005    2    1    2  501    0  0.95543149143E-05 -0.35050924316E-03 -0.89358930745E+03  0.11064106775E+04  0.65241301094E+03 0.  0.
         13    1    3    3    0    0  0.15485779061E+03 -0.27678630307E+03 -0.31742741372E+03  0.44872235944E+03  0.00000000000E+00 0.  1.
          3    1    3    3  501    0 -0.15485778105E+03  0.27678595257E+03 -0.57616189373E+03  0.65768831803E+03  0.00000000000E+00 0.  1.
         21    1    1    2  502  501 -0.95543149111E-05  0.35050924315E-03  0.40695612270E-02  0.40846391021E-02  0.00000000000E+00 0. -1.
<mgrwt>
<rscale>  1 0.65241301E+03</rscale>
<asrwt>0</asrwt>
<pdfrwt beam="1">  1        1 0.38696359E+00 0.65241301E+03</pdfrwt>
<pdfrwt beam="2">0</pdfrwt>
<totfact> 0.15280192E+00</totfact>
</mgrwt>
</event>
<event>
 6    1  0.1959824E-002  0.6422418E+03  0.7818608E-02  0.9821447E-01
          1   -1    0    0  502    0  0.00000000000E+00  0.00000000000E+00  0.10697978241E+03  0.10697978241E+03  0.00000000000E+00 0.  1.
         13   -1    0    0    0    0 -0.00000000000E+00 -0.00000000000E+00 -0.10000000000E+04  0.10000000000E+04  0.00000000000E+00 0.  1.
    9000005    2    1    2  501    0  0.57961491300E-01 -0.15889440816E+00 -0.89687931625E+03  0.11031169791E+04  0.64224180263E+03 0.  0.
         13    1    3    3    0    0  0.29065787605E+03 -0.13524766035E+03 -0.48213874318E+03  0.57899196731E+03  0.00000000000E+00 0.  1.
          3    1    3    3  501    0 -0.29059991456E+03  0.13508876594E+03 -0.41474057307E+03  0.52412501178E+03  0.00000000000E+00 0.  1.
         21    1    1    2  502  501 -0.57961491300E-01  0.15889440816E+00  0.38590986618E+01  0.38628033148E+01  0.00000000000E+00 0.  1.
<mgrwt>
<rscale>  1 0.64224182E+03</rscale>
<asrwt>0</asrwt>
<pdfrwt beam="1">  1        1 0.38901821E+00 0.64224182E+03</pdfrwt>
<pdfrwt beam="2">0</pdfrwt>
<totfact> 0.14991757E+00</totfact>
</mgrwt>
</event>
<event>
 6    1  0.1959824E-002  0.6556801E+03  0.7818608E-02  0.9796179E-01
          1   -1    0    0  502    0  0.00000000000E+00  0.00000000000E+00  0.10756606657E+03  0.10756606657E+03  0.00000000000E+00 0.  1.
         13   -1    0    0    0    0 -0.00000000000E+00 -0.00000000000E+00 -0.10000000000E+04  0.10000000000E+04  0.00000000000E+00 0.  1.
    9000005    2    1    2  501    0  0.15703475430E-02  0.12358311917E-02 -0.89252090041E+03  0.11074790766E+04  0.65568006490E+03 0.  0.
         13    1    3    3    0    0 -0.13684263904E+02  0.12275498308E+03  0.66675749106E+02  0.14036274601E+03  0.00000000000E+00 0.  1.
          3    1    3    3  501    0  0.13685834252E+02 -0.12275374724E+03 -0.95919664952E+03  0.96711633063E+03  0.00000000000E+00 0.  1.
         21    1    1    2  502  501 -0.15703475430E-02 -0.12358311917E-02  0.86966983782E-01  0.86989939293E-01  0.00000000000E+00 0. -1.
<mgrwt>
<rscale>  1 0.65568006E+03</rscale>
<asrwt>0</asrwt>
<pdfrwt beam="1">  1        1 0.39115016E+00 0.65568006E+03</pdfrwt>
<pdfrwt beam="2">0</pdfrwt>
<totfact> 0.14632166E+00</totfact>
</mgrwt>
</event>
<event>
 6    1  0.1959824E-002  0.5616574E+03  0.7818608E-02  0.9988311E-01
          1   -1    0    0  502    0  0.00000000000E+00  0.00000000000E+00  0.78864772706E+02  0.78864772706E+02  0.00000000000E+00 0.  1.
         13   -1    0    0    0    0 -0.00000000000E+00 -0.00000000000E+00 -0.10000000000E+04  0.10000000000E+04  0.00000000000E+00 0.  1.
    9000005    2    1    2  501    0  0.11255111644E-04 -0.52377694146E-05 -0.92113521208E+03  0.10788647531E+04  0.56165743695E+03 0.  0.
         13    1    3    3    0    0 -0.53226314637E+02 -0.26518226524E+03 -0.31541756210E+03  0.41550320438E+03  0.00000000000E+00 0.  1.
          3    1    3    3  501    0  0.53226325892E+02  0.26518226000E+03 -0.60571764997E+03  0.66336154869E+03  0.00000000000E+00 0.  1.
         21    1    1    2  502  501 -0.11255111646E-04  0.52377694393E-05 -0.15217896919E-04  0.19639148492E-04  0.00000000000E+00 0.  1.
<mgrwt>
<rscale>  1 0.56165744E+03</rscale>
<asrwt>0</asrwt>
<pdfrwt beam="1">  1        1 0.28678160E+00 0.56165744E+03</pdfrwt>
<pdfrwt beam="2">0</pdfrwt>
<totfact> 0.42360672E+00</totfact>
</mgrwt>
</event>
<event>
 6    1  0.1959824E-002  0.6547250E+03  0.7818608E-02  0.9797953E-01
          1   -1    0    0  502    0  0.00000000000E+00  0.00000000000E+00  0.10717949220E+03  0.10717949220E+03  0.00000000000E+00 0.  1.
         13   -1    0    0    0    0 -0.00000000000E+00 -0.00000000000E+00 -0.10000000000E+04  0.10000000000E+04  0.00000000000E+00 0.  1.
    9000005    2    1    2  501    0  0.30794724097E-01 -0.25612300289E-01 -0.89277636819E+03  0.11071198884E+04  0.65472498207E+03 0.  0.
         13    1    3    3    0    0  0.19253595366E+03 -0.29584526156E+02 -0.89131523481E+03  0.91235310349E+03  0.00000000000E+00 0.  1.
          1    1    3    3  501    0 -0.19250515893E+03  0.29558913855E+02 -0.14611333761E+01  0.19476678494E+03  0.00000000000E+00 0.  1.
         21    1    1    2  502  501 -0.30794724097E-01  0.25612300289E-01 -0.44139612008E-01  0.59603777619E-01  0.00000000000E+00 0.  1.
<mgrwt>
<rscale>  1 0.65472498E+03</rscale>
<asrwt>0</asrwt>
<pdfrwt beam="1">  1        1 0.38974443E+00 0.65472498E+03</pdfrwt>
<pdfrwt beam="2">0</pdfrwt>
<totfact> 0.14846399E+00</totfact>
</mgrwt>
</event>
<event>
 6    1  0.1959824E-002  0.6443549E+03  0.7818608E-02  0.9817430E-01
          1   -1    0    0  502    0  0.00000000000E+00  0.00000000000E+00  0.10379922773E+03  0.10379922773E+03  0.00000000000E+00 0.  1.
         13   -1    0    0    0    0 -0.00000000000E+00 -0.00000000000E+00 -0.10000000000E+04  0.10000000000E+04  0.00000000000E+00 0.  1.
    9000005    2    1    2  501    0  0.55058029602E-04 -0.65555943280E-04 -0.89620167393E+03  0.11037983220E+04  0.64435494514E+03 0.  0.
         13    1    3    3    0    0 -0.18845978343E+03 -0.25138229003E+03 -0.57029375161E+03  0.65111067326E+03  0.00000000000E+00 0.  1.
          1    1    3    3  501    0  0.18845983848E+03  0.25138222448E+03 -0.32590792232E+03  0.45268764875E+03  0.00000000000E+00 0.  1.
         21    1    1    2  502  501 -0.55058029615E-04  0.65555943268E-04  0.90165746705E-03  0.90571251301E-03  0.00000000000E+00 0. -1.
<mgrwt>
<rscale>  1 0.64435495E+03</rscale>
<asrwt>0</asrwt>
<pdfrwt beam="1">  1        1 0.37745253E+00 0.64435495E+03</pdfrwt>
<pdfrwt beam="2">0</pdfrwt>
<totfact> 0.16857175E+00</totfact>
</mgrwt>
</event>
<event>
 6    1  0.1959824E-002  0.6479953E+03  0.7818608E-02  0.9810548E-01
          1   -1    0    0  502    0  0.00000000000E+00  0.00000000000E+00  0.10498745850E+03  0.10498745850E+03  0.00000000000E+00 0.  1.
         13   -1    0    0    0    0 -0.00000000000E+00 -0.00000000000E+00 -0.10000000000E+04  0.10000000000E+04  0.00000000000E+00 0.  1.
    9000005    2    1    2  501    0  0.24356393880E-04  0.69181441683E-03 -0.89502551614E+03  0.11049744654E+04  0.64799528906E+03 0.  0.
         13    1    3    3    0    0 -0.11562720192E+03  0.28955169170E+03 -0.29725205750E+03  0.43077676084E+03  0.00000000000E+00 0.  1.
          1    1    3    3  501    0  0.11562722627E+03 -0.28955099988E+03 -0.59777345864E+03  0.67419770457E+03  0.00000000000E+00 0.  1.
         21    1    1    2  502  501 -0.24356393871E-04 -0.69181441685E-03  0.12974646908E-01  0.12993100584E-01  0.00000000000E+00 0. -1.
<mgrwt>
<rscale>  1 0.64799529E+03</rscale>
<asrwt>0</asrwt>
<pdfrwt beam="1">  1        1 0.38177338E+00 0.64799529E+03</pdfrwt>
<pdfrwt beam="2">0</pdfrwt>
<totfact> 0.16122530E+00</totfact>
</mgrwt>
</event>
<event>
 6    1  0.1959824E-002  0.6611897E+03  0.7818608E-02  0.9786006E-01
          1   -1    0    0  502    0  0.00000000000E+00  0.00000000000E+00  0.10929865540E+03  0.10929865540E+03  0.00000000000E+00 0.  1.
         13   -1    0    0    0    0 -0.00000000000E+00 -0.00000000000E+00 -0.10000000000E+04  0.10000000000E+04  0.00000000000E+00 0.  1.
    9000005    2    1    2  501    0  0.43652377938E-03 -0.16775616707E-04 -0.89070702408E+03  0.11092929591E+04  0.66118973561E+03 0.  0.
         13    1    3    3    0    0  0.77770803006E+02  0.37933965784E+02 -0.98066466368E+03  0.98447471585E+03  0.00000000000E+00 0.  1.
          3    1    3    3  501    0 -0.77770366482E+02 -0.37933982559E+02  0.89957639604E+02  0.12481824329E+03  0.00000000000E+00 0.  1.
         21    1    1    2  502  501 -0.43652377939E-03  0.16775616702E-04  0.56794777423E-02  0.56962533175E-02  0.00000000000E+00 0. -1.
<mgrwt>
<rscale>  1 0.66118974E+03</rscale>
<asrwt>0</asrwt>
<pdfrwt beam="1">  1        1 0.39745049E+00 0.66118974E+03</pdfrwt>
<pdfrwt beam="2">0</pdfrwt>
<totfact> 0.13704318E+00</totfact>
</mgrwt>
</event>
<event>
 6    1  0.1959824E-002  0.6485541E+03  0.7818608E-02  0.9809496E-01
          1   -1    0    0  502    0  0.00000000000E+00  0.00000000000E+00  0.10612794961E+03  0.10612794961E+03  0.00000000000E+00 0.  1.
         13   -1    0    0    0    0 -0.00000000000E+00 -0.00000000000E+00 -0.10000000000E+04  0.10000000000E+04  0.00000000000E+00 0.  1.
    9000005    2    1    2  501    0 -0.47535013952E-01 -0.30624739960E-01 -0.89484349924E+03  0.11051548564E+04  0.64855405740E+03 0.  0.
         13    1    3    3    0    0  0.25830984353E+03  0.78198395656E+02 -0.14112977658E+03  0.30455964635E+03  0.00000000000E+00 0.  1.
          1    1    3    3  501    0 -0.25835737854E+03 -0.78229020396E+02 -0.75371372266E+03  0.80059521008E+03  0.00000000000E+00 0.  1.
         21    1    1    2  502  501  0.47535013952E-01  0.30624739960E-01  0.97144885203E+00  0.97309317352E+00  0.00000000000E+00 0. -1.
<mgrwt>
<rscale>  1 0.64855406E+03</rscale>
<asrwt>0</asrwt>
<pdfrwt beam="1">  1        1 0.38592063E+00 0.64855406E+03</pdfrwt>
<pdfrwt beam="2">0</pdfrwt>
<totfact> 0.15454522E+00</totfact>
</mgrwt>
</event>
<event>
 6    1  0.1959824E-002  0.6231817E+03  0.7818608E-02  0.9858445E-01
          1   -1    0    0  502    0  0.00000000000E+00  0.00000000000E+00  0.97088935519E+02  0.97088935519E+02  0.00000000000E+00 0.  1.
         13   -1    0    0    0    0 -0.00000000000E+00 -0.00000000000E+00 -0.10000000000E+04  0.10000000000E+04  0.00000000000E+00 0.  1.
    9000005    2    1    2  501    0  0.20689538465E-03  0.30598972110E-04 -0.90291100441E+03  0.10970887179E+04  0.62318165337E+03 0.  0.
         13    1    3    3    0    0 -0.17868302125E+03  0.50062030456E+02 -0.89211669181E+03  0.91121129316E+03  0.00000000000E+00 0.  1.
          1    1    3    3  501    0  0.17868322814E+03 -0.50061999857E+02 -0.10794312601E+02  0.18587742476E+03  0.00000000000E+00 0.  1.
         21    1    1    2  502  501 -0.20689538466E-03 -0.30598972108E-04 -0.60068726638E-04  0.21760112410E-03  0.00000000000E+00 0.  1.
<mgrwt>
<rscale>  1 0.62318165E+03</rscale>
<asrwt>0</asrwt>
<pdfrwt beam="1">  1        1 0.35305142E+00 0.62318165E+03</pdfrwt>
<pdfrwt beam="2">0</pdfrwt>
<totfact> 0.21647702E+00</totfact>
</mgrwt>
</event>
<event>
 6    1  0.1959824E-002  0.5779066E+03  0.7818608E-02  0.9952334E-01
          1   -1    0    0  502    0  0.00000000000E+00  0.00000000000E+00  0.83652272827E+02  0.83652272827E+02  0.00000000000E+00 0.  1.
         13   -1    0    0    0    0 -0.00000000000E+00 -0.00000000000E+00 -0.10000000000E+04  0.10000000000E+04  0.00000000000E+00 0.  1.
    9000005    2    1    2  501    0 -0.30734467964E-02 -0.22201545775E-03 -0.91650598273E+03  0.10834939873E+04  0.57790657035E+03 0.  0.
         13    1    3    3    0    0  0.81406806585E+01 -0.25426287991E+03 -0.20133464044E+03  0.32442490690E+03  0.00000000000E+00 0.  1.
          1    1    3    3  501    0 -0.81437541052E+01  0.25426265789E+03 -0.71517134230E+03  0.75906908037E+03  0.00000000000E+00 0.  1.
         21    1    1    2  502  501  0.30734467964E-02  0.22201545775E-03  0.15825555918E+00  0.15828555644E+00  0.00000000000E+00 0.  1.
<mgrwt>
<rscale>  1 0.57790657E+03</rscale>
<asrwt>0</asrwt>
<pdfrwt beam="1">  1        1 0.30419072E+00 0.57790657E+03</pdfrwt>
<pdfrwt beam="2">0</pdfrwt>
<totfact> 0.35532680E+00</totfact>
</mgrwt>
</event>
<event>
 6    1  0.1959824E-002  0.6367764E+03  0.7818608E-02  0.9831914E-01
          1   -1    0    0  502    0  0.00000000000E+00  0.00000000000E+00  0.11249229781E+03  0.11249229781E+03  0.00000000000E+00 0.  1.
         13   -1    0    0    0    0 -0.00000000000E+00 -0.00000000000E+00 -0.10000000000E+04  0.10000000000E+04  0.00000000000E+00 0.  1.
    9000005    2    1    2  501    0 -0.16089042394E+00 -0.25251977652E-01 -0.89862830625E+03  0.11013705013E+04  0.63677635146E+03 0.  0.
         13    1    3    3    0    0  0.17304913479E+03  0.25116691349E+03 -0.29160686513E+03  0.42197794406E+03  0.00000000000E+00 0.  1.
          3    1    3    3  501    0 -0.17321002521E+03 -0.25119216547E+03 -0.60702144112E+03  0.67939255722E+03  0.00000000000E+00 0.  1.
         21    1    1    2  502  501  0.16089042394E+00  0.25251977652E-01  0.11120604055E+02  0.11121796525E+02  0.00000000000E+00 0.  1.
<mgrwt>
<rscale>  1 0.63677637E+03</rscale>
<asrwt>0</asrwt>
<pdfrwt beam="1">  1        1 0.40906376E+00 0.63677637E+03</pdfrwt>
<pdfrwt beam="2">0</pdfrwt>
<totfact> 0.12218989E+00</totfact>
</mgrwt>
</event>
<event>
 6    1  0.1959824E-002  0.6427362E+03  0.7818608E-02  0.9820505E-01
          1   -1    0    0  502    0  0.00000000000E+00  0.00000000000E+00  0.10327797834E+03  0.10327797834E+03  0.00000000000E+00 0.  1.
         13   -1    0    0    0    0 -0.00000000000E+00 -0.00000000000E+00 -0.10000000000E+04  0.10000000000E+04  0.00000000000E+00 0.  1.
    9000005    2    1    2  501    0  0.48448544419E-04  0.77130592331E-05 -0.89672252699E+03  0.11032774706E+04  0.64273624980E+03 0.  0.
         13    1    3    3    0    0  0.36857388159E+02  0.31747862106E+03 -0.50596963929E+03  0.59846170953E+03  0.00000000000E+00 0.  1.
          1    1    3    3  501    0 -0.36857339711E+02 -0.31747861334E+03 -0.39075288769E+03  0.50481576111E+03  0.00000000000E+00 0.  1.
         21    1    1    2  502  501 -0.48448544420E-04 -0.77130591907E-05  0.50533036930E-03  0.50770615013E-03  0.00000000000E+00 0. -1.
<mgrwt>
<rscale>  1 0.64273625E+03</rscale>
<asrwt>0</asrwt>
<pdfrwt beam="1">  1        1 0.37555708E+00 0.64273625E+03</pdfrwt>
<pdfrwt beam="2">0</pdfrwt>
<totfact> 0.17189483E+00</totfact>
</mgrwt>
</event>
<event>
 6    1  0.1959824E-002  0.4875797E+03  0.7818608E-02  0.1017073E+00
          1   -1    0    0  502    0  0.00000000000E+00  0.00000000000E+00  0.59435622179E+02  0.59435622179E+02  0.00000000000E+00 0.  1.
         13   -1    0    0    0    0 -0.00000000000E+00 -0.00000000000E+00 -0.10000000000E+04  0.10000000000E+04  0.00000000000E+00 0.  1.
    9000005    2    1    2  501    0  0.48638758525E-03 -0.47010125728E-03 -0.94056644836E+03  0.10594334439E+04  0.48757971490E+03 0.  0.
         13    1    3    3    0    0  0.93228739517E+02 -0.23657987738E+02 -0.95703027156E+03  0.96185146407E+03  0.00000000000E+00 0.  1.
          1    1    3    3  501    0 -0.93228253129E+02  0.23657517637E+02  0.16463823201E+02  0.97581979877E+02  0.00000000000E+00 0.  1.
         21    1    1    2  502  501 -0.48638758526E-03  0.47010125728E-03  0.20705365873E-02  0.21782308956E-02  0.00000000000E+00 0.  1.
<mgrwt>
<rscale>  1 0.48757971E+03</rscale>
<asrwt>0</asrwt>
<pdfrwt beam="1">  1        1 0.21612999E+00 0.48757971E+03</pdfrwt>
<pdfrwt beam="2">0</pdfrwt>
<totfact> 0.87179818E+00</totfact>
</mgrwt>
</event>
<event>
 6    1  0.1959824E-002  0.6623879E+03  0.7818608E-02  0.9783808E-01
          1   -1    0    0  502    0  0.00000000000E+00  0.00000000000E+00  0.10968944141E+03  0.10968944141E+03  0.00000000000E+00 0.  1.
         13   -1    0    0    0    0 -0.00000000000E+00 -0.00000000000E+00 -0.10000000000E+04  0.10000000000E+04  0.00000000000E+00 0.  1.
    9000005    2    1    2  501    0 -0.80638367876E-05 -0.13000868648E-04 -0.89031055805E+03  0.11096894261E+04  0.66238790194E+03 0.  0.
         13    1    3    3    0    0  0.28275697045E+03 -0.12074272699E+03 -0.23889002168E+03  0.38935684522E+03  0.00000000000E+00 0.  1.
          1    1    3    3  501    0 -0.28275697851E+03  0.12074271399E+03 -0.65142053637E+03  0.72033258089E+03  0.00000000000E+00 0.  1.
         21    1    1    2  502  501  0.80638367822E-05  0.13000868643E-04 -0.53783784098E-06  0.15308080176E-04  0.00000000000E+00 0.  1.
<mgrwt>
<rscale>  1 0.66238790E+03</rscale>
<asrwt>0</asrwt>
<pdfrwt beam="1">  1        1 0.39887154E+00 0.66238790E+03</pdfrwt>
<pdfrwt beam="2">0</pdfrwt>
<totfact> 0.13502991E+00</totfact>
</mgrwt>
</event>
<event>
 6    1  0.1959824E-002  0.6540137E+03  0.7818608E-02  0.9799277E-01
          1   -1    0    0  502    0  0.00000000000E+00  0.00000000000E+00  0.10938602882E+03  0.10938602882E+03  0.00000000000E+00 0.  1.
         13   -1    0    0    0    0 -0.00000000000E+00 -0.00000000000E+00 -0.10000000000E+04  0.10000000000E+04  0.00000000000E+00 0.  1.
    9000005    2    1    2  501    0 -0.32405178269E+01  0.58684866980E+01 -0.88603251525E+03  0.11012663102E+04  0.65397930228E+03 0.  0.
         13    1    3    3    0    0  0.25936103423E+03 -0.16078140421E+03 -0.62385314002E+03  0.69448653431E+03  0.00000000000E+00 0.  1.
          1    1    3    3  501    0 -0.26260155206E+03  0.16664989091E+03 -0.26217937523E+03  0.40677977590E+03  0.00000000000E+00 0.  1.
         21    1    1    2  502  501  0.32405178269E+01 -0.58684866980E+01 -0.45814559338E+01  0.81197186148E+01  0.00000000000E+00 0. -1.
<mgrwt>
<rscale>  1 0.65401366E+03</rscale>
<asrwt>0</asrwt>
<pdfrwt beam="1">  1        1 0.39776822E+00 0.65401366E+03</pdfrwt>
<pdfrwt beam="2">0</pdfrwt>
<totfact> 0.13678141E+00</totfact>
</mgrwt>
</event>
<event>
 6    1  0.1959824E-002  0.6487058E+03  0.7818608E-02  0.9809211E-01
          1   -1    0    0  502    0  0.00000000000E+00  0.00000000000E+00  0.10955223660E+03  0.10955223660E+03  0.00000000000E+00 0.  1.
         13   -1    0    0    0    0 -0.00000000000E+00 -0.00000000000E+00 -0.10000000000E+04  0.10000000000E+04  0.00000000000E+00 0.  1.
    9000005    2    1    2  501    0 -0.16092493280E+01 -0.32748076826E+00 -0.89462314677E+03  0.11050655058E+04  0.64870370775E+03 0.  0.
         13    1    3    3    0    0  0.31234353325E+03  0.55957197331E+02 -0.33855116917E+03  0.46401140594E+03  0.00000000000E+00 0.  1.
          3    1    3    3  501    0 -0.31395278258E+03 -0.56284678099E+02 -0.55607197759E+03  0.64105409985E+03  0.00000000000E+00 0.  1.
         21    1    1    2  502  501  0.16092493280E+01  0.32748076826E+00  0.41753833671E+01  0.44867308049E+01  0.00000000000E+00 0. -1.
<mgrwt>
<rscale>  1 0.64870579E+03</rscale>
<asrwt>0</asrwt>
<pdfrwt beam="1">  1        1 0.39837261E+00 0.64870579E+03</pdfrwt>
<pdfrwt beam="2">0</pdfrwt>
<totfact> 0.13607304E+00</totfact>
</mgrwt>
</event>
<event>
 6    1  0.1959824E-002  0.6571110E+03  0.7818608E-02  0.9793527E-01
          1   -1    0    0  502    0  0.00000000000E+00  0.00000000000E+00  0.10794928400E+03  0.10794928400E+03  0.00000000000E+00 0.  1.
         13   -1    0    0    0    0 -0.00000000000E+00 -0.00000000000E+00 -0.10000000000E+04  0.10000000000E+04  0.00000000000E+00 0.  1.
    9000005    2    1    2  501    0 -0.52040525659E-04 -0.33947689076E-04 -0.89205129120E+03  0.11079487055E+04  0.65711097068E+03 0.  0.
         13    1    3    3    0    0 -0.58891333153E+02  0.62824851105E+02  0.88583592200E+02  0.12354029239E+03  0.00000000000E+00 0.  1.
          1    1    3    3  501    0  0.58891281112E+02 -0.62824885052E+02 -0.98063488340E+03  0.98440841306E+03  0.00000000000E+00 0.  1.
         21    1    1    2  502  501  0.52040525663E-04  0.33947689077E-04  0.57519437133E-03  0.57854060075E-03  0.00000000000E+00 0. -1.
<mgrwt>
<rscale>  1 0.65711097E+03</rscale>
<asrwt>0</asrwt>
<pdfrwt beam="1">  1        1 0.39254368E+00 0.65711097E+03</pdfrwt>
<pdfrwt beam="2">0</pdfrwt>
<totfact> 0.14421390E+00</totfact>
</mgrwt>
</event>
<event>
 6    1  0.1959824E-002  0.6408339E+03  0.7818608E-02  0.9824132E-01
          1   -1    0    0  502    0  0.00000000000E+00  0.00000000000E+00  0.10346480722E+03  0.10346480722E+03  0.00000000000E+00 0.  1.
         13   -1    0    0    0    0 -0.00000000000E+00 -0.00000000000E+00 -0.10000000000E+04  0.10000000000E+04  0.00000000000E+00 0.  1.
    9000005    2    1    2  501    0  0.13402131452E+00  0.19644207002E-01 -0.89732663155E+03  0.11026618608E+04  0.64083389208E+03 0.  0.
         13    1    3    3    0    0 -0.31972491421E+03 -0.19756443839E+02 -0.44328119383E+03  0.54691183444E+03  0.00000000000E+00 0.  1.
          3    1    3    3  501    0  0.31985893553E+03  0.19776088046E+02 -0.45404543772E+03  0.55575002637E+03  0.00000000000E+00 0.  1.
         21    1    1    2  502  501 -0.13402131452E+00 -0.19644207002E-01  0.79143877120E+00  0.80294640928E+00  0.00000000000E+00 0. -1.
<mgrwt>
<rscale>  1 0.64083391E+03</rscale>
<asrwt>0</asrwt>
<pdfrwt beam="1">  1        1 0.37623646E+00 0.64083391E+03</pdfrwt>
<pdfrwt beam="2">0</pdfrwt>
<totfact> 0.17077439E+00</totfact>
</mgrwt>
</event>
<event>
 6    1  0.1959824E-002  0.6605469E+03  0.7818608E-02  0.9787187E-01
          3   -1    0    0  502    0  0.00000000000E+00  0.00000000000E+00  0.10913681554E+03  0.10913681554E+03  0.00000000000E+00 0.  1.
         13   -1    0    0    0    0 -0.00000000000E+00 -0.00000000000E+00 -0.10000000000E+04  0.10000000000E+04  0.00000000000E+00 0.  1.
    9000005    2    1    2  501    0  0.39100994986E-02  0.15301503389E-01 -0.89091821306E+03  0.11090795655E+04  0.66054690971E+03 0.  0.
         13    1    3    3    0    0  0.30058640007E+03 -0.62407352651E+02 -0.64995654303E+03  0.71881177606E+03  0.00000000000E+00 0.  1.
          3    1    3    3  501    0 -0.30058248997E+03  0.62422654154E+02 -0.24096167002E+03  0.39026778941E+03  0.00000000000E+00 0.  1.
         21    1    1    2  502  501 -0.39100994986E-02 -0.15301503389E-01  0.55028596911E-01  0.57250077398E-01  0.00000000000E+00 0. -1.
<mgrwt>
<rscale>  1 0.66054691E+03</rscale>
<asrwt>0</asrwt>
<pdfrwt beam="1">  1        3 0.39686198E+00 0.66054691E+03</pdfrwt>
<pdfrwt beam="2">0</pdfrwt>
<totfact> 0.61415881E-02</totfact>
</mgrwt>
</event>
<event>
 6    1  0.1959824E-002  0.5730992E+03  0.7818608E-02  0.9962844E-01
          1   -1    0    0  502    0  0.00000000000E+00  0.00000000000E+00  0.83772028503E+02  0.83772028503E+02  0.00000000000E+00 0.  1.
         13   -1    0    0    0    0 -0.00000000000E+00 -0.00000000000E+00 -0.10000000000E+04  0.10000000000E+04  0.00000000000E+00 0.  1.
    9000005    2    1    2  501    0  0.47630104300E+00  0.55250296784E+00 -0.91780234628E+03  0.10820368691E+04  0.57309868881E+03 0.  0.
         13    1    3    3    0    0  0.20147990381E+03 -0.10274313669E+03 -0.79143076979E+03  0.82311175860E+03  0.00000000000E+00 0.  1.
          3    1    3    3  501    0 -0.20100360277E+03  0.10329563966E+03 -0.12637157649E+03  0.25892511049E+03  0.00000000000E+00 0.  1.
         21    1    1    2  502  501 -0.47630104300E+00 -0.55250296784E+00  0.15743747849E+01  0.17351594095E+01  0.00000000000E+00 0. -1.
<mgrwt>
<rscale>  1 0.57309915E+03</rscale>
<asrwt>0</asrwt>
<pdfrwt beam="1">  1        1 0.30462620E+00 0.57309915E+03</pdfrwt>
<pdfrwt beam="2">0</pdfrwt>
<totfact> 0.35409562E+00</totfact>
</mgrwt>
</event>
<event>
 6    1  0.1959824E-002  0.6313449E+03  0.7818608E-02  0.9842428E-01
          1   -1    0    0  502    0  0.00000000000E+00  0.00000000000E+00  0.99715870505E+02  0.99715870505E+02  0.00000000000E+00 0.  1.
         13   -1    0    0    0    0 -0.00000000000E+00 -0.00000000000E+00 -0.10000000000E+04  0.10000000000E+04  0.00000000000E+00 0.  1.
    9000005    2    1    2  501    0 -0.13300782067E-01  0.46920685972E-02 -0.90035007624E+03  0.10996484324E+04  0.63134492542E+03 0.  0.
         13    1    3    3    0    0 -0.27593641739E+03  0.76237577080E+02 -0.21845827880E+03  0.36010705933E+03  0.00000000000E+00 0.  1.
          1    1    3    3  501    0  0.27592311661E+03 -0.76232885011E+02 -0.68189179745E+03  0.73954137306E+03  0.00000000000E+00 0.  1.
         21    1    1    2  502  501  0.13300782067E-01 -0.46920685972E-02  0.65946749585E-01  0.67438120467E-01  0.00000000000E+00 0.  1.
<mgrwt>
<rscale>  1 0.63134493E+03</rscale>
<asrwt>0</asrwt>
<pdfrwt beam="1">  1        1 0.36260393E+00 0.63134493E+03</pdfrwt>
<pdfrwt beam="2">0</pdfrwt>
<totfact> 0.19634961E+00</totfact>
</mgrwt>
</event>
<event>
 6    1  0.1959824E-002  0.6434101E+03  0.7818608E-02  0.9819224E-01
          1   -1    0    0  502    0  0.00000000000E+00  0.00000000000E+00  0.12273314885E+03  0.12273314885E+03  0.00000000000E+00 0.  1.
         13   -1    0    0    0    0 -0.00000000000E+00 -0.00000000000E+00 -0.10000000000E+04  0.10000000000E+04  0.00000000000E+00 0.  1.
    9000005    2    1    2  501    0  0.35172477041E+01  0.40502385414E+02 -0.74509807632E+03  0.98445300098E+03  0.64212440659E+03 0.  0.
         13    1    3    3    0    0  0.12117013761E+03  0.45337175875E+02 -0.82953049585E+03  0.83955851810E+03  0.00000000000E+00 0.  1.
          1    1    3    3  501    0 -0.11765288991E+03 -0.48347904611E+01  0.84432419528E+02  0.14489448288E+03  0.00000000000E+00 0.  1.
         21    1    1    2  502  501 -0.35172477041E+01 -0.40502385414E+02 -0.13216877483E+03  0.13828014787E+03  0.00000000000E+00 0. -1.
<mgrwt>
<rscale>  1 0.64341011E+03</rscale>
<asrwt>0</asrwt>
<pdfrwt beam="1">  1        1 0.44630330E+00 0.64341011E+03</pdfrwt>
<pdfrwt beam="2">0</pdfrwt>
<totfact> 0.82732637E-01</totfact>
</mgrwt>
</event>
<event>
 6    1  0.1959824E-002  0.6607750E+03  0.7818608E-02  0.9786768E-01
          1   -1    0    0  502    0  0.00000000000E+00  0.00000000000E+00  0.10976994757E+03  0.10976994757E+03  0.00000000000E+00 0.  1.
         13   -1    0    0    0    0 -0.00000000000E+00 -0.00000000000E+00 -0.10000000000E+04  0.10000000000E+04  0.00000000000E+00 0.  1.
    9000005    2    1    2  501    0 -0.17375230893E+00  0.79070668703E-01 -0.89082758745E+03  0.11091426596E+04  0.66077500893E+03 0.  0.
         13    1    3    3    0    0  0.21777960475E+03  0.21108093261E+03 -0.22554085294E+03  0.37795739535E+03  0.00000000000E+00 0.  1.
          3    1    3    3  501    0 -0.21795335706E+03 -0.21100186195E+03 -0.66528673451E+03  0.73118526429E+03  0.00000000000E+00 0.  1.
         21    1    1    2  502  501  0.17375230893E+00 -0.79070668703E-01  0.59753502863E+00  0.62728792906E+00  0.00000000000E+00 0. -1.
<mgrwt>
<rscale>  1 0.66077504E+03</rscale>
<asrwt>0</asrwt>
<pdfrwt beam="1">  1        1 0.39916429E+00 0.66077504E+03</pdfrwt>
<pdfrwt beam="2">0</pdfrwt>
<totfact> 0.13466547E+00</totfact>
</mgrwt>
</event>
