<event>
 6    1  0.5260809E-006  0.3000000E+03  0.7818608E-02  0.1093470E+00
          1   -1    0    0  502    0  0.00000000000E+00  0.00000000000E+00  0.74641699993E+02  0.74641699993E+02  0.00000000000E+00 0.  1.
         13   -1    0    0    0    0 -0.00000000000E+00 -0.00000000000E+00 -0.10000000000E+04  0.10000000000E+04  0.00000000000E+00 0.  1.
    9000005    2    1    2  501    0  0.14533421364E+00 -0.14870708443E+02 -0.91780778539E+03  0.10579632899E+04  0.52601714116E+03 0.  0.
         13    1    3    3    0    0  0.23584087874E+03  0.32958777183E+02 -0.67686120246E+03  0.71752929451E+03  0.00000000000E+00 0.  1.
          3    1    3    3  501    0 -0.23569554453E+03 -0.47829485626E+02 -0.24094658293E+03  0.34043399541E+03  0.00000000000E+00 0.  1.
         21    1    1    2  502  501 -0.14533421364E+00  0.14870708443E+02 -0.75505146154E+01  0.16678410074E+02  0.00000000000E+00 0.  1.
<mgrwt>
<rscale>  1 0.30000000E+03</rscale>
<asrwt>0</asrwt>
<pdfrwt beam="1">  1        1 0.27142494E+00 0.30000000E+03</pdfrwt>
<pdfrwt beam="2">0</pdfrwt>
<totfact> 0.47348438E+00</totfact>
</mgrwt>
</event>
<event>
 6    1  0.5260809E-006  0.3000000E+03  0.7818608E-02  0.1093470E+00
          1   -1    0    0  502    0  0.00000000000E+00  0.00000000000E+00  0.12687597041E+03  0.12687597041E+03  0.00000000000E+00 0.  1.
         13   -1    0    0    0    0 -0.00000000000E+00 -0.00000000000E+00 -0.10000000000E+04  0.10000000000E+04  0.00000000000E+00 0.  1.
    9000005    2    1    2  501    0 -0.98021011709E+01 -0.59482964152E+02 -0.77715760018E+03  0.10135452165E+04  0.64781607430E+03 0.  0.
         13    1    3    3    0    0  0.26414328674E+03 -0.14793639182E+03 -0.60914468019E+03  0.68023091179E+03  0.00000000000E+00 0.  1.
          1    1    3    3  501    0 -0.27394538791E+03  0.88453427670E+02 -0.16801291999E+03  0.33331430469E+03  0.00000000000E+00 0.  1.
         21    1    1    2  502  501  0.98021011709E+01  0.59482964152E+02 -0.95966429412E+02  0.11333075393E+03  0.00000000000E+00 0. -1.
<mgrwt>
<rscale>  1 0.30000000E+03</rscale>
<asrwt>0</asrwt>
<pdfrwt beam="1">  1        1 0.46136814E+00 0.30000000E+03</pdfrwt>
<pdfrwt beam="2">0</pdfrwt>
<totfact> 0.43137607E-01</totfact>
</mgrwt>
</event>
<event>
 6    1  0.5260809E-006  0.3000000E+03  0.7818608E-02  0.1093470E+00
          1   -1    0    0  502    0  0.00000000000E+00  0.00000000000E+00  0.10383862304E+03  0.10383862304E+03  0.00000000000E+00 0.  1.
         13   -1    0    0    0    0 -0.00000000000E+00 -0.00000000000E+00 -0.10000000000E+04  0.10000000000E+04  0.00000000000E+00 0.  1.
    9000005    2    1    2  501    0  0.59565889020E+01 -0.10713937414E+02 -0.87941819871E+03  0.10830876369E+04  0.63210140932E+03 0.  0.
         13    1    3    3    0    0  0.70419044159E+02 -0.22987545121E+03 -0.80910118621E+03  0.84406533774E+03  0.00000000000E+00 0.  1.
          3    1    3    3  501    0 -0.64462455257E+02  0.21916151380E+03 -0.70317012503E+02  0.23902229920E+03  0.00000000000E+00 0.  1.
         21    1    1    2  502  501 -0.59565889020E+01  0.10713937414E+02 -0.16743178249E+02  0.20750986100E+02  0.00000000000E+00 0.  1.
<mgrwt>
<rscale>  1 0.30000000E+03</rscale>
<asrwt>0</asrwt>
<pdfrwt beam="1">  1        1 0.37759579E+00 0.30000000E+03</pdfrwt>
<pdfrwt beam="2">0</pdfrwt>
<totfact> 0.14042321E+00</totfact>
</mgrwt>
</event>
<event>
 6    1  0.5260809E-006  0.3000000E+03  0.7818608E-02  0.1093470E+00
          1   -1    0    0  502    0  0.00000000000E+00  0.00000000000E+00  0.18887839768E+03  0.18887839768E+03  0.00000000000E+00 0.  1.
         13   -1    0    0    0    0 -0.00000000000E+00 -0.00000000000E+00 -0.10000000000E+04  0.10000000000E+04  0.00000000000E+00 0.  1.
    9000005    2    1    2  501    0 -0.17108386482E+03  0.77158899627E+01 -0.75298897629E+03  0.10080231352E+04  0.64791127394E+03 0.  0.
         13    1    3    3    0    0 -0.93241727604E+02 -0.24966276917E+03 -0.67856074266E+03  0.72902002685E+03  0.00000000000E+00 0.  1.
          3    1    3    3  501    0 -0.77842137220E+02  0.25737865913E+03 -0.74428233633E+02  0.27900310834E+03  0.00000000000E+00 0.  1.
         21    1    1    2  502  501  0.17108386482E+03 -0.77158899627E+01 -0.58132626033E+02  0.18085526249E+03  0.00000000000E+00 0.  1.
<mgrwt>
<rscale>  1 0.30000000E+03</rscale>
<asrwt>0</asrwt>
<pdfrwt beam="1">  1        1 0.68683199E+00 0.30000000E+03</pdfrwt>
<pdfrwt beam="2">0</pdfrwt>
<totfact> 0.28115494E-02</totfact>
</mgrwt>
</event>
<event>
 6    1  0.5260809E-006  0.3000000E+03  0.7818608E-02  0.1093470E+00
          1   -1    0    0  502    0  0.00000000000E+00  0.00000000000E+00  0.11088558181E+03  0.11088558181E+03  0.00000000000E+00 0.  1.
         13   -1    0    0    0    0 -0.00000000000E+00 -0.00000000000E+00 -0.10000000000E+04  0.10000000000E+04  0.00000000000E+00 0.  1.
    9000005    2    1    2  501    0 -0.80574420063E+00  0.99487526277E+01 -0.86269422453E+03  0.10826428210E+04  0.65404474312E+03 0.  0.
         13    1    3    3    0    0 -0.11119731986E+03  0.30212014273E+03 -0.56983739562E+03  0.65448917641E+03  0.00000000000E+00 0.  1.
          1    1    3    3  501    0  0.11039157566E+03 -0.29217139010E+03 -0.29285682890E+03  0.42815364463E+03  0.00000000000E+00 0.  1.
         21    1    1    2  502  501  0.80574420063E+00 -0.99487526277E+01 -0.26420193666E+02  0.28242760770E+02  0.00000000000E+00 0. -1.
<mgrwt>
<rscale>  1 0.30000000E+03</rscale>
<asrwt>0</asrwt>
<pdfrwt beam="1">  1        1 0.40322115E+00 0.30000000E+03</pdfrwt>
<pdfrwt beam="2">0</pdfrwt>
<totfact> 0.10093216E+00</totfact>
</mgrwt>
</event>
<event>
 6    1  0.5260809E-006  0.3000000E+03  0.7818608E-02  0.1093470E+00
          1   -1    0    0  502    0  0.00000000000E+00  0.00000000000E+00  0.15216776532E+03  0.15216776532E+03  0.00000000000E+00 0.  1.
         13   -1    0    0    0    0 -0.00000000000E+00 -0.00000000000E+00 -0.10000000000E+04  0.10000000000E+04  0.00000000000E+00 0.  1.
    9000005    2    1    2  501    0 -0.24354807384E+01 -0.41982240595E+02 -0.88761487419E+03  0.10942790920E+04  0.63860639383E+03 0.  0.
         13    1    3    3    0    0  0.28402727145E+02  0.72707698868E+02 -0.95469492058E+03  0.95788074193E+03  0.00000000000E+00 0.  1.
          3    1    3    3  501    0 -0.30838207884E+02 -0.11468993946E+03  0.67080046392E+02  0.13639835008E+03  0.00000000000E+00 0.  1.
         21    1    1    2  502  501  0.24354807384E+01  0.41982240595E+02  0.39782639512E+02  0.57888673316E+02  0.00000000000E+00 0.  1.
<mgrwt>
<rscale>  1 0.30000000E+03</rscale>
<asrwt>0</asrwt>
<pdfrwt beam="1">  1        1 0.55333850E+00 0.30000000E+03</pdfrwt>
<pdfrwt beam="2">0</pdfrwt>
<totfact> 0.93925866E-02</totfact>
</mgrwt>
</event>
<event>
 6    1  0.5260809E-006  0.3000000E+03  0.7818608E-02  0.1093470E+00
          1   -1    0    0  502    0  0.00000000000E+00  0.00000000000E+00  0.85575852895E+02  0.85575852895E+02  0.00000000000E+00 0.  1.
         13   -1    0    0    0    0 -0.00000000000E+00 -0.00000000000E+00 -0.10000000000E+04  0.10000000000E+04  0.00000000000E+00 0.  1.
    9000005    2    1    2  501    0 -0.83462584318E+01  0.75650644676E+01 -0.89403927510E+03  0.10622856567E+04  0.57360064581E+03 0.  0.
         13    1    3    3    0    0  0.18908988939E+03  0.19402431457E+03 -0.61937246608E+03  0.67603452031E+03  0.00000000000E+00 0.  1.
          3    1    3    3  501    0 -0.19743614782E+03 -0.18645925010E+03 -0.27466680902E+03  0.38625113643E+03  0.00000000000E+00 0.  1.
         21    1    1    2  502  501  0.83462584318E+01 -0.75650644676E+01 -0.20384872007E+02  0.23290196155E+02  0.00000000000E+00 0. -1.
<mgrwt>
<rscale>  1 0.30000000E+03</rscale>
<asrwt>0</asrwt>
<pdfrwt beam="1">  1        1 0.31118558E+00 0.30000000E+03</pdfrwt>
<pdfrwt beam="2">0</pdfrwt>
<totfact> 0.30722421E+00</totfact>
</mgrwt>
</event>
<event>
 6    1  0.5260809E-006  0.3000000E+03  0.7818608E-02  0.1093470E+00
          1   -1    0    0  502    0  0.00000000000E+00  0.00000000000E+00  0.16322527525E+03  0.16322527525E+03  0.00000000000E+00 0.  1.
         13   -1    0    0    0    0 -0.00000000000E+00 -0.00000000000E+00 -0.10000000000E+04  0.10000000000E+04  0.00000000000E+00 0.  1.
    9000005    2    1    2  501    0  0.69642413723E+01  0.17313917285E+02 -0.89442148289E+03  0.11026330223E+04  0.64456304618E+03 0.  0.
         13    1    3    3    0    0 -0.11424363696E+03  0.14904446035E+03 -0.90406615518E+03  0.92336421454E+03  0.00000000000E+00 0.  1.
          3    1    3    3  501    0  0.12120787833E+03 -0.13173054306E+03  0.96446722901E+01  0.17926880780E+03  0.00000000000E+00 0.  1.
         21    1    1    2  502  501 -0.69642413723E+01 -0.17313917285E+02  0.57646758136E+02  0.60592252915E+02  0.00000000000E+00 0. -1.
<mgrwt>
<rscale>  1 0.30000000E+03</rscale>
<asrwt>0</asrwt>
<pdfrwt beam="1">  1        1 0.59354771E+00 0.30000000E+03</pdfrwt>
<pdfrwt beam="2">0</pdfrwt>
<totfact> 0.62898797E-02</totfact>
</mgrwt>
</event>
<event>
 6    1  0.5260809E-006  0.3000000E+03  0.7818608E-02  0.1093470E+00
          1   -1    0    0  502    0  0.00000000000E+00  0.00000000000E+00  0.12521057893E+03  0.12521057893E+03  0.00000000000E+00 0.  1.
         13   -1    0    0    0    0 -0.00000000000E+00 -0.00000000000E+00 -0.10000000000E+04  0.10000000000E+04  0.00000000000E+00 0.  1.
    9000005    2    1    2  501    0 -0.10714168575E+02 -0.15395627384E+02 -0.88917352820E+03  0.11015732929E+04  0.64998641349E+03 0.  0.
         13    1    3    3    0    0 -0.11696850898E+03  0.85455389484E+02 -0.93648890433E+03  0.94762636288E+03  0.00000000000E+00 0.  1.
          1    1    3    3  501    0  0.10625434041E+03 -0.10085101687E+03  0.47315376127E+02  0.15394693007E+03  0.00000000000E+00 0.  1.
         21    1    1    2  502  501  0.10714168575E+02  0.15395627384E+02  0.14384107129E+02  0.23637285984E+02  0.00000000000E+00 0.  1.
<mgrwt>
<rscale>  1 0.30000000E+03</rscale>
<asrwt>0</asrwt>
<pdfrwt beam="1">  1        1 0.45531216E+00 0.30000000E+03</pdfrwt>
<pdfrwt beam="2">0</pdfrwt>
<totfact> 0.47394911E-01</totfact>
</mgrwt>
</event>
<event>
 6    1  0.5260809E-006  0.3000000E+03  0.7818608E-02  0.1093470E+00
          1   -1    0    0  502    0  0.00000000000E+00  0.00000000000E+00  0.11885479319E+03  0.11885479319E+03  0.00000000000E+00 0.  1.
         13   -1    0    0    0    0 -0.00000000000E+00 -0.00000000000E+00 -0.10000000000E+04  0.10000000000E+04  0.00000000000E+00 0.  1.
    9000005    2    1    2  501    0 -0.70598620550E+01 -0.88717630157E+01 -0.89036795315E+03  0.11042394286E+04  0.65303987162E+03 0.  0.
         13    1    3    3    0    0  0.28664004578E+03  0.75807842765E+02 -0.22559838506E+03  0.37256405652E+03  0.00000000000E+00 0.  1.
          3    1    3    3  501    0 -0.29369990784E+03 -0.84679605781E+02 -0.66476956808E+03  0.73167537211E+03  0.00000000000E+00 0.  1.
         21    1    1    2  502  501  0.70598620550E+01  0.88717630157E+01  0.92227463413E+01  0.14615364563E+02  0.00000000000E+00 0.  1.
<mgrwt>
<rscale>  1 0.30000000E+03</rscale>
<asrwt>0</asrwt>
<pdfrwt beam="1">  1        1 0.43220016E+00 0.30000000E+03</pdfrwt>
<pdfrwt beam="2">0</pdfrwt>
<totfact> 0.67273406E-01</totfact>
</mgrwt>
</event>
<event>
 6    1  0.5260809E-006  0.3000000E+03  0.7818608E-02  0.1093470E+00
          1   -1    0    0  502    0  0.00000000000E+00  0.00000000000E+00  0.11173302944E+03  0.11173302944E+03  0.00000000000E+00 0.  1.
         13   -1    0    0    0    0 -0.00000000000E+00 -0.00000000000E+00 -0.10000000000E+04  0.10000000000E+04  0.00000000000E+00 0.  1.
    9000005    2    1    2  501    0 -0.16018677442E+02 -0.15203020969E+01 -0.85875867981E+03  0.10781227845E+04  0.65163130593E+03 0.  0.
         13    1    3    3    0    0 -0.18542600678E+03  0.25635307315E+03 -0.58759445134E+03  0.66735818070E+03  0.00000000000E+00 0.  1.
          3    1    3    3  501    0  0.16940732933E+03 -0.25787337525E+03 -0.27116422847E+03  0.41076460375E+03  0.00000000000E+00 0.  1.
         21    1    1    2  502  501  0.16018677442E+02  0.15203020969E+01 -0.29508290748E+02  0.33610244991E+02  0.00000000000E+00 0. -1.
<mgrwt>
<rscale>  1 0.30000000E+03</rscale>
<asrwt>0</asrwt>
<pdfrwt beam="1">  1        1 0.40630278E+00 0.30000000E+03</pdfrwt>
<pdfrwt beam="2">0</pdfrwt>
<totfact> 0.96859727E-01</totfact>
</mgrwt>
</event>
<event>
 6    1  0.5260809E-006  0.3000000E+03  0.7818608E-02  0.1093470E+00
          1   -1    0    0  502    0  0.00000000000E+00  0.00000000000E+00  0.12566643475E+03  0.12566643475E+03  0.00000000000E+00 0.  1.
         13   -1    0    0    0    0 -0.00000000000E+00 -0.00000000000E+00 -0.10000000000E+04  0.10000000000E+04  0.00000000000E+00 0.  1.
    9000005    2    1    2  501    0  0.82955289426E+01  0.91251147350E+01 -0.89148989139E+03  0.11045377091E+04  0.65199481665E+03 0.  0.
         13    1    3    3    0    0 -0.14798893402E+02 -0.74406728623E+02 -0.97867217600E+03  0.98160816856E+03  0.00000000000E+00 0.  1.
          1    1    3    3  501    0  0.23094422344E+02  0.83531843358E+02  0.87182284605E+02  0.12292954058E+03  0.00000000000E+00 0.  1.
         21    1    1    2  502  501 -0.82955289426E+01 -0.91251147350E+01  0.17156326142E+02  0.21128725614E+02  0.00000000000E+00 0. -1.
<mgrwt>
<rscale>  1 0.30000000E+03</rscale>
<asrwt>0</asrwt>
<pdfrwt beam="1">  1        1 0.45696982E+00 0.30000000E+03</pdfrwt>
<pdfrwt beam="2">0</pdfrwt>
<totfact> 0.46193688E-01</totfact>
</mgrwt>
</event>
<event>
 6    1  0.5260809E-006  0.3000000E+03  0.7818608E-02  0.1093470E+00
          1   -1    0    0  502    0  0.00000000000E+00  0.00000000000E+00  0.11035034496E+03  0.11035034496E+03  0.00000000000E+00 0.  1.
         13   -1    0    0    0    0 -0.00000000000E+00 -0.00000000000E+00 -0.10000000000E+04  0.10000000000E+04  0.00000000000E+00 0.  1.
    9000005    2    1    2  501    0 -0.11882567551E+02  0.30706506501E+01 -0.89443365642E+03  0.10971779884E+04  0.63532460073E+03 0.  0.
         13    1    3    3    0    0  0.20855601365E+03 -0.20787846667E+03 -0.25846938504E+03  0.39181052914E+03  0.00000000000E+00 0.  1.
          3    1    3    3  501    0 -0.22043858120E+03  0.21094911732E+03 -0.63596427138E+03  0.70536745931E+03  0.00000000000E+00 0.  1.
         21    1    1    2  502  501  0.11882567551E+02 -0.30706506501E+01  0.47840013793E+01  0.13172356518E+02  0.00000000000E+00 0. -1.
<mgrwt>
<rscale>  1 0.30000000E+03</rscale>
<asrwt>0</asrwt>
<pdfrwt beam="1">  1        1 0.40127483E+00 0.30000000E+03</pdfrwt>
<pdfrwt beam="2">0</pdfrwt>
<totfact> 0.10356555E+00</totfact>
</mgrwt>
</event>
<event>
 6    1  0.5260809E-006  0.3000000E+03  0.7818608E-02  0.1093470E+00
          1   -1    0    0  502    0  0.00000000000E+00  0.00000000000E+00  0.14956763774E+03  0.14956763774E+03  0.00000000000E+00 0.  1.
         13   -1    0    0    0    0 -0.00000000000E+00 -0.00000000000E+00 -0.10000000000E+04  0.10000000000E+04  0.00000000000E+00 0.  1.
    9000005    2    1    2  501    0 -0.13679344217E+01 -0.19129361928E+02 -0.88670719631E+03  0.11085351224E+04  0.66500576074E+03 0.  0.
         13    1    3    3    0    0 -0.29529165868E+03 -0.16375904182E+03 -0.44384272217E+03  0.55768319813E+03  0.00000000000E+00 0.  1.
          1    1    3    3  501    0  0.29392372425E+03  0.14462967989E+03 -0.44286447414E+03  0.55085192424E+03  0.00000000000E+00 0.  1.
         21    1    1    2  502  501  0.13679344217E+01  0.19129361928E+02  0.36274834050E+02  0.41032515372E+02  0.00000000000E+00 0.  1.
<mgrwt>
<rscale>  1 0.30000000E+03</rscale>
<asrwt>0</asrwt>
<pdfrwt beam="1">  1        1 0.54388347E+00 0.30000000E+03</pdfrwt>
<pdfrwt beam="2">0</pdfrwt>
<totfact> 0.10806070E-01</totfact>
</mgrwt>
</event>
<event>
 6    1  0.5260809E-006  0.3000000E+03  0.7818608E-02  0.1093470E+00
          1   -1    0    0  502    0  0.00000000000E+00  0.00000000000E+00  0.18065189115E+03  0.18065189115E+03  0.00000000000E+00 0.  1.
         13   -1    0    0    0    0 -0.00000000000E+00 -0.00000000000E+00 -0.10000000000E+04  0.10000000000E+04  0.00000000000E+00 0.  1.
    9000005    2    1    2  501    0  0.25141894907E+01 -0.11828988669E+02 -0.89569681649E+03  0.11033513654E+04  0.64417792755E+03 0.  0.
         13    1    3    3    0    0  0.16695114255E+03 -0.25383177641E+03 -0.66376753347E+03  0.72999355696E+03  0.00000000000E+00 0.  1.
          3    1    3    3  501    0 -0.16443695306E+03  0.24200278774E+03 -0.23192928302E+03  0.37335780845E+03  0.00000000000E+00 0.  1.
         21    1    1    2  502  501 -0.25141894907E+01  0.11828988669E+02  0.76348707646E+02  0.77300525748E+02  0.00000000000E+00 0.  1.
<mgrwt>
<rscale>  1 0.30000000E+03</rscale>
<asrwt>0</asrwt>
<pdfrwt beam="1">  1        1 0.65691735E+00 0.30000000E+03</pdfrwt>
<pdfrwt beam="2">0</pdfrwt>
<totfact> 0.33791532E-02</totfact>
</mgrwt>
</event>
<event>
 6    1  0.5260809E-006  0.3000000E+03  0.7818608E-02  0.1093470E+00
          1   -1    0    0  502    0  0.00000000000E+00  0.00000000000E+00  0.12654743664E+03  0.12654743664E+03  0.00000000000E+00 0.  1.
         13   -1    0    0    0    0 -0.00000000000E+00 -0.00000000000E+00 -0.10000000000E+04  0.10000000000E+04  0.00000000000E+00 0.  1.
    9000005    2    1    2  501    0  0.21981653319E+01  0.24827782423E+02 -0.87442493376E+03  0.11016035754E+04  0.66954478698E+03 0.  0.
         13    1    3    3    0    0 -0.16813008396E+03 -0.20703896736E+03 -0.73500356518E+03  0.78189711597E+03  0.00000000000E+00 0.  1.
          3    1    3    3  501    0  0.17032824929E+03  0.23186674979E+03 -0.13942136859E+03  0.31970645940E+03  0.00000000000E+00 0.  1.
         21    1    1    2  502  501 -0.21981653319E+01 -0.24827782423E+02  0.97237040047E+00  0.24943861270E+02  0.00000000000E+00 0.  1.
<mgrwt>
<rscale>  1 0.30000000E+03</rscale>
<asrwt>0</asrwt>
<pdfrwt beam="1">  1        1 0.46017347E+00 0.30000000E+03</pdfrwt>
<pdfrwt beam="2">0</pdfrwt>
<totfact> 0.43950157E-01</totfact>
</mgrwt>
</event>
<event>
 6    1  0.5260809E-006  0.3000000E+03  0.7818608E-02  0.1093470E+00
          1   -1    0    0  502    0  0.00000000000E+00  0.00000000000E+00  0.12257950136E+03  0.12257950136E+03  0.00000000000E+00 0.  1.
         13   -1    0    0    0    0 -0.00000000000E+00 -0.00000000000E+00 -0.10000000000E+04  0.10000000000E+04  0.00000000000E+00 0.  1.
    9000005    2    1    2  501    0 -0.58969042032E+00 -0.17662242843E+02 -0.89103745946E+03  0.11002697685E+04  0.64523910826E+03 0.  0.
         13    1    3    3    0    0 -0.29611449660E+03  0.11942473634E+03 -0.46085539138E+03  0.56065475518E+03  0.00000000000E+00 0.  1.
          1    1    3    3  501    0  0.29552480618E+03 -0.13708697918E+03 -0.43018206808E+03  0.53961501335E+03  0.00000000000E+00 0.  1.
         21    1    1    2  502  501  0.58969042032E+00  0.17662242843E+02  0.13616960822E+02  0.22309732832E+02  0.00000000000E+00 0. -1.
<mgrwt>
<rscale>  1 0.30000000E+03</rscale>
<asrwt>0</asrwt>
<pdfrwt beam="1">  1        1 0.44574458E+00 0.30000000E+03</pdfrwt>
<pdfrwt beam="2">0</pdfrwt>
<totfact> 0.54942189E-01</totfact>
</mgrwt>
</event>
<event>
 6    1  0.5260809E-006  0.3000000E+03  0.7818608E-02  0.1093470E+00
          1   -1    0    0  502    0  0.00000000000E+00  0.00000000000E+00  0.14251243249E+03  0.14251243249E+03  0.00000000000E+00 0.  1.
         13   -1    0    0    0    0 -0.00000000000E+00 -0.00000000000E+00 -0.10000000000E+04  0.10000000000E+04  0.00000000000E+00 0.  1.
    9000005    2    1    2  501    0  0.58204103992E+02 -0.66589034067E+02 -0.83010287919E+03  0.10499287496E+04  0.63675566120E+03 0.  0.
         13    1    3    3    0    0 -0.22133050539E+03  0.71110255865E+02 -0.64930443206E+03  0.68966666340E+03  0.00000000000E+00 0.  1.
          1    1    3    3  501    0  0.27953460938E+03 -0.13769928993E+03 -0.18079844712E+03  0.36026208622E+03  0.00000000000E+00 0.  1.
         21    1    1    2  502  501 -0.58204103992E+02  0.66589034067E+02 -0.27384688321E+02  0.92583682870E+02  0.00000000000E+00 0.  1.
<mgrwt>
<rscale>  1 0.30000000E+03</rscale>
<asrwt>0</asrwt>
<pdfrwt beam="1">  1        1 0.51822812E+00 0.30000000E+03</pdfrwt>
<pdfrwt beam="2">0</pdfrwt>
<totfact> 0.16759811E-01</totfact>
</mgrwt>
</event>
<event>
 6    1  0.5260809E-006  0.3000000E+03  0.7818608E-02  0.1093470E+00
          1   -1    0    0  502    0  0.00000000000E+00  0.00000000000E+00  0.11523630847E+03  0.11523630847E+03  0.00000000000E+00 0.  1.
         13   -1    0    0    0    0 -0.00000000000E+00 -0.00000000000E+00 -0.10000000000E+04  0.10000000000E+04  0.00000000000E+00 0.  1.
    9000005    2    1    2  501    0 -0.72516422787E+01  0.10477785528E+02 -0.88824054838E+03  0.11020280217E+04  0.65217491408E+03 0.  0.
         13    1    3    3    0    0  0.16508846091E+02  0.22587900612E+03 -0.44383711903E+02  0.23078947395E+03  0.00000000000E+00 0.  1.
          3    1    3    3  501    0 -0.23760488370E+02 -0.21540122059E+03 -0.84385683648E+03  0.87123854776E+03  0.00000000000E+00 0.  1.
         21    1    1    2  502  501  0.72516422787E+01 -0.10477785528E+02  0.34768568465E+01  0.13208286749E+02  0.00000000000E+00 0. -1.
<mgrwt>
<rscale>  1 0.30000000E+03</rscale>
<asrwt>0</asrwt>
<pdfrwt beam="1">  1        1 0.41904201E+00 0.30000000E+03</pdfrwt>
<pdfrwt beam="2">0</pdfrwt>
<totfact> 0.81295761E-01</totfact>
</mgrwt>
</event>
<event>
 6    1  0.5260809E-006  0.3000000E+03  0.7818608E-02  0.1093470E+00
          1   -1    0    0  502    0  0.00000000000E+00  0.00000000000E+00  0.12375270637E+03  0.12375270637E+03  0.00000000000E+00 0.  1.
         13   -1    0    0    0    0 -0.00000000000E+00 -0.00000000000E+00 -0.10000000000E+04  0.10000000000E+04  0.00000000000E+00 0.  1.
    9000005    2    1    2  501    0  0.34501407087E+02 -0.49618876976E+01 -0.87606613375E+03  0.10888958528E+04  0.64574556921E+03 0.  0.
         13    1    3    3    0    0  0.19180361059E+03 -0.26796776826E+03 -0.35488497823E+03  0.48429195496E+03  0.00000000000E+00 0.  1.
          3    1    3    3  501    0 -0.15730220351E+03  0.26300588056E+03 -0.52118115553E+03  0.60460389786E+03  0.00000000000E+00 0.  1.
         21    1    1    2  502  501 -0.34501407087E+02  0.49618876976E+01 -0.18115987729E+00  0.34856853550E+02  0.00000000000E+00 0.  1.
<mgrwt>
<rscale>  1 0.30000000E+03</rscale>
<asrwt>0</asrwt>
<pdfrwt beam="1">  1        1 0.45001079E+00 0.30000000E+03</pdfrwt>
<pdfrwt beam="2">0</pdfrwt>
<totfact> 0.51446717E-01</totfact>
</mgrwt>
</event>
<event>
 6    1  0.5260809E-006  0.3000000E+03  0.7818608E-02  0.1093470E+00
          1   -1    0    0  502    0  0.00000000000E+00  0.00000000000E+00  0.12195653131E+03  0.12195653131E+03  0.00000000000E+00 0.  1.
         13   -1    0    0    0    0 -0.00000000000E+00 -0.00000000000E+00 -0.10000000000E+04  0.10000000000E+04  0.00000000000E+00 0.  1.
    9000005    2    1    2  501    0  0.41215349344E+01  0.29004420220E+02 -0.87671831894E+03  0.10926307838E+04  0.65142058272E+03 0.  0.
         13    1    3    3    0    0  0.25996273516E+03  0.16091002123E+03 -0.67538868006E+03  0.74136531329E+03  0.00000000000E+00 0.  1.
          3    1    3    3  501    0 -0.25584120022E+03 -0.13190560101E+03 -0.20132963888E+03  0.35126547055E+03  0.00000000000E+00 0.  1.
         21    1    1    2  502  501 -0.41215349344E+01 -0.29004420220E+02 -0.13251497465E+01  0.29325747465E+02  0.00000000000E+00 0. -1.
<mgrwt>
<rscale>  1 0.30000000E+03</rscale>
<asrwt>0</asrwt>
<pdfrwt beam="1">  1        1 0.44347923E+00 0.30000000E+03</pdfrwt>
<pdfrwt beam="2">0</pdfrwt>
<totfact> 0.56876629E-01</totfact>
</mgrwt>
</event>
<event>
 6    1  0.5260809E-006  0.3000000E+03  0.7818608E-02  0.1093470E+00
          1   -1    0    0  502    0  0.00000000000E+00  0.00000000000E+00  0.13463739397E+03  0.13463739397E+03  0.00000000000E+00 0.  1.
         13   -1    0    0    0    0 -0.00000000000E+00 -0.00000000000E+00 -0.10000000000E+04  0.10000000000E+04  0.00000000000E+00 0.  1.
    9000005    2    1    2  501    0 -0.35937298016E+02  0.30492415805E+02 -0.84140437170E+03  0.10817670450E+04  0.67826052964E+03 0.  0.
         13    1    3    3    0    0  0.14356994164E+03  0.15219908097E+03  0.37164535968E+01  0.20926227663E+03  0.00000000000E+00 0.  1.
          3    1    3    3  501    0 -0.17950723966E+03 -0.12170666517E+03 -0.84512082529E+03  0.87250476834E+03  0.00000000000E+00 0.  1.
         21    1    1    2  502  501  0.35937298016E+02 -0.30492415805E+02 -0.23958234339E+02  0.52870348996E+02  0.00000000000E+00 0.  1.
<mgrwt>
<rscale>  1 0.30000000E+03</rscale>
<asrwt>0</asrwt>
<pdfrwt beam="1">  1        1 0.48959156E+00 0.30000000E+03</pdfrwt>
<pdfrwt beam="2">0</pdfrwt>
<totfact> 0.27220610E-01</totfact>
</mgrwt>
</event>
<event>
 6    1  0.5260809E-006  0.3000000E+03  0.7818608E-02  0.1093470E+00
          1   -1    0    0  502    0  0.00000000000E+00  0.00000000000E+00  0.59192303553E+02  0.59192303553E+02  0.00000000000E+00 0.  1.
         13   -1    0    0    0    0 -0.00000000000E+00 -0.00000000000E+00 -0.10000000000E+04  0.10000000000E+04  0.00000000000E+00 0.  1.
    9000005    2    1    2  501    0  0.49971362330E+01 -0.87918061252E+01 -0.92909086577E+03  0.10437148572E+04  0.47542465122E+03 0.  0.
         13    1    3    3    0    0  0.23812573620E+03  0.16149783591E+02 -0.52100782266E+03  0.57307402055E+03  0.00000000000E+00 0.  1.
          3    1    3    3  501    0 -0.23312859997E+03 -0.24941589716E+02 -0.40808304311E+03  0.47064083662E+03  0.00000000000E+00 0.  1.
         21    1    1    2  502  501 -0.49971362330E+01  0.87918061252E+01 -0.11716830675E+02  0.15477446383E+02  0.00000000000E+00 0.  1.
<mgrwt>
<rscale>  1 0.30000000E+03</rscale>
<asrwt>0</asrwt>
<pdfrwt beam="1">  1        1 0.21524519E+00 0.30000000E+03</pdfrwt>
<pdfrwt beam="2">0</pdfrwt>
<totfact> 0.86778899E+00</totfact>
</mgrwt>
</event>
<event>
 6    1  0.5260809E-006  0.3000000E+03  0.7818608E-02  0.1093470E+00
          1   -1    0    0  502    0  0.00000000000E+00  0.00000000000E+00  0.13306889699E+03  0.13306889699E+03  0.00000000000E+00 0.  1.
         13   -1    0    0    0    0 -0.00000000000E+00 -0.00000000000E+00 -0.10000000000E+04  0.10000000000E+04  0.00000000000E+00 0.  1.
    9000005    2    1    2  501    0  0.16987131647E+01  0.10168489613E+02 -0.88961641463E+03  0.11081508880E+04  0.66066235071E+03 0.  0.
         13    1    3    3    0    0 -0.17437899307E+03  0.25589830462E+03 -0.24047891223E+03  0.39207407815E+03  0.00000000000E+00 0.  1.
          1    1    3    3  501    0  0.17607770623E+03 -0.24572981501E+03 -0.64913750241E+03  0.71607680988E+03  0.00000000000E+00 0.  1.
         21    1    1    2  502  501 -0.16987131647E+01 -0.10168489613E+02  0.22685311623E+02  0.24918008967E+02  0.00000000000E+00 0.  1.
<mgrwt>
<rscale>  1 0.30000000E+03</rscale>
<asrwt>0</asrwt>
<pdfrwt beam="1">  1        1 0.48388792E+00 0.30000000E+03</pdfrwt>
<pdfrwt beam="2">0</pdfrwt>
<totfact> 0.29944917E-01</totfact>
</mgrwt>
</event>
<event>
 6    1  0.5260809E-006  0.3000000E+03  0.7818608E-02  0.1093470E+00
          1   -1    0    0  502    0  0.00000000000E+00  0.00000000000E+00  0.10932436193E+03  0.10932436193E+03  0.00000000000E+00 0.  1.
         13   -1    0    0    0    0 -0.00000000000E+00 -0.00000000000E+00 -0.10000000000E+04  0.10000000000E+04  0.00000000000E+00 0.  1.
    9000005    2    1    2  501    0 -0.12667571759E+01 -0.25121847733E+02 -0.86346529030E+03  0.10722687965E+04  0.63526006674E+03 0.  0.
         13    1    3    3    0    0  0.20656637371E+03  0.20871217177E+03 -0.58000367767E+03  0.65010360982E+03  0.00000000000E+00 0.  1.
          1    1    3    3  501    0 -0.20783313088E+03 -0.23383401951E+03 -0.28346161264E+03  0.42216518664E+03  0.00000000000E+00 0.  1.
         21    1    1    2  502  501  0.12667571759E+01  0.25121847733E+02 -0.27210347762E+02  0.37055565474E+02  0.00000000000E+00 0. -1.
<mgrwt>
<rscale>  1 0.30000000E+03</rscale>
<asrwt>0</asrwt>
<pdfrwt beam="1">  1        1 0.39754397E+00 0.30000000E+03</pdfrwt>
<pdfrwt beam="2">0</pdfrwt>
<totfact> 0.10875573E+00</totfact>
</mgrwt>
</event>
<event>
 6    1  0.5260809E-006  0.3000000E+03  0.7818608E-02  0.1093470E+00
          1   -1    0    0  502    0  0.00000000000E+00  0.00000000000E+00  0.11045468318E+03  0.11045468318E+03  0.00000000000E+00 0.  1.
         13   -1    0    0    0    0 -0.00000000000E+00 -0.00000000000E+00 -0.10000000000E+04  0.10000000000E+04  0.00000000000E+00 0.  1.
    9000005    2    1    2  501    0 -0.21336500628E+02 -0.28859711036E+02 -0.86068777899E+03  0.10644015978E+04  0.62520331044E+03 0.  0.
         13    1    3    3    0    0 -0.18867659952E+03  0.80105975854E+02 -0.83883853805E+03  0.86351949572E+03  0.00000000000E+00 0.  1.
          1    1    3    3  501    0  0.16734009890E+03 -0.10896568689E+03 -0.21849240942E+02  0.20088210211E+03  0.00000000000E+00 0.  1.
         21    1    1    2  502  501  0.21336500628E+02  0.28859711036E+02 -0.28857537834E+02  0.46053085347E+02  0.00000000000E+00 0.  1.
<mgrwt>
<rscale>  1 0.30000000E+03</rscale>
<asrwt>0</asrwt>
<pdfrwt beam="1">  1        1 0.40165424E+00 0.30000000E+03</pdfrwt>
<pdfrwt beam="2">0</pdfrwt>
<totfact> 0.10304841E+00</totfact>
</mgrwt>
</event>
<event>
 6    1  0.5260809E-006  0.3000000E+03  0.7818608E-02  0.1093470E+00
          1   -1    0    0  502    0  0.00000000000E+00  0.00000000000E+00  0.11050928925E+03  0.11050928925E+03  0.00000000000E+00 0.  1.
         13   -1    0    0    0    0 -0.00000000000E+00 -0.00000000000E+00 -0.10000000000E+04  0.10000000000E+04  0.00000000000E+00 0.  1.
    9000005    2    1    2  501    0 -0.12644931257E+00  0.10122390388E+02 -0.89173370987E+03  0.11001405949E+04  0.64421878313E+03 0.  0.
         13    1    3    3    0    0 -0.39273550188E+01 -0.25400920411E+03 -0.11339797989E+03  0.27819993122E+03  0.00000000000E+00 0.  1.
          3    1    3    3  501    0  0.38009057062E+01  0.26413159450E+03 -0.77833572999E+03  0.82194066371E+03  0.00000000000E+00 0.  1.
         21    1    1    2  502  501  0.12644931257E+00 -0.10122390388E+02  0.22429991188E+01  0.10368694308E+02  0.00000000000E+00 0.  1.
<mgrwt>
<rscale>  1 0.30000000E+03</rscale>
<asrwt>0</asrwt>
<pdfrwt beam="1">  1        1 0.40185281E+00 0.30000000E+03</pdfrwt>
<pdfrwt beam="2">0</pdfrwt>
<totfact> 0.10277851E+00</totfact>
</mgrwt>
</event>
<event>
 6    1  0.5260809E-006  0.3000000E+03  0.7818608E-02  0.1093470E+00
          1   -1    0    0  502    0  0.00000000000E+00  0.00000000000E+00  0.13655410854E+03  0.13655410854E+03  0.00000000000E+00 0.  1.
         13   -1    0    0    0    0 -0.00000000000E+00 -0.00000000000E+00 -0.10000000000E+04  0.10000000000E+04  0.00000000000E+00 0.  1.
    9000005    2    1    2  501    0 -0.47979330879E+02  0.77459761576E+02 -0.79407182393E+03  0.10220342758E+04  0.63694738276E+03 0.  0.
         13    1    3    3    0    0  0.28120534624E+03  0.12277075194E+03 -0.44040895745E+03  0.53675800328E+03  0.00000000000E+00 0.  1.
          1    1    3    3  501    0 -0.32918467712E+03 -0.45310990362E+02 -0.35366286648E+03  0.48527627247E+03  0.00000000000E+00 0.  1.
         21    1    1    2  502  501  0.47979330879E+02 -0.77459761576E+02 -0.69374067537E+02  0.11451983279E+03  0.00000000000E+00 0.  1.
<mgrwt>
<rscale>  1 0.30000000E+03</rscale>
<asrwt>0</asrwt>
<pdfrwt beam="1">  1        1 0.49656144E+00 0.30000000E+03</pdfrwt>
<pdfrwt beam="2">0</pdfrwt>
<totfact> 0.24205924E-01</totfact>
</mgrwt>
</event>
<event>
 6    1  0.5260809E-006  0.3000000E+03  0.7818608E-02  0.1093470E+00
          1   -1    0    0  502    0  0.00000000000E+00  0.00000000000E+00  0.11418745459E+03  0.11418745459E+03  0.00000000000E+00 0.  1.
         13   -1    0    0    0    0 -0.00000000000E+00 -0.00000000000E+00 -0.10000000000E+04  0.10000000000E+04  0.00000000000E+00 0.  1.
    9000005    2    1    2  501    0  0.85819802644E+01  0.60507721171E+01 -0.83317829774E+03  0.10605159886E+04  0.65604712035E+03 0.  0.
         13    1    3    3    0    0 -0.24001826535E+03 -0.63389445551E+02 -0.74892537679E+03  0.78899696420E+03  0.00000000000E+00 0.  1.
          3    1    3    3  501    0  0.24860024561E+03  0.69440217668E+02 -0.84252920943E+02  0.27151902444E+03  0.00000000000E+00 0.  1.
         21    1    1    2  502  501 -0.85819802644E+01 -0.60507721171E+01 -0.52634247677E+02  0.53671465948E+02  0.00000000000E+00 0. -1.
<mgrwt>
<rscale>  1 0.30000000E+03</rscale>
<asrwt>0</asrwt>
<pdfrwt beam="1">  1        1 0.41522798E+00 0.30000000E+03</pdfrwt>
<pdfrwt beam="2">0</pdfrwt>
<totfact> 0.85748557E-01</totfact>
</mgrwt>
</event>
<event>
 6    1  0.5260809E-006  0.3000000E+03  0.7818608E-02  0.1093470E+00
          1   -1    0    0  502    0  0.00000000000E+00  0.00000000000E+00  0.16141575285E+03  0.16141575285E+03  0.00000000000E+00 0.  1.
         13   -1    0    0    0    0 -0.00000000000E+00 -0.00000000000E+00 -0.10000000000E+04  0.10000000000E+04  0.00000000000E+00 0.  1.
    9000005    2    1    2  501    0  0.27339616571E+02  0.18919039873E+02 -0.89193500414E+03  0.10985533000E+04  0.64044196980E+03 0.  0.
         13    1    3    3    0    0 -0.33090725340E+02 -0.14297660512E+03  0.38891736121E+02  0.15182184577E+03  0.00000000000E+00 0.  1.
          3    1    3    3  501    0  0.60430341911E+02  0.16189564499E+03 -0.93082674026E+03  0.94673145425E+03  0.00000000000E+00 0.  1.
         21    1    1    2  502  501 -0.27339616571E+02 -0.18919039873E+02  0.53350756986E+02  0.62862452823E+02  0.00000000000E+00 0. -1.
<mgrwt>
<rscale>  1 0.30000000E+03</rscale>
<asrwt>0</asrwt>
<pdfrwt beam="1">  1        1 0.58696761E+00 0.30000000E+03</pdfrwt>
<pdfrwt beam="2">0</pdfrwt>
<totfact> 0.67540167E-02</totfact>
</mgrwt>
</event>
<event>
 6    1  0.5260809E-006  0.3000000E+03  0.7818608E-02  0.1093470E+00
          1   -1    0    0  502    0  0.00000000000E+00  0.00000000000E+00  0.13096917047E+03  0.13096917047E+03  0.00000000000E+00 0.  1.
         13   -1    0    0    0    0 -0.00000000000E+00 -0.00000000000E+00 -0.10000000000E+04  0.10000000000E+04  0.00000000000E+00 0.  1.
    9000005    2    1    2  501    0  0.45728871325E+02 -0.25517576688E+02 -0.84025502833E+03  0.10712169895E+04  0.66237077958E+03 0.  0.
         13    1    3    3    0    0  0.60912452548E+02  0.13524238356E+03 -0.88998245117E+03  0.90225805210E+03  0.00000000000E+00 0.  1.
          3    1    3    3  501    0 -0.15183581224E+02 -0.16075996025E+03  0.49727422840E+02  0.16895893743E+03  0.00000000000E+00 0.  1.
         21    1    1    2  502  501 -0.45728871325E+02  0.25517576688E+02 -0.28775801191E+02  0.59752180938E+02  0.00000000000E+00 0.  1.
<mgrwt>
<rscale>  1 0.30000000E+03</rscale>
<asrwt>0</asrwt>
<pdfrwt beam="1">  1        1 0.47625253E+00 0.30000000E+03</pdfrwt>
<pdfrwt beam="2">0</pdfrwt>
<totfact> 0.33970008E-01</totfact>
</mgrwt>
</event>
<event>
 6    1  0.5260809E-006  0.3000000E+03  0.7818608E-02  0.1093470E+00
          1   -1    0    0  502    0  0.00000000000E+00  0.00000000000E+00  0.10616846025E+03  0.10616846025E+03  0.00000000000E+00 0.  1.
         13   -1    0    0    0    0 -0.00000000000E+00 -0.00000000000E+00 -0.10000000000E+04  0.10000000000E+04  0.00000000000E+00 0.  1.
    9000005    2    1    2  501    0  0.10986787631E+02  0.37059427518E+01 -0.87586128699E+03  0.10847821679E+04  0.63991008300E+03 0.  0.
         13    1    3    3    0    0  0.16606896657E+03  0.77752781004E+02 -0.89341158530E+03  0.91203544742E+03  0.00000000000E+00 0.  1.
          1    1    3    3  501    0 -0.15508217893E+03 -0.74046838253E+02  0.17550298310E+02  0.17274672052E+03  0.00000000000E+00 0.  1.
         21    1    1    2  502  501 -0.10986787631E+02 -0.37059427518E+01 -0.17970252766E+02  0.21386292306E+02  0.00000000000E+00 0. -1.
<mgrwt>
<rscale>  1 0.30000000E+03</rscale>
<asrwt>0</asrwt>
<pdfrwt beam="1">  1        1 0.38606794E+00 0.30000000E+03</pdfrwt>
<pdfrwt beam="2">0</pdfrwt>
<totfact> 0.12612782E+00</totfact>
</mgrwt>
</event>
<event>
 6    1  0.5260809E-006  0.3000000E+03  0.7818608E-02  0.1093470E+00
          1   -1    0    0  502    0  0.00000000000E+00  0.00000000000E+00  0.10974754902E+03  0.10974754902E+03  0.00000000000E+00 0.  1.
         13   -1    0    0    0    0 -0.00000000000E+00 -0.00000000000E+00 -0.10000000000E+04  0.10000000000E+04  0.00000000000E+00 0.  1.
    9000005    2    1    2  501    0  0.83505711003E+01 -0.70289740193E+01 -0.89557678412E+03  0.10976031249E+04  0.63447277724E+03 0.  0.
         13    1    3    3    0    0  0.93251041469E+02  0.21708005656E+03 -0.80899864447E+03  0.84279197578E+03  0.00000000000E+00 0.  1.
          3    1    3    3  501    0 -0.84900470368E+02 -0.22410903058E+03 -0.86578139654E+02  0.25481114914E+03  0.00000000000E+00 0.  1.
         21    1    1    2  502  501 -0.83505711003E+01  0.70289740193E+01  0.53243331422E+01  0.12144424106E+02  0.00000000000E+00 0. -1.
<mgrwt>
<rscale>  1 0.30000000E+03</rscale>
<asrwt>0</asrwt>
<pdfrwt beam="1">  1        1 0.39908284E+00 0.30000000E+03</pdfrwt>
<pdfrwt beam="2">0</pdfrwt>
<totfact> 0.10659109E+00</totfact>
</mgrwt>
</event>
<event>
 6    1  0.5260809E-006  0.3000000E+03  0.7818608E-02  0.1093470E+00
          1   -1    0    0  502    0  0.00000000000E+00  0.00000000000E+00  0.14079959639E+03  0.14079959639E+03  0.00000000000E+00 0.  1.
         13   -1    0    0    0    0 -0.00000000000E+00 -0.00000000000E+00 -0.10000000000E+04  0.10000000000E+04  0.00000000000E+00 0.  1.
    9000005    2    1    2  501    0 -0.47802432614E+02  0.25912078254E+02 -0.87116498033E+03  0.10851250110E+04  0.64467926767E+03 0.  0.
         13    1    3    3    0    0 -0.30710829167E+03  0.34252438051E+02 -0.20660436747E+03  0.37171776522E+03  0.00000000000E+00 0.  1.
          3    1    3    3  501    0  0.25930585906E+03 -0.83403597966E+01 -0.66456061286E+03  0.71340724576E+03  0.00000000000E+00 0.  1.
         21    1    1    2  502  501  0.47802432614E+02 -0.25912078254E+02  0.11964576714E+02  0.55674585398E+02  0.00000000000E+00 0. -1.
<mgrwt>
<rscale>  1 0.30000000E+03</rscale>
<asrwt>0</asrwt>
<pdfrwt beam="1">  1        1 0.51199961E+00 0.30000000E+03</pdfrwt>
<pdfrwt beam="2">0</pdfrwt>
<totfact> 0.18649075E-01</totfact>
</mgrwt>
</event>
<event>
 6    1  0.5260809E-006  0.3000000E+03  0.7818608E-02  0.1093470E+00
          1   -1    0    0  502    0  0.00000000000E+00  0.00000000000E+00  0.10828054636E+03  0.10828054636E+03  0.00000000000E+00 0.  1.
         13   -1    0    0    0    0 -0.00000000000E+00 -0.00000000000E+00 -0.10000000000E+04  0.10000000000E+04  0.00000000000E+00 0.  1.
    9000005    2    1    2  501    0  0.10186402955E+02  0.19223619520E+01 -0.88053259521E+03  0.10930291831E+04  0.64750883047E+03 0.  0.
         13    1    3    3    0    0 -0.17023762285E+03  0.21791749212E+03 -0.15999853569E+03  0.31948147525E+03  0.00000000000E+00 0.  1.
          1    1    3    3  501    0  0.18042402580E+03 -0.21599513017E+03 -0.72053405953E+03  0.77354770783E+03  0.00000000000E+00 0.  1.
         21    1    1    2  502  501 -0.10186402955E+02 -0.19223619520E+01 -0.11186858424E+02  0.15251363285E+02  0.00000000000E+00 0. -1.
<mgrwt>
<rscale>  1 0.30000000E+03</rscale>
<asrwt>0</asrwt>
<pdfrwt beam="1">  1        1 0.39374827E+00 0.30000000E+03</pdfrwt>
<pdfrwt beam="2">0</pdfrwt>
<totfact> 0.11425179E+00</totfact>
</mgrwt>
</event>
<event>
 6    1  0.5260809E-006  0.3000000E+03  0.7818608E-02  0.1093470E+00
          1   -1    0    0  502    0  0.00000000000E+00  0.00000000000E+00  0.12531205234E+03  0.12531205234E+03  0.00000000000E+00 0.  1.
         13   -1    0    0    0    0 -0.00000000000E+00 -0.00000000000E+00 -0.10000000000E+04  0.10000000000E+04  0.00000000000E+00 0.  1.
    9000005    2    1    2  501    0  0.23386876955E+02  0.11338437259E+02 -0.88245118199E+03  0.10981868983E+04  0.65316067615E+03 0.  0.
         13    1    3    3    0    0 -0.15063123150E+03 -0.21587893918E+03 -0.13090199716E+03  0.29398778401E+03  0.00000000000E+00 0.  1.
          1    1    3    3  501    0  0.17401810846E+03  0.22721737644E+03 -0.75154918483E+03  0.80419911431E+03  0.00000000000E+00 0.  1.
         21    1    1    2  502  501 -0.23386876955E+02 -0.11338437259E+02  0.77632343294E+01  0.27125154017E+02  0.00000000000E+00 0. -1.
<mgrwt>
<rscale>  1 0.30000000E+03</rscale>
<asrwt>0</asrwt>
<pdfrwt beam="1">  1        1 0.45568115E+00 0.30000000E+03</pdfrwt>
<pdfrwt beam="2">0</pdfrwt>
<totfact> 0.47124984E-01</totfact>
</mgrwt>
</event>
<event>
 6    1  0.5260809E-006  0.3000000E+03  0.7818608E-02  0.1093470E+00
          1   -1    0    0  502    0  0.00000000000E+00  0.00000000000E+00  0.12465063855E+03  0.12465063855E+03  0.00000000000E+00 0.  1.
         13   -1    0    0    0    0 -0.00000000000E+00 -0.00000000000E+00 -0.10000000000E+04  0.10000000000E+04  0.00000000000E+00 0.  1.
    9000005    2    1    2  501    0  0.41305814491E+00 -0.16118148822E+02 -0.87567734535E+03  0.11085238623E+04  0.67952510976E+03 0.  0.
         13    1    3    3    0    0 -0.30700144669E+03 -0.12147043531E+03 -0.29332811283E+03  0.44164050618E+03  0.00000000000E+00 0.  1.
          1    1    3    3  501    0  0.30741450484E+03  0.10535228648E+03 -0.58234923253E+03  0.66688335612E+03  0.00000000000E+00 0.  1.
         21    1    1    2  502  501 -0.41305814491E+00  0.16118148822E+02  0.32798389981E+00  0.16126776240E+02  0.00000000000E+00 0. -1.
<mgrwt>
<rscale>  1 0.30000000E+03</rscale>
<asrwt>0</asrwt>
<pdfrwt beam="1">  1        1 0.45327601E+00 0.30000000E+03</pdfrwt>
<pdfrwt beam="2">0</pdfrwt>
<totfact> 0.48911853E-01</totfact>
</mgrwt>
</event>
<event>
 6    1  0.5260809E-006  0.3000000E+03  0.7818608E-02  0.1093470E+00
          1   -1    0    0  502    0  0.00000000000E+00  0.00000000000E+00  0.11225273826E+03  0.11225273826E+03  0.00000000000E+00 0.  1.
         13   -1    0    0    0    0 -0.00000000000E+00 -0.00000000000E+00 -0.10000000000E+04  0.10000000000E+04  0.00000000000E+00 0.  1.
    9000005    2    1    2  501    0 -0.29311356089E+02 -0.22611105196E+02 -0.82168633638E+03  0.10365264975E+04  0.63075219146E+03 0.  0.
         13    1    3    3    0    0 -0.40964268033E+02 -0.68833744270E+02  0.91779320664E+02  0.12181789404E+03  0.00000000000E+00 0.  1.
          1    1    3    3  501    0  0.11652911944E+02  0.46222639074E+02 -0.91346565704E+03  0.91470860350E+03  0.00000000000E+00 0.  1.
         21    1    1    2  502  501  0.29311356089E+02  0.22611105196E+02 -0.66060925362E+02  0.75726240721E+02  0.00000000000E+00 0.  1.
<mgrwt>
<rscale>  1 0.30000000E+03</rscale>
<asrwt>0</asrwt>
<pdfrwt beam="1">  1        1 0.40819264E+00 0.30000000E+03</pdfrwt>
<pdfrwt beam="2">0</pdfrwt>
<totfact> 0.94422862E-01</totfact>
</mgrwt>
</event>
<event>
 6    1  0.5260809E-006  0.3000000E+03  0.7818608E-02  0.1093470E+00
          1   -1    0    0  502    0  0.00000000000E+00  0.00000000000E+00  0.11628183325E+03  0.11628183325E+03  0.00000000000E+00 0.  1.
         13   -1    0    0    0    0 -0.00000000000E+00 -0.00000000000E+00 -0.10000000000E+04  0.10000000000E+04  0.00000000000E+00 0.  1.
    9000005    2    1    2  501    0  0.71269408015E+01  0.95460067011E+01 -0.89020245015E+03  0.11027184465E+04  0.65068091292E+03 0.  0.
         13    1    3    3    0    0  0.58755538735E+02  0.28780541807E+03 -0.19622793390E+03  0.35325567801E+03  0.00000000000E+00 0.  1.
          1    1    3    3  501    0 -0.51628597933E+02 -0.27825941137E+03 -0.69397451625E+03  0.74946276848E+03  0.00000000000E+00 0.  1.
         21    1    1    2  502  501 -0.71269408015E+01 -0.95460067011E+01  0.64842833999E+01  0.13563386758E+02  0.00000000000E+00 0.  1.
<mgrwt>
<rscale>  1 0.30000000E+03</rscale>
<asrwt>0</asrwt>
<pdfrwt beam="1">  1        1 0.42284392E+00 0.30000000E+03</pdfrwt>
<pdfrwt beam="2">0</pdfrwt>
<totfact> 0.77020960E-01</totfact>
</mgrwt>
</event>
<event>
 6    1  0.5260809E-006  0.3000000E+03  0.7818608E-02  0.1093470E+00
          1   -1    0    0  502    0  0.00000000000E+00  0.00000000000E+00  0.11222771459E+03  0.11222771459E+03  0.00000000000E+00 0.  1.
         13   -1    0    0    0    0 -0.00000000000E+00 -0.00000000000E+00 -0.10000000000E+04  0.10000000000E+04  0.00000000000E+00 0.  1.
    9000005    2    1    2  501    0  0.48114800891E+01  0.16805036228E+02 -0.86096011126E+03  0.10802206487E+04  0.65216468561E+03 0.  0.
         13    1    3    3    0    0 -0.82554584207E+01  0.22908095932E+03 -0.83508428542E+03  0.86597459678E+03  0.00000000000E+00 0.  1.
          1    1    3    3  501    0  0.13066938510E+02 -0.21227592309E+03 -0.25875825841E+02  0.21424605194E+03  0.00000000000E+00 0.  1.
         21    1    1    2  502  501 -0.48114800891E+01 -0.16805036228E+02 -0.26812174149E+02  0.32007065874E+02  0.00000000000E+00 0.  1.
<mgrwt>
<rscale>  1 0.30000000E+03</rscale>
<asrwt>0</asrwt>
<pdfrwt beam="1">  1        1 0.40810164E+00 0.30000000E+03</pdfrwt>
<pdfrwt beam="2">0</pdfrwt>
<totfact> 0.94539145E-01</totfact>
</mgrwt>
</event>
<event>
 6    1  0.5260809E-006  0.3000000E+03  0.7818608E-02  0.1093470E+00
          1   -1    0    0  502    0  0.00000000000E+00  0.00000000000E+00  0.10924851925E+03  0.10924851925E+03  0.00000000000E+00 0.  1.
         13   -1    0    0    0    0 -0.00000000000E+00 -0.00000000000E+00 -0.10000000000E+04  0.10000000000E+04  0.00000000000E+00 0.  1.
    9000005    2    1    2  501    0 -0.10910449358E+01 -0.14451598676E+02 -0.87429775549E+03  0.10873221844E+04  0.64626846467E+03 0.  0.
         13    1    3    3    0    0 -0.37208461377E+02 -0.30983214071E+02 -0.97648590145E+03  0.97768560636E+03  0.00000000000E+00 0.  1.
          3    1    3    3  501    0  0.36117416441E+02  0.16531615396E+02  0.10218814596E+03  0.10963657808E+03  0.00000000000E+00 0.  1.
         21    1    1    2  502  501  0.10910449358E+01  0.14451598676E+02 -0.16453725264E+02  0.21926334815E+02  0.00000000000E+00 0.  1.
<mgrwt>
<rscale>  1 0.30000000E+03</rscale>
<asrwt>0</asrwt>
<pdfrwt beam="1">  1        1 0.39726818E+00 0.30000000E+03</pdfrwt>
<pdfrwt beam="2">0</pdfrwt>
<totfact> 0.10914739E+00</totfact>
</mgrwt>
</event>
<event>
 6    1  0.5260809E-006  0.3000000E+03  0.7818608E-02  0.1093470E+00
          1   -1    0    0  502    0  0.00000000000E+00  0.00000000000E+00  0.11592223115E+03  0.11592223115E+03  0.00000000000E+00 0.  1.
         13   -1    0    0    0    0 -0.00000000000E+00 -0.00000000000E+00 -0.10000000000E+04  0.10000000000E+04  0.00000000000E+00 0.  1.
    9000005    2    1    2  501    0 -0.11868076311E+02 -0.10920705671E+02 -0.88699500169E+03  0.10995324998E+04  0.64957791830E+03 0.  0.
         13    1    3    3    0    0  0.22677155790E+03 -0.11237575902E+03 -0.77820529194E+03  0.81832580742E+03  0.00000000000E+00 0.  1.
          1    1    3    3  501    0 -0.23863963421E+03  0.10145505335E+03 -0.10878970975E+03  0.28120669234E+03  0.00000000000E+00 0.  1.
         21    1    1    2  502  501  0.11868076311E+02  0.10920705671E+02  0.29172328440E+01  0.16389731393E+02  0.00000000000E+00 0. -1.
<mgrwt>
<rscale>  1 0.30000000E+03</rscale>
<asrwt>0</asrwt>
<pdfrwt beam="1">  1        1 0.42153627E+00 0.30000000E+03</pdfrwt>
<pdfrwt beam="2">0</pdfrwt>
<totfact> 0.78471934E-01</totfact>
</mgrwt>
</event>
<event>
 6    1  0.5260809E-006  0.3000000E+03  0.7818608E-02  0.1093470E+00
          1   -1    0    0  502    0  0.00000000000E+00  0.00000000000E+00  0.11913310522E+03  0.11913310522E+03  0.00000000000E+00 0.  1.
         13   -1    0    0    0    0 -0.00000000000E+00 -0.00000000000E+00 -0.10000000000E+04  0.10000000000E+04  0.00000000000E+00 0.  1.
    9000005    2    1    2  501    0 -0.19024833230E+02 -0.20835966054E+02 -0.87746527781E+03  0.10907138730E+04  0.64723670885E+03 0.  0.
         13    1    3    3    0    0  0.14374823398E+03 -0.24849834493E+03 -0.70689463612E+03  0.76296461830E+03  0.00000000000E+00 0.  1.
          1    1    3    3  501    0 -0.16277306721E+03  0.22766237888E+03 -0.17057064169E+03  0.32774925472E+03  0.00000000000E+00 0.  1.
         21    1    1    2  502  501  0.19024833230E+02  0.20835966054E+02 -0.34016169649E+01  0.28419232199E+02  0.00000000000E+00 0. -1.
<mgrwt>
<rscale>  1 0.30000000E+03</rscale>
<asrwt>0</asrwt>
<pdfrwt beam="1">  1        1 0.43321221E+00 0.30000000E+03</pdfrwt>
<pdfrwt beam="2">0</pdfrwt>
<totfact> 0.66284267E-01</totfact>
</mgrwt>
</event>
<event>
 6    1  0.5260809E-006  0.3000000E+03  0.7818608E-02  0.1093470E+00
          1   -1    0    0  502    0  0.00000000000E+00  0.00000000000E+00  0.12020908104E+03  0.12020908104E+03  0.00000000000E+00 0.  1.
         13   -1    0    0    0    0 -0.00000000000E+00 -0.00000000000E+00 -0.10000000000E+04  0.10000000000E+04  0.00000000000E+00 0.  1.
    9000005    2    1    2  501    0 -0.27766238271E+02  0.70757045047E+01 -0.89006781217E+03  0.10897682513E+04  0.62813462065E+03 0.  0.
         13    1    3    3    0    0  0.12546963378E+03 -0.27694504689E+03 -0.38817864702E+03  0.49307590694E+03  0.00000000000E+00 0.  1.
          3    1    3    3  501    0 -0.15323587205E+03  0.28402075140E+03 -0.50188916515E+03  0.59669234435E+03  0.00000000000E+00 0.  1.
         21    1    1    2  502  501  0.27766238271E+02 -0.70757045047E+01  0.10276893210E+02  0.30440829752E+02  0.00000000000E+00 0. -1.
<mgrwt>
<rscale>  1 0.30000000E+03</rscale>
<asrwt>0</asrwt>
<pdfrwt beam="1">  1        1 0.43712485E+00 0.30000000E+03</pdfrwt>
<pdfrwt beam="2">0</pdfrwt>
<totfact> 0.62569219E-01</totfact>
</mgrwt>
</event>
<event>
 6    1  0.5260809E-006  0.3000000E+03  0.7818608E-02  0.1093470E+00
          1   -1    0    0  502    0  0.00000000000E+00  0.00000000000E+00  0.10733661559E+03  0.10733661559E+03  0.00000000000E+00 0.  1.
         13   -1    0    0    0    0 -0.00000000000E+00 -0.00000000000E+00 -0.10000000000E+04  0.10000000000E+04  0.00000000000E+00 0.  1.
    9000005    2    1    2  501    0 -0.31463606651E+01 -0.10244856208E+02 -0.90018792184E+03  0.10942417568E+04  0.62202240390E+03 0.  0.
         13    1    3    3    0    0 -0.18065645174E+03 -0.25326358233E+03 -0.55537602749E+03  0.63657028489E+03  0.00000000000E+00 0.  1.
          3    1    3    3  501    0  0.17751009108E+03  0.24301872612E+03 -0.34481189435E+03  0.45767147187E+03  0.00000000000E+00 0.  1.
         21    1    1    2  502  501  0.31463606651E+01  0.10244856208E+02  0.75245374299E+01  0.13094858827E+02  0.00000000000E+00 0. -1.
<mgrwt>
<rscale>  1 0.30000000E+03</rscale>
<asrwt>0</asrwt>
<pdfrwt beam="1">  1        1 0.39031579E+00 0.30000000E+03</pdfrwt>
<pdfrwt beam="2">0</pdfrwt>
<totfact> 0.11943291E+00</totfact>
</mgrwt>
</event>
<event>
 6    1  0.5260809E-006  0.3000000E+03  0.7818608E-02  0.1093470E+00
          1   -1    0    0  502    0  0.00000000000E+00  0.00000000000E+00  0.11594368249E+03  0.11594368249E+03  0.00000000000E+00 0.  1.
         13   -1    0    0    0    0 -0.00000000000E+00 -0.00000000000E+00 -0.10000000000E+04  0.10000000000E+04  0.00000000000E+00 0.  1.
    9000005    2    1    2  501    0  0.11862945075E+02  0.47424808603E+01 -0.89151071317E+03  0.11011521780E+04  0.64620549890E+03 0.  0.
         13    1    3    3    0    0 -0.11582251930E+03  0.19221674288E+03 -0.50415359667E+02  0.23000834922E+03  0.00000000000E+00 0.  1.
          1    1    3    3  501    0  0.12768546438E+03 -0.18747426201E+03 -0.84109535350E+03  0.87114382878E+03  0.00000000000E+00 0.  1.
         21    1    1    2  502  501 -0.11862945075E+02 -0.47424808603E+01  0.74543956617E+01  0.14791504496E+02  0.00000000000E+00 0.  1.
<mgrwt>
<rscale>  1 0.30000000E+03</rscale>
<asrwt>0</asrwt>
<pdfrwt beam="1">  1        1 0.42161428E+00 0.30000000E+03</pdfrwt>
<pdfrwt beam="2">0</pdfrwt>
<totfact> 0.78384800E-01</totfact>
</mgrwt>
</event>
<event>
 6    1  0.5260809E-006  0.3000000E+03  0.7818608E-02  0.1093470E+00
          1   -1    0    0  502    0  0.00000000000E+00  0.00000000000E+00  0.20395422445E+03  0.20395422445E+03  0.00000000000E+00 0.  1.
         13   -1    0    0    0    0 -0.00000000000E+00 -0.00000000000E+00 -0.10000000000E+04  0.10000000000E+04  0.00000000000E+00 0.  1.
    9000005    2    1    2  501    0 -0.54190820774E+01 -0.10637013216E+02 -0.89828387613E+03  0.11010215197E+04  0.63654689709E+03 0.  0.
         13    1    3    3    0    0 -0.10119630289E+03 -0.19305889750E+02  0.72188534222E+02  0.12579584083E+03  0.00000000000E+00 0.  1.
          3    1    3    3  501    0  0.95777220811E+02  0.86688765342E+01 -0.97047241035E+03  0.97522567885E+03  0.00000000000E+00 0.  1.
         21    1    1    2  502  501  0.54190820774E+01  0.10637013216E+02  0.10223810058E+03  0.10293270477E+03  0.00000000000E+00 0. -1.
<mgrwt>
<rscale>  1 0.30000000E+03</rscale>
<asrwt>0</asrwt>
<pdfrwt beam="1">  1        1 0.74165329E+00 0.30000000E+03</pdfrwt>
<pdfrwt beam="2">0</pdfrwt>
<totfact> 0.16456885E-02</totfact>
</mgrwt>
</event>
<event>
 6    1  0.5260809E-006  0.3000000E+03  0.7818608E-02  0.1093470E+00
          1   -1    0    0  502    0  0.00000000000E+00  0.00000000000E+00  0.11060883625E+03  0.11060883625E+03  0.00000000000E+00 0.  1.
         13   -1    0    0    0    0 -0.00000000000E+00 -0.00000000000E+00 -0.10000000000E+04  0.10000000000E+04  0.00000000000E+00 0.  1.
    9000005    2    1    2  501    0  0.10830942807E+02  0.99092852934E+01 -0.87985227021E+03  0.10931018734E+04  0.64847219296E+03 0.  0.
         13    1    3    3    0    0 -0.18564077014E+03 -0.22354892711E+03 -0.21467251660E+03  0.36127677442E+03  0.00000000000E+00 0.  1.
          3    1    3    3  501    0  0.19647171295E+03  0.23345821241E+03 -0.66517975361E+03  0.73182509901E+03  0.00000000000E+00 0.  1.
         21    1    1    2  502  501 -0.10830942807E+02 -0.99092852934E+01 -0.95388935421E+01  0.17506962818E+02  0.00000000000E+00 0.  1.
<mgrwt>
<rscale>  1 0.30000000E+03</rscale>
<asrwt>0</asrwt>
<pdfrwt beam="1">  1        1 0.40221480E+00 0.30000000E+03</pdfrwt>
<pdfrwt beam="2">0</pdfrwt>
<totfact> 0.10228778E+00</totfact>
</mgrwt>
</event>
<event>
 6    1  0.5260809E-006  0.3000000E+03  0.7818608E-02  0.1093470E+00
          1   -1    0    0  502    0  0.00000000000E+00  0.00000000000E+00  0.11433221103E+03  0.11433221103E+03  0.00000000000E+00 0.  1.
         13   -1    0    0    0    0 -0.00000000000E+00 -0.00000000000E+00 -0.10000000000E+04  0.10000000000E+04  0.00000000000E+00 0.  1.
    9000005    2    1    2  501    0 -0.80570328843E+01 -0.97161340047E+01 -0.86917096261E+03  0.10935604918E+04  0.66351870208E+03 0.  0.
         13    1    3    3    0    0 -0.27934526244E+03  0.63179591696E+02 -0.15395817009E+03  0.32515927573E+03  0.00000000000E+00 0.  1.
          1    1    3    3  501    0  0.27128822956E+03 -0.72895725700E+02 -0.71521279252E+03  0.76840121610E+03  0.00000000000E+00 0.  1.
         21    1    1    2  502  501  0.80570328843E+01  0.97161340047E+01 -0.16496826359E+02  0.20771719207E+02  0.00000000000E+00 0.  1.
<mgrwt>
<rscale>  1 0.30000000E+03</rscale>
<asrwt>0</asrwt>
<pdfrwt beam="1">  1        1 0.41575437E+00 0.30000000E+03</pdfrwt>
<pdfrwt beam="2">0</pdfrwt>
<totfact> 0.85124268E-01</totfact>
</mgrwt>
</event>
<event>
 6    1  0.5260809E-006  0.3000000E+03  0.7818608E-02  0.1093470E+00
          1   -1    0    0  502    0  0.00000000000E+00  0.00000000000E+00  0.11510322906E+03  0.11510322906E+03  0.00000000000E+00 0.  1.
         13   -1    0    0    0    0 -0.00000000000E+00 -0.00000000000E+00 -0.10000000000E+04  0.10000000000E+04  0.00000000000E+00 0.  1.
    9000005    2    1    2  501    0 -0.11957151008E+02  0.63392111590E+01 -0.87521727183E+03  0.10984643661E+04  0.66365317115E+03 0.  0.
         13    1    3    3    0    0  0.22716474302E+03 -0.49945055377E+02 -0.50596120430E+02  0.23803003262E+03  0.00000000000E+00 0.  1.
          3    1    3    3  501    0 -0.23912189402E+03  0.56284266536E+02 -0.82462115140E+03  0.86043433346E+03  0.00000000000E+00 0.  1.
         21    1    1    2  502  501  0.11957151008E+02 -0.63392111590E+01 -0.96794991136E+01  0.16638862985E+02  0.00000000000E+00 0. -1.
<mgrwt>
<rscale>  1 0.30000000E+03</rscale>
<asrwt>0</asrwt>
<pdfrwt beam="1">  1        1 0.41855808E+00 0.30000000E+03</pdfrwt>
<pdfrwt beam="2">0</pdfrwt>
<totfact> 0.81851880E-01</totfact>
</mgrwt>
</event>
<event>
 6    1  0.5260809E-006  0.3000000E+03  0.7818608E-02  0.1093470E+00
          1   -1    0    0  502    0  0.00000000000E+00  0.00000000000E+00  0.12651304546E+03  0.12651304546E+03  0.00000000000E+00 0.  1.
         13   -1    0    0    0    0 -0.00000000000E+00 -0.00000000000E+00 -0.10000000000E+04  0.10000000000E+04  0.00000000000E+00 0.  1.
    9000005    2    1    2  501    0 -0.10447068080E+02 -0.14862221595E+02 -0.88944355001E+03  0.11023337196E+04  0.65092224862E+03 0.  0.
         13    1    3    3    0    0  0.11168826468E+03  0.23104941163E+03 -0.75339759477E+03  0.79590579523E+03  0.00000000000E+00 0.  1.
          1    1    3    3  501    0 -0.12213533276E+03 -0.24591163323E+03 -0.13604595524E+03  0.30642792432E+03  0.00000000000E+00 0.  1.
         21    1    1    2  502  501  0.10447068080E+02  0.14862221595E+02  0.15956595473E+02  0.24179325907E+02  0.00000000000E+00 0. -1.
<mgrwt>
<rscale>  1 0.30000000E+03</rscale>
<asrwt>0</asrwt>
<pdfrwt beam="1">  1        1 0.46004841E+00 0.30000000E+03</pdfrwt>
<pdfrwt beam="2">0</pdfrwt>
<totfact> 0.44035937E-01</totfact>
</mgrwt>
</event>
<event>
 6    1  0.5260809E-006  0.3000000E+03  0.7818608E-02  0.1093470E+00
          1   -1    0    0  502    0  0.00000000000E+00  0.00000000000E+00  0.11631382645E+03  0.11631382645E+03  0.00000000000E+00 0.  1.
         13   -1    0    0    0    0 -0.00000000000E+00 -0.00000000000E+00 -0.10000000000E+04  0.10000000000E+04  0.00000000000E+00 0.  1.
    9000005    2    1    2  501    0  0.31647914907E+01  0.10827750637E+02 -0.89198229833E+03  0.11023109062E+04  0.64755668271E+03 0.  0.
         13    1    3    3    0    0 -0.18570888102E+03 -0.18391770451E+03 -0.75385696927E+03  0.79788084363E+03  0.00000000000E+00 0.  1.
          1    1    3    3  501    0  0.18887367251E+03  0.19474545515E+03 -0.13812532906E+03  0.30443006257E+03  0.00000000000E+00 0.  1.
         21    1    1    2  502  501 -0.31647914907E+01 -0.10827750637E+02  0.82961247712E+01  0.14002920240E+02  0.00000000000E+00 0. -1.
<mgrwt>
<rscale>  1 0.30000000E+03</rscale>
<asrwt>0</asrwt>
<pdfrwt beam="1">  1        1 0.42296026E+00 0.30000000E+03</pdfrwt>
<pdfrwt beam="2">0</pdfrwt>
<totfact> 0.76892880E-01</totfact>
</mgrwt>
</event>
<event>
 6    1  0.5260809E-006  0.3000000E+03  0.7818608E-02  0.1093470E+00
          1   -1    0    0  502    0  0.00000000000E+00  0.00000000000E+00  0.11445703308E+03  0.11445703308E+03  0.00000000000E+00 0.  1.
         13   -1    0    0    0    0 -0.00000000000E+00 -0.00000000000E+00 -0.10000000000E+04  0.10000000000E+04  0.00000000000E+00 0.  1.
    9000005    2    1    2  501    0 -0.16752557243E+01 -0.22362542904E+02 -0.86393852822E+03  0.10833179647E+04  0.65321140709E+03 0.  0.
         13    1    3    3    0    0  0.17733354206E+03  0.17292235125E+03 -0.75897040486E+03  0.79836420270E+03  0.00000000000E+00 0.  1.
          3    1    3    3  501    0 -0.17900879779E+03 -0.19528489415E+03 -0.10496812336E+03  0.28495376202E+03  0.00000000000E+00 0.  1.
         21    1    1    2  502  501  0.16752557243E+01  0.22362542904E+02 -0.21604438698E+02  0.31139068360E+02  0.00000000000E+00 0.  1.
<mgrwt>
<rscale>  1 0.30000000E+03</rscale>
<asrwt>0</asrwt>
<pdfrwt beam="1">  1        1 0.41620827E+00 0.30000000E+03</pdfrwt>
<pdfrwt beam="2">0</pdfrwt>
<totfact> 0.84588669E-01</totfact>
</mgrwt>
</event>
<event>
 6    1  0.5260809E-006  0.3000000E+03  0.7818608E-02  0.1093470E+00
          1   -1    0    0  502    0  0.00000000000E+00  0.00000000000E+00  0.11834463270E+03  0.11834463270E+03  0.00000000000E+00 0.  1.
         13   -1    0    0    0    0 -0.00000000000E+00 -0.00000000000E+00 -0.10000000000E+04  0.10000000000E+04  0.00000000000E+00 0.  1.
    9000005    2    1    2  501    0 -0.63082657669E+01  0.22151137310E+02 -0.88119325498E+03  0.10953081258E+04  0.65012911854E+03 0.  0.
         13    1    3    3    0    0 -0.25339708766E+02  0.33557772630E+03 -0.45569545037E+03  0.56649170755E+03  0.00000000000E+00 0.  1.
          3    1    3    3  501    0  0.19031442999E+02 -0.31342658899E+03 -0.42549780461E+03  0.52881641827E+03  0.00000000000E+00 0.  1.
         21    1    1    2  502  501  0.63082657669E+01 -0.22151137310E+02 -0.46211232519E+00  0.23036506873E+02  0.00000000000E+00 0.  1.
<mgrwt>
<rscale>  1 0.30000000E+03</rscale>
<asrwt>0</asrwt>
<pdfrwt beam="1">  1        1 0.43034503E+00 0.30000000E+03</pdfrwt>
<pdfrwt beam="2">0</pdfrwt>
<totfact> 0.69117980E-01</totfact>
</mgrwt>
</event>
<event>
 6    1  0.5260809E-006  0.3000000E+03  0.7818608E-02  0.1093470E+00
          1   -1    0    0  502    0  0.00000000000E+00  0.00000000000E+00  0.11396196398E+03  0.11396196398E+03  0.00000000000E+00 0.  1.
         13   -1    0    0    0    0 -0.00000000000E+00 -0.00000000000E+00 -0.10000000000E+04  0.10000000000E+04  0.00000000000E+00 0.  1.
    9000005    2    1    2  501    0  0.12962098783E+02  0.10387988099E+01 -0.88768710610E+03  0.11008541594E+04  0.65093961847E+03 0.  0.
         13    1    3    3    0    0  0.80649123253E+02  0.53833022016E+02 -0.97418036667E+03  0.97899420945E+03  0.00000000000E+00 0.  1.
          1    1    3    3  501    0 -0.67687024471E+02 -0.52794223206E+02  0.86493260567E+02  0.12185994998E+03  0.00000000000E+00 0.  1.
         21    1    1    2  502  501 -0.12962098783E+02 -0.10387988099E+01  0.16490700811E+01  0.13107804543E+02  0.00000000000E+00 0. -1.
<mgrwt>
<rscale>  1 0.30000000E+03</rscale>
<asrwt>0</asrwt>
<pdfrwt beam="1">  1        1 0.41440802E+00 0.30000000E+03</pdfrwt>
<pdfrwt beam="2">0</pdfrwt>
<totfact> 0.86727802E-01</totfact>
</mgrwt>
</event>
<event>
 6    1  0.5260809E-006  0.3000000E+03  0.7818608E-02  0.1093470E+00
          1   -1    0    0  502    0  0.00000000000E+00  0.00000000000E+00  0.13397902099E+03  0.13397902099E+03  0.00000000000E+00 0.  1.
         13   -1    0    0    0    0 -0.00000000000E+00 -0.00000000000E+00 -0.10000000000E+04  0.10000000000E+04  0.00000000000E+00 0.  1.
    9000005    2    1    2  501    0 -0.40664892687E+01  0.28763201106E+02 -0.88561119846E+03  0.10989414016E+04  0.65001627002E+03 0.  0.
         13    1    3    3    0    0 -0.28544652025E+03  0.16993364325E+03 -0.51272922912E+03  0.61094060385E+03  0.00000000000E+00 0.  1.
          3    1    3    3  501    0  0.28138003098E+03 -0.14117044215E+03 -0.37288196934E+03  0.48800079777E+03  0.00000000000E+00 0.  1.
         21    1    1    2  502  501  0.40664892687E+01 -0.28763201106E+02  0.19590219445E+02  0.35037619365E+02  0.00000000000E+00 0. -1.
<mgrwt>
<rscale>  1 0.30000000E+03</rscale>
<asrwt>0</asrwt>
<pdfrwt beam="1">  1        1 0.48719747E+00 0.30000000E+03</pdfrwt>
<pdfrwt beam="2">0</pdfrwt>
<totfact> 0.28335165E-01</totfact>
</mgrwt>
</event>
<event>
 6    1  0.5260809E-006  0.3000000E+03  0.7818608E-02  0.1093470E+00
          1   -1    0    0  502    0  0.00000000000E+00  0.00000000000E+00  0.11742562279E+03  0.11742562279E+03  0.00000000000E+00 0.  1.
         13   -1    0    0    0    0 -0.00000000000E+00 -0.00000000000E+00 -0.10000000000E+04  0.10000000000E+04  0.00000000000E+00 0.  1.
    9000005    2    1    2  501    0 -0.21614579952E+02  0.19671303743E+01 -0.88280157355E+03  0.10957205246E+04  0.64868620313E+03 0.  0.
         13    1    3    3    0    0 -0.10455037617E+03  0.28942396001E+03 -0.64100600309E+03  0.71104550191E+03  0.00000000000E+00 0.  1.
          3    1    3    3  501    0  0.82935796219E+02 -0.28745682964E+03 -0.24179557046E+03  0.38467502271E+03  0.00000000000E+00 0.  1.
         21    1    1    2  502  501  0.21614579952E+02 -0.19671303743E+01  0.22719633777E+00  0.21705098170E+02  0.00000000000E+00 0.  1.
<mgrwt>
<rscale>  1 0.30000000E+03</rscale>
<asrwt>0</asrwt>
<pdfrwt beam="1">  1        1 0.42700317E+00 0.30000000E+03</pdfrwt>
<pdfrwt beam="2">0</pdfrwt>
<totfact> 0.72548300E-01</totfact>
</mgrwt>
</event>
<event>
 6    1  0.5260809E-006  0.3000000E+03  0.7818608E-02  0.1093470E+00
          1   -1    0    0  502    0  0.00000000000E+00  0.00000000000E+00  0.12140384032E+03  0.12140384032E+03  0.00000000000E+00 0.  1.
         13   -1    0    0    0    0 -0.00000000000E+00 -0.00000000000E+00 -0.10000000000E+04  0.10000000000E+04  0.00000000000E+00 0.  1.
    9000005    2    1    2  501    0 -0.27413134663E+02 -0.42031873947E+01 -0.88588877637E+03  0.10927275610E+04  0.63912866607E+03 0.  0.
         13    1    3    3    0    0  0.75493987334E+02 -0.18836828806E+03 -0.22777579640E+02  0.20420766931E+03  0.00000000000E+00 0.  1.
          1    1    3    3  501    0 -0.10290712200E+03  0.18416510066E+03 -0.86311119673E+03  0.88851989172E+03  0.00000000000E+00 0.  1.
         21    1    1    2  502  501  0.27413134663E+02  0.42031873947E+01  0.72926166887E+01  0.28676279300E+02  0.00000000000E+00 0.  1.
<mgrwt>
<rscale>  1 0.30000000E+03</rscale>
<asrwt>0</asrwt>
<pdfrwt beam="1">  1        1 0.44146944E+00 0.30000000E+03</pdfrwt>
<pdfrwt beam="2">0</pdfrwt>
<totfact> 0.58634955E-01</totfact>
</mgrwt>
</event>
<event>
 6    1  0.5260809E-006  0.3000000E+03  0.7818608E-02  0.1093470E+00
          1   -1    0    0  502    0  0.00000000000E+00  0.00000000000E+00  0.11180559232E+03  0.11180559232E+03  0.00000000000E+00 0.  1.
         13   -1    0    0    0    0 -0.00000000000E+00 -0.00000000000E+00 -0.10000000000E+04  0.10000000000E+04  0.00000000000E+00 0.  1.
    9000005    2    1    2  501    0  0.50498952910E+01 -0.12161823892E+02 -0.86673651664E+03  0.10866291650E+04  0.65525364677E+03 0.  0.
         13    1    3    3    0    0  0.17087315950E+03 -0.16891667423E+03 -0.81898013893E+03  0.85349806528E+03  0.00000000000E+00 0.  1.
          1    1    3    3  501    0 -0.16582326421E+03  0.15675485034E+03 -0.47756377705E+02  0.23313109975E+03  0.00000000000E+00 0.  1.
         21    1    1    2  502  501 -0.50498952910E+01  0.12161823892E+02 -0.21457891046E+02  0.25176427288E+02  0.00000000000E+00 0.  1.
<mgrwt>
<rscale>  1 0.30000000E+03</rscale>
<asrwt>0</asrwt>
<pdfrwt beam="1">  1        1 0.40656665E+00 0.30000000E+03</pdfrwt>
<pdfrwt beam="2">0</pdfrwt>
<totfact> 0.96516725E-01</totfact>
</mgrwt>
</event>
<event>
 6    1  0.5260809E-006  0.3000000E+03  0.7818608E-02  0.1093470E+00
          1   -1    0    0  502    0  0.00000000000E+00  0.00000000000E+00  0.16128075457E+03  0.16128075457E+03  0.00000000000E+00 0.  1.
         13   -1    0    0    0    0 -0.00000000000E+00 -0.00000000000E+00 -0.10000000000E+04  0.10000000000E+04  0.00000000000E+00 0.  1.
    9000005    2    1    2  501    0 -0.34095528285E+01 -0.11540788808E+02 -0.89563784909E+03  0.11031039353E+04  0.64383718477E+03 0.  0.
         13    1    3    3    0    0 -0.48966560001E+02  0.24699782943E+03 -0.11003169577E+03  0.27479560734E+03  0.00000000000E+00 0.  1.
          1    1    3    3  501    0  0.45557007172E+02 -0.25853861824E+03 -0.78560615333E+03  0.82830832796E+03  0.00000000000E+00 0.  1.
         21    1    1    2  502  501  0.34095528285E+01  0.11540788808E+02  0.56918603665E+02  0.58176819267E+02  0.00000000000E+00 0.  1.
<mgrwt>
<rscale>  1 0.30000000E+03</rscale>
<asrwt>0</asrwt>
<pdfrwt beam="1">  1        1 0.58647671E+00 0.30000000E+03</pdfrwt>
<pdfrwt beam="2">0</pdfrwt>
<totfact> 0.67865487E-02</totfact>
</mgrwt>
</event>
<event>
 6    1  0.5260809E-006  0.3000000E+03  0.7818608E-02  0.1093470E+00
          1   -1    0    0  502    0  0.00000000000E+00  0.00000000000E+00  0.10375626686E+03  0.10375626686E+03  0.00000000000E+00 0.  1.
         13   -1    0    0    0    0 -0.00000000000E+00 -0.00000000000E+00 -0.10000000000E+04  0.10000000000E+04  0.00000000000E+00 0.  1.
    9000005    2    1    2  501    0  0.13647327188E+02 -0.11397037077E+02 -0.88269459696E+03  0.10814018247E+04  0.62447098648E+03 0.  0.
         13    1    3    3    0    0 -0.21861477868E+01  0.19852380482E+03 -0.27205006509E+02  0.20039109935E+03  0.00000000000E+00 0.  1.
          3    1    3    3  501    0  0.15833474974E+02 -0.20992084189E+03 -0.85548959045E+03  0.88101072534E+03  0.00000000000E+00 0.  1.
         21    1    1    2  502  501 -0.13647327188E+02  0.11397037077E+02 -0.13549136180E+02  0.22354442170E+02  0.00000000000E+00 0.  1.
<mgrwt>
<rscale>  1 0.30000000E+03</rscale>
<asrwt>0</asrwt>
<pdfrwt beam="1">  1        1 0.37729631E+00 0.30000000E+03</pdfrwt>
<pdfrwt beam="2">0</pdfrwt>
<totfact> 0.14095188E+00</totfact>
</mgrwt>
</event>
<event>
 6    1  0.5260809E-006  0.3000000E+03  0.7818608E-02  0.1093470E+00
          1   -1    0    0  502    0  0.00000000000E+00  0.00000000000E+00  0.14425565751E+03  0.14425565751E+03  0.00000000000E+00 0.  1.
         13   -1    0    0    0    0 -0.00000000000E+00 -0.00000000000E+00 -0.10000000000E+04  0.10000000000E+04  0.00000000000E+00 0.  1.
    9000005    2    1    2  501    0  0.41815740345E+02  0.88708739258E+02 -0.80710839458E+03  0.10347876165E+04  0.64011222001E+03 0.  0.
         13    1    3    3    0    0 -0.86285136940E+02  0.24394872798E+03 -0.79171821089E+03  0.83293086880E+03  0.00000000000E+00 0.  1.
          1    1    3    3  501    0  0.12810087728E+03 -0.15523998872E+03 -0.15390183686E+02  0.20185674775E+03  0.00000000000E+00 0.  1.
         21    1    1    2  502  501 -0.41815740345E+02 -0.88708739258E+02 -0.48635947913E+02  0.10946804096E+03  0.00000000000E+00 0.  1.
<mgrwt>
<rscale>  1 0.30000000E+03</rscale>
<asrwt>0</asrwt>
<pdfrwt beam="1">  1        1 0.52456713E+00 0.30000000E+03</pdfrwt>
<pdfrwt beam="2">0</pdfrwt>
<totfact> 0.15018252E-01</totfact>
</mgrwt>
</event>
<event>
 6    1  0.5260809E-006  0.3000000E+03  0.7818608E-02  0.1093470E+00
          1   -1    0    0  502    0  0.00000000000E+00  0.00000000000E+00  0.12140246349E+03  0.12140246349E+03  0.00000000000E+00 0.  1.
         13   -1    0    0    0    0 -0.00000000000E+00 -0.00000000000E+00 -0.10000000000E+04  0.10000000000E+04  0.00000000000E+00 0.  1.
    9000005    2    1    2  501    0 -0.14740353915E+01 -0.14753006251E+02 -0.89412401140E+03  0.10999339890E+04  0.64045078534E+03 0.  0.
         13    1    3    3    0    0 -0.12525324250E+03 -0.14627441171E+03 -0.89886684919E+03  0.91926393971E+03  0.00000000000E+00 0.  1.
          1    1    3    3  501    0  0.12377920710E+03  0.13152140546E+03  0.47428377844E+01  0.18067004930E+03  0.00000000000E+00 0.  1.
         21    1    1    2  502  501  0.14740353915E+01  0.14753006251E+02  0.15526474889E+02  0.21468474474E+02  0.00000000000E+00 0. -1.
<mgrwt>
<rscale>  1 0.30000000E+03</rscale>
<asrwt>0</asrwt>
<pdfrwt beam="1">  1        1 0.44146443E+00 0.30000000E+03</pdfrwt>
<pdfrwt beam="2">0</pdfrwt>
<totfact> 0.58639383E-01</totfact>
</mgrwt>
</event>
<event>
 6    1  0.5260809E-006  0.3000000E+03  0.7818608E-02  0.1093470E+00
          1   -1    0    0  502    0  0.00000000000E+00  0.00000000000E+00  0.12239760043E+03  0.12239760043E+03  0.00000000000E+00 0.  1.
         13   -1    0    0    0    0 -0.00000000000E+00 -0.00000000000E+00 -0.10000000000E+04  0.10000000000E+04  0.00000000000E+00 0.  1.
    9000005    2    1    2  501    0  0.82075244672E+01  0.91359843616E+01 -0.89130133654E+03  0.11039994880E+04  0.65134166705E+03 0.  0.
         13    1    3    3    0    0 -0.14002226508E+03  0.12932658977E+03  0.19217829891E+01  0.19061819113E+03  0.00000000000E+00 0.  1.
          1    1    3    3  501    0  0.14822978955E+03 -0.12019060541E+03 -0.89322311953E+03  0.91338129683E+03  0.00000000000E+00 0.  1.
         21    1    1    2  502  501 -0.82075244672E+01 -0.91359843616E+01  0.13698936968E+02  0.18398112462E+02  0.00000000000E+00 0. -1.
<mgrwt>
<rscale>  1 0.30000000E+03</rscale>
<asrwt>0</asrwt>
<pdfrwt beam="1">  1        1 0.44508312E+00 0.30000000E+03</pdfrwt>
<pdfrwt beam="2">0</pdfrwt>
<totfact> 0.55501643E-01</totfact>
</mgrwt>
</event>
<event>
 6    1  0.5260809E-006  0.3000000E+03  0.7818608E-02  0.1093470E+00
          1   -1    0    0  502    0  0.00000000000E+00  0.00000000000E+00  0.12104144388E+03  0.12104144388E+03  0.00000000000E+00 0.  1.
         13   -1    0    0    0    0 -0.00000000000E+00 -0.00000000000E+00 -0.10000000000E+04  0.10000000000E+04  0.00000000000E+00 0.  1.
    9000005    2    1    2  501    0 -0.84201406025E+01  0.77854311465E+01 -0.88219417070E+03  0.11091258697E+04  0.67213252292E+03 0.  0.
         13    1    3    3    0    0 -0.10728620609E+03 -0.26171234157E+03 -0.73285230943E+03  0.78554197035E+03  0.00000000000E+00 0.  1.
          1    1    3    3  501    0  0.98866065486E+02  0.26949777272E+03 -0.14934186126E+03  0.32358389937E+03  0.00000000000E+00 0.  1.
         21    1    1    2  502  501  0.84201406025E+01 -0.77854311465E+01  0.32356145757E+01  0.11915574161E+02  0.00000000000E+00 0. -1.
<mgrwt>
<rscale>  1 0.30000000E+03</rscale>
<asrwt>0</asrwt>
<pdfrwt beam="1">  1        1 0.44015163E+00 0.30000000E+03</pdfrwt>
<pdfrwt beam="2">0</pdfrwt>
<totfact> 0.59808257E-01</totfact>
</mgrwt>
</event>
<event>
 6    1  0.5260809E-006  0.3000000E+03  0.7818608E-02  0.1093470E+00
          1   -1    0    0  502    0  0.00000000000E+00  0.00000000000E+00  0.13765511148E+03  0.13765511148E+03  0.00000000000E+00 0.  1.
         13   -1    0    0    0    0 -0.00000000000E+00 -0.00000000000E+00 -0.10000000000E+04  0.10000000000E+04  0.00000000000E+00 0.  1.
    9000005    2    1    2  501    0  0.79727668275E+02 -0.10986491695E+02 -0.78921972242E+03  0.10289146222E+04  0.65522540051E+03 0.  0.
         13    1    3    3    0    0  0.20736094883E+03  0.10199296800E+03 -0.10036166851E+02  0.23130467627E+03  0.00000000000E+00 0.  1.
          1    1    3    3  501    0 -0.12763328055E+03 -0.11297945969E+03 -0.77918355557E+03  0.79760994596E+03  0.00000000000E+00 0.  1.
         21    1    1    2  502  501 -0.79727668275E+02  0.10986491695E+02 -0.73125166094E+02  0.10874048926E+03  0.00000000000E+00 0. -1.
<mgrwt>
<rscale>  1 0.30000000E+03</rscale>
<asrwt>0</asrwt>
<pdfrwt beam="1">  1        1 0.50056510E+00 0.30000000E+03</pdfrwt>
<pdfrwt beam="2">0</pdfrwt>
<totfact> 0.22620908E-01</totfact>
</mgrwt>
</event>
<event>
 6    1  0.5260809E-006  0.3000000E+03  0.7818608E-02  0.1093470E+00
          1   -1    0    0  502    0  0.00000000000E+00  0.00000000000E+00  0.13825871119E+03  0.13825871119E+03  0.00000000000E+00 0.  1.
         13   -1    0    0    0    0 -0.00000000000E+00 -0.00000000000E+00 -0.10000000000E+04  0.10000000000E+04  0.00000000000E+00 0.  1.
    9000005    2    1    2  501    0 -0.14373125860E+02  0.99186337767E+01 -0.89111502164E+03  0.11040858825E+04  0.65162465271E+03 0.  0.
         13    1    3    3    0    0 -0.98048946914E+02  0.10021726660E+02 -0.97829493938E+03  0.98324718124E+03  0.00000000000E+00 0.  1.
          1    1    3    3  501    0  0.83675821054E+02 -0.10309288295E+00  0.87179917737E+02  0.12083870123E+03  0.00000000000E+00 0.  1.
         21    1    1    2  502  501  0.14373125860E+02 -0.99186337767E+01  0.29373732833E+02  0.34172828732E+02  0.00000000000E+00 0.  1.
<mgrwt>
<rscale>  1 0.30000000E+03</rscale>
<asrwt>0</asrwt>
<pdfrwt beam="1">  1        1 0.50276001E+00 0.30000000E+03</pdfrwt>
<pdfrwt beam="2">0</pdfrwt>
<totfact> 0.21795990E-01</totfact>
</mgrwt>
</event>
<event>
 6    1  0.5260809E-006  0.3000000E+03  0.7818608E-02  0.1093470E+00
          1   -1    0    0  502    0  0.00000000000E+00  0.00000000000E+00  0.13503866418E+03  0.13503866418E+03  0.00000000000E+00 0.  1.
         13   -1    0    0    0    0 -0.00000000000E+00 -0.00000000000E+00 -0.10000000000E+04  0.10000000000E+04  0.00000000000E+00 0.  1.
    9000005    2    1    2  501    0  0.14296032205E+02  0.33639930147E+01 -0.89171215651E+03  0.11045214659E+04  0.65161446078E+03 0.  0.
         13    1    3    3    0    0  0.49893008045E+02  0.22953039723E+03 -0.83671199227E+03  0.86905723258E+03  0.00000000000E+00 0.  1.
          3    1    3    3  501    0 -0.35596975840E+02 -0.22616640422E+03 -0.55000164244E+02  0.23546423328E+03  0.00000000000E+00 0.  1.
         21    1    1    2  502  501 -0.14296032205E+02 -0.33639930147E+01  0.26750820685E+02  0.30517198317E+02  0.00000000000E+00 0. -1.
<mgrwt>
<rscale>  1 0.30000000E+03</rscale>
<asrwt>0</asrwt>
<pdfrwt beam="1">  1        1 0.49105072E+00 0.30000000E+03</pdfrwt>
<pdfrwt beam="2">0</pdfrwt>
<totfact> 0.26561562E-01</totfact>
</mgrwt>
</event>
<event>
 6    1  0.5260809E-006  0.3000000E+03  0.7818608E-02  0.1093470E+00
          1   -1    0    0  502    0  0.00000000000E+00  0.00000000000E+00  0.10698517837E+03  0.10698517837E+03  0.00000000000E+00 0.  1.
         13   -1    0    0    0    0 -0.00000000000E+00 -0.00000000000E+00 -0.10000000000E+04  0.10000000000E+04  0.00000000000E+00 0.  1.
    9000005    2    1    2  501    0 -0.11107147324E+02 -0.30638405808E+01 -0.87628464348E+03  0.10866712742E+04  0.64253165369E+03 0.  0.
         13    1    3    3    0    0 -0.28750411955E+03 -0.87671773540E+02 -0.22930435741E+03  0.37805482005E+03  0.00000000000E+00 0.  1.
          3    1    3    3  501    0  0.27639697223E+03  0.84607932959E+02 -0.64698028607E+03  0.70861645418E+03  0.00000000000E+00 0.  1.
         21    1    1    2  502  501  0.11107147324E+02  0.30638405808E+01 -0.16730178143E+02  0.20313904142E+02  0.00000000000E+00 0. -1.
<mgrwt>
<rscale>  1 0.30000000E+03</rscale>
<asrwt>0</asrwt>
<pdfrwt beam="1">  1        1 0.38903783E+00 0.30000000E+03</pdfrwt>
<pdfrwt beam="2">0</pdfrwt>
<totfact> 0.12141419E+00</totfact>
</mgrwt>
</event>
<event>
 6    1  0.5260809E-006  0.3000000E+03  0.7818608E-02  0.1093470E+00
          1   -1    0    0  502    0  0.00000000000E+00  0.00000000000E+00  0.11221432517E+03  0.11221432517E+03  0.00000000000E+00 0.  1.
         13   -1    0    0    0    0 -0.00000000000E+00 -0.00000000000E+00 -0.10000000000E+04  0.10000000000E+04  0.00000000000E+00 0.  1.
    9000005    2    1    2  501    0 -0.33149736015E+01  0.16812603115E+02 -0.88083942339E+03  0.10937237037E+04  0.64812020302E+03 0.  0.
         13    1    3    3    0    0 -0.12065176784E+03 -0.97817814253E+02 -0.91337837478E+03  0.92649081451E+03  0.00000000000E+00 0.  1.
          3    1    3    3  501    0  0.11733679424E+03  0.11463041737E+03  0.32538951381E+02  0.16723288919E+03  0.00000000000E+00 0.  1.
         21    1    1    2  502  501  0.33149736015E+01 -0.16812603115E+02 -0.69462514328E+01  0.18490621473E+02  0.00000000000E+00 0. -1.
<mgrwt>
<rscale>  1 0.30000000E+03</rscale>
<asrwt>0</asrwt>
<pdfrwt beam="1">  1        1 0.40805295E+00 0.30000000E+03</pdfrwt>
<pdfrwt beam="2">0</pdfrwt>
<totfact> 0.94601408E-01</totfact>
</mgrwt>
</event>
<event>
 6    1  0.5260809E-006  0.3000000E+03  0.7818608E-02  0.1093470E+00
          1   -1    0    0  502    0  0.00000000000E+00  0.00000000000E+00  0.15448842546E+03  0.15448842546E+03  0.00000000000E+00 0.  1.
         13   -1    0    0    0    0 -0.00000000000E+00 -0.00000000000E+00 -0.10000000000E+04  0.10000000000E+04  0.00000000000E+00 0.  1.
    9000005    2    1    2  501    0 -0.13845125301E+02  0.27153140558E+01 -0.89427653330E+03  0.11037234609E+04  0.64674252967E+03 0.  0.
         13    1    3    3    0    0 -0.21396347656E+03 -0.16575799733E+03 -0.13866602053E+03  0.30411239408E+03  0.00000000000E+00 0.  1.
          1    1    3    3  501    0  0.20011835126E+03  0.16847331139E+03 -0.75561051277E+03  0.79961106681E+03  0.00000000000E+00 0.  1.
         21    1    1    2  502  501  0.13845125301E+02 -0.27153140558E+01  0.48764958764E+02  0.50764964574E+02  0.00000000000E+00 0.  1.
<mgrwt>
<rscale>  1 0.30000000E+03</rscale>
<asrwt>0</asrwt>
<pdfrwt beam="1">  1        1 0.56177728E+00 0.30000000E+03</pdfrwt>
<pdfrwt beam="2">0</pdfrwt>
<totfact> 0.84379510E-02</totfact>
</mgrwt>
</event>
<event>
 6    1  0.5260809E-006  0.3000000E+03  0.7818608E-02  0.1093470E+00
          1   -1    0    0  502    0  0.00000000000E+00  0.00000000000E+00  0.11495325144E+03  0.11495325144E+03  0.00000000000E+00 0.  1.
         13   -1    0    0    0    0 -0.00000000000E+00 -0.00000000000E+00 -0.10000000000E+04  0.10000000000E+04  0.00000000000E+00 0.  1.
    9000005    2    1    2  501    0  0.19022298699E+02  0.81696302746E+01 -0.85017840587E+03  0.10744021475E+04  0.65658819826E+03 0.  0.
         13    1    3    3    0    0 -0.11949893123E+03  0.18744642193E+03 -0.81543942658E+03  0.84519679015E+03  0.00000000000E+00 0.  1.
          1    1    3    3  501    0  0.13852122993E+03 -0.17927679166E+03 -0.34738979291E+02  0.22920535738E+03  0.00000000000E+00 0.  1.
         21    1    1    2  502  501 -0.19022298699E+02 -0.81696302746E+01 -0.34868342690E+02  0.40551103913E+02  0.00000000000E+00 0. -1.
<mgrwt>
<rscale>  1 0.30000000E+03</rscale>
<asrwt>0</asrwt>
<pdfrwt beam="1">  1        1 0.41801270E+00 0.30000000E+03</pdfrwt>
<pdfrwt beam="2">0</pdfrwt>
<totfact> 0.82481735E-01</totfact>
</mgrwt>
</event>
<event>
 6    1  0.5260809E-006  0.3000000E+03  0.7818608E-02  0.1093470E+00
          1   -1    0    0  502    0  0.00000000000E+00  0.00000000000E+00  0.11771445959E+03  0.11771445959E+03  0.00000000000E+00 0.  1.
         13   -1    0    0    0    0 -0.00000000000E+00 -0.00000000000E+00 -0.10000000000E+04  0.10000000000E+04  0.00000000000E+00 0.  1.
    9000005    2    1    2  501    0 -0.15999778373E+02 -0.67286399476E+01 -0.88821319202E+03  0.10993731249E+04  0.64760892971E+03 0.  0.
         13    1    3    3    0    0 -0.22123658284E+03 -0.24197816906E+03 -0.36982739138E+03  0.49423816051E+03  0.00000000000E+00 0.  1.
          1    1    3    3  501    0  0.20523680447E+03  0.23524952912E+03 -0.51838580064E+03  0.60513496442E+03  0.00000000000E+00 0.  1.
         21    1    1    2  502  501  0.15999778373E+02  0.67286399476E+01  0.59276516095E+01  0.18341334660E+02  0.00000000000E+00 0.  1.
<mgrwt>
<rscale>  1 0.30000000E+03</rscale>
<asrwt>0</asrwt>
<pdfrwt beam="1">  1        1 0.42805348E+00 0.30000000E+03</pdfrwt>
<pdfrwt beam="2">0</pdfrwt>
<totfact> 0.71454553E-01</totfact>
</mgrwt>
</event>
<event>
 6    1  0.5260809E-006  0.3000000E+03  0.7818608E-02  0.1093470E+00
          1   -1    0    0  502    0  0.00000000000E+00  0.00000000000E+00  0.13189889813E+03  0.13189889813E+03  0.00000000000E+00 0.  1.
         13   -1    0    0    0    0 -0.00000000000E+00 -0.00000000000E+00 -0.10000000000E+04  0.10000000000E+04  0.00000000000E+00 0.  1.
    9000005    2    1    2  501    0  0.34309554855E+01  0.10200203948E+02 -0.88257271601E+03  0.11138643970E+04  0.67944350772E+03 0.  0.
         13    1    3    3    0    0 -0.12067682428E+03 -0.15434036070E+03  0.11586663087E+02  0.19626027010E+03  0.00000000000E+00 0.  1.
          3    1    3    3  501    0  0.12410777977E+03  0.16454056465E+03 -0.89415937910E+03  0.91760412687E+03  0.00000000000E+00 0.  1.
         21    1    1    2  502  501 -0.34309554855E+01 -0.10200203948E+02  0.14471614146E+02  0.18034501161E+02  0.00000000000E+00 0.  1.
<mgrwt>
<rscale>  1 0.30000000E+03</rscale>
<asrwt>0</asrwt>
<pdfrwt beam="1">  1        1 0.47963337E+00 0.30000000E+03</pdfrwt>
<pdfrwt beam="2">0</pdfrwt>
<totfact> 0.32133593E-01</totfact>
</mgrwt>
</event>
<event>
 6    1  0.5260809E-006  0.3000000E+03  0.7818608E-02  0.1093470E+00
          1   -1    0    0  502    0  0.00000000000E+00  0.00000000000E+00  0.12068710526E+03  0.12068710526E+03  0.00000000000E+00 0.  1.
         13   -1    0    0    0    0 -0.00000000000E+00 -0.00000000000E+00 -0.10000000000E+04  0.10000000000E+04  0.00000000000E+00 0.  1.
    9000005    2    1    2  501    0  0.19886125663E+02 -0.71041312112E+01 -0.88738138755E+03  0.10980811934E+04  0.64644462539E+03 0.  0.
         13    1    3    3    0    0 -0.32797347074E+02 -0.29320089787E+03 -0.67874378678E+03  0.74009158931E+03  0.00000000000E+00 0.  1.
          3    1    3    3  501    0  0.52683472737E+02  0.28609676665E+03 -0.20863760077E+03  0.35798960410E+03  0.00000000000E+00 0.  1.
         21    1    1    2  502  501 -0.19886125663E+02  0.71041312112E+01  0.80684928113E+01  0.22605911846E+02  0.00000000000E+00 0. -1.
<mgrwt>
<rscale>  1 0.30000000E+03</rscale>
<asrwt>0</asrwt>
<pdfrwt beam="1">  1        1 0.43886313E+00 0.30000000E+03</pdfrwt>
<pdfrwt beam="2">0</pdfrwt>
<totfact> 0.60971994E-01</totfact>
</mgrwt>
</event>
<event>
 6    1  0.5260809E-006  0.3000000E+03  0.7818608E-02  0.1093470E+00
          1   -1    0    0  502    0  0.00000000000E+00  0.00000000000E+00  0.11290853152E+03  0.11290853152E+03  0.00000000000E+00 0.  1.
         13   -1    0    0    0    0 -0.00000000000E+00 -0.00000000000E+00 -0.10000000000E+04  0.10000000000E+04  0.00000000000E+00 0.  1.
    9000005    2    1    2  501    0  0.43135424824E+01  0.96120910856E+01 -0.87801881223E+03  0.10990048617E+04  0.66089609805E+03 0.  0.
         13    1    3    3    0    0  0.18170656337E+03 -0.17306247033E+03 -0.79110167636E+03  0.82994563445E+03  0.00000000000E+00 0.  1.
          1    1    3    3  501    0 -0.17739302088E+03  0.18267456142E+03 -0.86917135872E+02  0.26905922723E+03  0.00000000000E+00 0.  1.
         21    1    1    2  502  501 -0.43135424824E+01 -0.96120910856E+01 -0.90726562446E+01  0.13903669844E+02  0.00000000000E+00 0. -1.
<mgrwt>
<rscale>  1 0.30000000E+03</rscale>
<asrwt>0</asrwt>
<pdfrwt beam="1">  1        1 0.41057734E+00 0.30000000E+03</pdfrwt>
<pdfrwt beam="2">0</pdfrwt>
<totfact> 0.91413011E-01</totfact>
</mgrwt>
</event>
<event>
 6    1  0.5260809E-006  0.3000000E+03  0.7818608E-02  0.1093470E+00
          1   -1    0    0  502    0  0.00000000000E+00  0.00000000000E+00  0.12811161129E+03  0.12811161129E+03  0.00000000000E+00 0.  1.
         13   -1    0    0    0    0 -0.00000000000E+00 -0.00000000000E+00 -0.10000000000E+04  0.10000000000E+04  0.00000000000E+00 0.  1.
    9000005    2    1    2  501    0  0.29300427367E+02 -0.29093602795E+02 -0.87028040231E+03  0.10867892398E+04  0.64962906360E+03 0.  0.
         13    1    3    3    0    0 -0.20089258684E+03  0.22713843919E+03 -0.46194160726E+03  0.55257556092E+03  0.00000000000E+00 0.  1.
          1    1    3    3  501    0  0.23019301421E+03 -0.25623204199E+03 -0.40833879505E+03  0.53421367885E+03  0.00000000000E+00 0.  1.
         21    1    1    2  502  501 -0.29300427367E+02  0.29093602795E+02 -0.16079863950E+01  0.41322371517E+02  0.00000000000E+00 0.  1.
<mgrwt>
<rscale>  1 0.30000000E+03</rscale>
<asrwt>0</asrwt>
<pdfrwt beam="1">  1        1 0.46586139E+00 0.30000000E+03</pdfrwt>
<pdfrwt beam="2">0</pdfrwt>
<totfact> 0.40184114E-01</totfact>
</mgrwt>
</event>
<event>
 6    1  0.5260809E-006  0.3000000E+03  0.7818608E-02  0.1093470E+00
          1   -1    0    0  502    0  0.00000000000E+00  0.00000000000E+00  0.10547762072E+03  0.10547762072E+03  0.00000000000E+00 0.  1.
         13   -1    0    0    0    0 -0.00000000000E+00 -0.00000000000E+00 -0.10000000000E+04  0.10000000000E+04  0.00000000000E+00 0.  1.
    9000005    2    1    2  501    0  0.54821021787E+01 -0.13638701225E+02 -0.88136486113E+03  0.10857497749E+04  0.63390258537E+03 0.  0.
         13    1    3    3    0    0 -0.61886571626E+02 -0.22320668695E+03 -0.82725003088E+03  0.85906564734E+03  0.00000000000E+00 0.  1.
          1    1    3    3  501    0  0.67368673805E+02  0.20956798573E+03 -0.54114830246E+02  0.22668412760E+03  0.00000000000E+00 0.  1.
         21    1    1    2  502  501 -0.54821021787E+01  0.13638701225E+02 -0.13157518147E+02  0.19727845782E+02  0.00000000000E+00 0. -1.
<mgrwt>
<rscale>  1 0.30000000E+03</rscale>
<asrwt>0</asrwt>
<pdfrwt beam="1">  1        1 0.38355579E+00 0.30000000E+03</pdfrwt>
<pdfrwt beam="2">0</pdfrwt>
<totfact> 0.13023493E+00</totfact>
</mgrwt>
</event>
<event>
 6    1  0.5260809E-006  0.3000000E+03  0.7818608E-02  0.1093470E+00
          1   -1    0    0  502    0  0.00000000000E+00  0.00000000000E+00  0.12450184756E+03  0.12450184756E+03  0.00000000000E+00 0.  1.
         13   -1    0    0    0    0 -0.00000000000E+00 -0.00000000000E+00 -0.10000000000E+04  0.10000000000E+04  0.00000000000E+00 0.  1.
    9000005    2    1    2  501    0 -0.17943729508E+02  0.10682743991E+02 -0.87450814191E+03  0.11035954235E+04  0.67284639403E+03 0.  0.
         13    1    3    3    0    0  0.27966507716E+03 -0.88837723190E+02 -0.18727129413E+03  0.34810233272E+03  0.00000000000E+00 0.  1.
          3    1    3    3  501    0 -0.29760880667E+03  0.99520467182E+02 -0.68723684779E+03  0.75549309074E+03  0.00000000000E+00 0.  1.
         21    1    1    2  502  501  0.17943729508E+02 -0.10682743991E+02 -0.99001052734E+00  0.20906424101E+02  0.00000000000E+00 0.  1.
<mgrwt>
<rscale>  1 0.30000000E+03</rscale>
<asrwt>0</asrwt>
<pdfrwt beam="1">  1        1 0.45273495E+00 0.30000000E+03</pdfrwt>
<pdfrwt beam="2">0</pdfrwt>
<totfact> 0.49323075E-01</totfact>
</mgrwt>
</event>
<event>
 6    1  0.5260809E-006  0.3000000E+03  0.7818608E-02  0.1093470E+00
          1   -1    0    0  502    0  0.00000000000E+00  0.00000000000E+00  0.13277158717E+03  0.13277158717E+03  0.00000000000E+00 0.  1.
         13   -1    0    0    0    0 -0.00000000000E+00 -0.00000000000E+00 -0.10000000000E+04  0.10000000000E+04  0.00000000000E+00 0.  1.
    9000005    2    1    2  501    0 -0.36278522338E+02  0.27381846863E+02 -0.87013732093E+03  0.10872264616E+04  0.65027419196E+03 0.  0.
         13    1    3    3    0    0  0.18287791391E+03 -0.55934739819E+02 -0.54524428728E+01  0.19131846656E+03  0.00000000000E+00 0.  1.
          1    1    3    3  501    0 -0.21915643625E+03  0.83316586682E+02 -0.86468487805E+03  0.89590799500E+03  0.00000000000E+00 0.  1.
         21    1    1    2  502  501  0.36278522338E+02 -0.27381846863E+02  0.29089080969E+01  0.45545125611E+02  0.00000000000E+00 0. -1.
<mgrwt>
<rscale>  1 0.30000000E+03</rscale>
<asrwt>0</asrwt>
<pdfrwt beam="1">  1        1 0.48280679E+00 0.30000000E+03</pdfrwt>
<pdfrwt beam="2">0</pdfrwt>
<totfact> 0.30488292E-01</totfact>
</mgrwt>
</event>
<event>
 6    1  0.5260809E-006  0.3000000E+03  0.7818608E-02  0.1093470E+00
          1   -1    0    0  502    0  0.00000000000E+00  0.00000000000E+00  0.10824874193E+03  0.10824874193E+03  0.00000000000E+00 0.  1.
         13   -1    0    0    0    0 -0.00000000000E+00 -0.00000000000E+00 -0.10000000000E+04  0.10000000000E+04  0.00000000000E+00 0.  1.
    9000005    2    1    2  501    0 -0.21993308608E+01  0.68938136885E+01 -0.88217473973E+03  0.10962457662E+04  0.65074583881E+03 0.  0.
         13    1    3    3    0    0 -0.30978844780E+03  0.69048321571E+02 -0.57691511317E+03  0.65845850355E+03  0.00000000000E+00 0.  1.
          1    1    3    3  501    0  0.30758911694E+03 -0.62154507882E+02 -0.30525962657E+03  0.43778726263E+03  0.00000000000E+00 0.  1.
         21    1    1    2  502  501  0.21993308608E+01 -0.68938136885E+01 -0.95765183351E+01  0.12002975749E+02  0.00000000000E+00 0. -1.
<mgrwt>
<rscale>  1 0.30000000E+03</rscale>
<asrwt>0</asrwt>
<pdfrwt beam="1">  1        1 0.39363262E+00 0.30000000E+03</pdfrwt>
<pdfrwt beam="2">0</pdfrwt>
<totfact> 0.11442298E+00</totfact>
</mgrwt>
</event>
<event>
 6    1  0.5260809E-006  0.3000000E+03  0.7818608E-02  0.1093470E+00
          1   -1    0    0  502    0  0.00000000000E+00  0.00000000000E+00  0.96089474276E+02  0.96089474276E+02  0.00000000000E+00 0.  1.
         13   -1    0    0    0    0 -0.00000000000E+00 -0.00000000000E+00 -0.10000000000E+04  0.10000000000E+04  0.00000000000E+00 0.  1.
    9000005    2    1    2  501    0 -0.12599383908E+02  0.65487880013E+01 -0.90236937160E+03  0.10818063984E+04  0.59651736757E+03 0.  0.
         13    1    3    3    0    0 -0.22835772936E+03  0.78580490062E+02 -0.79386938557E+03  0.82978958015E+03  0.00000000000E+00 0.  1.
          3    1    3    3  501    0  0.21575834546E+03 -0.72031702061E+02 -0.10849998603E+03  0.25201681830E+03  0.00000000000E+00 0.  1.
         21    1    1    2  502  501  0.12599383908E+02 -0.65487880013E+01 -0.15411541249E+01  0.14283075831E+02  0.00000000000E+00 0.  1.
<mgrwt>
<rscale>  1 0.30000000E+03</rscale>
<asrwt>0</asrwt>
<pdfrwt beam="1">  1        1 0.34941701E+00 0.30000000E+03</pdfrwt>
<pdfrwt beam="2">0</pdfrwt>
<totfact> 0.19826243E+00</totfact>
</mgrwt>
</event>
<event>
 6    1  0.5260809E-006  0.3000000E+03  0.7818608E-02  0.1093470E+00
          1   -1    0    0  502    0  0.00000000000E+00  0.00000000000E+00  0.10832990402E+03  0.10832990402E+03  0.00000000000E+00 0.  1.
         13   -1    0    0    0    0 -0.00000000000E+00 -0.00000000000E+00 -0.10000000000E+04  0.10000000000E+04  0.00000000000E+00 0.  1.
    9000005    2    1    2  501    0  0.93767585668E+01 -0.24219752172E+01 -0.88778509595E+03  0.10978952123E+04  0.64584652289E+03 0.  0.
         13    1    3    3    0    0  0.14667793646E+03  0.28707586994E+03 -0.49925976280E+03  0.59429561912E+03  0.00000000000E+00 0.  1.
          3    1    3    3  501    0 -0.13730117789E+03 -0.28949784516E+03 -0.38852533315E+03  0.50359959323E+03  0.00000000000E+00 0.  1.
         21    1    1    2  502  501 -0.93767585668E+01  0.24219752172E+01 -0.38850000294E+01  0.10434691677E+02  0.00000000000E+00 0. -1.
<mgrwt>
<rscale>  1 0.30000000E+03</rscale>
<asrwt>0</asrwt>
<pdfrwt beam="1">  1        1 0.39392775E+00 0.30000000E+03</pdfrwt>
<pdfrwt beam="2">0</pdfrwt>
<totfact> 0.11398656E+00</totfact>
</mgrwt>
</event>
<event>
 6    1  0.5260809E-006  0.3000000E+03  0.7818608E-02  0.1093470E+00
          1   -1    0    0  502    0  0.00000000000E+00  0.00000000000E+00  0.11756194605E+03  0.11756194605E+03  0.00000000000E+00 0.  1.
         13   -1    0    0    0    0 -0.00000000000E+00 -0.00000000000E+00 -0.10000000000E+04  0.10000000000E+04  0.00000000000E+00 0.  1.
    9000005    2    1    2  501    0  0.15138294879E+02  0.26709634326E+01 -0.89687169721E+03  0.10964756454E+04  0.63058996002E+03 0.  0.
         13    1    3    3    0    0 -0.29887711979E+03  0.75610611039E+02 -0.44861789492E+03  0.54433676422E+03  0.00000000000E+00 0.  1.
          1    1    3    3  501    0  0.31401541467E+03 -0.72939647606E+02 -0.44825380229E+03  0.55213888118E+03  0.00000000000E+00 0.  1.
         21    1    1    2  502  501 -0.15138294879E+02 -0.26709634326E+01  0.14433643258E+02  0.21086300652E+02  0.00000000000E+00 0.  1.
<mgrwt>
<rscale>  1 0.30000000E+03</rscale>
<asrwt>0</asrwt>
<pdfrwt beam="1">  1        1 0.42749889E+00 0.30000000E+03</pdfrwt>
<pdfrwt beam="2">0</pdfrwt>
<totfact> 0.72030237E-01</totfact>
</mgrwt>
</event>
<event>
 6    1  0.5260809E-006  0.3000000E+03  0.7818608E-02  0.1093470E+00
          1   -1    0    0  502    0  0.00000000000E+00  0.00000000000E+00  0.11151890356E+03  0.11151890356E+03  0.00000000000E+00 0.  1.
         13   -1    0    0    0    0 -0.00000000000E+00 -0.00000000000E+00 -0.10000000000E+04  0.10000000000E+04  0.00000000000E+00 0.  1.
    9000005    2    1    2  501    0 -0.46564625218E+01  0.10826175353E+02 -0.88581364340E+03  0.10994356912E+04  0.65111760801E+03 0.  0.
         13    1    3    3    0    0  0.36250305120E+01  0.33091084778E+03 -0.44049288389E+03  0.55095291158E+03  0.00000000000E+00 0.  1.
          3    1    3    3  501    0 -0.82814930337E+01 -0.32008467243E+03 -0.44532075952E+03  0.54848277959E+03  0.00000000000E+00 0.  1.
         21    1    1    2  502  501  0.46564625218E+01 -0.10826175353E+02 -0.26674530393E+01  0.12083212392E+02  0.00000000000E+00 0.  1.
<mgrwt>
<rscale>  1 0.30000000E+03</rscale>
<asrwt>0</asrwt>
<pdfrwt beam="1">  1        1 0.40552414E+00 0.30000000E+03</pdfrwt>
<pdfrwt beam="2">0</pdfrwt>
<totfact> 0.97877144E-01</totfact>
</mgrwt>
</event>
<event>
 6    1  0.5260809E-006  0.3000000E+03  0.7818608E-02  0.1093470E+00
          1   -1    0    0  502    0  0.00000000000E+00  0.00000000000E+00  0.12916521597E+03  0.12916521597E+03  0.00000000000E+00 0.  1.
         13   -1    0    0    0    0 -0.00000000000E+00 -0.00000000000E+00 -0.10000000000E+04  0.10000000000E+04  0.00000000000E+00 0.  1.
    9000005    2    1    2  501    0 -0.11216658672E+02 -0.77679352380E+01 -0.89157059531E+03  0.11043432878E+04  0.65152883021E+03 0.  0.
         13    1    3    3    0    0 -0.27198138097E+03  0.13380551112E+03 -0.23400052060E+03  0.38292823093E+03  0.00000000000E+00 0.  1.
          1    1    3    3  501    0  0.26076472230E+03 -0.14157344635E+03 -0.65757007471E+03  0.72141505685E+03  0.00000000000E+00 0.  1.
         21    1    1    2  502  501  0.11216658672E+02  0.77679352380E+01  0.20735811280E+02  0.24821928190E+02  0.00000000000E+00 0.  1.
<mgrwt>
<rscale>  1 0.30000000E+03</rscale>
<asrwt>0</asrwt>
<pdfrwt beam="1">  1        1 0.46969268E+00 0.30000000E+03</pdfrwt>
<pdfrwt beam="2">0</pdfrwt>
<totfact> 0.37791692E-01</totfact>
</mgrwt>
</event>
<event>
 6    1  0.5260809E-006  0.3000000E+03  0.7818608E-02  0.1093470E+00
          1   -1    0    0  502    0  0.00000000000E+00  0.00000000000E+00  0.11859229542E+03  0.11859229542E+03  0.00000000000E+00 0.  1.
         13   -1    0    0    0    0 -0.00000000000E+00 -0.00000000000E+00 -0.10000000000E+04  0.10000000000E+04  0.00000000000E+00 0.  1.
    9000005    2    1    2  501    0 -0.81881674915E+01 -0.10646673239E+02 -0.89120436328E+03  0.11019678478E+04  0.64800271809E+03 0.  0.
         13    1    3    3    0    0 -0.25364994397E+03  0.19783183198E+03 -0.50956931724E+03  0.60260817858E+03  0.00000000000E+00 0.  1.
          3    1    3    3  501    0  0.24546177648E+03 -0.20847850522E+03 -0.38163504604E+03  0.49935966919E+03  0.00000000000E+00 0.  1.
         21    1    1    2  502  501  0.81881674915E+01  0.10646673239E+02  0.97966587031E+01  0.16624447650E+02  0.00000000000E+00 0. -1.
<mgrwt>
<rscale>  1 0.30000000E+03</rscale>
<asrwt>0</asrwt>
<pdfrwt beam="1">  1        1 0.43124562E+00 0.30000000E+03</pdfrwt>
<pdfrwt beam="2">0</pdfrwt>
<totfact> 0.68217369E-01</totfact>
</mgrwt>
</event>
<event>
 6    1  0.5260809E-006  0.3000000E+03  0.7818608E-02  0.1093470E+00
          1   -1    0    0  502    0  0.00000000000E+00  0.00000000000E+00  0.10665797087E+03  0.10665797087E+03  0.00000000000E+00 0.  1.
         13   -1    0    0    0    0 -0.00000000000E+00 -0.00000000000E+00 -0.10000000000E+04  0.10000000000E+04  0.00000000000E+00 0.  1.
    9000005    2    1    2  501    0  0.70359923371E+01 -0.61610325299E+01 -0.89073858101E+03  0.10969501672E+04  0.64015387689E+03 0.  0.
         13    1    3    3    0    0  0.25334530794E+03  0.19678181336E+03 -0.46288365976E+03  0.56317689015E+03  0.00000000000E+00 0.  1.
          1    1    3    3  501    0 -0.24630931561E+03 -0.20294284589E+03 -0.42785492125E+03  0.53377327705E+03  0.00000000000E+00 0.  1.
         21    1    1    2  502  501 -0.70359923371E+01  0.61610325299E+01 -0.26034481223E+01  0.97078036717E+01  0.00000000000E+00 0. -1.
<mgrwt>
<rscale>  1 0.30000000E+03</rscale>
<asrwt>0</asrwt>
<pdfrwt beam="1">  1        1 0.38784798E+00 0.30000000E+03</pdfrwt>
<pdfrwt beam="2">0</pdfrwt>
<totfact> 0.12328426E+00</totfact>
</mgrwt>
</event>
<event>
 6    1  0.5260809E-006  0.3000000E+03  0.7818608E-02  0.1093470E+00
          1   -1    0    0  502    0  0.00000000000E+00  0.00000000000E+00  0.11112282133E+03  0.11112282133E+03  0.00000000000E+00 0.  1.
         13   -1    0    0    0    0 -0.00000000000E+00 -0.00000000000E+00 -0.10000000000E+04  0.10000000000E+04  0.00000000000E+00 0.  1.
    9000005    2    1    2  501    0  0.54864146370E+01  0.88786877919E+01 -0.88989645904E+03  0.11006361262E+04  0.64759187968E+03 0.  0.
         13    1    3    3    0    0 -0.16010275314E+03  0.27849852914E+03 -0.35175125591E+03  0.47636463799E+03  0.00000000000E+00 0.  1.
          3    1    3    3  501    0  0.16558916777E+03 -0.26961984134E+03 -0.53814520313E+03  0.62427148820E+03  0.00000000000E+00 0.  1.
         21    1    1    2  502  501 -0.54864146370E+01 -0.88786877919E+01  0.10192803726E+01  0.10486695140E+02  0.00000000000E+00 0.  1.
<mgrwt>
<rscale>  1 0.30000000E+03</rscale>
<asrwt>0</asrwt>
<pdfrwt beam="1">  1        1 0.40408384E+00 0.30000000E+03</pdfrwt>
<pdfrwt beam="2">0</pdfrwt>
<totfact> 0.99779901E-01</totfact>
</mgrwt>
</event>
<event>
 6    1  0.5260809E-006  0.3000000E+03  0.7818608E-02  0.1093470E+00
          1   -1    0    0  502    0  0.00000000000E+00  0.00000000000E+00  0.11218215512E+03  0.11218215512E+03  0.00000000000E+00 0.  1.
         13   -1    0    0    0    0 -0.00000000000E+00 -0.00000000000E+00 -0.10000000000E+04  0.10000000000E+04  0.00000000000E+00 0.  1.
    9000005    2    1    2  501    0 -0.67418845190E+01  0.81799666978E+01 -0.87926257118E+03  0.10985602033E+04  0.65849790161E+03 0.  0.
         13    1    3    3    0    0  0.24962360070E+02 -0.29365600599E+03 -0.20458956385E+03  0.35876713745E+03  0.00000000000E+00 0.  1.
          3    1    3    3  501    0 -0.31704244589E+02  0.30183597269E+03 -0.67467300732E+03  0.73979306589E+03  0.00000000000E+00 0.  1.
         21    1    1    2  502  501  0.67418845190E+01 -0.81799666978E+01 -0.85552737040E+01  0.13621951776E+02  0.00000000000E+00 0.  1.
<mgrwt>
<rscale>  1 0.30000000E+03</rscale>
<asrwt>0</asrwt>
<pdfrwt beam="1">  1        1 0.40793597E+00 0.30000000E+03</pdfrwt>
<pdfrwt beam="2">0</pdfrwt>
<totfact> 0.94751129E-01</totfact>
</mgrwt>
</event>
<event>
 6    1  0.5260809E-006  0.3000000E+03  0.7818608E-02  0.1093470E+00
          1   -1    0    0  502    0  0.00000000000E+00  0.00000000000E+00  0.11026919110E+03  0.11026919110E+03  0.00000000000E+00 0.  1.
         13   -1    0    0    0    0 -0.00000000000E+00 -0.00000000000E+00 -0.10000000000E+04  0.10000000000E+04  0.00000000000E+00 0.  1.
    9000005    2    1    2  501    0 -0.13821484282E+02 -0.24383187925E+02 -0.87846642654E+03  0.10800622450E+04  0.62773052920E+03 0.  0.
         13    1    3    3    0    0  0.24144516479E+03  0.17309562566E+03 -0.33290136594E+03  0.44618514394E+03  0.00000000000E+00 0.  1.
          3    1    3    3  501    0 -0.25526664907E+03 -0.19747881359E+03 -0.54556506060E+03  0.63387710109E+03  0.00000000000E+00 0.  1.
         21    1    1    2  502  501  0.13821484282E+02  0.24383187925E+02 -0.11264382356E+02  0.30206946072E+02  0.00000000000E+00 0.  1.
<mgrwt>
<rscale>  1 0.30000000E+03</rscale>
<asrwt>0</asrwt>
<pdfrwt beam="1">  1        1 0.40097972E+00 0.30000000E+03</pdfrwt>
<pdfrwt beam="2">0</pdfrwt>
<totfact> 0.10396908E+00</totfact>
</mgrwt>
</event>
<event>
 6    1  0.5260809E-006  0.3000000E+03  0.7818608E-02  0.1093470E+00
          1   -1    0    0  502    0  0.00000000000E+00  0.00000000000E+00  0.12189833769E+03  0.12189833769E+03  0.00000000000E+00 0.  1.
         13   -1    0    0    0    0 -0.00000000000E+00 -0.00000000000E+00 -0.10000000000E+04  0.10000000000E+04  0.00000000000E+00 0.  1.
    9000005    2    1    2  501    0  0.23906227980E+01 -0.13372964470E+02 -0.86437000279E+03  0.11025822892E+04  0.68437391204E+03 0.  0.
         13    1    3    3    0    0 -0.14559194935E+03  0.26732141461E+03 -0.19415435645E+03  0.36104524447E+03  0.00000000000E+00 0.  1.
          1    1    3    3  501    0  0.14798257215E+03 -0.28069437909E+03 -0.67021564633E+03  0.74153704473E+03  0.00000000000E+00 0.  1.
         21    1    1    2  502  501 -0.23906227980E+01  0.13372964470E+02 -0.13731659521E+02  0.19316048491E+02  0.00000000000E+00 0. -1.
<mgrwt>
<rscale>  1 0.30000000E+03</rscale>
<asrwt>0</asrwt>
<pdfrwt beam="1">  1        1 0.44326762E+00 0.30000000E+03</pdfrwt>
<pdfrwt beam="2">0</pdfrwt>
<totfact> 0.57059946E-01</totfact>
</mgrwt>
</event>
<event>
 6    1  0.5260809E-006  0.3000000E+03  0.7818608E-02  0.1093470E+00
          1   -1    0    0  502    0  0.00000000000E+00  0.00000000000E+00  0.12328146982E+03  0.12328146982E+03  0.00000000000E+00 0.  1.
         13   -1    0    0    0    0 -0.00000000000E+00 -0.00000000000E+00 -0.10000000000E+04  0.10000000000E+04  0.00000000000E+00 0.  1.
    9000005    2    1    2  501    0 -0.36342423876E+02 -0.31655298507E+02 -0.84273765839E+03  0.10643108895E+04  0.64825001268E+03 0.  0.
         13    1    3    3    0    0  0.17933427264E+03  0.14620103816E+03 -0.72491317301E+03  0.76094325236E+03  0.00000000000E+00 0.  1.
          1    1    3    3  501    0 -0.21567669651E+03 -0.17785633666E+03 -0.11782448538E+03  0.30336763714E+03  0.00000000000E+00 0.  1.
         21    1    1    2  502  501  0.36342423876E+02  0.31655298507E+02 -0.33980871785E+02  0.58970580326E+02  0.00000000000E+00 0.  1.
<mgrwt>
<rscale>  1 0.30000000E+03</rscale>
<asrwt>0</asrwt>
<pdfrwt beam="1">  1        1 0.44829720E+00 0.30000000E+03</pdfrwt>
<pdfrwt beam="2">0</pdfrwt>
<totfact> 0.52826640E-01</totfact>
</mgrwt>
</event>
<event>
 6    1  0.5260809E-006  0.3000000E+03  0.7818608E-02  0.1093470E+00
          1   -1    0    0  502    0  0.00000000000E+00  0.00000000000E+00  0.13410792932E+03  0.13410792932E+03  0.00000000000E+00 0.  1.
         13   -1    0    0    0    0 -0.00000000000E+00 -0.00000000000E+00 -0.10000000000E+04  0.10000000000E+04  0.00000000000E+00 0.  1.
    9000005    2    1    2  501    0  0.21453257208E+02 -0.96531955393E+01 -0.89163519004E+03  0.10992348075E+04  0.64245655383E+03 0.  0.
         13    1    3    3    0    0  0.18939889257E+03 -0.22032058500E+03 -0.72844131953E+03  0.78424476834E+03  0.00000000000E+00 0.  1.
          1    1    3    3  501    0 -0.16794563536E+03  0.21066738946E+03 -0.16319387051E+03  0.31499003919E+03  0.00000000000E+00 0.  1.
         21    1    1    2  502  501 -0.21453257208E+02  0.96531955393E+01  0.25743119358E+02  0.34873121787E+02  0.00000000000E+00 0.  1.
<mgrwt>
<rscale>  1 0.30000000E+03</rscale>
<asrwt>0</asrwt>
<pdfrwt beam="1">  1        1 0.48766623E+00 0.30000000E+03</pdfrwt>
<pdfrwt beam="2">0</pdfrwt>
<totfact> 0.28113656E-01</totfact>
</mgrwt>
</event>
<event>
 6    1  0.5260809E-006  0.3000000E+03  0.7818608E-02  0.1093470E+00
          1   -1    0    0  502    0  0.00000000000E+00  0.00000000000E+00  0.12220360425E+03  0.12220360425E+03  0.00000000000E+00 0.  1.
         13   -1    0    0    0    0 -0.00000000000E+00 -0.00000000000E+00 -0.10000000000E+04  0.10000000000E+04  0.00000000000E+00 0.  1.
    9000005    2    1    2  501    0  0.11464745556E+01  0.13638333716E+02 -0.89075011282E+03  0.11033590470E+04  0.65098241502E+03 0.  0.
         13    1    3    3    0    0  0.16860451960E+03 -0.49120395877E+02 -0.90694917906E+03  0.92379495058E+03  0.00000000000E+00 0.  1.
          1    1    3    3  501    0 -0.16745804504E+03  0.62758729594E+02  0.16199066248E+02  0.17956409646E+03  0.00000000000E+00 0.  1.
         21    1    1    2  502  501 -0.11464745556E+01 -0.13638333716E+02  0.12953717070E+02  0.18844557209E+02  0.00000000000E+00 0.  1.
<mgrwt>
<rscale>  1 0.30000000E+03</rscale>
<asrwt>0</asrwt>
<pdfrwt beam="1">  1        1 0.44437768E+00 0.30000000E+03</pdfrwt>
<pdfrwt beam="2">0</pdfrwt>
<totfact> 0.56103231E-01</totfact>
</mgrwt>
</event>
<event>
 6    1  0.5260809E-006  0.3000000E+03  0.7818608E-02  0.1093470E+00
          1   -1    0    0  502    0  0.00000000000E+00  0.00000000000E+00  0.11105416926E+03  0.11105416926E+03  0.00000000000E+00 0.  1.
         13   -1    0    0    0    0 -0.00000000000E+00 -0.00000000000E+00 -0.10000000000E+04  0.10000000000E+04  0.00000000000E+00 0.  1.
    9000005    2    1    2  501    0  0.89957590643E+01 -0.16311848824E+02 -0.87371282925E+03  0.10869908273E+04  0.64639612505E+03 0.  0.
         13    1    3    3    0    0  0.19979623700E+03 -0.14104144370E+03 -0.81597896855E+03  0.85184089023E+03  0.00000000000E+00 0.  1.
          3    1    3    3  501    0 -0.19080047793E+03  0.12472959487E+03 -0.57733860699E+02  0.23514993703E+03  0.00000000000E+00 0.  1.
         21    1    1    2  502  501 -0.89957590643E+01  0.16311848824E+02 -0.15233001494E+02  0.24063341990E+02  0.00000000000E+00 0.  1.
<mgrwt>
<rscale>  1 0.30000000E+03</rscale>
<asrwt>0</asrwt>
<pdfrwt beam="1">  1        1 0.40383419E+00 0.30000000E+03</pdfrwt>
<pdfrwt beam="2">0</pdfrwt>
<totfact> 0.10011243E+00</totfact>
</mgrwt>
</event>
<event>
 6    1  0.5260809E-006  0.3000000E+03  0.7818608E-02  0.1093470E+00
          1   -1    0    0  502    0  0.00000000000E+00  0.00000000000E+00  0.11610078023E+03  0.11610078023E+03  0.00000000000E+00 0.  1.
         13   -1    0    0    0    0 -0.00000000000E+00 -0.00000000000E+00 -0.10000000000E+04  0.10000000000E+04  0.00000000000E+00 0.  1.
    9000005    2    1    2  501    0 -0.10255857588E+02 -0.60441892818E+01 -0.89082242944E+03  0.11023295903E+04  0.64917194186E+03 0.  0.
         13    1    3    3    0    0  0.17747473382E+03  0.40458106498E+02  0.87143258630E+01  0.18223632734E+03  0.00000000000E+00 0.  1.
          1    1    3    3  501    0 -0.18773059141E+03 -0.46502295780E+02 -0.89953675531E+03  0.92009326300E+03  0.00000000000E+00 0.  1.
         21    1    1    2  502  501  0.10255857588E+02  0.60441892818E+01  0.69232096734E+01  0.13771189895E+02  0.00000000000E+00 0.  1.
<mgrwt>
<rscale>  1 0.30000000E+03</rscale>
<asrwt>0</asrwt>
<pdfrwt beam="1">  1        1 0.42218555E+00 0.30000000E+03</pdfrwt>
<pdfrwt beam="2">0</pdfrwt>
<totfact> 0.77748907E-01</totfact>
</mgrwt>
</event>
<event>
 6    1  0.5260809E-006  0.3000000E+03  0.7818608E-02  0.1093470E+00
          1   -1    0    0  502    0  0.00000000000E+00  0.00000000000E+00  0.11899678182E+03  0.11899678182E+03  0.00000000000E+00 0.  1.
         13   -1    0    0    0    0 -0.00000000000E+00 -0.00000000000E+00 -0.10000000000E+04  0.10000000000E+04  0.00000000000E+00 0.  1.
    9000005    2    1    2  501    0  0.12739360156E+02  0.21646819857E+02 -0.88736860164E+03  0.10930855060E+04  0.63779464735E+03 0.  0.
         13    1    3    3    0    0  0.11583215821E+03  0.26535013864E+03 -0.18769579781E+03  0.34504709456E+03  0.00000000000E+00 0.  1.
          3    1    3    3  501    0 -0.10309279805E+03 -0.24370331878E+03 -0.69967280383E+03  0.74803841145E+03  0.00000000000E+00 0.  1.
         21    1    1    2  502  501 -0.12739360156E+02 -0.21646819857E+02  0.63653834543E+01  0.25911275801E+02  0.00000000000E+00 0. -1.
<mgrwt>
<rscale>  1 0.30000000E+03</rscale>
<asrwt>0</asrwt>
<pdfrwt beam="1">  1        1 0.43271648E+00 0.30000000E+03</pdfrwt>
<pdfrwt beam="2">0</pdfrwt>
<totfact> 0.66767280E-01</totfact>
</mgrwt>
</event>
<event>
 6    1  0.5260809E-006  0.3000000E+03  0.7818608E-02  0.1093470E+00
          1   -1    0    0  502    0  0.00000000000E+00  0.00000000000E+00  0.10880009800E+03  0.10880009800E+03  0.00000000000E+00 0.  1.
         13   -1    0    0    0    0 -0.00000000000E+00 -0.00000000000E+00 -0.10000000000E+04  0.10000000000E+04  0.00000000000E+00 0.  1.
    9000005    2    1    2  501    0 -0.93008841767E+01 -0.10863323775E+02 -0.89265689940E+03  0.10944250818E+04  0.63302875238E+03 0.  0.
         13    1    3    3    0    0 -0.98001494967E+02  0.54572446502E+02  0.65536035294E+02  0.12991311271E+03  0.00000000000E+00 0.  1.
          1    1    3    3  501    0  0.88700610790E+02 -0.65435770277E+02 -0.95819293469E+03  0.96451196907E+03  0.00000000000E+00 0.  1.
         21    1    1    2  502  501  0.93008841767E+01  0.10863323775E+02  0.14569974021E+01  0.14375016220E+02  0.00000000000E+00 0.  1.
<mgrwt>
<rscale>  1 0.30000000E+03</rscale>
<asrwt>0</asrwt>
<pdfrwt beam="1">  1        1 0.39563755E+00 0.30000000E+03</pdfrwt>
<pdfrwt beam="2">0</pdfrwt>
<totfact> 0.11148713E+00</totfact>
</mgrwt>
</event>
<event>
 6    1  0.5260809E-006  0.3000000E+03  0.7818608E-02  0.1093470E+00
          1   -1    0    0  502    0  0.00000000000E+00  0.00000000000E+00  0.10785223964E+03  0.10785223964E+03  0.00000000000E+00 0.  1.
         13   -1    0    0    0    0 -0.00000000000E+00 -0.00000000000E+00 -0.10000000000E+04  0.10000000000E+04  0.00000000000E+00 0.  1.
    9000005    2    1    2  501    0 -0.30431546506E+01 -0.22546449877E+02 -0.85085318057E+03  0.10607051770E+04  0.63295081523E+03 0.  0.
         13    1    3    3    0    0  0.12848636827E+03 -0.29320919831E+03 -0.54205603692E+03  0.62952770230E+03  0.00000000000E+00 0.  1.
          3    1    3    3  501    0 -0.13152952292E+03  0.27066274843E+03 -0.30879714365E+03  0.43117747473E+03  0.00000000000E+00 0.  1.
         21    1    1    2  502  501  0.30431546506E+01  0.22546449877E+02 -0.41294579788E+02  0.47147062603E+02  0.00000000000E+00 0.  1.
<mgrwt>
<rscale>  1 0.30000000E+03</rscale>
<asrwt>0</asrwt>
<pdfrwt beam="1">  1        1 0.39219079E+00 0.30000000E+03</pdfrwt>
<pdfrwt beam="2">0</pdfrwt>
<totfact> 0.11657695E+00</totfact>
</mgrwt>
</event>
<event>
 6    1  0.5260809E-006  0.3000000E+03  0.7818608E-02  0.1093470E+00
          1   -1    0    0  502    0  0.00000000000E+00  0.00000000000E+00  0.99065352294E+02  0.99065352294E+02  0.00000000000E+00 0.  1.
         13   -1    0    0    0    0 -0.00000000000E+00 -0.00000000000E+00 -0.10000000000E+04  0.10000000000E+04  0.00000000000E+00 0.  1.
    9000005    2    1    2  501    0  0.78910335415E+02  0.13967832521E+01 -0.86637480652E+03  0.10129075049E+04  0.51879429078E+03 0.  0.
         13    1    3    3    0    0  0.73796560477E+02  0.45001788204E+02  0.47061392270E+02  0.98416807112E+02  0.00000000000E+00 0.  1.
          3    1    3    3  501    0  0.51137749372E+01 -0.43605004952E+02 -0.91343619879E+03  0.91449069782E+03  0.00000000000E+00 0.  1.
         21    1    1    2  502  501 -0.78910335415E+02 -0.13967832521E+01 -0.34559841190E+02  0.86157847360E+02  0.00000000000E+00 0.  1.
<mgrwt>
<rscale>  1 0.30000000E+03</rscale>
<asrwt>0</asrwt>
<pdfrwt beam="1">  1        1 0.36023840E+00 0.30000000E+03</pdfrwt>
<pdfrwt beam="2">0</pdfrwt>
<totfact> 0.17411837E+00</totfact>
</mgrwt>
</event>
<event>
 6    1  0.5260809E-006  0.3000000E+03  0.7818608E-02  0.1093470E+00
          1   -1    0    0  502    0  0.00000000000E+00  0.00000000000E+00  0.15507432289E+03  0.15507432289E+03  0.00000000000E+00 0.  1.
         13   -1    0    0    0    0 -0.00000000000E+00 -0.00000000000E+00 -0.10000000000E+04  0.10000000000E+04  0.00000000000E+00 0.  1.
    9000005    2    1    2  501    0  0.53142655233E+02  0.38646918334E+02 -0.82197523774E+03  0.10854722484E+04  0.70589587373E+03 0.  0.
         13    1    3    3    0    0 -0.32029818477E+03 -0.25734291003E+02 -0.46232087832E+03  0.56302200262E+03  0.00000000000E+00 0.  1.
          3    1    3    3  501    0  0.37344084000E+03  0.64381209337E+02 -0.35965435941E+03  0.52245024581E+03  0.00000000000E+00 0.  1.
         21    1    1    2  502  501 -0.53142655233E+02 -0.38646918334E+02 -0.22950439373E+02  0.69602074462E+02  0.00000000000E+00 0.  1.
<mgrwt>
<rscale>  1 0.30000000E+03</rscale>
<asrwt>0</asrwt>
<pdfrwt beam="1">  1        1 0.56390782E+00 0.30000000E+03</pdfrwt>
<pdfrwt beam="2">0</pdfrwt>
<totfact> 0.82464751E-02</totfact>
</mgrwt>
</event>
<event>
 6    1  0.5260809E-006  0.3000000E+03  0.7818608E-02  0.1093470E+00
          1   -1    0    0  502    0  0.00000000000E+00  0.00000000000E+00  0.11760857947E+03  0.11760857947E+03  0.00000000000E+00 0.  1.
         13   -1    0    0    0    0 -0.00000000000E+00 -0.00000000000E+00 -0.10000000000E+04  0.10000000000E+04  0.00000000000E+00 0.  1.
    9000005    2    1    2  501    0 -0.18227933745E+02 -0.16360341872E+02 -0.88170271241E+03  0.10931056679E+04  0.64566276791E+03 0.  0.
         13    1    3    3    0    0  0.23776942959E+03 -0.18907489308E+03 -0.61137789261E+03  0.68269066525E+03  0.00000000000E+00 0.  1.
          3    1    3    3  501    0 -0.25599736334E+03  0.17271455121E+03 -0.27032481980E+03  0.41041500269E+03  0.00000000000E+00 0.  1.
         21    1    1    2  502  501  0.18227933745E+02  0.16360341872E+02 -0.68870811650E+00  0.24502911534E+02  0.00000000000E+00 0.  1.
<mgrwt>
<rscale>  1 0.30000000E+03</rscale>
<asrwt>0</asrwt>
<pdfrwt beam="1">  1        1 0.42766846E+00 0.30000000E+03</pdfrwt>
<pdfrwt beam="2">0</pdfrwt>
<totfact> 0.71853773E-01</totfact>
</mgrwt>
</event>
<event>
 6    1  0.5260809E-006  0.3000000E+03  0.7818608E-02  0.1093470E+00
          1   -1    0    0  502    0  0.00000000000E+00  0.00000000000E+00  0.11532329168E+03  0.11532329168E+03  0.00000000000E+00 0.  1.
         13   -1    0    0    0    0 -0.00000000000E+00 -0.00000000000E+00 -0.10000000000E+04  0.10000000000E+04  0.00000000000E+00 0.  1.
    9000005    2    1    2  501    0 -0.26214831088E+02 -0.81728768484E+01 -0.86426236898E+03  0.10811069427E+04  0.64891352727E+03 0.  0.
         13    1    3    3    0    0  0.80743866597E+02  0.29885361927E+03 -0.53672876374E+03  0.61960537729E+03  0.00000000000E+00 0.  1.
          1    1    3    3  501    0 -0.10695869769E+03 -0.30702649612E+03 -0.32753360524E+03  0.46150156543E+03  0.00000000000E+00 0.  1.
         21    1    1    2  502  501  0.26214831088E+02  0.81728768484E+01 -0.20414339340E+02  0.34216348953E+02  0.00000000000E+00 0.  1.
<mgrwt>
<rscale>  1 0.30000000E+03</rscale>
<asrwt>0</asrwt>
<pdfrwt beam="1">  1        1 0.41935831E+00 0.30000000E+03</pdfrwt>
<pdfrwt beam="2">0</pdfrwt>
<totfact> 0.80933695E-01</totfact>
</mgrwt>
</event>
<event>
 6    1  0.5260809E-006  0.3000000E+03  0.7818608E-02  0.1093470E+00
          1   -1    0    0  502    0  0.00000000000E+00  0.00000000000E+00  0.20910522653E+03  0.20910522653E+03  0.00000000000E+00 0.  1.
         13   -1    0    0    0    0 -0.00000000000E+00 -0.00000000000E+00 -0.10000000000E+04  0.10000000000E+04  0.00000000000E+00 0.  1.
    9000005    2    1    2  501    0  0.99226952646E+01  0.26090738699E+01 -0.89654943956E+03  0.11029535633E+04  0.64233978391E+03 0.  0.
         13    1    3    3    0    0  0.25256865595E+03  0.14358382447E+03 -0.20199385629E+03  0.35384849667E+03  0.00000000000E+00 0.  1.
          1    1    3    3  501    0 -0.24264596069E+03 -0.14097475060E+03 -0.69455558327E+03  0.74910506659E+03  0.00000000000E+00 0.  1.
         21    1    1    2  502  501 -0.99226952646E+01 -0.26090738699E+01  0.10565466609E+03  0.10615166327E+03  0.00000000000E+00 0.  1.
<mgrwt>
<rscale>  1 0.30000000E+03</rscale>
<asrwt>0</asrwt>
<pdfrwt beam="1">  1        1 0.76038425E+00 0.30000000E+03</pdfrwt>
<pdfrwt beam="2">0</pdfrwt>
<totfact> 0.13081758E-02</totfact>
</mgrwt>
</event>
<event>
 6    1  0.5260809E-006  0.3000000E+03  0.7818608E-02  0.1093470E+00
          1   -1    0    0  502    0  0.00000000000E+00  0.00000000000E+00  0.11494072693E+03  0.11494072693E+03  0.00000000000E+00 0.  1.
         13   -1    0    0    0    0 -0.00000000000E+00 -0.00000000000E+00 -0.10000000000E+04  0.10000000000E+04  0.00000000000E+00 0.  1.
    9000005    2    1    2  501    0 -0.14044552449E+02 -0.11916194433E+02 -0.86979797646E+03  0.10910210213E+04  0.65836092222E+03 0.  0.
         13    1    3    3    0    0  0.31329745044E+03  0.38426901984E+02 -0.32212233337E+03  0.45099303421E+03  0.00000000000E+00 0.  1.
          3    1    3    3  501    0 -0.32734200289E+03 -0.50343096418E+02 -0.54767564309E+03  0.64002798708E+03  0.00000000000E+00 0.  1.
         21    1    1    2  502  501  0.14044552449E+02  0.11916194433E+02 -0.15261296614E+02  0.23919705634E+02  0.00000000000E+00 0.  1.
<mgrwt>
<rscale>  1 0.30000000E+03</rscale>
<asrwt>0</asrwt>
<pdfrwt beam="1">  1        1 0.41796716E+00 0.30000000E+03</pdfrwt>
<pdfrwt beam="2">0</pdfrwt>
<totfact> 0.82534482E-01</totfact>
</mgrwt>
</event>
<event>
 6    1  0.5260809E-006  0.3000000E+03  0.7818608E-02  0.1093470E+00
          1   -1    0    0  502    0  0.00000000000E+00  0.00000000000E+00  0.14370615933E+03  0.14370615933E+03  0.00000000000E+00 0.  1.
         13   -1    0    0    0    0 -0.00000000000E+00 -0.00000000000E+00 -0.10000000000E+04  0.10000000000E+04  0.00000000000E+00 0.  1.
    9000005    2    1    2  501    0 -0.21118321189E+02  0.12811511486E+01 -0.89071227384E+03  0.11033050037E+04  0.65074261539E+03 0.  0.
         13    1    3    3    0    0 -0.84305911380E+02 -0.31404147745E+03 -0.51132747471E+03  0.60595818556E+03  0.00000000000E+00 0.  1.
          1    1    3    3  501    0  0.63187590191E+02  0.31532262860E+03 -0.37938479913E+03  0.49734681809E+03  0.00000000000E+00 0.  1.
         21    1    1    2  502  501  0.21118321189E+02 -0.12811511486E+01  0.34418433172E+02  0.40401155677E+02  0.00000000000E+00 0. -1.
<mgrwt>
<rscale>  1 0.30000000E+03</rscale>
<asrwt>0</asrwt>
<pdfrwt beam="1">  1        1 0.52256895E+00 0.30000000E+03</pdfrwt>
<pdfrwt beam="2">0</pdfrwt>
<totfact> 0.15548200E-01</totfact>
</mgrwt>
</event>
<event>
 6    1  0.5260809E-006  0.3000000E+03  0.7818608E-02  0.1093470E+00
          1   -1    0    0  502    0  0.00000000000E+00  0.00000000000E+00  0.11017098613E+03  0.11017098613E+03  0.00000000000E+00 0.  1.
         13   -1    0    0    0    0 -0.00000000000E+00 -0.00000000000E+00 -0.10000000000E+04  0.10000000000E+04  0.00000000000E+00 0.  1.
    9000005    2    1    2  501    0 -0.14697422792E+02 -0.10859604831E+02 -0.85650082559E+03  0.10721616006E+04  0.64467269861E+03 0.  0.
         13    1    3    3    0    0 -0.61123168703E+02  0.26139567623E+03 -0.71100803210E+03  0.75999747566E+03  0.00000000000E+00 0.  1.
          1    1    3    3  501    0  0.46425745911E+02 -0.27225528106E+03 -0.14549279349E+03  0.31216412495E+03  0.00000000000E+00 0.  1.
         21    1    1    2  502  501  0.14697422792E+02  0.10859604831E+02 -0.33328188278E+02  0.38009385521E+02  0.00000000000E+00 0.  1.
<mgrwt>
<rscale>  1 0.30000000E+03</rscale>
<asrwt>0</asrwt>
<pdfrwt beam="1">  1        1 0.40062261E+00 0.30000000E+03</pdfrwt>
<pdfrwt beam="2">0</pdfrwt>
<totfact> 0.10445895E+00</totfact>
</mgrwt>
</event>
<event>
 6    1  0.5260809E-006  0.3000000E+03  0.7818608E-02  0.1093470E+00
          1   -1    0    0  502    0  0.00000000000E+00  0.00000000000E+00  0.16082649143E+03  0.16082649143E+03  0.00000000000E+00 0.  1.
         13   -1    0    0    0    0 -0.00000000000E+00 -0.00000000000E+00 -0.10000000000E+04  0.10000000000E+04  0.00000000000E+00 0.  1.
    9000005    2    1    2  501    0  0.15029439601E+02 -0.22726119559E+02 -0.89301355591E+03  0.11004848701E+04  0.64253511791E+03 0.  0.
         13    1    3    3    0    0 -0.36089494298E+00  0.17932677526E+03 -0.87928159190E+03  0.89738193676E+03  0.00000000000E+00 0.  1.
          1    1    3    3  501    0  0.15390334544E+02 -0.20205289482E+03 -0.13731964012E+02  0.20310293336E+03  0.00000000000E+00 0.  1.
         21    1    1    2  502  501 -0.15029439601E+02  0.22726119559E+02  0.53840047344E+02  0.60341621316E+02  0.00000000000E+00 0.  1.
<mgrwt>
<rscale>  1 0.30000000E+03</rscale>
<asrwt>0</asrwt>
<pdfrwt beam="1">  1        1 0.58482484E+00 0.30000000E+03</pdfrwt>
<pdfrwt beam="2">0</pdfrwt>
<totfact> 0.68926167E-02</totfact>
</mgrwt>
</event>
<event>
 6    1  0.5260809E-006  0.3000000E+03  0.7818608E-02  0.1093470E+00
          1   -1    0    0  502    0  0.00000000000E+00  0.00000000000E+00  0.11944257614E+03  0.11944257614E+03  0.00000000000E+00 0.  1.
         13   -1    0    0    0    0 -0.00000000000E+00 -0.00000000000E+00 -0.10000000000E+04  0.10000000000E+04  0.00000000000E+00 0.  1.
    9000005    2    1    2  501    0 -0.42369295538E+02  0.64078296037E+01 -0.83247888815E+03  0.10550394467E+04  0.64672321546E+03 0.  0.
         13    1    3    3    0    0  0.16110591457E+03  0.25708894194E+03 -0.26831996582E+03  0.40502523851E+03  0.00000000000E+00 0.  1.
          1    1    3    3  501    0 -0.20347521011E+03 -0.25068111233E+03 -0.56415892234E+03  0.65001420820E+03  0.00000000000E+00 0.  1.
         21    1    1    2  502  501  0.42369295538E+02 -0.64078296037E+01 -0.48078535708E+02  0.64403129431E+02  0.00000000000E+00 0.  1.
<mgrwt>
<rscale>  1 0.30000000E+03</rscale>
<asrwt>0</asrwt>
<pdfrwt beam="1">  1        1 0.43433756E+00 0.30000000E+03</pdfrwt>
<pdfrwt beam="2">0</pdfrwt>
<totfact> 0.65198241E-01</totfact>
</mgrwt>
</event>
<event>
 6    1  0.5260809E-006  0.3000000E+03  0.7818608E-02  0.1093470E+00
          1   -1    0    0  502    0  0.00000000000E+00  0.00000000000E+00  0.14074142666E+03  0.14074142666E+03  0.00000000000E+00 0.  1.
         13   -1    0    0    0    0 -0.00000000000E+00 -0.00000000000E+00 -0.10000000000E+04  0.10000000000E+04  0.00000000000E+00 0.  1.
    9000005    2    1    2  501    0 -0.25267064301E+01  0.98600779302E+01 -0.85300606757E+03  0.11287957492E+04  0.73922722263E+03 0.  0.
         13    1    3    3    0    0  0.27771337398E+03  0.57408529841E+02 -0.78763315673E+03  0.83712988655E+03  0.00000000000E+00 0.  1.
          3    1    3    3  501    0 -0.28024008041E+03 -0.47548451911E+02 -0.65372910845E+02  0.29166586263E+03  0.00000000000E+00 0.  1.
         21    1    1    2  502  501  0.25267064301E+01 -0.98600779302E+01 -0.62525057649E+01  0.11945677482E+02  0.00000000000E+00 0.  1.
<mgrwt>
<rscale>  1 0.30000000E+03</rscale>
<asrwt>0</asrwt>
<pdfrwt beam="1">  1        1 0.51178809E+00 0.30000000E+03</pdfrwt>
<pdfrwt beam="2">0</pdfrwt>
<totfact> 0.18716256E-01</totfact>
</mgrwt>
</event>
<event>
 6    1  0.5260809E-006  0.3000000E+03  0.7818608E-02  0.1093470E+00
          1   -1    0    0  502    0  0.00000000000E+00  0.00000000000E+00  0.10595244218E+03  0.10595244218E+03  0.00000000000E+00 0.  1.
         13   -1    0    0    0    0 -0.00000000000E+00 -0.00000000000E+00 -0.10000000000E+04  0.10000000000E+04  0.00000000000E+00 0.  1.
    9000005    2    1    2  501    0  0.83326783533E+01 -0.11757374661E+02 -0.90118471695E+03  0.10898711354E+04  0.61276221189E+03 0.  0.
         13    1    3    3    0    0 -0.22944543844E+03  0.16714411645E+03 -0.26864517148E+03  0.39083576224E+03  0.00000000000E+00 0.  1.
          1    1    3    3  501    0  0.23777811680E+03 -0.17890149111E+03 -0.63253954546E+03  0.69903537315E+03  0.00000000000E+00 0.  1.
         21    1    1    2  502  501 -0.83326783533E+01  0.11757374661E+02  0.71371591215E+01  0.16081306781E+02  0.00000000000E+00 0. -1.
<mgrwt>
<rscale>  1 0.30000000E+03</rscale>
<asrwt>0</asrwt>
<pdfrwt beam="1">  1        1 0.38528242E+00 0.30000000E+03</pdfrwt>
<pdfrwt beam="2">0</pdfrwt>
<totfact> 0.12740021E+00</totfact>
</mgrwt>
</event>
<event>
 6    1  0.5260809E-006  0.3000000E+03  0.7818608E-02  0.1093470E+00
          1   -1    0    0  502    0  0.00000000000E+00  0.00000000000E+00  0.12073849297E+03  0.12073849297E+03  0.00000000000E+00 0.  1.
         13   -1    0    0    0    0 -0.00000000000E+00 -0.00000000000E+00 -0.10000000000E+04  0.10000000000E+04  0.00000000000E+00 0.  1.
    9000005    2    1    2  501    0 -0.41213715031E+01 -0.19307867611E+02 -0.88969557253E+03  0.10984080389E+04  0.64385730466E+03 0.  0.
         13    1    3    3    0    0  0.19407713598E+03  0.94515311718E+02 -0.83628052192E+03  0.86369218487E+03  0.00000000000E+00 0.  1.
          3    1    3    3  501    0 -0.19819850748E+03 -0.11382317933E+03 -0.53415050607E+02  0.23471585407E+03  0.00000000000E+00 0.  1.
         21    1    1    2  502  501  0.41213715031E+01  0.19307867611E+02  0.10434065501E+02  0.22330454040E+02  0.00000000000E+00 0. -1.
<mgrwt>
<rscale>  1 0.30000000E+03</rscale>
<asrwt>0</asrwt>
<pdfrwt beam="1">  1        1 0.43904999E+00 0.30000000E+03</pdfrwt>
<pdfrwt beam="2">0</pdfrwt>
<totfact> 0.60802170E-01</totfact>
</mgrwt>
</event>
<event>
 6    1  0.5260809E-006  0.3000000E+03  0.7818608E-02  0.1093470E+00
          1   -1    0    0  502    0  0.00000000000E+00  0.00000000000E+00  0.11276322614E+03  0.11276322614E+03  0.00000000000E+00 0.  1.
         13   -1    0    0    0    0 -0.00000000000E+00 -0.00000000000E+00 -0.10000000000E+04  0.10000000000E+04  0.00000000000E+00 0.  1.
    9000005    2    1    2  501    0  0.23334240446E+01  0.18500924370E+02 -0.87787437141E+03  0.10918973772E+04  0.64902137206E+03 0.  0.
         13    1    3    3    0    0 -0.50145474468E+02  0.19906568322E+03 -0.11775959876E+02  0.20562195426E+03  0.00000000000E+00 0.  1.
          1    1    3    3  501    0  0.52478898513E+02 -0.18056475885E+03 -0.86609841153E+03  0.88627542298E+03  0.00000000000E+00 0.  1.
         21    1    1    2  502  501 -0.23334240446E+01 -0.18500924370E+02 -0.93624024517E+01  0.20865848892E+02  0.00000000000E+00 0.  1.
<mgrwt>
<rscale>  1 0.30000000E+03</rscale>
<asrwt>0</asrwt>
<pdfrwt beam="1">  1        1 0.41004896E+00 0.30000000E+03</pdfrwt>
<pdfrwt beam="2">0</pdfrwt>
<totfact> 0.92073691E-01</totfact>
</mgrwt>
</event>
<event>
 6    1  0.5260809E-006  0.3000000E+03  0.7818608E-02  0.1093470E+00
          1   -1    0    0  502    0  0.00000000000E+00  0.00000000000E+00  0.11322008897E+03  0.11322008897E+03  0.00000000000E+00 0.  1.
         13   -1    0    0    0    0 -0.00000000000E+00 -0.00000000000E+00 -0.10000000000E+04  0.10000000000E+04  0.00000000000E+00 0.  1.
    9000005    2    1    2  501    0 -0.10570164534E+02  0.23826241930E+01 -0.87867852456E+03  0.10996909449E+04  0.66115566965E+03 0.  0.
         13    1    3    3    0    0 -0.11081826562E+03 -0.60451767989E+02  0.69539061193E+02  0.14412073161E+03  0.00000000000E+00 0.  1.
          3    1    3    3  501    0  0.10024810109E+03  0.62834392182E+02 -0.94821758576E+03  0.95557021330E+03  0.00000000000E+00 0.  1.
         21    1    1    2  502  501  0.10570164534E+02 -0.23826241930E+01 -0.81013864659E+01  0.13529144060E+02  0.00000000000E+00 0. -1.
<mgrwt>
<rscale>  1 0.30000000E+03</rscale>
<asrwt>0</asrwt>
<pdfrwt beam="1">  1        1 0.41171028E+00 0.30000000E+03</pdfrwt>
<pdfrwt beam="2">0</pdfrwt>
<totfact> 0.90008260E-01</totfact>
</mgrwt>
</event>
<event>
 6    1  0.5260809E-006  0.3000000E+03  0.7818608E-02  0.1093470E+00
          1   -1    0    0  502    0  0.00000000000E+00  0.00000000000E+00  0.11004484828E+03  0.11004484828E+03  0.00000000000E+00 0.  1.
         13   -1    0    0    0    0 -0.00000000000E+00 -0.00000000000E+00 -0.10000000000E+04  0.10000000000E+04  0.00000000000E+00 0.  1.
    9000005    2    1    2  501    0  0.12512443052E+02 -0.25868754079E+02 -0.86102798890E+03  0.10692706602E+04  0.63335992400E+03 0.  0.
         13    1    3    3    0    0 -0.27894194279E+03  0.85208930435E+02 -0.25384078216E+03  0.38665787456E+03  0.00000000000E+00 0.  1.
          1    1    3    3  501    0  0.29145438584E+03 -0.11107768451E+03 -0.60718720674E+03  0.68261278559E+03  0.00000000000E+00 0.  1.
         21    1    1    2  502  501 -0.12512443052E+02  0.25868754079E+02 -0.28927162821E+02  0.40774188129E+02  0.00000000000E+00 0.  1.
<mgrwt>
<rscale>  1 0.30000000E+03</rscale>
<asrwt>0</asrwt>
<pdfrwt beam="1">  1        1 0.40016393E+00 0.30000000E+03</pdfrwt>
<pdfrwt beam="2">0</pdfrwt>
<totfact> 0.10509067E+00</totfact>
</mgrwt>
</event>
<event>
 6    1  0.5260809E-006  0.3000000E+03  0.7818608E-02  0.1093470E+00
          1   -1    0    0  502    0  0.00000000000E+00  0.00000000000E+00  0.16047786019E+03  0.16047786019E+03  0.00000000000E+00 0.  1.
         13   -1    0    0    0    0 -0.00000000000E+00 -0.00000000000E+00 -0.10000000000E+04  0.10000000000E+04  0.00000000000E+00 0.  1.
    9000005    2    1    2  501    0  0.10712316642E+03  0.48426226236E+02 -0.68516058856E+03  0.96644703616E+03  0.67138243157E+03 0.  0.
         13    1    3    3    0    0  0.21868253275E+03  0.31412965349E+03 -0.47372272130E+03  0.60902603065E+03  0.00000000000E+00 0.  1.
          3    1    3    3  501    0 -0.11155936634E+03 -0.26570342725E+03 -0.21143786726E+03  0.35742100551E+03  0.00000000000E+00 0.  1.
         21    1    1    2  502  501 -0.10712316642E+03 -0.48426226236E+02 -0.15436155125E+03  0.19403082403E+03  0.00000000000E+00 0. -1.
<mgrwt>
<rscale>  1 0.30000000E+03</rscale>
<asrwt>0</asrwt>
<pdfrwt beam="1">  1        1 0.58355709E+00 0.30000000E+03</pdfrwt>
<pdfrwt beam="2">0</pdfrwt>
<totfact> 0.69711626E-02</totfact>
</mgrwt>
</event>
<event>
 6    1  0.5260809E-006  0.3000000E+03  0.7818608E-02  0.1093470E+00
          1   -1    0    0  502    0  0.00000000000E+00  0.00000000000E+00  0.10997283089E+03  0.10997283089E+03  0.00000000000E+00 0.  1.
         13   -1    0    0    0    0 -0.00000000000E+00 -0.00000000000E+00 -0.10000000000E+04  0.10000000000E+04  0.00000000000E+00 0.  1.
    9000005    2    1    2  501    0 -0.69693249543E+01 -0.11960066531E+02 -0.89169142680E+03  0.10960306490E+04  0.63716400422E+03 0.  0.
         13    1    3    3    0    0 -0.81175125986E+02 -0.13346544554E+03 -0.93441731438E+03  0.94738489730E+03  0.00000000000E+00 0.  1.
          3    1    3    3  501    0  0.74205801032E+02  0.12150537901E+03  0.42725887575E+02  0.14864575172E+03  0.00000000000E+00 0.  1.
         21    1    1    2  502  501  0.69693249543E+01  0.11960066531E+02  0.16642576953E+01  0.13942181875E+02  0.00000000000E+00 0. -1.
<mgrwt>
<rscale>  1 0.30000000E+03</rscale>
<asrwt>0</asrwt>
<pdfrwt beam="1">  1        1 0.39990205E+00 0.30000000E+03</pdfrwt>
<pdfrwt beam="2">0</pdfrwt>
<totfact> 0.10545264E+00</totfact>
</mgrwt>
</event>
<event>
 6    1  0.5260809E-006  0.3000000E+03  0.7818608E-02  0.1093470E+00
          1   -1    0    0  502    0  0.00000000000E+00  0.00000000000E+00  0.15743220697E+03  0.15743220697E+03  0.00000000000E+00 0.  1.
         13   -1    0    0    0    0 -0.00000000000E+00 -0.00000000000E+00 -0.10000000000E+04  0.10000000000E+04  0.00000000000E+00 0.  1.
    9000005    2    1    2  501    0 -0.17261101419E+02  0.15184168055E+02 -0.89197065902E+03  0.11029423203E+04  0.64833756697E+03 0.  0.
         13    1    3    3    0    0  0.10247141780E+03  0.14428594444E+03  0.16338761126E+02  0.17772388794E+03  0.00000000000E+00 0.  1.
          3    1    3    3  501    0 -0.11973251922E+03 -0.12910177639E+03 -0.90830942015E+03  0.92521843235E+03  0.00000000000E+00 0.  1.
         21    1    1    2  502  501  0.17261101419E+02 -0.15184168055E+02  0.49402865995E+02  0.54489886679E+02  0.00000000000E+00 0.  1.
<mgrwt>
<rscale>  1 0.30000000E+03</rscale>
<asrwt>0</asrwt>
<pdfrwt beam="1">  1        1 0.57248196E+00 0.30000000E+03</pdfrwt>
<pdfrwt beam="2">0</pdfrwt>
<totfact> 0.76550237E-02</totfact>
</mgrwt>
</event>
<event>
 6    1  0.5260809E-006  0.3000000E+03  0.7818608E-02  0.1093470E+00
          1   -1    0    0  502    0  0.00000000000E+00  0.00000000000E+00  0.12098212826E+03  0.12098212826E+03  0.00000000000E+00 0.  1.
         13   -1    0    0    0    0 -0.00000000000E+00 -0.00000000000E+00 -0.10000000000E+04  0.10000000000E+04  0.00000000000E+00 0.  1.
    9000005    2    1    2  501    0  0.18582248989E+02  0.31833272473E+02 -0.87718162292E+03  0.10840764509E+04  0.63593670639E+03 0.  0.
         13    1    3    3    0    0 -0.30103296761E+01  0.31280589627E+03 -0.26434693918E+03  0.40955572890E+03  0.00000000000E+00 0.  1.
          1    1    3    3  501    0  0.21592578665E+02 -0.28097262379E+03 -0.61283468374E+03  0.67452072197E+03  0.00000000000E+00 0.  1.
         21    1    1    2  502  501 -0.18582248989E+02 -0.31833272473E+02 -0.18362488203E+01  0.36905677389E+02  0.00000000000E+00 0. -1.
<mgrwt>
<rscale>  1 0.30000000E+03</rscale>
<asrwt>0</asrwt>
<pdfrwt beam="1">  1        1 0.43993594E+00 0.30000000E+03</pdfrwt>
<pdfrwt beam="2">0</pdfrwt>
<totfact> 0.60001886E-01</totfact>
</mgrwt>
</event>
<event>
 6    1  0.5260809E-006  0.3000000E+03  0.7818608E-02  0.1093470E+00
          1   -1    0    0  502    0  0.00000000000E+00  0.00000000000E+00  0.11015954655E+03  0.11015954655E+03  0.00000000000E+00 0.  1.
         13   -1    0    0    0    0 -0.00000000000E+00 -0.00000000000E+00 -0.10000000000E+04  0.10000000000E+04  0.00000000000E+00 0.  1.
    9000005    2    1    2  501    0 -0.14880865194E+02 -0.13532247077E+02 -0.85007032038E+03  0.10655924584E+04  0.64223296083E+03 0.  0.
         13    1    3    3    0    0  0.87392156414E+02  0.85852024019E+01 -0.92986468291E+03  0.93400183256E+03  0.00000000000E+00 0.  1.
          3    1    3    3  501    0 -0.10227302161E+03 -0.22117449479E+02  0.79794362533E+02  0.13159062585E+03  0.00000000000E+00 0.  1.
         21    1    1    2  502  501  0.14880865194E+02  0.13532247077E+02 -0.39770133075E+02  0.44567088134E+02  0.00000000000E+00 0. -1.
<mgrwt>
<rscale>  1 0.30000000E+03</rscale>
<asrwt>0</asrwt>
<pdfrwt beam="1">  1        1 0.40058101E+00 0.30000000E+03</pdfrwt>
<pdfrwt beam="2">0</pdfrwt>
<totfact> 0.10451612E+00</totfact>
</mgrwt>
</event>
<event>
 6    1  0.5260809E-006  0.3000000E+03  0.7818608E-02  0.1093470E+00
          1   -1    0    0  502    0  0.00000000000E+00  0.00000000000E+00  0.11508480377E+03  0.11508480377E+03  0.00000000000E+00 0.  1.
         13   -1    0    0    0    0 -0.00000000000E+00 -0.00000000000E+00 -0.10000000000E+04  0.10000000000E+04  0.00000000000E+00 0.  1.
    9000005    2    1    2  501    0  0.12958956005E+02 -0.99496481465E+01 -0.88812689692E+03  0.10984341263E+04  0.64615881543E+03 0.  0.
         13    1    3    3    0    0  0.31635619716E+03 -0.93733244249E+02 -0.49382511475E+03  0.59391111162E+03  0.00000000000E+00 0.  1.
          3    1    3    3  501    0 -0.30339724115E+03  0.83783596102E+02 -0.39430178217E+03  0.50452301468E+03  0.00000000000E+00 0.  1.
         21    1    1    2  502  501 -0.12958956005E+02  0.99496481465E+01  0.32117006896E+01  0.16650677473E+02  0.00000000000E+00 0.  1.
<mgrwt>
<rscale>  1 0.30000000E+03</rscale>
<asrwt>0</asrwt>
<pdfrwt beam="1">  1        1 0.41849108E+00 0.30000000E+03</pdfrwt>
<pdfrwt beam="2">0</pdfrwt>
<totfact> 0.81929083E-01</totfact>
</mgrwt>
</event>
<event>
 6    1  0.5260809E-006  0.3000000E+03  0.7818608E-02  0.1093470E+00
          1   -1    0    0  502    0  0.00000000000E+00  0.00000000000E+00  0.15344918752E+03  0.15344918752E+03  0.00000000000E+00 0.  1.
         13   -1    0    0    0    0 -0.00000000000E+00 -0.00000000000E+00 -0.10000000000E+04  0.10000000000E+04  0.00000000000E+00 0.  1.
    9000005    2    1    2  501    0 -0.35020652144E+02  0.44388615908E+02 -0.86594866837E+03  0.10936740078E+04  0.66562673006E+03 0.  0.
         13    1    3    3    0    0  0.16147766796E+02  0.13940742776E+03 -0.94785737097E+03  0.95819036573E+03  0.00000000000E+00 0.  1.
          3    1    3    3  501    0 -0.51168418940E+02 -0.95018811848E+02  0.81908702603E+02  0.13548364205E+03  0.00000000000E+00 0.  1.
         21    1    1    2  502  501  0.35020652144E+02 -0.44388615908E+02  0.19397855883E+02  0.59775179729E+02  0.00000000000E+00 0.  1.
<mgrwt>
<rscale>  1 0.30000000E+03</rscale>
<asrwt>0</asrwt>
<pdfrwt beam="1">  1        1 0.55799822E+00 0.30000000E+03</pdfrwt>
<pdfrwt beam="2">0</pdfrwt>
<totfact> 0.88296373E-02</totfact>
</mgrwt>
</event>
<event>
 6    1  0.5260809E-006  0.3000000E+03  0.7818608E-02  0.1093470E+00
          1   -1    0    0  502    0  0.00000000000E+00  0.00000000000E+00  0.11847042110E+03  0.11847042110E+03  0.00000000000E+00 0.  1.
         13   -1    0    0    0    0 -0.00000000000E+00 -0.00000000000E+00 -0.10000000000E+04  0.10000000000E+04  0.00000000000E+00 0.  1.
    9000005    2    1    2  501    0  0.94982695995E+01  0.12270941149E+02 -0.89631135893E+03  0.10970392722E+04  0.63236090922E+03 0.  0.
         13    1    3    3    0    0  0.14801099110E+03 -0.26046909890E+03 -0.60261203485E+03  0.67297300801E+03  0.00000000000E+00 0.  1.
          3    1    3    3  501    0 -0.13851272150E+03  0.27274004005E+03 -0.29369932408E+03  0.42406626420E+03  0.00000000000E+00 0.  1.
         21    1    1    2  502  501 -0.94982695995E+01 -0.12270941149E+02  0.14781780026E+02  0.21431148891E+02  0.00000000000E+00 0.  1.
<mgrwt>
<rscale>  1 0.30000000E+03</rscale>
<asrwt>0</asrwt>
<pdfrwt beam="1">  1        1 0.43080244E+00 0.30000000E+03</pdfrwt>
<pdfrwt beam="2">0</pdfrwt>
<totfact> 0.68659334E-01</totfact>
</mgrwt>
</event>
<event>
 6    1  0.5260809E-006  0.3000000E+03  0.7818608E-02  0.1093470E+00
          1   -1    0    0  502    0  0.00000000000E+00  0.00000000000E+00  0.11024175057E+03  0.11024175057E+03  0.00000000000E+00 0.  1.
         13   -1    0    0    0    0 -0.00000000000E+00 -0.00000000000E+00 -0.10000000000E+04  0.10000000000E+04  0.00000000000E+00 0.  1.
    9000005    2    1    2  501    0  0.11745853116E+02 -0.37225752699E+01 -0.89940215932E+03  0.10945947819E+04  0.62374808187E+03 0.  0.
         13    1    3    3    0    0  0.65916008530E+02 -0.26242177237E+03 -0.73525775122E+03  0.78346286927E+03  0.00000000000E+00 0.  1.
          3    1    3    3  501    0 -0.54170155414E+02  0.25869919710E+03 -0.16414440810E+03  0.31113191258E+03  0.00000000000E+00 0.  1.
         21    1    1    2  502  501 -0.11745853116E+02  0.37225752699E+01  0.96439098878E+01  0.15646968715E+02  0.00000000000E+00 0.  1.
<mgrwt>
<rscale>  1 0.30000000E+03</rscale>
<asrwt>0</asrwt>
<pdfrwt beam="1">  1        1 0.40087994E+00 0.30000000E+03</pdfrwt>
<pdfrwt beam="2">0</pdfrwt>
<totfact> 0.10410579E+00</totfact>
</mgrwt>
</event>
<event>
 6    1  0.5260809E-006  0.3000000E+03  0.7818608E-02  0.1093470E+00
          1   -1    0    0  502    0  0.00000000000E+00  0.00000000000E+00  0.10334791507E+03  0.10334791507E+03  0.00000000000E+00 0.  1.
         13   -1    0    0    0    0 -0.00000000000E+00 -0.00000000000E+00 -0.10000000000E+04  0.10000000000E+04  0.00000000000E+00 0.  1.
    9000005    2    1    2  501    0 -0.62917624151E+01 -0.69042161440E+01 -0.88329057694E+03  0.10870450205E+04  0.63354350985E+03 0.  0.
         13    1    3    3    0    0  0.22937412290E+03 -0.21258141668E+03 -0.35507482643E+03  0.47316115577E+03  0.00000000000E+00 0.  1.
          3    1    3    3  501    0 -0.23566588531E+03  0.20567720053E+03 -0.52821575052E+03  0.61388386476E+03  0.00000000000E+00 0.  1.
         21    1    1    2  502  501  0.62917624151E+01  0.69042161440E+01 -0.13361507985E+02  0.16302894543E+02  0.00000000000E+00 0.  1.
<mgrwt>
<rscale>  1 0.30000000E+03</rscale>
<asrwt>0</asrwt>
<pdfrwt beam="1">  1        1 0.37581139E+00 0.30000000E+03</pdfrwt>
<pdfrwt beam="2">0</pdfrwt>
<totfact> 0.14359785E+00</totfact>
</mgrwt>
</event>
<event>
 6    1  0.5260809E-006  0.3000000E+03  0.7818608E-02  0.1093470E+00
          1   -1    0    0  502    0  0.00000000000E+00  0.00000000000E+00  0.13959882744E+03  0.13959882744E+03  0.00000000000E+00 0.  1.
         13   -1    0    0    0    0 -0.00000000000E+00 -0.00000000000E+00 -0.10000000000E+04  0.10000000000E+04  0.00000000000E+00 0.  1.
    9000005    2    1    2  501    0 -0.42015365141E+02  0.29404799347E+01 -0.87521607943E+03  0.10949511086E+04  0.65661313362E+03 0.  0.
         13    1    3    3    0    0  0.98811087213E+02 -0.66799727528E+02  0.68969223495E+02  0.13777731433E+03  0.00000000000E+00 0.  1.
          3    1    3    3  501    0 -0.14082645235E+03  0.69740207462E+02 -0.94418530292E+03  0.95717379429E+03  0.00000000000E+00 0.  1.
         21    1    1    2  502  501  0.42015365141E+02 -0.29404799347E+01  0.14814906865E+02  0.44647718818E+02  0.00000000000E+00 0.  1.
<mgrwt>
<rscale>  1 0.30000000E+03</rscale>
<asrwt>0</asrwt>
<pdfrwt beam="1">  1        1 0.50763317E+00 0.30000000E+03</pdfrwt>
<pdfrwt beam="2">0</pdfrwt>
<totfact> 0.20077859E-01</totfact>
</mgrwt>
</event>
<event>
 6    1  0.5260809E-006  0.3000000E+03  0.7818608E-02  0.1093470E+00
          1   -1    0    0  502    0  0.00000000000E+00  0.00000000000E+00  0.98349829308E+02  0.98349829308E+02  0.00000000000E+00 0.  1.
         13   -1    0    0    0    0 -0.00000000000E+00 -0.00000000000E+00 -0.10000000000E+04  0.10000000000E+04  0.00000000000E+00 0.  1.
    9000005    2    1    2  501    0 -0.15721836142E+02  0.54151646195E+00 -0.91596460729E+03  0.10770807798E+04  0.56644891654E+03 0.  0.
         13    1    3    3    0    0  0.13819308171E+03 -0.19190351145E+03 -0.73287525252E+03  0.77008468449E+03  0.00000000000E+00 0.  1.
          1    1    3    3  501    0 -0.15391491785E+03  0.19244502791E+03 -0.18308935477E+03  0.30699609531E+03  0.00000000000E+00 0.  1.
         21    1    1    2  502  501  0.15721836142E+02 -0.54151646195E+00  0.14314436596E+02  0.21269049505E+02  0.00000000000E+00 0.  1.
<mgrwt>
<rscale>  1 0.30000000E+03</rscale>
<asrwt>0</asrwt>
<pdfrwt beam="1">  1        1 0.35763650E+00 0.30000000E+03</pdfrwt>
<pdfrwt beam="2">0</pdfrwt>
<totfact> 0.17973002E+00</totfact>
</mgrwt>
</event>
<event>
 6    1  0.5260809E-006  0.3000000E+03  0.7818608E-02  0.1093470E+00
          1   -1    0    0  502    0  0.00000000000E+00  0.00000000000E+00  0.98792459191E+02  0.98792459191E+02  0.00000000000E+00 0.  1.
         13   -1    0    0    0    0 -0.00000000000E+00 -0.00000000000E+00 -0.10000000000E+04  0.10000000000E+04  0.00000000000E+00 0.  1.
    9000005    2    1    2  501    0  0.69544551576E+01  0.66242118680E+01 -0.89906202646E+03  0.10889513281E+04  0.61433722246E+03 0.  0.
         13    1    3    3    0    0 -0.30317217219E+03 -0.57876819528E+01 -0.41636194290E+03  0.51507682024E+03  0.00000000000E+00 0.  1.
          1    1    3    3  501    0  0.31012662734E+03  0.12411893821E+02 -0.48270008356E+03  0.57387450786E+03  0.00000000000E+00 0.  1.
         21    1    1    2  502  501 -0.69544551576E+01 -0.66242118680E+01 -0.21455143448E+01  0.98411310943E+01  0.00000000000E+00 0.  1.
<mgrwt>
<rscale>  1 0.30000000E+03</rscale>
<asrwt>0</asrwt>
<pdfrwt beam="1">  1        1 0.35924606E+00 0.30000000E+03</pdfrwt>
<pdfrwt beam="2">0</pdfrwt>
<totfact> 0.17624342E+00</totfact>
</mgrwt>
</event>
<event>
 6    1  0.5260809E-006  0.3000000E+03  0.7818608E-02  0.1093470E+00
          1   -1    0    0  502    0  0.00000000000E+00  0.00000000000E+00  0.14567523662E+03  0.14567523662E+03  0.00000000000E+00 0.  1.
         13   -1    0    0    0    0 -0.00000000000E+00 -0.00000000000E+00 -0.10000000000E+04  0.10000000000E+04  0.00000000000E+00 0.  1.
    9000005    2    1    2  501    0 -0.18896278376E+02  0.19405208553E+02 -0.89035249530E+03  0.11006016421E+04  0.64642306368E+03 0.  0.
         13    1    3    3    0    0 -0.54686629536E+02 -0.44156488102E+01 -0.99029006369E+03  0.99180871928E+03  0.00000000000E+00 0.  1.
          1    1    3    3  501    0  0.35790351161E+02  0.23820857363E+02  0.99937568385E+02  0.10879292282E+03  0.00000000000E+00 0.  1.
         21    1    1    2  502  501  0.18896278376E+02 -0.19405208553E+02  0.36027731923E+02  0.45073594520E+02  0.00000000000E+00 0. -1.
<mgrwt>
<rscale>  1 0.30000000E+03</rscale>
<asrwt>0</asrwt>
<pdfrwt beam="1">  1        1 0.52972925E+00 0.30000000E+03</pdfrwt>
<pdfrwt beam="2">0</pdfrwt>
<totfact> 0.13720583E-01</totfact>
</mgrwt>
</event>
<event>
 6    1  0.5260809E-006  0.3000000E+03  0.7818608E-02  0.1093470E+00
          1   -1    0    0  502    0  0.00000000000E+00  0.00000000000E+00  0.15719111845E+03  0.15719111845E+03  0.00000000000E+00 0.  1.
         13   -1    0    0    0    0 -0.00000000000E+00 -0.00000000000E+00 -0.10000000000E+04  0.10000000000E+04  0.00000000000E+00 0.  1.
    9000005    2    1    2  501    0  0.10567783034E+03 -0.89050056886E+01 -0.81375891000E+03  0.10472320179E+04  0.65057223482E+03 0.  0.
         13    1    3    3    0    0 -0.10648160546E+03  0.53474334434E+02 -0.81742301035E+03  0.82606187092E+03  0.00000000000E+00 0.  1.
          1    1    3    3  501    0  0.21215943580E+03 -0.62379340123E+02  0.36641003452E+01  0.22117014696E+03  0.00000000000E+00 0.  1.
         21    1    1    2  502  501 -0.10567783034E+03  0.89050056886E+01 -0.29049971549E+02  0.10995910057E+03  0.00000000000E+00 0.  1.
<mgrwt>
<rscale>  1 0.30000000E+03</rscale>
<asrwt>0</asrwt>
<pdfrwt beam="1">  1        1 0.57160527E+00 0.30000000E+03</pdfrwt>
<pdfrwt beam="2">0</pdfrwt>
<totfact> 0.77105867E-02</totfact>
</mgrwt>
</event>
<event>
 6    1  0.5260809E-006  0.3000000E+03  0.7818608E-02  0.1093470E+00
          1   -1    0    0  502    0  0.00000000000E+00  0.00000000000E+00  0.69660969009E+02  0.69660969009E+02  0.00000000000E+00 0.  1.
         13   -1    0    0    0    0 -0.00000000000E+00 -0.00000000000E+00 -0.10000000000E+04  0.10000000000E+04  0.00000000000E+00 0.  1.
    9000005    2    1    2  501    0  0.10627737954E+02 -0.62398755140E+01 -0.89729450482E+03  0.10343930577E+04  0.51447029507E+03 0.  0.
         13    1    3    3    0    0  0.13354946367E+03 -0.61495479502E+02 -0.21857958359E+02  0.14864361268E+03  0.00000000000E+00 0.  1.
          3    1    3    3  501    0 -0.12292172572E+03  0.55255603988E+02 -0.87543654646E+03  0.88574944499E+03  0.00000000000E+00 0.  1.
         21    1    1    2  502  501 -0.10627737954E+02  0.62398755140E+01 -0.33044526171E+02  0.35267911340E+02  0.00000000000E+00 0. -1.
<mgrwt>
<rscale>  1 0.30000000E+03</rscale>
<asrwt>0</asrwt>
<pdfrwt beam="1">  1        1 0.25331315E+00 0.30000000E+03</pdfrwt>
<pdfrwt beam="2">0</pdfrwt>
<totfact> 0.57578851E+00</totfact>
</mgrwt>
</event>
<event>
 6    1  0.5260809E-006  0.3000000E+03  0.7818608E-02  0.1093470E+00
          1   -1    0    0  502    0  0.00000000000E+00  0.00000000000E+00  0.11253978932E+03  0.11253978932E+03  0.00000000000E+00 0.  1.
         13   -1    0    0    0    0 -0.00000000000E+00 -0.00000000000E+00 -0.10000000000E+04  0.10000000000E+04  0.00000000000E+00 0.  1.
    9000005    2    1    2  501    0 -0.30437954218E+01  0.94689550166E+01 -0.88796938631E+03  0.11025806197E+04  0.65352541353E+03 0.  0.
         13    1    3    3    0    0 -0.10709462739E+03  0.31098092150E+03 -0.52354457537E+03  0.61828578761E+03  0.00000000000E+00 0.  1.
          1    1    3    3  501    0  0.10405083197E+03 -0.30151196649E+03 -0.36442481094E+03  0.48429483210E+03  0.00000000000E+00 0.  1.
         21    1    1    2  502  501  0.30437954218E+01 -0.94689550166E+01  0.50917563489E+00  0.99591696192E+01  0.00000000000E+00 0.  1.
<mgrwt>
<rscale>  1 0.30000000E+03</rscale>
<asrwt>0</asrwt>
<pdfrwt beam="1">  1        1 0.40923646E+00 0.30000000E+03</pdfrwt>
<pdfrwt beam="2">0</pdfrwt>
<totfact> 0.93096515E-01</totfact>
</mgrwt>
</event>
<event>
 6    1  0.5260809E-006  0.3000000E+03  0.7818608E-02  0.1093470E+00
          1   -1    0    0  502    0  0.00000000000E+00  0.00000000000E+00  0.12056184666E+03  0.12056184666E+03  0.00000000000E+00 0.  1.
         13   -1    0    0    0    0 -0.00000000000E+00 -0.00000000000E+00 -0.10000000000E+04  0.10000000000E+04  0.00000000000E+00 0.  1.
    9000005    2    1    2  501    0 -0.25501390638E+01 -0.25756916690E+02 -0.88134780198E+03  0.10946086441E+04  0.64863257216E+03 0.  0.
         13    1    3    3    0    0 -0.16034491429E+03  0.13483879936E+03 -0.83995760557E+03  0.86569092204E+03  0.00000000000E+00 0.  1.
          1    1    3    3  501    0  0.15779477523E+03 -0.16059571605E+03 -0.41390196411E+02  0.22891772203E+03  0.00000000000E+00 0.  1.
         21    1    1    2  502  501  0.25501390638E+01  0.25756916690E+02  0.19096486453E+01  0.25953202588E+02  0.00000000000E+00 0. -1.
<mgrwt>
<rscale>  1 0.30000000E+03</rscale>
<asrwt>0</asrwt>
<pdfrwt beam="1">  1        1 0.43840764E+00 0.30000000E+03</pdfrwt>
<pdfrwt beam="2">0</pdfrwt>
<totfact> 0.61387458E-01</totfact>
</mgrwt>
</event>
<event>
 6    1  0.5260809E-006  0.3000000E+03  0.7818608E-02  0.1093470E+00
          1   -1    0    0  502    0  0.00000000000E+00  0.00000000000E+00  0.12223694159E+03  0.12223694159E+03  0.00000000000E+00 0.  1.
         13   -1    0    0    0    0 -0.00000000000E+00 -0.00000000000E+00 -0.10000000000E+04  0.10000000000E+04  0.00000000000E+00 0.  1.
    9000005    2    1    2  501    0 -0.74205772433E+01 -0.65822613017E+01 -0.88280450009E+03  0.11111100703E+04  0.67462835088E+03 0.  0.
         13    1    3    3    0    0 -0.16953818268E+03 -0.29487629826E+03 -0.38854981915E+03  0.51639731663E+03  0.00000000000E+00 0.  1.
          1    1    3    3  501    0  0.16211760544E+03  0.28829403696E+03 -0.49425468094E+03  0.59471275367E+03  0.00000000000E+00 0.  1.
         21    1    1    2  502  501  0.74205772433E+01  0.65822613017E+01  0.50414416876E+01  0.11126871292E+02  0.00000000000E+00 0.  1.
<mgrwt>
<rscale>  1 0.30000000E+03</rscale>
<asrwt>0</asrwt>
<pdfrwt beam="1">  1        1 0.44449891E+00 0.30000000E+03</pdfrwt>
<pdfrwt beam="2">0</pdfrwt>
<totfact> 0.55999492E-01</totfact>
</mgrwt>
</event>
<event>
 6    1  0.5260809E-006  0.3000000E+03  0.7818608E-02  0.1093470E+00
          1   -1    0    0  502    0  0.00000000000E+00  0.00000000000E+00  0.11474233042E+03  0.11474233042E+03  0.00000000000E+00 0.  1.
         13   -1    0    0    0    0 -0.00000000000E+00 -0.00000000000E+00 -0.10000000000E+04  0.10000000000E+04  0.00000000000E+00 0.  1.
    9000005    2    1    2  501    0 -0.52644275801E+01 -0.14358709531E+02 -0.88650159079E+03  0.10993984692E+04  0.65004464221E+03 0.  0.
         13    1    3    3    0    0 -0.11553526118E+03  0.24473031195E+03 -0.72709802408E+03  0.77583043172E+03  0.00000000000E+00 0.  1.
          3    1    3    3  501    0  0.11027083360E+03 -0.25908902148E+03 -0.15940356671E+03  0.32356803748E+03  0.00000000000E+00 0.  1.
         21    1    1    2  502  501  0.52644275801E+01  0.14358709531E+02  0.12439212053E+01  0.15343861219E+02  0.00000000000E+00 0.  1.
<mgrwt>
<rscale>  1 0.30000000E+03</rscale>
<asrwt>0</asrwt>
<pdfrwt beam="1">  1        1 0.41724572E+00 0.30000000E+03</pdfrwt>
<pdfrwt beam="2">0</pdfrwt>
<totfact> 0.83373041E-01</totfact>
</mgrwt>
</event>
<event>
 6    1  0.5260809E-006  0.3000000E+03  0.7818608E-02  0.1093470E+00
          1   -1    0    0  502    0  0.00000000000E+00  0.00000000000E+00  0.16488370921E+03  0.16488370921E+03  0.00000000000E+00 0.  1.
         13   -1    0    0    0    0 -0.00000000000E+00 -0.00000000000E+00 -0.10000000000E+04  0.10000000000E+04  0.00000000000E+00 0.  1.
    9000005    2    1    2  501    0 -0.25322511437E+02  0.66785929216E+02 -0.87199874132E+03  0.10844977335E+04  0.64082130058E+03 0.  0.
         13    1    3    3    0    0  0.12271396817E+03  0.26641000638E+02 -0.91628465437E+03  0.92484919243E+03  0.00000000000E+00 0.  1.
          3    1    3    3  501    0 -0.14803647961E+03  0.40144928578E+02  0.44285913055E+02  0.15964854111E+03  0.00000000000E+00 0.  1.
         21    1    1    2  502  501  0.25322511437E+02 -0.66785929216E+02  0.36882450526E+02  0.80385975665E+02  0.00000000000E+00 0. -1.
<mgrwt>
<rscale>  1 0.30000000E+03</rscale>
<asrwt>0</asrwt>
<pdfrwt beam="1">  1        1 0.59957839E+00 0.30000000E+03</pdfrwt>
<pdfrwt beam="2">0</pdfrwt>
<totfact> 0.58797032E-02</totfact>
</mgrwt>
</event>
<event>
 6    1  0.5260809E-006  0.3000000E+03  0.7818608E-02  0.1093470E+00
          1   -1    0    0  502    0  0.00000000000E+00  0.00000000000E+00  0.10683206340E+03  0.10683206340E+03  0.00000000000E+00 0.  1.
         13   -1    0    0    0    0 -0.00000000000E+00 -0.00000000000E+00 -0.10000000000E+04  0.10000000000E+04  0.00000000000E+00 0.  1.
    9000005    2    1    2  501    0  0.92437053313E+01 -0.99546760529E+01 -0.87226866002E+03  0.10819057435E+04  0.63990849412E+03 0.  0.
         13    1    3    3    0    0  0.95483346813E+02  0.27447223256E+03 -0.21797269019E+03  0.36326872923E+03  0.00000000000E+00 0.  1.
          1    1    3    3  501    0 -0.86239641482E+02 -0.28442690861E+03 -0.65429596983E+03  0.71863701425E+03  0.00000000000E+00 0.  1.
         21    1    1    2  502  501 -0.92437053313E+01  0.99546760529E+01 -0.20899276582E+02  0.24926319929E+02  0.00000000000E+00 0. -1.
<mgrwt>
<rscale>  1 0.30000000E+03</rscale>
<asrwt>0</asrwt>
<pdfrwt beam="1">  1        1 0.38848105E+00 0.30000000E+03</pdfrwt>
<pdfrwt beam="2">0</pdfrwt>
<totfact> 0.12228623E+00</totfact>
</mgrwt>
</event>
<event>
 6    1  0.5260809E-006  0.3000000E+03  0.7818608E-02  0.1093470E+00
          1   -1    0    0  502    0  0.00000000000E+00  0.00000000000E+00  0.76679309059E+02  0.76679309059E+02  0.00000000000E+00 0.  1.
         13   -1    0    0    0    0 -0.00000000000E+00 -0.00000000000E+00 -0.10000000000E+04  0.10000000000E+04  0.00000000000E+00 0.  1.
    9000005    2    1    2  501    0 -0.26221052378E+02 -0.12363193445E+02 -0.88526074327E+03  0.10288363184E+04  0.52342830867E+03 0.  0.
         13    1    3    3    0    0 -0.16100433393E+00 -0.99501318721E+02  0.33952280798E+02  0.10513465519E+03  0.00000000000E+00 0.  1.
          1    1    3    3  501    0 -0.26060048044E+02  0.87138125275E+02 -0.91921302406E+03  0.92370166320E+03  0.00000000000E+00 0.  1.
         21    1    1    2  502  501  0.26221052378E+02  0.12363193445E+02 -0.38059947675E+02  0.47842990678E+02  0.00000000000E+00 0.  1.
<mgrwt>
<rscale>  1 0.30000000E+03</rscale>
<asrwt>0</asrwt>
<pdfrwt beam="1">  1        1 0.27883444E+00 0.30000000E+03</pdfrwt>
<pdfrwt beam="2">0</pdfrwt>
<totfact> 0.43724847E+00</totfact>
</mgrwt>
</event>
<event>
 6    1  0.5260809E-006  0.3000000E+03  0.7818608E-02  0.1093470E+00
          1   -1    0    0  502    0  0.00000000000E+00  0.00000000000E+00  0.11706661740E+03  0.11706661740E+03  0.00000000000E+00 0.  1.
         13   -1    0    0    0    0 -0.00000000000E+00 -0.00000000000E+00 -0.10000000000E+04  0.10000000000E+04  0.00000000000E+00 0.  1.
    9000005    2    1    2  501    0  0.14916294556E+01  0.15777323432E+02 -0.88899946216E+03  0.11000976394E+04  0.64779906113E+03 0.  0.
         13    1    3    3    0    0  0.26957572827E+03 -0.12330278749E+03 -0.65189719787E+03  0.71613169687E+03  0.00000000000E+00 0.  1.
          3    1    3    3  501    0 -0.26808409882E+03  0.13908011092E+03 -0.23710226430E+03  0.38396594253E+03  0.00000000000E+00 0.  1.
         21    1    1    2  502  501 -0.14916294556E+01 -0.15777323432E+02  0.60660795653E+01  0.16968978001E+02  0.00000000000E+00 0. -1.
<mgrwt>
<rscale>  1 0.30000000E+03</rscale>
<asrwt>0</asrwt>
<pdfrwt beam="1">  1        1 0.42569769E+00 0.30000000E+03</pdfrwt>
<pdfrwt beam="2">0</pdfrwt>
<totfact> 0.73928173E-01</totfact>
</mgrwt>
</event>
<event>
 6    1  0.5260809E-006  0.3000000E+03  0.7818608E-02  0.1093470E+00
          1   -1    0    0  502    0  0.00000000000E+00  0.00000000000E+00  0.11105076359E+03  0.11105076359E+03  0.00000000000E+00 0.  1.
         13   -1    0    0    0    0 -0.00000000000E+00 -0.00000000000E+00 -0.10000000000E+04  0.10000000000E+04  0.00000000000E+00 0.  1.
    9000005    2    1    2  501    0  0.10451569282E+02 -0.48514770815E+01 -0.86073172392E+03  0.10805712600E+04  0.65317867018E+03 0.  0.
         13    1    3    3    0    0  0.82018154495E+02  0.16717304145E+03 -0.87415795931E+03  0.89377063125E+03  0.00000000000E+00 0.  1.
          3    1    3    3  501    0 -0.71566585214E+02 -0.17202451853E+03  0.13426235393E+02  0.18680062872E+03  0.00000000000E+00 0.  1.
         21    1    1    2  502  501 -0.10451569282E+02  0.48514770815E+01 -0.28217512487E+02  0.30479503626E+02  0.00000000000E+00 0.  1.
<mgrwt>
<rscale>  1 0.30000000E+03</rscale>
<asrwt>0</asrwt>
<pdfrwt beam="1">  1        1 0.40382181E+00 0.30000000E+03</pdfrwt>
<pdfrwt beam="2">0</pdfrwt>
<totfact> 0.10012894E+00</totfact>
</mgrwt>
</event>
<event>
 6    1  0.5260809E-006  0.3000000E+03  0.7818608E-02  0.1093470E+00
          1   -1    0    0  502    0  0.00000000000E+00  0.00000000000E+00  0.11370594793E+03  0.11370594793E+03  0.00000000000E+00 0.  1.
         13   -1    0    0    0    0 -0.00000000000E+00 -0.00000000000E+00 -0.10000000000E+04  0.10000000000E+04  0.00000000000E+00 0.  1.
    9000005    2    1    2  501    0  0.86877989093E+01  0.16485886443E+02 -0.87717476181E+03  0.10929592914E+04  0.65174932883E+03 0.  0.
         13    1    3    3    0    0  0.24693150151E+03  0.10283393283E+03 -0.77476267672E+03  0.81963845042E+03  0.00000000000E+00 0.  1.
          3    1    3    3  501    0 -0.23824370260E+03 -0.86348046387E+02 -0.10241208509E+03  0.27332084099E+03  0.00000000000E+00 0.  1.
         21    1    1    2  502  501 -0.86877989093E+01 -0.16485886443E+02 -0.91192902644E+01  0.20746656517E+02  0.00000000000E+00 0.  1.
<mgrwt>
<rscale>  1 0.30000000E+03</rscale>
<asrwt>0</asrwt>
<pdfrwt beam="1">  1        1 0.41347705E+00 0.30000000E+03</pdfrwt>
<pdfrwt beam="2">0</pdfrwt>
<totfact> 0.87849657E-01</totfact>
</mgrwt>
</event>
<event>
 6    1  0.5260809E-006  0.3000000E+03  0.7818608E-02  0.1093470E+00
          1   -1    0    0  502    0  0.00000000000E+00  0.00000000000E+00  0.13069073298E+03  0.13069073298E+03  0.00000000000E+00 0.  1.
         13   -1    0    0    0    0 -0.00000000000E+00 -0.00000000000E+00 -0.10000000000E+04  0.10000000000E+04  0.00000000000E+00 0.  1.
    9000005    2    1    2  501    0 -0.35185665483E+02 -0.91848116057E+01 -0.88132719378E+03  0.10923916157E+04  0.64440625988E+03 0.  0.
         13    1    3    3    0    0 -0.16930044857E+02 -0.88178482087E+02  0.84422565517E+02  0.12324463757E+03  0.00000000000E+00 0.  1.
          1    1    3    3  501    0 -0.18255620625E+02  0.78993670481E+02 -0.96574975930E+03  0.96914697814E+03  0.00000000000E+00 0.  1.
         21    1    1    2  502  501  0.35185665483E+02  0.91848116057E+01  0.12017926763E+02  0.38299117266E+02  0.00000000000E+00 0.  1.
<mgrwt>
<rscale>  1 0.30000000E+03</rscale>
<asrwt>0</asrwt>
<pdfrwt beam="1">  1        1 0.47524003E+00 0.30000000E+03</pdfrwt>
<pdfrwt beam="2">0</pdfrwt>
<totfact> 0.34537344E-01</totfact>
</mgrwt>
</event>
<event>
 6    1  0.5260809E-006  0.3000000E+03  0.7818608E-02  0.1093470E+00
          1   -1    0    0  502    0  0.00000000000E+00  0.00000000000E+00  0.11577864944E+03  0.11577864944E+03  0.00000000000E+00 0.  1.
         13   -1    0    0    0    0 -0.00000000000E+00 -0.00000000000E+00 -0.10000000000E+04  0.10000000000E+04  0.00000000000E+00 0.  1.
    9000005    2    1    2  501    0  0.28561221465E+02  0.11668297913E+02 -0.88174107371E+03  0.10848263584E+04  0.63121233689E+03 0.  0.
         13    1    3    3    0    0 -0.10246037387E+03  0.27729152084E+03 -0.63080202278E+03  0.69663470175E+03  0.00000000000E+00 0.  1.
          3    1    3    3  501    0  0.13102159533E+03 -0.26562322293E+03 -0.25093905093E+03  0.38819165664E+03  0.00000000000E+00 0.  1.
         21    1    1    2  502  501 -0.28561221465E+02 -0.11668297913E+02 -0.24802768466E+01  0.30952291047E+02  0.00000000000E+00 0.  1.
<mgrwt>
<rscale>  1 0.30000000E+03</rscale>
<asrwt>0</asrwt>
<pdfrwt beam="1">  1        1 0.42101416E+00 0.30000000E+03</pdfrwt>
<pdfrwt beam="2">0</pdfrwt>
<totfact> 0.79057022E-01</totfact>
</mgrwt>
</event>
<event>
 6    1  0.5260809E-006  0.3000000E+03  0.7818608E-02  0.1093470E+00
          1   -1    0    0  502    0  0.00000000000E+00  0.00000000000E+00  0.12967762113E+03  0.12967762113E+03  0.00000000000E+00 0.  1.
         13   -1    0    0    0    0 -0.00000000000E+00 -0.00000000000E+00 -0.10000000000E+04  0.10000000000E+04  0.00000000000E+00 0.  1.
    9000005    2    1    2  501    0  0.24432484277E+02  0.19841558245E+02 -0.88177278796E+03  0.10961851505E+04  0.65046752481E+03 0.  0.
         13    1    3    3    0    0  0.15063075522E+03 -0.12419102605E+02  0.47032569517E+02  0.15829062235E+03  0.00000000000E+00 0.  1.
          3    1    3    3  501    0 -0.12619827094E+03  0.32260660850E+02 -0.92880535748E+03  0.93789452814E+03  0.00000000000E+00 0.  1.
         21    1    1    2  502  501 -0.24432484277E+02 -0.19841558245E+02  0.11450409088E+02  0.33492470644E+02  0.00000000000E+00 0.  1.
<mgrwt>
<rscale>  1 0.30000000E+03</rscale>
<asrwt>0</asrwt>
<pdfrwt beam="1">  1        1 0.47155598E+00 0.30000000E+03</pdfrwt>
<pdfrwt beam="2">0</pdfrwt>
<totfact> 0.36670991E-01</totfact>
</mgrwt>
</event>
<event>
 6    1  0.5260809E-006  0.3000000E+03  0.7818608E-02  0.1093470E+00
          1   -1    0    0  502    0  0.00000000000E+00  0.00000000000E+00  0.81437152917E+02  0.81437152917E+02  0.00000000000E+00 0.  1.
         13   -1    0    0    0    0 -0.00000000000E+00 -0.00000000000E+00 -0.10000000000E+04  0.10000000000E+04  0.00000000000E+00 0.  1.
    9000005    2    1    2  501    0 -0.10258148667E+02  0.11148752328E+02 -0.88842619676E+03  0.10477067218E+04  0.55512047653E+03 0.  0.
         13    1    3    3    0    0 -0.25194492637E+03  0.85289365167E+02 -0.64088440341E+03  0.69389000589E+03  0.00000000000E+00 0.  1.
          3    1    3    3  501    0  0.24168677770E+03 -0.74140612838E+02 -0.24754179335E+03  0.35381671588E+03  0.00000000000E+00 0.  1.
         21    1    1    2  502  501  0.10258148667E+02 -0.11148752328E+02 -0.30136650326E+02  0.33730431148E+02  0.00000000000E+00 0.  1.
<mgrwt>
<rscale>  1 0.30000000E+03</rscale>
<asrwt>0</asrwt>
<pdfrwt beam="1">  1        1 0.29613573E+00 0.30000000E+03</pdfrwt>
<pdfrwt beam="2">0</pdfrwt>
<totfact> 0.36240193E+00</totfact>
</mgrwt>
</event>
<event>
 6    1  0.5260809E-006  0.3000000E+03  0.7818608E-02  0.1093470E+00
          1   -1    0    0  502    0  0.00000000000E+00  0.00000000000E+00  0.12423047111E+03  0.12423047111E+03  0.00000000000E+00 0.  1.
         13   -1    0    0    0    0 -0.00000000000E+00 -0.00000000000E+00 -0.10000000000E+04  0.10000000000E+04  0.00000000000E+00 0.  1.
    9000005    2    1    2  501    0 -0.15454549714E+02 -0.15546194214E+02 -0.88284792741E+03  0.11011950422E+04  0.65782180769E+03 0.  0.
         13    1    3    3    0    0 -0.28123124427E+03 -0.80465090282E+02 -0.17158318272E+03  0.33912598264E+03  0.00000000000E+00 0.  1.
          1    1    3    3  501    0  0.26577669456E+03  0.64918896068E+02 -0.71126474469E+03  0.76206905952E+03  0.00000000000E+00 0.  1.
         21    1    1    2  502  501  0.15454549714E+02  0.15546194214E+02  0.70783985187E+01  0.23035428952E+02  0.00000000000E+00 0.  1.
<mgrwt>
<rscale>  1 0.30000000E+03</rscale>
<asrwt>0</asrwt>
<pdfrwt beam="1">  1        1 0.45174812E+00 0.30000000E+03</pdfrwt>
<pdfrwt beam="2">0</pdfrwt>
<totfact> 0.50082193E-01</totfact>
</mgrwt>
</event>
<event>
 6    1  0.5260809E-006  0.3000000E+03  0.7818608E-02  0.1093470E+00
          1   -1    0    0  502    0  0.00000000000E+00  0.00000000000E+00  0.11140218271E+03  0.11140218271E+03  0.00000000000E+00 0.  1.
         13   -1    0    0    0    0 -0.00000000000E+00 -0.00000000000E+00 -0.10000000000E+04  0.10000000000E+04  0.00000000000E+00 0.  1.
    9000005    2    1    2  501    0  0.14872345627E+02 -0.42790811168E+01 -0.88352240698E+03  0.10951154707E+04  0.64685899022E+03 0.  0.
         13    1    3    3    0    0  0.14139780182E+03 -0.12604480651E+03 -0.89908897515E+03  0.91882621689E+03  0.00000000000E+00 0.  1.
          3    1    3    3  501    0 -0.12652545620E+03  0.12176572539E+03  0.15566568175E+02  0.17628925376E+03  0.00000000000E+00 0.  1.
         21    1    1    2  502  501 -0.14872345627E+02  0.42790811168E+01 -0.50754103148E+01  0.16286712053E+02  0.00000000000E+00 0. -1.
<mgrwt>
<rscale>  1 0.30000000E+03</rscale>
<asrwt>0</asrwt>
<pdfrwt beam="1">  1        1 0.40509970E+00 0.30000000E+03</pdfrwt>
<pdfrwt beam="2">0</pdfrwt>
<totfact> 0.98435055E-01</totfact>
</mgrwt>
</event>
<event>
 6    1  0.5260809E-006  0.3000000E+03  0.7818608E-02  0.1093470E+00
          1   -1    0    0  502    0  0.00000000000E+00  0.00000000000E+00  0.12385695492E+03  0.12385695492E+03  0.00000000000E+00 0.  1.
         13   -1    0    0    0    0 -0.00000000000E+00 -0.00000000000E+00 -0.10000000000E+04  0.10000000000E+04  0.00000000000E+00 0.  1.
    9000005    2    1    2  501    0 -0.78044361273E+01  0.16036443080E+02 -0.87089628704E+03  0.11052664950E+04  0.68032022275E+03 0.  0.
         13    1    3    3    0    0 -0.20409074422E+03 -0.18952036945E+03 -0.74320635347E+03  0.79367920859E+03  0.00000000000E+00 0.  1.
          1    1    3    3  501    0  0.19628630809E+03  0.20555681253E+03 -0.12768993357E+03  0.31158728642E+03  0.00000000000E+00 0.  1.
         21    1    1    2  502  501  0.78044361273E+01 -0.16036443080E+02 -0.52467580402E+01  0.18590459915E+02  0.00000000000E+00 0. -1.
<mgrwt>
<rscale>  1 0.30000000E+03</rscale>
<asrwt>0</asrwt>
<pdfrwt beam="1">  1        1 0.45038988E+00 0.30000000E+03</pdfrwt>
<pdfrwt beam="2">0</pdfrwt>
<totfact> 0.51145969E-01</totfact>
</mgrwt>
</event>
<event>
 6    1  0.5260809E-006  0.3000000E+03  0.7818608E-02  0.1093470E+00
          1   -1    0    0  502    0  0.00000000000E+00  0.00000000000E+00  0.11463608566E+03  0.11463608566E+03  0.00000000000E+00 0.  1.
         13   -1    0    0    0    0 -0.00000000000E+00 -0.00000000000E+00 -0.10000000000E+04  0.10000000000E+04  0.00000000000E+00 0.  1.
    9000005    2    1    2  501    0 -0.42512705363E+00  0.14640489286E+02 -0.88998360329E+03  0.10992781501E+04  0.64507915208E+03 0.  0.
         13    1    3    3    0    0 -0.28928146455E+03 -0.13455515306E+03 -0.47275482104E+03  0.57033847474E+03  0.00000000000E+00 0.  1.
          1    1    3    3  501    0  0.28885633750E+03  0.14919564234E+03 -0.41722878225E+03  0.52893967533E+03  0.00000000000E+00 0.  1.
         21    1    1    2  502  501  0.42512705363E+00 -0.14640489286E+02  0.46196889497E+01  0.15357935589E+02  0.00000000000E+00 0. -1.
<mgrwt>
<rscale>  1 0.30000000E+03</rscale>
<asrwt>0</asrwt>
<pdfrwt beam="1">  1        1 0.41685937E+00 0.30000000E+03</pdfrwt>
<pdfrwt beam="2">0</pdfrwt>
<totfact> 0.83824408E-01</totfact>
</mgrwt>
</event>
<event>
 6    1  0.5260809E-006  0.3000000E+03  0.7818608E-02  0.1093470E+00
          1   -1    0    0  502    0  0.00000000000E+00  0.00000000000E+00  0.11470816991E+03  0.11470816991E+03  0.00000000000E+00 0.  1.
         13   -1    0    0    0    0 -0.00000000000E+00 -0.00000000000E+00 -0.10000000000E+04  0.10000000000E+04  0.00000000000E+00 0.  1.
    9000005    2    1    2  501    0  0.18964667528E+01 -0.23526513894E+02 -0.87642306537E+03  0.10894941177E+04  0.64677890311E+03 0.  0.
         13    1    3    3    0    0  0.14208606774E+03 -0.28201491407E+03 -0.26975915188E+03  0.41532019266E+03  0.00000000000E+00 0.  1.
          1    1    3    3  501    0 -0.14018960099E+03  0.25848840018E+03 -0.60666391349E+03  0.67417392502E+03  0.00000000000E+00 0.  1.
         21    1    1    2  502  501 -0.18964667528E+01  0.23526513894E+02 -0.88687647183E+01  0.25214052228E+02  0.00000000000E+00 0.  1.
<mgrwt>
<rscale>  1 0.30000000E+03</rscale>
<asrwt>0</asrwt>
<pdfrwt beam="1">  1        1 0.41712150E+00 0.30000000E+03</pdfrwt>
<pdfrwt beam="2">0</pdfrwt>
<totfact> 0.83517993E-01</totfact>
</mgrwt>
</event>
<event>
 6    1  0.5260809E-006  0.3000000E+03  0.7818608E-02  0.1093470E+00
          1   -1    0    0  502    0  0.00000000000E+00  0.00000000000E+00  0.14859123757E+03  0.14859123757E+03  0.00000000000E+00 0.  1.
         13   -1    0    0    0    0 -0.00000000000E+00 -0.00000000000E+00 -0.10000000000E+04  0.10000000000E+04  0.00000000000E+00 0.  1.
    9000005    2    1    2  501    0  0.56306439080E+00  0.31885494695E+02 -0.88113999879E+03  0.11049913726E+04  0.66601894428E+03 0.  0.
         13    1    3    3    0    0  0.66554659810E+02  0.86634435549E+02 -0.97312569269E+03  0.97923881762E+03  0.00000000000E+00 0.  1.
          1    1    3    3  501    0 -0.65991595419E+02 -0.54748940854E+02  0.91985693897E+02  0.12575255493E+03  0.00000000000E+00 0.  1.
         21    1    1    2  502  501 -0.56306439080E+00 -0.31885494695E+02  0.29731236359E+02  0.43599865010E+02  0.00000000000E+00 0.  1.
<mgrwt>
<rscale>  1 0.30000000E+03</rscale>
<asrwt>0</asrwt>
<pdfrwt beam="1">  1        1 0.54033291E+00 0.30000000E+03</pdfrwt>
<pdfrwt beam="2">0</pdfrwt>
<totfact> 0.11437839E-01</totfact>
</mgrwt>
</event>
<event>
 6    1  0.5260809E-006  0.3000000E+03  0.7818608E-02  0.1093470E+00
          1   -1    0    0  502    0  0.00000000000E+00  0.00000000000E+00  0.11866170633E+03  0.11866170633E+03  0.00000000000E+00 0.  1.
         13   -1    0    0    0    0 -0.00000000000E+00 -0.00000000000E+00 -0.10000000000E+04  0.10000000000E+04  0.00000000000E+00 0.  1.
    9000005    2    1    2  501    0 -0.10909396375E+02 -0.75266325517E+01 -0.87266323445E+03  0.11028211956E+04  0.67416452268E+03 0.  0.
         13    1    3    3    0    0 -0.24356382170E+01  0.25504125138E+03 -0.78575675259E+03  0.82611479013E+03  0.00000000000E+00 0.  1.
          1    1    3    3  501    0 -0.84737581577E+01 -0.26256788394E+03 -0.86906481860E+02  0.27670640549E+03  0.00000000000E+00 0.  1.
         21    1    1    2  502  501  0.10909396375E+02  0.75266325517E+01 -0.86750592222E+01  0.15840510703E+02  0.00000000000E+00 0.  1.
<mgrwt>
<rscale>  1 0.30000000E+03</rscale>
<asrwt>0</asrwt>
<pdfrwt beam="1">  1        1 0.43149802E+00 0.30000000E+03</pdfrwt>
<pdfrwt beam="2">0</pdfrwt>
<totfact> 0.67966709E-01</totfact>
</mgrwt>
</event>
<event>
 6    1  0.5260809E-006  0.3000000E+03  0.7818608E-02  0.1093470E+00
          1   -1    0    0  502    0  0.00000000000E+00  0.00000000000E+00  0.10902792702E+03  0.10902792702E+03  0.00000000000E+00 0.  1.
         13   -1    0    0    0    0 -0.00000000000E+00 -0.00000000000E+00 -0.10000000000E+04  0.10000000000E+04  0.00000000000E+00 0.  1.
    9000005    2    1    2  501    0 -0.11174554587E+02 -0.22378070837E+01 -0.86866054782E+03  0.10839743323E+04  0.64830496481E+03 0.  0.
         13    1    3    3    0    0  0.54794218179E+02 -0.40004923671E+02 -0.96155340284E+03  0.96394385043E+03  0.00000000000E+00 0.  1.
          3    1    3    3  501    0 -0.65968772766E+02  0.37767116587E+02  0.92892855020E+02  0.12003048192E+03  0.00000000000E+00 0.  1.
         21    1    1    2  502  501  0.11174554587E+02  0.22378070837E+01 -0.22311525164E+02  0.25053594671E+02  0.00000000000E+00 0.  1.
<mgrwt>
<rscale>  1 0.30000000E+03</rscale>
<asrwt>0</asrwt>
<pdfrwt beam="1">  1        1 0.39646603E+00 0.30000000E+03</pdfrwt>
<pdfrwt beam="2">0</pdfrwt>
<totfact> 0.11029317E+00</totfact>
</mgrwt>
</event>
<event>
 6    1  0.5260809E-006  0.3000000E+03  0.7818608E-02  0.1093470E+00
          1   -1    0    0  502    0  0.00000000000E+00  0.00000000000E+00  0.11582814383E+03  0.11582814383E+03  0.00000000000E+00 0.  1.
         13   -1    0    0    0    0 -0.00000000000E+00 -0.00000000000E+00 -0.10000000000E+04  0.10000000000E+04  0.00000000000E+00 0.  1.
    9000005    2    1    2  501    0  0.12175443751E+02  0.39561392384E+01 -0.89027275994E+03  0.11016466949E+04  0.64874953620E+03 0.  0.
         13    1    3    3    0    0 -0.89473190380E+02  0.15730413435E+03 -0.89941559628E+03  0.91744125551E+03  0.00000000000E+00 0.  1.
          1    1    3    3  501    0  0.10164863413E+03 -0.15334799511E+03  0.91428363423E+01  0.18420543934E+03  0.00000000000E+00 0.  1.
         21    1    1    2  502  501 -0.12175443751E+02 -0.39561392384E+01  0.61009037707E+01  0.14181448975E+02  0.00000000000E+00 0.  1.
<mgrwt>
<rscale>  1 0.30000000E+03</rscale>
<asrwt>0</asrwt>
<pdfrwt beam="1">  1        1 0.42119414E+00 0.30000000E+03</pdfrwt>
<pdfrwt beam="2">0</pdfrwt>
<totfact> 0.78854969E-01</totfact>
</mgrwt>
</event>
<event>
 6    1  0.5260809E-006  0.3000000E+03  0.7818608E-02  0.1093470E+00
          1   -1    0    0  502    0  0.00000000000E+00  0.00000000000E+00  0.12963244280E+03  0.12963244280E+03  0.00000000000E+00 0.  1.
         13   -1    0    0    0    0 -0.00000000000E+00 -0.00000000000E+00 -0.10000000000E+04  0.10000000000E+04  0.00000000000E+00 0.  1.
    9000005    2    1    2  501    0  0.34658526709E+01 -0.29654541612E+02 -0.88259687449E+03  0.10973685284E+04  0.65142078584E+03 0.  0.
         13    1    3    3    0    0  0.71618781776E+02  0.20037998637E+03 -0.33981361058E+02  0.21549042146E+03  0.00000000000E+00 0.  1.
          3    1    3    3  501    0 -0.68152929105E+02 -0.23003452799E+03 -0.84861551343E+03  0.88187810691E+03  0.00000000000E+00 0.  1.
         21    1    1    2  502  501 -0.34658526709E+01  0.29654541612E+02  0.12229317287E+02  0.32263914429E+02  0.00000000000E+00 0. -1.
<mgrwt>
<rscale>  1 0.30000000E+03</rscale>
<asrwt>0</asrwt>
<pdfrwt beam="1">  1        1 0.47139170E+00 0.30000000E+03</pdfrwt>
<pdfrwt beam="2">0</pdfrwt>
<totfact> 0.36768678E-01</totfact>
</mgrwt>
</event>
<event>
 6    1  0.5260809E-006  0.3000000E+03  0.7818608E-02  0.1093470E+00
          1   -1    0    0  502    0  0.00000000000E+00  0.00000000000E+00  0.11814788417E+03  0.11814788417E+03  0.00000000000E+00 0.  1.
         13   -1    0    0    0    0 -0.00000000000E+00 -0.00000000000E+00 -0.10000000000E+04  0.10000000000E+04  0.00000000000E+00 0.  1.
    9000005    2    1    2  501    0  0.77427163072E+01  0.82804211022E+01 -0.88955833459E+03  0.11044401915E+04  0.65448116171E+03 0.  0.
         13    1    3    3    0    0 -0.95388791532E+02 -0.13086999688E+03  0.33415348472E+02  0.16535586820E+03  0.00000000000E+00 0.  1.
          1    1    3    3  501    0  0.10313150784E+03  0.13915041798E+03 -0.92297368306E+03  0.93908432335E+03  0.00000000000E+00 0.  1.
         21    1    1    2  502  501 -0.77427163072E+01 -0.82804211022E+01  0.77062187642E+01  0.13707692624E+02  0.00000000000E+00 0. -1.
<mgrwt>
<rscale>  1 0.30000000E+03</rscale>
<asrwt>0</asrwt>
<pdfrwt beam="1">  1        1 0.42962958E+00 0.30000000E+03</pdfrwt>
<pdfrwt beam="2">0</pdfrwt>
<totfact> 0.69840476E-01</totfact>
</mgrwt>
</event>
<event>
 6    1  0.5260809E-006  0.3000000E+03  0.7818608E-02  0.1093470E+00
          1   -1    0    0  502    0  0.00000000000E+00  0.00000000000E+00  0.13032095766E+03  0.13032095766E+03  0.00000000000E+00 0.  1.
         13   -1    0    0    0    0 -0.00000000000E+00 -0.00000000000E+00 -0.10000000000E+04  0.10000000000E+04  0.00000000000E+00 0.  1.
    9000005    2    1    2  501    0 -0.47711561940E+02  0.10447926692E+02 -0.86542526091E+03  0.10812939552E+04  0.64641332209E+03 0.  0.
         13    1    3    3    0    0 -0.90626993091E+02 -0.11054582020E+03 -0.92767140271E+03  0.93862019030E+03  0.00000000000E+00 0.  1.
          3    1    3    3  501    0  0.42915431152E+02  0.12099374689E+03  0.62246141793E+02  0.14267376488E+03  0.00000000000E+00 0.  1.
         21    1    1    2  502  501  0.47711561940E+02 -0.10447926692E+02 -0.42537814288E+01  0.49027002471E+02  0.00000000000E+00 0.  1.
<mgrwt>
<rscale>  1 0.30000000E+03</rscale>
<asrwt>0</asrwt>
<pdfrwt beam="1">  1        1 0.47389539E+00 0.30000000E+03</pdfrwt>
<pdfrwt beam="2">0</pdfrwt>
<totfact> 0.35303479E-01</totfact>
</mgrwt>
</event>
<event>
 6    1  0.5260809E-006  0.3000000E+03  0.7818608E-02  0.1093470E+00
          1   -1    0    0  502    0  0.00000000000E+00  0.00000000000E+00  0.11023852989E+03  0.11023852989E+03  0.00000000000E+00 0.  1.
         13   -1    0    0    0    0 -0.00000000000E+00 -0.00000000000E+00 -0.10000000000E+04  0.10000000000E+04  0.00000000000E+00 0.  1.
    9000005    2    1    2  501    0  0.24424170520E+01  0.10798264079E+02 -0.88386101452E+03  0.10976932804E+04  0.65084381919E+03 0.  0.
         13    1    3    3    0    0  0.74442536131E+02  0.40882675759E+02  0.88236161957E+02  0.12246919874E+03  0.00000000000E+00 0.  1.
          1    1    3    3  501    0 -0.72000119079E+02 -0.30084411680E+02 -0.97209717647E+03  0.97522408168E+03  0.00000000000E+00 0.  1.
         21    1    1    2  502  501 -0.24424170520E+01 -0.10798264079E+02 -0.59004555922E+01  0.12545249474E+02  0.00000000000E+00 0.  1.
<mgrwt>
<rscale>  1 0.30000000E+03</rscale>
<asrwt>0</asrwt>
<pdfrwt beam="1">  1        1 0.40086823E+00 0.30000000E+03</pdfrwt>
<pdfrwt beam="2">0</pdfrwt>
<totfact> 0.10412184E+00</totfact>
</mgrwt>
</event>
<event>
 6    1  0.5260809E-006  0.3000000E+03  0.7818608E-02  0.1093470E+00
          1   -1    0    0  502    0  0.00000000000E+00  0.00000000000E+00  0.12767624514E+03  0.12767624514E+03  0.00000000000E+00 0.  1.
         13   -1    0    0    0    0 -0.00000000000E+00 -0.00000000000E+00 -0.10000000000E+04  0.10000000000E+04  0.00000000000E+00 0.  1.
    9000005    2    1    2  501    0 -0.78725432321E+01 -0.19030544105E+02 -0.88886548637E+03  0.11012609574E+04  0.64982282573E+03 0.  0.
         13    1    3    3    0    0 -0.31059177698E+03 -0.12359514101E+02 -0.63155463572E+03  0.70390430274E+03  0.00000000000E+00 0.  1.
          1    1    3    3  501    0  0.30271923375E+03 -0.66710300033E+01 -0.25731085065E+03  0.39735665464E+03  0.00000000000E+00 0.  1.
         21    1    1    2  502  501  0.78725432321E+01  0.19030544105E+02  0.16541731518E+02  0.26415287760E+02  0.00000000000E+00 0.  1.
<mgrwt>
<rscale>  1 0.30000000E+03</rscale>
<asrwt>0</asrwt>
<pdfrwt beam="1">  1        1 0.46427823E+00 0.30000000E+03</pdfrwt>
<pdfrwt beam="2">0</pdfrwt>
<totfact> 0.41207206E-01</totfact>
</mgrwt>
</event>
<event>
 6    1  0.5260809E-006  0.3000000E+03  0.7818608E-02  0.1093470E+00
          1   -1    0    0  502    0  0.00000000000E+00  0.00000000000E+00  0.92844864542E+02  0.92844864542E+02  0.00000000000E+00 0.  1.
         13   -1    0    0    0    0 -0.00000000000E+00 -0.00000000000E+00 -0.10000000000E+04  0.10000000000E+04  0.00000000000E+00 0.  1.
    9000005    2    1    2  501    0 -0.46609063616E+02 -0.12856890547E+02 -0.84937357361E+03  0.10175028886E+04  0.55815674892E+03 0.  0.
         13    1    3    3    0    0 -0.22451268315E+03  0.37121327906E+02 -0.10514869726E+03  0.25067944953E+03  0.00000000000E+00 0.  1.
          3    1    3    3  501    0  0.17790361953E+03 -0.49978218454E+02 -0.74422487635E+03  0.76682343910E+03  0.00000000000E+00 0.  1.
         21    1    1    2  502  501  0.46609063616E+02  0.12856890547E+02 -0.57781561848E+02  0.75341975919E+02  0.00000000000E+00 0.  1.
<mgrwt>
<rscale>  1 0.30000000E+03</rscale>
<asrwt>0</asrwt>
<pdfrwt beam="1">  1        1 0.33761840E+00 0.30000000E+03</pdfrwt>
<pdfrwt beam="2">0</pdfrwt>
<totfact> 0.22766761E+00</totfact>
</mgrwt>
</event>
<event>
 6    1  0.5260809E-006  0.3000000E+03  0.7818608E-02  0.1093470E+00
          1   -1    0    0  502    0  0.00000000000E+00  0.00000000000E+00  0.93249005188E+02  0.93249005188E+02  0.00000000000E+00 0.  1.
         13   -1    0    0    0    0 -0.00000000000E+00 -0.00000000000E+00 -0.10000000000E+04  0.10000000000E+04  0.00000000000E+00 0.  1.
    9000005    2    1    2  501    0  0.11027888212E+02 -0.11314134280E+02 -0.91482568498E+03  0.10755057086E+04  0.56529361518E+03 0.  0.
         13    1    3    3    0    0 -0.17832614153E+03 -0.43920822848E+02 -0.85465291863E+03  0.87416294977E+03  0.00000000000E+00 0.  1.
          3    1    3    3  501    0  0.18935402974E+03  0.32606688568E+02 -0.60172766352E+02  0.20134275882E+03  0.00000000000E+00 0.  1.
         21    1    1    2  502  501 -0.11027888212E+02  0.11314134280E+02  0.80746901656E+01  0.17743296599E+02  0.00000000000E+00 0. -1.
<mgrwt>
<rscale>  1 0.30000000E+03</rscale>
<asrwt>0</asrwt>
<pdfrwt beam="1">  1        1 0.33908801E+00 0.30000000E+03</pdfrwt>
<pdfrwt beam="2">0</pdfrwt>
<totfact> 0.22379402E+00</totfact>
</mgrwt>
</event>
<event>
 6    1  0.5260809E-006  0.3000000E+03  0.7818608E-02  0.1093470E+00
          1   -1    0    0  502    0  0.00000000000E+00  0.00000000000E+00  0.11178887087E+03  0.11178887087E+03  0.00000000000E+00 0.  1.
         13   -1    0    0    0    0 -0.00000000000E+00 -0.00000000000E+00 -0.10000000000E+04  0.10000000000E+04  0.00000000000E+00 0.  1.
    9000005    2    1    2  501    0  0.81297395315E+01 -0.94164109619E+01 -0.87992328458E+03  0.10968406326E+04  0.65470575460E+03 0.  0.
         13    1    3    3    0    0 -0.32064871549E+03 -0.32018952542E+02 -0.38241281194E+03  0.50008036434E+03  0.00000000000E+00 0.  1.
          3    1    3    3  501    0  0.32877845502E+03  0.22602541580E+02 -0.49751047264E+03  0.59676026825E+03  0.00000000000E+00 0.  1.
         21    1    1    2  502  501 -0.81297395315E+01  0.94164109619E+01 -0.82878445541E+01  0.14948238278E+02  0.00000000000E+00 0. -1.
<mgrwt>
<rscale>  1 0.30000000E+03</rscale>
<asrwt>0</asrwt>
<pdfrwt beam="1">  1        1 0.40650584E+00 0.30000000E+03</pdfrwt>
<pdfrwt beam="2">0</pdfrwt>
<totfact> 0.96595687E-01</totfact>
</mgrwt>
</event>
<event>
 6    1  0.5260809E-006  0.3000000E+03  0.7818608E-02  0.1093470E+00
          1   -1    0    0  502    0  0.00000000000E+00  0.00000000000E+00  0.11197119533E+03  0.11197119533E+03  0.00000000000E+00 0.  1.
         13   -1    0    0    0    0 -0.00000000000E+00 -0.00000000000E+00 -0.10000000000E+04  0.10000000000E+04  0.00000000000E+00 0.  1.
    9000005    2    1    2  501    0 -0.60419486928E+01  0.12052086943E+02 -0.88420423773E+03  0.10979574429E+04  0.65077773052E+03 0.  0.
         13    1    3    3    0    0  0.29767382383E+03 -0.41965844895E+02 -0.24352075815E+03  0.38687620395E+03  0.00000000000E+00 0.  1.
          1    1    3    3  501    0 -0.30371577252E+03  0.54017931837E+02 -0.64068347959E+03  0.71108123900E+03  0.00000000000E+00 0.  1.
         21    1    1    2  502  501  0.60419486928E+01 -0.12052086943E+02 -0.38245669368E+01  0.14013752386E+02  0.00000000000E+00 0. -1.
<mgrwt>
<rscale>  1 0.30000000E+03</rscale>
<asrwt>0</asrwt>
<pdfrwt beam="1">  1        1 0.40716884E+00 0.30000000E+03</pdfrwt>
<pdfrwt beam="2">0</pdfrwt>
<totfact> 0.95737289E-01</totfact>
</mgrwt>
</event>
<event>
 6    1  0.5260809E-006  0.3000000E+03  0.7818608E-02  0.1093470E+00
          1   -1    0    0  502    0  0.00000000000E+00  0.00000000000E+00  0.13959460071E+03  0.13959460071E+03  0.00000000000E+00 0.  1.
         13   -1    0    0    0    0 -0.00000000000E+00 -0.00000000000E+00 -0.10000000000E+04  0.10000000000E+04  0.00000000000E+00 0.  1.
    9000005    2    1    2  501    0 -0.13552205859E+02  0.17716048723E+02 -0.85955758675E+03  0.11172733227E+04  0.71341636652E+03 0.  0.
         13    1    3    3    0    0 -0.24636057134E+03  0.81515056187E+02 -0.83528374450E+03  0.87466403225E+03  0.00000000000E+00 0.  1.
          3    1    3    3  501    0  0.23280836548E+03 -0.63799007464E+02 -0.24273842249E+02  0.24260929044E+03  0.00000000000E+00 0.  1.
         21    1    1    2  502  501  0.13552205859E+02 -0.17716048723E+02 -0.84781254331E+00  0.22321278013E+02  0.00000000000E+00 0.  1.
<mgrwt>
<rscale>  1 0.30000000E+03</rscale>
<asrwt>0</asrwt>
<pdfrwt beam="1">  1        1 0.50761780E+00 0.30000000E+03</pdfrwt>
<pdfrwt beam="2">0</pdfrwt>
<totfact> 0.20083057E-01</totfact>
</mgrwt>
</event>
<event>
 6    1  0.5260809E-006  0.3000000E+03  0.7818608E-02  0.1093470E+00
          1   -1    0    0  502    0  0.00000000000E+00  0.00000000000E+00  0.13312808107E+03  0.13312808107E+03  0.00000000000E+00 0.  1.
         13   -1    0    0    0    0 -0.00000000000E+00 -0.00000000000E+00 -0.10000000000E+04  0.10000000000E+04  0.00000000000E+00 0.  1.
    9000005    2    1    2  501    0  0.27877105785E+02 -0.33731387928E+01 -0.88737035331E+03  0.10983617625E+04  0.64667140527E+03 0.  0.
         13    1    3    3    0    0 -0.76508285110E+02  0.26392231900E+03 -0.16364878976E+03  0.31982719482E+03  0.00000000000E+00 0.  1.
          3    1    3    3  501    0  0.10438539089E+03 -0.26729545779E+03 -0.72372156355E+03  0.77853456772E+03  0.00000000000E+00 0.  1.
         21    1    1    2  502  501 -0.27877105785E+02  0.33731387928E+01  0.20498434384E+02  0.34766318534E+02  0.00000000000E+00 0.  1.
<mgrwt>
<rscale>  1 0.30000000E+03</rscale>
<asrwt>0</asrwt>
<pdfrwt beam="1">  1        1 0.48410313E+00 0.30000000E+03</pdfrwt>
<pdfrwt beam="2">0</pdfrwt>
<totfact> 0.29837784E-01</totfact>
</mgrwt>
</event>
<event>
 6    1  0.5260809E-006  0.3000000E+03  0.7818608E-02  0.1093470E+00
          1   -1    0    0  502    0  0.00000000000E+00  0.00000000000E+00  0.12215278395E+03  0.12215278395E+03  0.00000000000E+00 0.  1.
         13   -1    0    0    0    0 -0.00000000000E+00 -0.00000000000E+00 -0.10000000000E+04  0.10000000000E+04  0.00000000000E+00 0.  1.
    9000005    2    1    2  501    0  0.14635919433E+02  0.31230853921E+02 -0.86800183989E+03  0.10862848623E+04  0.65222544535E+03 0.  0.
         13    1    3    3    0    0 -0.17206099861E+03 -0.25639086440E+03 -0.37511929447E+03  0.48585568606E+03  0.00000000000E+00 0.  1.
          1    1    3    3  501    0  0.18669691804E+03  0.28762171833E+03 -0.49288254542E+03  0.60042917621E+03  0.00000000000E+00 0.  1.
         21    1    1    2  502  501 -0.14635919433E+02 -0.31230853921E+02 -0.98453761619E+01  0.35867921686E+02  0.00000000000E+00 0.  1.
<mgrwt>
<rscale>  1 0.30000000E+03</rscale>
<asrwt>0</asrwt>
<pdfrwt beam="1">  1        1 0.44419288E+00 0.30000000E+03</pdfrwt>
<pdfrwt beam="2">0</pdfrwt>
<totfact> 0.56261655E-01</totfact>
</mgrwt>
</event>
<event>
 6    1  0.5260809E-006  0.3000000E+03  0.7818608E-02  0.1093470E+00
          1   -1    0    0  502    0  0.00000000000E+00  0.00000000000E+00  0.11848117864E+03  0.11848117864E+03  0.00000000000E+00 0.  1.
         13   -1    0    0    0    0 -0.00000000000E+00 -0.00000000000E+00 -0.10000000000E+04  0.10000000000E+04  0.00000000000E+00 0.  1.
    9000005    2    1    2  501    0  0.23767147428E+02  0.19974721662E+02 -0.86498677048E+03  0.10833076729E+04  0.65145186635E+03 0.  0.
         13    1    3    3    0    0  0.35914250884E+02 -0.19117691153E+03 -0.17398542619E+01  0.19452884622E+03  0.00000000000E+00 0.  1.
          3    1    3    3  501    0 -0.12147103456E+02  0.21115163319E+03 -0.86324691622E+03  0.88877882664E+03  0.00000000000E+00 0.  1.
         21    1    1    2  502  501 -0.23767147428E+02 -0.19974721662E+02 -0.16532050879E+02  0.35173505777E+02  0.00000000000E+00 0.  1.
<mgrwt>
<rscale>  1 0.30000000E+03</rscale>
<asrwt>0</asrwt>
<pdfrwt beam="1">  1        1 0.43084156E+00 0.30000000E+03</pdfrwt>
<pdfrwt beam="2">0</pdfrwt>
<totfact> 0.68620228E-01</totfact>
</mgrwt>
</event>
<event>
 6    1  0.5260809E-006  0.3000000E+03  0.7818608E-02  0.1093470E+00
          1   -1    0    0  502    0  0.00000000000E+00  0.00000000000E+00  0.11496845913E+03  0.11496845913E+03  0.00000000000E+00 0.  1.
         13   -1    0    0    0    0 -0.00000000000E+00 -0.00000000000E+00 -0.10000000000E+04  0.10000000000E+04  0.00000000000E+00 0.  1.
    9000005    2    1    2  501    0  0.23283753974E+01  0.19050462420E+02 -0.86123399491E+03  0.10843961736E+04  0.65865220399E+03 0.  0.
         13    1    3    3    0    0  0.21617829353E+03  0.19763156618E+03 -0.16891031114E+03  0.33811534090E+03  0.00000000000E+00 0.  1.
          3    1    3    3  501    0 -0.21384991813E+03 -0.17858110376E+03 -0.69232368377E+03  0.74628083267E+03  0.00000000000E+00 0.  1.
         21    1    1    2  502  501 -0.23283753974E+01 -0.19050462420E+02 -0.23797545956E+02  0.30572285553E+02  0.00000000000E+00 0. -1.
<mgrwt>
<rscale>  1 0.30000000E+03</rscale>
<asrwt>0</asrwt>
<pdfrwt beam="1">  1        1 0.41806801E+00 0.30000000E+03</pdfrwt>
<pdfrwt beam="2">0</pdfrwt>
<totfact> 0.82417719E-01</totfact>
</mgrwt>
</event>
<event>
 6    1  0.5260809E-006  0.3000000E+03  0.7818608E-02  0.1093470E+00
          1   -1    0    0  502    0  0.00000000000E+00  0.00000000000E+00  0.13482301890E+03  0.13482301890E+03  0.00000000000E+00 0.  1.
         13   -1    0    0    0    0 -0.00000000000E+00 -0.00000000000E+00 -0.10000000000E+04  0.10000000000E+04  0.00000000000E+00 0.  1.
    9000005    2    1    2  501    0 -0.14607186853E+02 -0.37762012008E+01 -0.88263526931E+03  0.11117487599E+04  0.67580519145E+03 0.  0.
         13    1    3    3    0    0  0.31470269449E+03  0.98333839223E+02 -0.46835761426E+03  0.57277062136E+03  0.00000000000E+00 0.  1.
          1    1    3    3  501    0 -0.32930988134E+03 -0.10211004042E+03 -0.41427765505E+03  0.53897813850E+03  0.00000000000E+00 0.  1.
         21    1    1    2  502  501  0.14607186853E+02  0.37762012008E+01  0.17458288208E+02  0.23074259043E+02  0.00000000000E+00 0. -1.
<mgrwt>
<rscale>  1 0.30000000E+03</rscale>
<asrwt>0</asrwt>
<pdfrwt beam="1">  1        1 0.49026656E+00 0.30000000E+03</pdfrwt>
<pdfrwt beam="2">0</pdfrwt>
<totfact> 0.26913853E-01</totfact>
</mgrwt>
</event>
<event>
 6    1  0.5260809E-006  0.3000000E+03  0.7818608E-02  0.1093470E+00
          1   -1    0    0  502    0  0.00000000000E+00  0.00000000000E+00  0.12071939101E+03  0.12071939101E+03  0.00000000000E+00 0.  1.
         13   -1    0    0    0    0 -0.00000000000E+00 -0.00000000000E+00 -0.10000000000E+04  0.10000000000E+04  0.00000000000E+00 0.  1.
    9000005    2    1    2  501    0  0.22331918849E+02 -0.27897750665E+02 -0.85764173770E+03  0.10789433232E+04  0.65367602474E+03 0.  0.
         13    1    3    3    0    0  0.14838830317E+03 -0.28080273356E+03 -0.66499109049E+03  0.73694125554E+03  0.00000000000E+00 0.  1.
          3    1    3    3  501    0 -0.12605638432E+03  0.25290498290E+03 -0.19265064721E+03  0.34200206764E+03  0.00000000000E+00 0.  1.
         21    1    1    2  502  501 -0.22331918849E+02  0.27897750665E+02 -0.21638871295E+02  0.41776067821E+02  0.00000000000E+00 0.  1.
<mgrwt>
<rscale>  1 0.30000000E+03</rscale>
<asrwt>0</asrwt>
<pdfrwt beam="1">  1        1 0.43898053E+00 0.30000000E+03</pdfrwt>
<pdfrwt beam="2">0</pdfrwt>
<totfact> 0.60865255E-01</totfact>
</mgrwt>
</event>
<event>
 6    1  0.5260809E-006  0.3000000E+03  0.7818608E-02  0.1093470E+00
          1   -1    0    0  502    0  0.00000000000E+00  0.00000000000E+00  0.12932097268E+03  0.12932097268E+03  0.00000000000E+00 0.  1.
         13   -1    0    0    0    0 -0.00000000000E+00 -0.00000000000E+00 -0.10000000000E+04  0.10000000000E+04  0.00000000000E+00 0.  1.
    9000005    2    1    2  501    0 -0.25001053654E+02  0.29695276804E+02 -0.87402549496E+03  0.10903586705E+04  0.65073389512E+03 0.  0.
         13    1    3    3    0    0  0.61958398185E+02  0.31904444141E+03 -0.60047327307E+03  0.68278572800E+03  0.00000000000E+00 0.  1.
          3    1    3    3  501    0 -0.86959451839E+02 -0.28934916460E+03 -0.27355222190E+03  0.40757294246E+03  0.00000000000E+00 0.  1.
         21    1    1    2  502  501  0.25001053654E+02 -0.29695276804E+02  0.33464676403E+01  0.38962302216E+02  0.00000000000E+00 0.  1.
<mgrwt>
<rscale>  1 0.30000000E+03</rscale>
<asrwt>0</asrwt>
<pdfrwt beam="1">  1        1 0.47025907E+00 0.30000000E+03</pdfrwt>
<pdfrwt beam="2">0</pdfrwt>
<totfact> 0.37448071E-01</totfact>
</mgrwt>
</event>
<event>
 6    1  0.5260809E-006  0.3000000E+03  0.7818608E-02  0.1093470E+00
          1   -1    0    0  502    0  0.00000000000E+00  0.00000000000E+00  0.12611989517E+03  0.12611989517E+03  0.00000000000E+00 0.  1.
         13   -1    0    0    0    0 -0.00000000000E+00 -0.00000000000E+00 -0.10000000000E+04  0.10000000000E+04  0.00000000000E+00 0.  1.
    9000005    2    1    2  501    0  0.89766157946E+01 -0.90478142315E+01 -0.89067409200E+03  0.11050371871E+04  0.65394526086E+03 0.  0.
         13    1    3    3    0    0  0.31786995370E+03  0.33874403136E+02 -0.59425332876E+03  0.67477833501E+03  0.00000000000E+00 0.  1.
          1    1    3    3  501    0 -0.30889333791E+03 -0.42922217367E+02 -0.29642076324E+03  0.43025885212E+03  0.00000000000E+00 0.  1.
         21    1    1    2  502  501 -0.89766157946E+01  0.90478142315E+01  0.16793987163E+02  0.21082708040E+02  0.00000000000E+00 0.  1.
<mgrwt>
<rscale>  1 0.30000000E+03</rscale>
<asrwt>0</asrwt>
<pdfrwt beam="1">  1        1 0.45861877E+00 0.30000000E+03</pdfrwt>
<pdfrwt beam="2">0</pdfrwt>
<totfact> 0.45026684E-01</totfact>
</mgrwt>
</event>
<event>
 6    1  0.5260809E-006  0.3000000E+03  0.7818608E-02  0.1093470E+00
          1   -1    0    0  502    0  0.00000000000E+00  0.00000000000E+00  0.11932515323E+03  0.11932515323E+03  0.00000000000E+00 0.  1.
         13   -1    0    0    0    0 -0.00000000000E+00 -0.00000000000E+00 -0.10000000000E+04  0.10000000000E+04  0.00000000000E+00 0.  1.
    9000005    2    1    2  501    0  0.13471703605E+02 -0.67555528387E+01 -0.88690107624E+03  0.11030190125E+04  0.65561444357E+03 0.  0.
         13    1    3    3    0    0  0.21284358403E+03 -0.24279481222E+03 -0.60011994657E+03  0.68146581893E+03  0.00000000000E+00 0.  1.
          3    1    3    3  501    0 -0.19937188043E+03  0.23603925938E+03 -0.28678112967E+03  0.42155319357E+03  0.00000000000E+00 0.  1.
         21    1    1    2  502  501 -0.13471703605E+02  0.67555528387E+01  0.62262294717E+01  0.16306140734E+02  0.00000000000E+00 0.  1.
<mgrwt>
<rscale>  1 0.30000000E+03</rscale>
<asrwt>0</asrwt>
<pdfrwt beam="1">  1        1 0.43391056E+00 0.30000000E+03</pdfrwt>
<pdfrwt beam="2">0</pdfrwt>
<totfact> 0.65608614E-01</totfact>
</mgrwt>
</event>
<event>
 6    1  0.5260809E-006  0.3000000E+03  0.7818608E-02  0.1093470E+00
          1   -1    0    0  502    0  0.00000000000E+00  0.00000000000E+00  0.11555793767E+03  0.11555793767E+03  0.00000000000E+00 0.  1.
         13   -1    0    0    0    0 -0.00000000000E+00 -0.00000000000E+00 -0.10000000000E+04  0.10000000000E+04  0.00000000000E+00 0.  1.
    9000005    2    1    2  501    0  0.90657678329E+01 -0.71974333473E+01 -0.88762600772E+03  0.11035525763E+04  0.65560229400E+03 0.  0.
         13    1    3    3    0    0  0.16141860947E+03  0.32564333902E+02  0.34360788853E+02  0.16821732115E+03  0.00000000000E+00 0.  1.
          1    1    3    3  501    0 -0.15235284163E+03 -0.39761767249E+02 -0.92198679657E+03  0.93533525516E+03  0.00000000000E+00 0.  1.
         21    1    1    2  502  501 -0.90657678329E+01  0.71974333473E+01  0.31839453832E+01  0.12005361360E+02  0.00000000000E+00 0. -1.
<mgrwt>
<rscale>  1 0.30000000E+03</rscale>
<asrwt>0</asrwt>
<pdfrwt beam="1">  1        1 0.42021157E+00 0.30000000E+03</pdfrwt>
<pdfrwt beam="2">0</pdfrwt>
<totfact> 0.79962676E-01</totfact>
</mgrwt>
</event>
<event>
 6    1  0.5260809E-006  0.3000000E+03  0.7818608E-02  0.1093470E+00
          1   -1    0    0  502    0  0.00000000000E+00  0.00000000000E+00  0.10931421647E+03  0.10931421647E+03  0.00000000000E+00 0.  1.
         13   -1    0    0    0    0 -0.00000000000E+00 -0.00000000000E+00 -0.10000000000E+04  0.10000000000E+04  0.00000000000E+00 0.  1.
    9000005    2    1    2  501    0  0.74314636398E+01 -0.11718194572E+02 -0.88669309614E+03  0.10948752314E+04  0.64213283902E+03 0.  0.
         13    1    3    3    0    0 -0.19869647605E+03  0.64079912828E+02 -0.84617089832E+03  0.87154558917E+03  0.00000000000E+00 0.  1.
          3    1    3    3  501    0  0.20612793969E+03 -0.75798107400E+02 -0.40522197815E+02  0.22332964228E+03  0.00000000000E+00 0.  1.
         21    1    1    2  502  501 -0.74314636398E+01  0.11718194572E+02 -0.39926873932E+01  0.14438985022E+02  0.00000000000E+00 0. -1.
<mgrwt>
<rscale>  1 0.30000000E+03</rscale>
<asrwt>0</asrwt>
<pdfrwt beam="1">  1        1 0.39750708E+00 0.30000000E+03</pdfrwt>
<pdfrwt beam="2">0</pdfrwt>
<totfact> 0.10880806E+00</totfact>
</mgrwt>
</event>
<event>
 6    1  0.5260809E-006  0.3000000E+03  0.7818608E-02  0.1093470E+00
          1   -1    0    0  502    0  0.00000000000E+00  0.00000000000E+00  0.11114303286E+03  0.11114303286E+03  0.00000000000E+00 0.  1.
         13   -1    0    0    0    0 -0.00000000000E+00 -0.00000000000E+00 -0.10000000000E+04  0.10000000000E+04  0.00000000000E+00 0.  1.
    9000005    2    1    2  501    0  0.76673731359E+01 -0.14249690462E+02 -0.88162243997E+03  0.10934178905E+04  0.64656222768E+03 0.  0.
         13    1    3    3    0    0 -0.20052426156E+03 -0.23931338964E+03 -0.28549198130E+03  0.42306801973E+03  0.00000000000E+00 0.  1.
          3    1    3    3  501    0  0.20819163469E+03  0.22506369918E+03 -0.59613045867E+03  0.67034987074E+03  0.00000000000E+00 0.  1.
         21    1    1    2  502  501 -0.76673731359E+01  0.14249690462E+02 -0.72345271763E+01  0.17725142384E+02  0.00000000000E+00 0. -1.
<mgrwt>
<rscale>  1 0.30000000E+03</rscale>
<asrwt>0</asrwt>
<pdfrwt beam="1">  1        1 0.40415734E+00 0.30000000E+03</pdfrwt>
<pdfrwt beam="2">0</pdfrwt>
<totfact> 0.99682150E-01</totfact>
</mgrwt>
</event>
<event>
 6    1  0.5260809E-006  0.3000000E+03  0.7818608E-02  0.1093470E+00
          1   -1    0    0  502    0  0.00000000000E+00  0.00000000000E+00  0.10680917762E+03  0.10680917762E+03  0.00000000000E+00 0.  1.
         13   -1    0    0    0    0 -0.00000000000E+00 -0.00000000000E+00 -0.10000000000E+04  0.10000000000E+04  0.00000000000E+00 0.  1.
    9000005    2    1    2  501    0  0.93806800889E+01 -0.77243595292E+01 -0.88931112652E+03  0.10940532014E+04  0.63712672592E+03 0.  0.
         13    1    3    3    0    0 -0.46778432646E+02 -0.29818033265E+03 -0.25880196057E+03  0.39759047692E+03  0.00000000000E+00 0.  1.
          3    1    3    3  501    0  0.56159112735E+02  0.29045597312E+03 -0.63050916595E+03  0.69646272450E+03  0.00000000000E+00 0.  1.
         21    1    1    2  502  501 -0.93806800889E+01  0.77243595292E+01 -0.38796958563E+01  0.12755976207E+02  0.00000000000E+00 0. -1.
<mgrwt>
<rscale>  1 0.30000000E+03</rscale>
<asrwt>0</asrwt>
<pdfrwt beam="1">  1        1 0.38839783E+00 0.30000000E+03</pdfrwt>
<pdfrwt beam="2">0</pdfrwt>
<totfact> 0.12241703E+00</totfact>
</mgrwt>
</event>
<event>
 6    1  0.5260809E-006  0.3000000E+03  0.7818608E-02  0.1093470E+00
          1   -1    0    0  502    0  0.00000000000E+00  0.00000000000E+00  0.95152981344E+02  0.95152981344E+02  0.00000000000E+00 0.  1.
         13   -1    0    0    0    0 -0.00000000000E+00 -0.00000000000E+00 -0.10000000000E+04  0.10000000000E+04  0.00000000000E+00 0.  1.
    9000005    2    1    2  501    0 -0.36476358050E+02 -0.28750743798E+01 -0.87118499333E+03  0.10454345472E+04  0.57674197786E+03 0.  0.
         13    1    3    3    0    0  0.13960743764E+03 -0.23966294342E+03 -0.49400016299E+03  0.56653748696E+03  0.00000000000E+00 0.  1.
          1    1    3    3  501    0 -0.17608379569E+03  0.23678786904E+03 -0.37718483033E+03  0.47889706019E+03  0.00000000000E+00 0.  1.
         21    1    1    2  502  501  0.36476358050E+02  0.28750743798E+01 -0.33662025328E+02  0.49718434191E+02  0.00000000000E+00 0. -1.
<mgrwt>
<rscale>  1 0.30000000E+03</rscale>
<asrwt>0</asrwt>
<pdfrwt beam="1">  1        1 0.34601157E+00 0.30000000E+03</pdfrwt>
<pdfrwt beam="2">0</pdfrwt>
<totfact> 0.20636070E+00</totfact>
</mgrwt>
</event>
<event>
 6    1  0.5260809E-006  0.3000000E+03  0.7818608E-02  0.1093470E+00
          1   -1    0    0  502    0  0.00000000000E+00  0.00000000000E+00  0.11964384679E+03  0.11964384679E+03  0.00000000000E+00 0.  1.
         13   -1    0    0    0    0 -0.00000000000E+00 -0.00000000000E+00 -0.10000000000E+04  0.10000000000E+04  0.00000000000E+00 0.  1.
    9000005    2    1    2  501    0 -0.15435816610E+02  0.45767736295E+01 -0.91060758050E+03  0.10853749083E+04  0.59040097785E+03 0.  0.
         13    1    3    3    0    0 -0.13763986359E+03  0.26003669952E+03 -0.57776960710E+03  0.64836836446E+03  0.00000000000E+00 0.  1.
          1    1    3    3  501    0  0.12220404698E+03 -0.25545992589E+03 -0.33283797340E+03  0.43700654386E+03  0.00000000000E+00 0.  1.
         21    1    1    2  502  501  0.15435816610E+02 -0.45767736295E+01  0.30251427289E+02  0.34268938476E+02  0.00000000000E+00 0. -1.
<mgrwt>
<rscale>  1 0.30000000E+03</rscale>
<asrwt>0</asrwt>
<pdfrwt beam="1">  1        1 0.43506945E+00 0.30000000E+03</pdfrwt>
<pdfrwt beam="2">0</pdfrwt>
<totfact> 0.64499610E-01</totfact>
</mgrwt>
</event>
<event>
 6    1  0.5260809E-006  0.3000000E+03  0.7818608E-02  0.1093470E+00
          1   -1    0    0  502    0  0.00000000000E+00  0.00000000000E+00  0.10925112646E+03  0.10925112646E+03  0.00000000000E+00 0.  1.
         13   -1    0    0    0    0 -0.00000000000E+00 -0.00000000000E+00 -0.10000000000E+04  0.10000000000E+04  0.00000000000E+00 0.  1.
    9000005    2    1    2  501    0 -0.59523589966E+00 -0.15876798159E+02 -0.88827307183E+03  0.10931714306E+04  0.63697904162E+03 0.  0.
         13    1    3    3    0    0 -0.12171155942E+02 -0.32629680706E+03 -0.45927840294E+03  0.56351964894E+03  0.00000000000E+00 0.  1.
          1    1    3    3  501    0  0.11575920043E+02  0.31042000891E+03 -0.42899466890E+03  0.52965178164E+03  0.00000000000E+00 0.  1.
         21    1    1    2  502  501  0.59523589966E+00  0.15876798159E+02 -0.24758017019E+01  0.16079695881E+02  0.00000000000E+00 0. -1.
<mgrwt>
<rscale>  1 0.30000000E+03</rscale>
<asrwt>0</asrwt>
<pdfrwt beam="1">  1        1 0.39727766E+00 0.30000000E+03</pdfrwt>
<pdfrwt beam="2">0</pdfrwt>
<totfact> 0.10913391E+00</totfact>
</mgrwt>
</event>
<event>
 6    1  0.5260809E-006  0.3000000E+03  0.7818608E-02  0.1093470E+00
          1   -1    0    0  502    0  0.00000000000E+00  0.00000000000E+00  0.10610629420E+03  0.10610629420E+03  0.00000000000E+00 0.  1.
         13   -1    0    0    0    0 -0.00000000000E+00 -0.00000000000E+00 -0.10000000000E+04  0.10000000000E+04  0.00000000000E+00 0.  1.
    9000005    2    1    2  501    0 -0.10820186591E+02  0.18862088072E+02 -0.88166136224E+03  0.10811566442E+04  0.62537994603E+03 0.  0.
         13    1    3    3    0    0 -0.25976765437E+02 -0.29370174327E+03 -0.29986283894E+03  0.42053921163E+03  0.00000000000E+00 0.  1.
          3    1    3    3  501    0  0.15156578846E+02  0.31256383134E+03 -0.58179852330E+03  0.66061743260E+03  0.00000000000E+00 0.  1.
         21    1    1    2  502  501  0.10820186591E+02 -0.18862088072E+02 -0.12232343568E+02  0.24949649967E+02  0.00000000000E+00 0. -1.
<mgrwt>
<rscale>  1 0.30000000E+03</rscale>
<asrwt>0</asrwt>
<pdfrwt beam="1">  1        1 0.38584188E+00 0.30000000E+03</pdfrwt>
<pdfrwt beam="2">0</pdfrwt>
<totfact> 0.12649289E+00</totfact>
</mgrwt>
</event>
<event>
 6    1  0.5260809E-006  0.3000000E+03  0.7818608E-02  0.1093470E+00
          1   -1    0    0  502    0  0.00000000000E+00  0.00000000000E+00  0.11847773205E+03  0.11847773205E+03  0.00000000000E+00 0.  1.
         13   -1    0    0    0    0 -0.00000000000E+00 -0.00000000000E+00 -0.10000000000E+04  0.10000000000E+04  0.00000000000E+00 0.  1.
    9000005    2    1    2  501    0  0.15440888867E+02 -0.16080455845E+02 -0.88912888269E+03  0.10949222083E+04  0.63859805057E+03 0.  0.
         13    1    3    3    0    0  0.13127666483E+03  0.25454139209E+03 -0.66781428209E+03  0.72663663436E+03  0.00000000000E+00 0.  1.
          3    1    3    3  501    0 -0.11583577597E+03 -0.27062184794E+03 -0.22131460059E+03  0.36828557399E+03  0.00000000000E+00 0.  1.
         21    1    1    2  502  501 -0.15440888867E+02  0.16080455845E+02  0.76066147405E+01  0.23555523704E+02  0.00000000000E+00 0. -1.
<mgrwt>
<rscale>  1 0.30000000E+03</rscale>
<asrwt>0</asrwt>
<pdfrwt beam="1">  1        1 0.43082903E+00 0.30000000E+03</pdfrwt>
<pdfrwt beam="2">0</pdfrwt>
<totfact> 0.68632755E-01</totfact>
</mgrwt>
</event>
<event>
 6    1  0.5260809E-006  0.3000000E+03  0.7818608E-02  0.1093470E+00
          1   -1    0    0  502    0  0.00000000000E+00  0.00000000000E+00  0.12581442521E+03  0.12581442521E+03  0.00000000000E+00 0.  1.
         13   -1    0    0    0    0 -0.00000000000E+00 -0.00000000000E+00 -0.10000000000E+04  0.10000000000E+04  0.00000000000E+00 0.  1.
    9000005    2    1    2  501    0  0.83327805581E+01 -0.10599761151E+02 -0.89394738545E+03  0.11018912287E+04  0.64408117646E+03 0.  0.
         13    1    3    3    0    0 -0.43884642411E+02 -0.30522236811E+00 -0.99059044596E+03  0.99156209418E+03  0.00000000000E+00 0.  1.
          3    1    3    3  501    0  0.52217422969E+02 -0.10294538783E+02  0.96643060504E+02  0.11032913457E+03  0.00000000000E+00 0.  1.
         21    1    1    2  502  501 -0.83327805581E+01  0.10599761151E+02  0.19761810662E+02  0.23923196461E+02  0.00000000000E+00 0.  1.
<mgrwt>
<rscale>  1 0.30000000E+03</rscale>
<asrwt>0</asrwt>
<pdfrwt beam="1">  1        1 0.45750797E+00 0.30000000E+03</pdfrwt>
<pdfrwt beam="2">0</pdfrwt>
<totfact> 0.45809862E-01</totfact>
</mgrwt>
</event>
<event>
 6    1  0.5260809E-006  0.3000000E+03  0.7818608E-02  0.1093470E+00
          1   -1    0    0  502    0  0.00000000000E+00  0.00000000000E+00  0.13334576851E+03  0.13334576851E+03  0.00000000000E+00 0.  1.
         13   -1    0    0    0    0 -0.00000000000E+00 -0.00000000000E+00 -0.10000000000E+04  0.10000000000E+04  0.00000000000E+00 0.  1.
    9000005    2    1    2  501    0 -0.38168695540E+01  0.25287522386E+02 -0.87833112669E+03  0.11052321212E+04  0.67038678867E+03 0.  0.
         13    1    3    3    0    0 -0.16258722746E+03 -0.21278223774E+03 -0.11762330913E+03  0.29248270048E+03  0.00000000000E+00 0.  1.
          3    1    3    3  501    0  0.15877035791E+03  0.23806976013E+03 -0.76070781756E+03  0.81274942075E+03  0.00000000000E+00 0.  1.
         21    1    1    2  502  501  0.38168695540E+01 -0.25287522386E+02  0.11676895197E+02  0.28113647274E+02  0.00000000000E+00 0. -1.
<mgrwt>
<rscale>  1 0.30000000E+03</rscale>
<asrwt>0</asrwt>
<pdfrwt beam="1">  1        1 0.48489473E+00 0.30000000E+03</pdfrwt>
<pdfrwt beam="2">0</pdfrwt>
<totfact> 0.29446678E-01</totfact>
</mgrwt>
</event>
<event>
 6    1  0.5260809E-006  0.3000000E+03  0.7818608E-02  0.1093470E+00
          1   -1    0    0  502    0  0.00000000000E+00  0.00000000000E+00  0.10236707449E+03  0.10236707449E+03  0.00000000000E+00 0.  1.
         13   -1    0    0    0    0 -0.00000000000E+00 -0.00000000000E+00 -0.10000000000E+04  0.10000000000E+04  0.00000000000E+00 0.  1.
    9000005    2    1    2  501    0  0.70408015904E+01 -0.11237981370E+02 -0.89484404599E+03  0.10888155815E+04  0.62015936569E+03 0.  0.
         13    1    3    3    0    0 -0.74489420012E+02 -0.18061191868E+03 -0.87868999439E+03  0.90014745742E+03  0.00000000000E+00 0.  1.
          3    1    3    3  501    0  0.81530221602E+02  0.16937393731E+03 -0.16154051594E+02  0.18866812412E+03  0.00000000000E+00 0.  1.
         21    1    1    2  502  501 -0.70408015904E+01  0.11237981370E+02 -0.27888795211E+01  0.13551492954E+02  0.00000000000E+00 0. -1.
<mgrwt>
<rscale>  1 0.30000000E+03</rscale>
<asrwt>0</asrwt>
<pdfrwt beam="1">  1        1 0.37224469E+00 0.30000000E+03</pdfrwt>
<pdfrwt beam="2">0</pdfrwt>
<totfact> 0.15012640E+00</totfact>
</mgrwt>
</event>
<event>
 6    1  0.5260809E-006  0.3000000E+03  0.7818608E-02  0.1093470E+00
          1   -1    0    0  502    0  0.00000000000E+00  0.00000000000E+00  0.13730937352E+03  0.13730937352E+03  0.00000000000E+00 0.  1.
         13   -1    0    0    0    0 -0.00000000000E+00 -0.00000000000E+00 -0.10000000000E+04  0.10000000000E+04  0.00000000000E+00 0.  1.
    9000005    2    1    2  501    0 -0.34097846349E+02  0.32011793277E+01 -0.90062942056E+03  0.10861990735E+04  0.60623606239E+03 0.  0.
         13    1    3    3    0    0 -0.15423163214E+03 -0.20384445983E+03 -0.77457477182E+03  0.81566294343E+03  0.00000000000E+00 0.  1.
          3    1    3    3  501    0  0.12013378579E+03  0.20704563916E+03 -0.12605464875E+03  0.27053613004E+03  0.00000000000E+00 0.  1.
         21    1    1    2  502  501  0.34097846349E+02 -0.32011793277E+01  0.37938794080E+02  0.51110300048E+02  0.00000000000E+00 0. -1.
<mgrwt>
<rscale>  1 0.30000000E+03</rscale>
<asrwt>0</asrwt>
<pdfrwt beam="1">  1        1 0.49930787E+00 0.30000000E+03</pdfrwt>
<pdfrwt beam="2">0</pdfrwt>
<totfact> 0.23107564E-01</totfact>
</mgrwt>
</event>
<event>
 6    1  0.5260809E-006  0.3000000E+03  0.7818608E-02  0.1093470E+00
          1   -1    0    0  502    0  0.00000000000E+00  0.00000000000E+00  0.11582018960E+03  0.11582018960E+03  0.00000000000E+00 0.  1.
         13   -1    0    0    0    0 -0.00000000000E+00 -0.00000000000E+00 -0.10000000000E+04  0.10000000000E+04  0.00000000000E+00 0.  1.
    9000005    2    1    2  501    0  0.10073182484E+02 -0.22702048105E+01 -0.89066214645E+03  0.11036282449E+04  0.65162076467E+03 0.  0.
         13    1    3    3    0    0  0.30612363015E+03  0.33749262006E+02 -0.65405142875E+03  0.72293427161E+03  0.00000000000E+00 0.  1.
          3    1    3    3  501    0 -0.29605044767E+03 -0.36019466817E+02 -0.23661071770E+03  0.38069397327E+03  0.00000000000E+00 0.  1.
         21    1    1    2  502  501 -0.10073182484E+02  0.22702048105E+01  0.64823360545E+01  0.12191944716E+02  0.00000000000E+00 0. -1.
<mgrwt>
<rscale>  1 0.30000000E+03</rscale>
<asrwt>0</asrwt>
<pdfrwt beam="1">  1        1 0.42116521E+00 0.30000000E+03</pdfrwt>
<pdfrwt beam="2">0</pdfrwt>
<totfact> 0.78887415E-01</totfact>
</mgrwt>
</event>
<event>
 6    1  0.5260809E-006  0.3000000E+03  0.7818608E-02  0.1093470E+00
          1   -1    0    0  502    0  0.00000000000E+00  0.00000000000E+00  0.10748305694E+03  0.10748305694E+03  0.00000000000E+00 0.  1.
         13   -1    0    0    0    0 -0.00000000000E+00 -0.00000000000E+00 -0.10000000000E+04  0.10000000000E+04  0.00000000000E+00 0.  1.
    9000005    2    1    2  501    0 -0.22131161110E+01  0.10256976552E+02 -0.88796652982E+03  0.10960458496E+04  0.64243431019E+03 0.  0.
         13    1    3    3    0    0 -0.31420451901E+02 -0.13899064219E+03 -0.92792709521E+03  0.93880473872E+03  0.00000000000E+00 0.  1.
          1    1    3    3  501    0  0.29207335790E+02  0.14924761875E+03  0.39960565396E+02  0.15724111088E+03  0.00000000000E+00 0.  1.
         21    1    1    2  502  501  0.22131161110E+01 -0.10256976552E+02 -0.45504132444E+01  0.11437207334E+02  0.00000000000E+00 0. -1.
<mgrwt>
<rscale>  1 0.30000000E+03</rscale>
<asrwt>0</asrwt>
<pdfrwt beam="1">  1        1 0.39084830E+00 0.30000000E+03</pdfrwt>
<pdfrwt beam="2">0</pdfrwt>
<totfact> 0.11861564E+00</totfact>
</mgrwt>
</event>
<event>
 6    1  0.5260809E-006  0.3000000E+03  0.7818608E-02  0.1093470E+00
          1   -1    0    0  502    0  0.00000000000E+00  0.00000000000E+00  0.13466472137E+03  0.13466472137E+03  0.00000000000E+00 0.  1.
         13   -1    0    0    0    0 -0.00000000000E+00 -0.00000000000E+00 -0.10000000000E+04  0.10000000000E+04  0.00000000000E+00 0.  1.
    9000005    2    1    2  501    0 -0.97865635936E+01 -0.24150697528E+02 -0.88674789615E+03  0.11009373852E+04  0.65196799133E+03 0.  0.
         13    1    3    3    0    0 -0.19828904125E+03 -0.17668256271E+03 -0.11042678080E+03  0.28762709498E+03  0.00000000000E+00 0.  1.
          3    1    3    3  501    0  0.18850247766E+03  0.15253186519E+03 -0.77632111536E+03  0.81331029019E+03  0.00000000000E+00 0.  1.
         21    1    1    2  502  501  0.97865635936E+01  0.24150697528E+02  0.21412617522E+02  0.33727336201E+02  0.00000000000E+00 0.  1.
<mgrwt>
<rscale>  1 0.30000000E+03</rscale>
<asrwt>0</asrwt>
<pdfrwt beam="1">  1        1 0.48969093E+00 0.30000000E+03</pdfrwt>
<pdfrwt beam="2">0</pdfrwt>
<totfact> 0.27175245E-01</totfact>
</mgrwt>
</event>
<event>
 6    1  0.5260809E-006  0.3000000E+03  0.7818608E-02  0.1093470E+00
          1   -1    0    0  502    0  0.00000000000E+00  0.00000000000E+00  0.11602050405E+03  0.11602050405E+03  0.00000000000E+00 0.  1.
         13   -1    0    0    0    0 -0.00000000000E+00 -0.00000000000E+00 -0.10000000000E+04  0.10000000000E+04  0.00000000000E+00 0.  1.
    9000005    2    1    2  501    0  0.19435070263E+02  0.89494354485E+01 -0.89331841708E+03  0.10926746308E+04  0.62885788546E+03 0.  0.
         13    1    3    3    0    0 -0.15696463828E+03 -0.17249617249E+03 -0.89237246965E+02  0.24971206106E+03  0.00000000000E+00 0.  1.
          3    1    3    3  501    0  0.17639970854E+03  0.18144560794E+03 -0.80408117011E+03  0.84296256972E+03  0.00000000000E+00 0.  1.
         21    1    1    2  502  501 -0.19435070263E+02 -0.89494354485E+01  0.93389211268E+01  0.23345873271E+02  0.00000000000E+00 0.  1.
<mgrwt>
<rscale>  1 0.30000000E+03</rscale>
<asrwt>0</asrwt>
<pdfrwt beam="1">  1        1 0.42189363E+00 0.30000000E+03</pdfrwt>
<pdfrwt beam="2">0</pdfrwt>
<totfact> 0.78073354E-01</totfact>
</mgrwt>
</event>
<event>
 6    1  0.5260809E-006  0.3000000E+03  0.7818608E-02  0.1093470E+00
          1   -1    0    0  502    0  0.00000000000E+00  0.00000000000E+00  0.72160378470E+02  0.72160378470E+02  0.00000000000E+00 0.  1.
         13   -1    0    0    0    0 -0.00000000000E+00 -0.00000000000E+00 -0.10000000000E+04  0.10000000000E+04  0.00000000000E+00 0.  1.
    9000005    2    1    2  501    0  0.16559080466E+02  0.37143661645E+01 -0.94057871733E+03  0.10509404769E+04  0.46850780440E+03 0.  0.
         13    1    3    3    0    0 -0.16462084319E+02  0.16228634950E+03 -0.92475978783E+02  0.18750910940E+03  0.00000000000E+00 0.  1.
          1    1    3    3  501    0  0.33021164785E+02 -0.15857198334E+03 -0.84810273854E+03  0.86343136748E+03  0.00000000000E+00 0.  1.
         21    1    1    2  502  501 -0.16559080466E+02 -0.37143661645E+01  0.12739095797E+02  0.21219901593E+02  0.00000000000E+00 0.  1.
<mgrwt>
<rscale>  1 0.30000000E+03</rscale>
<asrwt>0</asrwt>
<pdfrwt beam="1">  1        1 0.26240193E+00 0.30000000E+03</pdfrwt>
<pdfrwt beam="2">0</pdfrwt>
<totfact> 0.52207605E+00</totfact>
</mgrwt>
</event>
<event>
 6    1  0.5260809E-006  0.3000000E+03  0.7818608E-02  0.1093470E+00
          1   -1    0    0  502    0  0.00000000000E+00  0.00000000000E+00  0.10754090540E+03  0.10754090540E+03  0.00000000000E+00 0.  1.
         13   -1    0    0    0    0 -0.00000000000E+00 -0.00000000000E+00 -0.10000000000E+04  0.10000000000E+04  0.00000000000E+00 0.  1.
    9000005    2    1    2  501    0 -0.80220976461E+01 -0.81351704676E+01 -0.88043570460E+03  0.10909548584E+04  0.64411562471E+03 0.  0.
         13    1    3    3    0    0 -0.29565353045E+03  0.72194673326E+02 -0.25184524547E+03  0.39503051602E+03  0.00000000000E+00 0.  1.
          3    1    3    3  501    0  0.28763143280E+03 -0.80329843794E+02 -0.62859045913E+03  0.69592434233E+03  0.00000000000E+00 0.  1.
         21    1    1    2  502  501  0.80220976461E+01  0.81351704676E+01 -0.12023390005E+02  0.16586047040E+02  0.00000000000E+00 0.  1.
<mgrwt>
<rscale>  1 0.30000000E+03</rscale>
<asrwt>0</asrwt>
<pdfrwt beam="1">  1        1 0.39105866E+00 0.30000000E+03</pdfrwt>
<pdfrwt beam="2">0</pdfrwt>
<totfact> 0.11829414E+00</totfact>
</mgrwt>
</event>
<event>
 6    1  0.5260809E-006  0.3000000E+03  0.7818608E-02  0.1093470E+00
          1   -1    0    0  502    0  0.00000000000E+00  0.00000000000E+00  0.12860647094E+03  0.12860647094E+03  0.00000000000E+00 0.  1.
         13   -1    0    0    0    0 -0.00000000000E+00 -0.00000000000E+00 -0.10000000000E+04  0.10000000000E+04  0.00000000000E+00 0.  1.
    9000005    2    1    2  501    0  0.40856186414E+02 -0.11892156268E+01 -0.87320308856E+03  0.10876929437E+04  0.64724158070E+03 0.  0.
         13    1    3    3    0    0  0.28686826926E+03  0.11442807579E+03 -0.21712353873E+03  0.37753121661E+03  0.00000000000E+00 0.  1.
          3    1    3    3  501    0 -0.24601208285E+03 -0.11561729142E+03 -0.65607954983E+03  0.71016172713E+03  0.00000000000E+00 0.  1.
         21    1    1    2  502  501 -0.40856186414E+02  0.11892156268E+01  0.18095594974E+01  0.40913527197E+02  0.00000000000E+00 0. -1.
<mgrwt>
<rscale>  1 0.30000000E+03</rscale>
<asrwt>0</asrwt>
<pdfrwt beam="1">  1        1 0.46766088E+00 0.30000000E+03</pdfrwt>
<pdfrwt beam="2">0</pdfrwt>
<totfact> 0.39045661E-01</totfact>
</mgrwt>
</event>
<event>
 6    1  0.5260809E-006  0.3000000E+03  0.7818608E-02  0.1093470E+00
          1   -1    0    0  502    0  0.00000000000E+00  0.00000000000E+00  0.11211951249E+03  0.11211951249E+03  0.00000000000E+00 0.  1.
         13   -1    0    0    0    0 -0.00000000000E+00 -0.00000000000E+00 -0.10000000000E+04  0.10000000000E+04  0.00000000000E+00 0.  1.
    9000005    2    1    2  501    0  0.12130484913E+02  0.29788765291E+02 -0.86553152750E+03  0.10729532615E+04  0.63328457829E+03 0.  0.
         13    1    3    3    0    0 -0.89070129269E+02 -0.16757437773E+03 -0.82617622005E+03  0.84769204702E+03  0.00000000000E+00 0.  1.
          3    1    3    3  501    0  0.10120061418E+03  0.19736314302E+03 -0.39355307449E+02  0.22526121450E+03  0.00000000000E+00 0.  1.
         21    1    1    2  502  501 -0.12130484913E+02 -0.29788765291E+02 -0.22348960010E+02  0.39166250973E+02  0.00000000000E+00 0.  1.
<mgrwt>
<rscale>  1 0.30000000E+03</rscale>
<asrwt>0</asrwt>
<pdfrwt beam="1">  1        1 0.40770818E+00 0.30000000E+03</pdfrwt>
<pdfrwt beam="2">0</pdfrwt>
<totfact> 0.95043172E-01</totfact>
</mgrwt>
</event>
<event>
 6    1  0.5260809E-006  0.3000000E+03  0.7818608E-02  0.1093470E+00
          1   -1    0    0  502    0  0.00000000000E+00  0.00000000000E+00  0.11539948554E+03  0.11539948554E+03  0.00000000000E+00 0.  1.
         13   -1    0    0    0    0 -0.00000000000E+00 -0.00000000000E+00 -0.10000000000E+04  0.10000000000E+04  0.00000000000E+00 0.  1.
    9000005    2    1    2  501    0 -0.60123362018E+01 -0.17387442129E+02 -0.88223360306E+03  0.10968502645E+04  0.65146442812E+03 0.  0.
         13    1    3    3    0    0  0.30820924269E+02  0.45371949917E+02 -0.97634609655E+03  0.97788559835E+03  0.00000000000E+00 0.  1.
          1    1    3    3  501    0 -0.36833260471E+02 -0.62759392045E+02  0.94112493495E+02  0.11896466618E+03  0.00000000000E+00 0.  1.
         21    1    1    2  502  501  0.60123362018E+01  0.17387442129E+02 -0.23669114061E+01  0.18549221007E+02  0.00000000000E+00 0. -1.
<mgrwt>
<rscale>  1 0.30000000E+03</rscale>
<asrwt>0</asrwt>
<pdfrwt beam="1">  1        1 0.41963538E+00 0.30000000E+03</pdfrwt>
<pdfrwt beam="2">0</pdfrwt>
<totfact> 0.80617472E-01</totfact>
</mgrwt>
</event>
<event>
 6    1  0.5260809E-006  0.3000000E+03  0.7818608E-02  0.1093470E+00
          1   -1    0    0  502    0  0.00000000000E+00  0.00000000000E+00  0.11862223885E+03  0.11862223885E+03  0.00000000000E+00 0.  1.
         13   -1    0    0    0    0 -0.00000000000E+00 -0.00000000000E+00 -0.10000000000E+04  0.10000000000E+04  0.00000000000E+00 0.  1.
    9000005    2    1    2  501    0 -0.89732476769E+01  0.96658149636E+01 -0.88913403144E+03  0.11033216872E+04  0.65313511035E+03 0.  0.
         13    1    3    3    0    0 -0.30302436675E+02  0.25730048042E+03 -0.79731713451E+03  0.83835337887E+03  0.00000000000E+00 0.  1.
          1    1    3    3  501    0  0.21329188998E+02 -0.24763466546E+03 -0.91816896935E+02  0.26496830830E+03  0.00000000000E+00 0.  1.
         21    1    1    2  502  501  0.89732476769E+01 -0.96658149636E+01  0.77562702873E+01  0.15300551675E+02  0.00000000000E+00 0. -1.
<mgrwt>
<rscale>  1 0.30000000E+03</rscale>
<asrwt>0</asrwt>
<pdfrwt beam="1">  1        1 0.43135451E+00 0.30000000E+03</pdfrwt>
<pdfrwt beam="2">0</pdfrwt>
<totfact> 0.68109143E-01</totfact>
</mgrwt>
</event>
<event>
 6    1  0.5260809E-006  0.3000000E+03  0.7818608E-02  0.1093470E+00
          1   -1    0    0  502    0  0.00000000000E+00  0.00000000000E+00  0.12933974693E+03  0.12933974693E+03  0.00000000000E+00 0.  1.
         13   -1    0    0    0    0 -0.00000000000E+00 -0.00000000000E+00 -0.10000000000E+04  0.10000000000E+04  0.00000000000E+00 0.  1.
    9000005    2    1    2  501    0 -0.10072247757E+02  0.35382169495E+01 -0.87541932771E+03  0.11176513790E+04  0.69474573511E+03 0.  0.
         13    1    3    3    0    0 -0.50460917934E+02 -0.33384653974E+03 -0.56064684243E+03  0.65446520019E+03  0.00000000000E+00 0.  1.
          3    1    3    3  501    0  0.40388670177E+02  0.33738475669E+03 -0.31477248528E+03  0.46318617878E+03  0.00000000000E+00 0.  1.
         21    1    1    2  502  501  0.10072247757E+02 -0.35382169495E+01  0.47590746410E+01  0.11688367957E+02  0.00000000000E+00 0. -1.
<mgrwt>
<rscale>  1 0.30000000E+03</rscale>
<asrwt>0</asrwt>
<pdfrwt beam="1">  1        1 0.47032734E+00 0.30000000E+03</pdfrwt>
<pdfrwt beam="2">0</pdfrwt>
<totfact> 0.37406827E-01</totfact>
</mgrwt>
</event>
<event>
 6    1  0.5260809E-006  0.3000000E+03  0.7818608E-02  0.1093470E+00
          1   -1    0    0  502    0  0.00000000000E+00  0.00000000000E+00  0.98530491888E+02  0.98530491888E+02  0.00000000000E+00 0.  1.
         13   -1    0    0    0    0 -0.00000000000E+00 -0.00000000000E+00 -0.10000000000E+04  0.10000000000E+04  0.00000000000E+00 0.  1.
    9000005    2    1    2  501    0 -0.59283558048E+00 -0.15652423784E+02 -0.89703075242E+03  0.10822500626E+04  0.60527322547E+03 0.  0.
         13    1    3    3    0    0  0.11501503365E+03  0.22356031903E+02  0.50030405073E+02  0.12740208617E+03  0.00000000000E+00 0.  1.
          3    1    3    3  501    0 -0.11560786923E+03 -0.38008455687E+02 -0.94706115750E+03  0.95484797647E+03  0.00000000000E+00 0.  1.
         21    1    1    2  502  501  0.59283558048E+00  0.15652423784E+02 -0.44387556885E+01  0.16280429245E+02  0.00000000000E+00 0.  1.
<mgrwt>
<rscale>  1 0.30000000E+03</rscale>
<asrwt>0</asrwt>
<pdfrwt beam="1">  1        1 0.35829345E+00 0.30000000E+03</pdfrwt>
<pdfrwt beam="2">0</pdfrwt>
<totfact> 0.17830116E+00</totfact>
</mgrwt>
</event>
<event>
 6    1  0.5260809E-006  0.3000000E+03  0.7818608E-02  0.1093470E+00
          1   -1    0    0  502    0  0.00000000000E+00  0.00000000000E+00  0.11344669259E+03  0.11344669259E+03  0.00000000000E+00 0.  1.
         13   -1    0    0    0    0 -0.00000000000E+00 -0.00000000000E+00 -0.10000000000E+04  0.10000000000E+04  0.00000000000E+00 0.  1.
    9000005    2    1    2  501    0  0.72785002007E+01  0.14014138899E+02 -0.87497849239E+03  0.10938673924E+04  0.65628434182E+03 0.  0.
         13    1    3    3    0    0  0.27600774677E+03  0.16572293769E+03 -0.29383224821E+03  0.43586896935E+03  0.00000000000E+00 0.  1.
          3    1    3    3  501    0 -0.26872924657E+03 -0.15170879879E+03 -0.58114624418E+03  0.65799842303E+03  0.00000000000E+00 0.  1.
         21    1    1    2  502  501 -0.72785002007E+01 -0.14014138899E+02 -0.11574815017E+02  0.19579300215E+02  0.00000000000E+00 0.  1.
<mgrwt>
<rscale>  1 0.30000000E+03</rscale>
<asrwt>0</asrwt>
<pdfrwt beam="1">  1        1 0.41253430E+00 0.30000000E+03</pdfrwt>
<pdfrwt beam="2">0</pdfrwt>
<totfact> 0.88996653E-01</totfact>
</mgrwt>
</event>
<event>
 6    1  0.5260809E-006  0.3000000E+03  0.7818608E-02  0.1093470E+00
          1   -1    0    0  502    0  0.00000000000E+00  0.00000000000E+00  0.13352334826E+03  0.13352334826E+03  0.00000000000E+00 0.  1.
         13   -1    0    0    0    0 -0.00000000000E+00 -0.00000000000E+00 -0.10000000000E+04  0.10000000000E+04  0.00000000000E+00 0.  1.
    9000005    2    1    2  501    0 -0.39859297924E+02 -0.26849430789E+02 -0.86869883350E+03  0.10854131242E+04  0.64897945371E+03 0.  0.
         13    1    3    3    0    0 -0.32785249790E+03 -0.11741970577E+03 -0.48873112284E+03  0.60011062156E+03  0.00000000000E+00 0.  1.
          1    1    3    3  501    0  0.28799319997E+03  0.90570274984E+02 -0.37996771066E+03  0.48530250266E+03  0.00000000000E+00 0.  1.
         21    1    1    2  502  501  0.39859297924E+02  0.26849430789E+02  0.22221817597E+01  0.48110224032E+02  0.00000000000E+00 0.  1.
<mgrwt>
<rscale>  1 0.30000000E+03</rscale>
<asrwt>0</asrwt>
<pdfrwt beam="1">  1        1 0.48554047E+00 0.30000000E+03</pdfrwt>
<pdfrwt beam="2">0</pdfrwt>
<totfact> 0.29131054E-01</totfact>
</mgrwt>
</event>
<event>
 6    1  0.5260809E-006  0.3000000E+03  0.7818608E-02  0.1093470E+00
          1   -1    0    0  502    0  0.00000000000E+00  0.00000000000E+00  0.11605846441E+03  0.11605846441E+03  0.00000000000E+00 0.  1.
         13   -1    0    0    0    0 -0.00000000000E+00 -0.00000000000E+00 -0.10000000000E+04  0.10000000000E+04  0.00000000000E+00 0.  1.
    9000005    2    1    2  501    0  0.31213798233E+02 -0.42763643435E+01 -0.84629584298E+03  0.10669688864E+04  0.64900952405E+03 0.  0.
         13    1    3    3    0    0 -0.24413230244E+03 -0.16297258599E+03 -0.22763692686E+03  0.37145553617E+03  0.00000000000E+00 0.  1.
          3    1    3    3  501    0  0.27534610067E+03  0.15869622164E+03 -0.61865891612E+03  0.69551335028E+03  0.00000000000E+00 0.  1.
         21    1    1    2  502  501 -0.31213798233E+02  0.42763643435E+01 -0.37645692614E+02  0.49089577962E+02  0.00000000000E+00 0. -1.
<mgrwt>
<rscale>  1 0.30000000E+03</rscale>
<asrwt>0</asrwt>
<pdfrwt beam="1">  1        1 0.42203167E+00 0.30000000E+03</pdfrwt>
<pdfrwt beam="2">0</pdfrwt>
<totfact> 0.77919804E-01</totfact>
</mgrwt>
</event>
<event>
 6    1  0.5260809E-006  0.3000000E+03  0.7818608E-02  0.1093470E+00
          1   -1    0    0  502    0  0.00000000000E+00  0.00000000000E+00  0.11733994607E+03  0.11733994607E+03  0.00000000000E+00 0.  1.
         13   -1    0    0    0    0 -0.00000000000E+00 -0.00000000000E+00 -0.10000000000E+04  0.10000000000E+04  0.00000000000E+00 0.  1.
    9000005    2    1    2  501    0  0.87041986851E+01  0.61858722265E+01 -0.88644995502E+03  0.11060089514E+04  0.66132310539E+03 0.  0.
         13    1    3    3    0    0 -0.25290290956E+02 -0.11048728719E+03  0.75645289149E+02  0.13626903250E+03  0.00000000000E+00 0.  1.
          3    1    3    3  501    0  0.33994489641E+02  0.11667315942E+03 -0.96209524417E+03  0.96973991890E+03  0.00000000000E+00 0.  1.
         21    1    1    2  502  501 -0.87041986851E+01 -0.61858722265E+01  0.37899010901E+01  0.11330994671E+02  0.00000000000E+00 0.  1.
<mgrwt>
<rscale>  1 0.30000000E+03</rscale>
<asrwt>0</asrwt>
<pdfrwt beam="1">  1        1 0.42669161E+00 0.30000000E+03</pdfrwt>
<pdfrwt beam="2">0</pdfrwt>
<totfact> 0.72875567E-01</totfact>
</mgrwt>
</event>
<event>
 6    1  0.5260809E-006  0.3000000E+03  0.7818608E-02  0.1093470E+00
          1   -1    0    0  502    0  0.00000000000E+00  0.00000000000E+00  0.10818329673E+03  0.10818329673E+03  0.00000000000E+00 0.  1.
         13   -1    0    0    0    0 -0.00000000000E+00 -0.00000000000E+00 -0.10000000000E+04  0.10000000000E+04  0.00000000000E+00 0.  1.
    9000005    2    1    2  501    0  0.94627689104E+01  0.13494859073E+01 -0.89035822794E+03  0.10985141573E+04  0.64335387973E+03 0.  0.
         13    1    3    3    0    0  0.56675544992E+02  0.26589753599E+03 -0.14915094095E+03  0.31009614675E+03  0.00000000000E+00 0.  1.
          3    1    3    3  501    0 -0.47212776082E+02 -0.26454805008E+03 -0.74120728699E+03  0.78841801052E+03  0.00000000000E+00 0.  1.
         21    1    1    2  502  501 -0.94627689104E+01 -0.13494859073E+01 -0.14584753283E+01  0.96691394627E+01  0.00000000000E+00 0. -1.
<mgrwt>
<rscale>  1 0.30000000E+03</rscale>
<asrwt>0</asrwt>
<pdfrwt beam="1">  1        1 0.39339464E+00 0.30000000E+03</pdfrwt>
<pdfrwt beam="2">0</pdfrwt>
<totfact> 0.11477599E+00</totfact>
</mgrwt>
</event>
<event>
 6    1  0.5260809E-006  0.3000000E+03  0.7818608E-02  0.1093470E+00
          1   -1    0    0  502    0  0.00000000000E+00  0.00000000000E+00  0.12299477292E+03  0.12299477292E+03  0.00000000000E+00 0.  1.
         13   -1    0    0    0    0 -0.00000000000E+00 -0.00000000000E+00 -0.10000000000E+04  0.10000000000E+04  0.00000000000E+00 0.  1.
    9000005    2    1    2  501    0  0.12873217832E+02  0.28854864836E+01 -0.89438121398E+03  0.11011780204E+04  0.64226258722E+03 0.  0.
         13    1    3    3    0    0  0.19702301945E+03 -0.63994696845E+02 -0.88075203247E+03  0.90478590512E+03  0.00000000000E+00 0.  1.
          1    1    3    3  501    0 -0.18414980162E+03  0.66880183328E+02 -0.13629181511E+02  0.19639211528E+03  0.00000000000E+00 0.  1.
         21    1    1    2  502  501 -0.12873217832E+02 -0.28854864836E+01  0.17375986901E+02  0.21816752517E+02  0.00000000000E+00 0.  1.
<mgrwt>
<rscale>  1 0.30000000E+03</rscale>
<asrwt>0</asrwt>
<pdfrwt beam="1">  1        1 0.44725466E+00 0.30000000E+03</pdfrwt>
<pdfrwt beam="2">0</pdfrwt>
<totfact> 0.53682185E-01</totfact>
</mgrwt>
</event>
<event>
 6    1  0.5260809E-006  0.3000000E+03  0.7818608E-02  0.1093470E+00
          1   -1    0    0  502    0  0.00000000000E+00  0.00000000000E+00  0.12016000080E+03  0.12016000080E+03  0.00000000000E+00 0.  1.
         13   -1    0    0    0    0 -0.00000000000E+00 -0.00000000000E+00 -0.10000000000E+04  0.10000000000E+04  0.00000000000E+00 0.  1.
    9000005    2    1    2  501    0 -0.28390920544E+01  0.21166135938E+02 -0.86920801048E+03  0.10963040804E+04  0.66776044016E+03 0.  0.
         13    1    3    3    0    0 -0.24186547533E+03  0.10071371561E+03 -0.89422540641E+02  0.27683668732E+03  0.00000000000E+00 0.  1.
          1    1    3    3  501    0  0.23902638328E+03 -0.79547579672E+02 -0.77978546984E+03  0.81946739307E+03  0.00000000000E+00 0.  1.
         21    1    1    2  502  501  0.28390920544E+01 -0.21166135938E+02 -0.10631988721E+02  0.23855920406E+02  0.00000000000E+00 0. -1.
<mgrwt>
<rscale>  1 0.30000000E+03</rscale>
<asrwt>0</asrwt>
<pdfrwt beam="1">  1        1 0.43694638E+00 0.30000000E+03</pdfrwt>
<pdfrwt beam="2">0</pdfrwt>
<totfact> 0.62735021E-01</totfact>
</mgrwt>
</event>
<event>
 6    1  0.5260809E-006  0.3000000E+03  0.7818608E-02  0.1093470E+00
          1   -1    0    0  502    0  0.00000000000E+00  0.00000000000E+00  0.11444554684E+03  0.11444554684E+03  0.00000000000E+00 0.  1.
         13   -1    0    0    0    0 -0.00000000000E+00 -0.00000000000E+00 -0.10000000000E+04  0.10000000000E+04  0.00000000000E+00 0.  1.
    9000005    2    1    2  501    0  0.19381306326E+02 -0.71646412955E+00 -0.88847980133E+03  0.10948316228E+04  0.63944020555E+03 0.  0.
         13    1    3    3    0    0 -0.18140762182E+02 -0.31689191088E+03 -0.38298143547E+03  0.49741768198E+03  0.00000000000E+00 0.  1.
          3    1    3    3  501    0  0.37522068508E+02  0.31617544675E+03 -0.50549836587E+03  0.59741394079E+03  0.00000000000E+00 0.  1.
         21    1    1    2  502  501 -0.19381306326E+02  0.71646412955E+00  0.29253481768E+01  0.19613924077E+02  0.00000000000E+00 0.  1.
<mgrwt>
<rscale>  1 0.30000000E+03</rscale>
<asrwt>0</asrwt>
<pdfrwt beam="1">  1        1 0.41616650E+00 0.30000000E+03</pdfrwt>
<pdfrwt beam="2">0</pdfrwt>
<totfact> 0.84637850E-01</totfact>
</mgrwt>
</event>
<event>
 6    1  0.5260809E-006  0.3000000E+03  0.7818608E-02  0.1093470E+00
          1   -1    0    0  502    0  0.00000000000E+00  0.00000000000E+00  0.11201126262E+03  0.11201126262E+03  0.00000000000E+00 0.  1.
         13   -1    0    0    0    0 -0.00000000000E+00 -0.00000000000E+00 -0.10000000000E+04  0.10000000000E+04  0.00000000000E+00 0.  1.
    9000005    2    1    2  501    0  0.19493910839E+02  0.11110678834E+02 -0.87954737243E+03  0.10880380195E+04  0.64009350235E+03 0.  0.
         13    1    3    3    0    0 -0.27337310756E+03  0.97503007360E+02 -0.63018096916E+03  0.69380670671E+03  0.00000000000E+00 0.  1.
          3    1    3    3  501    0  0.29286701840E+03 -0.86392328526E+02 -0.24936640327E+03  0.39423131277E+03  0.00000000000E+00 0.  1.
         21    1    1    2  502  501 -0.19493910839E+02 -0.11110678834E+02 -0.84413649516E+01  0.23973243131E+02  0.00000000000E+00 0.  1.
<mgrwt>
<rscale>  1 0.30000000E+03</rscale>
<asrwt>0</asrwt>
<pdfrwt beam="1">  1        1 0.40731454E+00 0.30000000E+03</pdfrwt>
<pdfrwt beam="2">0</pdfrwt>
<totfact> 0.95549408E-01</totfact>
</mgrwt>
</event>
<event>
 6    1  0.5260809E-006  0.3000000E+03  0.7818608E-02  0.1093470E+00
          1   -1    0    0  502    0  0.00000000000E+00  0.00000000000E+00  0.10521539624E+03  0.10521539624E+03  0.00000000000E+00 0.  1.
         13   -1    0    0    0    0 -0.00000000000E+00 -0.00000000000E+00 -0.10000000000E+04  0.10000000000E+04  0.00000000000E+00 0.  1.
    9000005    2    1    2  501    0  0.26693898539E+02 -0.42251657436E+01 -0.90119451584E+03  0.10774394495E+04  0.58990998949E+03 0.  0.
         13    1    3    3    0    0 -0.92186403116E+02 -0.41861396781E+02 -0.94108736584E+03  0.94651790242E+03  0.00000000000E+00 0.  1.
          3    1    3    3  501    0  0.11888030166E+03  0.37636231038E+02  0.39892849994E+02  0.13092154708E+03  0.00000000000E+00 0.  1.
         21    1    1    2  502  501 -0.26693898539E+02  0.42251657436E+01  0.64099120872E+01  0.27775946748E+02  0.00000000000E+00 0.  1.
<mgrwt>
<rscale>  1 0.30000000E+03</rscale>
<asrwt>0</asrwt>
<pdfrwt beam="1">  1        1 0.38260225E+00 0.30000000E+03</pdfrwt>
<pdfrwt beam="2">0</pdfrwt>
<totfact> 0.13182283E+00</totfact>
</mgrwt>
</event>
<event>
 6    1  0.5260809E-006  0.3000000E+03  0.7818608E-02  0.1093470E+00
          1   -1    0    0  502    0  0.00000000000E+00  0.00000000000E+00  0.11106650101E+03  0.11106650101E+03  0.00000000000E+00 0.  1.
         13   -1    0    0    0    0 -0.00000000000E+00 -0.00000000000E+00 -0.10000000000E+04  0.10000000000E+04  0.00000000000E+00 0.  1.
    9000005    2    1    2  501    0 -0.35600098587E+01  0.85322194699E+01 -0.87355925979E+03  0.10931266105E+04  0.65706509105E+03 0.  0.
         13    1    3    3    0    0 -0.29985393139E+03  0.14042451190E+03 -0.48056783130E+03  0.58358963681E+03  0.00000000000E+00 0.  1.
          1    1    3    3  501    0  0.29629392153E+03 -0.13189229243E+03 -0.39299142849E+03  0.50953697373E+03  0.00000000000E+00 0.  1.
         21    1    1    2  502  501  0.35600098587E+01 -0.85322194699E+01 -0.15374239198E+02  0.17939890473E+02  0.00000000000E+00 0.  1.
<mgrwt>
<rscale>  1 0.30000000E+03</rscale>
<asrwt>0</asrwt>
<pdfrwt beam="1">  1        1 0.40387904E+00 0.30000000E+03</pdfrwt>
<pdfrwt beam="2">0</pdfrwt>
<totfact> 0.10005264E+00</totfact>
</mgrwt>
</event>
<event>
 6    1  0.5260809E-006  0.3000000E+03  0.7818608E-02  0.1093470E+00
          1   -1    0    0  502    0  0.00000000000E+00  0.00000000000E+00  0.13362614818E+03  0.13362614818E+03  0.00000000000E+00 0.  1.
         13   -1    0    0    0    0 -0.00000000000E+00 -0.00000000000E+00 -0.10000000000E+04  0.10000000000E+04  0.00000000000E+00 0.  1.
    9000005    2    1    2  501    0 -0.38313805598E+02 -0.29022882791E+02 -0.86501443845E+03  0.10855416036E+04  0.65409503815E+03 0.  0.
         13    1    3    3    0    0 -0.75393521149E+02 -0.32798771226E+03 -0.32881750887E+03  0.47051150524E+03  0.00000000000E+00 0.  1.
          1    1    3    3  501    0  0.37079715550E+02  0.29896482947E+03 -0.53619692958E+03  0.61503009833E+03  0.00000000000E+00 0.  1.
         21    1    1    2  502  501  0.38313805598E+02  0.29022882791E+02 -0.13594133735E+01  0.48084544603E+02  0.00000000000E+00 0.  1.
<mgrwt>
<rscale>  1 0.30000000E+03</rscale>
<asrwt>0</asrwt>
<pdfrwt beam="1">  1        1 0.48591429E+00 0.30000000E+03</pdfrwt>
<pdfrwt beam="2">0</pdfrwt>
<totfact> 0.28949743E-01</totfact>
</mgrwt>
</event>
<event>
 6    1  0.5260809E-006  0.3000000E+03  0.7818608E-02  0.1093470E+00
          1   -1    0    0  502    0  0.00000000000E+00  0.00000000000E+00  0.11334338668E+03  0.11334338668E+03  0.00000000000E+00 0.  1.
         13   -1    0    0    0    0 -0.00000000000E+00 -0.00000000000E+00 -0.10000000000E+04  0.10000000000E+04  0.00000000000E+00 0.  1.
    9000005    2    1    2  501    0  0.88330566745E+01  0.40102916484E+01 -0.88398477740E+03  0.11032813771E+04  0.66008075648E+03 0.  0.
         13    1    3    3    0    0 -0.21012837811E+02 -0.28042697094E+03 -0.72146016583E+03  0.77432912658E+03  0.00000000000E+00 0.  1.
          3    1    3    3  501    0  0.29845894486E+02  0.28443726259E+03 -0.16252461157E+03  0.32895225053E+03  0.00000000000E+00 0.  1.
         21    1    1    2  502  501 -0.88330566745E+01 -0.40102916484E+01 -0.26718359260E+01  0.10062009567E+02  0.00000000000E+00 0.  1.
<mgrwt>
<rscale>  1 0.30000000E+03</rscale>
<asrwt>0</asrwt>
<pdfrwt beam="1">  1        1 0.41215864E+00 0.30000000E+03</pdfrwt>
<pdfrwt beam="2">0</pdfrwt>
<totfact> 0.89456780E-01</totfact>
</mgrwt>
</event>
<event>
 6    1  0.5260809E-006  0.3000000E+03  0.7818608E-02  0.1093470E+00
          1   -1    0    0  502    0  0.00000000000E+00  0.00000000000E+00  0.11212579218E+03  0.11212579218E+03  0.00000000000E+00 0.  1.
         13   -1    0    0    0    0 -0.00000000000E+00 -0.00000000000E+00 -0.10000000000E+04  0.10000000000E+04  0.00000000000E+00 0.  1.
    9000005    2    1    2  501    0 -0.45913646037E+01 -0.16135494011E+02 -0.87708708816E+03  0.10921809496E+04  0.65061204385E+03 0.  0.
         13    1    3    3    0    0 -0.24932209676E+03  0.14562160124E+03 -0.68001624244E+03  0.73877550627E+03  0.00000000000E+00 0.  1.
          1    1    3    3  501    0  0.24473073215E+03 -0.16175709525E+03 -0.19707084571E+03  0.35340544330E+03  0.00000000000E+00 0.  1.
         21    1    1    2  502  501  0.45913646037E+01  0.16135494011E+02 -0.10787119665E+02  0.19944842606E+02  0.00000000000E+00 0. -1.
<mgrwt>
<rscale>  1 0.30000000E+03</rscale>
<asrwt>0</asrwt>
<pdfrwt beam="1">  1        1 0.40773101E+00 0.30000000E+03</pdfrwt>
<pdfrwt beam="2">0</pdfrwt>
<totfact> 0.95013866E-01</totfact>
</mgrwt>
</event>
<event>
 6    1  0.5260809E-006  0.3000000E+03  0.7818608E-02  0.1093470E+00
          1   -1    0    0  502    0  0.00000000000E+00  0.00000000000E+00  0.12736365246E+03  0.12736365246E+03  0.00000000000E+00 0.  1.
         13   -1    0    0    0    0 -0.00000000000E+00 -0.00000000000E+00 -0.10000000000E+04  0.10000000000E+04  0.00000000000E+00 0.  1.
    9000005    2    1    2  501    0  0.27240542611E+02 -0.14787322499E+02 -0.87883183069E+03  0.10957551713E+04  0.65373794197E+03 0.  0.
         13    1    3    3    0    0 -0.16286586352E+03  0.19570176672E+03 -0.73477792542E+03  0.77763942202E+03  0.00000000000E+00 0.  1.
          3    1    3    3  501    0  0.19010640613E+03 -0.21048908922E+03 -0.14405390528E+03  0.31811574930E+03  0.00000000000E+00 0.  1.
         21    1    1    2  502  501 -0.27240542611E+02  0.14787322499E+02  0.61954831560E+01  0.31608481140E+02  0.00000000000E+00 0.  1.
<mgrwt>
<rscale>  1 0.30000000E+03</rscale>
<asrwt>0</asrwt>
<pdfrwt beam="1">  1        1 0.46314153E+00 0.30000000E+03</pdfrwt>
<pdfrwt beam="2">0</pdfrwt>
<totfact> 0.41953373E-01</totfact>
</mgrwt>
</event>
<event>
 6    1  0.5260809E-006  0.3000000E+03  0.7818608E-02  0.1093470E+00
          1   -1    0    0  502    0  0.00000000000E+00  0.00000000000E+00  0.11578112712E+03  0.11578112712E+03  0.00000000000E+00 0.  1.
         13   -1    0    0    0    0 -0.00000000000E+00 -0.00000000000E+00 -0.10000000000E+04  0.10000000000E+04  0.00000000000E+00 0.  1.
    9000005    2    1    2  501    0  0.43752188389E+00 -0.24665564734E+02 -0.87370650330E+03  0.10889652471E+04  0.64951803199E+03 0.  0.
         13    1    3    3    0    0  0.28605217843E+03 -0.16420328048E+03 -0.39933009727E+03  0.51793155213E+03  0.00000000000E+00 0.  1.
          3    1    3    3  501    0 -0.28561465654E+03  0.13953771575E+03 -0.47437640603E+03  0.57103369493E+03  0.00000000000E+00 0.  1.
         21    1    1    2  502  501 -0.43752188389E+00  0.24665564734E+02 -0.10512369583E+02  0.26815880059E+02  0.00000000000E+00 0.  1.
<mgrwt>
<rscale>  1 0.30000000E+03</rscale>
<asrwt>0</asrwt>
<pdfrwt beam="1">  1        1 0.42102317E+00 0.30000000E+03</pdfrwt>
<pdfrwt beam="2">0</pdfrwt>
<totfact> 0.79046898E-01</totfact>
</mgrwt>
</event>
<event>
 6    1  0.5260809E-006  0.3000000E+03  0.7818608E-02  0.1093470E+00
          1   -1    0    0  502    0  0.00000000000E+00  0.00000000000E+00  0.11322261427E+03  0.11322261427E+03  0.00000000000E+00 0.  1.
         13   -1    0    0    0    0 -0.00000000000E+00 -0.00000000000E+00 -0.10000000000E+04  0.10000000000E+04  0.00000000000E+00 0.  1.
    9000005    2    1    2  501    0 -0.11054243822E+02 -0.26024283461E+01 -0.88330987316E+03  0.11013485845E+04  0.65772593349E+03 0.  0.
         13    1    3    3    0    0  0.15094638914E+03  0.20780326671E+03 -0.77166746389E+03  0.81328819301E+03  0.00000000000E+00 0.  1.
          1    1    3    3  501    0 -0.16200063296E+03 -0.21040569506E+03 -0.11164240927E+03  0.28806039148E+03  0.00000000000E+00 0.  1.
         21    1    1    2  502  501  0.11054243822E+02  0.26024283461E+01 -0.34675125697E+01  0.11874029779E+02  0.00000000000E+00 0. -1.
<mgrwt>
<rscale>  1 0.30000000E+03</rscale>
<asrwt>0</asrwt>
<pdfrwt beam="1">  1        1 0.41171947E+00 0.30000000E+03</pdfrwt>
<pdfrwt beam="2">0</pdfrwt>
<totfact> 0.89996940E-01</totfact>
</mgrwt>
</event>
<event>
 6    1  0.5260809E-006  0.3000000E+03  0.7818608E-02  0.1093470E+00
          1   -1    0    0  502    0  0.00000000000E+00  0.00000000000E+00  0.12265204471E+03  0.12265204471E+03  0.00000000000E+00 0.  1.
         13   -1    0    0    0    0 -0.00000000000E+00 -0.00000000000E+00 -0.10000000000E+04  0.10000000000E+04  0.00000000000E+00 0.  1.
    9000005    2    1    2  501    0  0.11822489369E+02  0.24759254076E+02 -0.87735104633E+03  0.10952149908E+04  0.65497956125E+03 0.  0.
         13    1    3    3    0    0 -0.27971727568E+03 -0.14740980000E+03 -0.45055908633E+03  0.55043155226E+03  0.00000000000E+00 0.  1.
          3    1    3    3  501    0  0.29153976505E+03  0.17216905407E+03 -0.42679196000E+03  0.54478343854E+03  0.00000000000E+00 0.  1.
         21    1    1    2  502  501 -0.11822489369E+02 -0.24759254076E+02  0.30910401794E-02  0.27437053902E+02  0.00000000000E+00 0.  1.
<mgrwt>
<rscale>  1 0.30000000E+03</rscale>
<asrwt>0</asrwt>
<pdfrwt beam="1">  1        1 0.44600838E+00 0.30000000E+03</pdfrwt>
<pdfrwt beam="2">0</pdfrwt>
<totfact> 0.54720342E-01</totfact>
</mgrwt>
</event>
<event>
 6    1  0.5260809E-006  0.3000000E+03  0.7818608E-02  0.1093470E+00
          1   -1    0    0  502    0  0.00000000000E+00  0.00000000000E+00  0.13077864307E+03  0.13077864307E+03  0.00000000000E+00 0.  1.
         13   -1    0    0    0    0 -0.00000000000E+00 -0.00000000000E+00 -0.10000000000E+04  0.10000000000E+04  0.00000000000E+00 0.  1.
    9000005    2    1    2  501    0 -0.21809169027E+02  0.22493000892E+01 -0.88910807522E+03  0.11011782922E+04  0.64930714050E+03 0.  0.
         13    1    3    3    0    0 -0.23969654775E+03 -0.45153944627E+01 -0.64530321623E+02  0.24827200043E+03  0.00000000000E+00 0.  1.
          1    1    3    3  501    0  0.21788737872E+03  0.67646945519E+01 -0.82457775359E+03  0.85290629182E+03  0.00000000000E+00 0.  1.
         21    1    1    2  502  501  0.21809169027E+02 -0.22493000892E+01  0.19886718285E+02  0.29600350820E+02  0.00000000000E+00 0.  1.
<mgrwt>
<rscale>  1 0.30000000E+03</rscale>
<asrwt>0</asrwt>
<pdfrwt beam="1">  1        1 0.47555970E+00 0.30000000E+03</pdfrwt>
<pdfrwt beam="2">0</pdfrwt>
<totfact> 0.34357335E-01</totfact>
</mgrwt>
</event>
<event>
 6    1  0.5260809E-006  0.3000000E+03  0.7818608E-02  0.1093470E+00
          1   -1    0    0  502    0  0.00000000000E+00  0.00000000000E+00  0.11568455527E+03  0.11568455527E+03  0.00000000000E+00 0.  1.
         13   -1    0    0    0    0 -0.00000000000E+00 -0.00000000000E+00 -0.10000000000E+04  0.10000000000E+04  0.00000000000E+00 0.  1.
    9000005    2    1    2  501    0  0.20100521587E+02 -0.10393197813E+02 -0.84051341079E+03  0.10663827530E+04  0.65589429993E+03 0.  0.
         13    1    3    3    0    0 -0.18509378244E+03 -0.22613871285E+03 -0.65063012843E+03  0.71324469137E+03  0.00000000000E+00 0.  1.
          3    1    3    3  501    0  0.20519430403E+03  0.21574551503E+03 -0.18988328237E+03  0.35313806165E+03  0.00000000000E+00 0.  1.
         21    1    1    2  502  501 -0.20100521587E+02  0.10393197813E+02 -0.43802033935E+02  0.49301802256E+02  0.00000000000E+00 0.  1.
<mgrwt>
<rscale>  1 0.30000000E+03</rscale>
<asrwt>0</asrwt>
<pdfrwt beam="1">  1        1 0.42067200E+00 0.30000000E+03</pdfrwt>
<pdfrwt beam="2">0</pdfrwt>
<totfact> 0.79442199E-01</totfact>
</mgrwt>
</event>
<event>
 6    1  0.5260809E-006  0.3000000E+03  0.7818608E-02  0.1093470E+00
          1   -1    0    0  502    0  0.00000000000E+00  0.00000000000E+00  0.13015243264E+03  0.13015243264E+03  0.00000000000E+00 0.  1.
         13   -1    0    0    0    0 -0.00000000000E+00 -0.00000000000E+00 -0.10000000000E+04  0.10000000000E+04  0.00000000000E+00 0.  1.
    9000005    2    1    2  501    0 -0.44135989672E+02  0.21668275730E+02 -0.86532338665E+03  0.10807766494E+04  0.64565943243E+03 0.  0.
         13    1    3    3    0    0 -0.32696617164E+03 -0.91114818258E+02 -0.39892337529E+03  0.52378301505E+03  0.00000000000E+00 0.  1.
          1    1    3    3  501    0  0.28283018197E+03  0.11278309399E+03 -0.46640001137E+03  0.55699363437E+03  0.00000000000E+00 0.  1.
         21    1    1    2  502  501  0.44135989672E+02 -0.21668275730E+02 -0.45241807082E+01  0.49375783219E+02  0.00000000000E+00 0.  1.
<mgrwt>
<rscale>  1 0.30000000E+03</rscale>
<asrwt>0</asrwt>
<pdfrwt beam="1">  1        1 0.47328257E+00 0.30000000E+03</pdfrwt>
<pdfrwt beam="2">0</pdfrwt>
<totfact> 0.35657455E-01</totfact>
</mgrwt>
</event>
<event>
 6    1  0.5260809E-006  0.3000000E+03  0.7818608E-02  0.1093470E+00
          1   -1    0    0  502    0  0.00000000000E+00  0.00000000000E+00  0.11564978641E+03  0.11564978641E+03  0.00000000000E+00 0.  1.
         13   -1    0    0    0    0 -0.00000000000E+00 -0.00000000000E+00 -0.10000000000E+04  0.10000000000E+04  0.00000000000E+00 0.  1.
    9000005    2    1    2  501    0 -0.59955341810E+01  0.85299154384E+01 -0.89389931477E+03  0.11015114972E+04  0.64355488322E+03 0.  0.
         13    1    3    3    0    0 -0.14306382990E+03  0.79558063160E+02 -0.92890118084E+03  0.94321479452E+03  0.00000000000E+00 0.  1.
          1    1    3    3  501    0  0.13706829572E+03 -0.71028147722E+02  0.35001866072E+02  0.15829670271E+03  0.00000000000E+00 0.  1.
         21    1    1    2  502  501  0.59955341810E+01 -0.85299154384E+01  0.95491011827E+01  0.14138289179E+02  0.00000000000E+00 0.  1.
<mgrwt>
<rscale>  1 0.30000000E+03</rscale>
<asrwt>0</asrwt>
<pdfrwt beam="1">  1        1 0.42054556E+00 0.30000000E+03</pdfrwt>
<pdfrwt beam="2">0</pdfrwt>
<totfact> 0.79584874E-01</totfact>
</mgrwt>
</event>
<event>
 6    1  0.5260809E-006  0.3000000E+03  0.7818608E-02  0.1093470E+00
          1   -1    0    0  502    0  0.00000000000E+00  0.00000000000E+00  0.13688669607E+03  0.13688669607E+03  0.00000000000E+00 0.  1.
         13   -1    0    0    0    0 -0.00000000000E+00 -0.00000000000E+00 -0.10000000000E+04  0.10000000000E+04  0.00000000000E+00 0.  1.
    9000005    2    1    2  501    0 -0.19906014887E+02  0.90070472307E+01 -0.88559065276E+03  0.11055401247E+04  0.66141574420E+03 0.  0.
         13    1    3    3    0    0  0.15756467065E+03  0.28305284928E+03 -0.54298012088E+03  0.63227600982E+03  0.00000000000E+00 0.  1.
          1    1    3    3  501    0 -0.17747068554E+03 -0.27404580205E+03 -0.34261053188E+03  0.47326411485E+03  0.00000000000E+00 0.  1.
         21    1    1    2  502  501  0.19906014887E+02 -0.90070472307E+01  0.22477348822E+02  0.31346571401E+02  0.00000000000E+00 0. -1.
<mgrwt>
<rscale>  1 0.30000000E+03</rscale>
<asrwt>0</asrwt>
<pdfrwt beam="1">  1        1 0.49777085E+00 0.30000000E+03</pdfrwt>
<pdfrwt beam="2">0</pdfrwt>
<totfact> 0.23716222E-01</totfact>
</mgrwt>
</event>
<event>
 6    1  0.5260809E-006  0.3000000E+03  0.7818608E-02  0.1093470E+00
          1   -1    0    0  502    0  0.00000000000E+00  0.00000000000E+00  0.93550021123E+02  0.93550021123E+02  0.00000000000E+00 0.  1.
         13   -1    0    0    0    0 -0.00000000000E+00 -0.00000000000E+00 -0.10000000000E+04  0.10000000000E+04  0.00000000000E+00 0.  1.
    9000005    2    1    2  501    0  0.46085549398E+02 -0.96161724184E+02 -0.58513477589E+03  0.75500251377E+03  0.46505390525E+03 0.  0.
         13    1    3    3    0    0  0.42573924937E+01  0.93035560057E+02  0.39381788416E+02  0.10111709096E+03  0.00000000000E+00 0.  1.
          3    1    3    3  501    0  0.41828156904E+02 -0.18919728424E+03 -0.62451656430E+03  0.65388542281E+03  0.00000000000E+00 0.  1.
         21    1    1    2  502  501 -0.46085549398E+02  0.96161724184E+02 -0.32131520299E+03  0.33854750735E+03  0.00000000000E+00 0.  1.
<mgrwt>
<rscale>  1 0.30000000E+03</rscale>
<asrwt>0</asrwt>
<pdfrwt beam="1">  1        1 0.34018261E+00 0.30000000E+03</pdfrwt>
<pdfrwt beam="2">0</pdfrwt>
<totfact> 0.22094719E+00</totfact>
</mgrwt>
</event>
<event>
 6    1  0.5260809E-006  0.3000000E+03  0.7818608E-02  0.1093470E+00
          1   -1    0    0  502    0  0.00000000000E+00  0.00000000000E+00  0.11574575976E+03  0.11574575976E+03  0.00000000000E+00 0.  1.
         13   -1    0    0    0    0 -0.00000000000E+00 -0.00000000000E+00 -0.10000000000E+04  0.10000000000E+04  0.00000000000E+00 0.  1.
    9000005    2    1    2  501    0 -0.11100828800E+02 -0.23481253133E+02 -0.88237857359E+03  0.10897051036E+04  0.63889801063E+03 0.  0.
         13    1    3    3    0    0 -0.22141574407E+03 -0.17079218555E+03 -0.15804604155E+03  0.32120624778E+03  0.00000000000E+00 0.  1.
          1    1    3    3  501    0  0.21031491527E+03  0.14731093241E+03 -0.72433253204E+03  0.76849885580E+03  0.00000000000E+00 0.  1.
         21    1    1    2  502  501  0.11100828800E+02  0.23481253133E+02 -0.18756666515E+01  0.26040656177E+02  0.00000000000E+00 0. -1.
<mgrwt>
<rscale>  1 0.30000000E+03</rscale>
<asrwt>0</asrwt>
<pdfrwt beam="1">  1        1 0.42089456E+00 0.30000000E+03</pdfrwt>
<pdfrwt beam="2">0</pdfrwt>
<totfact> 0.79191500E-01</totfact>
</mgrwt>
</event>
<event>
 6    1  0.5260809E-006  0.3000000E+03  0.7818608E-02  0.1093470E+00
          1   -1    0    0  502    0  0.00000000000E+00  0.00000000000E+00  0.12719629866E+03  0.12719629866E+03  0.00000000000E+00 0.  1.
         13   -1    0    0    0    0 -0.00000000000E+00 -0.00000000000E+00 -0.10000000000E+04  0.10000000000E+04  0.00000000000E+00 0.  1.
    9000005    2    1    2  501    0  0.13814023464E+02  0.69393234030E+01 -0.88952259803E+03  0.11044256386E+04  0.65442078002E+03 0.  0.
         13    1    3    3    0    0 -0.78042835397E+02 -0.29767266121E+03 -0.59971190554E+03  0.67405791075E+03  0.00000000000E+00 0.  1.
          1    1    3    3  501    0  0.91856858861E+02  0.30461198462E+03 -0.28981069248E+03  0.43036772785E+03  0.00000000000E+00 0.  1.
         21    1    1    2  502  501 -0.13814023464E+02 -0.69393234030E+01  0.16718896681E+02  0.22770660065E+02  0.00000000000E+00 0.  1.
<mgrwt>
<rscale>  1 0.30000000E+03</rscale>
<asrwt>0</asrwt>
<pdfrwt beam="1">  1        1 0.46253297E+00 0.30000000E+03</pdfrwt>
<pdfrwt beam="2">0</pdfrwt>
<totfact> 0.42356913E-01</totfact>
</mgrwt>
</event>
<event>
 6    1  0.5260809E-006  0.3000000E+03  0.7818608E-02  0.1093470E+00
          1   -1    0    0  502    0  0.00000000000E+00  0.00000000000E+00  0.11341206338E+03  0.11341206338E+03  0.00000000000E+00 0.  1.
         13   -1    0    0    0    0 -0.00000000000E+00 -0.00000000000E+00 -0.10000000000E+04  0.10000000000E+04  0.00000000000E+00 0.  1.
    9000005    2    1    2  501    0 -0.22193165778E+02 -0.50844523938E+01 -0.88226215129E+03  0.10902366306E+04  0.64008672768E+03 0.  0.
         13    1    3    3    0    0  0.94049088490E+02 -0.24598665479E+03 -0.74379340316E+03  0.78903947428E+03  0.00000000000E+00 0.  1.
          3    1    3    3  501    0 -0.11624225427E+03  0.24090220240E+03 -0.13846874813E+03  0.30119715637E+03  0.00000000000E+00 0.  1.
         21    1    1    2  502  501  0.22193165778E+02  0.50844523938E+01 -0.43257853340E+01  0.23175432728E+02  0.00000000000E+00 0.  1.
<mgrwt>
<rscale>  1 0.30000000E+03</rscale>
<asrwt>0</asrwt>
<pdfrwt beam="1">  1        1 0.41240837E+00 0.30000000E+03</pdfrwt>
<pdfrwt beam="2">0</pdfrwt>
<totfact> 0.89150696E-01</totfact>
</mgrwt>
</event>
<event>
 6    1  0.5260809E-006  0.3000000E+03  0.7818608E-02  0.1093470E+00
          1   -1    0    0  502    0  0.00000000000E+00  0.00000000000E+00  0.11703659463E+03  0.11703659463E+03  0.00000000000E+00 0.  1.
         13   -1    0    0    0    0 -0.00000000000E+00 -0.00000000000E+00 -0.10000000000E+04  0.10000000000E+04  0.00000000000E+00 0.  1.
    9000005    2    1    2  501    0  0.11300982521E+02  0.87198557628E+01 -0.89599534053E+03  0.10977083918E+04  0.63399709392E+03 0.  0.
         13    1    3    3    0    0  0.22374913528E+03  0.19347427405E+03 -0.23015565047E+03  0.37479006617E+03  0.00000000000E+00 0.  1.
          3    1    3    3  501    0 -0.21244815276E+03 -0.18475441829E+03 -0.66583969006E+03  0.72291832564E+03  0.00000000000E+00 0.  1.
         21    1    1    2  502  501 -0.11300982521E+02 -0.87198557628E+01  0.13031935163E+02  0.19328202828E+02  0.00000000000E+00 0. -1.
<mgrwt>
<rscale>  1 0.30000000E+03</rscale>
<asrwt>0</asrwt>
<pdfrwt beam="1">  1        1 0.42558851E+00 0.30000000E+03</pdfrwt>
<pdfrwt beam="2">0</pdfrwt>
<totfact> 0.74044580E-01</totfact>
</mgrwt>
</event>
<event>
 6    1  0.5260809E-006  0.3000000E+03  0.7818608E-02  0.1093470E+00
          1   -1    0    0  502    0  0.00000000000E+00  0.00000000000E+00  0.11027638137E+03  0.11027638137E+03  0.00000000000E+00 0.  1.
         13   -1    0    0    0    0 -0.00000000000E+00 -0.00000000000E+00 -0.10000000000E+04  0.10000000000E+04  0.00000000000E+00 0.  1.
    9000005    2    1    2  501    0 -0.60828846130E+01 -0.59879927610E+01 -0.87869436586E+03  0.10963299854E+04  0.65556295719E+03 0.  0.
         13    1    3    3    0    0 -0.16078622656E+03 -0.22302275195E+03 -0.13495266091E+03  0.30627369986E+03  0.00000000000E+00 0.  1.
          1    1    3    3  501    0  0.15470334195E+03  0.21703475919E+03 -0.74374170495E+03  0.79005628558E+03  0.00000000000E+00 0.  1.
         21    1    1    2  502  501  0.60828846130E+01  0.59879927610E+01 -0.11029252776E+02  0.13946395926E+02  0.00000000000E+00 0. -1.
<mgrwt>
<rscale>  1 0.30000000E+03</rscale>
<asrwt>0</asrwt>
<pdfrwt beam="1">  1        1 0.40100587E+00 0.30000000E+03</pdfrwt>
<pdfrwt beam="2">0</pdfrwt>
<totfact> 0.10393328E+00</totfact>
</mgrwt>
</event>
<event>
 6    1  0.5260809E-006  0.3000000E+03  0.7818608E-02  0.1093470E+00
          1   -1    0    0  502    0  0.00000000000E+00  0.00000000000E+00  0.15198175216E+03  0.15198175216E+03  0.00000000000E+00 0.  1.
         13   -1    0    0    0    0 -0.00000000000E+00 -0.00000000000E+00 -0.10000000000E+04  0.10000000000E+04  0.00000000000E+00 0.  1.
    9000005    2    1    2  501    0 -0.51923140640E+02  0.78967575071E+02 -0.81589633003E+03  0.10521633769E+04  0.65759338483E+03 0.  0.
         13    1    3    3    0    0  0.18755203097E+03  0.17316944463E+02 -0.77984226259E+03  0.80226528992E+03  0.00000000000E+00 0.  1.
          1    1    3    3  501    0 -0.23947517161E+03  0.61650630608E+02 -0.36054067442E+02  0.24989808693E+03  0.00000000000E+00 0.  1.
         21    1    1    2  502  501  0.51923140640E+02 -0.78967575071E+02 -0.32121917803E+02  0.99818375312E+02  0.00000000000E+00 0.  1.
<mgrwt>
<rscale>  1 0.30000000E+03</rscale>
<asrwt>0</asrwt>
<pdfrwt beam="1">  1        1 0.55266208E+00 0.30000000E+03</pdfrwt>
<pdfrwt beam="2">0</pdfrwt>
<totfact> 0.94816397E-02</totfact>
</mgrwt>
</event>
<event>
 6    1  0.5260809E-006  0.3000000E+03  0.7818608E-02  0.1093470E+00
          1   -1    0    0  502    0  0.00000000000E+00  0.00000000000E+00  0.18592243185E+03  0.18592243185E+03  0.00000000000E+00 0.  1.
         13   -1    0    0    0    0 -0.00000000000E+00 -0.00000000000E+00 -0.10000000000E+04  0.10000000000E+04  0.00000000000E+00 0.  1.
    9000005    2    1    2  501    0 -0.11680895850E+03  0.14295795721E+02 -0.83306567131E+03  0.10667198705E+04  0.65577752853E+03 0.  0.
         13    1    3    3    0    0 -0.63921387698E+02  0.33076884048E+03 -0.51133720101E+03  0.61233953227E+03  0.00000000000E+00 0.  1.
          3    1    3    3  501    0 -0.52887570800E+02 -0.31647304476E+03 -0.32172847030E+03  0.45438033827E+03  0.00000000000E+00 0.  1.
         21    1    1    2  502  501  0.11680895850E+03 -0.14295795721E+02  0.18988103161E+02  0.11920256131E+03  0.00000000000E+00 0.  1.
<mgrwt>
<rscale>  1 0.30000000E+03</rscale>
<asrwt>0</asrwt>
<pdfrwt beam="1">  1        1 0.67608300E+00 0.30000000E+03</pdfrwt>
<pdfrwt beam="2">0</pdfrwt>
<totfact> 0.30106195E-02</totfact>
</mgrwt>
</event>
<event>
 6    1  0.5260809E-006  0.3000000E+03  0.7818608E-02  0.1093470E+00
          1   -1    0    0  502    0  0.00000000000E+00  0.00000000000E+00  0.10878678583E+03  0.10878678583E+03  0.00000000000E+00 0.  1.
         13   -1    0    0    0    0 -0.00000000000E+00 -0.00000000000E+00 -0.10000000000E+04  0.10000000000E+04  0.00000000000E+00 0.  1.
    9000005    2    1    2  501    0 -0.40080929370E+01 -0.98920209626E+01 -0.89913204591E+03  0.10954967601E+04  0.62574819098E+03 0.  0.
         13    1    3    3    0    0  0.30167581394E+03  0.62428272095E+02 -0.38617882075E+03  0.49400371200E+03  0.00000000000E+00 0.  1.
          1    1    3    3  501    0 -0.30568390688E+03 -0.72320293057E+02 -0.51295322517E+03  0.60149304810E+03  0.00000000000E+00 0.  1.
         21    1    1    2  502  501  0.40080929370E+01  0.98920209626E+01  0.79188317446E+01  0.13290025730E+02  0.00000000000E+00 0. -1.
<mgrwt>
<rscale>  1 0.30000000E+03</rscale>
<asrwt>0</asrwt>
<pdfrwt beam="1">  1        1 0.39558915E+00 0.30000000E+03</pdfrwt>
<pdfrwt beam="2">0</pdfrwt>
<totfact> 0.11155723E+00</totfact>
</mgrwt>
</event>
<event>
 6    1  0.5260809E-006  0.3000000E+03  0.7818608E-02  0.1093470E+00
          1   -1    0    0  502    0  0.00000000000E+00  0.00000000000E+00  0.10918390810E+03  0.10918390810E+03  0.00000000000E+00 0.  1.
         13   -1    0    0    0    0 -0.00000000000E+00 -0.00000000000E+00 -0.10000000000E+04  0.10000000000E+04  0.00000000000E+00 0.  1.
    9000005    2    1    2  501    0 -0.11418194425E+02  0.11072753481E+02 -0.86162091576E+03  0.10759372640E+04  0.64420292811E+03 0.  0.
         13    1    3    3    0    0  0.11635227169E+03  0.60640988590E+02 -0.91830343625E+03  0.92762944199E+03  0.00000000000E+00 0.  1.
          1    1    3    3  501    0 -0.12777046611E+03 -0.49568235109E+02  0.56682520492E+02  0.14830782202E+03  0.00000000000E+00 0.  1.
         21    1    1    2  502  501  0.11418194425E+02 -0.11072753481E+02 -0.29195176138E+02  0.33246644091E+02  0.00000000000E+00 0. -1.
<mgrwt>
<rscale>  1 0.30000000E+03</rscale>
<asrwt>0</asrwt>
<pdfrwt beam="1">  1        1 0.39703323E+00 0.30000000E+03</pdfrwt>
<pdfrwt beam="2">0</pdfrwt>
<totfact> 0.10948196E+00</totfact>
</mgrwt>
</event>
<event>
 6    1  0.5260809E-006  0.3000000E+03  0.7818608E-02  0.1093470E+00
          1   -1    0    0  502    0  0.00000000000E+00  0.00000000000E+00  0.12076988198E+03  0.12076988198E+03  0.00000000000E+00 0.  1.
         13   -1    0    0    0    0 -0.00000000000E+00 -0.00000000000E+00 -0.10000000000E+04  0.10000000000E+04  0.00000000000E+00 0.  1.
    9000005    2    1    2  501    0  0.28263429990E+02 -0.17613679346E+02 -0.87709120200E+03  0.10873986648E+04  0.64190171864E+03 0.  0.
         13    1    3    3    0    0  0.25178784962E+03  0.45158721356E+02 -0.80442917742E+03  0.84412246317E+03  0.00000000000E+00 0.  1.
          3    1    3    3  501    0 -0.22352441964E+03 -0.62772400702E+02 -0.72662024583E+02  0.24327620163E+03  0.00000000000E+00 0.  1.
         21    1    1    2  502  501 -0.28263429990E+02  0.17613679346E+02 -0.21389160118E+01  0.33371217188E+02  0.00000000000E+00 0.  1.
<mgrwt>
<rscale>  1 0.30000000E+03</rscale>
<asrwt>0</asrwt>
<pdfrwt beam="1">  1        1 0.43916413E+00 0.30000000E+03</pdfrwt>
<pdfrwt beam="2">0</pdfrwt>
<totfact> 0.60698614E-01</totfact>
</mgrwt>
</event>
<event>
 6    1  0.5260809E-006  0.3000000E+03  0.7818608E-02  0.1093470E+00
          1   -1    0    0  502    0  0.00000000000E+00  0.00000000000E+00  0.10808884040E+03  0.10808884040E+03  0.00000000000E+00 0.  1.
         13   -1    0    0    0    0 -0.00000000000E+00 -0.00000000000E+00 -0.10000000000E+04  0.10000000000E+04  0.00000000000E+00 0.  1.
    9000005    2    1    2  501    0 -0.64047468471E+01 -0.89686401220E+01 -0.89661563677E+03  0.10961059612E+04  0.63040242771E+03 0.  0.
         13    1    3    3    0    0  0.33999137121E+02  0.26929097232E+03 -0.17838945285E+03  0.32480204123E+03  0.00000000000E+00 0.  1.
          3    1    3    3  501    0 -0.40403883968E+02 -0.27825961244E+03 -0.71822618391E+03  0.77130392000E+03  0.00000000000E+00 0.  1.
         21    1    1    2  502  501  0.64047468471E+01  0.89686401220E+01  0.47044771703E+01  0.11982879172E+02  0.00000000000E+00 0. -1.
<mgrwt>
<rscale>  1 0.30000000E+03</rscale>
<asrwt>0</asrwt>
<pdfrwt beam="1">  1        1 0.39305116E+00 0.30000000E+03</pdfrwt>
<pdfrwt beam="2">0</pdfrwt>
<totfact> 0.11528721E+00</totfact>
</mgrwt>
</event>
<event>
 6    1  0.5260809E-006  0.3000000E+03  0.7818608E-02  0.1093470E+00
          1   -1    0    0  502    0  0.00000000000E+00  0.00000000000E+00  0.11801207750E+03  0.11801207750E+03  0.00000000000E+00 0.  1.
         13   -1    0    0    0    0 -0.00000000000E+00 -0.00000000000E+00 -0.10000000000E+04  0.10000000000E+04  0.00000000000E+00 0.  1.
    9000005    2    1    2  501    0  0.14626649900E+02 -0.15792591803E+02 -0.88424499287E+03  0.10963686210E+04  0.64782065483E+03 0.  0.
         13    1    3    3    0    0 -0.15759868557E+03  0.15755127673E+03 -0.51780002361E+02  0.22878137848E+03  0.00000000000E+00 0.  1.
          1    1    3    3  501    0  0.17222533547E+03 -0.17334386854E+03 -0.83246499050E+03  0.86758724250E+03  0.00000000000E+00 0.  1.
         21    1    1    2  502  501 -0.14626649900E+02  0.15792591803E+02  0.22570703618E+01  0.21643456512E+02  0.00000000000E+00 0.  1.
<mgrwt>
<rscale>  1 0.30000000E+03</rscale>
<asrwt>0</asrwt>
<pdfrwt beam="1">  1        1 0.42913573E+00 0.30000000E+03</pdfrwt>
<pdfrwt beam="2">0</pdfrwt>
<totfact> 0.70342864E-01</totfact>
</mgrwt>
</event>
<event>
 6    1  0.5260809E-006  0.3000000E+03  0.7818608E-02  0.1093470E+00
          1   -1    0    0  502    0  0.00000000000E+00  0.00000000000E+00  0.11288772247E+03  0.11288772247E+03  0.00000000000E+00 0.  1.
         13   -1    0    0    0    0 -0.00000000000E+00 -0.00000000000E+00 -0.10000000000E+04  0.10000000000E+04  0.00000000000E+00 0.  1.
    9000005    2    1    2  501    0 -0.87000789425E+01 -0.16875787197E+02 -0.86262598919E+03  0.10819028571E+04  0.65270951530E+03 0.  0.
         13    1    3    3    0    0 -0.18473878975E+03 -0.27873845867E+03 -0.49592935386E+03  0.59813833918E+03  0.00000000000E+00 0.  1.
          1    1    3    3  501    0  0.17603871081E+03  0.26186267147E+03 -0.36669663533E+03  0.48376451790E+03  0.00000000000E+00 0.  1.
         21    1    1    2  502  501  0.87000789425E+01  0.16875787197E+02 -0.24486288337E+02  0.30984865397E+02  0.00000000000E+00 0.  1.
<mgrwt>
<rscale>  1 0.30000000E+03</rscale>
<asrwt>0</asrwt>
<pdfrwt beam="1">  1        1 0.41050167E+00 0.30000000E+03</pdfrwt>
<pdfrwt beam="2">0</pdfrwt>
<totfact> 0.91507410E-01</totfact>
</mgrwt>
</event>
<event>
 6    1  0.5260809E-006  0.3000000E+03  0.7818608E-02  0.1093470E+00
          1   -1    0    0  502    0  0.00000000000E+00  0.00000000000E+00  0.10148666237E+03  0.10148666237E+03  0.00000000000E+00 0.  1.
         13   -1    0    0    0    0 -0.00000000000E+00 -0.00000000000E+00 -0.10000000000E+04  0.10000000000E+04  0.00000000000E+00 0.  1.
    9000005    2    1    2  501    0  0.13426842022E+02 -0.64534849473E+01 -0.88843776605E+03  0.10835020941E+04  0.62002677051E+03 0.  0.
         13    1    3    3    0    0 -0.25863532440E+03 -0.14880671520E+03 -0.55564774207E+03  0.63069809163E+03  0.00000000000E+00 0.  1.
          1    1    3    3  501    0  0.27206216642E+03  0.14235323025E+03 -0.33279002398E+03  0.45280400244E+03  0.00000000000E+00 0.  1.
         21    1    1    2  502  501 -0.13426842022E+02  0.64534849473E+01 -0.10075571580E+02  0.17984568310E+02  0.00000000000E+00 0. -1.
<mgrwt>
<rscale>  1 0.30000000E+03</rscale>
<asrwt>0</asrwt>
<pdfrwt beam="1">  1        1 0.36904319E+00 0.30000000E+03</pdfrwt>
<pdfrwt beam="2">0</pdfrwt>
<totfact> 0.15620595E+00</totfact>
</mgrwt>
</event>
<event>
 6    1  0.5260809E-006  0.3000000E+03  0.7818608E-02  0.1093470E+00
          1   -1    0    0  502    0  0.00000000000E+00  0.00000000000E+00  0.11290410763E+03  0.11290410763E+03  0.00000000000E+00 0.  1.
         13   -1    0    0    0    0 -0.00000000000E+00 -0.00000000000E+00 -0.10000000000E+04  0.10000000000E+04  0.00000000000E+00 0.  1.
    9000005    2    1    2  501    0  0.11324759348E+02  0.71728600714E+01 -0.89052144317E+03  0.10990681221E+04  0.64400512132E+03 0.  0.
         13    1    3    3    0    0 -0.20108444046E+03  0.24990088017E+03 -0.47213600588E+03  0.57078700945E+03  0.00000000000E+00 0.  1.
          3    1    3    3  501    0  0.21240919981E+03 -0.24272802010E+03 -0.41838543728E+03  0.52828111270E+03  0.00000000000E+00 0.  1.
         21    1    1    2  502  501 -0.11324759348E+02 -0.71728600714E+01  0.34255507912E+01  0.13835985477E+02  0.00000000000E+00 0. -1.
<mgrwt>
<rscale>  1 0.30000000E+03</rscale>
<asrwt>0</asrwt>
<pdfrwt beam="1">  1        1 0.41056126E+00 0.30000000E+03</pdfrwt>
<pdfrwt beam="2">0</pdfrwt>
<totfact> 0.91433074E-01</totfact>
</mgrwt>
</event>
<event>
 6    1  0.5260809E-006  0.3000000E+03  0.7818608E-02  0.1093470E+00
          1   -1    0    0  502    0  0.00000000000E+00  0.00000000000E+00  0.12988929840E+03  0.12988929840E+03  0.00000000000E+00 0.  1.
         13   -1    0    0    0    0 -0.00000000000E+00 -0.00000000000E+00 -0.10000000000E+04  0.10000000000E+04  0.00000000000E+00 0.  1.
    9000005    2    1    2  501    0 -0.12913929774E+02  0.88364515587E+01 -0.88524998921E+03  0.11081165979E+04  0.66634075267E+03 0.  0.
         13    1    3    3    0    0  0.46890079475E+01  0.10059304310E+03 -0.97403653467E+03  0.97922832781E+03  0.00000000000E+00 0.  1.
          1    1    3    3  501    0 -0.17602937721E+02 -0.91756591544E+02  0.88786545463E+02  0.12888827008E+03  0.00000000000E+00 0.  1.
         21    1    1    2  502  501  0.12913929774E+02 -0.88364515587E+01  0.15139287603E+02  0.21772700509E+02  0.00000000000E+00 0. -1.
<mgrwt>
<rscale>  1 0.30000000E+03</rscale>
<asrwt>0</asrwt>
<pdfrwt beam="1">  1        1 0.47232572E+00 0.30000000E+03</pdfrwt>
<pdfrwt beam="2">0</pdfrwt>
<totfact> 0.36216182E-01</totfact>
</mgrwt>
</event>
<event>
 6    1  0.5260809E-006  0.3000000E+03  0.7818608E-02  0.1093470E+00
          1   -1    0    0  502    0  0.00000000000E+00  0.00000000000E+00  0.14741130185E+03  0.14741130185E+03  0.00000000000E+00 0.  1.
         13   -1    0    0    0    0 -0.00000000000E+00 -0.00000000000E+00 -0.10000000000E+04  0.10000000000E+04  0.00000000000E+00 0.  1.
    9000005    2    1    2  501    0 -0.37527775429E+02  0.34448162062E+02 -0.87602679428E+03  0.10913367609E+04  0.64884356473E+03 0.  0.
         13    1    3    3    0    0  0.17586522780E+00 -0.30322701849E+03 -0.49801923510E+03  0.58306930480E+03  0.00000000000E+00 0.  1.
          1    1    3    3  501    0 -0.37703640657E+02  0.33767518056E+03 -0.37800755917E+03  0.50826745605E+03  0.00000000000E+00 0.  1.
         21    1    1    2  502  501  0.37527775429E+02 -0.34448162062E+02  0.23438096123E+02  0.56074540996E+02  0.00000000000E+00 0.  1.
<mgrwt>
<rscale>  1 0.30000000E+03</rscale>
<asrwt>0</asrwt>
<pdfrwt beam="1">  1        1 0.53604223E+00 0.30000000E+03</pdfrwt>
<pdfrwt beam="2">0</pdfrwt>
<totfact> 0.12287912E-01</totfact>
</mgrwt>
</event>
<event>
 6    1  0.5260809E-006  0.3000000E+03  0.7818608E-02  0.1093470E+00
          1   -1    0    0  502    0  0.00000000000E+00  0.00000000000E+00  0.12688055793E+03  0.12688055793E+03  0.00000000000E+00 0.  1.
         13   -1    0    0    0    0 -0.00000000000E+00 -0.00000000000E+00 -0.10000000000E+04  0.10000000000E+04  0.00000000000E+00 0.  1.
    9000005    2    1    2  501    0  0.33008261186E+02 -0.12644578884E+02 -0.88493628176E+03  0.10896103502E+04  0.63473542667E+03 0.  0.
         13    1    3    3    0    0 -0.13615164853E+03 -0.26844211420E+03 -0.27864767437E+03  0.41017431234E+03  0.00000000000E+00 0.  1.
          3    1    3    3  501    0  0.16915990972E+03  0.25579753531E+03 -0.60628860739E+03  0.67943603789E+03  0.00000000000E+00 0.  1.
         21    1    1    2  502  501 -0.33008261186E+02  0.12644578884E+02  0.11816839685E+02  0.37270207698E+02  0.00000000000E+00 0.  1.
<mgrwt>
<rscale>  1 0.30000000E+03</rscale>
<asrwt>0</asrwt>
<pdfrwt beam="1">  1        1 0.46138482E+00 0.30000000E+03</pdfrwt>
<pdfrwt beam="2">0</pdfrwt>
<totfact> 0.43126347E-01</totfact>
</mgrwt>
</event>
<event>
 6    1  0.5260809E-006  0.3000000E+03  0.7818608E-02  0.1093470E+00
          1   -1    0    0  502    0  0.00000000000E+00  0.00000000000E+00  0.96493483574E+02  0.96493483574E+02  0.00000000000E+00 0.  1.
         13   -1    0    0    0    0 -0.00000000000E+00 -0.00000000000E+00 -0.10000000000E+04  0.10000000000E+04  0.00000000000E+00 0.  1.
    9000005    2    1    2  501    0  0.20183321203E+02 -0.94778894396E+01 -0.90125776122E+03  0.10740824652E+04  0.58385819607E+03 0.  0.
         13    1    3    3    0    0  0.17180489496E+03 -0.24769834596E+03 -0.44413038511E+03  0.53677107924E+03  0.00000000000E+00 0.  1.
          1    1    3    3  501    0 -0.15162157376E+03  0.23822045652E+03 -0.45712737611E+03  0.53731138600E+03  0.00000000000E+00 0.  1.
         21    1    1    2  502  501 -0.20183321203E+02  0.94778894396E+01 -0.22487552057E+01  0.22411018339E+02  0.00000000000E+00 0.  1.
<mgrwt>
<rscale>  1 0.30000000E+03</rscale>
<asrwt>0</asrwt>
<pdfrwt beam="1">  1        1 0.35088613E+00 0.30000000E+03</pdfrwt>
<pdfrwt beam="2">0</pdfrwt>
<totfact> 0.19485257E+00</totfact>
</mgrwt>
</event>
<event>
 6    1  0.5260809E-006  0.3000000E+03  0.7818608E-02  0.1093470E+00
          1   -1    0    0  502    0  0.00000000000E+00  0.00000000000E+00  0.11028400996E+03  0.11028400996E+03  0.00000000000E+00 0.  1.
         13   -1    0    0    0    0 -0.00000000000E+00 -0.00000000000E+00 -0.10000000000E+04  0.10000000000E+04  0.00000000000E+00 0.  1.
    9000005    2    1    2  501    0  0.87319367898E+01  0.43747268786E+01 -0.88246014603E+03  0.10981171604E+04  0.65347532756E+03 0.  0.
         13    1    3    3    0    0 -0.28885268200E+03  0.42413356434E+02 -0.66897595648E+03  0.72990656598E+03  0.00000000000E+00 0.  1.
          3    1    3    3  501    0  0.29758461879E+03 -0.38038629555E+02 -0.21348418955E+03  0.36821059445E+03  0.00000000000E+00 0.  1.
         21    1    1    2  502  501 -0.87319367898E+01 -0.43747268786E+01 -0.72558440110E+01  0.12166849538E+02  0.00000000000E+00 0. -1.
<mgrwt>
<rscale>  1 0.30000000E+03</rscale>
<asrwt>0</asrwt>
<pdfrwt beam="1">  1        1 0.40103361E+00 0.30000000E+03</pdfrwt>
<pdfrwt beam="2">0</pdfrwt>
<totfact> 0.10389531E+00</totfact>
</mgrwt>
</event>
<event>
 6    1  0.5260809E-006  0.3000000E+03  0.7818608E-02  0.1093470E+00
          1   -1    0    0  502    0  0.00000000000E+00  0.00000000000E+00  0.11937864707E+03  0.11937864707E+03  0.00000000000E+00 0.  1.
         13   -1    0    0    0    0 -0.00000000000E+00 -0.00000000000E+00 -0.10000000000E+04  0.10000000000E+04  0.00000000000E+00 0.  1.
    9000005    2    1    2  501    0 -0.18647137381E+01 -0.10085669720E+02 -0.89224656128E+03  0.11038756357E+04  0.64987098349E+03 0.  0.
         13    1    3    3    0    0 -0.22690651439E+03  0.19980475037E+03 -0.63301104633E+03  0.70150658537E+03  0.00000000000E+00 0.  1.
          1    1    3    3  501    0  0.22504180065E+03 -0.20989042009E+03 -0.25923551495E+03  0.40236905037E+03  0.00000000000E+00 0.  1.
         21    1    1    2  502  501  0.18647137381E+01  0.10085669720E+02  0.11625208356E+02  0.15503011331E+02  0.00000000000E+00 0.  1.
<mgrwt>
<rscale>  1 0.30000000E+03</rscale>
<asrwt>0</asrwt>
<pdfrwt beam="1">  1        1 0.43410509E+00 0.30000000E+03</pdfrwt>
<pdfrwt beam="2">0</pdfrwt>
<totfact> 0.65421406E-01</totfact>
</mgrwt>
</event>
<event>
 6    1  0.5260809E-006  0.3000000E+03  0.7818608E-02  0.1093470E+00
          1   -1    0    0  502    0  0.00000000000E+00  0.00000000000E+00  0.11065580143E+03  0.11065580143E+03  0.00000000000E+00 0.  1.
         13   -1    0    0    0    0 -0.00000000000E+00 -0.00000000000E+00 -0.10000000000E+04  0.10000000000E+04  0.00000000000E+00 0.  1.
    9000005    2    1    2  501    0 -0.15065824709E+02  0.81305645761E+01 -0.86741100699E+03  0.10828322494E+04  0.64794346988E+03 0.  0.
         13    1    3    3    0    0 -0.21722311044E+03  0.25114665222E+03 -0.44678307485E+03  0.55666474345E+03  0.00000000000E+00 0.  1.
          1    1    3    3  501    0  0.20215728573E+03 -0.24301608765E+03 -0.42062793214E+03  0.52616750596E+03  0.00000000000E+00 0.  1.
         21    1    1    2  502  501  0.15065824709E+02 -0.81305645761E+01 -0.21933191578E+02  0.27823552025E+02  0.00000000000E+00 0. -1.
<mgrwt>
<rscale>  1 0.30000000E+03</rscale>
<asrwt>0</asrwt>
<pdfrwt beam="1">  1        1 0.40238558E+00 0.30000000E+03</pdfrwt>
<pdfrwt beam="2">0</pdfrwt>
<totfact> 0.10205683E+00</totfact>
</mgrwt>
</event>
<event>
 6    1  0.5260809E-006  0.3000000E+03  0.7818608E-02  0.1093470E+00
          1   -1    0    0  502    0  0.00000000000E+00  0.00000000000E+00  0.16457107757E+03  0.16457107757E+03  0.00000000000E+00 0.  1.
         13   -1    0    0    0    0 -0.00000000000E+00 -0.00000000000E+00 -0.10000000000E+04  0.10000000000E+04  0.00000000000E+00 0.  1.
    9000005    2    1    2  501    0 -0.28235096141E+02  0.42978436179E+02 -0.88228720287E+03  0.10950005013E+04  0.64649131702E+03 0.  0.
         13    1    3    3    0    0 -0.13589317874E+03  0.27954134480E+03 -0.73083423842E+03  0.79418448960E+03  0.00000000000E+00 0.  1.
          1    1    3    3  501    0  0.10765808259E+03 -0.23656290862E+03 -0.15145296445E+03  0.30081601175E+03  0.00000000000E+00 0.  1.
         21    1    1    2  502  501  0.28235096141E+02 -0.42978436179E+02  0.46858280442E+02  0.69570576226E+02  0.00000000000E+00 0. -1.
<mgrwt>
<rscale>  1 0.30000000E+03</rscale>
<asrwt>0</asrwt>
<pdfrwt beam="1">  1        1 0.59844154E+00 0.30000000E+03</pdfrwt>
<pdfrwt beam="2">0</pdfrwt>
<totfact> 0.59526509E-02</totfact>
</mgrwt>
</event>
<event>
 6    1  0.5260809E-006  0.3000000E+03  0.7818608E-02  0.1093470E+00
          1   -1    0    0  502    0  0.00000000000E+00  0.00000000000E+00  0.12708934056E+03  0.12708934056E+03  0.00000000000E+00 0.  1.
         13   -1    0    0    0    0 -0.00000000000E+00 -0.00000000000E+00 -0.10000000000E+04  0.10000000000E+04  0.00000000000E+00 0.  1.
    9000005    2    1    2  501    0  0.27232688581E+02  0.12541702431E+02 -0.88140834438E+03  0.10959264736E+04  0.65059607468E+03 0.  0.
         13    1    3    3    0    0  0.67531947458E+02  0.64865207621E+02 -0.97604336537E+03  0.98052471166E+03  0.00000000000E+00 0.  1.
          1    1    3    3  501    0 -0.40299258877E+02 -0.52323505190E+02  0.94635020998E+02  0.11540176195E+03  0.00000000000E+00 0.  1.
         21    1    1    2  502  501 -0.27232688581E+02 -0.12541702431E+02  0.84976849329E+01  0.31162866948E+02  0.00000000000E+00 0.  1.
<mgrwt>
<rscale>  1 0.30000000E+03</rscale>
<asrwt>0</asrwt>
<pdfrwt beam="1">  1        1 0.46214403E+00 0.30000000E+03</pdfrwt>
<pdfrwt beam="2">0</pdfrwt>
<totfact> 0.42616358E-01</totfact>
</mgrwt>
</event>
<event>
 6    1  0.5260809E-006  0.3000000E+03  0.7818608E-02  0.1093470E+00
          1   -1    0    0  502    0  0.00000000000E+00  0.00000000000E+00  0.14247869672E+03  0.14247869672E+03  0.00000000000E+00 0.  1.
         13   -1    0    0    0    0 -0.00000000000E+00 -0.00000000000E+00 -0.10000000000E+04  0.10000000000E+04  0.00000000000E+00 0.  1.
    9000005    2    1    2  501    0  0.41399522070E+02 -0.15908623336E+02 -0.87608245717E+03  0.10944004152E+04  0.65438886927E+03 0.  0.
         13    1    3    3    0    0  0.11478327094E+02 -0.28286367341E+03 -0.15034282157E+03  0.32054106402E+03  0.00000000000E+00 0.  1.
          1    1    3    3  501    0  0.29921194976E+02  0.26695505007E+03 -0.72573963560E+03  0.77385935114E+03  0.00000000000E+00 0.  1.
         21    1    1    2  502  501 -0.41399522070E+02  0.15908623336E+02  0.18561153889E+02  0.48078281560E+02  0.00000000000E+00 0.  1.
<mgrwt>
<rscale>  1 0.30000000E+03</rscale>
<asrwt>0</asrwt>
<pdfrwt beam="1">  1        1 0.51810544E+00 0.30000000E+03</pdfrwt>
<pdfrwt beam="2">0</pdfrwt>
<totfact> 0.16795285E-01</totfact>
</mgrwt>
</event>
<event>
 6    1  0.5260809E-006  0.3000000E+03  0.7818608E-02  0.1093470E+00
          1   -1    0    0  502    0  0.00000000000E+00  0.00000000000E+00  0.11201838251E+03  0.11201838251E+03  0.00000000000E+00 0.  1.
         13   -1    0    0    0    0 -0.00000000000E+00 -0.00000000000E+00 -0.10000000000E+04  0.10000000000E+04  0.00000000000E+00 0.  1.
    9000005    2    1    2  501    0 -0.13800117591E+02  0.23459459266E+02 -0.84864735400E+03  0.10641856138E+04  0.64151999172E+03 0.  0.
         13    1    3    3    0    0  0.26297879548E+03  0.89311121497E+01 -0.70396500308E+03  0.75153465469E+03  0.00000000000E+00 0.  1.
          3    1    3    3  501    0 -0.27677891307E+03  0.14528347116E+02 -0.14468235092E+03  0.31265095915E+03  0.00000000000E+00 0.  1.
         21    1    1    2  502  501  0.13800117591E+02 -0.23459459266E+02 -0.39334263486E+02  0.47832768669E+02  0.00000000000E+00 0. -1.
<mgrwt>
<rscale>  1 0.30000000E+03</rscale>
<asrwt>0</asrwt>
<pdfrwt beam="1">  1        1 0.40734043E+00 0.30000000E+03</pdfrwt>
<pdfrwt beam="2">0</pdfrwt>
<totfact> 0.95516050E-01</totfact>
</mgrwt>
</event>
<event>
 6    1  0.5260809E-006  0.3000000E+03  0.7818608E-02  0.1093470E+00
          1   -1    0    0  502    0  0.00000000000E+00  0.00000000000E+00  0.14663878951E+03  0.14663878951E+03  0.00000000000E+00 0.  1.
         13   -1    0    0    0    0 -0.00000000000E+00 -0.00000000000E+00 -0.10000000000E+04  0.10000000000E+04  0.00000000000E+00 0.  1.
    9000005    2    1    2  501    0 -0.18109547764E+02 -0.34998993936E+01 -0.89088813919E+03  0.11048240147E+04  0.65315711883E+03 0.  0.
         13    1    3    3    0    0 -0.22896569310E+02 -0.51465855370E+02 -0.99158514284E+03  0.99318381112E+03  0.00000000000E+00 0.  1.
          1    1    3    3  501    0  0.47870215462E+01  0.47965955977E+02  0.10069700366E+03  0.11164020357E+03  0.00000000000E+00 0.  1.
         21    1    1    2  502  501  0.18109547764E+02  0.34998993936E+01  0.37526928697E+02  0.41814774822E+02  0.00000000000E+00 0. -1.
<mgrwt>
<rscale>  1 0.30000000E+03</rscale>
<asrwt>0</asrwt>
<pdfrwt beam="1">  1        1 0.53323309E+00 0.30000000E+03</pdfrwt>
<pdfrwt beam="2">0</pdfrwt>
<totfact> 0.12900804E-01</totfact>
</mgrwt>
</event>
<event>
 6    1  0.5260809E-006  0.3000000E+03  0.7818608E-02  0.1093470E+00
          1   -1    0    0  502    0  0.00000000000E+00  0.00000000000E+00  0.13405653034E+03  0.13405653034E+03  0.00000000000E+00 0.  1.
         13   -1    0    0    0    0 -0.00000000000E+00 -0.00000000000E+00 -0.10000000000E+04  0.10000000000E+04  0.00000000000E+00 0.  1.
    9000005    2    1    2  501    0 -0.16226205268E+02 -0.40843362788E+02 -0.86083586300E+03  0.10898122350E+04  0.66687394204E+03 0.  0.
         13    1    3    3    0    0 -0.24982686743E+03  0.51580255133E+02 -0.76640954147E+02  0.26636032412E+03  0.00000000000E+00 0.  1.
          3    1    3    3  501    0  0.23360066217E+03 -0.92423617920E+02 -0.78419490886E+03  0.82345191092E+03  0.00000000000E+00 0.  1.
         21    1    1    2  502  501  0.16226205268E+02  0.40843362788E+02 -0.51076066583E+01  0.44244295305E+02  0.00000000000E+00 0. -1.
<mgrwt>
<rscale>  1 0.30000000E+03</rscale>
<asrwt>0</asrwt>
<pdfrwt beam="1">  1        1 0.48747932E+00 0.30000000E+03</pdfrwt>
<pdfrwt beam="2">0</pdfrwt>
<totfact> 0.28201785E-01</totfact>
</mgrwt>
</event>
<event>
 6    1  0.5260809E-006  0.3000000E+03  0.7818608E-02  0.1093470E+00
          1   -1    0    0  502    0  0.00000000000E+00  0.00000000000E+00  0.12621554551E+03  0.12621554551E+03  0.00000000000E+00 0.  1.
         13   -1    0    0    0    0 -0.00000000000E+00 -0.00000000000E+00 -0.10000000000E+04  0.10000000000E+04  0.00000000000E+00 0.  1.
    9000005    2    1    2  501    0 -0.50776386588E+02  0.10853371714E+02 -0.82502878107E+03  0.10549894772E+04  0.65546492686E+03 0.  0.
         13    1    3    3    0    0 -0.14740876118E+03 -0.80945524817E+02  0.45578986817E+02  0.17423824178E+03  0.00000000000E+00 0.  1.
          1    1    3    3  501    0  0.96632374589E+02  0.91798896531E+02 -0.87060776788E+03  0.88075123544E+03  0.00000000000E+00 0.  1.
         21    1    1    2  502  501  0.50776386588E+02 -0.10853371714E+02 -0.48755673428E+02  0.71226068289E+02  0.00000000000E+00 0.  1.
<mgrwt>
<rscale>  1 0.30000000E+03</rscale>
<asrwt>0</asrwt>
<pdfrwt beam="1">  1        1 0.45896659E+00 0.30000000E+03</pdfrwt>
<pdfrwt beam="2">0</pdfrwt>
<totfact> 0.44783897E-01</totfact>
</mgrwt>
</event>
<event>
 6    1  0.5260809E-006  0.3000000E+03  0.7818608E-02  0.1093470E+00
          1   -1    0    0  502    0  0.00000000000E+00  0.00000000000E+00  0.12134165478E+03  0.12134165478E+03  0.00000000000E+00 0.  1.
         13   -1    0    0    0    0 -0.00000000000E+00 -0.00000000000E+00 -0.10000000000E+04  0.10000000000E+04  0.00000000000E+00 0.  1.
    9000005    2    1    2  501    0 -0.42553777242E+02 -0.33985377968E+01 -0.78769035574E+03  0.10208550929E+04  0.64797117997E+03 0.  0.
         13    1    3    3    0    0 -0.33872398223E+03 -0.69829286184E+02 -0.41937541852E+03  0.54358606219E+03  0.00000000000E+00 0.  1.
          1    1    3    3  501    0  0.29617020499E+03  0.66430748387E+02 -0.36831493722E+03  0.47726903066E+03  0.00000000000E+00 0.  1.
         21    1    1    2  502  501  0.42553777242E+02  0.33985377968E+01 -0.90967989481E+02  0.10048656192E+03  0.00000000000E+00 0. -1.
<mgrwt>
<rscale>  1 0.30000000E+03</rscale>
<asrwt>0</asrwt>
<pdfrwt beam="1">  1        1 0.44124331E+00 0.30000000E+03</pdfrwt>
<pdfrwt beam="2">0</pdfrwt>
<totfact> 0.58835159E-01</totfact>
</mgrwt>
</event>
<event>
 6    1  0.5260809E-006  0.3000000E+03  0.7818608E-02  0.1093470E+00
          1   -1    0    0  502    0  0.00000000000E+00  0.00000000000E+00  0.14131686339E+03  0.14131686339E+03  0.00000000000E+00 0.  1.
         13   -1    0    0    0    0 -0.00000000000E+00 -0.00000000000E+00 -0.10000000000E+04  0.10000000000E+04  0.00000000000E+00 0.  1.
    9000005    2    1    2  501    0 -0.23884422321E+02 -0.29682633676E+02 -0.88063492445E+03  0.10973463578E+04  0.65360510590E+03 0.  0.
         13    1    3    3    0    0  0.13787611188E+03 -0.28638278775E+03 -0.62262687309E+03  0.69906304897E+03  0.00000000000E+00 0.  1.
          1    1    3    3  501    0 -0.16176053420E+03  0.25670015408E+03 -0.25800805137E+03  0.39828330884E+03  0.00000000000E+00 0.  1.
         21    1    1    2  502  501  0.23884422321E+02  0.29682633676E+02  0.21951787848E+02  0.43970505583E+02  0.00000000000E+00 0.  1.
<mgrwt>
<rscale>  1 0.30000000E+03</rscale>
<asrwt>0</asrwt>
<pdfrwt beam="1">  1        1 0.51388059E+00 0.30000000E+03</pdfrwt>
<pdfrwt beam="2">0</pdfrwt>
<totfact> 0.18059749E-01</totfact>
</mgrwt>
</event>
<event>
 6    1  0.5260809E-006  0.3000000E+03  0.7818608E-02  0.1093470E+00
          1   -1    0    0  502    0  0.00000000000E+00  0.00000000000E+00  0.15950968676E+03  0.15950968676E+03  0.00000000000E+00 0.  1.
         13   -1    0    0    0    0 -0.00000000000E+00 -0.00000000000E+00 -0.10000000000E+04  0.10000000000E+04  0.00000000000E+00 0.  1.
    9000005    2    1    2  501    0 -0.24952297956E+02  0.63052229542E+02 -0.86146199840E+03  0.10885307293E+04  0.66195481199E+03 0.  0.
         13    1    3    3    0    0  0.30882073850E+03  0.19323530658E+02 -0.28338454311E+03  0.41958365869E+03  0.00000000000E+00 0.  1.
          1    1    3    3  501    0 -0.33377303645E+03  0.43728698884E+02 -0.57807745529E+03  0.66894707062E+03  0.00000000000E+00 0.  1.
         21    1    1    2  502  501  0.24952297956E+02 -0.63052229542E+02  0.20971685164E+02  0.70978957460E+02  0.00000000000E+00 0.  1.
<mgrwt>
<rscale>  1 0.30000000E+03</rscale>
<asrwt>0</asrwt>
<pdfrwt beam="1">  1        1 0.58003645E+00 0.30000000E+03</pdfrwt>
<pdfrwt beam="2">0</pdfrwt>
<totfact> 0.71823274E-02</totfact>
</mgrwt>
</event>
<event>
 6    1  0.5260809E-006  0.3000000E+03  0.7818608E-02  0.1093470E+00
          1   -1    0    0  502    0  0.00000000000E+00  0.00000000000E+00  0.11144215052E+03  0.11144215052E+03  0.00000000000E+00 0.  1.
         13   -1    0    0    0    0 -0.00000000000E+00 -0.00000000000E+00 -0.10000000000E+04  0.10000000000E+04  0.00000000000E+00 0.  1.
    9000005    2    1    2  501    0 -0.10784792981E+02  0.16939619231E+02 -0.84278440049E+03  0.10614574419E+04  0.64498301753E+03 0.  0.
         13    1    3    3    0    0  0.18825936618E+03  0.19818593632E+03 -0.13634732805E+03  0.30546660730E+03  0.00000000000E+00 0.  1.
          3    1    3    3  501    0 -0.19904415916E+03 -0.18124631709E+03 -0.70643707244E+03  0.75599083465E+03  0.00000000000E+00 0.  1.
         21    1    1    2  502  501  0.10784792981E+02 -0.16939619231E+02 -0.45773448985E+02  0.49984708574E+02  0.00000000000E+00 0.  1.
<mgrwt>
<rscale>  1 0.30000000E+03</rscale>
<asrwt>0</asrwt>
<pdfrwt beam="1">  1        1 0.40524504E+00 0.30000000E+03</pdfrwt>
<pdfrwt beam="2">0</pdfrwt>
<totfact> 0.98243750E-01</totfact>
</mgrwt>
</event>
<event>
 6    1  0.5260809E-006  0.3000000E+03  0.7818608E-02  0.1093470E+00
          1   -1    0    0  502    0  0.00000000000E+00  0.00000000000E+00  0.10325512557E+03  0.10325512557E+03  0.00000000000E+00 0.  1.
         13   -1    0    0    0    0 -0.00000000000E+00 -0.00000000000E+00 -0.10000000000E+04  0.10000000000E+04  0.00000000000E+00 0.  1.
    9000005    2    1    2  501    0  0.25347806885E+02 -0.12200069803E+02 -0.88717240375E+03  0.10735400585E+04  0.60383940760E+03 0.  0.
         13    1    3    3    0    0  0.38599125602E+02  0.24725166597E+03 -0.14960128090E+03  0.29155414946E+03  0.00000000000E+00 0.  1.
          3    1    3    3  501    0 -0.13251318717E+02 -0.25945173577E+03 -0.73757112286E+03  0.78198590903E+03  0.00000000000E+00 0.  1.
         21    1    1    2  502  501 -0.25347806885E+02  0.12200069803E+02 -0.95724706746E+01  0.29715067085E+02  0.00000000000E+00 0. -1.
<mgrwt>
<rscale>  1 0.30000000E+03</rscale>
<asrwt>0</asrwt>
<pdfrwt beam="1">  1        1 0.37547398E+00 0.30000000E+03</pdfrwt>
<pdfrwt beam="2">0</pdfrwt>
<totfact> 0.14420488E+00</totfact>
</mgrwt>
</event>
<event>
 6    1  0.5260809E-006  0.3000000E+03  0.7818608E-02  0.1093470E+00
          1   -1    0    0  502    0  0.00000000000E+00  0.00000000000E+00  0.11472636391E+03  0.11472636391E+03  0.00000000000E+00 0.  1.
         13   -1    0    0    0    0 -0.00000000000E+00 -0.00000000000E+00 -0.10000000000E+04  0.10000000000E+04  0.00000000000E+00 0.  1.
    9000005    2    1    2  501    0  0.14237003292E+02  0.11755284926E+02 -0.88212830382E+03  0.10959974531E+04  0.65016858870E+03 0.  0.
         13    1    3    3    0    0 -0.90325070424E+02  0.22446913764E+03 -0.72800538243E+02  0.25267554387E+03  0.00000000000E+00 0.  1.
          3    1    3    3  501    0  0.10456207372E+03 -0.21271385272E+03 -0.80932776557E+03  0.84332190919E+03  0.00000000000E+00 0.  1.
         21    1    1    2  502  501 -0.14237003292E+02 -0.11755284926E+02 -0.31453322752E+01  0.18728910848E+02  0.00000000000E+00 0.  1.
<mgrwt>
<rscale>  1 0.30000000E+03</rscale>
<asrwt>0</asrwt>
<pdfrwt beam="1">  1        1 0.41718766E+00 0.30000000E+03</pdfrwt>
<pdfrwt beam="2">0</pdfrwt>
<totfact> 0.83440771E-01</totfact>
</mgrwt>
</event>
<event>
 6    1  0.5260809E-006  0.3000000E+03  0.7818608E-02  0.1093470E+00
          1   -1    0    0  502    0  0.00000000000E+00  0.00000000000E+00  0.11275908988E+03  0.11275908988E+03  0.00000000000E+00 0.  1.
         13   -1    0    0    0    0 -0.00000000000E+00 -0.00000000000E+00 -0.10000000000E+04  0.10000000000E+04  0.00000000000E+00 0.  1.
    9000005    2    1    2  501    0 -0.12454765435E+02  0.96080303420E+01 -0.89499838090E+03  0.10952201680E+04  0.63106075704E+03 0.  0.
         13    1    3    3    0    0  0.92304498289E+02  0.21476720405E+03 -0.82044647708E+03  0.85309875987E+03  0.00000000000E+00 0.  1.
          3    1    3    3  501    0 -0.10475926372E+03 -0.20515917371E+03 -0.74551903817E+02  0.24212140809E+03  0.00000000000E+00 0.  1.
         21    1    1    2  502  501  0.12454765435E+02 -0.96080303420E+01  0.77574707747E+01  0.17538921914E+02  0.00000000000E+00 0. -1.
<mgrwt>
<rscale>  1 0.30000000E+03</rscale>
<asrwt>0</asrwt>
<pdfrwt beam="1">  1        1 0.41003392E+00 0.30000000E+03</pdfrwt>
<pdfrwt beam="2">0</pdfrwt>
<totfact> 0.92092549E-01</totfact>
</mgrwt>
</event>
<event>
 6    1  0.5260809E-006  0.3000000E+03  0.7818608E-02  0.1093470E+00
          1   -1    0    0  502    0  0.00000000000E+00  0.00000000000E+00  0.10963216004E+03  0.10963216004E+03  0.00000000000E+00 0.  1.
         13   -1    0    0    0    0 -0.00000000000E+00 -0.00000000000E+00 -0.10000000000E+04  0.10000000000E+04  0.00000000000E+00 0.  1.
    9000005    2    1    2  501    0  0.90961519205E+01 -0.46235198040E+01 -0.88669428948E+03  0.10987872585E+04  0.64884710036E+03 0.  0.
         13    1    3    3    0    0  0.23206123570E+03  0.99791531468E+02 -0.79811079554E+03  0.83713296962E+03  0.00000000000E+00 0.  1.
          1    1    3    3  501    0 -0.22296508378E+03 -0.10441505127E+03 -0.88583493938E+02  0.26165428893E+03  0.00000000000E+00 0.  1.
         21    1    1    2  502  501 -0.90961519205E+01  0.46235198040E+01 -0.36735504865E+01  0.10844901489E+02  0.00000000000E+00 0. -1.
<mgrwt>
<rscale>  1 0.30000000E+03</rscale>
<asrwt>0</asrwt>
<pdfrwt beam="1">  1        1 0.39866324E+00 0.30000000E+03</pdfrwt>
<pdfrwt beam="2">0</pdfrwt>
<totfact> 0.10717789E+00</totfact>
</mgrwt>
</event>
<event>
 6    1  0.5260809E-006  0.3000000E+03  0.7818608E-02  0.1093470E+00
          1   -1    0    0  502    0  0.00000000000E+00  0.00000000000E+00  0.12912552061E+03  0.12912552061E+03  0.00000000000E+00 0.  1.
         13   -1    0    0    0    0 -0.00000000000E+00 -0.00000000000E+00 -0.10000000000E+04  0.10000000000E+04  0.00000000000E+00 0.  1.
    9000005    2    1    2  501    0  0.34143847299E+02  0.20732437793E+02 -0.87255064609E+03  0.10891449526E+04  0.65061237419E+03 0.  0.
         13    1    3    3    0    0  0.62450745525E+02 -0.28697607905E+03 -0.21942902780E+03  0.36661214356E+03  0.00000000000E+00 0.  1.
          3    1    3    3  501    0 -0.28306898226E+02  0.30770851685E+03 -0.65312161830E+03  0.72253280902E+03  0.00000000000E+00 0.  1.
         21    1    1    2  502  501 -0.34143847299E+02 -0.20732437793E+02  0.16761667020E+01  0.39980568030E+02  0.00000000000E+00 0. -1.
<mgrwt>
<rscale>  1 0.30000000E+03</rscale>
<asrwt>0</asrwt>
<pdfrwt beam="1">  1        1 0.46954834E+00 0.30000000E+03</pdfrwt>
<pdfrwt beam="2">0</pdfrwt>
<totfact> 0.37879679E-01</totfact>
</mgrwt>
</event>
<event>
 6    1  0.5260809E-006  0.3000000E+03  0.7818608E-02  0.1093470E+00
          1   -1    0    0  502    0  0.00000000000E+00  0.00000000000E+00  0.16303294291E+03  0.16303294291E+03  0.00000000000E+00 0.  1.
         13   -1    0    0    0    0 -0.00000000000E+00 -0.00000000000E+00 -0.10000000000E+04  0.10000000000E+04  0.00000000000E+00 0.  1.
    9000005    2    1    2  501    0  0.36939485557E+01 -0.13569954828E+02 -0.89290814390E+03  0.11053511076E+04  0.65139721271E+03 0.  0.
         13    1    3    3    0    0 -0.50556540742E+02 -0.27693329977E+03 -0.74946315469E+03  0.80058918090E+03  0.00000000000E+00 0.  1.
          3    1    3    3  501    0  0.54250489297E+02  0.26336334494E+03 -0.14344498921E+03  0.30476192672E+03  0.00000000000E+00 0.  1.
         21    1    1    2  502  501 -0.36939485557E+01  0.13569954828E+02  0.55941086813E+02  0.57681835302E+02  0.00000000000E+00 0. -1.
<mgrwt>
<rscale>  1 0.30000000E+03</rscale>
<asrwt>0</asrwt>
<pdfrwt beam="1">  1        1 0.59284832E+00 0.30000000E+03</pdfrwt>
<pdfrwt beam="2">0</pdfrwt>
<totfact> 0.63400237E-02</totfact>
</mgrwt>
</event>
<event>
 6    1  0.5260809E-006  0.3000000E+03  0.7818608E-02  0.1093470E+00
          1   -1    0    0  502    0  0.00000000000E+00  0.00000000000E+00  0.11758961061E+03  0.11758961061E+03  0.00000000000E+00 0.  1.
         13   -1    0    0    0    0 -0.00000000000E+00 -0.00000000000E+00 -0.10000000000E+04  0.10000000000E+04  0.00000000000E+00 0.  1.
    9000005    2    1    2  501    0  0.11765461240E+02 -0.79684100703E+01 -0.88511488977E+03  0.11031246198E+04  0.65822005215E+03 0.  0.
         13    1    3    3    0    0 -0.16372052876E+03  0.19668225486E+03 -0.10301048425E+03  0.27586134339E+03  0.00000000000E+00 0.  1.
          1    1    3    3  501    0  0.17548599000E+03 -0.20465066493E+03 -0.78210440552E+03  0.82726327640E+03  0.00000000000E+00 0.  1.
         21    1    1    2  502  501 -0.11765461240E+02  0.79684100703E+01  0.27045003773E+01  0.14464990823E+02  0.00000000000E+00 0. -1.
<mgrwt>
<rscale>  1 0.30000000E+03</rscale>
<asrwt>0</asrwt>
<pdfrwt beam="1">  1        1 0.42759949E+00 0.30000000E+03</pdfrwt>
<pdfrwt beam="2">0</pdfrwt>
<totfact> 0.71925506E-01</totfact>
</mgrwt>
</event>
<event>
 6    1  0.5260809E-006  0.3000000E+03  0.7818608E-02  0.1093470E+00
          1   -1    0    0  502    0  0.00000000000E+00  0.00000000000E+00  0.11173533374E+03  0.11173533374E+03  0.00000000000E+00 0.  1.
         13   -1    0    0    0    0 -0.00000000000E+00 -0.00000000000E+00 -0.10000000000E+04  0.10000000000E+04  0.00000000000E+00 0.  1.
    9000005    2    1    2  501    0 -0.11012415516E+02 -0.22942519642E+01 -0.90079958215E+03  0.10948930951E+04  0.62227362591E+03 0.  0.
         13    1    3    3    0    0  0.28027386702E+03  0.12019865065E+03 -0.47939228030E+03  0.56817084980E+03  0.00000000000E+00 0.  1.
          1    1    3    3  501    0 -0.29128628254E+03 -0.12249290261E+03 -0.42140730185E+03  0.52672224525E+03  0.00000000000E+00 0.  1.
         21    1    1    2  502  501  0.11012415516E+02  0.22942519642E+01  0.12534915898E+02  0.16842238691E+02  0.00000000000E+00 0.  1.
<mgrwt>
<rscale>  1 0.30000000E+03</rscale>
<asrwt>0</asrwt>
<pdfrwt beam="1">  1        1 0.40631116E+00 0.30000000E+03</pdfrwt>
<pdfrwt beam="2">0</pdfrwt>
<totfact> 0.96848821E-01</totfact>
</mgrwt>
</event>
<event>
 6    1  0.5260809E-006  0.3000000E+03  0.7818608E-02  0.1093470E+00
          1   -1    0    0  502    0  0.00000000000E+00  0.00000000000E+00  0.16067367190E+03  0.16067367190E+03  0.00000000000E+00 0.  1.
         13   -1    0    0    0    0 -0.00000000000E+00 -0.00000000000E+00 -0.10000000000E+04  0.10000000000E+04  0.00000000000E+00 0.  1.
    9000005    2    1    2  501    0  0.14414854627E+03 -0.71009655321E+02 -0.67564302832E+03  0.93129756772E+03  0.62048407183E+03 0.  0.
         13    1    3    3    0    0 -0.24190959852E+03  0.16429623700E+02 -0.21624740130E+03  0.32488940419E+03  0.00000000000E+00 0.  1.
          3    1    3    3  501    0  0.38605814478E+03 -0.87439279022E+02 -0.45939562702E+03  0.60640816353E+03  0.00000000000E+00 0.  1.
         21    1    1    2  502  501 -0.14414854627E+03  0.71009655321E+02 -0.16368329978E+03  0.22937610417E+03  0.00000000000E+00 0.  1.
<mgrwt>
<rscale>  1 0.30000000E+03</rscale>
<asrwt>0</asrwt>
<pdfrwt beam="1">  1        1 0.58426913E+00 0.30000000E+03</pdfrwt>
<pdfrwt beam="2">0</pdfrwt>
<totfact> 0.69273044E-02</totfact>
</mgrwt>
</event>
<event>
 6    1  0.5260809E-006  0.3000000E+03  0.7818608E-02  0.1093470E+00
          1   -1    0    0  502    0  0.00000000000E+00  0.00000000000E+00  0.66910509536E+02  0.66910509536E+02  0.00000000000E+00 0.  1.
         13   -1    0    0    0    0 -0.00000000000E+00 -0.00000000000E+00 -0.10000000000E+04  0.10000000000E+04  0.00000000000E+00 0.  1.
    9000005    2    1    2  501    0  0.10692178881E+02  0.25736558740E+01 -0.92331392264E+03  0.10521962946E+04  0.50446753743E+03 0.  0.
         13    1    3    3    0    0 -0.20339145748E+03  0.72634168909E+02 -0.19903773676E+03  0.29370023514E+03  0.00000000000E+00 0.  1.
          1    1    3    3  501    0  0.21408363636E+03 -0.70060513035E+02 -0.72427618587E+03  0.75849605949E+03  0.00000000000E+00 0.  1.
         21    1    1    2  502  501 -0.10692178881E+02 -0.25736558740E+01 -0.97755678287E+01  0.14714214901E+02  0.00000000000E+00 0. -1.
<mgrwt>
<rscale>  1 0.30000000E+03</rscale>
<asrwt>0</asrwt>
<pdfrwt beam="1">  1        1 0.24331146E+00 0.30000000E+03</pdfrwt>
<pdfrwt beam="2">0</pdfrwt>
<totfact> 0.64106694E+00</totfact>
</mgrwt>
</event>
<event>
 6    1  0.5260809E-006  0.3000000E+03  0.7818608E-02  0.1093470E+00
          1   -1    0    0  502    0  0.00000000000E+00  0.00000000000E+00  0.12468758562E+03  0.12468758562E+03  0.00000000000E+00 0.  1.
         13   -1    0    0    0    0 -0.00000000000E+00 -0.00000000000E+00 -0.10000000000E+04  0.10000000000E+04  0.00000000000E+00 0.  1.
    9000005    2    1    2  501    0  0.22093658669E+02 -0.26979278611E+01 -0.87907826421E+03  0.11021134811E+04  0.66436444979E+03 0.  0.
         13    1    3    3    0    0  0.42032990451E+02 -0.32612773853E+03 -0.33898278770E+03  0.47226624321E+03  0.00000000000E+00 0.  1.
          1    1    3    3  501    0 -0.19939331782E+02  0.32342981067E+03 -0.54009547651E+03  0.62984723793E+03  0.00000000000E+00 0.  1.
         21    1    1    2  502  501 -0.22093658669E+02  0.26979278611E+01  0.37658498291E+01  0.22574104480E+02  0.00000000000E+00 0. -1.
<mgrwt>
<rscale>  1 0.30000000E+03</rscale>
<asrwt>0</asrwt>
<pdfrwt beam="1">  1        1 0.45341036E+00 0.30000000E+03</pdfrwt>
<pdfrwt beam="2">0</pdfrwt>
<totfact> 0.48810283E-01</totfact>
</mgrwt>
</event>
<event>
 6    1  0.5260809E-006  0.3000000E+03  0.7818608E-02  0.1093470E+00
          1   -1    0    0  502    0  0.00000000000E+00  0.00000000000E+00  0.11097256316E+03  0.11097256316E+03  0.00000000000E+00 0.  1.
         13   -1    0    0    0    0 -0.00000000000E+00 -0.00000000000E+00 -0.10000000000E+04  0.10000000000E+04  0.00000000000E+00 0.  1.
    9000005    2    1    2  501    0  0.29281372786E+01 -0.20305043813E+02 -0.86485374655E+03  0.10792671047E+04  0.64530970212E+03 0.  0.
         13    1    3    3    0    0 -0.24630595677E+03  0.18761191125E+03 -0.52371126077E+03  0.60838995574E+03  0.00000000000E+00 0.  1.
          1    1    3    3  501    0  0.24923409405E+03 -0.20791695506E+03 -0.34114248578E+03  0.47087714900E+03  0.00000000000E+00 0.  1.
         21    1    1    2  502  501 -0.29281372786E+01  0.20305043813E+02 -0.24173690289E+02  0.31705458431E+02  0.00000000000E+00 0. -1.
<mgrwt>
<rscale>  1 0.30000000E+03</rscale>
<asrwt>0</asrwt>
<pdfrwt beam="1">  1        1 0.40353744E+00 0.30000000E+03</pdfrwt>
<pdfrwt beam="2">0</pdfrwt>
<totfact> 0.10050866E+00</totfact>
</mgrwt>
</event>
<event>
 6    1  0.5260809E-006  0.3000000E+03  0.7818608E-02  0.1093470E+00
          1   -1    0    0  502    0  0.00000000000E+00  0.00000000000E+00  0.11144182678E+03  0.11144182678E+03  0.00000000000E+00 0.  1.
         13   -1    0    0    0    0 -0.00000000000E+00 -0.00000000000E+00 -0.10000000000E+04  0.10000000000E+04  0.00000000000E+00 0.  1.
    9000005    2    1    2  501    0  0.68332111748E+01  0.14840275210E+02 -0.89287086707E+03  0.10945443160E+04  0.63288383438E+03 0.  0.
         13    1    3    3    0    0 -0.21252692313E+03  0.11407722414E+03 -0.80152937363E+03  0.83703682291E+03  0.00000000000E+00 0.  1.
          3    1    3    3  501    0  0.21936013431E+03 -0.99236948930E+02 -0.91341493444E+02  0.25750749306E+03  0.00000000000E+00 0.  1.
         21    1    1    2  502  501 -0.68332111748E+01 -0.14840275210E+02  0.43126938572E+01  0.16897510810E+02  0.00000000000E+00 0. -1.
<mgrwt>
<rscale>  1 0.30000000E+03</rscale>
<asrwt>0</asrwt>
<pdfrwt beam="1">  1        1 0.40524386E+00 0.30000000E+03</pdfrwt>
<pdfrwt beam="2">0</pdfrwt>
<totfact> 0.98245298E-01</totfact>
</mgrwt>
</event>
<event>
 6    1  0.5260809E-006  0.3000000E+03  0.7818608E-02  0.1093470E+00
          1   -1    0    0  502    0  0.00000000000E+00  0.00000000000E+00  0.12453851429E+03  0.12453851429E+03  0.00000000000E+00 0.  1.
         13   -1    0    0    0    0 -0.00000000000E+00 -0.00000000000E+00 -0.10000000000E+04  0.10000000000E+04  0.00000000000E+00 0.  1.
    9000005    2    1    2  501    0  0.87203321448E+01  0.25889545518E+02 -0.86860849522E+03  0.10963733543E+04  0.66843660973E+03 0.  0.
         13    1    3    3    0    0 -0.13613010493E+03 -0.12519854995E+03 -0.86756943860E+03  0.88706415392E+03  0.00000000000E+00 0.  1.
          3    1    3    3  501    0  0.14485043708E+03  0.15108809547E+03 -0.10390566248E+01  0.20930920035E+03  0.00000000000E+00 0.  1.
         21    1    1    2  502  501 -0.87203321448E+01 -0.25889545518E+02 -0.68529904912E+01  0.28165160013E+02  0.00000000000E+00 0. -1.
<mgrwt>
<rscale>  1 0.30000000E+03</rscale>
<asrwt>0</asrwt>
<pdfrwt beam="1">  1        1 0.45286828E+00 0.30000000E+03</pdfrwt>
<pdfrwt beam="2">0</pdfrwt>
<totfact> 0.49221410E-01</totfact>
</mgrwt>
</event>
<event>
 6    1  0.5260809E-006  0.3000000E+03  0.7818608E-02  0.1093470E+00
          1   -1    0    0  502    0  0.00000000000E+00  0.00000000000E+00  0.12425028576E+03  0.12425028576E+03  0.00000000000E+00 0.  1.
         13   -1    0    0    0    0 -0.00000000000E+00 -0.00000000000E+00 -0.10000000000E+04  0.10000000000E+04  0.00000000000E+00 0.  1.
    9000005    2    1    2  501    0  0.10254693691E+02  0.43463861687E+01 -0.88479665376E+03  0.11099011767E+04  0.66999362220E+03 0.  0.
         13    1    3    3    0    0 -0.17423606295E+03 -0.12102381551E+03 -0.85964005963E+03  0.88542984006E+03  0.00000000000E+00 0.  1.
          3    1    3    3  501    0  0.18449075665E+03  0.12537020168E+03 -0.25156594131E+02  0.22447133667E+03  0.00000000000E+00 0.  1.
         21    1    1    2  502  501 -0.10254693691E+02 -0.43463861687E+01  0.90469395184E+01  0.14349109034E+02  0.00000000000E+00 0.  1.
<mgrwt>
<rscale>  1 0.30000000E+03</rscale>
<asrwt>0</asrwt>
<pdfrwt beam="1">  1        1 0.45182017E+00 0.30000000E+03</pdfrwt>
<pdfrwt beam="2">0</pdfrwt>
<totfact> 0.50026370E-01</totfact>
</mgrwt>
</event>
<event>
 6    1  0.5260809E-006  0.3000000E+03  0.7818608E-02  0.1093470E+00
          1   -1    0    0  502    0  0.00000000000E+00  0.00000000000E+00  0.12946157689E+03  0.12946157689E+03  0.00000000000E+00 0.  1.
         13   -1    0    0    0    0 -0.00000000000E+00 -0.00000000000E+00 -0.10000000000E+04  0.10000000000E+04  0.00000000000E+00 0.  1.
    9000005    2    1    2  501    0  0.96277214172E+01  0.19591323892E+02 -0.88754640526E+03  0.11017887663E+04  0.65247478952E+03 0.  0.
         13    1    3    3    0    0  0.84313966599E+02  0.31131750918E+03 -0.62041987240E+03  0.69924834970E+03  0.00000000000E+00 0.  1.
          1    1    3    3  501    0 -0.74686245182E+02 -0.29172618529E+03 -0.26712653286E+03  0.40254041656E+03  0.00000000000E+00 0.  1.
         21    1    1    2  502  501 -0.96277214172E+01 -0.19591323892E+02  0.17007982156E+02  0.27672810637E+02  0.00000000000E+00 0.  1.
<mgrwt>
<rscale>  1 0.30000000E+03</rscale>
<asrwt>0</asrwt>
<pdfrwt beam="1">  1        1 0.47077036E+00 0.30000000E+03</pdfrwt>
<pdfrwt beam="2">0</pdfrwt>
<totfact> 0.37140099E-01</totfact>
</mgrwt>
</event>
<event>
 6    1  0.5260809E-006  0.3000000E+03  0.7818608E-02  0.1093470E+00
          1   -1    0    0  502    0  0.00000000000E+00  0.00000000000E+00  0.11659472791E+03  0.11659472791E+03  0.00000000000E+00 0.  1.
         13   -1    0    0    0    0 -0.00000000000E+00 -0.00000000000E+00 -0.10000000000E+04  0.10000000000E+04  0.00000000000E+00 0.  1.
    9000005    2    1    2  501    0  0.18774820175E+02  0.43310375398E+01 -0.87523124425E+03  0.10956646899E+04  0.65884757728E+03 0.  0.
         13    1    3    3    0    0  0.19159541583E+03  0.43905225747E+02  0.61210778833E+01  0.19665690888E+03  0.00000000000E+00 0.  1.
          1    1    3    3  501    0 -0.17282059566E+03 -0.39574188208E+02 -0.88135232214E+03  0.89900778105E+03  0.00000000000E+00 0.  1.
         21    1    1    2  502  501 -0.18774820175E+02 -0.43310375398E+01 -0.81740278330E+01  0.20930037979E+02  0.00000000000E+00 0.  1.
<mgrwt>
<rscale>  1 0.30000000E+03</rscale>
<asrwt>0</asrwt>
<pdfrwt beam="1">  1        1 0.42398172E+00 0.30000000E+03</pdfrwt>
<pdfrwt beam="2">0</pdfrwt>
<totfact> 0.75775533E-01</totfact>
</mgrwt>
</event>
<event>
 6    1  0.5260809E-006  0.3000000E+03  0.7818608E-02  0.1093470E+00
          1   -1    0    0  502    0  0.00000000000E+00  0.00000000000E+00  0.11417057560E+03  0.11417057560E+03  0.00000000000E+00 0.  1.
         13   -1    0    0    0    0 -0.00000000000E+00 -0.00000000000E+00 -0.10000000000E+04  0.10000000000E+04  0.00000000000E+00 0.  1.
    9000005    2    1    2  501    0 -0.18963404190E+02  0.10635198262E+02 -0.86985137421E+03  0.10871887997E+04  0.65181696430E+03 0.  0.
         13    1    3    3    0    0 -0.24994728778E+03  0.19114567862E+03 -0.25132480463E+03  0.40270892037E+03  0.00000000000E+00 0.  1.
          3    1    3    3  501    0  0.23098388359E+03 -0.18051048036E+03 -0.61852656957E+03  0.68447987937E+03  0.00000000000E+00 0.  1.
         21    1    1    2  502  501  0.18963404190E+02 -0.10635198262E+02 -0.15978050190E+02  0.26981775858E+02  0.00000000000E+00 0.  1.
<mgrwt>
<rscale>  1 0.30000000E+03</rscale>
<asrwt>0</asrwt>
<pdfrwt beam="1">  1        1 0.41516660E+00 0.30000000E+03</pdfrwt>
<pdfrwt beam="2">0</pdfrwt>
<totfact> 0.85821572E-01</totfact>
</mgrwt>
</event>
<event>
 6    1  0.5260809E-006  0.3000000E+03  0.7818608E-02  0.1093470E+00
          1   -1    0    0  502    0  0.00000000000E+00  0.00000000000E+00  0.99316360673E+02  0.99316360673E+02  0.00000000000E+00 0.  1.
         13   -1    0    0    0    0 -0.00000000000E+00 -0.00000000000E+00 -0.10000000000E+04  0.10000000000E+04  0.00000000000E+00 0.  1.
    9000005    2    1    2  501    0 -0.24228833742E+02 -0.33810073557E+02 -0.88668982604E+03  0.10554303234E+04  0.57095022766E+03 0.  0.
         13    1    3    3    0    0 -0.27347217049E+03 -0.12346749286E+03 -0.55539140777E+03  0.63126132912E+03  0.00000000000E+00 0.  1.
          1    1    3    3  501    0  0.24924333674E+03  0.89657419299E+02 -0.33129841827E+03  0.42416899426E+03  0.00000000000E+00 0.  1.
         21    1    1    2  502  501  0.24228833742E+02  0.33810073557E+02 -0.13993813290E+02  0.43886037288E+02  0.00000000000E+00 0.  1.
<mgrwt>
<rscale>  1 0.30000000E+03</rscale>
<asrwt>0</asrwt>
<pdfrwt beam="1">  1        1 0.36115116E+00 0.30000000E+03</pdfrwt>
<pdfrwt beam="2">0</pdfrwt>
<totfact> 0.17218110E+00</totfact>
</mgrwt>
</event>
<event>
 6    1  0.5260809E-006  0.3000000E+03  0.7818608E-02  0.1093470E+00
          1   -1    0    0  502    0  0.00000000000E+00  0.00000000000E+00  0.12035033282E+03  0.12035033282E+03  0.00000000000E+00 0.  1.
         13   -1    0    0    0    0 -0.00000000000E+00 -0.00000000000E+00 -0.10000000000E+04  0.10000000000E+04  0.00000000000E+00 0.  1.
    9000005    2    1    2  501    0 -0.16751570508E+02  0.12904843912E+02 -0.88846781094E+03  0.10974394234E+04  0.64385641789E+03 0.  0.
         13    1    3    3    0    0  0.29694266355E+03 -0.74824663980E+02 -0.32459695801E+03  0.44624753324E+03  0.00000000000E+00 0.  1.
          1    1    3    3  501    0 -0.31369423405E+03  0.87729507891E+02 -0.56387085293E+03  0.65119189016E+03  0.00000000000E+00 0.  1.
         21    1    1    2  502  501  0.16751570508E+02 -0.12904843912E+02  0.88181437642E+01  0.22910909417E+02  0.00000000000E+00 0.  1.
<mgrwt>
<rscale>  1 0.30000000E+03</rscale>
<asrwt>0</asrwt>
<pdfrwt beam="1">  1        1 0.43763850E+00 0.30000000E+03</pdfrwt>
<pdfrwt beam="2">0</pdfrwt>
<totfact> 0.62093939E-01</totfact>
</mgrwt>
</event>
<event>
 6    1  0.5260809E-006  0.3000000E+03  0.7818608E-02  0.1093470E+00
          1   -1    0    0  502    0  0.00000000000E+00  0.00000000000E+00  0.12129624893E+03  0.12129624893E+03  0.00000000000E+00 0.  1.
         13   -1    0    0    0    0 -0.00000000000E+00 -0.00000000000E+00 -0.10000000000E+04  0.10000000000E+04  0.00000000000E+00 0.  1.
    9000005    2    1    2  501    0 -0.77183965915E+01  0.16810975700E+02 -0.88275039851E+03  0.11023606236E+04  0.66000643626E+03 0.  0.
         13    1    3    3    0    0 -0.47423221941E+02  0.16931742013E+03  0.28024378883E+02  0.17805256682E+03  0.00000000000E+00 0.  1.
          1    1    3    3  501    0  0.39704825350E+02 -0.15250644443E+03 -0.91077477740E+03  0.92430805681E+03  0.00000000000E+00 0.  1.
         21    1    1    2  502  501  0.77183965915E+01 -0.16810975700E+02  0.40466474386E+01  0.18935625298E+02  0.00000000000E+00 0.  1.
<mgrwt>
<rscale>  1 0.30000000E+03</rscale>
<asrwt>0</asrwt>
<pdfrwt beam="1">  1        1 0.44107820E+00 0.30000000E+03</pdfrwt>
<pdfrwt beam="2">0</pdfrwt>
<totfact> 0.58981636E-01</totfact>
</mgrwt>
</event>
<event>
 6    1  0.5260809E-006  0.3000000E+03  0.7818608E-02  0.1093470E+00
          1   -1    0    0  502    0  0.00000000000E+00  0.00000000000E+00  0.10441527578E+03  0.10441527578E+03  0.00000000000E+00 0.  1.
         13   -1    0    0    0    0 -0.00000000000E+00 -0.00000000000E+00 -0.10000000000E+04  0.10000000000E+04  0.00000000000E+00 0.  1.
    9000005    2    1    2  501    0  0.10368373406E+02 -0.64147987229E+01 -0.89149959374E+03  0.10915567727E+04  0.62974281229E+03 0.  0.
         13    1    3    3    0    0  0.15801016973E+03  0.58324486173E+02 -0.91345777513E+03  0.92885632171E+03  0.00000000000E+00 0.  1.
          1    1    3    3  501    0 -0.14764179632E+03 -0.64739284895E+02  0.21958181398E+02  0.16270045101E+03  0.00000000000E+00 0.  1.
         21    1    1    2  502  501 -0.10368373406E+02  0.64147987229E+01 -0.40851304885E+01  0.12858503056E+02  0.00000000000E+00 0. -1.
<mgrwt>
<rscale>  1 0.30000000E+03</rscale>
<asrwt>0</asrwt>
<pdfrwt beam="1">  1        1 0.37969271E+00 0.30000000E+03</pdfrwt>
<pdfrwt beam="2">0</pdfrwt>
<totfact> 0.13676692E+00</totfact>
</mgrwt>
</event>
<event>
 6    1  0.5260809E-006  0.3000000E+03  0.7818608E-02  0.1093470E+00
          1   -1    0    0  502    0  0.00000000000E+00  0.00000000000E+00  0.78221914918E+02  0.78221914918E+02  0.00000000000E+00 0.  1.
         13   -1    0    0    0    0 -0.00000000000E+00 -0.00000000000E+00 -0.10000000000E+04  0.10000000000E+04  0.00000000000E+00 0.  1.
    9000005    2    1    2  501    0 -0.12576533724E+02  0.21274643292E+01 -0.91319034131E+03  0.10628451582E+04  0.54365479441E+03 0.  0.
         13    1    3    3    0    0 -0.87645183490E+02  0.82516707259E+02  0.21005875173E+02  0.12219628455E+03  0.00000000000E+00 0.  1.
          3    1    3    3  501    0  0.75068649766E+02 -0.80389242930E+02 -0.93419621648E+03  0.94064887362E+03  0.00000000000E+00 0.  1.
         21    1    1    2  502  501  0.12576533724E+02 -0.21274643292E+01 -0.85877437747E+01  0.15376756749E+02  0.00000000000E+00 0.  1.
<mgrwt>
<rscale>  1 0.30000000E+03</rscale>
<asrwt>0</asrwt>
<pdfrwt beam="1">  1        1 0.28444393E+00 0.30000000E+03</pdfrwt>
<pdfrwt beam="2">0</pdfrwt>
<totfact> 0.41156919E+00</totfact>
</mgrwt>
</event>
<event>
 6    1  0.5260809E-006  0.3000000E+03  0.7818608E-02  0.1093470E+00
          1   -1    0    0  502    0  0.00000000000E+00  0.00000000000E+00  0.11751028083E+03  0.11751028083E+03  0.00000000000E+00 0.  1.
         13   -1    0    0    0    0 -0.00000000000E+00 -0.00000000000E+00 -0.10000000000E+04  0.10000000000E+04  0.00000000000E+00 0.  1.
    9000005    2    1    2  501    0  0.15549042927E+02  0.39035050641E+02 -0.92336786807E+03  0.10588883483E+04  0.51659539923E+03 0.  0.
         13    1    3    3    0    0 -0.15457148645E+03  0.20706233132E+03 -0.62653871681E+03  0.67772997362E+03  0.00000000000E+00 0.  1.
          3    1    3    3  501    0  0.17012052938E+03 -0.16802728068E+03 -0.29682915125E+03  0.38115837470E+03  0.00000000000E+00 0.  1.
         21    1    1    2  502  501 -0.15549042927E+02 -0.39035050641E+02  0.40878148892E+02  0.58621932511E+02  0.00000000000E+00 0.  1.
<mgrwt>
<rscale>  1 0.30000000E+03</rscale>
<asrwt>0</asrwt>
<pdfrwt beam="1">  1        1 0.42731101E+00 0.30000000E+03</pdfrwt>
<pdfrwt beam="2">0</pdfrwt>
<totfact> 0.72226192E-01</totfact>
</mgrwt>
</event>
<event>
 6    1  0.5260809E-006  0.3000000E+03  0.7818608E-02  0.1093470E+00
          1   -1    0    0  502    0  0.00000000000E+00  0.00000000000E+00  0.11422219485E+03  0.11422219485E+03  0.00000000000E+00 0.  1.
         13   -1    0    0    0    0 -0.00000000000E+00 -0.00000000000E+00 -0.10000000000E+04  0.10000000000E+04  0.00000000000E+00 0.  1.
    9000005    2    1    2  501    0  0.18918513125E+02  0.76330337190E+01 -0.88152566499E+03  0.10933834320E+04  0.64651655658E+03 0.  0.
         13    1    3    3    0    0 -0.26626930155E+02 -0.28449303949E+03 -0.19509196414E+03  0.34598577629E+03  0.00000000000E+00 0.  1.
          1    1    3    3  501    0  0.45545443281E+02  0.29212607320E+03 -0.68643370085E+03  0.74739765568E+03  0.00000000000E+00 0.  1.
         21    1    1    2  502  501 -0.18918513125E+02 -0.76330337190E+01 -0.42521401594E+01  0.20838762885E+02  0.00000000000E+00 0.  1.
<mgrwt>
<rscale>  1 0.30000000E+03</rscale>
<asrwt>0</asrwt>
<pdfrwt beam="1">  1        1 0.41535431E+00 0.30000000E+03</pdfrwt>
<pdfrwt beam="2">0</pdfrwt>
<totfact> 0.85598424E-01</totfact>
</mgrwt>
</event>
<event>
 6    1  0.5260809E-006  0.3000000E+03  0.7818608E-02  0.1093470E+00
          1   -1    0    0  502    0  0.00000000000E+00  0.00000000000E+00  0.11466266873E+03  0.11466266873E+03  0.00000000000E+00 0.  1.
         13   -1    0    0    0    0 -0.00000000000E+00 -0.00000000000E+00 -0.10000000000E+04  0.10000000000E+04  0.00000000000E+00 0.  1.
    9000005    2    1    2  501    0 -0.23198188094E+02 -0.93953983045E+01 -0.91527577803E+03  0.10756403670E+04  0.56448739559E+03 0.  0.
         13    1    3    3    0    0 -0.22151017922E+03 -0.18214196401E+03 -0.60042422474E+03  0.66539590035E+03  0.00000000000E+00 0.  1.
          1    1    3    3  501    0  0.19831199113E+03  0.17274656570E+03 -0.31485155329E+03  0.41024446662E+03  0.00000000000E+00 0.  1.
         21    1    1    2  502  501  0.23198188094E+02  0.93953983045E+01  0.29938446757E+02  0.39022301756E+02  0.00000000000E+00 0. -1.
<mgrwt>
<rscale>  1 0.30000000E+03</rscale>
<asrwt>0</asrwt>
<pdfrwt beam="1">  1        1 0.41695604E+00 0.30000000E+03</pdfrwt>
<pdfrwt beam="2">0</pdfrwt>
<totfact> 0.83711324E-01</totfact>
</mgrwt>
</event>
<event>
 6    1  0.5260809E-006  0.3000000E+03  0.7818608E-02  0.1093470E+00
          1   -1    0    0  502    0  0.00000000000E+00  0.00000000000E+00  0.11837472419E+03  0.11837472419E+03  0.00000000000E+00 0.  1.
         13   -1    0    0    0    0 -0.00000000000E+00 -0.00000000000E+00 -0.10000000000E+04  0.10000000000E+04  0.00000000000E+00 0.  1.
    9000005    2    1    2  501    0 -0.79992473619E+01 -0.19212353829E+02 -0.87938737241E+03  0.10974436299E+04  0.65622196509E+03 0.  0.
         13    1    3    3    0    0 -0.12270978881E+03 -0.31400478722E+03 -0.50677288147E+03  0.60866694674E+03  0.00000000000E+00 0.  1.
          3    1    3    3  501    0  0.11471054144E+03  0.29479243339E+03 -0.37261449094E+03  0.48877668312E+03  0.00000000000E+00 0.  1.
         21    1    1    2  502  501  0.79992473619E+01  0.19212353829E+02 -0.22379034041E+01  0.20931094325E+02  0.00000000000E+00 0. -1.
<mgrwt>
<rscale>  1 0.30000000E+03</rscale>
<asrwt>0</asrwt>
<pdfrwt beam="1">  1        1 0.43045445E+00 0.30000000E+03</pdfrwt>
<pdfrwt beam="2">0</pdfrwt>
<totfact> 0.69008030E-01</totfact>
</mgrwt>
</event>
<event>
 6    1  0.5260809E-006  0.3000000E+03  0.7818608E-02  0.1093470E+00
          1   -1    0    0  502    0  0.00000000000E+00  0.00000000000E+00  0.11270277534E+03  0.11270277534E+03  0.00000000000E+00 0.  1.
         13   -1    0    0    0    0 -0.00000000000E+00 -0.00000000000E+00 -0.10000000000E+04  0.10000000000E+04  0.00000000000E+00 0.  1.
    9000005    2    1    2  501    0 -0.45193442665E+01 -0.12102834065E+02 -0.88791056000E+03  0.10997691275E+04  0.64879894289E+03 0.  0.
         13    1    3    3    0    0  0.20168293807E+03  0.13423284354E+03 -0.83023129357E+02  0.25610018313E+03  0.00000000000E+00 0.  1.
          1    1    3    3  501    0 -0.20620228233E+03 -0.14633567760E+03 -0.80488743064E+03  0.84366894442E+03  0.00000000000E+00 0.  1.
         21    1    1    2  502  501  0.45193442665E+01  0.12102834065E+02  0.61333534106E+00  0.12933647794E+02  0.00000000000E+00 0. -1.
<mgrwt>
<rscale>  1 0.30000000E+03</rscale>
<asrwt>0</asrwt>
<pdfrwt beam="1">  1        1 0.40982914E+00 0.30000000E+03</pdfrwt>
<pdfrwt beam="2">0</pdfrwt>
<totfact> 0.92349590E-01</totfact>
</mgrwt>
</event>
<event>
 6    1  0.5260809E-006  0.3000000E+03  0.7818608E-02  0.1093470E+00
          1   -1    0    0  502    0  0.00000000000E+00  0.00000000000E+00  0.11216678127E+03  0.11216678127E+03  0.00000000000E+00 0.  1.
         13   -1    0    0    0    0 -0.00000000000E+00 -0.00000000000E+00 -0.10000000000E+04  0.10000000000E+04  0.00000000000E+00 0.  1.
    9000005    2    1    2  501    0  0.39011083206E+01 -0.26600509687E+02 -0.87038962957E+03  0.10801186212E+04  0.63902685609E+03 0.  0.
         13    1    3    3    0    0 -0.16000332878E+03 -0.19168443055E+03 -0.89386285542E+02  0.26520538113E+03  0.00000000000E+00 0.  1.
          1    1    3    3  501    0  0.16390443710E+03  0.16508392087E+03 -0.78100334403E+03  0.81491324006E+03  0.00000000000E+00 0.  1.
         21    1    1    2  502  501 -0.39011083206E+01  0.26600509687E+02 -0.17443589159E+02  0.32048160079E+02  0.00000000000E+00 0.  1.
<mgrwt>
<rscale>  1 0.30000000E+03</rscale>
<asrwt>0</asrwt>
<pdfrwt beam="1">  1        1 0.40788006E+00 0.30000000E+03</pdfrwt>
<pdfrwt beam="2">0</pdfrwt>
<totfact> 0.94822741E-01</totfact>
</mgrwt>
</event>
<event>
 6    1  0.5260809E-006  0.3000000E+03  0.7818608E-02  0.1093470E+00
          1   -1    0    0  502    0  0.00000000000E+00  0.00000000000E+00  0.12649754060E+03  0.12649754060E+03  0.00000000000E+00 0.  1.
         13   -1    0    0    0    0 -0.00000000000E+00 -0.00000000000E+00 -0.10000000000E+04  0.10000000000E+04  0.00000000000E+00 0.  1.
    9000005    2    1    2  501    0 -0.18132682384E+02 -0.13340084849E+02 -0.89105217266E+03  0.10979538115E+04  0.64110985471E+03 0.  0.
         13    1    3    3    0    0  0.21975754707E+03  0.74619116147E+01 -0.81976490164E+03  0.84874233639E+03  0.00000000000E+00 0.  1.
          3    1    3    3  501    0 -0.23789022946E+03 -0.20801996464E+02 -0.71287271021E+02  0.24921147513E+03  0.00000000000E+00 0.  1.
         21    1    1    2  502  501  0.18132682384E+02  0.13340084849E+02  0.17549713263E+02  0.28543729081E+02  0.00000000000E+00 0. -1.
<mgrwt>
<rscale>  1 0.30000000E+03</rscale>
<asrwt>0</asrwt>
<pdfrwt beam="1">  1        1 0.45999203E+00 0.30000000E+03</pdfrwt>
<pdfrwt beam="2">0</pdfrwt>
<totfact> 0.44074656E-01</totfact>
</mgrwt>
</event>
<event>
 6    1  0.5260809E-006  0.3000000E+03  0.7818608E-02  0.1093470E+00
          1   -1    0    0  502    0  0.00000000000E+00  0.00000000000E+00  0.17782307013E+03  0.17782307013E+03  0.00000000000E+00 0.  1.
         13   -1    0    0    0    0 -0.00000000000E+00 -0.00000000000E+00 -0.10000000000E+04  0.10000000000E+04  0.00000000000E+00 0.  1.
    9000005    2    1    2  501    0 -0.53254526935E+02 -0.54375902139E+01 -0.88206548896E+03  0.10974971619E+04  0.65084167161E+03 0.  0.
         13    1    3    3    0    0 -0.26944878845E+03  0.49711797267E+01 -0.10231465347E+03  0.28826316195E+03  0.00000000000E+00 0.  1.
          3    1    3    3  501    0  0.21619426151E+03 -0.10408769941E+02 -0.77975083549E+03  0.80923399993E+03  0.00000000000E+00 0.  1.
         21    1    1    2  502  501  0.53254526935E+02  0.54375902139E+01  0.59888559087E+02  0.80325908249E+02  0.00000000000E+00 0.  1.
<mgrwt>
<rscale>  1 0.30000000E+03</rscale>
<asrwt>0</asrwt>
<pdfrwt beam="1">  1        1 0.64663071E+00 0.30000000E+03</pdfrwt>
<pdfrwt beam="2">0</pdfrwt>
<totfact> 0.37308552E-02</totfact>
</mgrwt>
</event>
<event>
 6    1  0.5260809E-006  0.3000000E+03  0.7818608E-02  0.1093470E+00
          1   -1    0    0  502    0  0.00000000000E+00  0.00000000000E+00  0.11486854538E+03  0.11486854538E+03  0.00000000000E+00 0.  1.
         13   -1    0    0    0    0 -0.00000000000E+00 -0.00000000000E+00 -0.10000000000E+04  0.10000000000E+04  0.00000000000E+00 0.  1.
    9000005    2    1    2  501    0  0.12456191476E+02  0.83353890796E+00 -0.89059639527E+03  0.11012407404E+04  0.64762132259E+03 0.  0.
         13    1    3    3    0    0  0.85211494776E+02  0.29183641473E+03 -0.64684668431E+03  0.71473080583E+03  0.00000000000E+00 0.  1.
          3    1    3    3  501    0 -0.72755303299E+02 -0.29100287582E+03 -0.24374971097E+03  0.38650993453E+03  0.00000000000E+00 0.  1.
         21    1    1    2  502  501 -0.12456191476E+02 -0.83353890796E+00  0.54649406554E+01  0.13627805017E+02  0.00000000000E+00 0.  1.
<mgrwt>
<rscale>  1 0.30000000E+03</rscale>
<asrwt>0</asrwt>
<pdfrwt beam="1">  1        1 0.41770468E+00 0.30000000E+03</pdfrwt>
<pdfrwt beam="2">0</pdfrwt>
<totfact> 0.82838917E-01</totfact>
</mgrwt>
</event>
<event>
 6    1  0.5260809E-006  0.3000000E+03  0.7818608E-02  0.1093470E+00
          1   -1    0    0  502    0  0.00000000000E+00  0.00000000000E+00  0.12514283460E+03  0.12514283460E+03  0.00000000000E+00 0.  1.
         13   -1    0    0    0    0 -0.00000000000E+00 -0.00000000000E+00 -0.10000000000E+04  0.10000000000E+04  0.00000000000E+00 0.  1.
    9000005    2    1    2  501    0 -0.47665234495E+01  0.16052972377E+02 -0.86230721921E+03  0.11042163247E+04  0.68952123514E+03 0.  0.
         13    1    3    3    0    0 -0.14090313913E+03  0.32234404876E+03 -0.49071210277E+03  0.60378617754E+03  0.00000000000E+00 0.  1.
          1    1    3    3  501    0  0.13613661568E+03 -0.30629107638E+03 -0.37159511644E+03  0.50043014714E+03  0.00000000000E+00 0.  1.
         21    1    1    2  502  501  0.47665234495E+01 -0.16052972377E+02 -0.12549946189E+02  0.20926509916E+02  0.00000000000E+00 0.  1.
<mgrwt>
<rscale>  1 0.30000000E+03</rscale>
<asrwt>0</asrwt>
<pdfrwt beam="1">  1        1 0.45506581E+00 0.30000000E+03</pdfrwt>
<pdfrwt beam="2">0</pdfrwt>
<totfact> 0.47575946E-01</totfact>
</mgrwt>
</event>
<event>
 6    1  0.5260809E-006  0.3000000E+03  0.7818608E-02  0.1093470E+00
          1   -1    0    0  502    0  0.00000000000E+00  0.00000000000E+00  0.12660656405E+03  0.12660656405E+03  0.00000000000E+00 0.  1.
         13   -1    0    0    0    0 -0.00000000000E+00 -0.00000000000E+00 -0.10000000000E+04  0.10000000000E+04  0.00000000000E+00 0.  1.
    9000005    2    1    2  501    0 -0.51809127509E+02  0.70586036665E-01 -0.85638740571E+03  0.10720777117E+04  0.64285849186E+03 0.  0.
         13    1    3    3    0    0 -0.10593322342E+03 -0.29837371822E+03 -0.28889173725E+03  0.42861073179E+03  0.00000000000E+00 0.  1.
          1    1    3    3  501    0  0.54124095910E+02  0.29844430426E+03 -0.56749566846E+03  0.64346697990E+03  0.00000000000E+00 0.  1.
         21    1    1    2  502  501  0.51809127509E+02 -0.70586036665E-01 -0.17006030238E+02  0.54528852363E+02  0.00000000000E+00 0.  1.
<mgrwt>
<rscale>  1 0.30000000E+03</rscale>
<asrwt>0</asrwt>
<pdfrwt beam="1">  1        1 0.46038848E+00 0.30000000E+03</pdfrwt>
<pdfrwt beam="2">0</pdfrwt>
<totfact> 0.43803004E-01</totfact>
</mgrwt>
</event>
<event>
 6    1  0.5260809E-006  0.3000000E+03  0.7818608E-02  0.1093470E+00
          1   -1    0    0  502    0  0.00000000000E+00  0.00000000000E+00  0.12064680748E+03  0.12064680748E+03  0.00000000000E+00 0.  1.
         13   -1    0    0    0    0 -0.00000000000E+00 -0.00000000000E+00 -0.10000000000E+04  0.10000000000E+04  0.00000000000E+00 0.  1.
    9000005    2    1    2  501    0 -0.31869324257E+02  0.33102859109E+01 -0.86459140057E+03  0.10853690195E+04  0.65534800432E+03 0.  0.
         13    1    3    3    0    0 -0.63808784472E+02  0.16986927721E+03 -0.89487969911E+03  0.91309189472E+03  0.00000000000E+00 0.  1.
          1    1    3    3  501    0  0.31939460215E+02 -0.16655899130E+03  0.30288298541E+02  0.17227712480E+03  0.00000000000E+00 0.  1.
         21    1    1    2  502  501  0.31869324257E+02 -0.33102859109E+01 -0.14761791952E+02  0.35277787956E+02  0.00000000000E+00 0.  1.
<mgrwt>
<rscale>  1 0.30000000E+03</rscale>
<asrwt>0</asrwt>
<pdfrwt beam="1">  1        1 0.43871659E+00 0.30000000E+03</pdfrwt>
<pdfrwt beam="2">0</pdfrwt>
<totfact> 0.61105421E-01</totfact>
</mgrwt>
</event>
<event>
 6    1  0.5260809E-006  0.3000000E+03  0.7818608E-02  0.1093470E+00
          1   -1    0    0  502    0  0.00000000000E+00  0.00000000000E+00  0.10962946700E+03  0.10962946700E+03  0.00000000000E+00 0.  1.
         13   -1    0    0    0    0 -0.00000000000E+00 -0.00000000000E+00 -0.10000000000E+04  0.10000000000E+04  0.00000000000E+00 0.  1.
    9000005    2    1    2  501    0  0.71774981231E+01 -0.12748950550E+02 -0.88912836376E+03  0.10949463065E+04  0.63886157699E+03 0.  0.
         13    1    3    3    0    0  0.32777533068E+02  0.12508663971E+03 -0.93770288372E+03  0.94657684962E+03  0.00000000000E+00 0.  1.
          1    1    3    3  501    0 -0.25600034945E+02 -0.13783559026E+03  0.48574519959E+02  0.14836945683E+03  0.00000000000E+00 0.  1.
         21    1    1    2  502  501 -0.71774981231E+01  0.12748950550E+02 -0.12421692395E+01  0.14683160554E+02  0.00000000000E+00 0. -1.
<mgrwt>
<rscale>  1 0.30000000E+03</rscale>
<asrwt>0</asrwt>
<pdfrwt beam="1">  1        1 0.39865345E+00 0.30000000E+03</pdfrwt>
<pdfrwt beam="2">0</pdfrwt>
<totfact> 0.10719161E+00</totfact>
</mgrwt>
</event>
<event>
 6    1  0.5260809E-006  0.3000000E+03  0.7818608E-02  0.1093470E+00
          1   -1    0    0  502    0  0.00000000000E+00  0.00000000000E+00  0.12704242429E+03  0.12704242429E+03  0.00000000000E+00 0.  1.
         13   -1    0    0    0    0 -0.00000000000E+00 -0.00000000000E+00 -0.10000000000E+04  0.10000000000E+04  0.00000000000E+00 0.  1.
    9000005    2    1    2  501    0 -0.11113310545E+02 -0.15829345177E+02 -0.88931244878E+03  0.11017134742E+04  0.65001682581E+03 0.  0.
         13    1    3    3    0    0 -0.16155898156E+03 -0.14838711513E+03 -0.32506957584E+02  0.22175829804E+03  0.00000000000E+00 0.  1.
          3    1    3    3  501    0  0.15044567102E+03  0.13255776995E+03 -0.85680549119E+03  0.87995517615E+03  0.00000000000E+00 0.  1.
         21    1    1    2  502  501  0.11113310545E+02  0.15829345177E+02  0.16354873065E+02  0.25328950096E+02  0.00000000000E+00 0.  1.
<mgrwt>
<rscale>  1 0.30000000E+03</rscale>
<asrwt>0</asrwt>
<pdfrwt beam="1">  1        1 0.46197343E+00 0.30000000E+03</pdfrwt>
<pdfrwt beam="2">0</pdfrwt>
<totfact> 0.42730546E-01</totfact>
</mgrwt>
</event>
<event>
 6    1  0.5260809E-006  0.3000000E+03  0.7818608E-02  0.1093470E+00
          1   -1    0    0  502    0  0.00000000000E+00  0.00000000000E+00  0.12978817772E+03  0.12978817772E+03  0.00000000000E+00 0.  1.
         13   -1    0    0    0    0 -0.00000000000E+00 -0.00000000000E+00 -0.10000000000E+04  0.10000000000E+04  0.00000000000E+00 0.  1.
    9000005    2    1    2  501    0  0.15469874129E+02  0.33085713864E+01 -0.88993572441E+03  0.11045038750E+04  0.65398237942E+03 0.  0.
         13    1    3    3    0    0 -0.25579571723E+03  0.15695872850E+03 -0.63289515095E+03  0.70044540366E+03  0.00000000000E+00 0.  1.
          1    1    3    3  501    0  0.27126559136E+03 -0.15365015711E+03 -0.25704057346E+03  0.40405847131E+03  0.00000000000E+00 0.  1.
         21    1    1    2  502  501 -0.15469874129E+02 -0.33085713864E+01  0.19723902137E+02  0.25284302752E+02  0.00000000000E+00 0.  1.
<mgrwt>
<rscale>  1 0.30000000E+03</rscale>
<asrwt>0</asrwt>
<pdfrwt beam="1">  1        1 0.47195801E+00 0.30000000E+03</pdfrwt>
<pdfrwt beam="2">0</pdfrwt>
<totfact> 0.36432855E-01</totfact>
</mgrwt>
</event>
<event>
 6    1  0.5260809E-006  0.3000000E+03  0.7818608E-02  0.1093470E+00
          1   -1    0    0  502    0  0.00000000000E+00  0.00000000000E+00  0.13139658710E+03  0.13139658710E+03  0.00000000000E+00 0.  1.
         13   -1    0    0    0    0 -0.00000000000E+00 -0.00000000000E+00 -0.10000000000E+04  0.10000000000E+04  0.00000000000E+00 0.  1.
    9000005    2    1    2  501    0  0.27309610796E+02  0.14793044168E+01 -0.88665867175E+03  0.10986247157E+04  0.64812395616E+03 0.  0.
         13    1    3    3    0    0  0.57589778184E+02 -0.19217888297E+03 -0.87991626178E+03  0.90249760851E+03  0.00000000000E+00 0.  1.
          3    1    3    3  501    0 -0.30280167389E+02  0.19365818739E+03 -0.67424099730E+01  0.19612710718E+03  0.00000000000E+00 0.  1.
         21    1    1    2  502  501 -0.27309610796E+02 -0.14793044168E+01  0.18055258849E+02  0.32771871406E+02  0.00000000000E+00 0. -1.
<mgrwt>
<rscale>  1 0.30000000E+03</rscale>
<asrwt>0</asrwt>
<pdfrwt beam="1">  1        1 0.47780678E+00 0.30000000E+03</pdfrwt>
<pdfrwt beam="2">0</pdfrwt>
<totfact> 0.33114943E-01</totfact>
</mgrwt>
</event>
<event>
 6    1  0.5260809E-006  0.3000000E+03  0.7818608E-02  0.1093470E+00
          1   -1    0    0  502    0  0.00000000000E+00  0.00000000000E+00  0.70076902356E+02  0.70076902356E+02  0.00000000000E+00 0.  1.
         13   -1    0    0    0    0 -0.00000000000E+00 -0.00000000000E+00 -0.10000000000E+04  0.10000000000E+04  0.00000000000E+00 0.  1.
    9000005    2    1    2  501    0 -0.16170260273E+02  0.18182490711E+02 -0.93660978299E+03  0.10448421635E+04  0.46245559860E+03 0.  0.
         13    1    3    3    0    0 -0.18541848954E+03 -0.11984342928E+03 -0.63633017245E+03  0.67354179691E+03  0.00000000000E+00 0.  1.
          3    1    3    3  501    0  0.16924822927E+03  0.13802592000E+03 -0.30027961054E+03  0.37130036656E+03  0.00000000000E+00 0.  1.
         21    1    1    2  502  501  0.16170260273E+02 -0.18182490711E+02  0.66866853502E+01  0.25234738888E+02  0.00000000000E+00 0.  1.
<mgrwt>
<rscale>  1 0.30000000E+03</rscale>
<asrwt>0</asrwt>
<pdfrwt beam="1">  1        1 0.25482564E+00 0.30000000E+03</pdfrwt>
<pdfrwt beam="2">0</pdfrwt>
<totfact> 0.56652150E+00</totfact>
</mgrwt>
</event>
<event>
 6    1  0.5260809E-006  0.3000000E+03  0.7818608E-02  0.1093470E+00
          1   -1    0    0  502    0  0.00000000000E+00  0.00000000000E+00  0.11580918611E+03  0.11580918611E+03  0.00000000000E+00 0.  1.
         13   -1    0    0    0    0 -0.00000000000E+00 -0.00000000000E+00 -0.10000000000E+04  0.10000000000E+04  0.00000000000E+00 0.  1.
    9000005    2    1    2  501    0 -0.93369732188E+01  0.76457127176E+01 -0.88970579674E+03  0.11025407639E+04  0.65105613839E+03 0.  0.
         13    1    3    3    0    0 -0.25664072748E+03  0.20605788637E+03 -0.38498258972E+03  0.50649374124E+03  0.00000000000E+00 0.  1.
          1    1    3    3  501    0  0.24730375426E+03 -0.19841217365E+03 -0.50472320703E+03  0.59604702267E+03  0.00000000000E+00 0.  1.
         21    1    1    2  502  501  0.93369732188E+01 -0.76457127176E+01  0.55149828533E+01  0.13268422202E+02  0.00000000000E+00 0.  1.
<mgrwt>
<rscale>  1 0.30000000E+03</rscale>
<asrwt>0</asrwt>
<pdfrwt beam="1">  1        1 0.42112520E+00 0.30000000E+03</pdfrwt>
<pdfrwt beam="2">0</pdfrwt>
<totfact> 0.78932315E-01</totfact>
</mgrwt>
</event>
<event>
 6    1  0.5260809E-006  0.3000000E+03  0.7818608E-02  0.1093470E+00
          1   -1    0    0  502    0  0.00000000000E+00  0.00000000000E+00  0.12605992670E+03  0.12605992670E+03  0.00000000000E+00 0.  1.
         13   -1    0    0    0    0 -0.00000000000E+00 -0.00000000000E+00 -0.10000000000E+04  0.10000000000E+04  0.00000000000E+00 0.  1.
    9000005    2    1    2  501    0  0.11441861996E+02  0.17920147006E+02 -0.88171842275E+03  0.11034203464E+04  0.66306638885E+03 0.  0.
         13    1    3    3    0    0 -0.21507091708E+03 -0.20261879939E+03 -0.64178917250E+03  0.70654314743E+03  0.00000000000E+00 0.  1.
          1    1    3    3  501    0  0.22651277908E+03  0.22053894639E+03 -0.23992925026E+03  0.39687719900E+03  0.00000000000E+00 0.  1.
         21    1    1    2  502  501 -0.11441861996E+02 -0.17920147006E+02  0.77783494582E+01  0.22639580273E+02  0.00000000000E+00 0. -1.
<mgrwt>
<rscale>  1 0.30000000E+03</rscale>
<asrwt>0</asrwt>
<pdfrwt beam="1">  1        1 0.45840070E+00 0.30000000E+03</pdfrwt>
<pdfrwt beam="2">0</pdfrwt>
<totfact> 0.45179488E-01</totfact>
</mgrwt>
</event>
<event>
 6    1  0.5260809E-006  0.3000000E+03  0.7818608E-02  0.1093470E+00
          1   -1    0    0  502    0  0.00000000000E+00  0.00000000000E+00  0.88339649780E+02  0.88339649780E+02  0.00000000000E+00 0.  1.
         13   -1    0    0    0    0 -0.00000000000E+00 -0.00000000000E+00 -0.10000000000E+04  0.10000000000E+04  0.00000000000E+00 0.  1.
    9000005    2    1    2  501    0 -0.14767627986E+02 -0.33345899507E+01 -0.88990559092E+03  0.10618354637E+04  0.57907977770E+03 0.  0.
         13    1    3    3    0    0 -0.28604729165E+03  0.58275716621E+01 -0.59982667079E+03  0.66456681277E+03  0.00000000000E+00 0.  1.
          3    1    3    3  501    0  0.27127966366E+03 -0.91621616128E+01 -0.29007892013E+03  0.39726865094E+03  0.00000000000E+00 0.  1.
         21    1    1    2  502  501  0.14767627986E+02  0.33345899507E+01 -0.21754759301E+02  0.26504186061E+02  0.00000000000E+00 0. -1.
<mgrwt>
<rscale>  1 0.30000000E+03</rscale>
<asrwt>0</asrwt>
<pdfrwt beam="1">  1        1 0.32123577E+00 0.30000000E+03</pdfrwt>
<pdfrwt beam="2">0</pdfrwt>
<totfact> 0.27461534E+00</totfact>
</mgrwt>
</event>
<event>
 6    1  0.5260809E-006  0.3000000E+03  0.7818608E-02  0.1093470E+00
          1   -1    0    0  502    0  0.00000000000E+00  0.00000000000E+00  0.10956070320E+03  0.10956070320E+03  0.00000000000E+00 0.  1.
         13   -1    0    0    0    0 -0.00000000000E+00 -0.00000000000E+00 -0.10000000000E+04  0.10000000000E+04  0.00000000000E+00 0.  1.
    9000005    2    1    2  501    0  0.87577370429E+01  0.13619170311E+02 -0.87600928272E+03  0.10878718797E+04  0.64483391931E+03 0.  0.
         13    1    3    3    0    0  0.77986605623E+02  0.25972122495E+03 -0.76037336661E+03  0.80728228148E+03  0.00000000000E+00 0.  1.
          1    1    3    3  501    0 -0.69228868581E+02 -0.24610205464E+03 -0.11563591611E+03  0.28058959823E+03  0.00000000000E+00 0.  1.
         21    1    1    2  502  501 -0.87577370429E+01 -0.13619170311E+02 -0.14430014077E+02  0.21688823489E+02  0.00000000000E+00 0.  1.
<mgrwt>
<rscale>  1 0.30000000E+03</rscale>
<asrwt>0</asrwt>
<pdfrwt beam="1">  1        1 0.39840340E+00 0.30000000E+03</pdfrwt>
<pdfrwt beam="2">0</pdfrwt>
<totfact> 0.10754255E+00</totfact>
</mgrwt>
</event>
<event>
 6    1  0.5260809E-006  0.3000000E+03  0.7818608E-02  0.1093470E+00
          1   -1    0    0  502    0  0.00000000000E+00  0.00000000000E+00  0.11439691020E+03  0.11439691020E+03  0.00000000000E+00 0.  1.
         13   -1    0    0    0    0 -0.00000000000E+00 -0.00000000000E+00 -0.10000000000E+04  0.10000000000E+04  0.00000000000E+00 0.  1.
    9000005    2    1    2  501    0  0.70908911756E+01 -0.60216302806E+01 -0.88254264095E+03  0.11046036923E+04  0.66421477193E+03 0.  0.
         13    1    3    3    0    0  0.26591422360E+03  0.43848721336E+01 -0.78328863672E+03  0.82720655814E+03  0.00000000000E+00 0.  1.
          3    1    3    3  501    0 -0.25882333243E+03 -0.10406502414E+02 -0.99254004229E+02  0.27739713419E+03  0.00000000000E+00 0.  1.
         21    1    1    2  502  501 -0.70908911756E+01  0.60216302806E+01 -0.30604488522E+01  0.97932178612E+01  0.00000000000E+00 0.  1.
<mgrwt>
<rscale>  1 0.30000000E+03</rscale>
<asrwt>0</asrwt>
<pdfrwt beam="1">  1        1 0.41598964E+00 0.30000000E+03</pdfrwt>
<pdfrwt beam="2">0</pdfrwt>
<totfact> 0.84846336E-01</totfact>
</mgrwt>
</event>
<event>
 6    1  0.5260809E-006  0.3000000E+03  0.7818608E-02  0.1093470E+00
          1   -1    0    0  502    0  0.00000000000E+00  0.00000000000E+00  0.11195722244E+03  0.11195722244E+03  0.00000000000E+00 0.  1.
         13   -1    0    0    0    0 -0.00000000000E+00 -0.00000000000E+00 -0.10000000000E+04  0.10000000000E+04  0.00000000000E+00 0.  1.
    9000005    2    1    2  501    0  0.11806443178E+02 -0.83330408069E+00 -0.88518466263E+03  0.10997812084E+04  0.65255400770E+03 0.  0.
         13    1    3    3    0    0  0.35815650755E+02 -0.32519407292E+03 -0.42858595857E+03  0.53918444876E+03  0.00000000000E+00 0.  1.
          1    1    3    3  501    0 -0.24009207576E+02  0.32436076884E+03 -0.45659870406E+03  0.56059675967E+03  0.00000000000E+00 0.  1.
         21    1    1    2  502  501 -0.11806443178E+02  0.83330408069E+00 -0.28581149323E+01  0.12176014010E+02  0.00000000000E+00 0.  1.
<mgrwt>
<rscale>  1 0.30000000E+03</rscale>
<asrwt>0</asrwt>
<pdfrwt beam="1">  1        1 0.40711803E+00 0.30000000E+03</pdfrwt>
<pdfrwt beam="2">0</pdfrwt>
<totfact> 0.95802875E-01</totfact>
</mgrwt>
</event>
<event>
 6    1  0.5260809E-006  0.3000000E+03  0.7818608E-02  0.1093470E+00
          1   -1    0    0  502    0  0.00000000000E+00  0.00000000000E+00  0.11934751380E+03  0.11934751380E+03  0.00000000000E+00 0.  1.
         13   -1    0    0    0    0 -0.00000000000E+00 -0.00000000000E+00 -0.10000000000E+04  0.10000000000E+04  0.00000000000E+00 0.  1.
    9000005    2    1    2  501    0  0.25483618383E+01 -0.29828719406E+02 -0.86835407828E+03  0.10869824480E+04  0.65314300905E+03 0.  0.
         13    1    3    3    0    0 -0.17126581228E+03 -0.25696404425E+03 -0.67345074731E+03  0.74087678297E+03  0.00000000000E+00 0.  1.
          1    1    3    3  501    0  0.17381417412E+03  0.22713532485E+03 -0.19490333097E+03  0.34610566499E+03  0.00000000000E+00 0.  1.
         21    1    1    2  502  501 -0.25483618383E+01  0.29828719406E+02 -0.12298407918E+02  0.32365065839E+02  0.00000000000E+00 0.  1.
<mgrwt>
<rscale>  1 0.30000000E+03</rscale>
<asrwt>0</asrwt>
<pdfrwt beam="1">  1        1 0.43399187E+00 0.30000000E+03</pdfrwt>
<pdfrwt beam="2">0</pdfrwt>
<totfact> 0.65530309E-01</totfact>
</mgrwt>
</event>
<event>
 6    1  0.5260809E-006  0.3000000E+03  0.7818608E-02  0.1093470E+00
          1   -1    0    0  502    0  0.00000000000E+00  0.00000000000E+00  0.85098756979E+02  0.85098756979E+02  0.00000000000E+00 0.  1.
         13   -1    0    0    0    0 -0.00000000000E+00 -0.00000000000E+00 -0.10000000000E+04  0.10000000000E+04  0.00000000000E+00 0.  1.
    9000005    2    1    2  501    0  0.17478540581E+02 -0.14209929890E+02 -0.89108080729E+03  0.10523140861E+04  0.55931432051E+03 0.  0.
         13    1    3    3    0    0 -0.16693247754E+03  0.25074129019E+02 -0.30773145624E+02  0.17158715131E+03  0.00000000000E+00 0.  1.
          3    1    3    3  501    0  0.18441101812E+03 -0.39284058909E+02 -0.86030766167E+03  0.88072693476E+03  0.00000000000E+00 0.  1.
         21    1    1    2  502  501 -0.17478540581E+02  0.14209929890E+02 -0.23820435730E+02  0.32784670911E+02  0.00000000000E+00 0. -1.
<mgrwt>
<rscale>  1 0.30000000E+03</rscale>
<asrwt>0</asrwt>
<pdfrwt beam="1">  1        1 0.30945068E+00 0.30000000E+03</pdfrwt>
<pdfrwt beam="2">0</pdfrwt>
<totfact> 0.31318082E+00</totfact>
</mgrwt>
</event>
<event>
 6    1  0.5260809E-006  0.3000000E+03  0.7818608E-02  0.1093470E+00
          1   -1    0    0  502    0  0.00000000000E+00  0.00000000000E+00  0.12457386641E+03  0.12457386641E+03  0.00000000000E+00 0.  1.
         13   -1    0    0    0    0 -0.00000000000E+00 -0.00000000000E+00 -0.10000000000E+04  0.10000000000E+04  0.00000000000E+00 0.  1.
    9000005    2    1    2  501    0  0.26078756347E+02  0.30745176786E+02 -0.86124733936E+03  0.10818373992E+04  0.65345222566E+03 0.  0.
         13    1    3    3    0    0 -0.69677720548E+02  0.30113901831E+03 -0.66777201815E+03  0.73583908656E+03  0.00000000000E+00 0.  1.
          1    1    3    3  501    0  0.95756476895E+02 -0.27039384152E+03 -0.19347532121E+03  0.34599831259E+03  0.00000000000E+00 0.  1.
         21    1    1    2  502  501 -0.26078756347E+02 -0.30745176786E+02 -0.14178794227E+02  0.42736467261E+02  0.00000000000E+00 0.  1.
<mgrwt>
<rscale>  1 0.30000000E+03</rscale>
<asrwt>0</asrwt>
<pdfrwt beam="1">  1        1 0.45299683E+00 0.30000000E+03</pdfrwt>
<pdfrwt beam="2">0</pdfrwt>
<totfact> 0.49123593E-01</totfact>
</mgrwt>
</event>
<event>
 6    1  0.5260809E-006  0.3000000E+03  0.7818608E-02  0.1093470E+00
          1   -1    0    0  502    0  0.00000000000E+00  0.00000000000E+00  0.10452575208E+03  0.10452575208E+03  0.00000000000E+00 0.  1.
         13   -1    0    0    0    0 -0.00000000000E+00 -0.00000000000E+00 -0.10000000000E+04  0.10000000000E+04  0.00000000000E+00 0.  1.
    9000005    2    1    2  501    0  0.35560222119E+01  0.10517455647E+02 -0.88804665261E+03  0.10911679327E+04  0.63395373483E+03 0.  0.
         13    1    3    3    0    0  0.28534385283E+03 -0.11153766654E+03 -0.30560932020E+03  0.43273412391E+03  0.00000000000E+00 0.  1.
          3    1    3    3  501    0 -0.28178783061E+03  0.12205512219E+03 -0.58243733241E+03  0.65843380876E+03  0.00000000000E+00 0.  1.
         21    1    1    2  502  501 -0.35560222119E+01 -0.10517455647E+02 -0.74275953098E+01  0.13357819409E+02  0.00000000000E+00 0. -1.
<mgrwt>
<rscale>  1 0.30000000E+03</rscale>
<asrwt>0</asrwt>
<pdfrwt beam="1">  1        1 0.38009445E+00 0.30000000E+03</pdfrwt>
<pdfrwt beam="2">0</pdfrwt>
<totfact> 0.13607538E+00</totfact>
</mgrwt>
</event>
<event>
 6    1  0.5260809E-006  0.3000000E+03  0.7818608E-02  0.1093470E+00
          1   -1    0    0  502    0  0.00000000000E+00  0.00000000000E+00  0.11430509076E+03  0.11430509076E+03  0.00000000000E+00 0.  1.
         13   -1    0    0    0    0 -0.00000000000E+00 -0.00000000000E+00 -0.10000000000E+04  0.10000000000E+04  0.00000000000E+00 0.  1.
    9000005    2    1    2  501    0 -0.43271358308E+01 -0.10614503796E+02 -0.88069233991E+03  0.11017983928E+04  0.66197379774E+03 0.  0.
         13    1    3    3    0    0  0.23095767760E+03 -0.12401467384E+03 -0.77829294473E+03  0.82125574335E+03  0.00000000000E+00 0.  1.
          3    1    3    3  501    0 -0.23528481343E+03  0.11340017005E+03 -0.10239939518E+03  0.28054264940E+03  0.00000000000E+00 0.  1.
         21    1    1    2  502  501  0.43271358308E+01  0.10614503796E+02 -0.50025693260E+01  0.12506698014E+02  0.00000000000E+00 0. -1.
<mgrwt>
<rscale>  1 0.30000000E+03</rscale>
<asrwt>0</asrwt>
<pdfrwt beam="1">  1        1 0.41565575E+00 0.30000000E+03</pdfrwt>
<pdfrwt beam="2">0</pdfrwt>
<totfact> 0.85240971E-01</totfact>
</mgrwt>
</event>
<event>
 6    1  0.5260809E-006  0.3000000E+03  0.7818608E-02  0.1093470E+00
          1   -1    0    0  502    0  0.00000000000E+00  0.00000000000E+00  0.14064944447E+03  0.14064944447E+03  0.00000000000E+00 0.  1.
         13   -1    0    0    0    0 -0.00000000000E+00 -0.00000000000E+00 -0.10000000000E+04  0.10000000000E+04  0.00000000000E+00 0.  1.
    9000005    2    1    2  501    0 -0.27120216662E+02  0.28988024584E+02 -0.88172346548E+03  0.10950823640E+04  0.64822318896E+03 0.  0.
         13    1    3    3    0    0  0.29431715683E+03 -0.81876636951E+02 -0.47758706263E+03  0.56693542390E+03  0.00000000000E+00 0.  1.
          3    1    3    3  501    0 -0.32143737349E+03  0.11086466153E+03 -0.40413640284E+03  0.52814694012E+03  0.00000000000E+00 0.  1.
         21    1    1    2  502  501  0.27120216662E+02 -0.28988024584E+02  0.22372909949E+02  0.45567080449E+02  0.00000000000E+00 0. -1.
<mgrwt>
<rscale>  1 0.30000000E+03</rscale>
<asrwt>0</asrwt>
<pdfrwt beam="1">  1        1 0.51145360E+00 0.30000000E+03</pdfrwt>
<pdfrwt beam="2">0</pdfrwt>
<totfact> 0.18822879E-01</totfact>
</mgrwt>
</event>
<event>
 6    1  0.5260809E-006  0.3000000E+03  0.7818608E-02  0.1093470E+00
          1   -1    0    0  502    0  0.00000000000E+00  0.00000000000E+00  0.11881526143E+03  0.11881526143E+03  0.00000000000E+00 0.  1.
         13   -1    0    0    0    0 -0.00000000000E+00 -0.00000000000E+00 -0.10000000000E+04  0.10000000000E+04  0.00000000000E+00 0.  1.
    9000005    2    1    2  501    0 -0.17404590700E+02 -0.14370627286E+02 -0.88111732062E+03  0.10962445005E+04  0.65182423810E+03 0.  0.
         13    1    3    3    0    0  0.10553919137E+03 -0.13949199099E+03  0.21957004308E+02  0.17629136820E+03  0.00000000000E+00 0.  1.
          3    1    3    3  501    0 -0.12294378207E+03  0.12512136370E+03 -0.90307432493E+03  0.91995313225E+03  0.00000000000E+00 0.  1.
         21    1    1    2  502  501  0.17404590700E+02  0.14370627286E+02 -0.67417949678E-01  0.22570760980E+02  0.00000000000E+00 0.  1.
<mgrwt>
<rscale>  1 0.30000000E+03</rscale>
<asrwt>0</asrwt>
<pdfrwt beam="1">  1        1 0.43205641E+00 0.30000000E+03</pdfrwt>
<pdfrwt beam="2">0</pdfrwt>
<totfact> 0.67414876E-01</totfact>
</mgrwt>
</event>
<event>
 6    1  0.5260809E-006  0.3000000E+03  0.7818608E-02  0.1093470E+00
          1   -1    0    0  502    0  0.00000000000E+00  0.00000000000E+00  0.12145796248E+03  0.12145796248E+03  0.00000000000E+00 0.  1.
         13   -1    0    0    0    0 -0.00000000000E+00 -0.00000000000E+00 -0.10000000000E+04  0.10000000000E+04  0.00000000000E+00 0.  1.
    9000005    2    1    2  501    0  0.17545415647E+01  0.32339483125E+02 -0.86437621002E+03  0.10861084044E+04  0.65683811792E+03 0.  0.
         13    1    3    3    0    0 -0.25272811738E+03 -0.10289250314E+03 -0.70683161651E+03  0.75767361220E+03  0.00000000000E+00 0.  1.
          1    1    3    3  501    0  0.25448265894E+03  0.13523198627E+03 -0.15754459351E+03  0.32843479224E+03  0.00000000000E+00 0.  1.
         21    1    1    2  502  501 -0.17545415647E+01 -0.32339483125E+02 -0.14165827497E+02  0.35349558039E+02  0.00000000000E+00 0.  1.
<mgrwt>
<rscale>  1 0.30000000E+03</rscale>
<asrwt>0</asrwt>
<pdfrwt beam="1">  1        1 0.44166625E+00 0.30000000E+03</pdfrwt>
<pdfrwt beam="2">0</pdfrwt>
<totfact> 0.58461093E-01</totfact>
</mgrwt>
</event>
<event>
 6    1  0.5260809E-006  0.3000000E+03  0.7818608E-02  0.1093470E+00
          1   -1    0    0  502    0  0.00000000000E+00  0.00000000000E+00  0.12443647448E+03  0.12443647448E+03  0.00000000000E+00 0.  1.
         13   -1    0    0    0    0 -0.00000000000E+00 -0.00000000000E+00 -0.10000000000E+04  0.10000000000E+04  0.00000000000E+00 0.  1.
    9000005    2    1    2  501    0  0.93576460202E+01  0.12077385356E+02 -0.89262443903E+03  0.11015344321E+04  0.64526450944E+03 0.  0.
         13    1    3    3    0    0 -0.24522490737E+03  0.15608289465E+03 -0.20915660067E+03  0.35811116821E+03  0.00000000000E+00 0.  1.
          1    1    3    3  501    0  0.25458255339E+03 -0.14400550929E+03 -0.68346783836E+03  0.74342326387E+03  0.00000000000E+00 0.  1.
         21    1    1    2  502  501 -0.93576460202E+01 -0.12077385356E+02  0.17060913514E+02  0.22902042398E+02  0.00000000000E+00 0. -1.
<mgrwt>
<rscale>  1 0.30000000E+03</rscale>
<asrwt>0</asrwt>
<pdfrwt beam="1">  1        1 0.45249723E+00 0.30000000E+03</pdfrwt>
<pdfrwt beam="2">0</pdfrwt>
<totfact> 0.49504869E-01</totfact>
</mgrwt>
</event>
<event>
 6    1  0.5260809E-006  0.3000000E+03  0.7818608E-02  0.1093470E+00
          1   -1    0    0  502    0  0.00000000000E+00  0.00000000000E+00  0.12882785736E+03  0.12882785736E+03  0.00000000000E+00 0.  1.
         13   -1    0    0    0    0 -0.00000000000E+00 -0.00000000000E+00 -0.10000000000E+04  0.10000000000E+04  0.00000000000E+00 0.  1.
    9000005    2    1    2  501    0 -0.19039485979E+01  0.10627235842E+02 -0.89495607334E+03  0.11027081613E+04  0.64412914284E+03 0.  0.
         13    1    3    3    0    0 -0.11048621500E+03 -0.22961427855E+03 -0.76978396117E+03  0.81086205207E+03  0.00000000000E+00 0.  1.
          1    1    3    3  501    0  0.10858226640E+03  0.24024151439E+03 -0.12517211217E+03  0.29184610924E+03  0.00000000000E+00 0.  1.
         21    1    1    2  502  501  0.19039485979E+01 -0.10627235842E+02  0.23783930699E+02  0.26119696043E+02  0.00000000000E+00 0.  1.
<mgrwt>
<rscale>  1 0.30000000E+03</rscale>
<asrwt>0</asrwt>
<pdfrwt beam="1">  1        1 0.46846592E+00 0.30000000E+03</pdfrwt>
<pdfrwt beam="2">0</pdfrwt>
<totfact> 0.38544825E-01</totfact>
</mgrwt>
</event>
<event>
 6    1  0.5260809E-006  0.3000000E+03  0.7818608E-02  0.1093470E+00
          1   -1    0    0  502    0  0.00000000000E+00  0.00000000000E+00  0.12606062400E+03  0.12606062400E+03  0.00000000000E+00 0.  1.
         13   -1    0    0    0    0 -0.00000000000E+00 -0.00000000000E+00 -0.10000000000E+04  0.10000000000E+04  0.00000000000E+00 0.  1.
    9000005    2    1    2  501    0  0.13688364497E+02 -0.12613601925E+02 -0.90454802751E+03  0.10902365563E+04  0.60832733002E+03 0.  0.
         13    1    3    3    0    0 -0.63548972400E+02 -0.39694195336E+02 -0.97763770924E+03  0.98050476366E+03  0.00000000000E+00 0.  1.
          3    1    3    3  501    0  0.77237336897E+02  0.27080593411E+02  0.73089681731E+02  0.10973179269E+03  0.00000000000E+00 0.  1.
         21    1    1    2  502  501 -0.13688364497E+02  0.12613601925E+02  0.30608651511E+02  0.35824067657E+02  0.00000000000E+00 0.  1.
<mgrwt>
<rscale>  1 0.30000000E+03</rscale>
<asrwt>0</asrwt>
<pdfrwt beam="1">  1        1 0.45840324E+00 0.30000000E+03</pdfrwt>
<pdfrwt beam="2">0</pdfrwt>
<totfact> 0.45177709E-01</totfact>
</mgrwt>
</event>
<event>
 6    1  0.5260809E-006  0.3000000E+03  0.7818608E-02  0.1093470E+00
          1   -1    0    0  502    0  0.00000000000E+00  0.00000000000E+00  0.11198324646E+03  0.11198324646E+03  0.00000000000E+00 0.  1.
         13   -1    0    0    0    0 -0.00000000000E+00 -0.00000000000E+00 -0.10000000000E+04  0.10000000000E+04  0.00000000000E+00 0.  1.
    9000005    2    1    2  501    0 -0.49844228661E+00 -0.13466718651E+02 -0.88960175985E+03  0.10984144145E+04  0.64415940099E+03 0.  0.
         13    1    3    3    0    0  0.23981954502E+03 -0.20708171481E+03 -0.31850441905E+03  0.44926753247E+03  0.00000000000E+00 0.  1.
          3    1    3    3  501    0 -0.24031798731E+03  0.19361499616E+03 -0.57109734081E+03  0.64914688202E+03  0.00000000000E+00 0.  1.
         21    1    1    2  502  501  0.49844228661E+00  0.13466718651E+02  0.15850063115E+01  0.13568831967E+02  0.00000000000E+00 0.  1.
<mgrwt>
<rscale>  1 0.30000000E+03</rscale>
<asrwt>0</asrwt>
<pdfrwt beam="1">  1        1 0.40721266E+00 0.30000000E+03</pdfrwt>
<pdfrwt beam="2">0</pdfrwt>
<totfact> 0.95680751E-01</totfact>
</mgrwt>
</event>
<event>
 6    1  0.5260809E-006  0.3000000E+03  0.7818608E-02  0.1093470E+00
          1   -1    0    0  502    0  0.00000000000E+00  0.00000000000E+00  0.13161501678E+03  0.13161501678E+03  0.00000000000E+00 0.  1.
         13   -1    0    0    0    0 -0.00000000000E+00 -0.00000000000E+00 -0.10000000000E+04  0.10000000000E+04  0.00000000000E+00 0.  1.
    9000005    2    1    2  501    0  0.55899125450E+02 -0.42512909451E+02 -0.82668004523E+03  0.10499366136E+04  0.64345546516E+03 0.  0.
         13    1    3    3    0    0  0.28545377205E+03 -0.21730065751E+03 -0.45812975116E+03  0.58188168955E+03  0.00000000000E+00 0.  1.
          3    1    3    3  501    0 -0.22955464660E+03  0.17478774806E+03 -0.36855029407E+03  0.46805492403E+03  0.00000000000E+00 0.  1.
         21    1    1    2  502  501 -0.55899125450E+02  0.42512909451E+02 -0.41704937990E+02  0.81678403197E+02  0.00000000000E+00 0.  1.
<mgrwt>
<rscale>  1 0.30000000E+03</rscale>
<asrwt>0</asrwt>
<pdfrwt beam="1">  1        1 0.47860107E+00 0.30000000E+03</pdfrwt>
<pdfrwt beam="2">0</pdfrwt>
<totfact> 0.32685104E-01</totfact>
</mgrwt>
</event>
<event>
 6    1  0.5260809E-006  0.3000000E+03  0.7818608E-02  0.1093470E+00
          1   -1    0    0  502    0  0.00000000000E+00  0.00000000000E+00  0.10491842715E+03  0.10491842715E+03  0.00000000000E+00 0.  1.
         13   -1    0    0    0    0 -0.00000000000E+00 -0.00000000000E+00 -0.10000000000E+04  0.10000000000E+04  0.00000000000E+00 0.  1.
    9000005    2    1    2  501    0  0.15365115007E+02 -0.60734668332E+01 -0.87826250636E+03  0.10813418550E+04  0.63062049084E+03 0.  0.
         13    1    3    3    0    0 -0.10460412254E+03  0.27971632737E+03 -0.57384578709E+03  0.64690202784E+03  0.00000000000E+00 0.  1.
          1    1    3    3  501    0  0.11996923755E+03 -0.28578979421E+03 -0.30441671927E+03  0.43443982713E+03  0.00000000000E+00 0.  1.
         21    1    1    2  502  501 -0.15365115007E+02  0.60734668332E+01 -0.16819066486E+02  0.23576572185E+02  0.00000000000E+00 0.  1.
<mgrwt>
<rscale>  1 0.30000000E+03</rscale>
<asrwt>0</asrwt>
<pdfrwt beam="1">  1        1 0.38152236E+00 0.30000000E+03</pdfrwt>
<pdfrwt beam="2">0</pdfrwt>
<totfact> 0.13364044E+00</totfact>
</mgrwt>
</event>
<event>
 6    1  0.5260809E-006  0.3000000E+03  0.7818608E-02  0.1093470E+00
          1   -1    0    0  502    0  0.00000000000E+00  0.00000000000E+00  0.12463607708E+03  0.12463607708E+03  0.00000000000E+00 0.  1.
         13   -1    0    0    0    0 -0.00000000000E+00 -0.00000000000E+00 -0.10000000000E+04  0.10000000000E+04  0.00000000000E+00 0.  1.
    9000005    2    1    2  501    0 -0.43547244793E+02  0.30150646853E+02 -0.84671633376E+03  0.10644189001E+04  0.64284805443E+03 0.  0.
         13    1    3    3    0    0  0.20388960489E+03  0.24375357579E+03 -0.43519729087E+03  0.53887239554E+03  0.00000000000E+00 0.  1.
          1    1    3    3  501    0 -0.24743684969E+03 -0.21360292894E+03 -0.41151904289E+03  0.52554650460E+03  0.00000000000E+00 0.  1.
         21    1    1    2  502  501  0.43547244793E+02 -0.30150646853E+02 -0.28647589154E+02  0.60217176944E+02  0.00000000000E+00 0.  1.
<mgrwt>
<rscale>  1 0.30000000E+03</rscale>
<asrwt>0</asrwt>
<pdfrwt beam="1">  1        1 0.45322305E+00 0.30000000E+03</pdfrwt>
<pdfrwt beam="2">0</pdfrwt>
<totfact> 0.48951943E-01</totfact>
</mgrwt>
</event>
<event>
 6    1  0.5260809E-006  0.3000000E+03  0.7818608E-02  0.1093470E+00
          1   -1    0    0  502    0  0.00000000000E+00  0.00000000000E+00  0.11518556629E+03  0.11518556629E+03  0.00000000000E+00 0.  1.
         13   -1    0    0    0    0 -0.00000000000E+00 -0.00000000000E+00 -0.10000000000E+04  0.10000000000E+04  0.00000000000E+00 0.  1.
    9000005    2    1    2  501    0  0.12952613187E+02  0.14703966775E+01 -0.88962089509E+03  0.11012918869E+04  0.64903663302E+03 0.  0.
         13    1    3    3    0    0  0.33045695133E+03  0.13037565321E+02 -0.47996032838E+03  0.58286678719E+03  0.00000000000E+00 0.  1.
          3    1    3    3  501    0 -0.31750433814E+03 -0.11567168644E+02 -0.40966056671E+03  0.51842509975E+03  0.00000000000E+00 0.  1.
         21    1    1    2  502  501 -0.12952613187E+02 -0.14703966775E+01  0.48064613834E+01  0.13893679347E+02  0.00000000000E+00 0. -1.
<mgrwt>
<rscale>  1 0.30000000E+03</rscale>
<asrwt>0</asrwt>
<pdfrwt beam="1">  1        1 0.41885749E+00 0.30000000E+03</pdfrwt>
<pdfrwt beam="2">0</pdfrwt>
<totfact> 0.81507496E-01</totfact>
</mgrwt>
</event>
<event>
 6    1  0.5260809E-006  0.3000000E+03  0.7818608E-02  0.1093470E+00
          1   -1    0    0  502    0  0.00000000000E+00  0.00000000000E+00  0.14578277429E+03  0.14578277429E+03  0.00000000000E+00 0.  1.
         13   -1    0    0    0    0 -0.00000000000E+00 -0.00000000000E+00 -0.10000000000E+04  0.10000000000E+04  0.00000000000E+00 0.  1.
    9000005    2    1    2  501    0  0.14494840723E+02 -0.32428151408E+01 -0.88636395992E+03  0.11103705055E+04  0.66862618395E+03 0.  0.
         13    1    3    3    0    0 -0.30457883350E+03 -0.10174225643E+03 -0.32294157042E+03  0.45542398978E+03  0.00000000000E+00 0.  1.
          1    1    3    3  501    0  0.31907367422E+03  0.98499441288E+02 -0.56342238950E+03  0.65494651576E+03  0.00000000000E+00 0.  1.
         21    1    1    2  502  501 -0.14494840723E+02  0.32428151408E+01  0.32146734208E+02  0.35412268748E+02  0.00000000000E+00 0.  1.
<mgrwt>
<rscale>  1 0.30000000E+03</rscale>
<asrwt>0</asrwt>
<pdfrwt beam="1">  1        1 0.53012030E+00 0.30000000E+03</pdfrwt>
<pdfrwt beam="2">0</pdfrwt>
<totfact> 0.13626358E-01</totfact>
</mgrwt>
</event>
<event>
 6    1  0.5260809E-006  0.3000000E+03  0.7818608E-02  0.1093470E+00
          1   -1    0    0  502    0  0.00000000000E+00  0.00000000000E+00  0.11947352837E+03  0.11947352837E+03  0.00000000000E+00 0.  1.
         13   -1    0    0    0    0 -0.00000000000E+00 -0.00000000000E+00 -0.10000000000E+04  0.10000000000E+04  0.00000000000E+00 0.  1.
    9000005    2    1    2  501    0  0.15455089576E+02 -0.11636532676E+01 -0.86141529925E+03  0.10948676187E+04  0.67561717765E+03 0.  0.
         13    1    3    3    0    0  0.26966278712E+03 -0.21055859907E+03 -0.50059579743E+03  0.60634074150E+03  0.00000000000E+00 0.  1.
          1    1    3    3  501    0 -0.25420769754E+03  0.20939494580E+03 -0.36081950182E+03  0.48852687716E+03  0.00000000000E+00 0.  1.
         21    1    1    2  502  501 -0.15455089576E+02  0.11636532676E+01 -0.19111172377E+02  0.24605909703E+02  0.00000000000E+00 0. -1.
<mgrwt>
<rscale>  1 0.30000000E+03</rscale>
<asrwt>0</asrwt>
<pdfrwt beam="1">  1        1 0.43445011E+00 0.30000000E+03</pdfrwt>
<pdfrwt beam="2">0</pdfrwt>
<totfact> 0.65090412E-01</totfact>
</mgrwt>
</event>
<event>
 6    1  0.5260809E-006  0.3000000E+03  0.7818608E-02  0.1093470E+00
          1   -1    0    0  502    0  0.00000000000E+00  0.00000000000E+00  0.14215885749E+03  0.14215885749E+03  0.00000000000E+00 0.  1.
         13   -1    0    0    0    0 -0.00000000000E+00 -0.00000000000E+00 -0.10000000000E+04  0.10000000000E+04  0.00000000000E+00 0.  1.
    9000005    2    1    2  501    0  0.33379515586E+02  0.63330119282E+02 -0.81912143625E+03  0.10607702113E+04  0.67018551005E+03 0.  0.
         13    1    3    3    0    0 -0.17108924591E+03  0.11642472085E+03  0.79983290024E+01  0.20709953877E+03  0.00000000000E+00 0.  1.
          1    1    3    3  501    0  0.20446876149E+03 -0.53094601573E+02 -0.82711976525E+03  0.85367067257E+03  0.00000000000E+00 0.  1.
         21    1    1    2  502  501 -0.33379515586E+02 -0.63330119282E+02 -0.38719706262E+02  0.81388646149E+02  0.00000000000E+00 0. -1.
<mgrwt>
<rscale>  1 0.30000000E+03</rscale>
<asrwt>0</asrwt>
<pdfrwt beam="1">  1        1 0.51694239E+00 0.30000000E+03</pdfrwt>
<pdfrwt beam="2">0</pdfrwt>
<totfact> 0.17135039E-01</totfact>
</mgrwt>
</event>
<event>
 6    1  0.5260809E-006  0.3000000E+03  0.7818608E-02  0.1093470E+00
          1   -1    0    0  502    0  0.00000000000E+00  0.00000000000E+00  0.12207850975E+03  0.12207850975E+03  0.00000000000E+00 0.  1.
         13   -1    0    0    0    0 -0.00000000000E+00 -0.00000000000E+00 -0.10000000000E+04  0.10000000000E+04  0.00000000000E+00 0.  1.
    9000005    2    1    2  501    0 -0.53648639252E+01  0.81292056375E+01 -0.87907182360E+03  0.11122709098E+04  0.68138420885E+03 0.  0.
         13    1    3    3    0    0  0.19143541439E+03  0.28161391105E+03 -0.50200462329E+03  0.60659917127E+03  0.00000000000E+00 0.  1.
          3    1    3    3  501    0 -0.19680027831E+03 -0.27348470541E+03 -0.37706720031E+03  0.50567173857E+03  0.00000000000E+00 0.  1.
         21    1    1    2  502  501  0.53648639252E+01 -0.81292056375E+01  0.11503333458E+01  0.98075999123E+01  0.00000000000E+00 0.  1.
<mgrwt>
<rscale>  1 0.30000000E+03</rscale>
<asrwt>0</asrwt>
<pdfrwt beam="1">  1        1 0.44392279E+00 0.30000000E+03</pdfrwt>
<pdfrwt beam="2">0</pdfrwt>
<totfact> 0.56493807E-01</totfact>
</mgrwt>
</event>
<event>
 6    1  0.5260809E-006  0.3000000E+03  0.7818608E-02  0.1093470E+00
          1   -1    0    0  502    0  0.00000000000E+00  0.00000000000E+00  0.13579523711E+03  0.13579523711E+03  0.00000000000E+00 0.  1.
         13   -1    0    0    0    0 -0.00000000000E+00 -0.00000000000E+00 -0.10000000000E+04  0.10000000000E+04  0.00000000000E+00 0.  1.
    9000005    2    1    2  501    0 -0.73871290971E+02 -0.72459447350E+01 -0.82481712821E+03  0.10517663307E+04  0.64836690853E+03 0.  0.
         13    1    3    3    0    0 -0.27908240428E+03 -0.95375719346E+02 -0.76599990668E+03  0.82081628471E+03  0.00000000000E+00 0.  1.
          1    1    3    3  501    0  0.20521111330E+03  0.88129774611E+02 -0.58817221533E+02  0.23095004600E+03  0.00000000000E+00 0.  1.
         21    1    1    2  502  501  0.73871290971E+02  0.72459447350E+01 -0.39387634685E+02  0.84028906401E+02  0.00000000000E+00 0.  1.
<mgrwt>
<rscale>  1 0.30000000E+03</rscale>
<asrwt>0</asrwt>
<pdfrwt beam="1">  1        1 0.49380190E+00 0.30000000E+03</pdfrwt>
<pdfrwt beam="2">0</pdfrwt>
<totfact> 0.25359629E-01</totfact>
</mgrwt>
</event>
<event>
 6    1  0.5260809E-006  0.3000000E+03  0.7818608E-02  0.1093470E+00
          1   -1    0    0  502    0  0.00000000000E+00  0.00000000000E+00  0.11414154203E+03  0.11414154203E+03  0.00000000000E+00 0.  1.
         13   -1    0    0    0    0 -0.00000000000E+00 -0.00000000000E+00 -0.10000000000E+04  0.10000000000E+04  0.00000000000E+00 0.  1.
    9000005    2    1    2  501    0  0.22663802027E+02 -0.18797811285E+02 -0.85030802894E+03  0.10679805343E+04  0.64551659305E+03 0.  0.
         13    1    3    3    0    0 -0.46165735790E+00 -0.12365936146E+03  0.69549427126E+02  0.14187661406E+03  0.00000000000E+00 0.  1.
          1    1    3    3  501    0  0.23125459385E+02  0.10486155017E+03 -0.91985745607E+03  0.92610392022E+03  0.00000000000E+00 0.  1.
         21    1    1    2  502  501 -0.22663802027E+02  0.18797811285E+02 -0.35550429032E+02  0.46161007743E+02  0.00000000000E+00 0. -1.
<mgrwt>
<rscale>  1 0.30000000E+03</rscale>
<asrwt>0</asrwt>
<pdfrwt beam="1">  1        1 0.41506103E+00 0.30000000E+03</pdfrwt>
<pdfrwt beam="2">0</pdfrwt>
<totfact> 0.85947273E-01</totfact>
</mgrwt>
</event>
<event>
 6    1  0.5260809E-006  0.3000000E+03  0.7818608E-02  0.1093470E+00
          1   -1    0    0  502    0  0.00000000000E+00  0.00000000000E+00  0.13074312865E+03  0.13074312865E+03  0.00000000000E+00 0.  1.
         13   -1    0    0    0    0 -0.00000000000E+00 -0.00000000000E+00 -0.10000000000E+04  0.10000000000E+04  0.00000000000E+00 0.  1.
    9000005    2    1    2  501    0 -0.84299066211E+01  0.12718194358E+02 -0.88455480255E+03  0.11091365905E+04  0.66896484346E+03 0.  0.
         13    1    3    3    0    0  0.28658083793E+03 -0.14756580335E+03 -0.53393956343E+03  0.62369519830E+03  0.00000000000E+00 0.  1.
          1    1    3    3  501    0 -0.29501074455E+03  0.16028399770E+03 -0.35061523912E+03  0.48544139216E+03  0.00000000000E+00 0.  1.
         21    1    1    2  502  501  0.84299066211E+01 -0.12718194358E+02  0.15297931202E+02  0.21606538187E+02  0.00000000000E+00 0. -1.
<mgrwt>
<rscale>  1 0.30000000E+03</rscale>
<asrwt>0</asrwt>
<pdfrwt beam="1">  1        1 0.47543056E+00 0.30000000E+03</pdfrwt>
<pdfrwt beam="2">0</pdfrwt>
<totfact> 0.34429958E-01</totfact>
</mgrwt>
</event>
<event>
 6    1  0.5260809E-006  0.3000000E+03  0.7818608E-02  0.1093470E+00
          1   -1    0    0  502    0  0.00000000000E+00  0.00000000000E+00  0.10762212164E+03  0.10762212164E+03  0.00000000000E+00 0.  1.
         13   -1    0    0    0    0 -0.00000000000E+00 -0.00000000000E+00 -0.10000000000E+04  0.10000000000E+04  0.00000000000E+00 0.  1.
    9000005    2    1    2  501    0  0.22030216860E+01 -0.18365001526E+02 -0.85248479995E+03  0.10636495814E+04  0.63582857075E+03 0.  0.
         13    1    3    3    0    0 -0.27738053194E+03 -0.14899288711E+03 -0.32487171784E+03  0.45241626072E+03  0.00000000000E+00 0.  1.
          3    1    3    3  501    0  0.27958355363E+03  0.13062788558E+03 -0.52761308211E+03  0.61123332073E+03  0.00000000000E+00 0.  1.
         21    1    1    2  502  501 -0.22030216860E+01  0.18365001526E+02 -0.39893078410E+02  0.43972540188E+02  0.00000000000E+00 0. -1.
<mgrwt>
<rscale>  1 0.30000000E+03</rscale>
<asrwt>0</asrwt>
<pdfrwt beam="1">  1        1 0.39135399E+00 0.30000000E+03</pdfrwt>
<pdfrwt beam="2">0</pdfrwt>
<totfact> 0.11784405E+00</totfact>
</mgrwt>
</event>
<event>
 6    1  0.5260809E-006  0.3000000E+03  0.7818608E-02  0.1093470E+00
          1   -1    0    0  502    0  0.00000000000E+00  0.00000000000E+00  0.11694382909E+03  0.11694382909E+03  0.00000000000E+00 0.  1.
         13   -1    0    0    0    0 -0.00000000000E+00 -0.00000000000E+00 -0.10000000000E+04  0.10000000000E+04  0.00000000000E+00 0.  1.
    9000005    2    1    2  501    0  0.12254420592E+02 -0.44887331996E+01 -0.89014830465E+03  0.11020906170E+04  0.64966868798E+03 0.  0.
         13    1    3    3    0    0  0.18738787292E+03  0.22453737725E+03 -0.20045670851E+03  0.35456189966E+03  0.00000000000E+00 0.  1.
          1    1    3    3  501    0 -0.17513345233E+03 -0.22902611045E+03 -0.68969159614E+03  0.74752871730E+03  0.00000000000E+00 0.  1.
         21    1    1    2  502  501 -0.12254420592E+02  0.44887331996E+01  0.70921337392E+01  0.14853212136E+02  0.00000000000E+00 0.  1.
<mgrwt>
<rscale>  1 0.30000000E+03</rscale>
<asrwt>0</asrwt>
<pdfrwt beam="1">  1        1 0.42525118E+00 0.30000000E+03</pdfrwt>
<pdfrwt beam="2">0</pdfrwt>
<totfact> 0.74405232E-01</totfact>
</mgrwt>
</event>
<event>
 6    1  0.5260809E-006  0.3000000E+03  0.7818608E-02  0.1093470E+00
          1   -1    0    0  502    0  0.00000000000E+00  0.00000000000E+00  0.11048667354E+03  0.11048667354E+03  0.00000000000E+00 0.  1.
         13   -1    0    0    0    0 -0.00000000000E+00 -0.00000000000E+00 -0.10000000000E+04  0.10000000000E+04  0.00000000000E+00 0.  1.
    9000005    2    1    2  501    0  0.28216064820E+02  0.71758227291E+01 -0.87193460794E+03  0.10764771147E+04  0.63062300882E+03 0.  0.
         13    1    3    3    0    0  0.32773607684E+03  0.31969051609E+02 -0.49230457557E+03  0.59228097340E+03  0.00000000000E+00 0.  1.
          1    1    3    3  501    0 -0.29952001202E+03 -0.24793228880E+02 -0.37963003237E+03  0.48419614133E+03  0.00000000000E+00 0.  1.
         21    1    1    2  502  501 -0.28216064820E+02 -0.71758227291E+01 -0.17578718523E+02  0.34009558814E+02  0.00000000000E+00 0.  1.
<mgrwt>
<rscale>  1 0.30000000E+03</rscale>
<asrwt>0</asrwt>
<pdfrwt beam="1">  1        1 0.40177057E+00 0.30000000E+03</pdfrwt>
<pdfrwt beam="2">0</pdfrwt>
<totfact> 0.10289023E+00</totfact>
</mgrwt>
</event>
<event>
 6    1  0.5260809E-006  0.3000000E+03  0.7818608E-02  0.1093470E+00
          1   -1    0    0  502    0  0.00000000000E+00  0.00000000000E+00  0.98750770456E+02  0.98750770456E+02  0.00000000000E+00 0.  1.
         13   -1    0    0    0    0 -0.00000000000E+00 -0.00000000000E+00 -0.10000000000E+04  0.10000000000E+04  0.00000000000E+00 0.  1.
    9000005    2    1    2  501    0  0.12710988115E+02 -0.27956588457E+01 -0.92109698689E+03  0.10750164409E+04  0.55414014837E+03 0.  0.
         13    1    3    3    0    0 -0.14241131635E+03 -0.23373601995E+03 -0.50666095047E+03  0.57586355049E+03  0.00000000000E+00 0.  1.
          3    1    3    3  501    0  0.15512230446E+03  0.23094036111E+03 -0.41443603642E+03  0.49915289042E+03  0.00000000000E+00 0.  1.
         21    1    1    2  502  501 -0.12710988115E+02  0.27956588457E+01  0.19847757350E+02  0.23734329547E+02  0.00000000000E+00 0.  1.
<mgrwt>
<rscale>  1 0.30000000E+03</rscale>
<asrwt>0</asrwt>
<pdfrwt beam="1">  1        1 0.35909447E+00 0.30000000E+03</pdfrwt>
<pdfrwt beam="2">0</pdfrwt>
<totfact> 0.17656974E+00</totfact>
</mgrwt>
</event>
<event>
 6    1  0.5260809E-006  0.3000000E+03  0.7818608E-02  0.1093470E+00
          1   -1    0    0  502    0  0.00000000000E+00  0.00000000000E+00  0.12359437160E+03  0.12359437160E+03  0.00000000000E+00 0.  1.
         13   -1    0    0    0    0 -0.00000000000E+00 -0.00000000000E+00 -0.10000000000E+04  0.10000000000E+04  0.00000000000E+00 0.  1.
    9000005    2    1    2  501    0 -0.16950559868E+02 -0.70990612138E+01 -0.88008628803E+03  0.11048522958E+04  0.66768930126E+03 0.  0.
         13    1    3    3    0    0  0.32049901858E+03  0.47989980713E+02 -0.47052505923E+03  0.57132870620E+03  0.00000000000E+00 0.  1.
          1    1    3    3  501    0 -0.33744957844E+03 -0.55089041927E+02 -0.40956122879E+03  0.53352358960E+03  0.00000000000E+00 0.  1.
         21    1    1    2  502  501  0.16950559868E+02  0.70990612138E+01  0.36806596230E+01  0.18742075798E+02  0.00000000000E+00 0. -1.
<mgrwt>
<rscale>  1 0.30000000E+03</rscale>
<asrwt>0</asrwt>
<pdfrwt beam="1">  1        1 0.44943503E+00 0.30000000E+03</pdfrwt>
<pdfrwt beam="2">0</pdfrwt>
<totfact> 0.51906659E-01</totfact>
</mgrwt>
</event>
<event>
 6    1  0.5260809E-006  0.3000000E+03  0.7818608E-02  0.1093470E+00
          1   -1    0    0  502    0  0.00000000000E+00  0.00000000000E+00  0.12160492031E+03  0.12160492031E+03  0.00000000000E+00 0.  1.
         13   -1    0    0    0    0 -0.00000000000E+00 -0.00000000000E+00 -0.10000000000E+04  0.10000000000E+04  0.00000000000E+00 0.  1.
    9000005    2    1    2  501    0  0.11487616276E+02 -0.38390793102E+01 -0.89097134617E+03  0.11041444983E+04  0.65204173915E+03 0.  0.
         13    1    3    3    0    0 -0.25250367392E+03 -0.19996040779E+03 -0.40746642987E+03  0.51939499564E+03  0.00000000000E+00 0.  1.
          3    1    3    3  501    0  0.26399129020E+03  0.19612132848E+03 -0.48350491631E+03  0.58474950267E+03  0.00000000000E+00 0.  1.
         21    1    1    2  502  501 -0.11487616276E+02  0.38390793102E+01  0.12576266481E+02  0.17460421995E+02  0.00000000000E+00 0.  1.
<mgrwt>
<rscale>  1 0.30000000E+03</rscale>
<asrwt>0</asrwt>
<pdfrwt beam="1">  1        1 0.44220064E+00 0.30000000E+03</pdfrwt>
<pdfrwt beam="2">0</pdfrwt>
<totfact> 0.57990819E-01</totfact>
</mgrwt>
</event>
<event>
 6    1  0.5260809E-006  0.3000000E+03  0.7818608E-02  0.1093470E+00
          1   -1    0    0  502    0  0.00000000000E+00  0.00000000000E+00  0.11126821981E+03  0.11126821981E+03  0.00000000000E+00 0.  1.
         13   -1    0    0    0    0 -0.00000000000E+00 -0.00000000000E+00 -0.10000000000E+04  0.10000000000E+04  0.00000000000E+00 0.  1.
    9000005    2    1    2  501    0 -0.27718535576E+01 -0.94419060610E+01 -0.88772046847E+03  0.11013760252E+04  0.65183179276E+03 0.  0.
         13    1    3    3    0    0 -0.19572239479E+03  0.24334953677E+03 -0.58066645962E+03  0.65931767017E+03  0.00000000000E+00 0.  1.
          1    1    3    3  501    0  0.19295054124E+03 -0.25279144283E+03 -0.30705400885E+03  0.44205835507E+03  0.00000000000E+00 0.  1.
         21    1    1    2  502  501  0.27718535576E+01  0.94419060610E+01 -0.10113117159E+01  0.98921945794E+01  0.00000000000E+00 0. -1.
<mgrwt>
<rscale>  1 0.30000000E+03</rscale>
<asrwt>0</asrwt>
<pdfrwt beam="1">  1        1 0.40461256E+00 0.30000000E+03</pdfrwt>
<pdfrwt beam="2">0</pdfrwt>
<totfact> 0.99078271E-01</totfact>
</mgrwt>
</event>
<event>
 6    1  0.5260809E-006  0.3000000E+03  0.7818608E-02  0.1093470E+00
          1   -1    0    0  502    0  0.00000000000E+00  0.00000000000E+00  0.11130574083E+03  0.11130574083E+03  0.00000000000E+00 0.  1.
         13   -1    0    0    0    0 -0.00000000000E+00 -0.00000000000E+00 -0.10000000000E+04  0.10000000000E+04  0.00000000000E+00 0.  1.
    9000005    2    1    2  501    0 -0.69177000035E+01  0.11198779447E+02 -0.89835217827E+03  0.10949796073E+04  0.62591567881E+03 0.  0.
         13    1    3    3    0    0  0.91903724544E+01  0.84241688765E+02  0.78353506421E+02  0.11541402445E+03  0.00000000000E+00 0.  1.
          3    1    3    3  501    0 -0.16108072458E+02 -0.73042909318E+02 -0.97670568469E+03  0.97956558285E+03  0.00000000000E+00 0.  1.
         21    1    1    2  502  501  0.69177000035E+01 -0.11198779447E+02  0.96579190965E+01  0.16326133520E+02  0.00000000000E+00 0. -1.
<mgrwt>
<rscale>  1 0.30000000E+03</rscale>
<asrwt>0</asrwt>
<pdfrwt beam="1">  1        1 0.40474900E+00 0.30000000E+03</pdfrwt>
<pdfrwt beam="2">0</pdfrwt>
<totfact> 0.98897804E-01</totfact>
</mgrwt>
</event>
<event>
 6    1  0.5260809E-006  0.3000000E+03  0.7818608E-02  0.1093470E+00
          1   -1    0    0  502    0  0.00000000000E+00  0.00000000000E+00  0.13538304524E+03  0.13538304524E+03  0.00000000000E+00 0.  1.
         13   -1    0    0    0    0 -0.00000000000E+00 -0.00000000000E+00 -0.10000000000E+04  0.10000000000E+04  0.00000000000E+00 0.  1.
    9000005    2    1    2  501    0  0.99965513907E+01  0.32344532063E+01 -0.88476419980E+03  0.11126607168E+04  0.67460787776E+03 0.  0.
         13    1    3    3    0    0 -0.31770650941E+03  0.71374978300E+02 -0.32242306904E+03  0.45824496625E+03  0.00000000000E+00 0.  1.
          3    1    3    3  501    0  0.32770306080E+03 -0.68140525094E+02 -0.56234113076E+03  0.65441575054E+03  0.00000000000E+00 0.  1.
         21    1    1    2  502  501 -0.99965513907E+01 -0.32344532063E+01  0.20147245040E+02  0.22722328445E+02  0.00000000000E+00 0.  1.
<mgrwt>
<rscale>  1 0.30000000E+03</rscale>
<asrwt>0</asrwt>
<pdfrwt beam="1">  1        1 0.49230302E+00 0.30000000E+03</pdfrwt>
<pdfrwt beam="2">0</pdfrwt>
<totfact> 0.26007943E-01</totfact>
</mgrwt>
</event>
<event>
 6    1  0.5260809E-006  0.3000000E+03  0.7818608E-02  0.1093470E+00
          1   -1    0    0  502    0  0.00000000000E+00  0.00000000000E+00  0.10831525124E+03  0.10831525124E+03  0.00000000000E+00 0.  1.
         13   -1    0    0    0    0 -0.00000000000E+00 -0.00000000000E+00 -0.10000000000E+04  0.10000000000E+04  0.00000000000E+00 0.  1.
    9000005    2    1    2  501    0  0.78398672603E+01  0.64461754106E+01 -0.86820399373E+03  0.10827347400E+04  0.64686422522E+03 0.  0.
         13    1    3    3    0    0  0.14188386067E+03 -0.27228161138E+03 -0.26806273057E+03  0.40758549206E+03  0.00000000000E+00 0.  1.
          3    1    3    3  501    0 -0.13404399341E+03  0.27872778679E+03 -0.60014126316E+03  0.67514924798E+03  0.00000000000E+00 0.  1.
         21    1    1    2  502  501 -0.78398672603E+01 -0.64461754106E+01 -0.23480755036E+02  0.25580511198E+02  0.00000000000E+00 0.  1.
<mgrwt>
<rscale>  1 0.30000000E+03</rscale>
<asrwt>0</asrwt>
<pdfrwt beam="1">  1        1 0.39387447E+00 0.30000000E+03</pdfrwt>
<pdfrwt beam="2">0</pdfrwt>
<totfact> 0.11406524E+00</totfact>
</mgrwt>
</event>
<event>
 6    1  0.5260809E-006  0.3000000E+03  0.7818608E-02  0.1093470E+00
          1   -1    0    0  502    0  0.00000000000E+00  0.00000000000E+00  0.10096794511E+03  0.10096794511E+03  0.00000000000E+00 0.  1.
         13   -1    0    0    0    0 -0.00000000000E+00 -0.00000000000E+00 -0.10000000000E+04  0.10000000000E+04  0.00000000000E+00 0.  1.
    9000005    2    1    2  501    0 -0.10512713056E+02 -0.13758033060E+01 -0.89799336201E+03  0.10903148304E+04  0.61828952860E+03 0.  0.
         13    1    3    3    0    0 -0.48540358652E+02 -0.16742897036E+03 -0.90321430308E+03  0.91988298376E+03  0.00000000000E+00 0.  1.
          3    1    3    3  501    0  0.38027645596E+02  0.16605316705E+03  0.52209410671E+01  0.17043184662E+03  0.00000000000E+00 0.  1.
         21    1    1    2  502  501  0.10512713056E+02  0.13758033060E+01 -0.10386928754E+01  0.10653114729E+02  0.00000000000E+00 0. -1.
<mgrwt>
<rscale>  1 0.30000000E+03</rscale>
<asrwt>0</asrwt>
<pdfrwt beam="1">  1        1 0.36715694E+00 0.30000000E+03</pdfrwt>
<pdfrwt beam="2">0</pdfrwt>
<totfact> 0.15989085E+00</totfact>
</mgrwt>
</event>
<event>
 6    1  0.5260809E-006  0.3000000E+03  0.7818608E-02  0.1093470E+00
          1   -1    0    0  502    0  0.00000000000E+00  0.00000000000E+00  0.11208678175E+03  0.11208678175E+03  0.00000000000E+00 0.  1.
         13   -1    0    0    0    0 -0.00000000000E+00 -0.00000000000E+00 -0.10000000000E+04  0.10000000000E+04  0.00000000000E+00 0.  1.
    9000005    2    1    2  501    0  0.12192142149E+01  0.10327706422E+02 -0.88660601749E+03  0.11016055234E+04  0.65372498108E+03 0.  0.
         13    1    3    3    0    0 -0.35159757114E+02 -0.18949976770E+03 -0.72190884495E+00  0.19273528901E+03  0.00000000000E+00 0.  1.
          3    1    3    3  501    0  0.36378971329E+02  0.19982747412E+03 -0.88588410865E+03  0.90887023437E+03  0.00000000000E+00 0.  1.
         21    1    1    2  502  501 -0.12192142149E+01 -0.10327706422E+02 -0.13072007573E+01  0.10481258372E+02  0.00000000000E+00 0. -1.
<mgrwt>
<rscale>  1 0.30000000E+03</rscale>
<asrwt>0</asrwt>
<pdfrwt beam="1">  1        1 0.40758916E+00 0.30000000E+03</pdfrwt>
<pdfrwt beam="2">0</pdfrwt>
<totfact> 0.95196029E-01</totfact>
</mgrwt>
</event>
<event>
 6    1  0.5260809E-006  0.3000000E+03  0.7818608E-02  0.1093470E+00
          1   -1    0    0  502    0  0.00000000000E+00  0.00000000000E+00  0.10826690746E+03  0.10826690746E+03  0.00000000000E+00 0.  1.
         13   -1    0    0    0    0 -0.00000000000E+00 -0.00000000000E+00 -0.10000000000E+04  0.10000000000E+04  0.00000000000E+00 0.  1.
    9000005    2    1    2  501    0  0.85315400708E+01 -0.76095722498E+01 -0.88058318843E+03  0.10922977770E+04  0.64618649718E+03 0.  0.
         13    1    3    3    0    0  0.59749624181E+02  0.20876642390E+02  0.95438587286E+02  0.11451801487E+03  0.00000000000E+00 0.  1.
          1    1    3    3  501    0 -0.51218084111E+02 -0.28486214640E+02 -0.97602177572E+03  0.97777976214E+03  0.00000000000E+00 0.  1.
         21    1    1    2  502  501 -0.85315400708E+01  0.76095722498E+01 -0.11149904106E+02  0.15969130451E+02  0.00000000000E+00 0. -1.
<mgrwt>
<rscale>  1 0.30000000E+03</rscale>
<asrwt>0</asrwt>
<pdfrwt beam="1">  1        1 0.39369868E+00 0.30000000E+03</pdfrwt>
<pdfrwt beam="2">0</pdfrwt>
<totfact> 0.11432518E+00</totfact>
</mgrwt>
</event>
<event>
 6    1  0.5260809E-006  0.3000000E+03  0.7818608E-02  0.1093470E+00
          1   -1    0    0  502    0  0.00000000000E+00  0.00000000000E+00  0.13320603938E+03  0.13320603938E+03  0.00000000000E+00 0.  1.
         13   -1    0    0    0    0 -0.00000000000E+00 -0.00000000000E+00 -0.10000000000E+04  0.10000000000E+04  0.00000000000E+00 0.  1.
    9000005    2    1    2  501    0  0.14938402274E+02  0.25762409737E+02 -0.87285246079E+03  0.11028158593E+04  0.67338291017E+03 0.  0.
         13    1    3    3    0    0 -0.50163015824E+02  0.25371484979E+03 -0.73233528546E+02  0.26879490855E+03  0.00000000000E+00 0.  1.
          1    1    3    3  501    0  0.65101418097E+02 -0.22795244005E+03 -0.79961893225E+03  0.83402095080E+03  0.00000000000E+00 0.  1.
         21    1    1    2  502  501 -0.14938402274E+02 -0.25762409737E+02  0.60585001689E+01  0.30390180030E+02  0.00000000000E+00 0. -1.
<mgrwt>
<rscale>  1 0.30000000E+03</rscale>
<asrwt>0</asrwt>
<pdfrwt beam="1">  1        1 0.48438662E+00 0.30000000E+03</pdfrwt>
<pdfrwt beam="2">0</pdfrwt>
<totfact> 0.29697189E-01</totfact>
</mgrwt>
</event>
<event>
 6    1  0.5260809E-006  0.3000000E+03  0.7818608E-02  0.1093470E+00
          1   -1    0    0  502    0  0.00000000000E+00  0.00000000000E+00  0.11646993516E+03  0.11646993516E+03  0.00000000000E+00 0.  1.
         13   -1    0    0    0    0 -0.00000000000E+00 -0.00000000000E+00 -0.10000000000E+04  0.10000000000E+04  0.00000000000E+00 0.  1.
    9000005    2    1    2  501    0 -0.19442420375E+02  0.26088179590E+02 -0.85436479961E+03  0.10727753872E+04  0.64795772993E+03 0.  0.
         13    1    3    3    0    0  0.15396457475E+03  0.20674553090E+03 -0.97565203681E+02  0.27562252048E+03  0.00000000000E+00 0.  1.
          1    1    3    3  501    0 -0.17340699513E+03 -0.18065735131E+03 -0.75679959593E+03  0.79715286673E+03  0.00000000000E+00 0.  1.
         21    1    1    2  502  501  0.19442420375E+02 -0.26088179590E+02 -0.29165265232E+02  0.43694547949E+02  0.00000000000E+00 0.  1.
<mgrwt>
<rscale>  1 0.30000000E+03</rscale>
<asrwt>0</asrwt>
<pdfrwt beam="1">  1        1 0.42352793E+00 0.30000000E+03</pdfrwt>
<pdfrwt beam="2">0</pdfrwt>
<totfact> 0.76270318E-01</totfact>
</mgrwt>
</event>
<event>
 6    1  0.5260809E-006  0.3000000E+03  0.7818608E-02  0.1093470E+00
          1   -1    0    0  502    0  0.00000000000E+00  0.00000000000E+00  0.11124312281E+03  0.11124312281E+03  0.00000000000E+00 0.  1.
         13   -1    0    0    0    0 -0.00000000000E+00 -0.00000000000E+00 -0.10000000000E+04  0.10000000000E+04  0.00000000000E+00 0.  1.
    9000005    2    1    2  501    0  0.11025285122E+02 -0.10947975319E+02 -0.88319299591E+03  0.10947394308E+04  0.64667081133E+03 0.  0.
         13    1    3    3    0    0 -0.30153198381E+03 -0.71939521092E+02 -0.30633794918E+03  0.43582080155E+03  0.00000000000E+00 0.  1.
          3    1    3    3  501    0  0.31255726894E+03  0.60991545773E+02 -0.57685504673E+03  0.65891862923E+03  0.00000000000E+00 0.  1.
         21    1    1    2  502  501 -0.11025285122E+02  0.10947975319E+02 -0.55638812795E+01  0.16503692026E+02  0.00000000000E+00 0. -1.
<mgrwt>
<rscale>  1 0.30000000E+03</rscale>
<asrwt>0</asrwt>
<pdfrwt beam="1">  1        1 0.40452130E+00 0.30000000E+03</pdfrwt>
<pdfrwt beam="2">0</pdfrwt>
<totfact> 0.99199117E-01</totfact>
</mgrwt>
</event>
<event>
 6    1  0.5260809E-006  0.3000000E+03  0.7818608E-02  0.1093470E+00
          1   -1    0    0  502    0  0.00000000000E+00  0.00000000000E+00  0.13808244809E+03  0.13808244809E+03  0.00000000000E+00 0.  1.
         13   -1    0    0    0    0 -0.00000000000E+00 -0.00000000000E+00 -0.10000000000E+04  0.10000000000E+04  0.00000000000E+00 0.  1.
    9000005    2    1    2  501    0 -0.37778862200E+01  0.14548148274E+02 -0.86835163607E+03  0.11217325710E+04  0.70994610774E+03 0.  0.
         13    1    3    3    0    0 -0.26775259556E+03 -0.11348827258E+03 -0.11403696224E+03  0.31237072398E+03  0.00000000000E+00 0.  1.
          1    1    3    3  501    0  0.26397470934E+03  0.12803642086E+03 -0.75431467382E+03  0.80936184700E+03  0.00000000000E+00 0.  1.
         21    1    1    2  502  501  0.37778862200E+01 -0.14548148274E+02  0.64340841533E+01  0.16349877106E+02  0.00000000000E+00 0.  1.
<mgrwt>
<rscale>  1 0.30000000E+03</rscale>
<asrwt>0</asrwt>
<pdfrwt beam="1">  1        1 0.50211905E+00 0.30000000E+03</pdfrwt>
<pdfrwt beam="2">0</pdfrwt>
<totfact> 0.22033403E-01</totfact>
</mgrwt>
</event>
<event>
 6    1  0.5260809E-006  0.3000000E+03  0.7818608E-02  0.1093470E+00
          1   -1    0    0  502    0  0.00000000000E+00  0.00000000000E+00  0.12216496364E+03  0.12216496364E+03  0.00000000000E+00 0.  1.
         13   -1    0    0    0    0 -0.00000000000E+00 -0.00000000000E+00 -0.10000000000E+04  0.10000000000E+04  0.00000000000E+00 0.  1.
    9000005    2    1    2  501    0 -0.14685931605E+02 -0.16103324669E+02 -0.87815031805E+03  0.11003683342E+04  0.66271222727E+03 0.  0.
         13    1    3    3    0    0  0.83505129187E+02 -0.20491642786E+03 -0.26886786353E+02  0.22290524509E+03  0.00000000000E+00 0.  1.
          3    1    3    3  501    0 -0.98191060792E+02  0.18881310319E+03 -0.85126353169E+03  0.87746308911E+03  0.00000000000E+00 0.  1.
         21    1    1    2  502  501  0.14685931605E+02  0.16103324669E+02  0.31528169049E+00  0.21796629443E+02  0.00000000000E+00 0. -1.
<mgrwt>
<rscale>  1 0.30000000E+03</rscale>
<asrwt>0</asrwt>
<pdfrwt beam="1">  1        1 0.44423717E+00 0.30000000E+03</pdfrwt>
<pdfrwt beam="2">0</pdfrwt>
<totfact> 0.56223656E-01</totfact>
</mgrwt>
</event>
<event>
 6    1  0.5260809E-006  0.3000000E+03  0.7818608E-02  0.1093470E+00
          1   -1    0    0  502    0  0.00000000000E+00  0.00000000000E+00  0.89401853651E+02  0.89401853651E+02  0.00000000000E+00 0.  1.
         13   -1    0    0    0    0 -0.00000000000E+00 -0.00000000000E+00 -0.10000000000E+04  0.10000000000E+04  0.00000000000E+00 0.  1.
    9000005    2    1    2  501    0  0.13358015208E+02 -0.88201870159E+01 -0.89786716058E+03  0.10689492189E+04  0.57985408707E+03 0.  0.
         13    1    3    3    0    0  0.24333077778E+03 -0.17180981228E+03 -0.47925883518E+03  0.56428495471E+03  0.00000000000E+00 0.  1.
          1    1    3    3  501    0 -0.22997276257E+03  0.16298962527E+03 -0.41860832540E+03  0.50466426420E+03  0.00000000000E+00 0.  1.
         21    1    1    2  502  501 -0.13358015208E+02  0.88201870159E+01 -0.12730985773E+02  0.20452634746E+02  0.00000000000E+00 0.  1.
<mgrwt>
<rscale>  1 0.30000000E+03</rscale>
<asrwt>0</asrwt>
<pdfrwt beam="1">  1        1 0.32509834E+00 0.30000000E+03</pdfrwt>
<pdfrwt beam="2">0</pdfrwt>
<totfact> 0.26289778E+00</totfact>
</mgrwt>
</event>
<event>
 6    1  0.5260809E-006  0.3000000E+03  0.7818608E-02  0.1093470E+00
          1   -1    0    0  502    0  0.00000000000E+00  0.00000000000E+00  0.13507192688E+03  0.13507192688E+03  0.00000000000E+00 0.  1.
         13   -1    0    0    0    0 -0.00000000000E+00 -0.00000000000E+00 -0.10000000000E+04  0.10000000000E+04  0.00000000000E+00 0.  1.
    9000005    2    1    2  501    0  0.97536493829E+01 -0.41292446079E+02 -0.87740240457E+03  0.10908474006E+04  0.64677111259E+03 0.  0.
         13    1    3    3    0    0 -0.12532453521E+03 -0.16292369041E+03 -0.11281494628E+02  0.20585830113E+03  0.00000000000E+00 0.  1.
          3    1    3    3  501    0  0.13507818459E+03  0.12163124433E+03 -0.86612090994E+03  0.88498909947E+03  0.00000000000E+00 0.  1.
         21    1    1    2  502  501 -0.97536493829E+01  0.41292446079E+02  0.12474331448E+02  0.44224526279E+02  0.00000000000E+00 0. -1.
<mgrwt>
<rscale>  1 0.30000000E+03</rscale>
<asrwt>0</asrwt>
<pdfrwt beam="1">  1        1 0.49117168E+00 0.30000000E+03</pdfrwt>
<pdfrwt beam="2">0</pdfrwt>
<totfact> 0.26507609E-01</totfact>
</mgrwt>
</event>
<event>
 6    1  0.5260809E-006  0.3000000E+03  0.7818608E-02  0.1093470E+00
          1   -1    0    0  502    0  0.00000000000E+00  0.00000000000E+00  0.13136834107E+03  0.13136834107E+03  0.00000000000E+00 0.  1.
         13   -1    0    0    0    0 -0.00000000000E+00 -0.00000000000E+00 -0.10000000000E+04  0.10000000000E+04  0.00000000000E+00 0.  1.
    9000005    2    1    2  501    0  0.47754155035E+02  0.67099342771E+00 -0.86967021449E+03  0.10835981814E+04  0.64465326126E+03 0.  0.
         13    1    3    3    0    0 -0.37200938406E+02  0.30790635280E+03 -0.30395620064E+03  0.43425753168E+03  0.00000000000E+00 0.  1.
          3    1    3    3  501    0  0.84955093441E+02 -0.30723535937E+03 -0.56571401385E+03  0.64934064974E+03  0.00000000000E+00 0.  1.
         21    1    1    2  502  501 -0.47754155035E+02 -0.67099342771E+00  0.10385555548E+01  0.47770159649E+02  0.00000000000E+00 0. -1.
<mgrwt>
<rscale>  1 0.30000000E+03</rscale>
<asrwt>0</asrwt>
<pdfrwt beam="1">  1        1 0.47770407E+00 0.30000000E+03</pdfrwt>
<pdfrwt beam="2">0</pdfrwt>
<totfact> 0.33170876E-01</totfact>
</mgrwt>
</event>
<event>
 6    1  0.5260809E-006  0.3000000E+03  0.7818608E-02  0.1093470E+00
          1   -1    0    0  502    0  0.00000000000E+00  0.00000000000E+00  0.12191113152E+03  0.12191113152E+03  0.00000000000E+00 0.  1.
         13   -1    0    0    0    0 -0.00000000000E+00 -0.00000000000E+00 -0.10000000000E+04  0.10000000000E+04  0.00000000000E+00 0.  1.
    9000005    2    1    2  501    0 -0.93446865063E+01 -0.39794683116E+02 -0.86331521112E+03  0.10784461925E+04  0.64502875630E+03 0.  0.
         13    1    3    3    0    0  0.21917594971E+03 -0.93074983440E+02 -0.65679592699E+02  0.24701185877E+03  0.00000000000E+00 0.  1.
          1    1    3    3  501    0 -0.22852063622E+03  0.53280300324E+02 -0.79763561842E+03  0.83143433376E+03  0.00000000000E+00 0.  1.
         21    1    1    2  502  501  0.93446865063E+01  0.39794683116E+02 -0.14773657358E+02  0.43464938996E+02  0.00000000000E+00 0. -1.
<mgrwt>
<rscale>  1 0.30000000E+03</rscale>
<asrwt>0</asrwt>
<pdfrwt beam="1">  1        1 0.44331414E+00 0.30000000E+03</pdfrwt>
<pdfrwt beam="2">0</pdfrwt>
<totfact> 0.57019607E-01</totfact>
</mgrwt>
</event>
<event>
 6    1  0.5260809E-006  0.3000000E+03  0.7818608E-02  0.1093470E+00
          1   -1    0    0  502    0  0.00000000000E+00  0.00000000000E+00  0.14042156656E+03  0.14042156656E+03  0.00000000000E+00 0.  1.
         13   -1    0    0    0    0 -0.00000000000E+00 -0.00000000000E+00 -0.10000000000E+04  0.10000000000E+04  0.00000000000E+00 0.  1.
    9000005    2    1    2  501    0 -0.80563781217E+02  0.37406125915E+02 -0.76865643399E+03  0.10133131440E+04  0.65427904843E+03 0.  0.
         13    1    3    3    0    0  0.26269420630E+03 -0.10969722862E+03 -0.37332503429E+03  0.46948195835E+03  0.00000000000E+00 0.  1.
          3    1    3    3  501    0 -0.34325798752E+03  0.14710335453E+03 -0.39533139970E+03  0.54383118566E+03  0.00000000000E+00 0.  1.
         21    1    1    2  502  501  0.80563781217E+02 -0.37406125915E+02 -0.90921999443E+02  0.12710842255E+03  0.00000000000E+00 0.  1.
<mgrwt>
<rscale>  1 0.30000000E+03</rscale>
<asrwt>0</asrwt>
<pdfrwt beam="1">  1        1 0.51062496E+00 0.30000000E+03</pdfrwt>
<pdfrwt beam="2">0</pdfrwt>
<totfact> 0.19089149E-01</totfact>
</mgrwt>
</event>
<event>
 6    1  0.5260809E-006  0.3000000E+03  0.7818608E-02  0.1093470E+00
          1   -1    0    0  502    0  0.00000000000E+00  0.00000000000E+00  0.11718621626E+03  0.11718621626E+03  0.00000000000E+00 0.  1.
         13   -1    0    0    0    0 -0.00000000000E+00 -0.00000000000E+00 -0.10000000000E+04  0.10000000000E+04  0.00000000000E+00 0.  1.
    9000005    2    1    2  501    0  0.40954961755E+01 -0.25746202926E+02 -0.85821991275E+03  0.10813463147E+04  0.65733461312E+03 0.  0.
         13    1    3    3    0    0  0.31907782136E+02 -0.38697726872E+02 -0.96701156674E+03  0.96831141212E+03  0.00000000000E+00 0.  1.
          3    1    3    3  501    0 -0.27812285961E+02  0.12951523945E+02  0.10879165399E+03  0.11303490258E+03  0.00000000000E+00 0.  1.
         21    1    1    2  502  501 -0.40954961755E+01  0.25746202926E+02 -0.24593870986E+02  0.35839901564E+02  0.00000000000E+00 0. -1.
<mgrwt>
<rscale>  1 0.30000000E+03</rscale>
<asrwt>0</asrwt>
<pdfrwt beam="1">  1        1 0.42613259E+00 0.30000000E+03</pdfrwt>
<pdfrwt beam="2">0</pdfrwt>
<totfact> 0.73465997E-01</totfact>
</mgrwt>
</event>
<event>
 6    1  0.5260809E-006  0.3000000E+03  0.7818608E-02  0.1093470E+00
          1   -1    0    0  502    0  0.00000000000E+00  0.00000000000E+00  0.11416448510E+03  0.11416448510E+03  0.00000000000E+00 0.  1.
         13   -1    0    0    0    0 -0.00000000000E+00 -0.00000000000E+00 -0.10000000000E+04  0.10000000000E+04  0.00000000000E+00 0.  1.
    9000005    2    1    2  501    0 -0.20641544190E+02  0.16449833869E+01 -0.87805152999E+03  0.10920427822E+04  0.64896392009E+03 0.  0.
         13    1    3    3    0    0 -0.30951788785E+03 -0.11495042509E+03 -0.36822149206E+03  0.49457253295E+03  0.00000000000E+00 0.  1.
          3    1    3    3  501    0  0.28887634366E+03  0.11659540847E+03 -0.50983003793E+03  0.59747024928E+03  0.00000000000E+00 0.  1.
         21    1    1    2  502  501  0.20641544190E+02 -0.16449833869E+01 -0.77839849056E+01  0.22121702871E+02  0.00000000000E+00 0.  1.
<mgrwt>
<rscale>  1 0.30000000E+03</rscale>
<asrwt>0</asrwt>
<pdfrwt beam="1">  1        1 0.41514446E+00 0.30000000E+03</pdfrwt>
<pdfrwt beam="2">0</pdfrwt>
<totfact> 0.85847930E-01</totfact>
</mgrwt>
</event>
<event>
 6    1  0.5260809E-006  0.3000000E+03  0.7818608E-02  0.1093470E+00
          1   -1    0    0  502    0  0.00000000000E+00  0.00000000000E+00  0.10748695428E+03  0.10748695428E+03  0.00000000000E+00 0.  1.
         13   -1    0    0    0    0 -0.00000000000E+00 -0.00000000000E+00 -0.10000000000E+04  0.10000000000E+04  0.00000000000E+00 0.  1.
    9000005    2    1    2  501    0 -0.75559085648E+01 -0.41323110728E+01 -0.88388056871E+03  0.10952932096E+04  0.64679841340E+03 0.  0.
         13    1    3    3    0    0 -0.35848009400E+01 -0.32534180845E+03 -0.46028893022E+03  0.56367192799E+03  0.00000000000E+00 0.  1.
          1    1    3    3  501    0 -0.39711076248E+01  0.32120949737E+03 -0.42359163849E+03  0.53162128165E+03  0.00000000000E+00 0.  1.
         21    1    1    2  502  501  0.75559085648E+01  0.41323110728E+01 -0.86324770090E+01  0.12193744640E+02  0.00000000000E+00 0.  1.
<mgrwt>
<rscale>  1 0.30000000E+03</rscale>
<asrwt>0</asrwt>
<pdfrwt beam="1">  1        1 0.39086248E+00 0.30000000E+03</pdfrwt>
<pdfrwt beam="2">0</pdfrwt>
<totfact> 0.11859396E+00</totfact>
</mgrwt>
</event>
<event>
 6    1  0.5260809E-006  0.3000000E+03  0.7818608E-02  0.1093470E+00
          1   -1    0    0  502    0  0.00000000000E+00  0.00000000000E+00  0.12162531123E+03  0.12162531123E+03  0.00000000000E+00 0.  1.
         13   -1    0    0    0    0 -0.00000000000E+00 -0.00000000000E+00 -0.10000000000E+04  0.10000000000E+04  0.00000000000E+00 0.  1.
    9000005    2    1    2  501    0 -0.13860695415E+02  0.20497173814E+01 -0.89115387651E+03  0.11026614546E+04  0.64923857838E+03 0.  0.
         13    1    3    3    0    0  0.14153488535E+03 -0.16837539823E+03 -0.43537192165E+02  0.22422730789E+03  0.00000000000E+00 0.  1.
          3    1    3    3  501    0 -0.15539558076E+03  0.17042511562E+03 -0.84761668434E+03  0.87843414672E+03  0.00000000000E+00 0.  1.
         21    1    1    2  502  501  0.13860695415E+02 -0.20497173814E+01  0.12779187740E+02  0.18963856623E+02  0.00000000000E+00 0.  1.
<mgrwt>
<rscale>  1 0.30000000E+03</rscale>
<asrwt>0</asrwt>
<pdfrwt beam="1">  1        1 0.44227479E+00 0.30000000E+03</pdfrwt>
<pdfrwt beam="2">0</pdfrwt>
<totfact> 0.57925778E-01</totfact>
</mgrwt>
</event>
<event>
 6    1  0.5260809E-006  0.3000000E+03  0.7818608E-02  0.1093470E+00
          1   -1    0    0  502    0  0.00000000000E+00  0.00000000000E+00  0.11422462398E+03  0.11422462398E+03  0.00000000000E+00 0.  1.
         13   -1    0    0    0    0 -0.00000000000E+00 -0.00000000000E+00 -0.10000000000E+04  0.10000000000E+04  0.00000000000E+00 0.  1.
    9000005    2    1    2  501    0  0.15330686881E+02  0.10962581072E+02 -0.87525020869E+03  0.10926378852E+04  0.65378850725E+03 0.  0.
         13    1    3    3    0    0  0.14375243805E+03  0.20301509962E+03 -0.81748183135E+03  0.85449191846E+03  0.00000000000E+00 0.  1.
          1    1    3    3  501    0 -0.12842175117E+03 -0.19205251855E+03 -0.57768377335E+02  0.23814596674E+03  0.00000000000E+00 0.  1.
         21    1    1    2  502  501 -0.15330686881E+02 -0.10962581072E+02 -0.10525167329E+02  0.21586738783E+02  0.00000000000E+00 0.  1.
<mgrwt>
<rscale>  1 0.30000000E+03</rscale>
<asrwt>0</asrwt>
<pdfrwt beam="1">  1        1 0.41536314E+00 0.30000000E+03</pdfrwt>
<pdfrwt beam="2">0</pdfrwt>
<totfact> 0.85587933E-01</totfact>
</mgrwt>
</event>
<event>
 6    1  0.5260809E-006  0.3000000E+03  0.7818608E-02  0.1093470E+00
          1   -1    0    0  502    0  0.00000000000E+00  0.00000000000E+00  0.12429373050E+03  0.12429373050E+03  0.00000000000E+00 0.  1.
         13   -1    0    0    0    0 -0.00000000000E+00 -0.00000000000E+00 -0.10000000000E+04  0.10000000000E+04  0.00000000000E+00 0.  1.
    9000005    2    1    2  501    0 -0.13279125297E+02  0.31979688088E+02 -0.87637512772E+03  0.10896601775E+04  0.64662732886E+03 0.  0.
         13    1    3    3    0    0  0.20223093801E+02 -0.30899489522E+02 -0.97072724060E+03  0.97142942493E+03  0.00000000000E+00 0.  1.
          1    1    3    3  501    0 -0.33502219097E+02  0.62879177610E+02  0.94352112874E+02  0.11823075262E+03  0.00000000000E+00 0.  1.
         21    1    1    2  502  501  0.13279125297E+02 -0.31979688088E+02  0.66885822758E+00  0.34633552953E+02  0.00000000000E+00 0.  1.
<mgrwt>
<rscale>  1 0.30000000E+03</rscale>
<asrwt>0</asrwt>
<pdfrwt beam="1">  1        1 0.45197815E+00 0.30000000E+03</pdfrwt>
<pdfrwt beam="2">0</pdfrwt>
<totfact> 0.49904192E-01</totfact>
</mgrwt>
</event>
<event>
 6    1  0.5260809E-006  0.3000000E+03  0.7818608E-02  0.1093470E+00
          1   -1    0    0  502    0  0.00000000000E+00  0.00000000000E+00  0.11220174119E+03  0.11220174119E+03  0.00000000000E+00 0.  1.
         13   -1    0    0    0    0 -0.00000000000E+00 -0.00000000000E+00 -0.10000000000E+04  0.10000000000E+04  0.00000000000E+00 0.  1.
    9000005    2    1    2  501    0  0.53024055094E+00  0.10816021584E+02 -0.88465093154E+03  0.11009246340E+04  0.65521791152E+03 0.  0.
         13    1    3    3    0    0 -0.27680788600E+03  0.55869175338E+02 -0.16196597689E+03  0.32554100844E+03  0.00000000000E+00 0.  1.
          1    1    3    3  501    0  0.27733812655E+03 -0.45053153754E+02 -0.72268495465E+03  0.77538362555E+03  0.00000000000E+00 0.  1.
         21    1    1    2  502  501 -0.53024055094E+00 -0.10816021584E+02 -0.31473272680E+01  0.11277107204E+02  0.00000000000E+00 0.  1.
<mgrwt>
<rscale>  1 0.30000000E+03</rscale>
<asrwt>0</asrwt>
<pdfrwt beam="1">  1        1 0.40800719E+00 0.30000000E+03</pdfrwt>
<pdfrwt beam="2">0</pdfrwt>
<totfact> 0.94659953E-01</totfact>
</mgrwt>
</event>
<event>
 6    1  0.5260809E-006  0.3000000E+03  0.7818608E-02  0.1093470E+00
          1   -1    0    0  502    0  0.00000000000E+00  0.00000000000E+00  0.12832594251E+03  0.12832594251E+03  0.00000000000E+00 0.  1.
         13   -1    0    0    0    0 -0.00000000000E+00 -0.00000000000E+00 -0.10000000000E+04  0.10000000000E+04  0.00000000000E+00 0.  1.
    9000005    2    1    2  501    0 -0.12558796216E+02  0.44420806256E+02 -0.85562745762E+03  0.10794544298E+04  0.65650025767E+03 0.  0.
         13    1    3    3    0    0 -0.18190280489E+03  0.31953059181E+02 -0.88764918675E+03  0.90665909092E+03  0.00000000000E+00 0.  1.
          3    1    3    3  501    0  0.16934400868E+03  0.12467747075E+02  0.32021729121E+02  0.17279533885E+03  0.00000000000E+00 0.  1.
         21    1    1    2  502  501  0.12558796216E+02 -0.44420806256E+02 -0.16046599862E+02  0.48871512744E+02  0.00000000000E+00 0. -1.
<mgrwt>
<rscale>  1 0.30000000E+03</rscale>
<asrwt>0</asrwt>
<pdfrwt beam="1">  1        1 0.46664077E+00 0.30000000E+03</pdfrwt>
<pdfrwt beam="2">0</pdfrwt>
<totfact> 0.39687817E-01</totfact>
</mgrwt>
</event>
<event>
 6    1  0.5260809E-006  0.3000000E+03  0.7818608E-02  0.1093470E+00
          1   -1    0    0  502    0  0.00000000000E+00  0.00000000000E+00  0.12172764211E+03  0.12172764211E+03  0.00000000000E+00 0.  1.
         13   -1    0    0    0    0 -0.00000000000E+00 -0.00000000000E+00 -0.10000000000E+04  0.10000000000E+04  0.00000000000E+00 0.  1.
    9000005    2    1    2  501    0  0.42579442663E+02 -0.44894432102E+01 -0.86019659461E+03  0.10752529473E+04  0.64373717875E+03 0.  0.
         13    1    3    3    0    0 -0.67530209732E+02 -0.13723156325E+03 -0.88754922936E+03  0.90063114854E+03  0.00000000000E+00 0.  1.
          1    1    3    3  501    0  0.11010965240E+03  0.13274212004E+03  0.27352634743E+02  0.17462179879E+03  0.00000000000E+00 0.  1.
         21    1    1    2  502  501 -0.42579442663E+02  0.44894432102E+01 -0.18075763274E+02  0.46474694790E+02  0.00000000000E+00 0. -1.
<mgrwt>
<rscale>  1 0.30000000E+03</rscale>
<asrwt>0</asrwt>
<pdfrwt beam="1">  1        1 0.44264690E+00 0.30000000E+03</pdfrwt>
<pdfrwt beam="2">0</pdfrwt>
<totfact> 0.57600158E-01</totfact>
</mgrwt>
</event>
<event>
 6    1  0.5260809E-006  0.3000000E+03  0.7818608E-02  0.1093470E+00
          1   -1    0    0  502    0  0.00000000000E+00  0.00000000000E+00  0.11643296215E+03  0.11643296215E+03  0.00000000000E+00 0.  1.
         13   -1    0    0    0    0 -0.00000000000E+00 -0.00000000000E+00 -0.10000000000E+04  0.10000000000E+04  0.00000000000E+00 0.  1.
    9000005    2    1    2  501    0 -0.15880442988E+02 -0.10006554730E+02 -0.88854033745E+03  0.10970151014E+04  0.64310643118E+03 0.  0.
         13    1    3    3    0    0  0.20766831558E+00  0.31478110954E+03 -0.49354103556E+03  0.58538017034E+03  0.00000000000E+00 0.  1.
          3    1    3    3  501    0 -0.16088111303E+02 -0.32478766427E+03 -0.39499930189E+03  0.51163493106E+03  0.00000000000E+00 0.  1.
         21    1    1    2  502  501  0.15880442988E+02  0.10006554730E+02  0.49732996020E+01  0.19417860747E+02  0.00000000000E+00 0. -1.
<mgrwt>
<rscale>  1 0.30000000E+03</rscale>
<asrwt>0</asrwt>
<pdfrwt beam="1">  1        1 0.42339348E+00 0.30000000E+03</pdfrwt>
<pdfrwt beam="2">0</pdfrwt>
<totfact> 0.76417405E-01</totfact>
</mgrwt>
</event>
<event>
 6    1  0.5260809E-006  0.3000000E+03  0.7818608E-02  0.1093470E+00
          1   -1    0    0  502    0  0.00000000000E+00  0.00000000000E+00  0.88756950322E+02  0.88756950322E+02  0.00000000000E+00 0.  1.
         13   -1    0    0    0    0 -0.00000000000E+00 -0.00000000000E+00 -0.10000000000E+04  0.10000000000E+04  0.00000000000E+00 0.  1.
    9000005    2    1    2  501    0  0.58935889405E+01  0.17715813464E+02 -0.91023332900E+03  0.10700592506E+04  0.56227529044E+03 0.  0.
         13    1    3    3    0    0  0.10440329031E+03  0.23313810645E+03 -0.20949234172E+03  0.33036413992E+03  0.00000000000E+00 0.  1.
          1    1    3    3  501    0 -0.98509701367E+02 -0.21542229298E+03 -0.70074098728E+03  0.73969511073E+03  0.00000000000E+00 0.  1.
         21    1    1    2  502  501 -0.58935889405E+01 -0.17715813464E+02 -0.10097206777E+01  0.18697699675E+02  0.00000000000E+00 0.  1.
<mgrwt>
<rscale>  1 0.30000000E+03</rscale>
<asrwt>0</asrwt>
<pdfrwt beam="1">  1        1 0.32275323E+00 0.30000000E+03</pdfrwt>
<pdfrwt beam="2">0</pdfrwt>
<totfact> 0.26996050E+00</totfact>
</mgrwt>
</event>
<event>
 6    1  0.5260809E-006  0.3000000E+03  0.7818608E-02  0.1093470E+00
          1   -1    0    0  502    0  0.00000000000E+00  0.00000000000E+00  0.81587681382E+02  0.81587681382E+02  0.00000000000E+00 0.  1.
         13   -1    0    0    0    0 -0.00000000000E+00 -0.00000000000E+00 -0.10000000000E+04  0.10000000000E+04  0.00000000000E+00 0.  1.
    9000005    2    1    2  501    0 -0.10948513253E+02 -0.76702327945E+01 -0.94181339902E+03  0.10546374870E+04  0.47441442640E+03 0.  0.
         13    1    3    3    0    0  0.66838254129E+02 -0.22880794780E+03 -0.52085123014E+03  0.57280575515E+03  0.00000000000E+00 0.  1.
          1    1    3    3  501    0 -0.77786767381E+02  0.22113771501E+03 -0.42096216888E+03  0.48183173184E+03  0.00000000000E+00 0.  1.
         21    1    1    2  502  501  0.10948513253E+02  0.76702327945E+01  0.23401080405E+02  0.26950194390E+02  0.00000000000E+00 0.  1.
<mgrwt>
<rscale>  1 0.30000000E+03</rscale>
<asrwt>0</asrwt>
<pdfrwt beam="1">  1        1 0.29668310E+00 0.30000000E+03</pdfrwt>
<pdfrwt beam="2">0</pdfrwt>
<totfact> 0.36024575E+00</totfact>
</mgrwt>
</event>
<event>
 6    1  0.5260809E-006  0.3000000E+03  0.7818608E-02  0.1093470E+00
          1   -1    0    0  502    0  0.00000000000E+00  0.00000000000E+00  0.10938350972E+03  0.10938350972E+03  0.00000000000E+00 0.  1.
         13   -1    0    0    0    0 -0.00000000000E+00 -0.00000000000E+00 -0.10000000000E+04  0.10000000000E+04  0.00000000000E+00 0.  1.
    9000005    2    1    2  501    0 -0.19816295678E+02  0.27508543672E+00 -0.86216547308E+03  0.10747104420E+04  0.64131152328E+03 0.  0.
         13    1    3    3    0    0 -0.61133259440E+02 -0.31637515315E+03 -0.44011508926E+03  0.54546476031E+03  0.00000000000E+00 0.  1.
          1    1    3    3  501    0  0.41316963762E+02  0.31665023859E+03 -0.42205038382E+03  0.52924568168E+03  0.00000000000E+00 0.  1.
         21    1    1    2  502  501  0.19816295678E+02 -0.27508543672E+00 -0.28451017198E+02  0.34673067733E+02  0.00000000000E+00 0.  1.
<mgrwt>
<rscale>  1 0.30000000E+03</rscale>
<asrwt>0</asrwt>
<pdfrwt beam="1">  1        1 0.39775906E+00 0.30000000E+03</pdfrwt>
<pdfrwt beam="2">0</pdfrwt>
<totfact> 0.10845109E+00</totfact>
</mgrwt>
</event>
<event>
 6    1  0.5260809E-006  0.3000000E+03  0.7818608E-02  0.1093470E+00
          1   -1    0    0  502    0  0.00000000000E+00  0.00000000000E+00  0.11271434839E+03  0.11271434839E+03  0.00000000000E+00 0.  1.
         13   -1    0    0    0    0 -0.00000000000E+00 -0.00000000000E+00 -0.10000000000E+04  0.10000000000E+04  0.00000000000E+00 0.  1.
    9000005    2    1    2  501    0 -0.17108584780E+01 -0.15465352180E+02 -0.88649928436E+03  0.10971347936E+04  0.64620559418E+03 0.  0.
         13    1    3    3    0    0  0.30662979934E+03  0.19935671509E+01 -0.27417674757E+03  0.41133769225E+03  0.00000000000E+00 0.  1.
          1    1    3    3  501    0 -0.30834065782E+03 -0.17458919331E+02 -0.61232253679E+03  0.68579710133E+03  0.00000000000E+00 0.  1.
         21    1    1    2  502  501  0.17108584780E+01  0.15465352180E+02 -0.78636724906E+00  0.15579554815E+02  0.00000000000E+00 0. -1.
<mgrwt>
<rscale>  1 0.30000000E+03</rscale>
<asrwt>0</asrwt>
<pdfrwt beam="1">  1        1 0.40987122E+00 0.30000000E+03</pdfrwt>
<pdfrwt beam="2">0</pdfrwt>
<totfact> 0.92296723E-01</totfact>
</mgrwt>
</event>
<event>
 6    1  0.5260809E-006  0.3000000E+03  0.7818608E-02  0.1093470E+00
          1   -1    0    0  502    0  0.00000000000E+00  0.00000000000E+00  0.13223680087E+03  0.13223680087E+03  0.00000000000E+00 0.  1.
         13   -1    0    0    0    0 -0.00000000000E+00 -0.00000000000E+00 -0.10000000000E+04  0.10000000000E+04  0.00000000000E+00 0.  1.
    9000005    2    1    2  501    0 -0.24948040309E+01  0.13533485217E+02 -0.89068039832E+03  0.11055052224E+04  0.65470668661E+03 0.  0.
         13    1    3    3    0    0 -0.15341392141E+03 -0.17815251537E+03 -0.64119351723E+02  0.24369128274E+03  0.00000000000E+00 0.  1.
          3    1    3    3  501    0  0.15091911738E+03  0.19168600059E+03 -0.82656104660E+03  0.86181393965E+03  0.00000000000E+00 0.  1.
         21    1    1    2  502  501  0.24948040309E+01 -0.13533485217E+02  0.22917199190E+02  0.26731578479E+02  0.00000000000E+00 0.  1.
<mgrwt>
<rscale>  1 0.30000000E+03</rscale>
<asrwt>0</asrwt>
<pdfrwt beam="1">  1        1 0.48086211E+00 0.30000000E+03</pdfrwt>
<pdfrwt beam="2">0</pdfrwt>
<totfact> 0.31487591E-01</totfact>
</mgrwt>
</event>
<event>
 6    1  0.5260809E-006  0.3000000E+03  0.7818608E-02  0.1093470E+00
          1   -1    0    0  502    0  0.00000000000E+00  0.00000000000E+00  0.11544606611E+03  0.11544606611E+03  0.00000000000E+00 0.  1.
         13   -1    0    0    0    0 -0.00000000000E+00 -0.00000000000E+00 -0.10000000000E+04  0.10000000000E+04  0.00000000000E+00 0.  1.
    9000005    2    1    2  501    0  0.13233004060E+01  0.10935184127E+02 -0.89522909323E+03  0.11001069526E+04  0.63927994530E+03 0.  0.
         13    1    3    3    0    0  0.30068377006E+03  0.30087813250E+02 -0.63399876609E+03  0.70233214471E+03  0.00000000000E+00 0.  1.
          3    1    3    3  501    0 -0.29936046965E+03 -0.19152629123E+02 -0.26123032714E+03  0.39777480791E+03  0.00000000000E+00 0.  1.
         21    1    1    2  502  501 -0.13233004060E+01 -0.10935184127E+02  0.10675159341E+02  0.15339113495E+02  0.00000000000E+00 0.  1.
<mgrwt>
<rscale>  1 0.30000000E+03</rscale>
<asrwt>0</asrwt>
<pdfrwt beam="1">  1        1 0.41980476E+00 0.30000000E+03</pdfrwt>
<pdfrwt beam="2">0</pdfrwt>
<totfact> 0.80424584E-01</totfact>
</mgrwt>
</event>
<event>
 6    1  0.5260809E-006  0.3000000E+03  0.7818608E-02  0.1093470E+00
          1   -1    0    0  502    0  0.00000000000E+00  0.00000000000E+00  0.13748295887E+03  0.13748295887E+03  0.00000000000E+00 0.  1.
         13   -1    0    0    0    0 -0.00000000000E+00 -0.00000000000E+00 -0.10000000000E+04  0.10000000000E+04  0.00000000000E+00 0.  1.
    9000005    2    1    2  501    0  0.54766623324E+02  0.30913864439E+01 -0.83969244323E+03  0.10780699807E+04  0.67390099011E+03 0.  0.
         13    1    3    3    0    0  0.66204984287E+02 -0.91224632120E+02 -0.93601438458E+03  0.94277672945E+03  0.00000000000E+00 0.  1.
          1    1    3    3  501    0 -0.11438360962E+02  0.94316018564E+02  0.96321941354E+02  0.13529325129E+03  0.00000000000E+00 0.  1.
         21    1    1    2  502  501 -0.54766623324E+02 -0.30913864439E+01 -0.22824597898E+02  0.59412978125E+02  0.00000000000E+00 0.  1.
<mgrwt>
<rscale>  1 0.30000000E+03</rscale>
<asrwt>0</asrwt>
<pdfrwt beam="1">  1        1 0.49993909E+00 0.30000000E+03</pdfrwt>
<pdfrwt beam="2">0</pdfrwt>
<totfact> 0.22861978E-01</totfact>
</mgrwt>
</event>
<event>
 6    1  0.5260809E-006  0.3000000E+03  0.7818608E-02  0.1093470E+00
          1   -1    0    0  502    0  0.00000000000E+00  0.00000000000E+00  0.13036373749E+03  0.13036373749E+03  0.00000000000E+00 0.  1.
         13   -1    0    0    0    0 -0.00000000000E+00 -0.00000000000E+00 -0.10000000000E+04  0.10000000000E+04  0.00000000000E+00 0.  1.
    9000005    2    1    2  501    0  0.91622696480E+01 -0.14216569180E+02 -0.89048278943E+03  0.11035190786E+04  0.65154332214E+03 0.  0.
         13    1    3    3    0    0 -0.30032357836E+03  0.11405836624E+02 -0.24698224436E+03  0.38900459361E+03  0.00000000000E+00 0.  1.
          1    1    3    3  501    0  0.30948584801E+03 -0.25622405804E+02 -0.64350054507E+03  0.71451448502E+03  0.00000000000E+00 0.  1.
         21    1    1    2  502  501 -0.91622696480E+01  0.14216569180E+02  0.20846526916E+02  0.26844658850E+02  0.00000000000E+00 0. -1.
<mgrwt>
<rscale>  1 0.30000000E+03</rscale>
<asrwt>0</asrwt>
<pdfrwt beam="1">  1        1 0.47405095E+00 0.30000000E+03</pdfrwt>
<pdfrwt beam="2">0</pdfrwt>
<totfact> 0.35214102E-01</totfact>
</mgrwt>
</event>
<event>
 6    1  0.5260809E-006  0.3000000E+03  0.7818608E-02  0.1093470E+00
          1   -1    0    0  502    0  0.00000000000E+00  0.00000000000E+00  0.11522727847E+03  0.11522727847E+03  0.00000000000E+00 0.  1.
         13   -1    0    0    0    0 -0.00000000000E+00 -0.00000000000E+00 -0.10000000000E+04  0.10000000000E+04  0.00000000000E+00 0.  1.
    9000005    2    1    2  501    0  0.84066520281E+01 -0.86658964271E+01 -0.88921941218E+03  0.11023609419E+04  0.65141592984E+03 0.  0.
         13    1    3    3    0    0  0.10832406457E+03  0.20547637509E+03 -0.59687254744E+02  0.23982746312E+03  0.00000000000E+00 0.  1.
          3    1    3    3  501    0 -0.99917412544E+02 -0.21414227152E+03 -0.82953215744E+03  0.86253347877E+03  0.00000000000E+00 0.  1.
         21    1    1    2  502  501 -0.84066520281E+01  0.86658964271E+01  0.44466906489E+01  0.12866336578E+02  0.00000000000E+00 0.  1.
<mgrwt>
<rscale>  1 0.30000000E+03</rscale>
<asrwt>0</asrwt>
<pdfrwt beam="1">  1        1 0.41900917E+00 0.30000000E+03</pdfrwt>
<pdfrwt beam="2">0</pdfrwt>
<totfact> 0.81333413E-01</totfact>
</mgrwt>
</event>
<event>
 6    1  0.5260809E-006  0.3000000E+03  0.7818608E-02  0.1093470E+00
          1   -1    0    0  502    0  0.00000000000E+00  0.00000000000E+00  0.11001025722E+03  0.11001025722E+03  0.00000000000E+00 0.  1.
         13   -1    0    0    0    0 -0.00000000000E+00 -0.00000000000E+00 -0.10000000000E+04  0.10000000000E+04  0.00000000000E+00 0.  1.
    9000005    2    1    2  501    0 -0.12095874100E+02 -0.28786736916E+01 -0.86716045152E+03  0.10840146139E+04  0.65035823784E+03 0.  0.
         13    1    3    3    0    0  0.30757970666E+03 -0.87490297656E+02 -0.42293532352E+03  0.53022081816E+03  0.00000000000E+00 0.  1.
          3    1    3    3  501    0 -0.31967558076E+03  0.84611623965E+02 -0.44422512800E+03  0.55379379573E+03  0.00000000000E+00 0.  1.
         21    1    1    2  502  501  0.12095874100E+02  0.28786736916E+01 -0.22829291257E+02  0.25995643322E+02  0.00000000000E+00 0. -1.
<mgrwt>
<rscale>  1 0.30000000E+03</rscale>
<asrwt>0</asrwt>
<pdfrwt beam="1">  1        1 0.40003814E+00 0.30000000E+03</pdfrwt>
<pdfrwt beam="2">0</pdfrwt>
<totfact> 0.10526441E+00</totfact>
</mgrwt>
</event>
<event>
 6    1  0.5260809E-006  0.3000000E+03  0.7818608E-02  0.1093470E+00
          1   -1    0    0  502    0  0.00000000000E+00  0.00000000000E+00  0.13543484836E+03  0.13543484836E+03  0.00000000000E+00 0.  1.
         13   -1    0    0    0    0 -0.00000000000E+00 -0.00000000000E+00 -0.10000000000E+04  0.10000000000E+04  0.00000000000E+00 0.  1.
    9000005    2    1    2  501    0 -0.36140308034E+02  0.66302776926E+02 -0.81982786560E+03  0.10476646663E+04  0.64790535092E+03 0.  0.
         13    1    3    3    0    0  0.80345745841E+02 -0.27110942581E+02  0.91171494442E+02  0.12450977263E+03  0.00000000000E+00 0.  1.
          3    1    3    3  501    0 -0.11648605387E+03  0.93413719507E+02 -0.91099936004E+03  0.92315489369E+03  0.00000000000E+00 0.  1.
         21    1    1    2  502  501  0.36140308034E+02 -0.66302776926E+02 -0.44737286039E+02  0.87770182038E+02  0.00000000000E+00 0.  1.
<mgrwt>
<rscale>  1 0.30000000E+03</rscale>
<asrwt>0</asrwt>
<pdfrwt beam="1">  1        1 0.49249140E+00 0.30000000E+03</pdfrwt>
<pdfrwt beam="2">0</pdfrwt>
<totfact> 0.25925613E-01</totfact>
</mgrwt>
</event>
<event>
 6    1  0.5260809E-006  0.3000000E+03  0.7818608E-02  0.1093470E+00
          1   -1    0    0  502    0  0.00000000000E+00  0.00000000000E+00  0.12219153189E+03  0.12219153189E+03  0.00000000000E+00 0.  1.
         13   -1    0    0    0    0 -0.00000000000E+00 -0.00000000000E+00 -0.10000000000E+04  0.10000000000E+04  0.00000000000E+00 0.  1.
    9000005    2    1    2  501    0 -0.17497759201E+01  0.14719858001E+02 -0.89213328610E+03  0.11015775477E+04  0.64602752063E+03 0.  0.
         13    1    3    3    0    0 -0.27523742356E+03 -0.15886780453E+03 -0.50656930283E+03  0.59800257292E+03  0.00000000000E+00 0.  1.
          1    1    3    3  501    0  0.27348764764E+03  0.17358766253E+03 -0.38556398327E+03  0.50357497474E+03  0.00000000000E+00 0.  1.
         21    1    1    2  502  501  0.17497759201E+01 -0.14719858001E+02  0.14324817992E+02  0.20613984230E+02  0.00000000000E+00 0. -1.
<mgrwt>
<rscale>  1 0.30000000E+03</rscale>
<asrwt>0</asrwt>
<pdfrwt beam="1">  1        1 0.44433378E+00 0.30000000E+03</pdfrwt>
<pdfrwt beam="2">0</pdfrwt>
<totfact> 0.56140833E-01</totfact>
</mgrwt>
</event>
<event>
 6    1  0.5260809E-006  0.3000000E+03  0.7818608E-02  0.1093470E+00
          1   -1    0    0  502    0  0.00000000000E+00  0.00000000000E+00  0.12018884859E+03  0.12018884859E+03  0.00000000000E+00 0.  1.
         13   -1    0    0    0    0 -0.00000000000E+00 -0.00000000000E+00 -0.10000000000E+04  0.10000000000E+04  0.00000000000E+00 0.  1.
    9000005    2    1    2  501    0 -0.43576234893E+02 -0.20679737953E+02 -0.85663809125E+03  0.10666768824E+04  0.63375406289E+03 0.  0.
         13    1    3    3    0    0  0.53192693556E+02 -0.31746411683E+03 -0.47190082006E+03  0.57122964917E+03  0.00000000000E+00 0.  1.
          1    1    3    3  501    0 -0.96768928449E+02  0.29678437888E+03 -0.38473727119E+03  0.49544723322E+03  0.00000000000E+00 0.  1.
         21    1    1    2  502  501  0.43576234893E+02  0.20679737953E+02 -0.23173060163E+02  0.53511966200E+02  0.00000000000E+00 0.  1.
<mgrwt>
<rscale>  1 0.30000000E+03</rscale>
<asrwt>0</asrwt>
<pdfrwt beam="1">  1        1 0.43705128E+00 0.30000000E+03</pdfrwt>
<pdfrwt beam="2">0</pdfrwt>
<totfact> 0.62637526E-01</totfact>
</mgrwt>
</event>
<event>
 6    1  0.5260809E-006  0.3000000E+03  0.7818608E-02  0.1093470E+00
          1   -1    0    0  502    0  0.00000000000E+00  0.00000000000E+00  0.11226261578E+03  0.11226261578E+03  0.00000000000E+00 0.  1.
         13   -1    0    0    0    0 -0.00000000000E+00 -0.00000000000E+00 -0.10000000000E+04  0.10000000000E+04  0.00000000000E+00 0.  1.
    9000005    2    1    2  501    0  0.12402040518E+02 -0.16671535746E+01 -0.88601587545E+03  0.10996311629E+04  0.65115894588E+03 0.  0.
         13    1    3    3    0    0  0.32674124579E+03  0.55216533613E+02 -0.43044688838E+03  0.54322484387E+03  0.00000000000E+00 0.  1.
          3    1    3    3  501    0 -0.31433920528E+03 -0.56883687187E+02 -0.45556898707E+03  0.55640631900E+03  0.00000000000E+00 0.  1.
         21    1    1    2  502  501 -0.12402040518E+02  0.16671535746E+01 -0.17215087739E+01  0.12631452906E+02  0.00000000000E+00 0. -1.
<mgrwt>
<rscale>  1 0.30000000E+03</rscale>
<asrwt>0</asrwt>
<pdfrwt beam="1">  1        1 0.40822855E+00 0.30000000E+03</pdfrwt>
<pdfrwt beam="2">0</pdfrwt>
<totfact> 0.94376991E-01</totfact>
</mgrwt>
</event>
<event>
 6    1  0.5260809E-006  0.3000000E+03  0.7818608E-02  0.1093470E+00
          1   -1    0    0  502    0  0.00000000000E+00  0.00000000000E+00  0.15008871009E+03  0.15008871009E+03  0.00000000000E+00 0.  1.
         13   -1    0    0    0    0 -0.00000000000E+00 -0.00000000000E+00 -0.10000000000E+04  0.10000000000E+04  0.00000000000E+00 0.  1.
    9000005    2    1    2  501    0 -0.61819199340E+02  0.40924410608E+01 -0.87154966309E+03  0.10844641669E+04  0.64235920830E+03 0.  0.
         13    1    3    3    0    0 -0.83920780252E+02  0.24695108104E+02  0.88208343895E+02  0.12423066310E+03  0.00000000000E+00 0.  1.
          3    1    3    3  501    0  0.22101580913E+02 -0.20602667043E+02 -0.95975800698E+03  0.96023350376E+03  0.00000000000E+00 0.  1.
         21    1    1    2  502  501  0.61819199340E+02 -0.40924410608E+01  0.21638373180E+02  0.65624543234E+02  0.00000000000E+00 0.  1.
<mgrwt>
<rscale>  1 0.30000000E+03</rscale>
<asrwt>0</asrwt>
<pdfrwt beam="1">  1        1 0.54577828E+00 0.30000000E+03</pdfrwt>
<pdfrwt beam="2">0</pdfrwt>
<totfact> 0.10492951E-01</totfact>
</mgrwt>
</event>
<event>
 6    1  0.5260809E-006  0.3000000E+03  0.7818608E-02  0.1093470E+00
          1   -1    0    0  502    0  0.00000000000E+00  0.00000000000E+00  0.96598619300E+02  0.96598619300E+02  0.00000000000E+00 0.  1.
         13   -1    0    0    0    0 -0.00000000000E+00 -0.00000000000E+00 -0.10000000000E+04  0.10000000000E+04  0.00000000000E+00 0.  1.
    9000005    2    1    2  501    0 -0.94544093520E+01 -0.32205046186E+01 -0.89971077681E+03  0.10859507057E+04  0.60803757769E+03 0.  0.
         13    1    3    3    0    0  0.22277858809E+03 -0.12025038307E+03 -0.15429631858E+03  0.29647564465E+03  0.00000000000E+00 0.  1.
          3    1    3    3  501    0 -0.23223299744E+03  0.11702987846E+03 -0.74541445822E+03  0.78947506109E+03  0.00000000000E+00 0.  1.
         21    1    1    2  502  501  0.94544093520E+01  0.32205046186E+01 -0.36906038934E+01  0.10647913565E+02  0.00000000000E+00 0. -1.
<mgrwt>
<rscale>  1 0.30000000E+03</rscale>
<asrwt>0</asrwt>
<pdfrwt beam="1">  1        1 0.35126845E+00 0.30000000E+03</pdfrwt>
<pdfrwt beam="2">0</pdfrwt>
<totfact> 0.19397287E+00</totfact>
</mgrwt>
</event>
<event>
 6    1  0.5260809E-006  0.3000000E+03  0.7818608E-02  0.1093470E+00
          1   -1    0    0  502    0  0.00000000000E+00  0.00000000000E+00  0.11537426543E+03  0.11537426543E+03  0.00000000000E+00 0.  1.
         13   -1    0    0    0    0 -0.00000000000E+00 -0.00000000000E+00 -0.10000000000E+04  0.10000000000E+04  0.00000000000E+00 0.  1.
    9000005    2    1    2  501    0  0.12656061695E+01 -0.21053307654E+02 -0.88230788970E+03  0.10941559732E+04  0.64673428690E+03 0.  0.
         13    1    3    3    0    0 -0.21226402340E+03 -0.25402966905E+03 -0.45471760063E+03  0.56245460681E+03  0.00000000000E+00 0.  1.
          3    1    3    3  501    0  0.21352962957E+03  0.23297636140E+03 -0.42759028907E+03  0.53170136636E+03  0.00000000000E+00 0.  1.
         21    1    1    2  502  501 -0.12656061695E+01  0.21053307654E+02 -0.23178448646E+01  0.21218292273E+02  0.00000000000E+00 0.  1.
<mgrwt>
<rscale>  1 0.30000000E+03</rscale>
<asrwt>0</asrwt>
<pdfrwt beam="1">  1        1 0.41954367E+00 0.30000000E+03</pdfrwt>
<pdfrwt beam="2">0</pdfrwt>
<totfact> 0.80722045E-01</totfact>
</mgrwt>
</event>
<event>
 6    1  0.5260809E-006  0.3000000E+03  0.7818608E-02  0.1093470E+00
          1   -1    0    0  502    0  0.00000000000E+00  0.00000000000E+00  0.14889585287E+03  0.14889585287E+03  0.00000000000E+00 0.  1.
         13   -1    0    0    0    0 -0.00000000000E+00 -0.00000000000E+00 -0.10000000000E+04  0.10000000000E+04  0.00000000000E+00 0.  1.
    9000005    2    1    2  501    0 -0.26873745288E+01 -0.12459031814E+02 -0.89183150683E+03  0.11062207163E+04  0.65436869353E+03 0.  0.
         13    1    3    3    0    0 -0.15544690260E+03  0.27232370834E+03 -0.56751384848E+03  0.64837944899E+03  0.00000000000E+00 0.  1.
          1    1    3    3  501    0  0.15275952807E+03 -0.28478274016E+03 -0.32431765835E+03  0.45784126728E+03  0.00000000000E+00 0.  1.
         21    1    1    2  502  501  0.26873745288E+01  0.12459031814E+02  0.40727359706E+02  0.42675136604E+02  0.00000000000E+00 0.  1.
<mgrwt>
<rscale>  1 0.30000000E+03</rscale>
<asrwt>0</asrwt>
<pdfrwt beam="1">  1        1 0.54144061E+00 0.30000000E+03</pdfrwt>
<pdfrwt beam="2">0</pdfrwt>
<totfact> 0.11234180E-01</totfact>
</mgrwt>
</event>
<event>
 6    1  0.5260809E-006  0.3000000E+03  0.7818608E-02  0.1093470E+00
          1   -1    0    0  502    0  0.00000000000E+00  0.00000000000E+00  0.11245169322E+03  0.11245169322E+03  0.00000000000E+00 0.  1.
         13   -1    0    0    0    0 -0.00000000000E+00 -0.00000000000E+00 -0.10000000000E+04  0.10000000000E+04  0.00000000000E+00 0.  1.
    9000005    2    1    2  501    0 -0.12970703266E+02 -0.20752659700E+01 -0.88447225767E+03  0.10989606610E+04  0.65211257769E+03 0.  0.
         13    1    3    3    0    0  0.11369799367E+03  0.29627474352E+03 -0.33824473706E+03  0.46380541131E+03  0.00000000000E+00 0.  1.
          3    1    3    3  501    0 -0.12666869694E+03 -0.29835000949E+03 -0.54622752061E+03  0.63515524970E+03  0.00000000000E+00 0.  1.
         21    1    1    2  502  501  0.12970703266E+02  0.20752659700E+01 -0.30760491051E+01  0.13491032212E+02  0.00000000000E+00 0.  1.
<mgrwt>
<rscale>  1 0.30000000E+03</rscale>
<asrwt>0</asrwt>
<pdfrwt beam="1">  1        1 0.40891611E+00 0.30000000E+03</pdfrwt>
<pdfrwt beam="2">0</pdfrwt>
<totfact> 0.93502095E-01</totfact>
</mgrwt>
</event>
<event>
 6    1  0.5260809E-006  0.3000000E+03  0.7818608E-02  0.1093470E+00
          1   -1    0    0  502    0  0.00000000000E+00  0.00000000000E+00  0.12366198551E+03  0.12366198551E+03  0.00000000000E+00 0.  1.
         13   -1    0    0    0    0 -0.00000000000E+00 -0.00000000000E+00 -0.10000000000E+04  0.10000000000E+04  0.00000000000E+00 0.  1.
    9000005    2    1    2  501    0  0.11792820116E+02 -0.88189549479E+01 -0.87992429130E+03  0.11085059321E+04  0.67401913814E+03 0.  0.
         13    1    3    3    0    0  0.98258853498E+02  0.28413181561E+03 -0.19441490542E+03  0.35802632080E+03  0.00000000000E+00 0.  1.
          3    1    3    3  501    0 -0.86466033382E+02 -0.29295077056E+03 -0.68550938588E+03  0.75047961133E+03  0.00000000000E+00 0.  1.
         21    1    1    2  502  501 -0.11792820116E+02  0.88189549479E+01  0.35862768078E+01  0.15156053378E+02  0.00000000000E+00 0. -1.
<mgrwt>
<rscale>  1 0.30000000E+03</rscale>
<asrwt>0</asrwt>
<pdfrwt beam="1">  1        1 0.44968090E+00 0.30000000E+03</pdfrwt>
<pdfrwt beam="2">0</pdfrwt>
<totfact> 0.51709785E-01</totfact>
</mgrwt>
</event>
<event>
 6    1  0.5260809E-006  0.3000000E+03  0.7818608E-02  0.1093470E+00
          1   -1    0    0  502    0  0.00000000000E+00  0.00000000000E+00  0.10807743892E+03  0.10807743892E+03  0.00000000000E+00 0.  1.
         13   -1    0    0    0    0 -0.00000000000E+00 -0.00000000000E+00 -0.10000000000E+04  0.10000000000E+04  0.00000000000E+00 0.  1.
    9000005    2    1    2  501    0 -0.24984899898E+02 -0.25201234731E+02 -0.77474061525E+03  0.98563987981E+03  0.60827921573E+03 0.  0.
         13    1    3    3    0    0 -0.25634842987E+03 -0.66874592836E+02 -0.12164224733E+03  0.29151940758E+03  0.00000000000E+00 0.  1.
          3    1    3    3  501    0  0.23136352997E+03  0.41673358105E+02 -0.65309836792E+03  0.69412047222E+03  0.00000000000E+00 0.  1.
         21    1    1    2  502  501  0.24984899898E+02  0.25201234731E+02 -0.11718194583E+03  0.12243755912E+03  0.00000000000E+00 0.  1.
<mgrwt>
<rscale>  1 0.30000000E+03</rscale>
<asrwt>0</asrwt>
<pdfrwt beam="1">  1        1 0.39300970E+00 0.30000000E+03</pdfrwt>
<pdfrwt beam="2">0</pdfrwt>
<totfact> 0.11534906E+00</totfact>
</mgrwt>
</event>
<event>
 6    1  0.5260809E-006  0.3000000E+03  0.7818608E-02  0.1093470E+00
          1   -1    0    0  502    0  0.00000000000E+00  0.00000000000E+00  0.13043044727E+03  0.13043044727E+03  0.00000000000E+00 0.  1.
         13   -1    0    0    0    0 -0.00000000000E+00 -0.00000000000E+00 -0.10000000000E+04  0.10000000000E+04  0.00000000000E+00 0.  1.
    9000005    2    1    2  501    0 -0.47732522174E+02  0.86464397217E+01 -0.85432387773E+03  0.10795817973E+04  0.65823583502E+03 0.  0.
         13    1    3    3    0    0  0.20050201191E+03  0.24454621485E+03 -0.44459949236E+03  0.54559382015E+03  0.00000000000E+00 0.  1.
          1    1    3    3  501    0 -0.24823453408E+03 -0.23589977513E+03 -0.40972438537E+03  0.53398797719E+03  0.00000000000E+00 0.  1.
         21    1    1    2  502  501  0.47732522174E+02 -0.86464397217E+01 -0.15245675009E+02  0.50848649928E+02  0.00000000000E+00 0. -1.
<mgrwt>
<rscale>  1 0.30000000E+03</rscale>
<asrwt>0</asrwt>
<pdfrwt beam="1">  1        1 0.47429354E+00 0.30000000E+03</pdfrwt>
<pdfrwt beam="2">0</pdfrwt>
<totfact> 0.35075118E-01</totfact>
</mgrwt>
</event>
<event>
 6    1  0.5260809E-006  0.3000000E+03  0.7818608E-02  0.1093470E+00
          1   -1    0    0  502    0  0.00000000000E+00  0.00000000000E+00  0.11578712013E+03  0.11578712013E+03  0.00000000000E+00 0.  1.
         13   -1    0    0    0    0 -0.00000000000E+00 -0.00000000000E+00 -0.10000000000E+04  0.10000000000E+04  0.00000000000E+00 0.  1.
    9000005    2    1    2  501    0 -0.69366499205E+01  0.97604899845E+01 -0.89327856923E+03  0.11007680988E+04  0.64311773487E+03 0.  0.
         13    1    3    3    0    0 -0.78605781872E+02  0.28929025489E+03 -0.23134163874E+03  0.37866432937E+03  0.00000000000E+00 0.  1.
          1    1    3    3  501    0  0.71669131951E+02 -0.27952976491E+03 -0.66193693049E+03  0.72210376948E+03  0.00000000000E+00 0.  1.
         21    1    1    2  502  501  0.69366499205E+01 -0.97604899845E+01  0.90656893635E+01  0.15019021289E+02  0.00000000000E+00 0. -1.
<mgrwt>
<rscale>  1 0.30000000E+03</rscale>
<asrwt>0</asrwt>
<pdfrwt beam="1">  1        1 0.42104496E+00 0.30000000E+03</pdfrwt>
<pdfrwt beam="2">0</pdfrwt>
<totfact> 0.79022414E-01</totfact>
</mgrwt>
</event>
<event>
 6    1  0.5260809E-006  0.3000000E+03  0.7818608E-02  0.1093470E+00
          1   -1    0    0  502    0  0.00000000000E+00  0.00000000000E+00  0.13159410082E+03  0.13159410082E+03  0.00000000000E+00 0.  1.
         13   -1    0    0    0    0 -0.00000000000E+00 -0.00000000000E+00 -0.10000000000E+04  0.10000000000E+04  0.00000000000E+00 0.  1.
    9000005    2    1    2  501    0  0.37978666487E+01 -0.96467583882E+01 -0.89696356731E+03  0.11012127883E+04  0.63876324283E+03 0.  0.
         13    1    3    3    0    0  0.98753342297E+02 -0.29240962640E+03 -0.28351147859E+03  0.41908754541E+03  0.00000000000E+00 0.  1.
          1    1    3    3  501    0 -0.94955475649E+02  0.28276286802E+03 -0.61345208872E+03  0.68212524293E+03  0.00000000000E+00 0.  1.
         21    1    1    2  502  501 -0.37978666487E+01  0.96467583882E+01  0.28557668130E+02  0.30381312471E+02  0.00000000000E+00 0. -1.
<mgrwt>
<rscale>  1 0.30000000E+03</rscale>
<asrwt>0</asrwt>
<pdfrwt beam="1">  1        1 0.47852501E+00 0.30000000E+03</pdfrwt>
<pdfrwt beam="2">0</pdfrwt>
<totfact> 0.32726057E-01</totfact>
</mgrwt>
</event>
<event>
 6    1  0.5260809E-006  0.3000000E+03  0.7818608E-02  0.1093470E+00
          1   -1    0    0  502    0  0.00000000000E+00  0.00000000000E+00  0.11301890164E+03  0.11301890164E+03  0.00000000000E+00 0.  1.
         13   -1    0    0    0    0 -0.00000000000E+00 -0.00000000000E+00 -0.10000000000E+04  0.10000000000E+04  0.00000000000E+00 0.  1.
    9000005    2    1    2  501    0 -0.18050807088E+02  0.15184271596E+01 -0.88532198836E+03  0.10948285222E+04  0.64383719428E+03 0.  0.
         13    1    3    3    0    0  0.71639899623E+02  0.28967999571E+03 -0.24188227700E+03  0.38412733704E+03  0.00000000000E+00 0.  1.
          3    1    3    3  501    0 -0.89690706711E+02 -0.28816156855E+03 -0.64343971137E+03  0.71070118518E+03  0.00000000000E+00 0.  1.
         21    1    1    2  502  501  0.18050807088E+02 -0.15184271596E+01 -0.16591099962E+01  0.18190379423E+02  0.00000000000E+00 0.  1.
<mgrwt>
<rscale>  1 0.30000000E+03</rscale>
<asrwt>0</asrwt>
<pdfrwt beam="1">  1        1 0.41097869E+00 0.30000000E+03</pdfrwt>
<pdfrwt beam="2">0</pdfrwt>
<totfact> 0.90913528E-01</totfact>
</mgrwt>
</event>
<event>
 6    1  0.5260809E-006  0.3000000E+03  0.7818608E-02  0.1093470E+00
          1   -1    0    0  502    0  0.00000000000E+00  0.00000000000E+00  0.12908423653E+03  0.12908423653E+03  0.00000000000E+00 0.  1.
         13   -1    0    0    0    0 -0.00000000000E+00 -0.00000000000E+00 -0.10000000000E+04  0.10000000000E+04  0.00000000000E+00 0.  1.
    9000005    2    1    2  501    0  0.10517872709E+02 -0.69201199538E+01 -0.88165670966E+03  0.11125348670E+04  0.67842226003E+03 0.  0.
         13    1    3    3    0    0  0.76883848361E+02  0.32322500201E+03 -0.53092153250E+03  0.62630919021E+03  0.00000000000E+00 0.  1.
          1    1    3    3  501    0 -0.66365975652E+02 -0.33014512197E+03 -0.35073517716E+03  0.48622567680E+03  0.00000000000E+00 0.  1.
         21    1    1    2  502  501 -0.10517872709E+02  0.69201199538E+01  0.10740946192E+02  0.16549369523E+02  0.00000000000E+00 0. -1.
<mgrwt>
<rscale>  1 0.30000000E+03</rscale>
<asrwt>0</asrwt>
<pdfrwt beam="1">  1        1 0.46939821E+00 0.30000000E+03</pdfrwt>
<pdfrwt beam="2">0</pdfrwt>
<totfact> 0.37971366E-01</totfact>
</mgrwt>
</event>
<event>
 6    1  0.5260809E-006  0.3000000E+03  0.7818608E-02  0.1093470E+00
          1   -1    0    0  502    0  0.00000000000E+00  0.00000000000E+00  0.13030359105E+03  0.13030359105E+03  0.00000000000E+00 0.  1.
         13   -1    0    0    0    0 -0.00000000000E+00 -0.00000000000E+00 -0.10000000000E+04  0.10000000000E+04  0.00000000000E+00 0.  1.
    9000005    2    1    2  501    0  0.45514010145E+01  0.90039826931E+01 -0.90624230167E+03  0.10923906746E+04  0.60986923988E+03 0.  0.
         13    1    3    3    0    0 -0.26328180788E+03  0.71069089220E+02 -0.69214509999E+03  0.74393075299E+03  0.00000000000E+00 0.  1.
          1    1    3    3  501    0  0.26783320889E+03 -0.62065106527E+02 -0.21409720168E+03  0.34845992166E+03  0.00000000000E+00 0.  1.
         21    1    1    2  502  501 -0.45514010145E+01 -0.90039826931E+01  0.36545892718E+02  0.37912916401E+02  0.00000000000E+00 0.  1.
<mgrwt>
<rscale>  1 0.30000000E+03</rscale>
<asrwt>0</asrwt>
<pdfrwt beam="1">  1        1 0.47383224E+00 0.30000000E+03</pdfrwt>
<pdfrwt beam="2">0</pdfrwt>
<totfact> 0.35339817E-01</totfact>
</mgrwt>
</event>
<event>
 6    1  0.5260809E-006  0.3000000E+03  0.7818608E-02  0.1093470E+00
          1   -1    0    0  502    0  0.00000000000E+00  0.00000000000E+00  0.87944642126E+02  0.87944642126E+02  0.00000000000E+00 0.  1.
         13   -1    0    0    0    0 -0.00000000000E+00 -0.00000000000E+00 -0.10000000000E+04  0.10000000000E+04  0.00000000000E+00 0.  1.
    9000005    2    1    2  501    0 -0.86563079205E+01 -0.98047358514E+01 -0.91104842708E+03  0.10748267756E+04  0.57015111734E+03 0.  0.
         13    1    3    3    0    0 -0.19152027479E+03 -0.92325123200E+02 -0.92170231292E+02  0.23173108459E+03  0.00000000000E+00 0.  1.
          1    1    3    3  501    0  0.18286396687E+03  0.82520387349E+02 -0.81887819579E+03  0.84309569103E+03  0.00000000000E+00 0.  1.
         21    1    1    2  502  501  0.86563079205E+01  0.98047358514E+01 -0.10069307960E+01  0.13117866502E+02  0.00000000000E+00 0.  1.
<mgrwt>
<rscale>  1 0.30000000E+03</rscale>
<asrwt>0</asrwt>
<pdfrwt beam="1">  1        1 0.31979937E+00 0.30000000E+03</pdfrwt>
<pdfrwt beam="2">0</pdfrwt>
<totfact> 0.27908432E+00</totfact>
</mgrwt>
</event>
<event>
 6    1  0.5260809E-006  0.3000000E+03  0.7818608E-02  0.1093470E+00
          1   -1    0    0  502    0  0.00000000000E+00  0.00000000000E+00  0.11023460347E+03  0.11023460347E+03  0.00000000000E+00 0.  1.
         13   -1    0    0    0    0 -0.00000000000E+00 -0.00000000000E+00 -0.10000000000E+04  0.10000000000E+04  0.00000000000E+00 0.  1.
    9000005    2    1    2  501    0  0.16077757066E+01  0.20684099984E+02 -0.87374143295E+03  0.10840204023E+04  0.64128443300E+03 0.  0.
         13    1    3    3    0    0  0.91368542825E+02 -0.29220066057E+03 -0.32880237724E+03  0.44926655777E+03  0.00000000000E+00 0.  1.
          1    1    3    3  501    0 -0.89760767119E+02  0.31288476055E+03 -0.54493905571E+03  0.63475384452E+03  0.00000000000E+00 0.  1.
         21    1    1    2  502  501 -0.16077757066E+01 -0.20684099984E+02 -0.16023963579E+02  0.26214201183E+02  0.00000000000E+00 0.  1.
<mgrwt>
<rscale>  1 0.30000000E+03</rscale>
<asrwt>0</asrwt>
<pdfrwt beam="1">  1        1 0.40085395E+00 0.30000000E+03</pdfrwt>
<pdfrwt beam="2">0</pdfrwt>
<totfact> 0.10414142E+00</totfact>
</mgrwt>
</event>
<event>
 6    1  0.5260809E-006  0.3000000E+03  0.7818608E-02  0.1093470E+00
          1   -1    0    0  502    0  0.00000000000E+00  0.00000000000E+00  0.11905624431E+03  0.11905624431E+03  0.00000000000E+00 0.  1.
         13   -1    0    0    0    0 -0.00000000000E+00 -0.00000000000E+00 -0.10000000000E+04  0.10000000000E+04  0.00000000000E+00 0.  1.
    9000005    2    1    2  501    0  0.51883473536E+01  0.25783834709E+02 -0.88359493936E+03  0.10926222916E+04  0.64217733546E+03 0.  0.
         13    1    3    3    0    0 -0.30465820423E+03 -0.18569002463E+02 -0.58600307676E+03  0.66072765587E+03  0.00000000000E+00 0.  1.
          3    1    3    3  501    0  0.30984655159E+03  0.44352837172E+02 -0.29759186259E+03  0.43189463574E+03  0.00000000000E+00 0.  1.
         21    1    1    2  502  501 -0.51883473536E+01 -0.25783834709E+02  0.26511836614E+01  0.26433952700E+02  0.00000000000E+00 0.  1.
<mgrwt>
<rscale>  1 0.30000000E+03</rscale>
<asrwt>0</asrwt>
<pdfrwt beam="1">  1        1 0.43293271E+00 0.30000000E+03</pdfrwt>
<pdfrwt beam="2">0</pdfrwt>
<totfact> 0.66556246E-01</totfact>
</mgrwt>
</event>
<event>
 6    1  0.5260809E-006  0.3000000E+03  0.7818608E-02  0.1093470E+00
          1   -1    0    0  502    0  0.00000000000E+00  0.00000000000E+00  0.12508915957E+03  0.12508915957E+03  0.00000000000E+00 0.  1.
         13   -1    0    0    0    0 -0.00000000000E+00 -0.00000000000E+00 -0.10000000000E+04  0.10000000000E+04  0.00000000000E+00 0.  1.
    9000005    2    1    2  501    0 -0.66093401677E+01 -0.80212512577E+01 -0.89199947937E+03  0.11050880239E+04  0.65226409179E+03 0.  0.
         13    1    3    3    0    0  0.14335995390E+03 -0.23670130722E+03 -0.15102278780E+03  0.31525777969E+03  0.00000000000E+00 0.  1.
          3    1    3    3  501    0 -0.14996929407E+03  0.22868005596E+03 -0.74097669156E+03  0.78983024416E+03  0.00000000000E+00 0.  1.
         21    1    1    2  502  501  0.66093401677E+01  0.80212512577E+01  0.17088638938E+02  0.20001135716E+02  0.00000000000E+00 0.  1.
<mgrwt>
<rscale>  1 0.30000000E+03</rscale>
<asrwt>0</asrwt>
<pdfrwt beam="1">  1        1 0.45487063E+00 0.30000000E+03</pdfrwt>
<pdfrwt beam="2">0</pdfrwt>
<totfact> 0.47719859E-01</totfact>
</mgrwt>
</event>
<event>
 6    1  0.5260809E-006  0.3000000E+03  0.7818608E-02  0.1093470E+00
          1   -1    0    0  502    0  0.00000000000E+00  0.00000000000E+00  0.70753632052E+02  0.70753632052E+02  0.00000000000E+00 0.  1.
         13   -1    0    0    0    0 -0.00000000000E+00 -0.00000000000E+00 -0.10000000000E+04  0.10000000000E+04  0.00000000000E+00 0.  1.
    9000005    2    1    2  501    0  0.60849392714E+01 -0.73889451634E+01 -0.91883296979E+03  0.10566093096E+04  0.52161056714E+03 0.  0.
         13    1    3    3    0    0 -0.11792030026E+03 -0.18783505829E+03 -0.17884079178E+03  0.28490566007E+03  0.00000000000E+00 0.  1.
          1    1    3    3  501    0  0.12400523953E+03  0.18044611313E+03 -0.73999217801E+03  0.77170364952E+03  0.00000000000E+00 0.  1.
         21    1    1    2  502  501 -0.60849392714E+01  0.73889451634E+01 -0.10413398162E+02  0.14144322460E+02  0.00000000000E+00 0. -1.
<mgrwt>
<rscale>  1 0.30000000E+03</rscale>
<asrwt>0</asrwt>
<pdfrwt beam="1">  1        1 0.25728648E+00 0.30000000E+03</pdfrwt>
<pdfrwt beam="2">0</pdfrwt>
<totfact> 0.55173969E+00</totfact>
</mgrwt>
</event>
<event>
 6    1  0.5260809E-006  0.3000000E+03  0.7818608E-02  0.1093470E+00
          1   -1    0    0  502    0  0.00000000000E+00  0.00000000000E+00  0.12628673428E+03  0.12628673428E+03  0.00000000000E+00 0.  1.
         13   -1    0    0    0    0 -0.00000000000E+00 -0.00000000000E+00 -0.10000000000E+04  0.10000000000E+04  0.00000000000E+00 0.  1.
    9000005    2    1    2  501    0 -0.21504292848E+02  0.16784862964E+02 -0.88139209842E+03  0.10979471735E+04  0.65413438859E+03 0.  0.
         13    1    3    3    0    0  0.23016306119E+03  0.18595013674E+03 -0.65749532482E+03  0.72100803758E+03  0.00000000000E+00 0.  1.
          3    1    3    3  501    0 -0.25166735404E+03 -0.16916527377E+03 -0.22389677360E+03  0.37693913589E+03  0.00000000000E+00 0.  1.
         21    1    1    2  502  501  0.21504292848E+02 -0.16784862964E+02  0.76788326963E+01  0.28339560815E+02  0.00000000000E+00 0. -1.
<mgrwt>
<rscale>  1 0.30000000E+03</rscale>
<asrwt>0</asrwt>
<pdfrwt beam="1">  1        1 0.45922546E+00 0.30000000E+03</pdfrwt>
<pdfrwt beam="2">0</pdfrwt>
<totfact> 0.44603938E-01</totfact>
</mgrwt>
</event>
<event>
 6    1  0.5260809E-006  0.3000000E+03  0.7818608E-02  0.1093470E+00
          1   -1    0    0  502    0  0.00000000000E+00  0.00000000000E+00  0.12319459124E+03  0.12319459124E+03  0.00000000000E+00 0.  1.
         13   -1    0    0    0    0 -0.00000000000E+00 -0.00000000000E+00 -0.10000000000E+04  0.10000000000E+04  0.00000000000E+00 0.  1.
    9000005    2    1    2  501    0  0.24992550905E+02  0.31532501808E+02 -0.82437147855E+03  0.10571019040E+04  0.66049767182E+03 0.  0.
         13    1    3    3    0    0 -0.25000545684E+03  0.20950165313E+03 -0.49317050172E+03  0.59127896536E+03  0.00000000000E+00 0.  1.
          1    1    3    3  501    0  0.27499800775E+03 -0.17796915132E+03 -0.33120097683E+03  0.46582293861E+03  0.00000000000E+00 0.  1.
         21    1    1    2  502  501 -0.24992550905E+02 -0.31532501808E+02 -0.52433930217E+02  0.66092687258E+02  0.00000000000E+00 0. -1.
<mgrwt>
<rscale>  1 0.30000000E+03</rscale>
<asrwt>0</asrwt>
<pdfrwt beam="1">  1        1 0.44798128E+00 0.30000000E+03</pdfrwt>
<pdfrwt beam="2">0</pdfrwt>
<totfact> 0.53084639E-01</totfact>
</mgrwt>
</event>
<event>
 6    1  0.5260809E-006  0.3000000E+03  0.7818608E-02  0.1093470E+00
          1   -1    0    0  502    0  0.00000000000E+00  0.00000000000E+00  0.12653965111E+03  0.12653965111E+03  0.00000000000E+00 0.  1.
         13   -1    0    0    0    0 -0.00000000000E+00 -0.00000000000E+00 -0.10000000000E+04  0.10000000000E+04  0.00000000000E+00 0.  1.
    9000005    2    1    2  501    0  0.16026120270E+02  0.55259148778E+01 -0.88623556165E+03  0.11053128207E+04  0.66031476488E+03 0.  0.
         13    1    3    3    0    0 -0.21507743832E+03  0.13967851605E+03 -0.10060524299E+03  0.27548104696E+03  0.00000000000E+00 0.  1.
          3    1    3    3  501    0  0.23110355859E+03 -0.13415260118E+03 -0.78563031866E+03  0.82983177379E+03  0.00000000000E+00 0.  1.
         21    1    1    2  502  501 -0.16026120270E+02 -0.55259148778E+01  0.12775212752E+02  0.21226830357E+02  0.00000000000E+00 0. -1.
<mgrwt>
<rscale>  1 0.30000000E+03</rscale>
<asrwt>0</asrwt>
<pdfrwt beam="1">  1        1 0.46014516E+00 0.30000000E+03</pdfrwt>
<pdfrwt beam="2">0</pdfrwt>
<totfact> 0.43969564E-01</totfact>
</mgrwt>
</event>
<event>
 6    1  0.5260809E-006  0.3000000E+03  0.7818608E-02  0.1093470E+00
          1   -1    0    0  502    0  0.00000000000E+00  0.00000000000E+00  0.16992488587E+03  0.16992488587E+03  0.00000000000E+00 0.  1.
         13   -1    0    0    0    0 -0.00000000000E+00 -0.00000000000E+00 -0.10000000000E+04  0.10000000000E+04  0.00000000000E+00 0.  1.
    9000005    2    1    2  501    0 -0.12543174405E+03 -0.86837572417E+02 -0.62909871533E+03  0.91760485244E+03  0.65035343099E+03 0.  0.
         13    1    3    3    0    0 -0.68033910984E+02 -0.37088544638E+03 -0.32896688059E+03  0.50040367295E+03  0.00000000000E+00 0.  1.
          3    1    3    3  501    0 -0.57397833063E+02  0.28404787396E+03 -0.30013183474E+03  0.41720117949E+03  0.00000000000E+00 0.  1.
         21    1    1    2  502  501  0.12543174405E+03  0.86837572417E+02 -0.20097639879E+03  0.25232003343E+03  0.00000000000E+00 0. -1.
<mgrwt>
<rscale>  1 0.30000000E+03</rscale>
<asrwt>0</asrwt>
<pdfrwt beam="1">  1        1 0.61790998E+00 0.30000000E+03</pdfrwt>
<pdfrwt beam="2">0</pdfrwt>
<totfact> 0.48416642E-02</totfact>
</mgrwt>
</event>
<event>
 6    1  0.5260809E-006  0.3000000E+03  0.7818608E-02  0.1093470E+00
          1   -1    0    0  502    0  0.00000000000E+00  0.00000000000E+00  0.10752639012E+03  0.10752639012E+03  0.00000000000E+00 0.  1.
         13   -1    0    0    0    0 -0.00000000000E+00 -0.00000000000E+00 -0.10000000000E+04  0.10000000000E+04  0.00000000000E+00 0.  1.
    9000005    2    1    2  501    0  0.94660809793E+01 -0.82410771072E-01 -0.86749244022E+03  0.10808117440E+04  0.64460940002E+03 0.  0.
         13    1    3    3    0    0  0.64907536395E+02 -0.31415176821E+03 -0.36803868549E+03  0.48821797977E+03  0.00000000000E+00 0.  1.
          3    1    3    3  501    0 -0.55441455416E+02  0.31406935744E+03 -0.49945375473E+03  0.59259376421E+03  0.00000000000E+00 0.  1.
         21    1    1    2  502  501 -0.94660809793E+01  0.82410771072E-01 -0.24981169659E+02  0.26714646136E+02  0.00000000000E+00 0.  1.
<mgrwt>
<rscale>  1 0.30000000E+03</rscale>
<asrwt>0</asrwt>
<pdfrwt beam="1">  1        1 0.39100588E+00 0.30000000E+03</pdfrwt>
<pdfrwt beam="2">0</pdfrwt>
<totfact> 0.11837474E+00</totfact>
</mgrwt>
</event>
<event>
 6    1  0.5260809E-006  0.3000000E+03  0.7818608E-02  0.1093470E+00
          1   -1    0    0  502    0  0.00000000000E+00  0.00000000000E+00  0.11316407591E+03  0.11316407591E+03  0.00000000000E+00 0.  1.
         13   -1    0    0    0    0 -0.00000000000E+00 -0.00000000000E+00 -0.10000000000E+04  0.10000000000E+04  0.00000000000E+00 0.  1.
    9000005    2    1    2  501    0 -0.82071825393E+01 -0.15848489602E+02 -0.86844825774E+03  0.10875391126E+04  0.65438552299E+03 0.  0.
         13    1    3    3    0    0 -0.19184111432E+03 -0.25954890748E+03 -0.29166905357E+03  0.43501664948E+03  0.00000000000E+00 0.  1.
          3    1    3    3  501    0  0.18363393178E+03  0.24370041788E+03 -0.57677920417E+03  0.65252246316E+03  0.00000000000E+00 0.  1.
         21    1    1    2  502  501  0.82071825393E+01  0.15848489602E+02 -0.18387666359E+02  0.25624963259E+02  0.00000000000E+00 0.  1.
<mgrwt>
<rscale>  1 0.30000000E+03</rscale>
<asrwt>0</asrwt>
<pdfrwt beam="1">  1        1 0.41150660E+00 0.30000000E+03</pdfrwt>
<pdfrwt beam="2">0</pdfrwt>
<totfact> 0.90259624E-01</totfact>
</mgrwt>
</event>
<event>
 6    1  0.5260809E-006  0.3000000E+03  0.7818608E-02  0.1093470E+00
          1   -1    0    0  502    0  0.00000000000E+00  0.00000000000E+00  0.10435164753E+03  0.10435164753E+03  0.00000000000E+00 0.  1.
         13   -1    0    0    0    0 -0.00000000000E+00 -0.00000000000E+00 -0.10000000000E+04  0.10000000000E+04  0.00000000000E+00 0.  1.
    9000005    2    1    2  501    0 -0.16130058661E+02 -0.11012466340E+02 -0.89157023204E+03  0.10843995982E+04  0.61696317285E+03 0.  0.
         13    1    3    3    0    0  0.40959582188E+02  0.29351967217E+03 -0.33402342097E+03  0.44654577713E+03  0.00000000000E+00 0.  1.
          1    1    3    3  501    0 -0.57089640849E+02 -0.30453213851E+03 -0.55754681107E+03  0.63785382104E+03  0.00000000000E+00 0.  1.
         21    1    1    2  502  501  0.16130058661E+02  0.11012466340E+02 -0.40781204278E+01  0.19952049357E+02  0.00000000000E+00 0.  1.
<mgrwt>
<rscale>  1 0.30000000E+03</rscale>
<asrwt>0</asrwt>
<pdfrwt beam="1">  1        1 0.37946134E+00 0.30000000E+03</pdfrwt>
<pdfrwt beam="2">0</pdfrwt>
<totfact> 0.13716650E+00</totfact>
</mgrwt>
</event>
<event>
 6    1  0.5260809E-006  0.3000000E+03  0.7818608E-02  0.1093470E+00
          1   -1    0    0  502    0  0.00000000000E+00  0.00000000000E+00  0.91478344491E+02  0.91478344491E+02  0.00000000000E+00 0.  1.
         13   -1    0    0    0    0 -0.00000000000E+00 -0.00000000000E+00 -0.10000000000E+04  0.10000000000E+04  0.00000000000E+00 0.  1.
    9000005    2    1    2  501    0 -0.67372182212E+01 -0.99532919414E+01 -0.90193433293E+03  0.10777724717E+04  0.58988431216E+03 0.  0.
         13    1    3    3    0    0  0.64746656892E+02  0.28088363517E+03 -0.48956398515E+03  0.56812027040E+03  0.00000000000E+00 0.  1.
          1    1    3    3  501    0 -0.71483875114E+02 -0.29083692711E+03 -0.41237034779E+03  0.50965220132E+03  0.00000000000E+00 0.  1.
         21    1    1    2  502  501  0.67372182212E+01  0.99532919414E+01 -0.65873225745E+01  0.13705872775E+02  0.00000000000E+00 0.  1.
<mgrwt>
<rscale>  1 0.30000000E+03</rscale>
<asrwt>0</asrwt>
<pdfrwt beam="1">  1        1 0.33264923E+00 0.30000000E+03</pdfrwt>
<pdfrwt beam="2">0</pdfrwt>
<totfact> 0.24118015E+00</totfact>
</mgrwt>
</event>
<event>
 6    1  0.5260809E-006  0.3000000E+03  0.7818608E-02  0.1093470E+00
          1   -1    0    0  502    0  0.00000000000E+00  0.00000000000E+00  0.10836143808E+03  0.10836143808E+03  0.00000000000E+00 0.  1.
         13   -1    0    0    0    0 -0.00000000000E+00 -0.00000000000E+00 -0.10000000000E+04  0.10000000000E+04  0.00000000000E+00 0.  1.
    9000005    2    1    2  501    0  0.31950705333E+02  0.77899416856E+02 -0.86041575021E+03  0.10185614899E+04  0.53857504476E+03 0.  0.
         13    1    3    3    0    0  0.98645740149E+01  0.42455123504E+02 -0.93343019466E+03  0.93444725674E+03  0.00000000000E+00 0.  1.
          1    1    3    3  501    0  0.22086131318E+02  0.35444293352E+02  0.73014444444E+02  0.84114233191E+02  0.00000000000E+00 0.  1.
         21    1    1    2  502  501 -0.31950705333E+02 -0.77899416856E+02 -0.31222811703E+02  0.89799948154E+02  0.00000000000E+00 0. -1.
<mgrwt>
<rscale>  1 0.30000000E+03</rscale>
<asrwt>0</asrwt>
<pdfrwt beam="1">  1        1 0.39404242E+00 0.30000000E+03</pdfrwt>
<pdfrwt beam="2">0</pdfrwt>
<totfact> 0.11381740E+00</totfact>
</mgrwt>
</event>
<event>
 6    1  0.5260809E-006  0.3000000E+03  0.7818608E-02  0.1093470E+00
          1   -1    0    0  502    0  0.00000000000E+00  0.00000000000E+00  0.11301029066E+03  0.11301029066E+03  0.00000000000E+00 0.  1.
         13   -1    0    0    0    0 -0.00000000000E+00 -0.00000000000E+00 -0.10000000000E+04  0.10000000000E+04  0.00000000000E+00 0.  1.
    9000005    2    1    2  501    0 -0.92285767386E+01 -0.64056565850E+01 -0.88795819846E+03  0.11017347846E+04  0.65209169171E+03 0.  0.
         13    1    3    3    0    0  0.13321191825E+03 -0.28997051166E+03 -0.32481672590E+03  0.45533967345E+03  0.00000000000E+00 0.  1.
          3    1    3    3  501    0 -0.14244049499E+03  0.28356485507E+03 -0.56314147256E+03  0.64639511118E+03  0.00000000000E+00 0.  1.
         21    1    1    2  502  501  0.92285767386E+01  0.64056565850E+01  0.96848912262E+00  0.11275506024E+02  0.00000000000E+00 0. -1.
<mgrwt>
<rscale>  1 0.30000000E+03</rscale>
<asrwt>0</asrwt>
<pdfrwt beam="1">  1        1 0.41094738E+00 0.30000000E+03</pdfrwt>
<pdfrwt beam="2">0</pdfrwt>
<totfact> 0.90952425E-01</totfact>
</mgrwt>
</event>
<event>
 6    1  0.5260809E-006  0.3000000E+03  0.7818608E-02  0.1093470E+00
          1   -1    0    0  502    0  0.00000000000E+00  0.00000000000E+00  0.11359564263E+03  0.11359564263E+03  0.00000000000E+00 0.  1.
         13   -1    0    0    0    0 -0.00000000000E+00 -0.00000000000E+00 -0.10000000000E+04  0.10000000000E+04  0.00000000000E+00 0.  1.
    9000005    2    1    2  501    0  0.11573043077E+02  0.28709991087E+01 -0.88519289167E+03  0.11016104179E+04  0.65561946238E+03 0.  0.
         13    1    3    3    0    0 -0.16267990239E+03 -0.22718019102E+03 -0.16205822643E+03  0.32301464145E+03  0.00000000000E+00 0.  1.
          1    1    3    3  501    0  0.17425294547E+03  0.23005119013E+03 -0.72313466524E+03  0.77859577648E+03  0.00000000000E+00 0.  1.
         21    1    1    2  502  501 -0.11573043077E+02 -0.28709991087E+01 -0.12114657045E+01  0.11985224699E+02  0.00000000000E+00 0.  1.
<mgrwt>
<rscale>  1 0.30000000E+03</rscale>
<asrwt>0</asrwt>
<pdfrwt beam="1">  1        1 0.41307594E+00 0.30000000E+03</pdfrwt>
<pdfrwt beam="2">0</pdfrwt>
<totfact> 0.88336319E-01</totfact>
</mgrwt>
</event>
<event>
 6    1  0.5260809E-006  0.3000000E+03  0.7818608E-02  0.1093470E+00
          1   -1    0    0  502    0  0.00000000000E+00  0.00000000000E+00  0.10917500078E+03  0.10917500078E+03  0.00000000000E+00 0.  1.
         13   -1    0    0    0    0 -0.00000000000E+00 -0.00000000000E+00 -0.10000000000E+04  0.10000000000E+04  0.00000000000E+00 0.  1.
    9000005    2    1    2  501    0  0.91948907451E+01  0.12408038360E+02 -0.87627950641E+03  0.10879599874E+04  0.64463373741E+03 0.  0.
         13    1    3    3    0    0  0.99033991902E+02  0.22040555479E+02 -0.95966239464E+03  0.96501058508E+03  0.00000000000E+00 0.  1.
          3    1    3    3  501    0 -0.89839101157E+02 -0.96325171188E+01  0.83382888226E+02  0.12294940232E+03  0.00000000000E+00 0.  1.
         21    1    1    2  502  501 -0.91948907451E+01 -0.12408038360E+02 -0.14545492803E+02  0.21215013378E+02  0.00000000000E+00 0.  1.
<mgrwt>
<rscale>  1 0.30000000E+03</rscale>
<asrwt>0</asrwt>
<pdfrwt beam="1">  1        1 0.39700084E+00 0.30000000E+03</pdfrwt>
<pdfrwt beam="2">0</pdfrwt>
<totfact> 0.10952815E+00</totfact>
</mgrwt>
</event>
<event>
 6    1  0.5260809E-006  0.3000000E+03  0.7818608E-02  0.1093470E+00
          1   -1    0    0  502    0  0.00000000000E+00  0.00000000000E+00  0.12077739457E+03  0.12077739457E+03  0.00000000000E+00 0.  1.
         13   -1    0    0    0    0 -0.00000000000E+00 -0.00000000000E+00 -0.10000000000E+04  0.10000000000E+04  0.00000000000E+00 0.  1.
    9000005    2    1    2  501    0 -0.21360739197E+02  0.18006702907E+02 -0.87623881167E+03  0.10926806767E+04  0.65220861974E+03 0.  0.
         13    1    3    3    0    0 -0.16794367687E+03  0.83971712819E+02 -0.90937612696E+03  0.92855870436E+03  0.00000000000E+00 0.  1.
          1    1    3    3  501    0  0.14658293767E+03 -0.65965009913E+02  0.33137315286E+02  0.16412197236E+03  0.00000000000E+00 0.  1.
         21    1    1    2  502  501  0.21360739197E+02 -0.18006702907E+02 -0.29837937610E+01  0.28096717848E+02  0.00000000000E+00 0.  1.
<mgrwt>
<rscale>  1 0.30000000E+03</rscale>
<asrwt>0</asrwt>
<pdfrwt beam="1">  1        1 0.43919145E+00 0.30000000E+03</pdfrwt>
<pdfrwt beam="2">0</pdfrwt>
<totfact> 0.60673849E-01</totfact>
</mgrwt>
</event>
<event>
 6    1  0.5260809E-006  0.3000000E+03  0.7818608E-02  0.1093470E+00
          1   -1    0    0  502    0  0.00000000000E+00  0.00000000000E+00  0.17069598465E+03  0.17069598465E+03  0.00000000000E+00 0.  1.
         13   -1    0    0    0    0 -0.00000000000E+00 -0.00000000000E+00 -0.10000000000E+04  0.10000000000E+04  0.00000000000E+00 0.  1.
    9000005    2    1    2  501    0  0.32506935178E+02  0.14716805989E+02 -0.88929802766E+03  0.11008922116E+04  0.64795014811E+03 0.  0.
         13    1    3    3    0    0 -0.79385219015E+02 -0.25919289800E+03 -0.16220411695E+03  0.31590053328E+03  0.00000000000E+00 0.  1.
          3    1    3    3  501    0  0.11189215419E+03  0.27390970399E+03 -0.72709391071E+03  0.78499167836E+03  0.00000000000E+00 0.  1.
         21    1    1    2  502  501 -0.32506935178E+02 -0.14716805989E+02  0.59994012315E+02  0.69803773013E+02  0.00000000000E+00 0. -1.
<mgrwt>
<rscale>  1 0.30000000E+03</rscale>
<asrwt>0</asrwt>
<pdfrwt beam="1">  1        1 0.62071398E+00 0.30000000E+03</pdfrwt>
<pdfrwt beam="2">0</pdfrwt>
<totfact> 0.47077239E-02</totfact>
</mgrwt>
</event>
<event>
 6    1  0.5260809E-006  0.3000000E+03  0.7818608E-02  0.1093470E+00
          1   -1    0    0  502    0  0.00000000000E+00  0.00000000000E+00  0.81301227873E+02  0.81301227873E+02  0.00000000000E+00 0.  1.
         13   -1    0    0    0    0 -0.00000000000E+00 -0.00000000000E+00 -0.10000000000E+04  0.10000000000E+04  0.00000000000E+00 0.  1.
    9000005    2    1    2  501    0 -0.56859502387E+01 -0.25356828263E+02 -0.94162111519E+03  0.10466496394E+04  0.45623441824E+03 0.  0.
         13    1    3    3    0    0 -0.13548136565E+03  0.15236309583E+03 -0.26015714418E+03  0.33053207571E+03  0.00000000000E+00 0.  1.
          1    1    3    3  501    0  0.12979541541E+03 -0.17771992409E+03 -0.68146397101E+03  0.71611756372E+03  0.00000000000E+00 0.  1.
         21    1    1    2  502  501  0.56859502387E+01  0.25356828263E+02  0.22922343063E+02  0.34651588437E+02  0.00000000000E+00 0.  1.
<mgrwt>
<rscale>  1 0.30000000E+03</rscale>
<asrwt>0</asrwt>
<pdfrwt beam="1">  1        1 0.29564145E+00 0.30000000E+03</pdfrwt>
<pdfrwt beam="2">0</pdfrwt>
<totfact> 0.36435968E+00</totfact>
</mgrwt>
</event>
<event>
 6    1  0.5260809E-006  0.3000000E+03  0.7818608E-02  0.1093470E+00
          1   -1    0    0  502    0  0.00000000000E+00  0.00000000000E+00  0.13616742569E+03  0.13616742569E+03  0.00000000000E+00 0.  1.
         13   -1    0    0    0    0 -0.00000000000E+00 -0.00000000000E+00 -0.10000000000E+04  0.10000000000E+04  0.00000000000E+00 0.  1.
    9000005    2    1    2  501    0  0.10642376037E+02 -0.10570991285E+02 -0.89068437780E+03  0.11054099002E+04  0.65451308663E+03 0.  0.
         13    1    3    3    0    0 -0.74713096511E+02  0.88260187804E+02 -0.95350932551E+03  0.96049567484E+03  0.00000000000E+00 0.  1.
          1    1    3    3  501    0  0.85355472548E+02 -0.98831179088E+02  0.62824947717E+02  0.14491422535E+03  0.00000000000E+00 0.  1.
         21    1    1    2  502  501 -0.10642376037E+02  0.10570991285E+02  0.26851803488E+02  0.30757525502E+02  0.00000000000E+00 0. -1.
<mgrwt>
<rscale>  1 0.30000000E+03</rscale>
<asrwt>0</asrwt>
<pdfrwt beam="1">  1        1 0.49515532E+00 0.30000000E+03</pdfrwt>
<pdfrwt beam="2">0</pdfrwt>
<totfact> 0.24787411E-01</totfact>
</mgrwt>
</event>
<event>
 6    1  0.5260809E-006  0.3000000E+03  0.7818608E-02  0.1093470E+00
          1   -1    0    0  502    0  0.00000000000E+00  0.00000000000E+00  0.11918240135E+03  0.11918240135E+03  0.00000000000E+00 0.  1.
         13   -1    0    0    0    0 -0.00000000000E+00 -0.00000000000E+00 -0.10000000000E+04  0.10000000000E+04  0.00000000000E+00 0.  1.
    9000005    2    1    2  501    0 -0.14277826665E+02 -0.15472381855E+02 -0.87030581947E+03  0.10956505413E+04  0.66526283405E+03 0.  0.
         13    1    3    3    0    0 -0.91947116108E+02 -0.18818915853E+03 -0.46288546822E+01  0.20950145069E+03  0.00000000000E+00 0.  1.
          3    1    3    3  501    0  0.77669289443E+02  0.17271677667E+03 -0.86567696479E+03  0.88614909063E+03  0.00000000000E+00 0.  1.
         21    1    1    2  502  501  0.14277826665E+02  0.15472381855E+02 -0.10511779183E+02  0.23531860023E+02  0.00000000000E+00 0. -1.
<mgrwt>
<rscale>  1 0.30000000E+03</rscale>
<asrwt>0</asrwt>
<pdfrwt beam="1">  1        1 0.43339146E+00 0.30000000E+03</pdfrwt>
<pdfrwt beam="2">0</pdfrwt>
<totfact> 0.66110303E-01</totfact>
</mgrwt>
</event>
<event>
 6    1  0.5260809E-006  0.3000000E+03  0.7818608E-02  0.1093470E+00
          1   -1    0    0  502    0  0.00000000000E+00  0.00000000000E+00  0.13021019826E+03  0.13021019826E+03  0.00000000000E+00 0.  1.
         13   -1    0    0    0    0 -0.00000000000E+00 -0.00000000000E+00 -0.10000000000E+04  0.10000000000E+04  0.00000000000E+00 0.  1.
    9000005    2    1    2  501    0 -0.43627007079E+02  0.47395018155E+01 -0.87297039455E+03  0.10862113938E+04  0.64486595787E+03 0.  0.
         13    1    3    3    0    0 -0.29297648574E+03  0.19419694389E+02 -0.75477835893E+03  0.80987821112E+03  0.00000000000E+00 0.  1.
          3    1    3    3  501    0  0.24934947866E+03 -0.14680192573E+02 -0.11819203562E+03  0.27633318267E+03  0.00000000000E+00 0.  1.
         21    1    1    2  502  501  0.43627007079E+02 -0.47395018155E+01  0.31805928060E+01  0.43998804469E+02  0.00000000000E+00 0.  1.
<mgrwt>
<rscale>  1 0.30000000E+03</rscale>
<asrwt>0</asrwt>
<pdfrwt beam="1">  1        1 0.47349263E+00 0.30000000E+03</pdfrwt>
<pdfrwt beam="2">0</pdfrwt>
<totfact> 0.35535782E-01</totfact>
</mgrwt>
</event>
<event>
 6    1  0.5260809E-006  0.3000000E+03  0.7818608E-02  0.1093470E+00
          1   -1    0    0  502    0  0.00000000000E+00  0.00000000000E+00  0.11333316492E+03  0.11333316492E+03  0.00000000000E+00 0.  1.
         13   -1    0    0    0    0 -0.00000000000E+00 -0.00000000000E+00 -0.10000000000E+04  0.10000000000E+04  0.00000000000E+00 0.  1.
    9000005    2    1    2  501    0  0.10822290357E+02  0.17614388819E+02 -0.83439157262E+03  0.10571184718E+04  0.64873937618E+03 0.  0.
         13    1    3    3    0    0 -0.10064428078E+03 -0.55297803555E+02  0.75563871215E+02  0.13746642122E+03  0.00000000000E+00 0.  1.
          3    1    3    3  501    0  0.11146657114E+03  0.72912192374E+02 -0.90995544383E+03  0.91965205053E+03  0.00000000000E+00 0.  1.
         21    1    1    2  502  501 -0.10822290357E+02 -0.17614388819E+02 -0.52275262465E+02  0.56214693167E+02  0.00000000000E+00 0. -1.
<mgrwt>
<rscale>  1 0.30000000E+03</rscale>
<asrwt>0</asrwt>
<pdfrwt beam="1">  1        1 0.41212147E+00 0.30000000E+03</pdfrwt>
<pdfrwt beam="2">0</pdfrwt>
<totfact> 0.89502404E-01</totfact>
</mgrwt>
</event>
<event>
 6    1  0.5260809E-006  0.3000000E+03  0.7818608E-02  0.1093470E+00
          1   -1    0    0  502    0  0.00000000000E+00  0.00000000000E+00  0.11701351914E+03  0.11701351914E+03  0.00000000000E+00 0.  1.
         13   -1    0    0    0    0 -0.00000000000E+00 -0.00000000000E+00 -0.10000000000E+04  0.10000000000E+04  0.00000000000E+00 0.  1.
    9000005    2    1    2  501    0 -0.39963503477E+01 -0.10768359610E+02 -0.88052186727E+03  0.11052660639E+04  0.66795387928E+03 0.  0.
         13    1    3    3    0    0 -0.26155981996E+03 -0.17767969533E+03 -0.24673539600E+03  0.40107601423E+03  0.00000000000E+00 0.  1.
          3    1    3    3  501    0  0.25756346961E+03  0.16691133572E+03 -0.63378647127E+03  0.70419004966E+03  0.00000000000E+00 0.  1.
         21    1    1    2  502  501  0.39963503477E+01  0.10768359610E+02 -0.24646135895E+01  0.11747455254E+02  0.00000000000E+00 0.  1.
<mgrwt>
<rscale>  1 0.30000000E+03</rscale>
<asrwt>0</asrwt>
<pdfrwt beam="1">  1        1 0.42550460E+00 0.30000000E+03</pdfrwt>
<pdfrwt beam="2">0</pdfrwt>
<totfact> 0.74134155E-01</totfact>
</mgrwt>
</event>
<event>
 6    1  0.5260809E-006  0.3000000E+03  0.7818608E-02  0.1093470E+00
          1   -1    0    0  502    0  0.00000000000E+00  0.00000000000E+00  0.14987999470E+03  0.14987999470E+03  0.00000000000E+00 0.  1.
         13   -1    0    0    0    0 -0.00000000000E+00 -0.00000000000E+00 -0.10000000000E+04  0.10000000000E+04  0.00000000000E+00 0.  1.
    9000005    2    1    2  501    0 -0.30568631510E+02 -0.53580566142E+02 -0.87077143095E+03  0.10848277105E+04  0.64405198406E+03 0.  0.
         13    1    3    3    0    0 -0.16566119245E+03  0.22265488333E+03 -0.64855728375E+03  0.70543984723E+03  0.00000000000E+00 0.  1.
          3    1    3    3  501    0  0.13509256094E+03 -0.27623544947E+03 -0.22221414720E+03  0.37938786325E+03  0.00000000000E+00 0.  1.
         21    1    1    2  502  501  0.30568631510E+02  0.53580566142E+02  0.20651425649E+02  0.65052284217E+02  0.00000000000E+00 0.  1.
<mgrwt>
<rscale>  1 0.30000000E+03</rscale>
<asrwt>0</asrwt>
<pdfrwt beam="1">  1        1 0.54501931E+00 0.30000000E+03</pdfrwt>
<pdfrwt beam="2">0</pdfrwt>
<totfact> 0.10616451E-01</totfact>
</mgrwt>
</event>
<event>
 6    1  0.5260809E-006  0.3000000E+03  0.7818608E-02  0.1093470E+00
          1   -1    0    0  502    0  0.00000000000E+00  0.00000000000E+00  0.11740360675E+03  0.11740360675E+03  0.00000000000E+00 0.  1.
         13   -1    0    0    0    0 -0.00000000000E+00 -0.00000000000E+00 -0.10000000000E+04  0.10000000000E+04  0.00000000000E+00 0.  1.
    9000005    2    1    2  501    0 -0.11314689343E+02  0.50787844327E+01 -0.89109819580E+03  0.11023670881E+04  0.64884773726E+03 0.  0.
         13    1    3    3    0    0 -0.27092137359E+03  0.11492316265E+03 -0.70669036354E+03  0.76551746805E+03  0.00000000000E+00 0.  1.
          1    1    3    3  501    0  0.25960668425E+03 -0.10984437822E+03 -0.18440783227E+03  0.33684962006E+03  0.00000000000E+00 0.  1.
         21    1    1    2  502  501  0.11314689343E+02 -0.50787844327E+01  0.85018025514E+01  0.15036518642E+02  0.00000000000E+00 0.  1.
<mgrwt>
<rscale>  1 0.30000000E+03</rscale>
<asrwt>0</asrwt>
<pdfrwt beam="1">  1        1 0.42692311E+00 0.30000000E+03</pdfrwt>
<pdfrwt beam="2">0</pdfrwt>
<totfact> 0.72632274E-01</totfact>
</mgrwt>
</event>
<event>
 6    1  0.5260809E-006  0.3000000E+03  0.7818608E-02  0.1093470E+00
          1   -1    0    0  502    0  0.00000000000E+00  0.00000000000E+00  0.11452681648E+03  0.11452681648E+03  0.00000000000E+00 0.  1.
         13   -1    0    0    0    0 -0.00000000000E+00 -0.00000000000E+00 -0.10000000000E+04  0.10000000000E+04  0.00000000000E+00 0.  1.
    9000005    2    1    2  501    0 -0.84001570081E+01  0.13907577649E+02 -0.88264684901E+03  0.10980352574E+04  0.65295634088E+03 0.  0.
         13    1    3    3    0    0 -0.12211868489E+03 -0.57778467448E+02  0.58584315498E+02  0.14725300174E+03  0.00000000000E+00 0.  1.
          3    1    3    3  501    0  0.11371852788E+03  0.71686045097E+02 -0.94123116451E+03  0.95078225567E+03  0.00000000000E+00 0.  1.
         21    1    1    2  502  501  0.84001570081E+01 -0.13907577649E+02 -0.28263345042E+01  0.16491559070E+02  0.00000000000E+00 0.  1.
<mgrwt>
<rscale>  1 0.30000000E+03</rscale>
<asrwt>0</asrwt>
<pdfrwt beam="1">  1        1 0.41646203E+00 0.30000000E+03</pdfrwt>
<pdfrwt beam="2">0</pdfrwt>
<totfact> 0.84290278E-01</totfact>
</mgrwt>
</event>
<event>
 6    1  0.5260809E-006  0.3000000E+03  0.7818608E-02  0.1093470E+00
          1   -1    0    0  502    0  0.00000000000E+00  0.00000000000E+00  0.13224942247E+03  0.13224942247E+03  0.00000000000E+00 0.  1.
         13   -1    0    0    0    0 -0.00000000000E+00 -0.00000000000E+00 -0.10000000000E+04  0.10000000000E+04  0.00000000000E+00 0.  1.
    9000005    2    1    2  501    0 -0.20203156829E+02 -0.10820201050E+01 -0.88312747223E+03  0.11068370789E+04  0.66690692662E+03 0.  0.
         13    1    3    3    0    0 -0.26451980263E+03 -0.18710012440E+03 -0.63176927551E+03  0.71000676054E+03  0.00000000000E+00 0.  1.
          1    1    3    3  501    0  0.24431664580E+03  0.18601810429E+03 -0.25135819672E+03  0.39683031840E+03  0.00000000000E+00 0.  1.
         21    1    1    2  502  501  0.20203156829E+02  0.10820201050E+01  0.15376894703E+02  0.25412343538E+02  0.00000000000E+00 0. -1.
<mgrwt>
<rscale>  1 0.30000000E+03</rscale>
<asrwt>0</asrwt>
<pdfrwt beam="1">  1        1 0.48090800E+00 0.30000000E+03</pdfrwt>
<pdfrwt beam="2">0</pdfrwt>
<totfact> 0.31463681E-01</totfact>
</mgrwt>
</event>
<event>
 6    1  0.5260809E-006  0.3000000E+03  0.7818608E-02  0.1093470E+00
          1   -1    0    0  502    0  0.00000000000E+00  0.00000000000E+00  0.10616165320E+03  0.10616165320E+03  0.00000000000E+00 0.  1.
         13   -1    0    0    0    0 -0.00000000000E+00 -0.00000000000E+00 -0.10000000000E+04  0.10000000000E+04  0.00000000000E+00 0.  1.
    9000005    2    1    2  501    0 -0.99537561726E+01 -0.22397807184E+00 -0.88608841065E+03  0.10935446433E+04  0.64077147877E+03 0.  0.
         13    1    3    3    0    0  0.11083949351E+03 -0.29558646183E+03 -0.36570928103E+03  0.48311492211E+03  0.00000000000E+00 0.  1.
          1    1    3    3  501    0 -0.12079324968E+03  0.29536248376E+03 -0.52037912963E+03  0.61042972121E+03  0.00000000000E+00 0.  1.
         21    1    1    2  502  501  0.99537561726E+01  0.22397807184E+00 -0.77499361431E+01  0.12617009881E+02  0.00000000000E+00 0. -1.
<mgrwt>
<rscale>  1 0.30000000E+03</rscale>
<asrwt>0</asrwt>
<pdfrwt beam="1">  1        1 0.38604319E+00 0.30000000E+03</pdfrwt>
<pdfrwt beam="2">0</pdfrwt>
<totfact> 0.12616775E+00</totfact>
</mgrwt>
</event>
<event>
 6    1  0.5260809E-006  0.3000000E+03  0.7818608E-02  0.1093470E+00
          1   -1    0    0  502    0  0.00000000000E+00  0.00000000000E+00  0.11566505366E+03  0.11566505366E+03  0.00000000000E+00 0.  1.
         13   -1    0    0    0    0 -0.00000000000E+00 -0.00000000000E+00 -0.10000000000E+04  0.10000000000E+04  0.00000000000E+00 0.  1.
    9000005    2    1    2  501    0 -0.11887394257E+02  0.15903487644E+02 -0.88934539637E+03  0.10951873665E+04  0.63883167005E+03 0.  0.
         13    1    3    3    0    0  0.18713623773E+03 -0.19441665712E+03 -0.16794045947E+03  0.31783927693E+03  0.00000000000E+00 0.  1.
          3    1    3    3  501    0 -0.19902363199E+03  0.21032014476E+03 -0.72140493690E+03  0.77734808958E+03  0.00000000000E+00 0.  1.
         21    1    1    2  502  501  0.11887394257E+02 -0.15903487644E+02  0.50104500361E+01  0.20477687150E+02  0.00000000000E+00 0.  1.
<mgrwt>
<rscale>  1 0.30000000E+03</rscale>
<asrwt>0</asrwt>
<pdfrwt beam="1">  1        1 0.42060108E+00 0.30000000E+03</pdfrwt>
<pdfrwt beam="2">0</pdfrwt>
<totfact> 0.79522202E-01</totfact>
</mgrwt>
</event>
<event>
 6    1  0.5260809E-006  0.3000000E+03  0.7818608E-02  0.1093470E+00
          1   -1    0    0  502    0  0.00000000000E+00  0.00000000000E+00  0.10894752291E+03  0.10894752291E+03  0.00000000000E+00 0.  1.
         13   -1    0    0    0    0 -0.00000000000E+00 -0.00000000000E+00 -0.10000000000E+04  0.10000000000E+04  0.00000000000E+00 0.  1.
    9000005    2    1    2  501    0 -0.91383713896E+01  0.32213067731E+01 -0.88263065655E+03  0.10961095437E+04  0.64986565478E+03 0.  0.
         13    1    3    3    0    0 -0.58894527063E+02 -0.24020735928E+03 -0.86345339024E+02  0.26196117717E+03  0.00000000000E+00 0.  1.
          1    1    3    3  501    0  0.49756155674E+02  0.24342866605E+03 -0.79628531753E+03  0.83414836653E+03  0.00000000000E+00 0.  1.
         21    1    1    2  502  501  0.91383713896E+01 -0.32213067731E+01 -0.84218205409E+01  0.12837979210E+02  0.00000000000E+00 0.  1.
<mgrwt>
<rscale>  1 0.30000000E+03</rscale>
<asrwt>0</asrwt>
<pdfrwt beam="1">  1        1 0.39617365E+00 0.30000000E+03</pdfrwt>
<pdfrwt beam="2">0</pdfrwt>
<totfact> 0.11071329E+00</totfact>
</mgrwt>
</event>
<event>
 6    1  0.5260809E-006  0.3000000E+03  0.7818608E-02  0.1093470E+00
          1   -1    0    0  502    0  0.00000000000E+00  0.00000000000E+00  0.15062037418E+03  0.15062037418E+03  0.00000000000E+00 0.  1.
         13   -1    0    0    0    0 -0.00000000000E+00 -0.00000000000E+00 -0.10000000000E+04  0.10000000000E+04  0.00000000000E+00 0.  1.
    9000005    2    1    2  501    0 -0.50826963971E+01  0.88182902374E+01 -0.86779512006E+03  0.11295793078E+04  0.72303350284E+03 0.  0.
         13    1    3    3    0    0  0.56089899989E+02  0.68319268023E+02 -0.98257984264E+03  0.98654789363E+03  0.00000000000E+00 0.  1.
          1    1    3    3  501    0 -0.61172596386E+02 -0.59500977786E+02  0.11478472259E+03  0.14303141419E+03  0.00000000000E+00 0.  1.
         21    1    1    2  502  501  0.50826963971E+01 -0.88182902374E+01  0.18415494235E+02  0.21041066353E+02  0.00000000000E+00 0. -1.
<mgrwt>
<rscale>  1 0.30000000E+03</rscale>
<asrwt>0</asrwt>
<pdfrwt beam="1">  1        1 0.54771161E+00 0.30000000E+03</pdfrwt>
<pdfrwt beam="2">0</pdfrwt>
<totfact> 0.10189535E-01</totfact>
</mgrwt>
</event>
<event>
 6    1  0.5260809E-006  0.3000000E+03  0.7818608E-02  0.1093470E+00
          1   -1    0    0  502    0  0.00000000000E+00  0.00000000000E+00  0.10844433856E+03  0.10844433856E+03  0.00000000000E+00 0.  1.
         13   -1    0    0    0    0 -0.00000000000E+00 -0.00000000000E+00 -0.10000000000E+04  0.10000000000E+04  0.00000000000E+00 0.  1.
    9000005    2    1    2  501    0  0.82916580615E+01  0.90706696860E+01 -0.86483740813E+03  0.10790352634E+04  0.64515294969E+03 0.  0.
         13    1    3    3    0    0  0.12314383892E+03 -0.12847834333E+03  0.17373049418E+02  0.17880971063E+03  0.00000000000E+00 0.  1.
          1    1    3    3  501    0 -0.11485218086E+03  0.13754901302E+03 -0.88221045755E+03  0.90022555276E+03  0.00000000000E+00 0.  1.
         21    1    1    2  502  501 -0.82916580615E+01 -0.90706696860E+01 -0.26718253310E+02  0.29409075162E+02  0.00000000000E+00 0.  1.
<mgrwt>
<rscale>  1 0.30000000E+03</rscale>
<asrwt>0</asrwt>
<pdfrwt beam="1">  1        1 0.39434388E+00 0.30000000E+03</pdfrwt>
<pdfrwt beam="2">0</pdfrwt>
<totfact> 0.11337376E+00</totfact>
</mgrwt>
</event>
<event>
 6    1  0.5260809E-006  0.3000000E+03  0.7818608E-02  0.1093470E+00
          1   -1    0    0  502    0  0.00000000000E+00  0.00000000000E+00  0.11787087781E+03  0.11787087781E+03  0.00000000000E+00 0.  1.
         13   -1    0    0    0    0 -0.00000000000E+00 -0.00000000000E+00 -0.10000000000E+04  0.10000000000E+04  0.00000000000E+00 0.  1.
    9000005    2    1    2  501    0  0.30855752823E+01  0.14155367863E+02 -0.89259253347E+03  0.10999997226E+04  0.64270371372E+03 0.  0.
         13    1    3    3    0    0 -0.28851649049E+03  0.10007799675E+03 -0.62240688614E+03  0.69328760455E+03  0.00000000000E+00 0.  1.
          3    1    3    3  501    0  0.29160206577E+03 -0.85922628882E+02 -0.27018564733E+03  0.40671211801E+03  0.00000000000E+00 0.  1.
         21    1    1    2  502  501 -0.30855752823E+01 -0.14155367863E+02  0.10463411281E+02  0.17871155245E+02  0.00000000000E+00 0.  1.
<mgrwt>
<rscale>  1 0.30000000E+03</rscale>
<asrwt>0</asrwt>
<pdfrwt beam="1">  1        1 0.42862228E+00 0.30000000E+03</pdfrwt>
<pdfrwt beam="2">0</pdfrwt>
<totfact> 0.70868425E-01</totfact>
</mgrwt>
</event>
<event>
 6    1  0.5260809E-006  0.3000000E+03  0.7818608E-02  0.1093470E+00
          1   -1    0    0  502    0  0.00000000000E+00  0.00000000000E+00  0.11275439566E+03  0.11275439566E+03  0.00000000000E+00 0.  1.
         13   -1    0    0    0    0 -0.00000000000E+00 -0.00000000000E+00 -0.10000000000E+04  0.10000000000E+04  0.00000000000E+00 0.  1.
    9000005    2    1    2  501    0  0.31359162586E+00  0.12302408904E+02 -0.88801070998E+03  0.11004242298E+04  0.64978382312E+03 0.  0.
         13    1    3    3    0    0  0.26451562127E+03  0.71050224464E+02 -0.14553660098E+03  0.31015729964E+03  0.00000000000E+00 0.  1.
          3    1    3    3  501    0 -0.26420202965E+03 -0.58747815560E+02 -0.74247410899E+03  0.79026693011E+03  0.00000000000E+00 0.  1.
         21    1    1    2  502  501 -0.31359162586E+00 -0.12302408904E+02  0.76510563418E+00  0.12330165902E+02  0.00000000000E+00 0. -1.
<mgrwt>
<rscale>  1 0.30000000E+03</rscale>
<asrwt>0</asrwt>
<pdfrwt beam="1">  1        1 0.41001685E+00 0.30000000E+03</pdfrwt>
<pdfrwt beam="2">0</pdfrwt>
<totfact> 0.92113955E-01</totfact>
</mgrwt>
</event>
<event>
 6    1  0.5260809E-006  0.3000000E+03  0.7818608E-02  0.1093470E+00
          1   -1    0    0  502    0  0.00000000000E+00  0.00000000000E+00  0.12336781482E+03  0.12336781482E+03  0.00000000000E+00 0.  1.
         13   -1    0    0    0    0 -0.00000000000E+00 -0.00000000000E+00 -0.10000000000E+04  0.10000000000E+04  0.00000000000E+00 0.  1.
    9000005    2    1    2  501    0 -0.13442669073E+02  0.16850373058E+02 -0.88345303808E+03  0.11007588684E+04  0.65628970389E+03 0.  0.
         13    1    3    3    0    0  0.12450293174E+03  0.24849232848E+03 -0.14262142035E+03  0.31239444116E+03  0.00000000000E+00 0.  1.
          3    1    3    3  501    0 -0.13794560082E+03 -0.23164195542E+03 -0.74083161774E+03  0.78836442724E+03  0.00000000000E+00 0.  1.
         21    1    1    2  502  501  0.13442669073E+02 -0.16850373058E+02  0.68208529041E+01  0.22608946422E+02  0.00000000000E+00 0. -1.
<mgrwt>
<rscale>  1 0.30000000E+03</rscale>
<asrwt>0</asrwt>
<pdfrwt beam="1">  1        1 0.44861118E+00 0.30000000E+03</pdfrwt>
<pdfrwt beam="2">0</pdfrwt>
<totfact> 0.52571322E-01</totfact>
</mgrwt>
</event>
<event>
 6    1  0.5260809E-006  0.3000000E+03  0.7818608E-02  0.1093470E+00
          1   -1    0    0  502    0  0.00000000000E+00  0.00000000000E+00  0.12535793139E+03  0.12535793139E+03  0.00000000000E+00 0.  1.
         13   -1    0    0    0    0 -0.00000000000E+00 -0.00000000000E+00 -0.10000000000E+04  0.10000000000E+04  0.00000000000E+00 0.  1.
    9000005    2    1    2  501    0  0.19469642118E+02  0.13112813283E+02 -0.91802657471E+03  0.10760301684E+04  0.56081825798E+03 0.  0.
         13    1    3    3    0    0 -0.19547429761E+03 -0.17481756674E+03 -0.32303592162E+03  0.41608122924E+03  0.00000000000E+00 0.  1.
          3    1    3    3  501    0  0.21494393973E+03  0.18793038003E+03 -0.59499065310E+03  0.65994893911E+03  0.00000000000E+00 0.  1.
         21    1    1    2  502  501 -0.19469642118E+02 -0.13112813283E+02  0.43384506107E+02  0.49327763040E+02  0.00000000000E+00 0.  1.
<mgrwt>
<rscale>  1 0.30000000E+03</rscale>
<asrwt>0</asrwt>
<pdfrwt beam="1">  1        1 0.45584798E+00 0.30000000E+03</pdfrwt>
<pdfrwt beam="2">0</pdfrwt>
<totfact> 0.47003426E-01</totfact>
</mgrwt>
</event>
<event>
 6    1  0.5260809E-006  0.3000000E+03  0.7818608E-02  0.1093470E+00
          1   -1    0    0  502    0  0.00000000000E+00  0.00000000000E+00  0.11669023172E+03  0.11669023172E+03  0.00000000000E+00 0.  1.
         13   -1    0    0    0    0 -0.00000000000E+00 -0.00000000000E+00 -0.10000000000E+04  0.10000000000E+04  0.00000000000E+00 0.  1.
    9000005    2    1    2  501    0  0.10861855532E+02 -0.30282095107E+01 -0.88862324367E+03  0.11042249608E+04  0.65538869757E+03 0.  0.
         13    1    3    3    0    0 -0.17705045824E+03 -0.21346814565E+03 -0.15385530204E+03  0.31715448591E+03  0.00000000000E+00 0.  1.
          3    1    3    3  501    0  0.18791231377E+03  0.21043993613E+03 -0.73476794163E+03  0.78707047489E+03  0.00000000000E+00 0.  1.
         21    1    1    2  502  501 -0.10861855532E+02  0.30282095107E+01  0.53134753926E+01  0.12465270923E+02  0.00000000000E+00 0.  1.
<mgrwt>
<rscale>  1 0.30000000E+03</rscale>
<asrwt>0</asrwt>
<pdfrwt beam="1">  1        1 0.42432901E+00 0.30000000E+03</pdfrwt>
<pdfrwt beam="2">0</pdfrwt>
<totfact> 0.75398623E-01</totfact>
</mgrwt>
</event>
<event>
 6    1  0.5260809E-006  0.3000000E+03  0.7818608E-02  0.1093470E+00
          1   -1    0    0  502    0  0.00000000000E+00  0.00000000000E+00  0.12646988552E+03  0.12646988552E+03  0.00000000000E+00 0.  1.
         13   -1    0    0    0    0 -0.00000000000E+00 -0.00000000000E+00 -0.10000000000E+04  0.10000000000E+04  0.00000000000E+00 0.  1.
    9000005    2    1    2  501    0  0.15840735783E+02 -0.23322930437E+01 -0.88898071591E+03  0.11042192769E+04  0.65479548688E+03 0.  0.
         13    1    3    3    0    0 -0.13949773427E+03  0.29050516608E+03 -0.40426336653E+03  0.51699297761E+03  0.00000000000E+00 0.  1.
          3    1    3    3  501    0  0.15533847005E+03 -0.29283745912E+03 -0.48471734938E+03  0.58722629925E+03  0.00000000000E+00 0.  1.
         21    1    1    2  502  501 -0.15840735783E+02  0.23322930437E+01  0.15450601425E+02  0.22250608652E+02  0.00000000000E+00 0.  1.
<mgrwt>
<rscale>  1 0.30000000E+03</rscale>
<asrwt>0</asrwt>
<pdfrwt beam="1">  1        1 0.45989146E+00 0.30000000E+03</pdfrwt>
<pdfrwt beam="2">0</pdfrwt>
<totfact> 0.44143787E-01</totfact>
</mgrwt>
</event>
<event>
 6    1  0.5260809E-006  0.3000000E+03  0.7818608E-02  0.1093470E+00
          1   -1    0    0  502    0  0.00000000000E+00  0.00000000000E+00  0.11369303548E+03  0.11369303548E+03  0.00000000000E+00 0.  1.
         13   -1    0    0    0    0 -0.00000000000E+00 -0.00000000000E+00 -0.10000000000E+04  0.10000000000E+04  0.00000000000E+00 0.  1.
    9000005    2    1    2  501    0 -0.17936924978E+02  0.67802383538E+01 -0.87530427329E+03  0.10915850251E+04  0.65194523637E+03 0.  0.
         13    1    3    3    0    0  0.28596527456E+03  0.99011480051E+02 -0.59695866383E+03  0.66928249474E+03  0.00000000000E+00 0.  1.
          3    1    3    3  501    0 -0.30390219954E+03 -0.92231241697E+02 -0.27834560946E+03  0.42230253034E+03  0.00000000000E+00 0.  1.
         21    1    1    2  502  501  0.17936924978E+02 -0.67802383538E+01 -0.11002691231E+02  0.22108010406E+02  0.00000000000E+00 0. -1.
<mgrwt>
<rscale>  1 0.30000000E+03</rscale>
<asrwt>0</asrwt>
<pdfrwt beam="1">  1        1 0.41343009E+00 0.30000000E+03</pdfrwt>
<pdfrwt beam="2">0</pdfrwt>
<totfact> 0.87906523E-01</totfact>
</mgrwt>
</event>
<event>
 6    1  0.5260809E-006  0.3000000E+03  0.7818608E-02  0.1093470E+00
          1   -1    0    0  502    0  0.00000000000E+00  0.00000000000E+00  0.11490705075E+03  0.11490705075E+03  0.00000000000E+00 0.  1.
         13   -1    0    0    0    0 -0.00000000000E+00 -0.00000000000E+00 -0.10000000000E+04  0.10000000000E+04  0.00000000000E+00 0.  1.
    9000005    2    1    2  501    0 -0.33229760018E+01  0.15517823657E+02 -0.88365523874E+03  0.10989724333E+04  0.65317837018E+03 0.  0.
         13    1    3    3    0    0 -0.17881366389E+03 -0.24228086521E+03 -0.24484332385E+03  0.38810127193E+03  0.00000000000E+00 0.  1.
          3    1    3    3  501    0  0.17549068789E+03  0.25779868887E+03 -0.63881191489E+03  0.71087116141E+03  0.00000000000E+00 0.  1.
         21    1    1    2  502  501  0.33229760018E+01 -0.15517823657E+02 -0.14377105074E+01  0.15934617412E+02  0.00000000000E+00 0.  1.
<mgrwt>
<rscale>  1 0.30000000E+03</rscale>
<asrwt>0</asrwt>
<pdfrwt beam="1">  1        1 0.41784470E+00 0.30000000E+03</pdfrwt>
<pdfrwt beam="2">0</pdfrwt>
<totfact> 0.82676422E-01</totfact>
</mgrwt>
</event>
<event>
 6    1  0.5260809E-006  0.3000000E+03  0.7818608E-02  0.1093470E+00
          1   -1    0    0  502    0  0.00000000000E+00  0.00000000000E+00  0.11041226424E+03  0.11041226424E+03  0.00000000000E+00 0.  1.
         13   -1    0    0    0    0 -0.00000000000E+00 -0.00000000000E+00 -0.10000000000E+04  0.10000000000E+04  0.00000000000E+00 0.  1.
    9000005    2    1    2  501    0 -0.36551543985E+01  0.10685960284E+02 -0.89281944813E+03  0.10986651852E+04  0.64016487903E+03 0.  0.
         13    1    3    3    0    0  0.98897410059E+02  0.20511242911E+03 -0.57430754932E+02  0.23484057977E+03  0.00000000000E+00 0.  1.
          1    1    3    3  501    0 -0.10255256446E+03 -0.19442646883E+03 -0.83538869320E+03  0.86382460545E+03  0.00000000000E+00 0.  1.
         21    1    1    2  502  501  0.36551543985E+01 -0.10685960284E+02  0.32317123709E+01  0.11747079029E+02  0.00000000000E+00 0. -1.
<mgrwt>
<rscale>  1 0.30000000E+03</rscale>
<asrwt>0</asrwt>
<pdfrwt beam="1">  1        1 0.40149999E+00 0.30000000E+03</pdfrwt>
<pdfrwt beam="2">0</pdfrwt>
<totfact> 0.10325843E+00</totfact>
</mgrwt>
</event>
<event>
 6    1  0.5260809E-006  0.3000000E+03  0.7818608E-02  0.1093470E+00
          1   -1    0    0  502    0  0.00000000000E+00  0.00000000000E+00  0.10687544832E+03  0.10687544832E+03  0.00000000000E+00 0.  1.
         13   -1    0    0    0    0 -0.00000000000E+00 -0.00000000000E+00 -0.10000000000E+04  0.10000000000E+04  0.00000000000E+00 0.  1.
    9000005    2    1    2  501    0 -0.10127659976E+02 -0.54105409629E+00 -0.89187341654E+03  0.10966564672E+04  0.63805513373E+03 0.  0.
         13    1    3    3    0    0  0.15740925380E+03 -0.51973957380E+02  0.21017960180E+02  0.16709494330E+03  0.00000000000E+00 0.  1.
          1    1    3    3  501    0 -0.16753691378E+03  0.51432903284E+02 -0.91289137672E+03  0.92956152389E+03  0.00000000000E+00 0.  1.
         21    1    1    2  502  501  0.10127659976E+02  0.54105409629E+00 -0.12511351393E+01  0.10218981127E+02  0.00000000000E+00 0.  1.
<mgrwt>
<rscale>  1 0.30000000E+03</rscale>
<asrwt>0</asrwt>
<pdfrwt beam="1">  1        1 0.38863881E+00 0.30000000E+03</pdfrwt>
<pdfrwt beam="2">0</pdfrwt>
<totfact> 0.12203860E+00</totfact>
</mgrwt>
</event>
<event>
 6    1  0.5260809E-006  0.3000000E+03  0.7818608E-02  0.1093470E+00
          1   -1    0    0  502    0  0.00000000000E+00  0.00000000000E+00  0.11203012014E+03  0.11203012014E+03  0.00000000000E+00 0.  1.
         13   -1    0    0    0    0 -0.00000000000E+00 -0.00000000000E+00 -0.10000000000E+04  0.10000000000E+04  0.00000000000E+00 0.  1.
    9000005    2    1    2  501    0 -0.37582548788E+01 -0.20167800090E+02 -0.87512310244E+03  0.10878246594E+04  0.64583370963E+03 0.  0.
         13    1    3    3    0    0  0.13118411470E+03 -0.25579890227E+03 -0.17418412105E+03  0.33612863368E+03  0.00000000000E+00 0.  1.
          3    1    3    3  501    0 -0.13494236958E+03  0.23563110218E+03 -0.70093898138E+03  0.75169602570E+03  0.00000000000E+00 0.  1.
         21    1    1    2  502  501  0.37582548788E+01  0.20167800090E+02 -0.12846777427E+02  0.24205460757E+02  0.00000000000E+00 0. -1.
<mgrwt>
<rscale>  1 0.30000000E+03</rscale>
<asrwt>0</asrwt>
<pdfrwt beam="1">  1        1 0.40738311E+00 0.30000000E+03</pdfrwt>
<pdfrwt beam="2">0</pdfrwt>
<totfact> 0.95461077E-01</totfact>
</mgrwt>
</event>
<event>
 6    1  0.5260809E-006  0.3000000E+03  0.7818608E-02  0.1093470E+00
          1   -1    0    0  502    0  0.00000000000E+00  0.00000000000E+00  0.11111477258E+03  0.11111477258E+03  0.00000000000E+00 0.  1.
         13   -1    0    0    0    0 -0.00000000000E+00 -0.00000000000E+00 -0.10000000000E+04  0.10000000000E+04  0.00000000000E+00 0.  1.
    9000005    2    1    2  501    0  0.15891172239E+02 -0.33808175881E+01 -0.87613580245E+03  0.10904627238E+04  0.64902314930E+03 0.  0.
         13    1    3    3    0    0 -0.73103343986E+02 -0.30634759252E+03 -0.56679792158E+03  0.64842334185E+03  0.00000000000E+00 0.  1.
          1    1    3    3  501    0  0.88994516226E+02  0.30296677493E+03 -0.30933788087E+03  0.44203938192E+03  0.00000000000E+00 0.  1.
         21    1    1    2  502  501 -0.15891172239E+02  0.33808175881E+01 -0.12749424971E+02  0.20652048804E+02  0.00000000000E+00 0.  1.
<mgrwt>
<rscale>  1 0.30000000E+03</rscale>
<asrwt>0</asrwt>
<pdfrwt beam="1">  1        1 0.40405457E+00 0.30000000E+03</pdfrwt>
<pdfrwt beam="2">0</pdfrwt>
<totfact> 0.99818848E-01</totfact>
</mgrwt>
</event>
<event>
 6    1  0.5260809E-006  0.3000000E+03  0.7818608E-02  0.1093470E+00
          1   -1    0    0  502    0  0.00000000000E+00  0.00000000000E+00  0.11022100605E+03  0.11022100605E+03  0.00000000000E+00 0.  1.
         13   -1    0    0    0    0 -0.00000000000E+00 -0.00000000000E+00 -0.10000000000E+04  0.10000000000E+04  0.00000000000E+00 0.  1.
    9000005    2    1    2  501    0 -0.10681487333E+02 -0.10148139092E+02 -0.87762940356E+03  0.10911241098E+04  0.64815227698E+03 0.  0.
         13    1    3    3    0    0 -0.26981047470E+03  0.95307002262E+02 -0.70875888645E+03  0.76434303560E+03  0.00000000000E+00 0.  1.
          3    1    3    3  501    0  0.25912898736E+03 -0.10545514135E+03 -0.16887051711E+03  0.32678107424E+03  0.00000000000E+00 0.  1.
         21    1    1    2  502  501  0.10681487333E+02  0.10148139092E+02 -0.12149590385E+02  0.19096896219E+02  0.00000000000E+00 0.  1.
<mgrwt>
<rscale>  1 0.30000000E+03</rscale>
<asrwt>0</asrwt>
<pdfrwt beam="1">  1        1 0.40080450E+00 0.30000000E+03</pdfrwt>
<pdfrwt beam="2">0</pdfrwt>
<totfact> 0.10420923E+00</totfact>
</mgrwt>
</event>
<event>
 6    1  0.5260809E-006  0.3000000E+03  0.7818608E-02  0.1093470E+00
          1   -1    0    0  502    0  0.00000000000E+00  0.00000000000E+00  0.11043610201E+03  0.11043610201E+03  0.00000000000E+00 0.  1.
         13   -1    0    0    0    0 -0.00000000000E+00 -0.00000000000E+00 -0.10000000000E+04  0.10000000000E+04  0.00000000000E+00 0.  1.
    9000005    2    1    2  501    0 -0.22572076674E+01  0.11140110890E+02 -0.88373804502E+03  0.10976635682E+04  0.65095558964E+03 0.  0.
         13    1    3    3    0    0 -0.17372543679E+03 -0.63998119209E+02  0.91464634794E+01  0.18536435592E+03  0.00000000000E+00 0.  1.
          1    1    3    3  501    0  0.17146822912E+03  0.75138230099E+02 -0.89288450850E+03  0.91229921228E+03  0.00000000000E+00 0.  1.
         21    1    1    2  502  501  0.22572076674E+01 -0.11140110890E+02 -0.58258529727E+01  0.12772533811E+02  0.00000000000E+00 0. -1.
<mgrwt>
<rscale>  1 0.30000000E+03</rscale>
<asrwt>0</asrwt>
<pdfrwt beam="1">  1        1 0.40158667E+00 0.30000000E+03</pdfrwt>
<pdfrwt beam="2">0</pdfrwt>
<totfact> 0.10314037E+00</totfact>
</mgrwt>
</event>
<event>
 6    1  0.5260809E-006  0.3000000E+03  0.7818608E-02  0.1093470E+00
          1   -1    0    0  502    0  0.00000000000E+00  0.00000000000E+00  0.88882969854E+02  0.88882969854E+02  0.00000000000E+00 0.  1.
         13   -1    0    0    0    0 -0.00000000000E+00 -0.00000000000E+00 -0.10000000000E+04  0.10000000000E+04  0.00000000000E+00 0.  1.
    9000005    2    1    2  501    0  0.96224888387E+01 -0.54641927093E+01 -0.91433617073E+03  0.10773585367E+04  0.56970899046E+03 0.  0.
         13    1    3    3    0    0 -0.20847550847E+00  0.27718618985E+03 -0.55224002731E+03  0.61790070001E+03  0.00000000000E+00 0.  1.
          1    1    3    3  501    0  0.98309643472E+01 -0.28265038256E+03 -0.36209614342E+03  0.45945783669E+03  0.00000000000E+00 0.  1.
         21    1    1    2  502  501 -0.96224888387E+01  0.54641927093E+01  0.32191405798E+01  0.11524433153E+02  0.00000000000E+00 0.  1.
<mgrwt>
<rscale>  1 0.30000000E+03</rscale>
<asrwt>0</asrwt>
<pdfrwt beam="1">  1        1 0.32321148E+00 0.30000000E+03</pdfrwt>
<pdfrwt beam="2">0</pdfrwt>
<totfact> 0.26856800E+00</totfact>
</mgrwt>
</event>
<event>
 6    1  0.5260809E-006  0.3000000E+03  0.7818608E-02  0.1093470E+00
          1   -1    0    0  502    0  0.00000000000E+00  0.00000000000E+00  0.13394914246E+03  0.13394914246E+03  0.00000000000E+00 0.  1.
         13   -1    0    0    0    0 -0.00000000000E+00 -0.00000000000E+00 -0.10000000000E+04  0.10000000000E+04  0.00000000000E+00 0.  1.
    9000005    2    1    2  501    0 -0.76456274212E+02  0.63530159742E+01 -0.80725855705E+03  0.10372927548E+04  0.64685698461E+03 0.  0.
         13    1    3    3    0    0  0.15260259810E+03 -0.20654436437E+03 -0.12253881070E+03  0.28454153920E+03  0.00000000000E+00 0.  1.
          1    1    3    3  501    0 -0.22905887231E+03  0.21289738035E+03 -0.68471974635E+03  0.75275121560E+03  0.00000000000E+00 0.  1.
         21    1    1    2  502  501  0.76456274212E+02 -0.63530159742E+01 -0.58792300490E+02  0.96656387658E+02  0.00000000000E+00 0. -1.
<mgrwt>
<rscale>  1 0.30000000E+03</rscale>
<asrwt>0</asrwt>
<pdfrwt beam="1">  1        1 0.48708882E+00 0.30000000E+03</pdfrwt>
<pdfrwt beam="2">0</pdfrwt>
<totfact> 0.28386736E-01</totfact>
</mgrwt>
</event>
<event>
 6    1  0.5260809E-006  0.3000000E+03  0.7818608E-02  0.1093470E+00
          1   -1    0    0  502    0  0.00000000000E+00  0.00000000000E+00  0.18139160410E+03  0.18139160410E+03  0.00000000000E+00 0.  1.
         13   -1    0    0    0    0 -0.00000000000E+00 -0.00000000000E+00 -0.10000000000E+04  0.10000000000E+04  0.00000000000E+00 0.  1.
    9000005    2    1    2  501    0 -0.29242589819E+02 -0.22761163033E+02 -0.88322920891E+03  0.11068996644E+04  0.66615300948E+03 0.  0.
         13    1    3    3    0    0 -0.21755319548E+03  0.23935490914E+03 -0.57978214091E+03  0.66390322813E+03  0.00000000000E+00 0.  1.
          3    1    3    3  501    0  0.18831060566E+03 -0.26211607218E+03 -0.30344706800E+03  0.44299643630E+03  0.00000000000E+00 0.  1.
         21    1    1    2  502  501  0.29242589819E+02  0.22761163033E+02  0.64620813016E+02  0.74491939677E+02  0.00000000000E+00 0.  1.
<mgrwt>
<rscale>  1 0.30000000E+03</rscale>
<asrwt>0</asrwt>
<pdfrwt beam="1">  1        1 0.65960722E+00 0.30000000E+03</pdfrwt>
<pdfrwt beam="2">0</pdfrwt>
<totfact> 0.33050310E-02</totfact>
</mgrwt>
</event>
<event>
 6    1  0.5260809E-006  0.3000000E+03  0.7818608E-02  0.1093470E+00
          1   -1    0    0  502    0  0.00000000000E+00  0.00000000000E+00  0.11985669531E+03  0.11985669531E+03  0.00000000000E+00 0.  1.
         13   -1    0    0    0    0 -0.00000000000E+00 -0.00000000000E+00 -0.10000000000E+04  0.10000000000E+04  0.00000000000E+00 0.  1.
    9000005    2    1    2  501    0  0.44520912609E+02  0.17319568146E+02 -0.82757534922E+03  0.10488252302E+04  0.64255064056E+03 0.  0.
         13    1    3    3    0    0 -0.89157008271E+02  0.29815709997E+03 -0.27774943828E+03  0.41712273835E+03  0.00000000000E+00 0.  1.
          1    1    3    3  501    0  0.13367792088E+03 -0.28083753182E+03 -0.54982591094E+03  0.63170249181E+03  0.00000000000E+00 0.  1.
         21    1    1    2  502  501 -0.44520912609E+02 -0.17319568146E+02 -0.52567955462E+02  0.71031465152E+02  0.00000000000E+00 0.  1.
<mgrwt>
<rscale>  1 0.30000000E+03</rscale>
<asrwt>0</asrwt>
<pdfrwt beam="1">  1        1 0.43584345E+00 0.30000000E+03</pdfrwt>
<pdfrwt beam="2">0</pdfrwt>
<totfact> 0.63767271E-01</totfact>
</mgrwt>
</event>
<event>
 6    1  0.5260809E-006  0.3000000E+03  0.7818608E-02  0.1093470E+00
          1   -1    0    0  502    0  0.00000000000E+00  0.00000000000E+00  0.11679975133E+03  0.11679975133E+03  0.00000000000E+00 0.  1.
         13   -1    0    0    0    0 -0.00000000000E+00 -0.00000000000E+00 -0.10000000000E+04  0.10000000000E+04  0.00000000000E+00 0.  1.
    9000005    2    1    2  501    0 -0.22871967216E+02  0.10896843915E+02 -0.84526012578E+03  0.10711782540E+04  0.65750764525E+03 0.  0.
         13    1    3    3    0    0 -0.73689728221E+02 -0.29302981446E+03 -0.61925064604E+03  0.68903411441E+03  0.00000000000E+00 0.  1.
          3    1    3    3  501    0  0.50817761005E+02  0.30392665837E+03 -0.22600947974E+03  0.38214413960E+03  0.00000000000E+00 0.  1.
         21    1    1    2  502  501  0.22871967216E+02 -0.10896843915E+02 -0.37940122896E+02  0.45621497312E+02  0.00000000000E+00 0.  1.
<mgrwt>
<rscale>  1 0.30000000E+03</rscale>
<asrwt>0</asrwt>
<pdfrwt beam="1">  1        1 0.42472726E+00 0.30000000E+03</pdfrwt>
<pdfrwt beam="2">0</pdfrwt>
<totfact> 0.74968280E-01</totfact>
</mgrwt>
</event>
<event>
 6    1  0.5260809E-006  0.3000000E+03  0.7818608E-02  0.1093470E+00
          1   -1    0    0  502    0  0.00000000000E+00  0.00000000000E+00  0.11716073621E+03  0.11716073621E+03  0.00000000000E+00 0.  1.
         13   -1    0    0    0    0 -0.00000000000E+00 -0.00000000000E+00 -0.10000000000E+04  0.10000000000E+04  0.00000000000E+00 0.  1.
    9000005    2    1    2  501    0 -0.25966166819E+02 -0.29850002404E+01 -0.81866965032E+03  0.10478722715E+04  0.65355424338E+03 0.  0.
         13    1    3    3    0    0  0.25992534247E+02 -0.31827287625E+03 -0.52151665812E+03  0.61151685201E+03  0.00000000000E+00 0.  1.
          1    1    3    3  501    0 -0.51958701066E+02  0.31528787601E+03 -0.29715299221E+03  0.43635541953E+03  0.00000000000E+00 0.  1.
         21    1    1    2  502  501  0.25966166819E+02  0.29850002404E+01 -0.64169613462E+02  0.69288464679E+02  0.00000000000E+00 0.  1.
<mgrwt>
<rscale>  1 0.30000000E+03</rscale>
<asrwt>0</asrwt>
<pdfrwt beam="1">  1        1 0.42603994E+00 0.30000000E+03</pdfrwt>
<pdfrwt beam="2">0</pdfrwt>
<totfact> 0.73564255E-01</totfact>
</mgrwt>
</event>
<event>
 6    1  0.5260809E-006  0.3000000E+03  0.7818608E-02  0.1093470E+00
          1   -1    0    0  502    0  0.00000000000E+00  0.00000000000E+00  0.11750455493E+03  0.11750455493E+03  0.00000000000E+00 0.  1.
         13   -1    0    0    0    0 -0.00000000000E+00 -0.00000000000E+00 -0.10000000000E+04  0.10000000000E+04  0.00000000000E+00 0.  1.
    9000005    2    1    2  501    0 -0.95046635396E+01 -0.63864889048E+01 -0.89342229127E+03  0.11016766733E+04  0.64448194393E+03 0.  0.
         13    1    3    3    0    0  0.29326490178E+03  0.55796465626E+02 -0.62365067422E+03  0.69141717627E+03  0.00000000000E+00 0.  1.
          3    1    3    3  501    0 -0.30276956532E+03 -0.62182954531E+02 -0.26977161705E+03  0.41025949701E+03  0.00000000000E+00 0.  1.
         21    1    1    2  502  501  0.95046635396E+01  0.63864889048E+01  0.10926846199E+02  0.15827881646E+02  0.00000000000E+00 0.  1.
<mgrwt>
<rscale>  1 0.30000000E+03</rscale>
<asrwt>0</asrwt>
<pdfrwt beam="1">  1        1 0.42729019E+00 0.30000000E+03</pdfrwt>
<pdfrwt beam="2">0</pdfrwt>
<totfact> 0.72247938E-01</totfact>
</mgrwt>
</event>
<event>
 6    1  0.5260809E-006  0.3000000E+03  0.7818608E-02  0.1093470E+00
          1   -1    0    0  502    0  0.00000000000E+00  0.00000000000E+00  0.11563109960E+03  0.11563109960E+03  0.00000000000E+00 0.  1.
         13   -1    0    0    0    0 -0.00000000000E+00 -0.00000000000E+00 -0.10000000000E+04  0.10000000000E+04  0.00000000000E+00 0.  1.
    9000005    2    1    2  501    0 -0.22370049956E+02  0.20490610107E+02 -0.87960715645E+03  0.10849234712E+04  0.63437363155E+03 0.  0.
         13    1    3    3    0    0 -0.69961512025E+02 -0.28657591145E+03 -0.26639185152E+03  0.39747325035E+03  0.00000000000E+00 0.  1.
          3    1    3    3  501    0  0.47591462069E+02  0.30706652155E+03 -0.61321530494E+03  0.68745022084E+03  0.00000000000E+00 0.  1.
         21    1    1    2  502  501  0.22370049956E+02 -0.20490610107E+02 -0.47617439473E+01  0.30707628417E+02  0.00000000000E+00 0. -1.
<mgrwt>
<rscale>  1 0.30000000E+03</rscale>
<asrwt>0</asrwt>
<pdfrwt beam="1">  1        1 0.42047761E+00 0.30000000E+03</pdfrwt>
<pdfrwt beam="2">0</pdfrwt>
<totfact> 0.79661634E-01</totfact>
</mgrwt>
</event>
<event>
 6    1  0.5260809E-006  0.3000000E+03  0.7818608E-02  0.1093470E+00
          1   -1    0    0  502    0  0.00000000000E+00  0.00000000000E+00  0.11216010345E+03  0.11216010345E+03  0.00000000000E+00 0.  1.
         13   -1    0    0    0    0 -0.00000000000E+00 -0.00000000000E+00 -0.10000000000E+04  0.10000000000E+04  0.00000000000E+00 0.  1.
    9000005    2    1    2  501    0  0.20532542445E+01 -0.14352329637E+02 -0.87930258325E+03  0.10953347970E+04  0.65297402656E+03 0.  0.
         13    1    3    3    0    0  0.29632300453E+03  0.13172660817E+03 -0.45392311532E+03  0.55785788238E+03  0.00000000000E+00 0.  1.
          3    1    3    3  501    0 -0.29426975028E+03 -0.14607893780E+03 -0.42537946793E+03  0.53747691461E+03  0.00000000000E+00 0.  1.
         21    1    1    2  502  501 -0.20532542445E+01  0.14352329637E+02 -0.85373132986E+01  0.16825306456E+02  0.00000000000E+00 0.  1.
<mgrwt>
<rscale>  1 0.30000000E+03</rscale>
<asrwt>0</asrwt>
<pdfrwt beam="1">  1        1 0.40785578E+00 0.30000000E+03</pdfrwt>
<pdfrwt beam="2">0</pdfrwt>
<totfact> 0.94853859E-01</totfact>
</mgrwt>
</event>
<event>
 6    1  0.5260809E-006  0.3000000E+03  0.7818608E-02  0.1093470E+00
          1   -1    0    0  502    0  0.00000000000E+00  0.00000000000E+00  0.10879624821E+03  0.10879624821E+03  0.00000000000E+00 0.  1.
         13   -1    0    0    0    0 -0.00000000000E+00 -0.00000000000E+00 -0.10000000000E+04  0.10000000000E+04  0.00000000000E+00 0.  1.
    9000005    2    1    2  501    0  0.45687396498E+00 -0.94301710591E+01 -0.88531487967E+03  0.10976689990E+04  0.64884948821E+03 0.  0.
         13    1    3    3    0    0  0.21085535754E+03  0.22675655922E+03 -0.29355831623E+03  0.42667904094E+03  0.00000000000E+00 0.  1.
          3    1    3    3  501    0 -0.21039848357E+03 -0.23618673027E+03 -0.59175656344E+03  0.67098995806E+03  0.00000000000E+00 0.  1.
         21    1    1    2  502  501 -0.45687396498E+00  0.94301710591E+01 -0.58888721234E+01  0.11127249207E+02  0.00000000000E+00 0. -1.
<mgrwt>
<rscale>  1 0.30000000E+03</rscale>
<asrwt>0</asrwt>
<pdfrwt beam="1">  1        1 0.39562356E+00 0.30000000E+03</pdfrwt>
<pdfrwt beam="2">0</pdfrwt>
<totfact> 0.11150739E+00</totfact>
</mgrwt>
</event>
<event>
 6    1  0.5260809E-006  0.3000000E+03  0.7818608E-02  0.1093470E+00
          1   -1    0    0  502    0  0.00000000000E+00  0.00000000000E+00  0.12304684781E+03  0.12304684781E+03  0.00000000000E+00 0.  1.
         13   -1    0    0    0    0 -0.00000000000E+00 -0.00000000000E+00 -0.10000000000E+04  0.10000000000E+04  0.00000000000E+00 0.  1.
    9000005    2    1    2  501    0  0.11756613801E+02 -0.36702751801E+02 -0.85442719902E+03  0.10784068599E+04  0.65683346978E+03 0.  0.
         13    1    3    3    0    0  0.20931610114E+03 -0.14001801291E+03 -0.81369455877E+03  0.85177292110E+03  0.00000000000E+00 0.  1.
          1    1    3    3  501    0 -0.19755948734E+03  0.10331526111E+03 -0.40732640243E+02  0.22663393876E+03  0.00000000000E+00 0.  1.
         21    1    1    2  502  501 -0.11756613801E+02  0.36702751801E+02 -0.22525953172E+02  0.44639987949E+02  0.00000000000E+00 0. -1.
<mgrwt>
<rscale>  1 0.30000000E+03</rscale>
<asrwt>0</asrwt>
<pdfrwt beam="1">  1        1 0.44744403E+00 0.30000000E+03</pdfrwt>
<pdfrwt beam="2">0</pdfrwt>
<totfact> 0.53525904E-01</totfact>
</mgrwt>
</event>
<event>
 6    1  0.5260809E-006  0.3000000E+03  0.7818608E-02  0.1093470E+00
          1   -1    0    0  502    0  0.00000000000E+00  0.00000000000E+00  0.11478633278E+03  0.11478633278E+03  0.00000000000E+00 0.  1.
         13   -1    0    0    0    0 -0.00000000000E+00 -0.00000000000E+00 -0.10000000000E+04  0.10000000000E+04  0.00000000000E+00 0.  1.
    9000005    2    1    2  501    0 -0.53392647768E+01 -0.15298830634E+02 -0.88811083375E+03  0.10983256055E+04  0.64599978391E+03 0.  0.
         13    1    3    3    0    0 -0.13978567514E+03 -0.11633663155E+03  0.12361162779E+02  0.18228287128E+03  0.00000000000E+00 0.  1.
          1    1    3    3  501    0  0.13444641037E+03  0.10103780092E+03 -0.90047199653E+03  0.91604273427E+03  0.00000000000E+00 0.  1.
         21    1    1    2  502  501  0.53392647768E+01  0.15298830634E+02  0.28971665345E+01  0.16460727234E+02  0.00000000000E+00 0.  1.
<mgrwt>
<rscale>  1 0.30000000E+03</rscale>
<asrwt>0</asrwt>
<pdfrwt beam="1">  1        1 0.41740573E+00 0.30000000E+03</pdfrwt>
<pdfrwt beam="2">0</pdfrwt>
<totfact> 0.83186571E-01</totfact>
</mgrwt>
</event>
<event>
 6    1  0.5260809E-006  0.3000000E+03  0.7818608E-02  0.1093470E+00
          1   -1    0    0  502    0  0.00000000000E+00  0.00000000000E+00  0.13555714477E+03  0.13555714477E+03  0.00000000000E+00 0.  1.
         13   -1    0    0    0    0 -0.00000000000E+00 -0.00000000000E+00 -0.10000000000E+04  0.10000000000E+04  0.00000000000E+00 0.  1.
    9000005    2    1    2  501    0 -0.66075591174E+01 -0.38412517904E+02 -0.88452486619E+03  0.10917111811E+04  0.63869388801E+03 0.  0.
         13    1    3    3    0    0 -0.95104994757E+02 -0.29856435864E+03 -0.68139940632E+03  0.74999385812E+03  0.00000000000E+00 0.  1.
          3    1    3    3  501    0  0.88497435640E+02  0.26015184074E+03 -0.20312545987E+03  0.34171732294E+03  0.00000000000E+00 0.  1.
         21    1    1    2  502  501  0.66075591174E+01  0.38412517904E+02  0.20082010957E+02  0.43845963706E+02  0.00000000000E+00 0. -1.
<mgrwt>
<rscale>  1 0.30000000E+03</rscale>
<asrwt>0</asrwt>
<pdfrwt beam="1">  1        1 0.49293611E+00 0.30000000E+03</pdfrwt>
<pdfrwt beam="2">0</pdfrwt>
<totfact> 0.25732224E-01</totfact>
</mgrwt>
</event>
<event>
 6    1  0.5260809E-006  0.3000000E+03  0.7818608E-02  0.1093470E+00
          1   -1    0    0  502    0  0.00000000000E+00  0.00000000000E+00  0.10899658905E+03  0.10899658905E+03  0.00000000000E+00 0.  1.
         13   -1    0    0    0    0 -0.00000000000E+00 -0.00000000000E+00 -0.10000000000E+04  0.10000000000E+04  0.00000000000E+00 0.  1.
    9000005    2    1    2  501    0  0.13565763934E+02  0.48013211782E+01 -0.87737230893E+03  0.10891751467E+04  0.64522341013E+03 0.  0.
         13    1    3    3    0    0  0.29930236225E+03  0.13704268121E+03 -0.41327628319E+03  0.52835583348E+03  0.00000000000E+00 0.  1.
          1    1    3    3  501    0 -0.28573659832E+03 -0.13224136003E+03 -0.46409602574E+03  0.56081931318E+03  0.00000000000E+00 0.  1.
         21    1    1    2  502  501 -0.13565763934E+02 -0.48013211782E+01 -0.13631102023E+02  0.19821442393E+02  0.00000000000E+00 0. -1.
<mgrwt>
<rscale>  1 0.30000000E+03</rscale>
<asrwt>0</asrwt>
<pdfrwt beam="1">  1        1 0.39635207E+00 0.30000000E+03</pdfrwt>
<pdfrwt beam="2">0</pdfrwt>
<totfact> 0.11045676E+00</totfact>
</mgrwt>
</event>
<event>
 6    1  0.5260809E-006  0.3000000E+03  0.7818608E-02  0.1093470E+00
          1   -1    0    0  502    0  0.00000000000E+00  0.00000000000E+00  0.11846961309E+03  0.11846961309E+03  0.00000000000E+00 0.  1.
         13   -1    0    0    0    0 -0.00000000000E+00 -0.00000000000E+00 -0.10000000000E+04  0.10000000000E+04  0.00000000000E+00 0.  1.
    9000005    2    1    2  501    0  0.30910186021E+01  0.10649045423E+02 -0.89186229042E+03  0.11033135980E+04  0.64943020704E+03 0.  0.
         13    1    3    3    0    0 -0.27444572637E+03  0.18915356448E+02 -0.15473977309E+03  0.31563055113E+03  0.00000000000E+00 0.  1.
          3    1    3    3  501    0  0.27753674497E+03 -0.82663110248E+01 -0.73712251733E+03  0.78768304683E+03  0.00000000000E+00 0.  1.
         21    1    1    2  502  501 -0.30910186021E+01 -0.10649045423E+02  0.10331903503E+02  0.15156015123E+02  0.00000000000E+00 0.  1.
<mgrwt>
<rscale>  1 0.30000000E+03</rscale>
<asrwt>0</asrwt>
<pdfrwt beam="1">  1        1 0.43079950E+00 0.30000000E+03</pdfrwt>
<pdfrwt beam="2">0</pdfrwt>
<totfact> 0.68662272E-01</totfact>
</mgrwt>
</event>
<event>
 6    1  0.5260809E-006  0.3000000E+03  0.7818608E-02  0.1093470E+00
          1   -1    0    0  502    0  0.00000000000E+00  0.00000000000E+00  0.11695164335E+03  0.11695164335E+03  0.00000000000E+00 0.  1.
         13   -1    0    0    0    0 -0.00000000000E+00 -0.00000000000E+00 -0.10000000000E+04  0.10000000000E+04  0.00000000000E+00 0.  1.
    9000005    2    1    2  501    0  0.11586287314E+02 -0.24259535855E+01 -0.89278795834E+03  0.11016223529E+04  0.64526067799E+03 0.  0.
         13    1    3    3    0    0 -0.14516052701E+03 -0.15329991058E+03 -0.85515571181E+03  0.88083127365E+03  0.00000000000E+00 0.  1.
          3    1    3    3  501    0  0.15674681433E+03  0.15087395699E+03 -0.37632246525E+02  0.22079107926E+03  0.00000000000E+00 0.  1.
         21    1    1    2  502  501 -0.11586287314E+02  0.24259535855E+01  0.97396016912E+01  0.15329290448E+02  0.00000000000E+00 0.  1.
<mgrwt>
<rscale>  1 0.30000000E+03</rscale>
<asrwt>0</asrwt>
<pdfrwt beam="1">  1        1 0.42527960E+00 0.30000000E+03</pdfrwt>
<pdfrwt beam="2">0</pdfrwt>
<totfact> 0.74374795E-01</totfact>
</mgrwt>
</event>
<event>
 6    1  0.5260809E-006  0.3000000E+03  0.7818608E-02  0.1093470E+00
          1   -1    0    0  502    0  0.00000000000E+00  0.00000000000E+00  0.99806780933E+02  0.99806780933E+02  0.00000000000E+00 0.  1.
         13   -1    0    0    0    0 -0.00000000000E+00 -0.00000000000E+00 -0.10000000000E+04  0.10000000000E+04  0.00000000000E+00 0.  1.
    9000005    2    1    2  501    0  0.27636841312E+01 -0.11929318131E+02 -0.90930301320E+03  0.10845445750E+04  0.59097801883E+03 0.  0.
         13    1    3    3    0    0  0.10194732338E+03 -0.96646837493E+02 -0.94008451491E+03  0.95052236329E+03  0.00000000000E+00 0.  1.
          3    1    3    3  501    0 -0.99183639249E+02  0.84717519362E+02  0.30781501707E+02  0.13402221170E+03  0.00000000000E+00 0.  1.
         21    1    1    2  502  501 -0.27636841312E+01  0.11929318131E+02  0.91097941363E+01  0.15262205943E+02  0.00000000000E+00 0.  1.
<mgrwt>
<rscale>  1 0.30000000E+03</rscale>
<asrwt>0</asrwt>
<pdfrwt beam="1">  1        1 0.36293451E+00 0.30000000E+03</pdfrwt>
<pdfrwt beam="2">0</pdfrwt>
<totfact> 0.16844638E+00</totfact>
</mgrwt>
</event>
<event>
 6    1  0.5260809E-006  0.3000000E+03  0.7818608E-02  0.1093470E+00
          1   -1    0    0  502    0  0.00000000000E+00  0.00000000000E+00  0.11159556262E+03  0.11159556262E+03  0.00000000000E+00 0.  1.
         13   -1    0    0    0    0 -0.00000000000E+00 -0.00000000000E+00 -0.10000000000E+04  0.10000000000E+04  0.00000000000E+00 0.  1.
    9000005    2    1    2  501    0  0.13691394184E+02  0.15768363260E+01 -0.89314351876E+03  0.10970216277E+04  0.63683684392E+03 0.  0.
         13    1    3    3    0    0 -0.82093624722E+02  0.71159084892E+02  0.68292825938E+02  0.12832337534E+03  0.00000000000E+00 0.  1.
          1    1    3    3  501    0  0.95785018906E+02 -0.69582248566E+02 -0.96143634470E+03  0.96869825234E+03  0.00000000000E+00 0.  1.
         21    1    1    2  502  501 -0.13691394184E+02 -0.15768363260E+01  0.47390813815E+01  0.14573934947E+02  0.00000000000E+00 0.  1.
<mgrwt>
<rscale>  1 0.30000000E+03</rscale>
<asrwt>0</asrwt>
<pdfrwt beam="1">  1        1 0.40580290E+00 0.30000000E+03</pdfrwt>
<pdfrwt beam="2">0</pdfrwt>
<totfact> 0.97511996E-01</totfact>
</mgrwt>
</event>
<event>
 6    1  0.5260809E-006  0.3000000E+03  0.7818608E-02  0.1093470E+00
          1   -1    0    0  502    0  0.00000000000E+00  0.00000000000E+00  0.16353320734E+03  0.16353320734E+03  0.00000000000E+00 0.  1.
         13   -1    0    0    0    0 -0.00000000000E+00 -0.00000000000E+00 -0.10000000000E+04  0.10000000000E+04  0.00000000000E+00 0.  1.
    9000005    2    1    2  501    0  0.24341383611E+02  0.65288628770E+00 -0.89478245473E+03  0.11003379096E+04  0.63993354713E+03 0.  0.
         13    1    3    3    0    0 -0.84092355385E+01  0.18866312961E+03 -0.88960185616E+03  0.90942616754E+03  0.00000000000E+00 0.  1.
          3    1    3    3  501    0  0.32750619149E+02 -0.18801024332E+03 -0.51805985709E+01  0.19091174204E+03  0.00000000000E+00 0.  1.
         21    1    1    2  502  501 -0.24341383611E+02 -0.65288628770E+00  0.58315662071E+02  0.63195297763E+02  0.00000000000E+00 0.  1.
<mgrwt>
<rscale>  1 0.30000000E+03</rscale>
<asrwt>0</asrwt>
<pdfrwt beam="1">  1        1 0.59466746E+00 0.30000000E+03</pdfrwt>
<pdfrwt beam="2">0</pdfrwt>
<totfact> 0.62101615E-02</totfact>
</mgrwt>
</event>
<event>
 6    1  0.5260809E-006  0.3000000E+03  0.7818608E-02  0.1093470E+00
          1   -1    0    0  502    0  0.00000000000E+00  0.00000000000E+00  0.12155536614E+03  0.12155536614E+03  0.00000000000E+00 0.  1.
         13   -1    0    0    0    0 -0.00000000000E+00 -0.00000000000E+00 -0.10000000000E+04  0.10000000000E+04  0.00000000000E+00 0.  1.
    9000005    2    1    2  501    0  0.11668119868E+02 -0.26006349926E+02 -0.88065286741E+03  0.10929660053E+04  0.64669369922E+03 0.  0.
         13    1    3    3    0    0 -0.24273212526E+03 -0.87088167225E+02 -0.76429289473E+03  0.80662684212E+03  0.00000000000E+00 0.  1.
          1    1    3    3  501    0  0.25440024513E+03  0.61081817299E+02 -0.11635997268E+03  0.28633916318E+03  0.00000000000E+00 0.  1.
         21    1    1    2  502  501 -0.11668119868E+02  0.26006349926E+02  0.22082335463E+01  0.28589360838E+02  0.00000000000E+00 0. -1.
<mgrwt>
<rscale>  1 0.30000000E+03</rscale>
<asrwt>0</asrwt>
<pdfrwt beam="1">  1        1 0.44202045E+00 0.30000000E+03</pdfrwt>
<pdfrwt beam="2">0</pdfrwt>
<totfact> 0.58149098E-01</totfact>
</mgrwt>
</event>
<event>
 6    1  0.5260809E-006  0.3000000E+03  0.7818608E-02  0.1093470E+00
          1   -1    0    0  502    0  0.00000000000E+00  0.00000000000E+00  0.12413781744E+03  0.12413781744E+03  0.00000000000E+00 0.  1.
         13   -1    0    0    0    0 -0.00000000000E+00 -0.00000000000E+00 -0.10000000000E+04  0.10000000000E+04  0.00000000000E+00 0.  1.
    9000005    2    1    2  501    0 -0.19218690442E+02 -0.83358384190E+01 -0.88541754844E+03  0.11011128466E+04  0.65425256715E+03 0.  0.
         13    1    3    3    0    0  0.88700460355E+02 -0.30491086372E+03 -0.30424152854E+03  0.43977416269E+03  0.00000000000E+00 0.  1.
          3    1    3    3  501    0 -0.10791915080E+03  0.29657502530E+03 -0.58117601990E+03  0.66133868392E+03  0.00000000000E+00 0.  1.
         21    1    1    2  502  501  0.19218690442E+02  0.83358384190E+01  0.95553658750E+01  0.23024970824E+02  0.00000000000E+00 0. -1.
<mgrwt>
<rscale>  1 0.30000000E+03</rscale>
<asrwt>0</asrwt>
<pdfrwt beam="1">  1        1 0.45141120E+00 0.30000000E+03</pdfrwt>
<pdfrwt beam="2">0</pdfrwt>
<totfact> 0.50344042E-01</totfact>
</mgrwt>
</event>
<event>
 6    1  0.5260809E-006  0.3000000E+03  0.7818608E-02  0.1093470E+00
          1   -1    0    0  502    0  0.00000000000E+00  0.00000000000E+00  0.14096387190E+03  0.14096387190E+03  0.00000000000E+00 0.  1.
         13   -1    0    0    0    0 -0.00000000000E+00 -0.00000000000E+00 -0.10000000000E+04  0.10000000000E+04  0.00000000000E+00 0.  1.
    9000005    2    1    2  501    0  0.22738494657E+02 -0.65700582347E+01 -0.88802161461E+03  0.11035424444E+04  0.65472386078E+03 0.  0.
         13    1    3    3    0    0 -0.24335291474E+03 -0.10054687304E+03 -0.12789807106E+03  0.29272552224E+03  0.00000000000E+00 0.  1.
          1    1    3    3  501    0  0.26609140940E+03  0.93976814809E+02 -0.76012354355E+03  0.81081692221E+03  0.00000000000E+00 0.  1.
         21    1    1    2  502  501 -0.22738494657E+02  0.65700582347E+01  0.28985486507E+02  0.37421427452E+02  0.00000000000E+00 0. -1.
<mgrwt>
<rscale>  1 0.30000000E+03</rscale>
<asrwt>0</asrwt>
<pdfrwt beam="1">  1        1 0.51259698E+00 0.30000000E+03</pdfrwt>
<pdfrwt beam="2">0</pdfrwt>
<totfact> 0.18460361E-01</totfact>
</mgrwt>
</event>
<event>
 6    1  0.5260809E-006  0.3000000E+03  0.7818608E-02  0.1093470E+00
          1   -1    0    0  502    0  0.00000000000E+00  0.00000000000E+00  0.12185433237E+03  0.12185433237E+03  0.00000000000E+00 0.  1.
         13   -1    0    0    0    0 -0.00000000000E+00 -0.00000000000E+00 -0.10000000000E+04  0.10000000000E+04  0.00000000000E+00 0.  1.
    9000005    2    1    2  501    0  0.21109678082E+02  0.12234077503E+01 -0.88519170620E+03  0.10995661764E+04  0.65194655027E+03 0.  0.
         13    1    3    3    0    0 -0.26018294736E+03 -0.49320137529E+02 -0.13596683332E+03  0.29768208180E+03  0.00000000000E+00 0.  1.
          3    1    3    3  501    0  0.28129262544E+03  0.50543545280E+02 -0.74922487288E+03  0.80188409464E+03  0.00000000000E+00 0.  1.
         21    1    1    2  502  501 -0.21109678082E+02 -0.12234077503E+01  0.70460385676E+01  0.22288155930E+02  0.00000000000E+00 0.  1.
<mgrwt>
<rscale>  1 0.30000000E+03</rscale>
<asrwt>0</asrwt>
<pdfrwt beam="1">  1        1 0.44310760E+00 0.30000000E+03</pdfrwt>
<pdfrwt beam="2">0</pdfrwt>
<totfact> 0.57198857E-01</totfact>
</mgrwt>
</event>
<event>
 6    1  0.5260809E-006  0.3000000E+03  0.7818608E-02  0.1093470E+00
          1   -1    0    0  502    0  0.00000000000E+00  0.00000000000E+00  0.67492371755E+02  0.67492371755E+02  0.00000000000E+00 0.  1.
         13   -1    0    0    0    0 -0.00000000000E+00 -0.00000000000E+00 -0.10000000000E+04  0.10000000000E+04  0.00000000000E+00 0.  1.
    9000005    2    1    2  501    0  0.53078141714E+01 -0.84131983209E+01 -0.93089130669E+03  0.10574143118E+04  0.50146530000E+03 0.  0.
         13    1    3    3    0    0  0.20984068591E+03 -0.14109707860E+03 -0.40008955859E+03  0.47330027883E+03  0.00000000000E+00 0.  1.
          3    1    3    3  501    0 -0.20453287174E+03  0.13268388028E+03 -0.53080174811E+03  0.58411403296E+03  0.00000000000E+00 0.  1.
         21    1    1    2  502  501 -0.53078141714E+01  0.84131983209E+01 -0.16163215503E+01  0.10078059963E+02  0.00000000000E+00 0.  1.
<mgrwt>
<rscale>  1 0.30000000E+03</rscale>
<asrwt>0</asrwt>
<pdfrwt beam="1">  1        1 0.24542732E+00 0.30000000E+03</pdfrwt>
<pdfrwt beam="2">0</pdfrwt>
<totfact> 0.62662546E+00</totfact>
</mgrwt>
</event>
<event>
 6    1  0.5260809E-006  0.3000000E+03  0.7818608E-02  0.1093470E+00
          1   -1    0    0  502    0  0.00000000000E+00  0.00000000000E+00  0.11526327187E+03  0.11526327187E+03  0.00000000000E+00 0.  1.
         13   -1    0    0    0    0 -0.00000000000E+00 -0.00000000000E+00 -0.10000000000E+04  0.10000000000E+04  0.00000000000E+00 0.  1.
    9000005    2    1    2  501    0 -0.11829130661E+02 -0.16633893354E+02 -0.87987120734E+03  0.10942802303E+04  0.65027629991E+03 0.  0.
         13    1    3    3    0    0 -0.10905947435E+03  0.22338944330E+03 -0.77670778442E+03  0.81551934048E+03  0.00000000000E+00 0.  1.
          3    1    3    3  501    0  0.97230343691E+02 -0.24002333666E+03 -0.10316342292E+03  0.27876088984E+03  0.00000000000E+00 0.  1.
         21    1    1    2  502  501  0.11829130661E+02  0.16633893354E+02 -0.48655207866E+01  0.20983041553E+02  0.00000000000E+00 0.  1.
<mgrwt>
<rscale>  1 0.30000000E+03</rscale>
<asrwt>0</asrwt>
<pdfrwt beam="1">  1        1 0.41914005E+00 0.30000000E+03</pdfrwt>
<pdfrwt beam="2">0</pdfrwt>
<totfact> 0.81183405E-01</totfact>
</mgrwt>
</event>
<event>
 6    1  0.5260809E-006  0.3000000E+03  0.7818608E-02  0.1093470E+00
          1   -1    0    0  502    0  0.00000000000E+00  0.00000000000E+00  0.16696152030E+03  0.16696152030E+03  0.00000000000E+00 0.  1.
         13   -1    0    0    0    0 -0.00000000000E+00 -0.00000000000E+00 -0.10000000000E+04  0.10000000000E+04  0.00000000000E+00 0.  1.
    9000005    2    1    2  501    0  0.29407830534E+02 -0.18761592895E+02 -0.89188992118E+03  0.10985487289E+04  0.64040991588E+03 0.  0.
         13    1    3    3    0    0 -0.61766941643E+02  0.16615561840E+03 -0.87378271254E+03  0.89158234244E+03  0.00000000000E+00 0.  1.
          3    1    3    3  501    0  0.91174772178E+02 -0.18491721130E+03 -0.18107208641E+02  0.20696638645E+03  0.00000000000E+00 0.  1.
         21    1    1    2  502  501 -0.29407830534E+02  0.18761592895E+02  0.58851441478E+02  0.68412791411E+02  0.00000000000E+00 0. -1.
<mgrwt>
<rscale>  1 0.30000000E+03</rscale>
<asrwt>0</asrwt>
<pdfrwt beam="1">  1        1 0.60713408E+00 0.30000000E+03</pdfrwt>
<pdfrwt beam="2">0</pdfrwt>
<totfact> 0.54214899E-02</totfact>
</mgrwt>
</event>
<event>
 6    1  0.5260809E-006  0.3000000E+03  0.7818608E-02  0.1093470E+00
          1   -1    0    0  502    0  0.00000000000E+00  0.00000000000E+00  0.12160971412E+03  0.12160971412E+03  0.00000000000E+00 0.  1.
         13   -1    0    0    0    0 -0.00000000000E+00 -0.00000000000E+00 -0.10000000000E+04  0.10000000000E+04  0.00000000000E+00 0.  1.
    9000005    2    1    2  501    0 -0.14525154983E+01  0.42425666364E+02 -0.87354639246E+03  0.10788837235E+04  0.63174737210E+03 0.  0.
         13    1    3    3    0    0  0.24724776862E+02  0.49491049740E+02  0.95012340295E+02  0.10994554745E+03  0.00000000000E+00 0.  1.
          1    1    3    3  501    0 -0.26177292360E+02 -0.70653833769E+01 -0.96855873276E+03  0.96893817609E+03  0.00000000000E+00 0.  1.
         21    1    1    2  502  501  0.14525154983E+01 -0.42425666364E+02 -0.48438934238E+01  0.42725990581E+02  0.00000000000E+00 0.  1.
<mgrwt>
<rscale>  1 0.30000000E+03</rscale>
<asrwt>0</asrwt>
<pdfrwt beam="1">  1        1 0.44221807E+00 0.30000000E+03</pdfrwt>
<pdfrwt beam="2">0</pdfrwt>
<totfact> 0.57975524E-01</totfact>
</mgrwt>
</event>
<event>
 6    1  0.5260809E-006  0.3000000E+03  0.7818608E-02  0.1093470E+00
          1   -1    0    0  502    0  0.00000000000E+00  0.00000000000E+00  0.13170694908E+03  0.13170694908E+03  0.00000000000E+00 0.  1.
         13   -1    0    0    0    0 -0.00000000000E+00 -0.00000000000E+00 -0.10000000000E+04  0.10000000000E+04  0.00000000000E+00 0.  1.
    9000005    2    1    2  501    0 -0.39338830674E+02  0.79289481745E+01 -0.88162125934E+03  0.10894215739E+04  0.63872757014E+03 0.  0.
         13    1    3    3    0    0 -0.20760119351E+03 -0.22269104293E+03 -0.24175806352E+03  0.38876280355E+03  0.00000000000E+00 0.  1.
          3    1    3    3  501    0  0.16826236284E+03  0.23061999110E+03 -0.63986319582E+03  0.70065877031E+03  0.00000000000E+00 0.  1.
         21    1    1    2  502  501  0.39338830674E+02 -0.79289481745E+01  0.13328208423E+02  0.42285375222E+02  0.00000000000E+00 0. -1.
<mgrwt>
<rscale>  1 0.30000000E+03</rscale>
<asrwt>0</asrwt>
<pdfrwt beam="1">  1        1 0.47893537E+00 0.30000000E+03</pdfrwt>
<pdfrwt beam="2">0</pdfrwt>
<totfact> 0.32505622E-01</totfact>
</mgrwt>
</event>
<event>
 6    1  0.5260809E-006  0.3000000E+03  0.7818608E-02  0.1093470E+00
          1   -1    0    0  502    0  0.00000000000E+00  0.00000000000E+00  0.10587511308E+03  0.10587511308E+03  0.00000000000E+00 0.  1.
         13   -1    0    0    0    0 -0.00000000000E+00 -0.00000000000E+00 -0.10000000000E+04  0.10000000000E+04  0.00000000000E+00 0.  1.
    9000005    2    1    2  501    0  0.21591664967E+02  0.40407872225E+01 -0.88374817067E+03  0.10815809945E+04  0.62315655380E+03 0.  0.
         13    1    3    3    0    0  0.12826141973E+03  0.30145503874E+02  0.50350332873E+02  0.14104927938E+03  0.00000000000E+00 0.  1.
          1    1    3    3  501    0 -0.10666975476E+03 -0.26104716652E+02 -0.93409850355E+03  0.94053171512E+03  0.00000000000E+00 0.  1.
         21    1    1    2  502  501 -0.21591664967E+02 -0.40407872225E+01 -0.10376716247E+02  0.24294118578E+02  0.00000000000E+00 0. -1.
<mgrwt>
<rscale>  1 0.30000000E+03</rscale>
<asrwt>0</asrwt>
<pdfrwt beam="1">  1        1 0.38500122E+00 0.30000000E+03</pdfrwt>
<pdfrwt beam="2">0</pdfrwt>
<totfact> 0.12785832E+00</totfact>
</mgrwt>
</event>
<event>
 6    1  0.5260809E-006  0.3000000E+03  0.7818608E-02  0.1093470E+00
          1   -1    0    0  502    0  0.00000000000E+00  0.00000000000E+00  0.11647763202E+03  0.11647763202E+03  0.00000000000E+00 0.  1.
         13   -1    0    0    0    0 -0.00000000000E+00 -0.00000000000E+00 -0.10000000000E+04  0.10000000000E+04  0.00000000000E+00 0.  1.
    9000005    2    1    2  501    0  0.67013442907E+01 -0.27484357960E+02 -0.88967535462E+03  0.10875266874E+04  0.62481338118E+03 0.  0.
         13    1    3    3    0    0  0.97895150690E+02 -0.12328565887E+02 -0.96392143029E+03  0.96895819199E+03  0.00000000000E+00 0.  1.
          3    1    3    3  501    0 -0.91193806399E+02 -0.15155792074E+02  0.74246075663E+02  0.11856849544E+03  0.00000000000E+00 0.  1.
         21    1    1    2  502  501 -0.67013442907E+01  0.27484357960E+02  0.61529866429E+01  0.28950944586E+02  0.00000000000E+00 0.  1.
<mgrwt>
<rscale>  1 0.30000000E+03</rscale>
<asrwt>0</asrwt>
<pdfrwt beam="1">  1        1 0.42355592E+00 0.30000000E+03</pdfrwt>
<pdfrwt beam="2">0</pdfrwt>
<totfact> 0.76239727E-01</totfact>
</mgrwt>
</event>
<event>
 6    1  0.5260809E-006  0.3000000E+03  0.7818608E-02  0.1093470E+00
          1   -1    0    0  502    0  0.00000000000E+00  0.00000000000E+00  0.11264434980E+03  0.11264434980E+03  0.00000000000E+00 0.  1.
         13   -1    0    0    0    0 -0.00000000000E+00 -0.00000000000E+00 -0.10000000000E+04  0.10000000000E+04  0.00000000000E+00 0.  1.
    9000005    2    1    2  501    0  0.10417586543E+02  0.19090639299E+02 -0.87963830661E+03  0.10895676080E+04  0.64258932719E+03 0.  0.
         13    1    3    3    0    0 -0.23605155117E+03  0.17188288252E+03 -0.20950935554E+03  0.35938590703E+03  0.00000000000E+00 0.  1.
          1    1    3    3  501    0  0.24646913771E+03 -0.15279224322E+03 -0.67012895107E+03  0.73018170101E+03  0.00000000000E+00 0.  1.
         21    1    1    2  502  501 -0.10417586543E+02 -0.19090639299E+02 -0.77173435896E+01  0.23076741761E+02  0.00000000000E+00 0. -1.
<mgrwt>
<rscale>  1 0.30000000E+03</rscale>
<asrwt>0</asrwt>
<pdfrwt beam="1">  1        1 0.40961668E+00 0.30000000E+03</pdfrwt>
<pdfrwt beam="2">0</pdfrwt>
<totfact> 0.92616828E-01</totfact>
</mgrwt>
</event>
<event>
 6    1  0.5260809E-006  0.3000000E+03  0.7818608E-02  0.1093470E+00
          1   -1    0    0  502    0  0.00000000000E+00  0.00000000000E+00  0.18018910451E+03  0.18018910451E+03  0.00000000000E+00 0.  1.
         13   -1    0    0    0    0 -0.00000000000E+00 -0.00000000000E+00 -0.10000000000E+04  0.10000000000E+04  0.00000000000E+00 0.  1.
    9000005    2    1    2  501    0 -0.53427439056E+02 -0.83100921396E+02 -0.85174029191E+03  0.10763635742E+04  0.65064334677E+03 0.  0.
         13    1    3    3    0    0  0.23599056603E+03 -0.23345004920E+03 -0.42651164134E+03  0.54046521898E+03  0.00000000000E+00 0.  1.
          3    1    3    3  501    0 -0.28941800508E+03  0.15034912780E+03 -0.42522865057E+03  0.53589835525E+03  0.00000000000E+00 0.  1.
         21    1    1    2  502  501  0.53427439056E+02  0.83100921396E+02  0.31929396418E+02  0.10382553027E+03  0.00000000000E+00 0.  1.
<mgrwt>
<rscale>  1 0.30000000E+03</rscale>
<asrwt>0</asrwt>
<pdfrwt beam="1">  1        1 0.65523449E+00 0.30000000E+03</pdfrwt>
<pdfrwt beam="2">0</pdfrwt>
<totfact> 0.34308971E-02</totfact>
</mgrwt>
</event>
<event>
 6    1  0.5260809E-006  0.3000000E+03  0.7818608E-02  0.1093470E+00
          1   -1    0    0  502    0  0.00000000000E+00  0.00000000000E+00  0.66000767903E+02  0.66000767903E+02  0.00000000000E+00 0.  1.
         13   -1    0    0    0    0 -0.00000000000E+00 -0.00000000000E+00 -0.10000000000E+04  0.10000000000E+04  0.00000000000E+00 0.  1.
    9000005    2    1    2  501    0 -0.15101715202E+02 -0.18275239156E+02 -0.93657598542E+03  0.10421536334E+04  0.45645106298E+03 0.  0.
         13    1    3    3    0    0  0.10047548300E+03  0.18506305194E+03 -0.32372959894E+03  0.38619232140E+03  0.00000000000E+00 0.  1.
          1    1    3    3  501    0 -0.11557719820E+03 -0.20333829110E+03 -0.61284638648E+03  0.65596131196E+03  0.00000000000E+00 0.  1.
         21    1    1    2  502  501  0.15101715202E+02  0.18275239156E+02  0.25767533196E+01  0.23847134543E+02  0.00000000000E+00 0.  1.
<mgrwt>
<rscale>  1 0.30000000E+03</rscale>
<asrwt>0</asrwt>
<pdfrwt beam="1">  1        1 0.24000330E+00 0.30000000E+03</pdfrwt>
<pdfrwt beam="2">0</pdfrwt>
<totfact> 0.66436062E+00</totfact>
</mgrwt>
</event>
<event>
 6    1  0.5260809E-006  0.3000000E+03  0.7818608E-02  0.1093470E+00
          1   -1    0    0  502    0  0.00000000000E+00  0.00000000000E+00  0.11206666101E+03  0.11206666101E+03  0.00000000000E+00 0.  1.
         13   -1    0    0    0    0 -0.00000000000E+00 -0.00000000000E+00 -0.10000000000E+04  0.10000000000E+04  0.00000000000E+00 0.  1.
    9000005    2    1    2  501    0  0.17107045334E+02 -0.31835545814E+01 -0.85872346156E+03  0.10780666175E+04  0.65155112024E+03 0.  0.
         13    1    3    3    0    0  0.31849176383E+03 -0.96207950930E+02 -0.49773863127E+03  0.59869584808E+03  0.00000000000E+00 0.  1.
          1    1    3    3  501    0 -0.30138471850E+03  0.93024396349E+02 -0.36098483029E+03  0.47937076940E+03  0.00000000000E+00 0.  1.
         21    1    1    2  502  501 -0.17107045334E+02  0.31835545814E+01 -0.29209877435E+02  0.34000043524E+02  0.00000000000E+00 0. -1.
<mgrwt>
<rscale>  1 0.30000000E+03</rscale>
<asrwt>0</asrwt>
<pdfrwt beam="1">  1        1 0.40751599E+00 0.30000000E+03</pdfrwt>
<pdfrwt beam="2">0</pdfrwt>
<totfact> 0.95290086E-01</totfact>
</mgrwt>
</event>
<event>
 6    1  0.5260809E-006  0.3000000E+03  0.7818608E-02  0.1093470E+00
          1   -1    0    0  502    0  0.00000000000E+00  0.00000000000E+00  0.10321860097E+03  0.10321860097E+03  0.00000000000E+00 0.  1.
         13   -1    0    0    0    0 -0.00000000000E+00 -0.00000000000E+00 -0.10000000000E+04  0.10000000000E+04  0.00000000000E+00 0.  1.
    9000005    2    1    2  501    0  0.16696119158E+01 -0.12522104495E+02 -0.89440057451E+03  0.10903632896E+04  0.62352235320E+03 0.  0.
         13    1    3    3    0    0 -0.14163644506E+03 -0.16257665201E+03 -0.50670053608E+02  0.22149380281E+03  0.00000000000E+00 0.  1.
          3    1    3    3  501    0  0.14330605698E+03  0.15005454751E+03 -0.84373052090E+03  0.86886948680E+03  0.00000000000E+00 0.  1.
         21    1    1    2  502  501 -0.16696119158E+01  0.12522104495E+02 -0.23808245157E+01  0.12855311365E+02  0.00000000000E+00 0. -1.
<mgrwt>
<rscale>  1 0.30000000E+03</rscale>
<asrwt>0</asrwt>
<pdfrwt beam="1">  1        1 0.37534116E+00 0.30000000E+03</pdfrwt>
<pdfrwt beam="2">0</pdfrwt>
<totfact> 0.14444441E+00</totfact>
</mgrwt>
</event>
<event>
 6    1  0.5260809E-006  0.3000000E+03  0.7818608E-02  0.1093470E+00
          1   -1    0    0  502    0  0.00000000000E+00  0.00000000000E+00  0.12504486464E+03  0.12504486464E+03  0.00000000000E+00 0.  1.
         13   -1    0    0    0    0 -0.00000000000E+00 -0.00000000000E+00 -0.10000000000E+04  0.10000000000E+04  0.00000000000E+00 0.  1.
    9000005    2    1    2  501    0 -0.14950310826E+02 -0.52366884903E+01 -0.86553648567E+03  0.11066153866E+04  0.68934263690E+03 0.  0.
         13    1    3    3    0    0  0.19917796877E+03 -0.25072484208E+03 -0.62304858768E+03  0.70051720342E+03  0.00000000000E+00 0.  1.
          1    1    3    3  501    0 -0.21412827960E+03  0.24548815359E+03 -0.24248789798E+03  0.40609818313E+03  0.00000000000E+00 0.  1.
         21    1    1    2  502  501  0.14950310826E+02  0.52366884903E+01 -0.94186496986E+01  0.18429478079E+02  0.00000000000E+00 0. -1.
<mgrwt>
<rscale>  1 0.30000000E+03</rscale>
<asrwt>0</asrwt>
<pdfrwt beam="1">  1        1 0.45470956E+00 0.30000000E+03</pdfrwt>
<pdfrwt beam="2">0</pdfrwt>
<totfact> 0.47838943E-01</totfact>
</mgrwt>
</event>
<event>
 6    1  0.5260809E-006  0.3000000E+03  0.7818608E-02  0.1093470E+00
          1   -1    0    0  502    0  0.00000000000E+00  0.00000000000E+00  0.13061677690E+03  0.13061677690E+03  0.00000000000E+00 0.  1.
         13   -1    0    0    0    0 -0.00000000000E+00 -0.00000000000E+00 -0.10000000000E+04  0.10000000000E+04  0.00000000000E+00 0.  1.
    9000005    2    1    2  501    0 -0.11979898484E+02  0.11319678856E+02 -0.88989549859E+03  0.11043031579E+04  0.65368173687E+03 0.  0.
         13    1    3    3    0    0  0.27382935042E+03  0.70983110312E+02 -0.17638423976E+03  0.33336543782E+03  0.00000000000E+00 0.  1.
          3    1    3    3  501    0 -0.28580924890E+03 -0.59663431456E+02 -0.71351125883E+03  0.77093772011E+03  0.00000000000E+00 0.  1.
         21    1    1    2  502  501  0.11979898484E+02 -0.11319678856E+02  0.20512275491E+02  0.26313618963E+02  0.00000000000E+00 0.  1.
<mgrwt>
<rscale>  1 0.30000000E+03</rscale>
<asrwt>0</asrwt>
<pdfrwt beam="1">  1        1 0.47497110E+00 0.30000000E+03</pdfrwt>
<pdfrwt beam="2">0</pdfrwt>
<totfact> 0.34689414E-01</totfact>
</mgrwt>
</event>
<event>
 6    1  0.5260809E-006  0.3000000E+03  0.7818608E-02  0.1093470E+00
          1   -1    0    0  502    0  0.00000000000E+00  0.00000000000E+00  0.11984580497E+03  0.11984580497E+03  0.00000000000E+00 0.  1.
         13   -1    0    0    0    0 -0.00000000000E+00 -0.00000000000E+00 -0.10000000000E+04  0.10000000000E+04  0.00000000000E+00 0.  1.
    9000005    2    1    2  501    0  0.15651127879E+02  0.74384498948E+01 -0.87986126931E+03  0.11025144996E+04  0.66414010588E+03 0.  0.
         13    1    3    3    0    0  0.59947710544E+02 -0.45960044000E+02 -0.97877982765E+03  0.98169038126E+03  0.00000000000E+00 0.  1.
          1    1    3    3  501    0 -0.44296582665E+02  0.53398493895E+02  0.98918558341E+02  0.12082411833E+03  0.00000000000E+00 0.  1.
         21    1    1    2  502  501 -0.15651127879E+02 -0.74384498948E+01 -0.29292571297E+00  0.17331305380E+02  0.00000000000E+00 0.  1.
<mgrwt>
<rscale>  1 0.30000000E+03</rscale>
<asrwt>0</asrwt>
<pdfrwt beam="1">  1        1 0.43580385E+00 0.30000000E+03</pdfrwt>
<pdfrwt beam="2">0</pdfrwt>
<totfact> 0.63804581E-01</totfact>
</mgrwt>
</event>
<event>
 6    1  0.5260809E-006  0.3000000E+03  0.7818608E-02  0.1093470E+00
          1   -1    0    0  502    0  0.00000000000E+00  0.00000000000E+00  0.11110339153E+03  0.11110339153E+03  0.00000000000E+00 0.  1.
         13   -1    0    0    0    0 -0.00000000000E+00 -0.00000000000E+00 -0.10000000000E+04  0.10000000000E+04  0.00000000000E+00 0.  1.
    9000005    2    1    2  501    0 -0.12802709406E+02 -0.92392088364E+01 -0.87561430715E+03  0.10904710898E+04  0.64975188370E+03 0.  0.
         13    1    3    3    0    0 -0.27840240319E+03 -0.81093686916E+02 -0.17724177726E+03  0.33985104349E+03  0.00000000000E+00 0.  1.
          1    1    3    3  501    0  0.26559969378E+03  0.71854478079E+02 -0.69837252989E+03  0.75062004627E+03  0.00000000000E+00 0.  1.
         21    1    1    2  502  501  0.12802709406E+02  0.92392088364E+01 -0.13282301316E+02  0.20632301770E+02  0.00000000000E+00 0.  1.
<mgrwt>
<rscale>  1 0.30000000E+03</rscale>
<asrwt>0</asrwt>
<pdfrwt beam="1">  1        1 0.40401318E+00 0.30000000E+03</pdfrwt>
<pdfrwt beam="2">0</pdfrwt>
<totfact> 0.99873937E-01</totfact>
</mgrwt>
</event>
<event>
 6    1  0.5260809E-006  0.3000000E+03  0.7818608E-02  0.1093470E+00
          1   -1    0    0  502    0  0.00000000000E+00  0.00000000000E+00  0.14543776145E+03  0.14543776145E+03  0.00000000000E+00 0.  1.
         13   -1    0    0    0    0 -0.00000000000E+00 -0.00000000000E+00 -0.10000000000E+04  0.10000000000E+04  0.00000000000E+00 0.  1.
    9000005    2    1    2  501    0  0.10094107209E+02  0.11050854250E+02 -0.89022948309E+03  0.11067574730E+04  0.65740365009E+03 0.  0.
         13    1    3    3    0    0  0.18711090361E+03  0.20232505211E+03 -0.13312455949E+03  0.30605238979E+03  0.00000000000E+00 0.  1.
          3    1    3    3  501    0 -0.17701679640E+03 -0.19127419786E+03 -0.75710492360E+03  0.80070508323E+03  0.00000000000E+00 0.  1.
         21    1    1    2  502  501 -0.10094107209E+02 -0.11050854250E+02  0.35667244533E+02  0.38680288424E+02  0.00000000000E+00 0.  1.
<mgrwt>
<rscale>  1 0.30000000E+03</rscale>
<asrwt>0</asrwt>
<pdfrwt beam="1">  1        1 0.52886570E+00 0.30000000E+03</pdfrwt>
<pdfrwt beam="2">0</pdfrwt>
<totfact> 0.13930881E-01</totfact>
</mgrwt>
</event>
<event>
 6    1  0.5260809E-006  0.3000000E+03  0.7818608E-02  0.1093470E+00
          1   -1    0    0  502    0  0.00000000000E+00  0.00000000000E+00  0.12083433890E+03  0.12083433890E+03  0.00000000000E+00 0.  1.
         13   -1    0    0    0    0 -0.00000000000E+00 -0.00000000000E+00 -0.10000000000E+04  0.10000000000E+04  0.00000000000E+00 0.  1.
    9000005    2    1    2  501    0 -0.14733347975E+02 -0.11968073339E+02 -0.87029537701E+03  0.10998822922E+04  0.67228469199E+03 0.  0.
         13    1    3    3    0    0 -0.42640454348E+02  0.38713659079E+02 -0.97689631191E+03  0.97859254032E+03  0.00000000000E+00 0.  1.
          3    1    3    3  501    0  0.27907106373E+02 -0.50681732418E+02  0.10660093489E+03  0.12128975186E+03  0.00000000000E+00 0.  1.
         21    1    1    2  502  501  0.14733347975E+02  0.11968073339E+02 -0.88702840845E+01  0.20952046720E+02  0.00000000000E+00 0.  1.
<mgrwt>
<rscale>  1 0.30000000E+03</rscale>
<asrwt>0</asrwt>
<pdfrwt beam="1">  1        1 0.43939852E+00 0.30000000E+03</pdfrwt>
<pdfrwt beam="2">0</pdfrwt>
<totfact> 0.60486382E-01</totfact>
</mgrwt>
</event>
<event>
 6    1  0.5260809E-006  0.3000000E+03  0.7818608E-02  0.1093470E+00
          1   -1    0    0  502    0  0.00000000000E+00  0.00000000000E+00  0.11825674707E+03  0.11825674707E+03  0.00000000000E+00 0.  1.
         13   -1    0    0    0    0 -0.00000000000E+00 -0.00000000000E+00 -0.10000000000E+04  0.10000000000E+04  0.00000000000E+00 0.  1.
    9000005    2    1    2  501    0 -0.15941783462E+02  0.87797768936E+01 -0.88430271356E+03  0.10998780697E+04  0.65376544273E+03 0.  0.
         13    1    3    3    0    0 -0.18829330453E+03 -0.23359272074E+03 -0.66752511960E+03  0.73185361447E+03  0.00000000000E+00 0.  1.
          3    1    3    3  501    0  0.17235152107E+03  0.24237249764E+03 -0.21677759397E+03  0.36802445526E+03  0.00000000000E+00 0.  1.
         21    1    1    2  502  501  0.15941783462E+02 -0.87797768936E+01  0.25594606370E+01  0.18378677346E+02  0.00000000000E+00 0. -1.
<mgrwt>
<rscale>  1 0.30000000E+03</rscale>
<asrwt>0</asrwt>
<pdfrwt beam="1">  1        1 0.43002544E+00 0.30000000E+03</pdfrwt>
<pdfrwt beam="2">0</pdfrwt>
<totfact> 0.69439937E-01</totfact>
</mgrwt>
</event>
<event>
 6    1  0.5260809E-006  0.3000000E+03  0.7818608E-02  0.1093470E+00
          1   -1    0    0  502    0  0.00000000000E+00  0.00000000000E+00  0.11843371709E+03  0.11843371709E+03  0.00000000000E+00 0.  1.
         13   -1    0    0    0    0 -0.00000000000E+00 -0.00000000000E+00 -0.10000000000E+04  0.10000000000E+04  0.00000000000E+00 0.  1.
    9000005    2    1    2  501    0 -0.41531456058E+01 -0.30719098612E+02 -0.86902251247E+03  0.10849933550E+04  0.64888330355E+03 0.  0.
         13    1    3    3    0    0  0.31037450740E+03  0.53814645113E+02 -0.33784090270E+03  0.46191430635E+03  0.00000000000E+00 0.  1.
          1    1    3    3  501    0 -0.31452765301E+03 -0.84533743725E+02 -0.53118160978E+03  0.62307904868E+03  0.00000000000E+00 0.  1.
         21    1    1    2  502  501  0.41531456058E+01  0.30719098612E+02 -0.12543770439E+02  0.33440362061E+02  0.00000000000E+00 0. -1.
<mgrwt>
<rscale>  1 0.30000000E+03</rscale>
<asrwt>0</asrwt>
<pdfrwt beam="1">  1        1 0.43066897E+00 0.30000000E+03</pdfrwt>
<pdfrwt beam="2">0</pdfrwt>
<totfact> 0.68792901E-01</totfact>
</mgrwt>
</event>
<event>
 6    1  0.5260809E-006  0.3000000E+03  0.7818608E-02  0.1093470E+00
          1   -1    0    0  502    0  0.00000000000E+00  0.00000000000E+00  0.11894619223E+03  0.11894619223E+03  0.00000000000E+00 0.  1.
         13   -1    0    0    0    0 -0.00000000000E+00 -0.00000000000E+00 -0.10000000000E+04  0.10000000000E+04  0.00000000000E+00 0.  1.
    9000005    2    1    2  501    0  0.28876125393E+02 -0.11231732208E+02 -0.85323995013E+03  0.10773097526E+04  0.65697633760E+03 0.  0.
         13    1    3    3    0    0  0.22938557734E+03  0.21573351578E+03 -0.24908845093E+03  0.40150186713E+03  0.00000000000E+00 0.  1.
          1    1    3    3  501    0 -0.20050945194E+03 -0.22696524799E+03 -0.60415149920E+03  0.67580788549E+03  0.00000000000E+00 0.  1.
         21    1    1    2  502  501 -0.28876125393E+02  0.11231732208E+02 -0.27813857646E+02  0.41636439608E+02  0.00000000000E+00 0.  1.
<mgrwt>
<rscale>  1 0.30000000E+03</rscale>
<asrwt>0</asrwt>
<pdfrwt beam="1">  1        1 0.43253252E+00 0.30000000E+03</pdfrwt>
<pdfrwt beam="2">0</pdfrwt>
<totfact> 0.66947252E-01</totfact>
</mgrwt>
</event>
<event>
 6    1  0.5260809E-006  0.3000000E+03  0.7818608E-02  0.1093470E+00
          1   -1    0    0  502    0  0.00000000000E+00  0.00000000000E+00  0.10550092533E+03  0.10550092533E+03  0.00000000000E+00 0.  1.
         13   -1    0    0    0    0 -0.00000000000E+00 -0.00000000000E+00 -0.10000000000E+04  0.10000000000E+04  0.00000000000E+00 0.  1.
    9000005    2    1    2  501    0 -0.89394063797E+01 -0.38364101419E+00 -0.88975004009E+03  0.10953710933E+04  0.63882911494E+03 0.  0.
         13    1    3    3    0    0  0.92673471459E+02 -0.25650441680E+02  0.76863559065E+02  0.12310290079E+03  0.00000000000E+00 0.  1.
          3    1    3    3  501    0 -0.10161287784E+03  0.25266800666E+02 -0.96661359916E+03  0.97226819254E+03  0.00000000000E+00 0.  1.
         21    1    1    2  502  501  0.89394063797E+01  0.38364101419E+00 -0.47490345781E+01  0.10129831996E+02  0.00000000000E+00 0. -1.
<mgrwt>
<rscale>  1 0.30000000E+03</rscale>
<asrwt>0</asrwt>
<pdfrwt beam="1">  1        1 0.38364054E+00 0.30000000E+03</pdfrwt>
<pdfrwt beam="2">0</pdfrwt>
<totfact> 0.13009458E+00</totfact>
</mgrwt>
</event>
<event>
 6    1  0.5260809E-006  0.3000000E+03  0.7818608E-02  0.1093470E+00
          1   -1    0    0  502    0  0.00000000000E+00  0.00000000000E+00  0.11324772210E+03  0.11324772210E+03  0.00000000000E+00 0.  1.
         13   -1    0    0    0    0 -0.00000000000E+00 -0.00000000000E+00 -0.10000000000E+04  0.10000000000E+04  0.00000000000E+00 0.  1.
    9000005    2    1    2  501    0 -0.55765806371E+01 -0.13827200800E+02 -0.86027051443E+03  0.10828573695E+04  0.65748949421E+03 0.  0.
         13    1    3    3    0    0  0.14986003985E+03  0.27055521643E+03 -0.27508152463E+03  0.41391786852E+03  0.00000000000E+00 0.  1.
          3    1    3    3  501    0 -0.15543662049E+03 -0.28438241723E+03 -0.58518898979E+03  0.66893950100E+03  0.00000000000E+00 0.  1.
         21    1    1    2  502  501  0.55765806371E+01  0.13827200800E+02 -0.26481763473E+02  0.30390352585E+02  0.00000000000E+00 0.  1.
<mgrwt>
<rscale>  1 0.30000000E+03</rscale>
<asrwt>0</asrwt>
<pdfrwt beam="1">  1        1 0.41181077E+00 0.30000000E+03</pdfrwt>
<pdfrwt beam="2">0</pdfrwt>
<totfact> 0.89884445E-01</totfact>
</mgrwt>
</event>
<event>
 6    1  0.5260809E-006  0.3000000E+03  0.7818608E-02  0.1093470E+00
          1   -1    0    0  502    0  0.00000000000E+00  0.00000000000E+00  0.11986026887E+03  0.11986026887E+03  0.00000000000E+00 0.  1.
         13   -1    0    0    0    0 -0.00000000000E+00 -0.00000000000E+00 -0.10000000000E+04  0.10000000000E+04  0.00000000000E+00 0.  1.
    9000005    2    1    2  501    0 -0.24624199138E+02 -0.14113845468E+02 -0.86975393766E+03  0.10896374873E+04  0.65576854905E+03 0.  0.
         13    1    3    3    0    0  0.80146305619E+01 -0.22304065457E+03 -0.84821080210E+03  0.87708205585E+03  0.00000000000E+00 0.  1.
          1    1    3    3  501    0 -0.32638829700E+02  0.20892680910E+03 -0.21543135556E+02  0.21255543149E+03  0.00000000000E+00 0.  1.
         21    1    1    2  502  501  0.24624199138E+02  0.14113845468E+02 -0.10385793475E+02  0.30222781526E+02  0.00000000000E+00 0.  1.
<mgrwt>
<rscale>  1 0.30000000E+03</rscale>
<asrwt>0</asrwt>
<pdfrwt beam="1">  1        1 0.43585644E+00 0.30000000E+03</pdfrwt>
<pdfrwt beam="2">0</pdfrwt>
<totfact> 0.63755032E-01</totfact>
</mgrwt>
</event>
<event>
 6    1  0.5260809E-006  0.3000000E+03  0.7818608E-02  0.1093470E+00
          1   -1    0    0  502    0  0.00000000000E+00  0.00000000000E+00  0.12391534797E+03  0.12391534797E+03  0.00000000000E+00 0.  1.
         13   -1    0    0    0    0 -0.00000000000E+00 -0.00000000000E+00 -0.10000000000E+04  0.10000000000E+04  0.00000000000E+00 0.  1.
    9000005    2    1    2  501    0 -0.15248143096E+02 -0.49008062296E+01 -0.87318249060E+03  0.11076381765E+04  0.68129152675E+03 0.  0.
         13    1    3    3    0    0 -0.22469918915E+03  0.25739891980E+03 -0.37949290934E+03  0.51064547169E+03  0.00000000000E+00 0.  1.
          3    1    3    3  501    0  0.20945104605E+03 -0.26229972603E+03 -0.49368958127E+03  0.59699270483E+03  0.00000000000E+00 0.  1.
         21    1    1    2  502  501  0.15248143096E+02  0.49008062296E+01 -0.29021614253E+01  0.16277171453E+02  0.00000000000E+00 0.  1.
<mgrwt>
<rscale>  1 0.30000000E+03</rscale>
<asrwt>0</asrwt>
<pdfrwt beam="1">  1        1 0.45060222E+00 0.30000000E+03</pdfrwt>
<pdfrwt beam="2">0</pdfrwt>
<totfact> 0.50978238E-01</totfact>
</mgrwt>
</event>
<event>
 6    1  0.5260809E-006  0.3000000E+03  0.7818608E-02  0.1093470E+00
          1   -1    0    0  502    0  0.00000000000E+00  0.00000000000E+00  0.11578453264E+03  0.11578453264E+03  0.00000000000E+00 0.  1.
         13   -1    0    0    0    0 -0.00000000000E+00 -0.00000000000E+00 -0.10000000000E+04  0.10000000000E+04  0.00000000000E+00 0.  1.
    9000005    2    1    2  501    0 -0.25179031594E+02 -0.24345613821E+02 -0.85630246454E+03  0.10709980584E+04  0.64230540857E+03 0.  0.
         13    1    3    3    0    0  0.16297732698E+03  0.14949698340E+03 -0.52420514079E+02  0.22728587165E+03  0.00000000000E+00 0.  1.
          1    1    3    3  501    0 -0.18815635857E+03 -0.17384259722E+03 -0.80388195046E+03  0.84371218680E+03  0.00000000000E+00 0.  1.
         21    1    1    2  502  501  0.25179031594E+02  0.24345613821E+02 -0.27913002825E+02  0.44786474197E+02  0.00000000000E+00 0.  1.
<mgrwt>
<rscale>  1 0.30000000E+03</rscale>
<asrwt>0</asrwt>
<pdfrwt beam="1">  1        1 0.42103555E+00 0.30000000E+03</pdfrwt>
<pdfrwt beam="2">0</pdfrwt>
<totfact> 0.79032984E-01</totfact>
</mgrwt>
</event>
<event>
 6    1  0.5260809E-006  0.3000000E+03  0.7818608E-02  0.1093470E+00
          1   -1    0    0  502    0  0.00000000000E+00  0.00000000000E+00  0.96244048447E+02  0.96244048447E+02  0.00000000000E+00 0.  1.
         13   -1    0    0    0    0 -0.00000000000E+00 -0.00000000000E+00 -0.10000000000E+04  0.10000000000E+04  0.00000000000E+00 0.  1.
    9000005    2    1    2  501    0  0.11267550046E+02 -0.16524204922E+02 -0.91281633385E+03  0.10742873283E+04  0.56609150971E+03 0.  0.
         13    1    3    3    0    0  0.17121510168E+03  0.16938509121E+03 -0.72913270251E+03  0.76788047119E+03  0.00000000000E+00 0.  1.
          3    1    3    3  501    0 -0.15994755163E+03 -0.18590929613E+03 -0.18368363134E+03  0.30640685711E+03  0.00000000000E+00 0.  1.
         21    1    1    2  502  501 -0.11267550046E+02  0.16524204922E+02  0.90603822981E+01  0.21956720149E+02  0.00000000000E+00 0.  1.
<mgrwt>
<rscale>  1 0.30000000E+03</rscale>
<asrwt>0</asrwt>
<pdfrwt beam="1">  1        1 0.34997910E+00 0.30000000E+03</pdfrwt>
<pdfrwt beam="2">0</pdfrwt>
<totfact> 0.19695219E+00</totfact>
</mgrwt>
</event>
<event>
 6    1  0.5260809E-006  0.3000000E+03  0.7818608E-02  0.1093470E+00
          1   -1    0    0  502    0  0.00000000000E+00  0.00000000000E+00  0.11115825534E+03  0.11115825534E+03  0.00000000000E+00 0.  1.
         13   -1    0    0    0    0 -0.00000000000E+00 -0.00000000000E+00 -0.10000000000E+04  0.10000000000E+04  0.00000000000E+00 0.  1.
    9000005    2    1    2  501    0 -0.17312432415E+02  0.94495222496E+01 -0.89199557681E+03  0.10911842611E+04  0.62820217202E+03 0.  0.
         13    1    3    3    0    0 -0.26670801927E+03  0.15236133870E+03 -0.63594055014E+03  0.70623475444E+03  0.00000000000E+00 0.  1.
          1    1    3    3  501    0  0.24939558686E+03 -0.14291181645E+03 -0.25605502668E+03  0.38494950670E+03  0.00000000000E+00 0.  1.
         21    1    1    2  502  501  0.17312432415E+02 -0.94495222496E+01  0.31538321573E+01  0.19973994196E+02  0.00000000000E+00 0.  1.
<mgrwt>
<rscale>  1 0.30000000E+03</rscale>
<asrwt>0</asrwt>
<pdfrwt beam="1">  1        1 0.40421269E+00 0.30000000E+03</pdfrwt>
<pdfrwt beam="2">0</pdfrwt>
<totfact> 0.99608575E-01</totfact>
</mgrwt>
</event>
<event>
 6    1  0.5260809E-006  0.3000000E+03  0.7818608E-02  0.1093470E+00
          1   -1    0    0  502    0  0.00000000000E+00  0.00000000000E+00  0.13916052880E+03  0.13916052880E+03  0.00000000000E+00 0.  1.
         13   -1    0    0    0    0 -0.00000000000E+00 -0.00000000000E+00 -0.10000000000E+04  0.10000000000E+04  0.00000000000E+00 0.  1.
    9000005    2    1    2  501    0  0.55362433393E+02 -0.82515896476E+00 -0.86297248623E+03  0.10837508756E+04  0.65324479974E+03 0.  0.
         13    1    3    3    0    0 -0.18868844058E+03  0.12417266366E+03 -0.75667193904E+03  0.78966739918E+03  0.00000000000E+00 0.  1.
          1    1    3    3  501    0  0.24405087397E+03 -0.12499782263E+03 -0.10630054719E+03  0.29408347638E+03  0.00000000000E+00 0.  1.
         21    1    1    2  502  501 -0.55362433393E+02  0.82515896476E+00  0.21330150290E+01  0.55409653235E+02  0.00000000000E+00 0.  1.
<mgrwt>
<rscale>  1 0.30000000E+03</rscale>
<asrwt>0</asrwt>
<pdfrwt beam="1">  1        1 0.50603935E+00 0.30000000E+03</pdfrwt>
<pdfrwt beam="2">0</pdfrwt>
<totfact> 0.20623932E-01</totfact>
</mgrwt>
</event>
<event>
 6    1  0.5260809E-006  0.3000000E+03  0.7818608E-02  0.1093470E+00
          1   -1    0    0  502    0  0.00000000000E+00  0.00000000000E+00  0.17451423003E+03  0.17451423003E+03  0.00000000000E+00 0.  1.
         13   -1    0    0    0    0 -0.00000000000E+00 -0.00000000000E+00 -0.10000000000E+04  0.10000000000E+04  0.00000000000E+00 0.  1.
    9000005    2    1    2  501    0 -0.90758729905E+01 -0.25968778145E+02 -0.88923468321E+03  0.11050831646E+04  0.65552553720E+03 0.  0.
         13    1    3    3    0    0  0.15248510702E+03 -0.29890892477E+03 -0.51294984015E+03  0.61295659853E+03  0.00000000000E+00 0.  1.
          1    1    3    3  501    0 -0.16156098001E+03  0.27294014663E+03 -0.37628484306E+03  0.49212656606E+03  0.00000000000E+00 0.  1.
         21    1    1    2  502  501  0.90758729905E+01  0.25968778145E+02  0.63748913245E+02  0.69431065445E+02  0.00000000000E+00 0.  1.
<mgrwt>
<rscale>  1 0.30000000E+03</rscale>
<asrwt>0</asrwt>
<pdfrwt beam="1">  1        1 0.63459854E+00 0.30000000E+03</pdfrwt>
<pdfrwt beam="2">0</pdfrwt>
<totfact> 0.42054439E-02</totfact>
</mgrwt>
</event>
<event>
 6    1  0.5260809E-006  0.3000000E+03  0.7818608E-02  0.1093470E+00
          1   -1    0    0  502    0  0.00000000000E+00  0.00000000000E+00  0.11934508843E+03  0.11934508843E+03  0.00000000000E+00 0.  1.
         13   -1    0    0    0    0 -0.00000000000E+00 -0.00000000000E+00 -0.10000000000E+04  0.10000000000E+04  0.00000000000E+00 0.  1.
    9000005    2    1    2  501    0  0.97758663215E+00 -0.11511011908E+02 -0.89248000441E+03  0.11028135461E+04  0.64772193120E+03 0.  0.
         13    1    3    3    0    0 -0.41776217946E+02  0.25737809647E+03 -0.12635786418E+03  0.28974997286E+03  0.00000000000E+00 0.  1.
          3    1    3    3  501    0  0.42753804578E+02 -0.26888910838E+03 -0.76612214023E+03  0.81306357326E+03  0.00000000000E+00 0.  1.
         21    1    1    2  502  501 -0.97758663215E+00  0.11511011908E+02  0.11825092835E+02  0.16531542315E+02  0.00000000000E+00 0. -1.
<mgrwt>
<rscale>  1 0.30000000E+03</rscale>
<asrwt>0</asrwt>
<pdfrwt beam="1">  1        1 0.43398305E+00 0.30000000E+03</pdfrwt>
<pdfrwt beam="2">0</pdfrwt>
<totfact> 0.65538799E-01</totfact>
</mgrwt>
</event>
<event>
 6    1  0.5260809E-006  0.3000000E+03  0.7818608E-02  0.1093470E+00
          1   -1    0    0  502    0  0.00000000000E+00  0.00000000000E+00  0.11211502847E+03  0.11211502847E+03  0.00000000000E+00 0.  1.
         13   -1    0    0    0    0 -0.00000000000E+00 -0.00000000000E+00 -0.10000000000E+04  0.10000000000E+04  0.00000000000E+00 0.  1.
    9000005    2    1    2  501    0 -0.13055517385E+02 -0.19511200968E+01 -0.88404811722E+03  0.10983682159E+04  0.65168812389E+03 0.  0.
         13    1    3    3    0    0 -0.26448996893E+02  0.25630720511E+03 -0.77677519720E+03  0.81839638307E+03  0.00000000000E+00 0.  1.
          1    1    3    3  501    0  0.13393479508E+02 -0.25825832521E+03 -0.10727292002E+03  0.27997183287E+03  0.00000000000E+00 0.  1.
         21    1    1    2  502  501  0.13055517385E+02  0.19511200968E+01 -0.38368543062E+01  0.13746812532E+02  0.00000000000E+00 0.  1.
<mgrwt>
<rscale>  1 0.30000000E+03</rscale>
<asrwt>0</asrwt>
<pdfrwt beam="1">  1        1 0.40769187E+00 0.30000000E+03</pdfrwt>
<pdfrwt beam="2">0</pdfrwt>
<totfact> 0.95064102E-01</totfact>
</mgrwt>
</event>
<event>
 6    1  0.5260809E-006  0.3000000E+03  0.7818608E-02  0.1093470E+00
          1   -1    0    0  502    0  0.00000000000E+00  0.00000000000E+00  0.99476427447E+02  0.99476427447E+02  0.00000000000E+00 0.  1.
         13   -1    0    0    0    0 -0.00000000000E+00 -0.00000000000E+00 -0.10000000000E+04  0.10000000000E+04  0.00000000000E+00 0.  1.
    9000005    2    1    2  501    0 -0.11568899184E+01  0.17651663164E+02 -0.89542142230E+03  0.10810657907E+04  0.60548393933E+03 0.  0.
         13    1    3    3    0    0  0.25005481237E+03  0.16647831647E+03 -0.34094408151E+03  0.45440654239E+03  0.00000000000E+00 0.  1.
          3    1    3    3  501    0 -0.25121170229E+03 -0.14882665331E+03 -0.55447734079E+03  0.62665924835E+03  0.00000000000E+00 0.  1.
         21    1    1    2  502  501  0.11568899184E+01 -0.17651663164E+02 -0.51021502548E+01  0.18410636707E+02  0.00000000000E+00 0. -1.
<mgrwt>
<rscale>  1 0.30000000E+03</rscale>
<asrwt>0</asrwt>
<pdfrwt beam="1">  1        1 0.36173323E+00 0.30000000E+03</pdfrwt>
<pdfrwt beam="2">0</pdfrwt>
<totfact> 0.17095468E+00</totfact>
</mgrwt>
</event>
<event>
 6    1  0.5260809E-006  0.3000000E+03  0.7818608E-02  0.1093470E+00
          1   -1    0    0  502    0  0.00000000000E+00  0.00000000000E+00  0.10895366131E+03  0.10895366131E+03  0.00000000000E+00 0.  1.
         13   -1    0    0    0    0 -0.00000000000E+00 -0.00000000000E+00 -0.10000000000E+04  0.10000000000E+04  0.00000000000E+00 0.  1.
    9000005    2    1    2  501    0  0.21664539842E+00 -0.11889014407E+02 -0.88400843117E+03  0.10951360008E+04  0.64630531357E+03 0.  0.
         13    1    3    3    0    0 -0.19324910441E+03 -0.34374842302E-01 -0.88031029373E+03  0.90127211805E+03  0.00000000000E+00 0.  1.
          3    1    3    3  501    0  0.19346574981E+03 -0.11854639565E+02 -0.36981374445E+01  0.19386388279E+03  0.00000000000E+00 0.  1.
         21    1    1    2  502  501 -0.21664539842E+00  0.11889014407E+02 -0.70379075154E+01  0.13817660475E+02  0.00000000000E+00 0. -1.
<mgrwt>
<rscale>  1 0.30000000E+03</rscale>
<asrwt>0</asrwt>
<pdfrwt beam="1">  1        1 0.39619597E+00 0.30000000E+03</pdfrwt>
<pdfrwt beam="2">0</pdfrwt>
<totfact> 0.11068117E+00</totfact>
</mgrwt>
</event>
<event>
 6    1  0.5260809E-006  0.3000000E+03  0.7818608E-02  0.1093470E+00
          1   -1    0    0  502    0  0.00000000000E+00  0.00000000000E+00  0.11078798979E+03  0.11078798979E+03  0.00000000000E+00 0.  1.
         13   -1    0    0    0    0 -0.00000000000E+00 -0.00000000000E+00 -0.10000000000E+04  0.10000000000E+04  0.00000000000E+00 0.  1.
    9000005    2    1    2  501    0 -0.68139992092E+01 -0.11202180306E+02 -0.88128968508E+03  0.10954686339E+04  0.65054446385E+03 0.  0.
         13    1    3    3    0    0 -0.13106093125E+03  0.18698122050E+03 -0.52492234656E+02  0.23429549552E+03  0.00000000000E+00 0.  1.
          3    1    3    3  501    0  0.12424693204E+03 -0.19818340081E+03 -0.82879745043E+03  0.86117313840E+03  0.00000000000E+00 0.  1.
         21    1    1    2  502  501  0.68139992092E+01  0.11202180306E+02 -0.79223251260E+01  0.15319355869E+02  0.00000000000E+00 0.  1.
<mgrwt>
<rscale>  1 0.30000000E+03</rscale>
<asrwt>0</asrwt>
<pdfrwt beam="1">  1        1 0.40286627E+00 0.30000000E+03</pdfrwt>
<pdfrwt beam="2">0</pdfrwt>
<totfact> 0.10140878E+00</totfact>
</mgrwt>
</event>
<event>
 6    1  0.5260809E-006  0.3000000E+03  0.7818608E-02  0.1093470E+00
          1   -1    0    0  502    0  0.00000000000E+00  0.00000000000E+00  0.12588985169E+03  0.12588985169E+03  0.00000000000E+00 0.  1.
         13   -1    0    0    0    0 -0.00000000000E+00 -0.00000000000E+00 -0.10000000000E+04  0.10000000000E+04  0.00000000000E+00 0.  1.
    9000005    2    1    2  501    0  0.93945960716E+01 -0.65010645415E+01 -0.89725970383E+03  0.11000746586E+04  0.63636369792E+03 0.  0.
         13    1    3    3    0    0 -0.24374678375E+03 -0.14286472860E+03 -0.69007635060E+03  0.74567298122E+03  0.00000000000E+00 0.  1.
          3    1    3    3  501    0  0.25314137982E+03  0.13636366405E+03 -0.20718335322E+03  0.35440167734E+03  0.00000000000E+00 0.  1.
         21    1    1    2  502  501 -0.93945960716E+01  0.65010645415E+01  0.23149555518E+02  0.25815193128E+02  0.00000000000E+00 0.  1.
<mgrwt>
<rscale>  1 0.30000000E+03</rscale>
<asrwt>0</asrwt>
<pdfrwt beam="1">  1        1 0.45778224E+00 0.30000000E+03</pdfrwt>
<pdfrwt beam="2">0</pdfrwt>
<totfact> 0.45615355E-01</totfact>
</mgrwt>
</event>
<event>
 6    1  0.5260809E-006  0.3000000E+03  0.7818608E-02  0.1093470E+00
          1   -1    0    0  502    0  0.00000000000E+00  0.00000000000E+00  0.10625667403E+03  0.10625667403E+03  0.00000000000E+00 0.  1.
         13   -1    0    0    0    0 -0.00000000000E+00 -0.00000000000E+00 -0.10000000000E+04  0.10000000000E+04  0.00000000000E+00 0.  1.
    9000005    2    1    2  501    0  0.80042295586E+01  0.28959117146E+01 -0.88769360557E+03  0.10958138242E+04  0.64244497504E+03 0.  0.
         13    1    3    3    0    0  0.20482807062E+03 -0.24473365817E+03 -0.36488064673E+03  0.48475456503E+03  0.00000000000E+00 0.  1.
          1    1    3    3  501    0 -0.19682384106E+03  0.24762956989E+03 -0.52281295884E+03  0.61105925917E+03  0.00000000000E+00 0.  1.
         21    1    1    2  502  501 -0.80042295586E+01 -0.28959117146E+01 -0.60497204033E+01  0.10442849824E+02  0.00000000000E+00 0. -1.
<mgrwt>
<rscale>  1 0.30000000E+03</rscale>
<asrwt>0</asrwt>
<pdfrwt beam="1">  1        1 0.38638872E+00 0.30000000E+03</pdfrwt>
<pdfrwt beam="2">0</pdfrwt>
<totfact> 0.12561131E+00</totfact>
</mgrwt>
</event>
<event>
 6    1  0.5260809E-006  0.3000000E+03  0.7818608E-02  0.1093470E+00
          1   -1    0    0  502    0  0.00000000000E+00  0.00000000000E+00  0.11222245037E+03  0.11222245037E+03  0.00000000000E+00 0.  1.
         13   -1    0    0    0    0 -0.00000000000E+00 -0.00000000000E+00 -0.10000000000E+04  0.10000000000E+04  0.00000000000E+00 0.  1.
    9000005    2    1    2  501    0 -0.59346843828E+00  0.18671393635E+02 -0.88092015201E+03  0.10923227758E+04  0.64560030917E+03 0.  0.
         13    1    3    3    0    0 -0.25414681387E+03  0.20124187658E+03 -0.54044415225E+03  0.63021327944E+03  0.00000000000E+00 0.  1.
          1    1    3    3  501    0  0.25355334543E+03 -0.18257048294E+03 -0.34047599977E+03  0.46210949638E+03  0.00000000000E+00 0.  1.
         21    1    1    2  502  501  0.59346843828E+00 -0.18671393635E+02 -0.68573976171E+01  0.19899674548E+02  0.00000000000E+00 0.  1.
<mgrwt>
<rscale>  1 0.30000000E+03</rscale>
<asrwt>0</asrwt>
<pdfrwt beam="1">  1        1 0.40808250E+00 0.30000000E+03</pdfrwt>
<pdfrwt beam="2">0</pdfrwt>
<totfact> 0.94563621E-01</totfact>
</mgrwt>
</event>
<event>
 6    1  0.5260809E-006  0.3000000E+03  0.7818608E-02  0.1093470E+00
          1   -1    0    0  502    0  0.00000000000E+00  0.00000000000E+00  0.11558788763E+03  0.11558788763E+03  0.00000000000E+00 0.  1.
         13   -1    0    0    0    0 -0.00000000000E+00 -0.00000000000E+00 -0.10000000000E+04  0.10000000000E+04  0.00000000000E+00 0.  1.
    9000005    2    1    2  501    0  0.16116446303E+02 -0.16157876432E+02 -0.87276059341E+03  0.10899641739E+04  0.65252588464E+03 0.  0.
         13    1    3    3    0    0  0.19676644500E+03  0.14082643656E+03 -0.69419082264E+02  0.25173026853E+03  0.00000000000E+00 0.  1.
          3    1    3    3  501    0 -0.18064999869E+03 -0.15698431299E+03 -0.80334151115E+03  0.83823390535E+03  0.00000000000E+00 0.  1.
         21    1    1    2  502  501 -0.16116446303E+02  0.16157876432E+02 -0.11651518958E+02  0.25623713748E+02  0.00000000000E+00 0. -1.
<mgrwt>
<rscale>  1 0.30000000E+03</rscale>
<asrwt>0</asrwt>
<pdfrwt beam="1">  1        1 0.42032048E+00 0.30000000E+03</pdfrwt>
<pdfrwt beam="2">0</pdfrwt>
<totfact> 0.79839340E-01</totfact>
</mgrwt>
</event>
<event>
 6    1  0.5260809E-006  0.3000000E+03  0.7818608E-02  0.1093470E+00
          1   -1    0    0  502    0  0.00000000000E+00  0.00000000000E+00  0.11573590232E+03  0.11573590232E+03  0.00000000000E+00 0.  1.
         13   -1    0    0    0    0 -0.00000000000E+00 -0.00000000000E+00 -0.10000000000E+04  0.10000000000E+04  0.00000000000E+00 0.  1.
    9000005    2    1    2  501    0  0.18856364435E+02 -0.12264857005E+02 -0.88041360794E+03  0.10929145205E+04  0.64716925056E+03 0.  0.
         13    1    3    3    0    0 -0.12979254972E+03 -0.28404821765E+03 -0.59364405820E+03  0.67077773051E+03  0.00000000000E+00 0.  1.
          3    1    3    3  501    0  0.14864891415E+03  0.27178336065E+03 -0.28676954973E+03  0.42213678998E+03  0.00000000000E+00 0.  1.
         21    1    1    2  502  501 -0.18856364435E+02  0.12264857005E+02 -0.38504897454E+01  0.22821381824E+02  0.00000000000E+00 0.  1.
<mgrwt>
<rscale>  1 0.30000000E+03</rscale>
<asrwt>0</asrwt>
<pdfrwt beam="1">  1        1 0.42085871E+00 0.30000000E+03</pdfrwt>
<pdfrwt beam="2">0</pdfrwt>
<totfact> 0.79231838E-01</totfact>
</mgrwt>
</event>
<event>
 6    1  0.5260809E-006  0.3000000E+03  0.7818608E-02  0.1093470E+00
          1   -1    0    0  502    0  0.00000000000E+00  0.00000000000E+00  0.10667673798E+03  0.10667673798E+03  0.00000000000E+00 0.  1.
         13   -1    0    0    0    0 -0.00000000000E+00 -0.00000000000E+00 -0.10000000000E+04  0.10000000000E+04  0.00000000000E+00 0.  1.
    9000005    2    1    2  501    0  0.23215971088E+01 -0.12239819238E+02 -0.89041404557E+03  0.10938835160E+04  0.63528636933E+03 0.  0.
         13    1    3    3    0    0  0.49897967900E+02  0.15961939824E+03 -0.89990064899E+03  0.91530832922E+03  0.00000000000E+00 0.  1.
          3    1    3    3  501    0 -0.47576370791E+02 -0.17185921748E+03  0.94866034174E+01  0.17857518679E+03  0.00000000000E+00 0.  1.
         21    1    1    2  502  501 -0.23215971088E+01  0.12239819238E+02 -0.29092164485E+01  0.12793221974E+02  0.00000000000E+00 0.  1.
<mgrwt>
<rscale>  1 0.30000000E+03</rscale>
<asrwt>0</asrwt>
<pdfrwt beam="1">  1        1 0.38791623E+00 0.30000000E+03</pdfrwt>
<pdfrwt beam="2">0</pdfrwt>
<totfact> 0.12317634E+00</totfact>
</mgrwt>
</event>
<event>
 6    1  0.5260809E-006  0.3000000E+03  0.7818608E-02  0.1093470E+00
          1   -1    0    0  502    0  0.00000000000E+00  0.00000000000E+00  0.11583449633E+03  0.11583449633E+03  0.00000000000E+00 0.  1.
         13   -1    0    0    0    0 -0.00000000000E+00 -0.00000000000E+00 -0.10000000000E+04  0.10000000000E+04  0.00000000000E+00 0.  1.
    9000005    2    1    2  501    0 -0.22492007107E+02 -0.10625549466E+02 -0.87645895224E+03  0.10897925375E+04  0.64718520312E+03 0.  0.
         13    1    3    3    0    0  0.29415571897E+03  0.19282784618E+02 -0.59947350758E+03  0.66803285778E+03  0.00000000000E+00 0.  1.
          1    1    3    3  501    0 -0.31664772608E+03 -0.29908334084E+02 -0.27698544466E+03  0.42175967971E+03  0.00000000000E+00 0.  1.
         21    1    1    2  502  501  0.22492007107E+02  0.10625549466E+02 -0.77065514310E+01  0.26041958838E+02  0.00000000000E+00 0.  1.
<mgrwt>
<rscale>  1 0.30000000E+03</rscale>
<asrwt>0</asrwt>
<pdfrwt beam="1">  1        1 0.42121724E+00 0.30000000E+03</pdfrwt>
<pdfrwt beam="2">0</pdfrwt>
<totfact> 0.78829064E-01</totfact>
</mgrwt>
</event>
<event>
 6    1  0.5260809E-006  0.3000000E+03  0.7818608E-02  0.1093470E+00
          1   -1    0    0  502    0  0.00000000000E+00  0.00000000000E+00  0.10995261429E+03  0.10995261429E+03  0.00000000000E+00 0.  1.
         13   -1    0    0    0    0 -0.00000000000E+00 -0.00000000000E+00 -0.10000000000E+04  0.10000000000E+04  0.00000000000E+00 0.  1.
    9000005    2    1    2  501    0 -0.98536113817E+01  0.23161647302E+01 -0.87828126152E+03  0.10944316622E+04  0.65291671027E+03 0.  0.
         13    1    3    3    0    0  0.70927232364E+02 -0.29497714803E+03 -0.24414001996E+03  0.38941820643E+03  0.00000000000E+00 0.  1.
          3    1    3    3  501    0 -0.80780843745E+02  0.29729331276E+03 -0.63414124156E+03  0.70501345574E+03  0.00000000000E+00 0.  1.
         21    1    1    2  502  501  0.98536113817E+01 -0.23161647302E+01 -0.11766124183E+02  0.15520952117E+02  0.00000000000E+00 0.  1.
<mgrwt>
<rscale>  1 0.30000000E+03</rscale>
<asrwt>0</asrwt>
<pdfrwt beam="1">  1        1 0.39982853E+00 0.30000000E+03</pdfrwt>
<pdfrwt beam="2">0</pdfrwt>
<totfact> 0.10555442E+00</totfact>
</mgrwt>
</event>
<event>
 6    1  0.5260809E-006  0.3000000E+03  0.7818608E-02  0.1093470E+00
          1   -1    0    0  502    0  0.00000000000E+00  0.00000000000E+00  0.12782480290E+03  0.12782480290E+03  0.00000000000E+00 0.  1.
         13   -1    0    0    0    0 -0.00000000000E+00 -0.00000000000E+00 -0.10000000000E+04  0.10000000000E+04  0.00000000000E+00 0.  1.
    9000005    2    1    2  501    0  0.21563697142E+02 -0.10964618685E+02 -0.89409063598E+03  0.10951827693E+04  0.63201425370E+03 0.  0.
         13    1    3    3    0    0  0.32558140135E+03 -0.17933429745E+02 -0.50919785754E+03  0.60465470719E+03  0.00000000000E+00 0.  1.
          3    1    3    3  501    0 -0.30401770420E+03  0.69688110600E+01 -0.38489277845E+03  0.49052806209E+03  0.00000000000E+00 0.  1.
         21    1    1    2  502  501 -0.21563697142E+02  0.10964618685E+02  0.21915438887E+02  0.32642033622E+02  0.00000000000E+00 0.  1.
<mgrwt>
<rscale>  1 0.30000000E+03</rscale>
<asrwt>0</asrwt>
<pdfrwt beam="1">  1        1 0.46481845E+00 0.30000000E+03</pdfrwt>
<pdfrwt beam="2">0</pdfrwt>
<totfact> 0.40855928E-01</totfact>
</mgrwt>
</event>
<event>
 6    1  0.5260809E-006  0.3000000E+03  0.7818608E-02  0.1093470E+00
          1   -1    0    0  502    0  0.00000000000E+00  0.00000000000E+00  0.11676977296E+03  0.11676977296E+03  0.00000000000E+00 0.  1.
         13   -1    0    0    0    0 -0.00000000000E+00 -0.00000000000E+00 -0.10000000000E+04  0.10000000000E+04  0.00000000000E+00 0.  1.
    9000005    2    1    2  501    0  0.52877546293E+01  0.18407272226E+02 -0.87135454462E+03  0.10942349143E+04  0.66160752514E+03 0.  0.
         13    1    3    3    0    0 -0.29853313214E+03 -0.56468564705E+02 -0.23152304303E+03  0.38198645165E+03  0.00000000000E+00 0.  1.
          3    1    3    3  501    0  0.30382088677E+03  0.74875836931E+02 -0.63983150159E+03  0.71224846270E+03  0.00000000000E+00 0.  1.
         21    1    1    2  502  501 -0.52877546293E+01 -0.18407272226E+02 -0.11875682422E+02  0.22534858615E+02  0.00000000000E+00 0. -1.
<mgrwt>
<rscale>  1 0.30000000E+03</rscale>
<asrwt>0</asrwt>
<pdfrwt beam="1">  1        1 0.42461825E+00 0.30000000E+03</pdfrwt>
<pdfrwt beam="2">0</pdfrwt>
<totfact> 0.75085876E-01</totfact>
</mgrwt>
</event>
<event>
 6    1  0.5260809E-006  0.3000000E+03  0.7818608E-02  0.1093470E+00
          1   -1    0    0  502    0  0.00000000000E+00  0.00000000000E+00  0.11615503691E+03  0.11615503691E+03  0.00000000000E+00 0.  1.
         13   -1    0    0    0    0 -0.00000000000E+00 -0.00000000000E+00 -0.10000000000E+04  0.10000000000E+04  0.00000000000E+00 0.  1.
    9000005    2    1    2  501    0  0.78359445300E+01  0.62360462775E+01 -0.88736350965E+03  0.11055404022E+04  0.65932184278E+03 0.  0.
         13    1    3    3    0    0  0.25995346365E+03 -0.20445295887E+03 -0.43485344902E+03  0.54632804960E+03  0.00000000000E+00 0.  1.
          1    1    3    3  501    0 -0.25211751912E+03  0.21068900515E+03 -0.45251006063E+03  0.55921235261E+03  0.00000000000E+00 0.  1.
         21    1    1    2  502  501 -0.78359445300E+01 -0.62360462775E+01  0.35185465586E+01  0.10614634696E+02  0.00000000000E+00 0.  1.
<mgrwt>
<rscale>  1 0.30000000E+03</rscale>
<asrwt>0</asrwt>
<pdfrwt beam="1">  1        1 0.42238284E+00 0.30000000E+03</pdfrwt>
<pdfrwt beam="2">0</pdfrwt>
<totfact> 0.77530206E-01</totfact>
</mgrwt>
</event>
<event>
 6    1  0.5260809E-006  0.3000000E+03  0.7818608E-02  0.1093470E+00
          1   -1    0    0  502    0  0.00000000000E+00  0.00000000000E+00  0.11639101302E+03  0.11639101302E+03  0.00000000000E+00 0.  1.
         13   -1    0    0    0    0 -0.00000000000E+00 -0.00000000000E+00 -0.10000000000E+04  0.10000000000E+04  0.00000000000E+00 0.  1.
    9000005    2    1    2  501    0  0.95637390539E+01  0.58533288469E+01 -0.89367039159E+03  0.11013258736E+04  0.64354190577E+03 0.  0.
         13    1    3    3    0    0  0.26646236468E+02  0.73150604438E+02 -0.98417894848E+03  0.98725337958E+03  0.00000000000E+00 0.  1.
          3    1    3    3  501    0 -0.17082497414E+02 -0.67297275591E+02  0.90508556895E+02  0.11407249402E+03  0.00000000000E+00 0.  1.
         21    1    1    2  502  501 -0.95637390539E+01 -0.58533288469E+01  0.10061404611E+02  0.15065139429E+02  0.00000000000E+00 0. -1.
<mgrwt>
<rscale>  1 0.30000000E+03</rscale>
<asrwt>0</asrwt>
<pdfrwt beam="1">  1        1 0.42324094E+00 0.30000000E+03</pdfrwt>
<pdfrwt beam="2">0</pdfrwt>
<totfact> 0.76584560E-01</totfact>
</mgrwt>
</event>
<event>
 6    1  0.5260809E-006  0.3000000E+03  0.7818608E-02  0.1093470E+00
          1   -1    0    0  502    0  0.00000000000E+00  0.00000000000E+00  0.12326333856E+03  0.12326333856E+03  0.00000000000E+00 0.  1.
         13   -1    0    0    0    0 -0.00000000000E+00 -0.00000000000E+00 -0.10000000000E+04  0.10000000000E+04  0.00000000000E+00 0.  1.
    9000005    2    1    2  501    0 -0.86766851764E+01 -0.30716638192E+02 -0.86750136501E+03  0.10900355275E+04  0.65924201640E+03 0.  0.
         13    1    3    3    0    0 -0.22244671414E+03 -0.21501928480E+03 -0.20834815260E+03  0.37299435137E+03  0.00000000000E+00 0.  1.
          1    1    3    3  501    0  0.21377002896E+03  0.18430264660E+03 -0.65915321241E+03  0.71704117612E+03  0.00000000000E+00 0.  1.
         21    1    1    2  502  501  0.86766851764E+01  0.30716638192E+02 -0.92352964336E+01  0.33227811058E+02  0.00000000000E+00 0.  1.
<mgrwt>
<rscale>  1 0.30000000E+03</rscale>
<asrwt>0</asrwt>
<pdfrwt beam="1">  1        1 0.44823127E+00 0.30000000E+03</pdfrwt>
<pdfrwt beam="2">0</pdfrwt>
<totfact> 0.52880392E-01</totfact>
</mgrwt>
</event>
<event>
 6    1  0.5260809E-006  0.3000000E+03  0.7818608E-02  0.1093470E+00
          1   -1    0    0  502    0  0.00000000000E+00  0.00000000000E+00  0.12025684862E+03  0.12025684862E+03  0.00000000000E+00 0.  1.
         13   -1    0    0    0    0 -0.00000000000E+00 -0.00000000000E+00 -0.10000000000E+04  0.10000000000E+04  0.00000000000E+00 0.  1.
    9000005    2    1    2  501    0 -0.11754214991E+02  0.43256707310E+01 -0.88553570655E+03  0.11064573308E+04  0.66326274149E+03 0.  0.
         13    1    3    3    0    0  0.23525413418E+02 -0.97870654069E+02  0.83883011042E+02  0.13102850661E+03  0.00000000000E+00 0.  1.
          3    1    3    3  501    0 -0.35279628409E+02  0.10219632480E+03 -0.96941871759E+03  0.97542882416E+03  0.00000000000E+00 0.  1.
         21    1    1    2  502  501  0.11754214991E+02 -0.43256707310E+01  0.57925551740E+01  0.13799517846E+02  0.00000000000E+00 0. -1.
<mgrwt>
<rscale>  1 0.30000000E+03</rscale>
<asrwt>0</asrwt>
<pdfrwt beam="1">  1        1 0.43729855E+00 0.30000000E+03</pdfrwt>
<pdfrwt beam="2">0</pdfrwt>
<totfact> 0.62408178E-01</totfact>
</mgrwt>
</event>
<event>
 6    1  0.5260809E-006  0.3000000E+03  0.7818608E-02  0.1093470E+00
          1   -1    0    0  502    0  0.00000000000E+00  0.00000000000E+00  0.11383794877E+03  0.11383794877E+03  0.00000000000E+00 0.  1.
         13   -1    0    0    0    0 -0.00000000000E+00 -0.00000000000E+00 -0.10000000000E+04  0.10000000000E+04  0.00000000000E+00 0.  1.
    9000005    2    1    2  501    0  0.68212087767E+01 -0.61928229188E+01 -0.88196807288E+03  0.11037152318E+04  0.66350188497E+03 0.  0.
         13    1    3    3    0    0  0.10402166295E+03  0.25718098826E+03 -0.14068902828E+03  0.31105621641E+03  0.00000000000E+00 0.  1.
          1    1    3    3  501    0 -0.97200454171E+02 -0.26337381118E+03 -0.74127904459E+03  0.79265901538E+03  0.00000000000E+00 0.  1.
         21    1    1    2  502  501 -0.68212087767E+01  0.61928229188E+01 -0.41939783466E+01  0.10122716990E+02  0.00000000000E+00 0. -1.
<mgrwt>
<rscale>  1 0.30000000E+03</rscale>
<asrwt>0</asrwt>
<pdfrwt beam="1">  1        1 0.41395705E+00 0.30000000E+03</pdfrwt>
<pdfrwt beam="2">0</pdfrwt>
<totfact> 0.87269896E-01</totfact>
</mgrwt>
</event>
<event>
 6    1  0.5260809E-006  0.3000000E+03  0.7818608E-02  0.1093470E+00
          1   -1    0    0  502    0  0.00000000000E+00  0.00000000000E+00  0.13048781883E+03  0.13048781883E+03  0.00000000000E+00 0.  1.
         13   -1    0    0    0    0 -0.00000000000E+00 -0.00000000000E+00 -0.10000000000E+04  0.10000000000E+04  0.00000000000E+00 0.  1.
    9000005    2    1    2  501    0  0.21529952202E+02  0.20084346096E+02 -0.88652054532E+03  0.10964848153E+04  0.64458773883E+03 0.  0.
         13    1    3    3    0    0  0.17825885487E+03  0.46149370027E+02  0.11522009860E+02  0.18449590892E+03  0.00000000000E+00 0.  1.
          3    1    3    3  501    0 -0.15672890267E+03 -0.26065023931E+02 -0.89804255518E+03  0.91198890636E+03  0.00000000000E+00 0.  1.
         21    1    1    2  502  501 -0.21529952202E+02 -0.20084346096E+02  0.17008364149E+02  0.34003003557E+02  0.00000000000E+00 0.  1.
<mgrwt>
<rscale>  1 0.30000000E+03</rscale>
<asrwt>0</asrwt>
<pdfrwt beam="1">  1        1 0.47450216E+00 0.30000000E+03</pdfrwt>
<pdfrwt beam="2">0</pdfrwt>
<totfact> 0.34955966E-01</totfact>
</mgrwt>
</event>
<event>
 6    1  0.5260809E-006  0.3000000E+03  0.7818608E-02  0.1093470E+00
          1   -1    0    0  502    0  0.00000000000E+00  0.00000000000E+00  0.99321036427E+02  0.99321036427E+02  0.00000000000E+00 0.  1.
         13   -1    0    0    0    0 -0.00000000000E+00 -0.00000000000E+00 -0.10000000000E+04  0.10000000000E+04  0.00000000000E+00 0.  1.
    9000005    2    1    2  501    0 -0.81770243919E+00  0.10378157176E+02 -0.90122580858E+03  0.10888963627E+04  0.61104742514E+03 0.  0.
         13    1    3    3    0    0  0.20644509203E+03 -0.14607563597E+03 -0.14996272468E+03  0.29401783320E+03  0.00000000000E+00 0.  1.
          1    1    3    3  501    0 -0.20726279447E+03  0.15645379315E+03 -0.75126308390E+03  0.79487852946E+03  0.00000000000E+00 0.  1.
         21    1    1    2  502  501  0.81770243919E+00 -0.10378157176E+02  0.54684501083E+00  0.10424673766E+02  0.00000000000E+00 0.  1.
<mgrwt>
<rscale>  1 0.30000000E+03</rscale>
<asrwt>0</asrwt>
<pdfrwt beam="1">  1        1 0.36116817E+00 0.30000000E+03</pdfrwt>
<pdfrwt beam="2">0</pdfrwt>
<totfact> 0.17214517E+00</totfact>
</mgrwt>
</event>
<event>
 6    1  0.5260809E-006  0.3000000E+03  0.7818608E-02  0.1093470E+00
          1   -1    0    0  502    0  0.00000000000E+00  0.00000000000E+00  0.20114097783E+03  0.20114097783E+03  0.00000000000E+00 0.  1.
         13   -1    0    0    0    0 -0.00000000000E+00 -0.00000000000E+00 -0.10000000000E+04  0.10000000000E+04  0.00000000000E+00 0.  1.
    9000005    2    1    2  501    0  0.13773183293E+02 -0.25082635660E+02 -0.88523236735E+03  0.11101509017E+04  0.66931296211E+03 0.  0.
         13    1    3    3    0    0 -0.22907002511E+03  0.17276350338E+03 -0.67350251337E+03  0.73206962785E+03  0.00000000000E+00 0.  1.
          3    1    3    3  501    0  0.24284320841E+03 -0.19784613904E+03 -0.21172985397E+03  0.37808127389E+03  0.00000000000E+00 0.  1.
         21    1    1    2  502  501 -0.13773183293E+02  0.25082635660E+02  0.86373345180E+02  0.90990076092E+02  0.00000000000E+00 0. -1.
<mgrwt>
<rscale>  1 0.30000000E+03</rscale>
<asrwt>0</asrwt>
<pdfrwt beam="1">  1        1 0.73142328E+00 0.30000000E+03</pdfrwt>
<pdfrwt beam="2">0</pdfrwt>
<totfact> 0.18136865E-02</totfact>
</mgrwt>
</event>
<event>
 6    1  0.5260809E-006  0.3000000E+03  0.7818608E-02  0.1093470E+00
          1   -1    0    0  502    0  0.00000000000E+00  0.00000000000E+00  0.11404192790E+03  0.11404192790E+03  0.00000000000E+00 0.  1.
         13   -1    0    0    0    0 -0.00000000000E+00 -0.00000000000E+00 -0.10000000000E+04  0.10000000000E+04  0.00000000000E+00 0.  1.
    9000005    2    1    2  501    0 -0.41582265863E+01 -0.29354787297E+02 -0.87327776471E+03  0.10817962370E+04  0.63780094833E+03 0.  0.
         13    1    3    3    0    0  0.24153610980E+03  0.30013817486E+02 -0.91254713139E+02  0.25993834701E+03  0.00000000000E+00 0.  1.
          3    1    3    3  501    0 -0.24569433638E+03 -0.59368604783E+02 -0.78202305157E+03  0.82185789000E+03  0.00000000000E+00 0.  1.
         21    1    1    2  502  501  0.41582265863E+01  0.29354787297E+02 -0.12680307394E+02  0.32245690894E+02  0.00000000000E+00 0.  1.
<mgrwt>
<rscale>  1 0.30000000E+03</rscale>
<asrwt>0</asrwt>
<pdfrwt beam="1">  1        1 0.41469879E+00 0.30000000E+03</pdfrwt>
<pdfrwt beam="2">0</pdfrwt>
<totfact> 0.86379594E-01</totfact>
</mgrwt>
</event>
<event>
 6    1  0.5260809E-006  0.3000000E+03  0.7818608E-02  0.1093470E+00
          1   -1    0    0  502    0  0.00000000000E+00  0.00000000000E+00  0.11873858342E+03  0.11873858342E+03  0.00000000000E+00 0.  1.
         13   -1    0    0    0    0 -0.00000000000E+00 -0.00000000000E+00 -0.10000000000E+04  0.10000000000E+04  0.00000000000E+00 0.  1.
    9000005    2    1    2  501    0  0.10167313198E+02  0.18568866586E+02 -0.88917917384E+03  0.10961361954E+04  0.64064559517E+03 0.  0.
         13    1    3    3    0    0 -0.28135632793E+03  0.57157278000E+02 -0.67139699467E+03  0.73020699952E+03  0.00000000000E+00 0.  1.
          3    1    3    3  501    0  0.29152364113E+03 -0.38588411414E+02 -0.21778217917E+03  0.36592919588E+03  0.00000000000E+00 0.  1.
         21    1    1    2  502  501 -0.10167313198E+02 -0.18568866586E+02  0.79177572625E+01  0.22602388015E+02  0.00000000000E+00 0. -1.
<mgrwt>
<rscale>  1 0.30000000E+03</rscale>
<asrwt>0</asrwt>
<pdfrwt beam="1">  1        1 0.43177758E+00 0.30000000E+03</pdfrwt>
<pdfrwt beam="2">0</pdfrwt>
<totfact> 0.67689973E-01</totfact>
</mgrwt>
</event>
<event>
 6    1  0.5260809E-006  0.3000000E+03  0.7818608E-02  0.1093470E+00
          1   -1    0    0  502    0  0.00000000000E+00  0.00000000000E+00  0.12610348702E+03  0.12610348702E+03  0.00000000000E+00 0.  1.
         13   -1    0    0    0    0 -0.00000000000E+00 -0.00000000000E+00 -0.10000000000E+04  0.10000000000E+04  0.00000000000E+00 0.  1.
    9000005    2    1    2  501    0 -0.24936985801E+02  0.48979570221E+02 -0.82073400471E+03  0.10496371294E+04  0.65200685994E+03 0.  0.
         13    1    3    3    0    0  0.92092842654E+02 -0.12869679905E+03  0.39809772707E+02  0.16318325820E+03  0.00000000000E+00 0.  1.
          3    1    3    3  501    0 -0.11702982845E+03  0.17767636927E+03 -0.86054377741E+03  0.88645387121E+03  0.00000000000E+00 0.  1.
         21    1    1    2  502  501  0.24936985801E+02 -0.48979570221E+02 -0.53162508272E+02  0.76466357607E+02  0.00000000000E+00 0.  1.
<mgrwt>
<rscale>  1 0.30000000E+03</rscale>
<asrwt>0</asrwt>
<pdfrwt beam="1">  1        1 0.45855910E+00 0.30000000E+03</pdfrwt>
<pdfrwt beam="2">0</pdfrwt>
<totfact> 0.45068448E-01</totfact>
</mgrwt>
</event>
<event>
 6    1  0.5260809E-006  0.3000000E+03  0.7818608E-02  0.1093470E+00
          1   -1    0    0  502    0  0.00000000000E+00  0.00000000000E+00  0.12774827881E+03  0.12774827881E+03  0.00000000000E+00 0.  1.
         13   -1    0    0    0    0 -0.00000000000E+00 -0.00000000000E+00 -0.10000000000E+04  0.10000000000E+04  0.00000000000E+00 0.  1.
    9000005    2    1    2  501    0 -0.39099305378E+01  0.13321818310E+02 -0.88994502911E+03  0.11052580244E+04  0.65528649244E+03 0.  0.
         13    1    3    3    0    0  0.24193553367E+03  0.14001790349E+03 -0.15418799567E+03  0.31923620371E+03  0.00000000000E+00 0.  1.
          1    1    3    3  501    0 -0.24584546421E+03 -0.12669608518E+03 -0.73575703344E+03  0.78602182065E+03  0.00000000000E+00 0.  1.
         21    1    1    2  502  501  0.39099305378E+01 -0.13321818310E+02  0.17693307923E+02  0.22490254449E+02  0.00000000000E+00 0.  1.
<mgrwt>
<rscale>  1 0.30000000E+03</rscale>
<asrwt>0</asrwt>
<pdfrwt beam="1">  1        1 0.46454018E+00 0.30000000E+03</pdfrwt>
<pdfrwt beam="2">0</pdfrwt>
<totfact> 0.41036614E-01</totfact>
</mgrwt>
</event>
<event>
 6    1  0.5260809E-006  0.3000000E+03  0.7818608E-02  0.1093470E+00
          1   -1    0    0  502    0  0.00000000000E+00  0.00000000000E+00  0.11504438083E+03  0.11504438083E+03  0.00000000000E+00 0.  1.
         13   -1    0    0    0    0 -0.00000000000E+00 -0.00000000000E+00 -0.10000000000E+04  0.10000000000E+04  0.00000000000E+00 0.  1.
    9000005    2    1    2  501    0 -0.84044386241E+01 -0.78662295775E+01 -0.88551208071E+03  0.11035195465E+04  0.65840051057E+03 0.  0.
         13    1    3    3    0    0 -0.91474860752E+02  0.65154709795E+02  0.76039835814E+02  0.13562758933E+03  0.00000000000E+00 0.  1.
          1    1    3    3  501    0  0.83070422128E+02 -0.73020939372E+02 -0.96155191653E+03  0.96789195719E+03  0.00000000000E+00 0.  1.
         21    1    1    2  502  501  0.84044386241E+01  0.78662295775E+01  0.55646154868E+00  0.11524834307E+02  0.00000000000E+00 0.  1.
<mgrwt>
<rscale>  1 0.30000000E+03</rscale>
<asrwt>0</asrwt>
<pdfrwt beam="1">  1        1 0.41834409E+00 0.30000000E+03</pdfrwt>
<pdfrwt beam="2">0</pdfrwt>
<totfact> 0.82098631E-01</totfact>
</mgrwt>
</event>
<event>
 6    1  0.5260809E-006  0.3000000E+03  0.7818608E-02  0.1093470E+00
          1   -1    0    0  502    0  0.00000000000E+00  0.00000000000E+00  0.11321310072E+03  0.11321310072E+03  0.00000000000E+00 0.  1.
         13   -1    0    0    0    0 -0.00000000000E+00 -0.00000000000E+00 -0.10000000000E+04  0.10000000000E+04  0.00000000000E+00 0.  1.
    9000005    2    1    2  501    0  0.14987295707E+02 -0.18954755262E+02 -0.86901539533E+03  0.10832176322E+04  0.64621109522E+03 0.  0.
         13    1    3    3    0    0  0.28504769005E+03  0.10623422692E+02 -0.71756007955E+03  0.77217712377E+03  0.00000000000E+00 0.  1.
          3    1    3    3  501    0 -0.27006039434E+03 -0.29578177954E+02 -0.15145531578E+03  0.31104050842E+03  0.00000000000E+00 0.  1.
         21    1    1    2  502  501 -0.14987295707E+02  0.18954755262E+02 -0.17771503945E+02  0.29995468526E+02  0.00000000000E+00 0. -1.
<mgrwt>
<rscale>  1 0.30000000E+03</rscale>
<asrwt>0</asrwt>
<pdfrwt beam="1">  1        1 0.41168487E+00 0.30000000E+03</pdfrwt>
<pdfrwt beam="2">0</pdfrwt>
<totfact> 0.90039592E-01</totfact>
</mgrwt>
</event>
<event>
 6    1  0.5260809E-006  0.3000000E+03  0.7818608E-02  0.1093470E+00
          1   -1    0    0  502    0  0.00000000000E+00  0.00000000000E+00  0.90259301454E+02  0.90259301454E+02  0.00000000000E+00 0.  1.
         13   -1    0    0    0    0 -0.00000000000E+00 -0.00000000000E+00 -0.10000000000E+04  0.10000000000E+04  0.00000000000E+00 0.  1.
    9000005    2    1    2  501    0 -0.12860271940E+02  0.11059548809E+01 -0.90379860881E+03  0.10760495104E+04  0.58383560518E+03 0.  0.
         13    1    3    3    0    0 -0.10101199087E+03  0.69251398721E+02  0.37574488424E+02  0.12810550614E+03  0.00000000000E+00 0.  1.
          3    1    3    3  501    0  0.88151718930E+02 -0.68145443841E+02 -0.94137309723E+03  0.94794400428E+03  0.00000000000E+00 0.  1.
         21    1    1    2  502  501  0.12860271940E+02 -0.11059548809E+01 -0.59420897395E+01  0.14209791027E+02  0.00000000000E+00 0.  1.
<mgrwt>
<rscale>  1 0.30000000E+03</rscale>
<asrwt>0</asrwt>
<pdfrwt beam="1">  1        1 0.32821633E+00 0.30000000E+03</pdfrwt>
<pdfrwt beam="2">0</pdfrwt>
<totfact> 0.25374601E+00</totfact>
</mgrwt>
</event>
<event>
 6    1  0.5260809E-006  0.3000000E+03  0.7818608E-02  0.1093470E+00
          1   -1    0    0  502    0  0.00000000000E+00  0.00000000000E+00  0.12429854096E+03  0.12429854096E+03  0.00000000000E+00 0.  1.
         13   -1    0    0    0    0 -0.00000000000E+00 -0.00000000000E+00 -0.10000000000E+04  0.10000000000E+04  0.00000000000E+00 0.  1.
    9000005    2    1    2  501    0 -0.31627897227E+02  0.29967441821E+02 -0.84598707349E+03  0.10715603559E+04  0.65623859717E+03 0.  0.
         13    1    3    3    0    0  0.30531797027E+03  0.30610142355E+02 -0.51345501294E+03  0.59815724864E+03  0.00000000000E+00 0.  1.
          3    1    3    3  501    0 -0.33694586750E+03 -0.64270053374E+00 -0.33253206055E+03  0.47340310728E+03  0.00000000000E+00 0.  1.
         21    1    1    2  502  501  0.31627897227E+02 -0.29967441821E+02 -0.29714385558E+02  0.52738185041E+02  0.00000000000E+00 0.  1.
<mgrwt>
<rscale>  1 0.30000000E+03</rscale>
<asrwt>0</asrwt>
<pdfrwt beam="1">  1        1 0.45199565E+00 0.30000000E+03</pdfrwt>
<pdfrwt beam="2">0</pdfrwt>
<totfact> 0.49890682E-01</totfact>
</mgrwt>
</event>
<event>
 6    1  0.5260809E-006  0.3000000E+03  0.7818608E-02  0.1093470E+00
          1   -1    0    0  502    0  0.00000000000E+00  0.00000000000E+00  0.10846019078E+03  0.10846019078E+03  0.00000000000E+00 0.  1.
         13   -1    0    0    0    0 -0.00000000000E+00 -0.00000000000E+00 -0.10000000000E+04  0.10000000000E+04  0.00000000000E+00 0.  1.
    9000005    2    1    2  501    0 -0.90836795307E+01 -0.92903937259E+01 -0.86331536986E+03  0.10773886020E+04  0.64442528453E+03 0.  0.
         13    1    3    3    0    0 -0.22865280904E+03  0.53797343753E+02 -0.60305354818E+02  0.24251391114E+03  0.00000000000E+00 0.  1.
          3    1    3    3  501    0  0.21956912951E+03 -0.63087737479E+02 -0.80301001504E+03  0.83487469090E+03  0.00000000000E+00 0.  1.
         21    1    1    2  502  501  0.90836795307E+01  0.92903937259E+01 -0.28224439358E+02  0.31071588734E+02  0.00000000000E+00 0. -1.
<mgrwt>
<rscale>  1 0.30000000E+03</rscale>
<asrwt>0</asrwt>
<pdfrwt beam="1">  1        1 0.39440153E+00 0.30000000E+03</pdfrwt>
<pdfrwt beam="2">0</pdfrwt>
<totfact> 0.11328911E+00</totfact>
</mgrwt>
</event>
<event>
 6    1  0.5260809E-006  0.3000000E+03  0.7818608E-02  0.1093470E+00
          1   -1    0    0  502    0  0.00000000000E+00  0.00000000000E+00  0.12386969618E+03  0.12386969618E+03  0.00000000000E+00 0.  1.
         13   -1    0    0    0    0 -0.00000000000E+00 -0.00000000000E+00 -0.10000000000E+04  0.10000000000E+04  0.00000000000E+00 0.  1.
    9000005    2    1    2  501    0  0.10125623777E+02 -0.26166523094E-01 -0.88039476274E+03  0.11128826788E+04  0.68066907490E+03 0.  0.
         13    1    3    3    0    0  0.34431231288E+03  0.17552672285E+02 -0.48156626103E+03  0.59225427721E+03  0.00000000000E+00 0.  1.
          1    1    3    3  501    0 -0.33418668911E+03 -0.17578838808E+02 -0.39882850170E+03  0.52062840157E+03  0.00000000000E+00 0.  1.
         21    1    1    2  502  501 -0.10125623777E+02  0.26166523094E-01  0.42644589199E+01  0.10987017404E+02  0.00000000000E+00 0.  1.
<mgrwt>
<rscale>  1 0.30000000E+03</rscale>
<asrwt>0</asrwt>
<pdfrwt beam="1">  1        1 0.45043621E+00 0.30000000E+03</pdfrwt>
<pdfrwt beam="2">0</pdfrwt>
<totfact> 0.51109326E-01</totfact>
</mgrwt>
</event>
<event>
 6    1  0.5260809E-006  0.3000000E+03  0.7818608E-02  0.1093470E+00
          1   -1    0    0  502    0  0.00000000000E+00  0.00000000000E+00  0.11085466588E+03  0.11085466588E+03  0.00000000000E+00 0.  1.
         13   -1    0    0    0    0 -0.00000000000E+00 -0.00000000000E+00 -0.10000000000E+04  0.10000000000E+04  0.00000000000E+00 0.  1.
    9000005    2    1    2  501    0  0.47688983299E+01  0.90436761038E+01 -0.88550601983E+03  0.11000022432E+04  0.65251781086E+03 0.  0.
         13    1    3    3    0    0 -0.29205638293E+03 -0.13285381020E+03 -0.48764435877E+03  0.58373288955E+03  0.00000000000E+00 0.  1.
          1    1    3    3  501    0  0.29682528126E+03  0.14189748630E+03 -0.39786166105E+03  0.51626935368E+03  0.00000000000E+00 0.  1.
         21    1    1    2  502  501 -0.47688983299E+01 -0.90436761038E+01 -0.36393142955E+01  0.10852422646E+02  0.00000000000E+00 0. -1.
<mgrwt>
<rscale>  1 0.30000000E+03</rscale>
<asrwt>0</asrwt>
<pdfrwt beam="1">  1        1 0.40310873E+00 0.30000000E+03</pdfrwt>
<pdfrwt beam="2">0</pdfrwt>
<totfact> 0.10108298E+00</totfact>
</mgrwt>
</event>
<event>
 6    1  0.5260809E-006  0.3000000E+03  0.7818608E-02  0.1093470E+00
          1   -1    0    0  502    0  0.00000000000E+00  0.00000000000E+00  0.12144217485E+03  0.12144217485E+03  0.00000000000E+00 0.  1.
         13   -1    0    0    0    0 -0.00000000000E+00 -0.00000000000E+00 -0.10000000000E+04  0.10000000000E+04  0.00000000000E+00 0.  1.
    9000005    2    1    2  501    0 -0.39865541352E+00  0.17228153729E+02 -0.92235603500E+03  0.10743757177E+04  0.55067736396E+03 0.  0.
         13    1    3    3    0    0 -0.14614246485E+03  0.11458513279E+03 -0.61151637334E+02  0.19551699526E+03  0.00000000000E+00 0.  1.
          1    1    3    3  501    0  0.14574380944E+03 -0.97356979060E+02 -0.86120439767E+03  0.87885872239E+03  0.00000000000E+00 0.  1.
         21    1    1    2  502  501  0.39865541352E+00 -0.17228153729E+02  0.43798209849E+02  0.47066457197E+02  0.00000000000E+00 0. -1.
<mgrwt>
<rscale>  1 0.30000000E+03</rscale>
<asrwt>0</asrwt>
<pdfrwt beam="1">  1        1 0.44160884E+00 0.30000000E+03</pdfrwt>
<pdfrwt beam="2">0</pdfrwt>
<totfact> 0.58511772E-01</totfact>
</mgrwt>
</event>
<event>
 6    1  0.5260809E-006  0.3000000E+03  0.7818608E-02  0.1093470E+00
          1   -1    0    0  502    0  0.00000000000E+00  0.00000000000E+00  0.14129591791E+03  0.14129591791E+03  0.00000000000E+00 0.  1.
         13   -1    0    0    0    0 -0.00000000000E+00 -0.00000000000E+00 -0.10000000000E+04  0.10000000000E+04  0.00000000000E+00 0.  1.
    9000005    2    1    2  501    0 -0.90693039666E+01  0.17015875103E+02 -0.88896037405E+03  0.11054178538E+04  0.65675436248E+03 0.  0.
         13    1    3    3    0    0 -0.27352636460E+03  0.73186232726E+02 -0.74952071489E+03  0.80122044335E+03  0.00000000000E+00 0.  1.
          3    1    3    3  501    0  0.26445706063E+03 -0.56170357623E+02 -0.13943965915E+03  0.30419741047E+03  0.00000000000E+00 0.  1.
         21    1    1    2  502  501  0.90693039666E+01 -0.17015875103E+02  0.30256291958E+02  0.35878064092E+02  0.00000000000E+00 0.  1.
<mgrwt>
<rscale>  1 0.30000000E+03</rscale>
<asrwt>0</asrwt>
<pdfrwt beam="1">  1        1 0.51380442E+00 0.30000000E+03</pdfrwt>
<pdfrwt beam="2">0</pdfrwt>
<totfact> 0.18083321E-01</totfact>
</mgrwt>
</event>
<event>
 6    1  0.5260809E-006  0.3000000E+03  0.7818608E-02  0.1093470E+00
          1   -1    0    0  502    0  0.00000000000E+00  0.00000000000E+00  0.14801343104E+03  0.14801343104E+03  0.00000000000E+00 0.  1.
         13   -1    0    0    0    0 -0.00000000000E+00 -0.00000000000E+00 -0.10000000000E+04  0.10000000000E+04  0.00000000000E+00 0.  1.
    9000005    2    1    2  501    0 -0.21921531946E+02  0.22020922967E+02 -0.88459718327E+03  0.11029698213E+04  0.65807657265E+03 0.  0.
         13    1    3    3    0    0 -0.24856701003E+03 -0.20225944235E+03 -0.31018419657E+03  0.44599178949E+03  0.00000000000E+00 0.  1.
          1    1    3    3  501    0  0.22664547809E+03  0.22428036532E+03 -0.57441298670E+03  0.65697803182E+03  0.00000000000E+00 0.  1.
         21    1    1    2  502  501  0.21921531946E+02 -0.22020922967E+02  0.32610614314E+02  0.45043609725E+02  0.00000000000E+00 0. -1.
<mgrwt>
<rscale>  1 0.30000000E+03</rscale>
<asrwt>0</asrwt>
<pdfrwt beam="1">  1        1 0.53823179E+00 0.30000000E+03</pdfrwt>
<pdfrwt beam="2">0</pdfrwt>
<totfact> 0.11841359E-01</totfact>
</mgrwt>
</event>
<event>
 6    1  0.5260809E-006  0.3000000E+03  0.7818608E-02  0.1093470E+00
          1   -1    0    0  502    0  0.00000000000E+00  0.00000000000E+00  0.11880228807E+03  0.11880228807E+03  0.00000000000E+00 0.  1.
         13   -1    0    0    0    0 -0.00000000000E+00 -0.00000000000E+00 -0.10000000000E+04  0.10000000000E+04  0.00000000000E+00 0.  1.
    9000005    2    1    2  501    0  0.77232812246E+01 -0.89876298563E+01 -0.88613925928E+03  0.11059630726E+04  0.66164273183E+03 0.  0.
         13    1    3    3    0    0  0.28057275627E+03 -0.18379826487E+03 -0.49659967581E+03  0.59926130506E+03  0.00000000000E+00 0.  1.
          1    1    3    3  501    0 -0.27284947505E+03  0.17481063501E+03 -0.38953958348E+03  0.50670176756E+03  0.00000000000E+00 0.  1.
         21    1    1    2  502  501 -0.77232812246E+01  0.89876298563E+01  0.49415473559E+01  0.12839215458E+02  0.00000000000E+00 0. -1.
<mgrwt>
<rscale>  1 0.30000000E+03</rscale>
<asrwt>0</asrwt>
<pdfrwt beam="1">  1        1 0.43200923E+00 0.30000000E+03</pdfrwt>
<pdfrwt beam="2">0</pdfrwt>
<totfact> 0.67461356E-01</totfact>
</mgrwt>
</event>
<event>
 6    1  0.5260809E-006  0.3000000E+03  0.7818608E-02  0.1093470E+00
          1   -1    0    0  502    0  0.00000000000E+00  0.00000000000E+00  0.14603563953E+03  0.14603563953E+03  0.00000000000E+00 0.  1.
         13   -1    0    0    0    0 -0.00000000000E+00 -0.00000000000E+00 -0.10000000000E+04  0.10000000000E+04  0.00000000000E+00 0.  1.
    9000005    2    1    2  501    0  0.36830302595E+02  0.11793371365E+03 -0.69161815738E+03  0.94202308682E+03  0.62754042776E+03 0.  0.
         13    1    3    3    0    0  0.17269451987E+03 -0.17395905543E+03 -0.92729871512E+02  0.26207628513E+03  0.00000000000E+00 0.  1.
          1    1    3    3  501    0 -0.13586421728E+03  0.29189276907E+03 -0.59888828586E+03  0.67994680168E+03  0.00000000000E+00 0.  1.
         21    1    1    2  502  501 -0.36830302595E+02 -0.11793371365E+03 -0.16234620310E+03  0.20401255271E+03  0.00000000000E+00 0. -1.
<mgrwt>
<rscale>  1 0.30000000E+03</rscale>
<asrwt>0</asrwt>
<pdfrwt beam="1">  1        1 0.53103981E+00 0.30000000E+03</pdfrwt>
<pdfrwt beam="2">0</pdfrwt>
<totfact> 0.13407385E-01</totfact>
</mgrwt>
</event>
<event>
 6    1  0.5260809E-006  0.3000000E+03  0.7818608E-02  0.1093470E+00
          1   -1    0    0  502    0  0.00000000000E+00  0.00000000000E+00  0.10798449295E+03  0.10798449295E+03  0.00000000000E+00 0.  1.
         13   -1    0    0    0    0 -0.00000000000E+00 -0.00000000000E+00 -0.10000000000E+04  0.10000000000E+04  0.00000000000E+00 0.  1.
    9000005    2    1    2  501    0 -0.40497079931E+00 -0.92834432505E+01 -0.88558112238E+03  0.10966819434E+04  0.64681605914E+03 0.  0.
         13    1    3    3    0    0  0.28102498868E+03 -0.10757213061E+03 -0.65158914157E+03  0.71771527569E+03  0.00000000000E+00 0.  1.
          1    1    3    3  501    0 -0.28142995948E+03  0.98288687361E+02 -0.23399198081E+03  0.37896666772E+03  0.00000000000E+00 0.  1.
         21    1    1    2  502  501  0.40497079931E+00  0.92834432505E+01 -0.64343846744E+01  0.11302549539E+02  0.00000000000E+00 0.  1.
<mgrwt>
<rscale>  1 0.30000000E+03</rscale>
<asrwt>0</asrwt>
<pdfrwt beam="1">  1        1 0.39267171E+00 0.30000000E+03</pdfrwt>
<pdfrwt beam="2">0</pdfrwt>
<totfact> 0.11585439E+00</totfact>
</mgrwt>
</event>
<event>
 6    1  0.5260809E-006  0.3000000E+03  0.7818608E-02  0.1093470E+00
          1   -1    0    0  502    0  0.00000000000E+00  0.00000000000E+00  0.10754407598E+03  0.10754407598E+03  0.00000000000E+00 0.  1.
         13   -1    0    0    0    0 -0.00000000000E+00 -0.00000000000E+00 -0.10000000000E+04  0.10000000000E+04  0.00000000000E+00 0.  1.
    9000005    2    1    2  501    0 -0.46255623916E+01 -0.90127365401E+01 -0.88199954695E+03  0.10929851932E+04  0.64543846060E+03 0.  0.
         13    1    3    3    0    0 -0.19429161264E+03  0.24655071561E+03 -0.54868927370E+03  0.63213638179E+03  0.00000000000E+00 0.  1.
          3    1    3    3  501    0  0.18966605025E+03 -0.25556345215E+03 -0.33331027325E+03  0.46084881137E+03  0.00000000000E+00 0.  1.
         21    1    1    2  502  501  0.46255623916E+01  0.90127365401E+01 -0.10456377070E+02  0.14558882815E+02  0.00000000000E+00 0.  1.
<mgrwt>
<rscale>  1 0.30000000E+03</rscale>
<asrwt>0</asrwt>
<pdfrwt beam="1">  1        1 0.39107019E+00 0.30000000E+03</pdfrwt>
<pdfrwt beam="2">0</pdfrwt>
<totfact> 0.11827654E+00</totfact>
</mgrwt>
</event>
<event>
 6    1  0.5260809E-006  0.3000000E+03  0.7818608E-02  0.1093470E+00
          1   -1    0    0  502    0  0.00000000000E+00  0.00000000000E+00  0.13235163464E+03  0.13235163464E+03  0.00000000000E+00 0.  1.
         13   -1    0    0    0    0 -0.00000000000E+00 -0.00000000000E+00 -0.10000000000E+04  0.10000000000E+04  0.00000000000E+00 0.  1.
    9000005    2    1    2  501    0 -0.40963665829E+01 -0.13385860748E+02 -0.88821270683E+03  0.11074748658E+04  0.66134923025E+03 0.  0.
         13    1    3    3    0    0 -0.21228796555E+03  0.18093259225E+03 -0.73048310561E+03  0.78192605203E+03  0.00000000000E+00 0.  1.
          1    1    3    3  501    0  0.20819159897E+03 -0.19431845300E+03 -0.15772960122E+03  0.32554881378E+03  0.00000000000E+00 0.  1.
         21    1    1    2  502  501  0.40963665829E+01  0.13385860748E+02  0.20564341467E+02  0.24876768824E+02  0.00000000000E+00 0.  1.
<mgrwt>
<rscale>  1 0.30000000E+03</rscale>
<asrwt>0</asrwt>
<pdfrwt beam="1">  1        1 0.48127969E+00 0.30000000E+03</pdfrwt>
<pdfrwt beam="2">0</pdfrwt>
<totfact> 0.31270631E-01</totfact>
</mgrwt>
</event>
<event>
 6    1  0.5260809E-006  0.3000000E+03  0.7818608E-02  0.1093470E+00
          1   -1    0    0  502    0  0.00000000000E+00  0.00000000000E+00  0.81611042784E+02  0.81611042784E+02  0.00000000000E+00 0.  1.
         13   -1    0    0    0    0 -0.00000000000E+00 -0.00000000000E+00 -0.10000000000E+04  0.10000000000E+04  0.00000000000E+00 0.  1.
    9000005    2    1    2  501    0 -0.19654479035E+02  0.87044006316E+01 -0.91710458051E+03  0.10600770055E+04  0.53124418204E+03 0.  0.
         13    1    3    3    0    0 -0.12401047287E+03 -0.94405811901E+02 -0.89882679753E+03  0.91223936917E+03  0.00000000000E+00 0.  1.
          3    1    3    3  501    0  0.10435599384E+03  0.10311021253E+03 -0.18277782981E+02  0.14783763637E+03  0.00000000000E+00 0.  1.
         21    1    1    2  502  501  0.19654479035E+02 -0.87044006316E+01 -0.12843767059E+01  0.21534037243E+02  0.00000000000E+00 0.  1.
<mgrwt>
<rscale>  1 0.30000000E+03</rscale>
<asrwt>0</asrwt>
<pdfrwt beam="1">  1        1 0.29676805E+00 0.30000000E+03</pdfrwt>
<pdfrwt beam="2">0</pdfrwt>
<totfact> 0.35991223E+00</totfact>
</mgrwt>
</event>
<event>
 6    1  0.5260809E-006  0.3000000E+03  0.7818608E-02  0.1093470E+00
          1   -1    0    0  502    0  0.00000000000E+00  0.00000000000E+00  0.11438928420E+03  0.11438928420E+03  0.00000000000E+00 0.  1.
         13   -1    0    0    0    0 -0.00000000000E+00 -0.00000000000E+00 -0.10000000000E+04  0.10000000000E+04  0.00000000000E+00 0.  1.
    9000005    2    1    2  501    0 -0.60401855337E+01 -0.10972853946E+02 -0.89067124602E+03  0.11008801639E+04  0.64690415012E+03 0.  0.
         13    1    3    3    0    0 -0.12386772770E+03  0.17679741446E+03 -0.37154307126E+02  0.21904561686E+03  0.00000000000E+00 0.  1.
          3    1    3    3  501    0  0.11782754217E+03 -0.18777026841E+03 -0.85351693889E+03  0.88183454705E+03  0.00000000000E+00 0.  1.
         21    1    1    2  502  501  0.60401855337E+01  0.10972853946E+02  0.50605302227E+01  0.13509120295E+02  0.00000000000E+00 0.  1.
<mgrwt>
<rscale>  1 0.30000000E+03</rscale>
<asrwt>0</asrwt>
<pdfrwt beam="1">  1        1 0.41596191E+00 0.30000000E+03</pdfrwt>
<pdfrwt beam="2">0</pdfrwt>
<totfact> 0.84879060E-01</totfact>
</mgrwt>
</event>
<event>
 6    1  0.5260809E-006  0.3000000E+03  0.7818608E-02  0.1093470E+00
          1   -1    0    0  502    0  0.00000000000E+00  0.00000000000E+00  0.12362596571E+03  0.12362596571E+03  0.00000000000E+00 0.  1.
         13   -1    0    0    0    0 -0.00000000000E+00 -0.00000000000E+00 -0.10000000000E+04  0.10000000000E+04  0.00000000000E+00 0.  1.
    9000005    2    1    2  501    0 -0.20749813302E+01 -0.10430691989E+02 -0.89382847559E+03  0.11031867288E+04  0.64651257529E+03 0.  0.
         13    1    3    3    0    0  0.65029535426E+01  0.29685764485E+03 -0.24402336086E+03  0.38433598629E+03  0.00000000000E+00 0.  1.
          1    1    3    3  501    0 -0.85779348727E+01 -0.30728833684E+03 -0.64980511473E+03  0.71885074254E+03  0.00000000000E+00 0.  1.
         21    1    1    2  502  501  0.20749813302E+01  0.10430691989E+02  0.17454441308E+02  0.20439236880E+02  0.00000000000E+00 0.  1.
<mgrwt>
<rscale>  1 0.30000000E+03</rscale>
<asrwt>0</asrwt>
<pdfrwt beam="1">  1        1 0.44954991E+00 0.30000000E+03</pdfrwt>
<pdfrwt beam="2">0</pdfrwt>
<totfact> 0.51814579E-01</totfact>
</mgrwt>
</event>
<event>
 6    1  0.5260809E-006  0.3000000E+03  0.7818608E-02  0.1093470E+00
          1   -1    0    0  502    0  0.00000000000E+00  0.00000000000E+00  0.12410476961E+03  0.12410476961E+03  0.00000000000E+00 0.  1.
         13   -1    0    0    0    0 -0.00000000000E+00 -0.00000000000E+00 -0.10000000000E+04  0.10000000000E+04  0.00000000000E+00 0.  1.
    9000005    2    1    2  501    0 -0.42996265526E+01 -0.94816093432E+01 -0.87928041218E+03  0.11131572968E+04  0.68255163655E+03 0.  0.
         13    1    3    3    0    0 -0.30757969722E+03  0.12637143996E+03 -0.56599390625E+03  0.65644810373E+03  0.00000000000E+00 0.  1.
          1    1    3    3  501    0  0.30328007067E+03 -0.13585304930E+03 -0.31328650593E+03  0.45670919311E+03  0.00000000000E+00 0.  1.
         21    1    1    2  502  501  0.42996265526E+01  0.94816093432E+01  0.33851817902E+01  0.10947472767E+02  0.00000000000E+00 0.  1.
<mgrwt>
<rscale>  1 0.30000000E+03</rscale>
<asrwt>0</asrwt>
<pdfrwt beam="1">  1        1 0.45129102E+00 0.30000000E+03</pdfrwt>
<pdfrwt beam="2">0</pdfrwt>
<totfact> 0.50437765E-01</totfact>
</mgrwt>
</event>
<event>
 6    1  0.5260809E-006  0.3000000E+03  0.7818608E-02  0.1093470E+00
          1   -1    0    0  502    0  0.00000000000E+00  0.00000000000E+00  0.10849320472E+03  0.10849320472E+03  0.00000000000E+00 0.  1.
         13   -1    0    0    0    0 -0.00000000000E+00 -0.00000000000E+00 -0.10000000000E+04  0.10000000000E+04  0.00000000000E+00 0.  1.
    9000005    2    1    2  501    0  0.15147767641E+01 -0.85719063936E+01 -0.87481851922E+03  0.10896711250E+04  0.64961522991E+03 0.  0.
         13    1    3    3    0    0 -0.31864431018E+03  0.44171656575E+02 -0.37900627749E+03  0.49712281182E+03  0.00000000000E+00 0.  1.
          1    1    3    3  501    0  0.32015908694E+03 -0.52743562969E+02 -0.49581224173E+03  0.59254831317E+03  0.00000000000E+00 0.  1.
         21    1    1    2  502  501 -0.15147767641E+01  0.85719063936E+01 -0.16688276056E+02  0.18822079736E+02  0.00000000000E+00 0.  1.
<mgrwt>
<rscale>  1 0.30000000E+03</rscale>
<asrwt>0</asrwt>
<pdfrwt beam="1">  1        1 0.39452158E+00 0.30000000E+03</pdfrwt>
<pdfrwt beam="2">0</pdfrwt>
<totfact> 0.11311298E+00</totfact>
</mgrwt>
</event>
<event>
 6    1  0.5260809E-006  0.3000000E+03  0.7818608E-02  0.1093470E+00
          1   -1    0    0  502    0  0.00000000000E+00  0.00000000000E+00  0.12164804306E+03  0.12164804306E+03  0.00000000000E+00 0.  1.
         13   -1    0    0    0    0 -0.00000000000E+00 -0.00000000000E+00 -0.10000000000E+04  0.10000000000E+04  0.00000000000E+00 0.  1.
    9000005    2    1    2  501    0 -0.16093760243E+00 -0.17806672248E+02 -0.89080250817E+03  0.10999197274E+04  0.64496294049E+03 0.  0.
         13    1    3    3    0    0 -0.18565996299E+03  0.19545857183E+03 -0.72202965274E+03  0.77071427558E+03  0.00000000000E+00 0.  1.
          3    1    3    3  501    0  0.18549902538E+03 -0.21326524408E+03 -0.16877285543E+03  0.32920545177E+03  0.00000000000E+00 0.  1.
         21    1    1    2  502  501  0.16093760243E+00  0.17806672248E+02  0.12450551228E+02  0.21728315704E+02  0.00000000000E+00 0.  1.
<mgrwt>
<rscale>  1 0.30000000E+03</rscale>
<asrwt>0</asrwt>
<pdfrwt beam="1">  1        1 0.44235745E+00 0.30000000E+03</pdfrwt>
<pdfrwt beam="2">0</pdfrwt>
<totfact> 0.57853331E-01</totfact>
</mgrwt>
</event>
<event>
 6    1  0.5260809E-006  0.3000000E+03  0.7818608E-02  0.1093470E+00
          1   -1    0    0  502    0  0.00000000000E+00  0.00000000000E+00  0.13904513823E+03  0.13904513823E+03  0.00000000000E+00 0.  1.
         13   -1    0    0    0    0 -0.00000000000E+00 -0.00000000000E+00 -0.10000000000E+04  0.10000000000E+04  0.00000000000E+00 0.  1.
    9000005    2    1    2  501    0 -0.13129336685E+01 -0.16852881102E+02 -0.88451268111E+03  0.11100500654E+04  0.67049438570E+03 0.  0.
         13    1    3    3    0    0 -0.69564462288E+02 -0.31001284434E+03 -0.23824516096E+03  0.39712458346E+03  0.00000000000E+00 0.  1.
          1    1    3    3  501    0  0.68251528620E+02  0.29315996324E+03 -0.64626752015E+03  0.71292548194E+03  0.00000000000E+00 0.  1.
         21    1    1    2  502  501  0.13129336685E+01  0.16852881102E+02  0.23557819337E+02  0.28995072826E+02  0.00000000000E+00 0.  1.
<mgrwt>
<rscale>  1 0.30000000E+03</rscale>
<asrwt>0</asrwt>
<pdfrwt beam="1">  1        1 0.50561975E+00 0.30000000E+03</pdfrwt>
<pdfrwt beam="2">0</pdfrwt>
<totfact> 0.20770139E-01</totfact>
</mgrwt>
</event>
<event>
 6    1  0.5260809E-006  0.3000000E+03  0.7818608E-02  0.1093470E+00
          1   -1    0    0  502    0  0.00000000000E+00  0.00000000000E+00  0.12217465521E+03  0.12217465521E+03  0.00000000000E+00 0.  1.
         13   -1    0    0    0    0 -0.00000000000E+00 -0.00000000000E+00 -0.10000000000E+04  0.10000000000E+04  0.00000000000E+00 0.  1.
    9000005    2    1    2  501    0 -0.83868913087E+01  0.30874282275E+02 -0.87606161358E+03  0.10901329324E+04  0.64798325465E+03 0.  0.
         13    1    3    3    0    0 -0.16674573839E+03  0.47867745859E+01 -0.91077743905E+03  0.92592796586E+03  0.00000000000E+00 0.  1.
          3    1    3    3  501    0  0.15835884708E+03  0.26087507689E+02  0.34715825471E+02  0.16420496656E+03  0.00000000000E+00 0.  1.
         21    1    1    2  502  501  0.83868913087E+01 -0.30874282275E+02 -0.17637312082E+01  0.32041722794E+02  0.00000000000E+00 0.  1.
<mgrwt>
<rscale>  1 0.30000000E+03</rscale>
<asrwt>0</asrwt>
<pdfrwt beam="1">  1        1 0.44427241E+00 0.30000000E+03</pdfrwt>
<pdfrwt beam="2">0</pdfrwt>
<totfact> 0.56193433E-01</totfact>
</mgrwt>
</event>
<event>
 6    1  0.5260809E-006  0.3000000E+03  0.7818608E-02  0.1093470E+00
          1   -1    0    0  502    0  0.00000000000E+00  0.00000000000E+00  0.12145071398E+03  0.12145071398E+03  0.00000000000E+00 0.  1.
         13   -1    0    0    0    0 -0.00000000000E+00 -0.00000000000E+00 -0.10000000000E+04  0.10000000000E+04  0.00000000000E+00 0.  1.
    9000005    2    1    2  501    0  0.22013539020E+02 -0.15249243544E+02 -0.87969914107E+03  0.10946466565E+04  0.65089445268E+03 0.  0.
         13    1    3    3    0    0  0.50373023731E+02 -0.16235713649E+03 -0.92313842453E+03  0.93865959332E+03  0.00000000000E+00 0.  1.
          3    1    3    3  501    0 -0.28359484711E+02  0.14710789295E+03  0.43439283466E+02  0.15598706321E+03  0.00000000000E+00 0.  1.
         21    1    1    2  502  501 -0.22013539020E+02  0.15249243544E+02  0.11498550448E+01  0.26804057444E+02  0.00000000000E+00 0. -1.
<mgrwt>
<rscale>  1 0.30000000E+03</rscale>
<asrwt>0</asrwt>
<pdfrwt beam="1">  1        1 0.44163989E+00 0.30000000E+03</pdfrwt>
<pdfrwt beam="2">0</pdfrwt>
<totfact> 0.58484357E-01</totfact>
</mgrwt>
</event>
<event>
 6    1  0.5260809E-006  0.3000000E+03  0.7818608E-02  0.1093470E+00
          1   -1    0    0  502    0  0.00000000000E+00  0.00000000000E+00  0.10867505970E+03  0.10867505970E+03  0.00000000000E+00 0.  1.
         13   -1    0    0    0    0 -0.00000000000E+00 -0.00000000000E+00 -0.10000000000E+04  0.10000000000E+04  0.00000000000E+00 0.  1.
    9000005    2    1    2  501    0 -0.66431021252E+01 -0.81580382854E+01 -0.88824234270E+03  0.10977120855E+04  0.64489276549E+03 0.  0.
         13    1    3    3    0    0 -0.76754688166E+01 -0.26745102131E+03 -0.76534578499E+03  0.81076700243E+03  0.00000000000E+00 0.  1.
          3    1    3    3  501    0  0.10323666913E+01  0.25929298302E+03 -0.12289655770E+03  0.28694508311E+03  0.00000000000E+00 0.  1.
         21    1    1    2  502  501  0.66431021252E+01  0.81580382854E+01 -0.30825976027E+01  0.10962974163E+02  0.00000000000E+00 0.  1.
<mgrwt>
<rscale>  1 0.30000000E+03</rscale>
<asrwt>0</asrwt>
<pdfrwt beam="1">  1        1 0.39518287E+00 0.30000000E+03</pdfrwt>
<pdfrwt beam="2">0</pdfrwt>
<totfact> 0.11214708E+00</totfact>
</mgrwt>
</event>
<event>
 6    1  0.5260809E-006  0.3000000E+03  0.7818608E-02  0.1093470E+00
          1   -1    0    0  502    0  0.00000000000E+00  0.00000000000E+00  0.10461706703E+03  0.10461706703E+03  0.00000000000E+00 0.  1.
         13   -1    0    0    0    0 -0.00000000000E+00 -0.00000000000E+00 -0.10000000000E+04  0.10000000000E+04  0.00000000000E+00 0.  1.
    9000005    2    1    2  501    0  0.85072668542E+01 -0.50499412911E+01 -0.88506694335E+03  0.10903238820E+04  0.63668265089E+03 0.  0.
         13    1    3    3    0    0 -0.25540993790E+02  0.15190898442E+03 -0.91420566374E+03  0.92709259382E+03  0.00000000000E+00 0.  1.
          1    1    3    3  501    0  0.34048260645E+02 -0.15695892571E+03  0.29138720385E+02  0.16323128818E+03  0.00000000000E+00 0.  1.
         21    1    1    2  502  501 -0.85072668542E+01  0.50499412911E+01 -0.10315989620E+02  0.14293185027E+02  0.00000000000E+00 0.  1.
<mgrwt>
<rscale>  1 0.30000000E+03</rscale>
<asrwt>0</asrwt>
<pdfrwt beam="1">  1        1 0.38042650E+00 0.30000000E+03</pdfrwt>
<pdfrwt beam="2">0</pdfrwt>
<totfact> 0.13550593E+00</totfact>
</mgrwt>
</event>
<event>
 6    1  0.5260809E-006  0.3000000E+03  0.7818608E-02  0.1093470E+00
          1   -1    0    0  502    0  0.00000000000E+00  0.00000000000E+00  0.11293978565E+03  0.11293978565E+03  0.00000000000E+00 0.  1.
         13   -1    0    0    0    0 -0.00000000000E+00 -0.00000000000E+00 -0.10000000000E+04  0.10000000000E+04  0.00000000000E+00 0.  1.
    9000005    2    1    2  501    0  0.19114107232E+02  0.17567492970E+01 -0.86736073340E+03  0.10854351531E+04  0.65229318133E+03 0.  0.
         13    1    3    3    0    0  0.54964859003E+02 -0.10337987769E+03  0.73367533477E+02  0.13817137838E+03  0.00000000000E+00 0.  1.
          1    1    3    3  501    0 -0.35850751771E+02  0.10513662698E+03 -0.94072826688E+03  0.94726377469E+03  0.00000000000E+00 0.  1.
         21    1    1    2  502  501 -0.19114107232E+02 -0.17567492970E+01 -0.19699480950E+02  0.27504632575E+02  0.00000000000E+00 0.  1.
<mgrwt>
<rscale>  1 0.30000000E+03</rscale>
<asrwt>0</asrwt>
<pdfrwt beam="1">  1        1 0.41069100E+00 0.30000000E+03</pdfrwt>
<pdfrwt beam="2">0</pdfrwt>
<totfact> 0.91271364E-01</totfact>
</mgrwt>
</event>
<event>
 6    1  0.5260809E-006  0.3000000E+03  0.7818608E-02  0.1093470E+00
          1   -1    0    0  502    0  0.00000000000E+00  0.00000000000E+00  0.81912490721E+02  0.81912490721E+02  0.00000000000E+00 0.  1.
         13   -1    0    0    0    0 -0.00000000000E+00 -0.00000000000E+00 -0.10000000000E+04  0.10000000000E+04  0.00000000000E+00 0.  1.
    9000005    2    1    2  501    0 -0.75643840374E+00 -0.13340689966E+02 -0.92145244398E+03  0.10681331949E+04  0.54005126545E+03 0.  0.
         13    1    3    3    0    0  0.11285150625E+03 -0.18764702421E+03 -0.14103452611E+03  0.26045653325E+03  0.00000000000E+00 0.  1.
          3    1    3    3  501    0 -0.11360794465E+03  0.17430633424E+03 -0.78041791787E+03  0.80767666165E+03  0.00000000000E+00 0.  1.
         21    1    1    2  502  501  0.75643840374E+00  0.13340689966E+02  0.33649347028E+01  0.13779295823E+02  0.00000000000E+00 0.  1.
<mgrwt>
<rscale>  1 0.30000000E+03</rscale>
<asrwt>0</asrwt>
<pdfrwt beam="1">  1        1 0.29786423E+00 0.30000000E+03</pdfrwt>
<pdfrwt beam="2">0</pdfrwt>
<totfact> 0.35563511E+00</totfact>
</mgrwt>
</event>
<event>
 6    1  0.5260809E-006  0.3000000E+03  0.7818608E-02  0.1093470E+00
          1   -1    0    0  502    0  0.00000000000E+00  0.00000000000E+00  0.11473335894E+03  0.11473335894E+03  0.00000000000E+00 0.  1.
         13   -1    0    0    0    0 -0.00000000000E+00 -0.00000000000E+00 -0.10000000000E+04  0.10000000000E+04  0.00000000000E+00 0.  1.
    9000005    2    1    2  501    0 -0.54088711244E+01  0.10946536091E+02 -0.89116069948E+03  0.11011752446E+04  0.64673831224E+03 0.  0.
         13    1    3    3    0    0  0.12052843693E+03  0.19904863379E+03 -0.83655292067E+03  0.86831345251E+03  0.00000000000E+00 0.  1.
          3    1    3    3  501    0 -0.12593730805E+03 -0.18810209770E+03 -0.54607778814E+02  0.23286179211E+03  0.00000000000E+00 0.  1.
         21    1    1    2  502  501  0.54088711244E+01 -0.10946536091E+02  0.58940584224E+01  0.13558114320E+02  0.00000000000E+00 0. -1.
<mgrwt>
<rscale>  1 0.30000000E+03</rscale>
<asrwt>0</asrwt>
<pdfrwt beam="1">  1        1 0.41721309E+00 0.30000000E+03</pdfrwt>
<pdfrwt beam="2">0</pdfrwt>
<totfact> 0.83411093E-01</totfact>
</mgrwt>
</event>
<event>
 6    1  0.5260809E-006  0.3000000E+03  0.7818608E-02  0.1093470E+00
          1   -1    0    0  502    0  0.00000000000E+00  0.00000000000E+00  0.77168944552E+02  0.77168944552E+02  0.00000000000E+00 0.  1.
         13   -1    0    0    0    0 -0.00000000000E+00 -0.00000000000E+00 -0.10000000000E+04  0.10000000000E+04  0.00000000000E+00 0.  1.
    9000005    2    1    2  501    0  0.11024968027E+02 -0.44699479326E+01 -0.90609904560E+03  0.10566387106E+04  0.54344121471E+03 0.  0.
         13    1    3    3    0    0 -0.30350992187E+02 -0.21537368604E+03 -0.77487322272E+03  0.80482017784E+03  0.00000000000E+00 0.  1.
          3    1    3    3  501    0  0.41375960214E+02  0.21090373810E+03 -0.13122582288E+03  0.25181853272E+03  0.00000000000E+00 0.  1.
         21    1    1    2  502  501 -0.11024968027E+02  0.44699479326E+01 -0.16732009845E+02  0.20530233997E+02  0.00000000000E+00 0. -1.
<mgrwt>
<rscale>  1 0.30000000E+03</rscale>
<asrwt>0</asrwt>
<pdfrwt beam="1">  1        1 0.28061494E+00 0.30000000E+03</pdfrwt>
<pdfrwt beam="2">0</pdfrwt>
<totfact> 0.42895146E+00</totfact>
</mgrwt>
</event>
<event>
 6    1  0.5260809E-006  0.3000000E+03  0.7818608E-02  0.1093470E+00
          1   -1    0    0  502    0  0.00000000000E+00  0.00000000000E+00  0.10511247995E+03  0.10511247995E+03  0.00000000000E+00 0.  1.
         13   -1    0    0    0    0 -0.00000000000E+00 -0.00000000000E+00 -0.10000000000E+04  0.10000000000E+04  0.00000000000E+00 0.  1.
    9000005    2    1    2  501    0  0.91504529285E+01 -0.92880660779E+01 -0.89236479033E+03  0.10918323020E+04  0.62897762899E+03 0.  0.
         13    1    3    3    0    0  0.29039816059E+02 -0.13765157822E+03  0.43299836426E+02  0.14719423812E+03  0.00000000000E+00 0.  1.
          3    1    3    3  501    0 -0.19889363131E+02  0.12836351214E+03 -0.93566462675E+03  0.94463806390E+03  0.00000000000E+00 0.  1.
         21    1    1    2  502  501 -0.91504529285E+01  0.92880660779E+01 -0.25227297258E+01  0.13280177918E+02  0.00000000000E+00 0.  1.
<mgrwt>
<rscale>  1 0.30000000E+03</rscale>
<asrwt>0</asrwt>
<pdfrwt beam="1">  1        1 0.38222801E+00 0.30000000E+03</pdfrwt>
<pdfrwt beam="2">0</pdfrwt>
<totfact> 0.13245041E+00</totfact>
</mgrwt>
</event>
<event>
 6    1  0.5260809E-006  0.3000000E+03  0.7818608E-02  0.1093470E+00
          1   -1    0    0  502    0  0.00000000000E+00  0.00000000000E+00  0.12069493446E+03  0.12069493446E+03  0.00000000000E+00 0.  1.
         13   -1    0    0    0    0 -0.00000000000E+00 -0.00000000000E+00 -0.10000000000E+04  0.10000000000E+04  0.00000000000E+00 0.  1.
    9000005    2    1    2  501    0  0.59098412134E+01  0.26505051778E+02 -0.88462411362E+03  0.10930229944E+04  0.64140626746E+03 0.  0.
         13    1    3    3    0    0  0.19023558966E+03  0.24405884015E+03 -0.25187310825E+03  0.39899167871E+03  0.00000000000E+00 0.  1.
          3    1    3    3  501    0 -0.18432574844E+03 -0.21755378837E+03 -0.63275100538E+03  0.69403131570E+03  0.00000000000E+00 0.  1.
         21    1    1    2  502  501 -0.59098412134E+01 -0.26505051778E+02  0.53190480808E+01  0.27671940037E+02  0.00000000000E+00 0. -1.
<mgrwt>
<rscale>  1 0.30000000E+03</rscale>
<asrwt>0</asrwt>
<pdfrwt beam="1">  1        1 0.43889160E+00 0.30000000E+03</pdfrwt>
<pdfrwt beam="2">0</pdfrwt>
<totfact> 0.60946097E-01</totfact>
</mgrwt>
</event>
<event>
 6    1  0.5260809E-006  0.3000000E+03  0.7818608E-02  0.1093470E+00
          1   -1    0    0  502    0  0.00000000000E+00  0.00000000000E+00  0.14231778970E+03  0.14231778970E+03  0.00000000000E+00 0.  1.
         13   -1    0    0    0    0 -0.00000000000E+00 -0.00000000000E+00 -0.10000000000E+04  0.10000000000E+04  0.00000000000E+00 0.  1.
    9000005    2    1    2  501    0 -0.27682861245E+02  0.73202388094E+01 -0.88374577994E+03  0.11035978160E+04  0.66037989760E+03 0.  0.
         13    1    3    3    0    0  0.11595405896E+02  0.44952567155E+02 -0.98636279787E+03  0.98745468542E+03  0.00000000000E+00 0.  1.
          3    1    3    3  501    0 -0.39278267141E+02 -0.37632328346E+02  0.10261701793E+03  0.11614313055E+03  0.00000000000E+00 0.  1.
         21    1    1    2  502  501  0.27682861245E+02 -0.73202388094E+01  0.26063569638E+02  0.38719973724E+02  0.00000000000E+00 0. -1.
<mgrwt>
<rscale>  1 0.30000000E+03</rscale>
<asrwt>0</asrwt>
<pdfrwt beam="1">  1        1 0.51752033E+00 0.30000000E+03</pdfrwt>
<pdfrwt beam="2">0</pdfrwt>
<totfact> 0.16965430E-01</totfact>
</mgrwt>
</event>
<event>
 6    1  0.5260809E-006  0.3000000E+03  0.7818608E-02  0.1093470E+00
          1   -1    0    0  502    0  0.00000000000E+00  0.00000000000E+00  0.15110494474E+03  0.15110494474E+03  0.00000000000E+00 0.  1.
         13   -1    0    0    0    0 -0.00000000000E+00 -0.00000000000E+00 -0.10000000000E+04  0.10000000000E+04  0.00000000000E+00 0.  1.
    9000005    2    1    2  501    0 -0.23613647094E+02  0.34812746129E+01 -0.88959257798E+03  0.11039243136E+04  0.65322600354E+03 0.  0.
         13    1    3    3    0    0  0.16531094262E+03 -0.13167359132E+03 -0.29955081081E+02  0.21345479447E+03  0.00000000000E+00 0.  1.
          3    1    3    3  501    0 -0.18892458971E+03  0.13515486593E+03 -0.85963749690E+03  0.89046951910E+03  0.00000000000E+00 0.  1.
         21    1    1    2  502  501  0.23613647094E+02 -0.34812746129E+01  0.40697522716E+02  0.47180631166E+02  0.00000000000E+00 0.  1.
<mgrwt>
<rscale>  1 0.30000000E+03</rscale>
<asrwt>0</asrwt>
<pdfrwt beam="1">  1        1 0.54947369E+00 0.30000000E+03</pdfrwt>
<pdfrwt beam="2">0</pdfrwt>
<totfact> 0.99263772E-02</totfact>
</mgrwt>
</event>
<event>
 6    1  0.5260809E-006  0.3000000E+03  0.7818608E-02  0.1093470E+00
          1   -1    0    0  502    0  0.00000000000E+00  0.00000000000E+00  0.11149484935E+03  0.11149484935E+03  0.00000000000E+00 0.  1.
         13   -1    0    0    0    0 -0.00000000000E+00 -0.00000000000E+00 -0.10000000000E+04  0.10000000000E+04  0.00000000000E+00 0.  1.
    9000005    2    1    2  501    0 -0.66390090075E+01  0.69532253574E+01 -0.88761534502E+03  0.11018400300E+04  0.65276184563E+03 0.  0.
         13    1    3    3    0    0 -0.21534069593E+03 -0.67756669277E+02 -0.44528709033E+02  0.23009864729E+03  0.00000000000E+00 0.  1.
          3    1    3    3  501    0  0.20870168692E+03  0.74709894634E+02 -0.84308663599E+03  0.87174138267E+03  0.00000000000E+00 0.  1.
         21    1    1    2  502  501  0.66390090075E+01 -0.69532253574E+01 -0.88980563103E+00  0.96548193941E+01  0.00000000000E+00 0. -1.
<mgrwt>
<rscale>  1 0.30000000E+03</rscale>
<asrwt>0</asrwt>
<pdfrwt beam="1">  1        1 0.40543667E+00 0.30000000E+03</pdfrwt>
<pdfrwt beam="2">0</pdfrwt>
<totfact> 0.97991928E-01</totfact>
</mgrwt>
</event>
<event>
 6    1  0.5260809E-006  0.3000000E+03  0.7818608E-02  0.1093470E+00
          1   -1    0    0  502    0  0.00000000000E+00  0.00000000000E+00  0.13205564660E+03  0.13205564660E+03  0.00000000000E+00 0.  1.
         13   -1    0    0    0    0 -0.00000000000E+00 -0.00000000000E+00 -0.10000000000E+04  0.10000000000E+04  0.00000000000E+00 0.  1.
    9000005    2    1    2  501    0  0.31347492239E+02 -0.40978655777E+02 -0.84843745623E+03  0.10768973785E+04  0.66121095820E+03 0.  0.
         13    1    3    3    0    0  0.14680682126E+03 -0.21185474490E+01 -0.92264362993E+03  0.93425264188E+03  0.00000000000E+00 0.  1.
          3    1    3    3  501    0 -0.11545932902E+03 -0.38860108328E+02  0.74206173703E+02  0.14264473664E+03  0.00000000000E+00 0.  1.
         21    1    1    2  502  501 -0.31347492239E+02  0.40978655777E+02 -0.19506897173E+02  0.55158268068E+02  0.00000000000E+00 0. -1.
<mgrwt>
<rscale>  1 0.30000000E+03</rscale>
<asrwt>0</asrwt>
<pdfrwt beam="1">  1        1 0.48020336E+00 0.30000000E+03</pdfrwt>
<pdfrwt beam="2">0</pdfrwt>
<totfact> 0.31832511E-01</totfact>
</mgrwt>
</event>
<event>
 6    1  0.5260809E-006  0.3000000E+03  0.7818608E-02  0.1093470E+00
          1   -1    0    0  502    0  0.00000000000E+00  0.00000000000E+00  0.94372390217E+02  0.94372390217E+02  0.00000000000E+00 0.  1.
         13   -1    0    0    0    0 -0.00000000000E+00 -0.00000000000E+00 -0.10000000000E+04  0.10000000000E+04  0.00000000000E+00 0.  1.
    9000005    2    1    2  501    0  0.37756440762E+01  0.13096903212E+02 -0.90075828625E+03  0.10798984594E+04  0.59550768928E+03 0.  0.
         13    1    3    3    0    0 -0.12960613597E+03 -0.84613600558E+02  0.91867844534E+01  0.15505356781E+03  0.00000000000E+00 0.  1.
          3    1    3    3  501    0  0.13338178005E+03  0.97710503769E+02 -0.90994507070E+03  0.92484489158E+03  0.00000000000E+00 0.  1.
         21    1    1    2  502  501 -0.37756440762E+01 -0.13096903212E+02 -0.48693235371E+01  0.14473930829E+02  0.00000000000E+00 0.  1.
<mgrwt>
<rscale>  1 0.30000000E+03</rscale>
<asrwt>0</asrwt>
<pdfrwt beam="1">  1        1 0.34317305E+00 0.30000000E+03</pdfrwt>
<pdfrwt beam="2">0</pdfrwt>
<totfact> 0.21334223E+00</totfact>
</mgrwt>
</event>
<event>
 6    1  0.5260809E-006  0.3000000E+03  0.7818608E-02  0.1093470E+00
          1   -1    0    0  502    0  0.00000000000E+00  0.00000000000E+00  0.11141887619E+03  0.11141887619E+03  0.00000000000E+00 0.  1.
         13   -1    0    0    0    0 -0.00000000000E+00 -0.00000000000E+00 -0.10000000000E+04  0.10000000000E+04  0.00000000000E+00 0.  1.
    9000005    2    1    2  501    0 -0.59262979628E+01 -0.10912206736E+02 -0.88674695192E+03  0.10988665278E+04  0.64887078216E+03 0.  0.
         13    1    3    3    0    0 -0.32824109639E+02  0.20231605745E+03 -0.20072634188E+02  0.20594203048E+03  0.00000000000E+00 0.  1.
          1    1    3    3  501    0  0.26897811677E+02 -0.21322826418E+03 -0.86667431773E+03  0.89292449733E+03  0.00000000000E+00 0.  1.
         21    1    1    2  502  501  0.59262979628E+01  0.10912206736E+02 -0.18341718949E+01  0.12552348383E+02  0.00000000000E+00 0. -1.
<mgrwt>
<rscale>  1 0.30000000E+03</rscale>
<asrwt>0</asrwt>
<pdfrwt beam="1">  1        1 0.40516040E+00 0.30000000E+03</pdfrwt>
<pdfrwt beam="2">0</pdfrwt>
<totfact> 0.98355118E-01</totfact>
</mgrwt>
</event>
<event>
 6    1  0.5260809E-006  0.3000000E+03  0.7818608E-02  0.1093470E+00
          1   -1    0    0  502    0  0.00000000000E+00  0.00000000000E+00  0.11440734934E+03  0.11440734934E+03  0.00000000000E+00 0.  1.
         13   -1    0    0    0    0 -0.00000000000E+00 -0.00000000000E+00 -0.10000000000E+04  0.10000000000E+04  0.00000000000E+00 0.  1.
    9000005    2    1    2  501    0  0.83616079248E+01 -0.10011647567E+02 -0.88537232712E+03  0.11013613493E+04  0.65493703099E+03 0.  0.
         13    1    3    3    0    0  0.32685827608E+03 -0.58076313275E+02 -0.41914653823E+03  0.53468964018E+03  0.00000000000E+00 0.  1.
          1    1    3    3  501    0 -0.31849666815E+03  0.48064665708E+02 -0.46622578889E+03  0.56667170914E+03  0.00000000000E+00 0.  1.
         21    1    1    2  502  501 -0.83616079248E+01  0.10011647567E+02 -0.22032353503E+00  0.13046000021E+02  0.00000000000E+00 0. -1.
<mgrwt>
<rscale>  1 0.30000000E+03</rscale>
<asrwt>0</asrwt>
<pdfrwt beam="1">  1        1 0.41602760E+00 0.30000000E+03</pdfrwt>
<pdfrwt beam="2">0</pdfrwt>
<totfact> 0.84801556E-01</totfact>
</mgrwt>
</event>
<event>
 6    1  0.5260809E-006  0.3000000E+03  0.7818608E-02  0.1093470E+00
          1   -1    0    0  502    0  0.00000000000E+00  0.00000000000E+00  0.10836790119E+03  0.10836790119E+03  0.00000000000E+00 0.  1.
         13   -1    0    0    0    0 -0.00000000000E+00 -0.00000000000E+00 -0.10000000000E+04  0.10000000000E+04  0.00000000000E+00 0.  1.
    9000005    2    1    2  501    0 -0.47861445196E+01  0.11530303955E+02 -0.88601253281E+03  0.10946772251E+04  0.64276291419E+03 0.  0.
         13    1    3    3    0    0  0.30047772372E+03  0.10249835342E+03 -0.36245449893E+03  0.48183611187E+03  0.00000000000E+00 0.  1.
          3    1    3    3  501    0 -0.30526386824E+03 -0.90968049469E+02 -0.52355803388E+03  0.61284111327E+03  0.00000000000E+00 0.  1.
         21    1    1    2  502  501  0.47861445196E+01 -0.11530303955E+02 -0.56195659975E+01  0.13690676048E+02  0.00000000000E+00 0.  1.
<mgrwt>
<rscale>  1 0.30000000E+03</rscale>
<asrwt>0</asrwt>
<pdfrwt beam="1">  1        1 0.39406593E+00 0.30000000E+03</pdfrwt>
<pdfrwt beam="2">0</pdfrwt>
<totfact> 0.11378276E+00</totfact>
</mgrwt>
</event>
<event>
 6    1  0.5260809E-006  0.3000000E+03  0.7818608E-02  0.1093470E+00
          1   -1    0    0  502    0  0.00000000000E+00  0.00000000000E+00  0.12677097104E+03  0.12677097104E+03  0.00000000000E+00 0.  1.
         13   -1    0    0    0    0 -0.00000000000E+00 -0.00000000000E+00 -0.10000000000E+04  0.10000000000E+04  0.00000000000E+00 0.  1.
    9000005    2    1    2  501    0  0.57061785611E+01 -0.23768298366E+02 -0.88505187610E+03  0.10996182144E+04  0.65210881108E+03 0.  0.
         13    1    3    3    0    0 -0.58054837663E+01  0.35864341705E+01 -0.99027055300E+03  0.99029406455E+03  0.00000000000E+00 0.  1.
          1    1    3    3  501    0  0.11511662327E+02 -0.27354732537E+02  0.10521867690E+03  0.10932414981E+03  0.00000000000E+00 0.  1.
         21    1    1    2  502  501 -0.57061785611E+01  0.23768298366E+02  0.11822847132E+02  0.27152756680E+02  0.00000000000E+00 0. -1.
<mgrwt>
<rscale>  1 0.30000000E+03</rscale>
<asrwt>0</asrwt>
<pdfrwt beam="1">  1        1 0.46098632E+00 0.30000000E+03</pdfrwt>
<pdfrwt beam="2">0</pdfrwt>
<totfact> 0.43395961E-01</totfact>
</mgrwt>
</event>
<event>
 6    1  0.5260809E-006  0.3000000E+03  0.7818608E-02  0.1093470E+00
          1   -1    0    0  502    0  0.00000000000E+00  0.00000000000E+00  0.12920981619E+03  0.12920981619E+03  0.00000000000E+00 0.  1.
         13   -1    0    0    0    0 -0.00000000000E+00 -0.00000000000E+00 -0.10000000000E+04  0.10000000000E+04  0.00000000000E+00 0.  1.
    9000005    2    1    2  501    0 -0.20634627359E+01  0.17895754310E+02 -0.88861313751E+03  0.11038686722E+04  0.65465122116E+03 0.  0.
         13    1    3    3    0    0 -0.22377616897E+03 -0.84856806369E+02 -0.81386928224E+03  0.84832756643E+03  0.00000000000E+00 0.  1.
          1    1    3    3  501    0  0.22171270623E+03  0.10275256068E+03 -0.74743855273E+02  0.25554110576E+03  0.00000000000E+00 0.  1.
         21    1    1    2  502  501  0.20634627359E+01 -0.17895754310E+02  0.17822953706E+02  0.25341144007E+02  0.00000000000E+00 0. -1.
<mgrwt>
<rscale>  1 0.30000000E+03</rscale>
<asrwt>0</asrwt>
<pdfrwt beam="1">  1        1 0.46985487E+00 0.30000000E+03</pdfrwt>
<pdfrwt beam="2">0</pdfrwt>
<totfact> 0.37693033E-01</totfact>
</mgrwt>
</event>
<event>
 6    1  0.5260809E-006  0.3000000E+03  0.7818608E-02  0.1093470E+00
          1   -1    0    0  502    0  0.00000000000E+00  0.00000000000E+00  0.11125725734E+03  0.11125725734E+03  0.00000000000E+00 0.  1.
         13   -1    0    0    0    0 -0.00000000000E+00 -0.00000000000E+00 -0.10000000000E+04  0.10000000000E+04  0.00000000000E+00 0.  1.
    9000005    2    1    2  501    0 -0.14212689358E+02 -0.84753646387E+01 -0.87931415469E+03  0.10922117693E+04  0.64765680261E+03 0.  0.
         13    1    3    3    0    0  0.29173515210E+03  0.61866080530E+02 -0.60834932115E+03  0.67751435957E+03  0.00000000000E+00 0.  1.
          1    1    3    3  501    0 -0.30594784146E+03 -0.70341445168E+02 -0.27096483354E+03  0.41469740971E+03  0.00000000000E+00 0.  1.
         21    1    1    2  502  501  0.14212689358E+02  0.84753646387E+01 -0.94285879654E+01  0.19045488063E+02  0.00000000000E+00 0. -1.
<mgrwt>
<rscale>  1 0.30000000E+03</rscale>
<asrwt>0</asrwt>
<pdfrwt beam="1">  1        1 0.40457270E+00 0.30000000E+03</pdfrwt>
<pdfrwt beam="2">0</pdfrwt>
<totfact> 0.99131044E-01</totfact>
</mgrwt>
</event>
<event>
 6    1  0.5260809E-006  0.3000000E+03  0.7818608E-02  0.1093470E+00
          1   -1    0    0  502    0  0.00000000000E+00  0.00000000000E+00  0.10848658069E+03  0.10848658069E+03  0.00000000000E+00 0.  1.
         13   -1    0    0    0    0 -0.00000000000E+00 -0.00000000000E+00 -0.10000000000E+04  0.10000000000E+04  0.00000000000E+00 0.  1.
    9000005    2    1    2  501    0  0.12626376092E+02 -0.29206686739E+01 -0.87550373531E+03  0.10878888706E+04  0.64562175350E+03 0.  0.
         13    1    3    3    0    0  0.18962355219E+02 -0.15416602622E+03 -0.91768996538E+03  0.93074250312E+03  0.00000000000E+00 0.  1.
          3    1    3    3  501    0 -0.63359791267E+01  0.15124535755E+03  0.42186230069E+02  0.15714636750E+03  0.00000000000E+00 0.  1.
         21    1    1    2  502  501 -0.12626376092E+02  0.29206686739E+01 -0.16009683997E+02  0.20597710077E+02  0.00000000000E+00 0. -1.
<mgrwt>
<rscale>  1 0.30000000E+03</rscale>
<asrwt>0</asrwt>
<pdfrwt beam="1">  1        1 0.39449749E+00 0.30000000E+03</pdfrwt>
<pdfrwt beam="2">0</pdfrwt>
<totfact> 0.11314830E+00</totfact>
</mgrwt>
</event>
<event>
 6    1  0.5260809E-006  0.3000000E+03  0.7818608E-02  0.1093470E+00
          1   -1    0    0  502    0  0.00000000000E+00  0.00000000000E+00  0.11687249742E+03  0.11687249742E+03  0.00000000000E+00 0.  1.
         13   -1    0    0    0    0 -0.00000000000E+00 -0.00000000000E+00 -0.10000000000E+04  0.10000000000E+04  0.00000000000E+00 0.  1.
    9000005    2    1    2  501    0 -0.21387217289E+02  0.21783610920E+02 -0.82989850027E+03  0.10555107385E+04  0.65149018383E+03 0.  0.
         13    1    3    3    0    0  0.50048840043E+02  0.88594251735E+02  0.86716420956E+02  0.13369205471E+03  0.00000000000E+00 0.  1.
          1    1    3    3  501    0 -0.71436057332E+02 -0.66810640816E+02 -0.91661492123E+03  0.92181868382E+03  0.00000000000E+00 0.  1.
         21    1    1    2  502  501  0.21387217289E+02 -0.21783610920E+02 -0.53229002304E+02  0.61361758892E+02  0.00000000000E+00 0. -1.
<mgrwt>
<rscale>  1 0.30000000E+03</rscale>
<asrwt>0</asrwt>
<pdfrwt beam="1">  1        1 0.42499180E+00 0.30000000E+03</pdfrwt>
<pdfrwt beam="2">0</pdfrwt>
<totfact> 0.74683552E-01</totfact>
</mgrwt>
</event>
<event>
 6    1  0.5260809E-006  0.3000000E+03  0.7818608E-02  0.1093470E+00
          1   -1    0    0  502    0  0.00000000000E+00  0.00000000000E+00  0.11452021846E+03  0.11452021846E+03  0.00000000000E+00 0.  1.
         13   -1    0    0    0    0 -0.00000000000E+00 -0.00000000000E+00 -0.10000000000E+04  0.10000000000E+04  0.00000000000E+00 0.  1.
    9000005    2    1    2  501    0  0.16767514335E+00  0.16183898420E+02 -0.88237416419E+03  0.10980401838E+04  0.65333462556E+03 0.  0.
         13    1    3    3    0    0 -0.23695426124E+03  0.21509734376E+03 -0.59544859262E+03  0.67599794058E+03  0.00000000000E+00 0.  1.
          1    1    3    3  501    0  0.23712193639E+03 -0.19891344534E+03 -0.28692557157E+03  0.42204224323E+03  0.00000000000E+00 0.  1.
         21    1    1    2  502  501 -0.16767514335E+00 -0.16183898420E+02 -0.31056173498E+01  0.16480034652E+02  0.00000000000E+00 0. -1.
<mgrwt>
<rscale>  1 0.30000000E+03</rscale>
<asrwt>0</asrwt>
<pdfrwt beam="1">  1        1 0.41643804E+00 0.30000000E+03</pdfrwt>
<pdfrwt beam="2">0</pdfrwt>
<totfact> 0.84318462E-01</totfact>
</mgrwt>
</event>
<event>
 6    1  0.5260809E-006  0.3000000E+03  0.7818608E-02  0.1093470E+00
          1   -1    0    0  502    0  0.00000000000E+00  0.00000000000E+00  0.97532334232E+02  0.97532334232E+02  0.00000000000E+00 0.  1.
         13   -1    0    0    0    0 -0.00000000000E+00 -0.00000000000E+00 -0.10000000000E+04  0.10000000000E+04  0.00000000000E+00 0.  1.
    9000005    2    1    2  501    0 -0.21028506993E+02 -0.13758308966E+02 -0.90995384894E+03  0.10713115007E+04  0.56485470272E+03 0.  0.
         13    1    3    3    0    0 -0.36120510102E+01 -0.26831461104E+03 -0.26244270038E+03  0.37534244150E+03  0.00000000000E+00 0.  1.
          3    1    3    3  501    0 -0.17416455983E+02  0.25455630208E+03 -0.64751114856E+03  0.69596905921E+03  0.00000000000E+00 0.  1.
         21    1    1    2  502  501  0.21028506993E+02  0.13758308966E+02  0.74861831727E+01  0.26220833520E+02  0.00000000000E+00 0. -1.
<mgrwt>
<rscale>  1 0.30000000E+03</rscale>
<asrwt>0</asrwt>
<pdfrwt beam="1">  1        1 0.35466378E+00 0.30000000E+03</pdfrwt>
<pdfrwt beam="2">0</pdfrwt>
<totfact> 0.18628836E+00</totfact>
</mgrwt>
</event>
<event>
 6    1  0.5260809E-006  0.3000000E+03  0.7818608E-02  0.1093470E+00
          1   -1    0    0  502    0  0.00000000000E+00  0.00000000000E+00  0.12465349694E+03  0.12465349694E+03  0.00000000000E+00 0.  1.
         13   -1    0    0    0    0 -0.00000000000E+00 -0.00000000000E+00 -0.10000000000E+04  0.10000000000E+04  0.00000000000E+00 0.  1.
    9000005    2    1    2  501    0  0.58447938452E+00 -0.25639835429E+02 -0.86273739391E+03  0.10960749664E+04  0.67557884680E+03 0.  0.
         13    1    3    3    0    0 -0.20516137776E+03 -0.59282021714E+02 -0.86151969266E+03  0.88759322320E+03  0.00000000000E+00 0.  1.
          1    1    3    3  501    0  0.20574585715E+03  0.33642186285E+02 -0.12177012445E+01  0.20848174315E+03  0.00000000000E+00 0.  1.
         21    1    1    2  502  501 -0.58447938452E+00  0.25639835429E+02 -0.12609109152E+02  0.28578530588E+02  0.00000000000E+00 0.  1.
<mgrwt>
<rscale>  1 0.30000000E+03</rscale>
<asrwt>0</asrwt>
<pdfrwt beam="1">  1        1 0.45328640E+00 0.30000000E+03</pdfrwt>
<pdfrwt beam="2">0</pdfrwt>
<totfact> 0.48903988E-01</totfact>
</mgrwt>
</event>
<event>
 6    1  0.5260809E-006  0.3000000E+03  0.7818608E-02  0.1093470E+00
          1   -1    0    0  502    0  0.00000000000E+00  0.00000000000E+00  0.10379308939E+03  0.10379308939E+03  0.00000000000E+00 0.  1.
         13   -1    0    0    0    0 -0.00000000000E+00 -0.00000000000E+00 -0.10000000000E+04  0.10000000000E+04  0.00000000000E+00 0.  1.
    9000005    2    1    2  501    0 -0.99947889098E+01  0.21597548090E+00 -0.88775567496E+03  0.10907024120E+04  0.63357846449E+03 0.  0.
         13    1    3    3    0    0  0.71694407666E+02  0.12314017414E+03 -0.92707582631E+03  0.93796224781E+03  0.00000000000E+00 0.  1.
          1    1    3    3  501    0 -0.81689196576E+02 -0.12292419866E+03  0.39320151358E+02  0.15274016419E+03  0.00000000000E+00 0.  1.
         21    1    1    2  502  501  0.99947889098E+01 -0.21597548090E+00 -0.84512356486E+01  0.13090677398E+02  0.00000000000E+00 0. -1.
<mgrwt>
<rscale>  1 0.30000000E+03</rscale>
<asrwt>0</asrwt>
<pdfrwt beam="1">  1        1 0.37743021E+00 0.30000000E+03</pdfrwt>
<pdfrwt beam="2">0</pdfrwt>
<totfact> 0.14071530E+00</totfact>
</mgrwt>
</event>
<event>
 6    1  0.5260809E-006  0.3000000E+03  0.7818608E-02  0.1093470E+00
          1   -1    0    0  502    0  0.00000000000E+00  0.00000000000E+00  0.10572521795E+03  0.10572521795E+03  0.00000000000E+00 0.  1.
         13   -1    0    0    0    0 -0.00000000000E+00 -0.00000000000E+00 -0.10000000000E+04  0.10000000000E+04  0.00000000000E+00 0.  1.
    9000005    2    1    2  501    0 -0.85047663731E+01 -0.91684708776E+01 -0.86678714485E+03  0.10755265076E+04  0.63661677808E+03 0.  0.
         13    1    3    3    0    0  0.61857219309E+02  0.30628012816E+03 -0.39486922859E+03  0.50354298741E+03  0.00000000000E+00 0.  1.
          3    1    3    3  501    0 -0.70361985682E+02 -0.31544859903E+03 -0.47191791626E+03  0.57198352018E+03  0.00000000000E+00 0.  1.
         21    1    1    2  502  501  0.85047663731E+01  0.91684708776E+01 -0.27487637193E+02  0.30198710366E+02  0.00000000000E+00 0.  1.
<mgrwt>
<rscale>  1 0.30000000E+03</rscale>
<asrwt>0</asrwt>
<pdfrwt beam="1">  1        1 0.38445615E+00 0.30000000E+03</pdfrwt>
<pdfrwt beam="2">0</pdfrwt>
<totfact> 0.12875025E+00</totfact>
</mgrwt>
</event>
<event>
 6    1  0.5260809E-006  0.3000000E+03  0.7818608E-02  0.1093470E+00
          1   -1    0    0  502    0  0.00000000000E+00  0.00000000000E+00  0.11040331298E+03  0.11040331298E+03  0.00000000000E+00 0.  1.
         13   -1    0    0    0    0 -0.00000000000E+00 -0.00000000000E+00 -0.10000000000E+04  0.10000000000E+04  0.00000000000E+00 0.  1.
    9000005    2    1    2  501    0  0.26134738757E+01 -0.98133000426E+01 -0.89361360328E+03  0.10994823826E+04  0.64047881046E+03 0.  0.
         13    1    3    3    0    0 -0.12447764863E+03  0.18356054739E+03 -0.83053738407E+03  0.85964033520E+03  0.00000000000E+00 0.  1.
          3    1    3    3  501    0  0.12709112250E+03 -0.19337384743E+03 -0.63076219211E+02  0.23984204744E+03  0.00000000000E+00 0.  1.
         21    1    1    2  502  501 -0.26134738757E+01  0.98133000426E+01  0.40169162618E+01  0.10920930349E+02  0.00000000000E+00 0. -1.
<mgrwt>
<rscale>  1 0.30000000E+03</rscale>
<asrwt>0</asrwt>
<pdfrwt beam="1">  1        1 0.40146744E+00 0.30000000E+03</pdfrwt>
<pdfrwt beam="2">0</pdfrwt>
<totfact> 0.10330279E+00</totfact>
</mgrwt>
</event>
<event>
 6    1  0.5260809E-006  0.3000000E+03  0.7818608E-02  0.1093470E+00
          1   -1    0    0  502    0  0.00000000000E+00  0.00000000000E+00  0.11436133308E+03  0.11436133308E+03  0.00000000000E+00 0.  1.
         13   -1    0    0    0    0 -0.00000000000E+00 -0.00000000000E+00 -0.10000000000E+04  0.10000000000E+04  0.00000000000E+00 0.  1.
    9000005    2    1    2  501    0  0.13764659848E+02  0.57817712783E+01 -0.88007143870E+03  0.10984274456E+04  0.65711050922E+03 0.  0.
         13    1    3    3    0    0 -0.31292904739E+03 -0.71870489038E+02 -0.41083714002E+03  0.52141836515E+03  0.00000000000E+00 0.  1.
          3    1    3    3  501    0  0.32669370724E+03  0.77652260317E+02 -0.46923429868E+03  0.57700908046E+03  0.00000000000E+00 0.  1.
         21    1    1    2  502  501 -0.13764659848E+02 -0.57817712783E+01 -0.55672282175E+01  0.15933887469E+02  0.00000000000E+00 0.  1.
<mgrwt>
<rscale>  1 0.30000000E+03</rscale>
<asrwt>0</asrwt>
<pdfrwt beam="1">  1        1 0.41586027E+00 0.30000000E+03</pdfrwt>
<pdfrwt beam="2">0</pdfrwt>
<totfact> 0.84999083E-01</totfact>
</mgrwt>
</event>
<event>
 6    1  0.5260809E-006  0.3000000E+03  0.7818608E-02  0.1093470E+00
          1   -1    0    0  502    0  0.00000000000E+00  0.00000000000E+00  0.10657813105E+03  0.10657813105E+03  0.00000000000E+00 0.  1.
         13   -1    0    0    0    0 -0.00000000000E+00 -0.00000000000E+00 -0.10000000000E+04  0.10000000000E+04  0.00000000000E+00 0.  1.
    9000005    2    1    2  501    0 -0.70343647495E+01 -0.70307379710E+01 -0.88502188527E+03  0.10935599403E+04  0.64226995267E+03 0.  0.
         13    1    3    3    0    0  0.20387449385E+03 -0.21742936077E+03 -0.23861837473E+03  0.38181024728E+03  0.00000000000E+00 0.  1.
          3    1    3    3  501    0 -0.21090885860E+03  0.21039862280E+03 -0.64640351054E+03  0.71174969304E+03  0.00000000000E+00 0.  1.
         21    1    1    2  502  501  0.70343647495E+01  0.70307379710E+01 -0.83999836839E+01  0.13018190724E+02  0.00000000000E+00 0. -1.
<mgrwt>
<rscale>  1 0.30000000E+03</rscale>
<asrwt>0</asrwt>
<pdfrwt beam="1">  1        1 0.38755766E+00 0.30000000E+03</pdfrwt>
<pdfrwt beam="2">0</pdfrwt>
<totfact> 0.12374429E+00</totfact>
</mgrwt>
</event>
<event>
 6    1  0.5260809E-006  0.3000000E+03  0.7818608E-02  0.1093470E+00
          1   -1    0    0  502    0  0.00000000000E+00  0.00000000000E+00  0.14495982397E+03  0.14495982397E+03  0.00000000000E+00 0.  1.
         13   -1    0    0    0    0 -0.00000000000E+00 -0.00000000000E+00 -0.10000000000E+04  0.10000000000E+04  0.00000000000E+00 0.  1.
    9000005    2    1    2  501    0  0.93996762901E+02 -0.11484584114E+02 -0.78681072072E+03  0.10282441623E+04  0.65516994737E+03 0.  0.
         13    1    3    3    0    0  0.30077139185E+02 -0.20028173006E+03  0.13989580634E+02  0.20301013291E+03  0.00000000000E+00 0.  1.
          1    1    3    3  501    0  0.63919623716E+02  0.18879714594E+03 -0.80080030135E+03  0.82523402939E+03  0.00000000000E+00 0.  1.
         21    1    1    2  502  501 -0.93996762901E+02  0.11484584114E+02 -0.68229455311E+02  0.11671566167E+03  0.00000000000E+00 0. -1.
<mgrwt>
<rscale>  1 0.30000000E+03</rscale>
<asrwt>0</asrwt>
<pdfrwt beam="1">  1        1 0.52712774E+00 0.30000000E+03</pdfrwt>
<pdfrwt beam="2">0</pdfrwt>
<totfact> 0.14362768E-01</totfact>
</mgrwt>
</event>
<event>
 6    1  0.5260809E-006  0.3000000E+03  0.7818608E-02  0.1093470E+00
          1   -1    0    0  502    0  0.00000000000E+00  0.00000000000E+00  0.15546425004E+03  0.15546425004E+03  0.00000000000E+00 0.  1.
         13   -1    0    0    0    0 -0.00000000000E+00 -0.00000000000E+00 -0.10000000000E+04  0.10000000000E+04  0.00000000000E+00 0.  1.
    9000005    2    1    2  501    0 -0.88053787083E+02 -0.18973562508E+02 -0.83193922337E+03  0.10645129555E+04  0.65799049810E+03 0.  0.
         13    1    3    3    0    0  0.21503027265E+03 -0.96621726991E+01 -0.43261191605E+02  0.21955160313E+03  0.00000000000E+00 0.  1.
          1    1    3    3  501    0 -0.30308405973E+03 -0.93113898087E+01 -0.78867803176E+03  0.84496135239E+03  0.00000000000E+00 0.  1.
         21    1    1    2  502  501  0.88053787083E+02  0.18973562508E+02 -0.12596526592E+02  0.90951294527E+02  0.00000000000E+00 0.  1.
<mgrwt>
<rscale>  1 0.30000000E+03</rscale>
<asrwt>0</asrwt>
<pdfrwt beam="1">  1        1 0.56532574E+00 0.30000000E+03</pdfrwt>
<pdfrwt beam="2">0</pdfrwt>
<totfact> 0.81334066E-02</totfact>
</mgrwt>
</event>
<event>
 6    1  0.5260809E-006  0.3000000E+03  0.7818608E-02  0.1093470E+00
          1   -1    0    0  502    0  0.00000000000E+00  0.00000000000E+00  0.64362982174E+02  0.64362982174E+02  0.00000000000E+00 0.  1.
         13   -1    0    0    0    0 -0.00000000000E+00 -0.00000000000E+00 -0.10000000000E+04  0.10000000000E+04  0.00000000000E+00 0.  1.
    9000005    2    1    2  501    0 -0.24446459656E+02  0.10116356200E+02 -0.92125824765E+03  0.10342512057E+04  0.46931740593E+03 0.  0.
         13    1    3    3    0    0  0.14426477085E+03  0.15585490527E+03 -0.64611157914E+03  0.68012002492E+03  0.00000000000E+00 0.  1.
          3    1    3    3  501    0 -0.16871123050E+03 -0.14573854907E+03 -0.27514666852E+03  0.35413118075E+03  0.00000000000E+00 0.  1.
         21    1    1    2  502  501  0.24446459656E+02 -0.10116356200E+02 -0.14378770171E+02  0.30111776502E+02  0.00000000000E+00 0. -1.
<mgrwt>
<rscale>  1 0.30000000E+03</rscale>
<asrwt>0</asrwt>
<pdfrwt beam="1">  1        1 0.23404770E+00 0.30000000E+03</pdfrwt>
<pdfrwt beam="2">0</pdfrwt>
<totfact> 0.70845703E+00</totfact>
</mgrwt>
</event>
<event>
 6    1  0.5260809E-006  0.3000000E+03  0.7818608E-02  0.1093470E+00
          1   -1    0    0  502    0  0.00000000000E+00  0.00000000000E+00  0.11206025882E+03  0.11206025882E+03  0.00000000000E+00 0.  1.
         13   -1    0    0    0    0 -0.00000000000E+00 -0.00000000000E+00 -0.10000000000E+04  0.10000000000E+04  0.00000000000E+00 0.  1.
    9000005    2    1    2  501    0 -0.12016668038E+02 -0.44313816615E+01 -0.89721579352E+03  0.10962462587E+04  0.62975839973E+03 0.  0.
         13    1    3    3    0    0  0.88124358716E+01  0.15929935244E+03 -0.91630951831E+03  0.93009519731E+03  0.00000000000E+00 0.  1.
          3    1    3    3  501    0 -0.20829103909E+02 -0.16373073410E+03  0.19093724795E+02  0.16615106135E+03  0.00000000000E+00 0.  1.
         21    1    1    2  502  501  0.12016668038E+02  0.44313816615E+01  0.92760523310E+01  0.15814000158E+02  0.00000000000E+00 0. -1.
<mgrwt>
<rscale>  1 0.30000000E+03</rscale>
<asrwt>0</asrwt>
<pdfrwt beam="1">  1        1 0.40749271E+00 0.30000000E+03</pdfrwt>
<pdfrwt beam="2">0</pdfrwt>
<totfact> 0.95320028E-01</totfact>
</mgrwt>
</event>
<event>
 6    1  0.5260809E-006  0.3000000E+03  0.7818608E-02  0.1093470E+00
          1   -1    0    0  502    0  0.00000000000E+00  0.00000000000E+00  0.13315470013E+03  0.13315470013E+03  0.00000000000E+00 0.  1.
         13   -1    0    0    0    0 -0.00000000000E+00 -0.00000000000E+00 -0.10000000000E+04  0.10000000000E+04  0.00000000000E+00 0.  1.
    9000005    2    1    2  501    0 -0.16868594597E+02 -0.17728545320E+02 -0.88705305296E+03  0.11014182213E+04  0.65242633965E+03 0.  0.
         13    1    3    3    0    0 -0.45206653247E+02  0.25661672311E+03 -0.74892232318E+03  0.79295676442E+03  0.00000000000E+00 0.  1.
          1    1    3    3  501    0  0.28338058650E+02 -0.27434526843E+03 -0.13813072977E+03  0.30846145689E+03  0.00000000000E+00 0.  1.
         21    1    1    2  502  501  0.16868594597E+02  0.17728545320E+02  0.20207753092E+02  0.31736478820E+02  0.00000000000E+00 0. -1.
<mgrwt>
<rscale>  1 0.30000000E+03</rscale>
<asrwt>0</asrwt>
<pdfrwt beam="1">  1        1 0.48419993E+00 0.30000000E+03</pdfrwt>
<pdfrwt beam="2">0</pdfrwt>
<totfact> 0.29789710E-01</totfact>
</mgrwt>
</event>
<event>
 6    1  0.5260809E-006  0.3000000E+03  0.7818608E-02  0.1093470E+00
          1   -1    0    0  502    0  0.00000000000E+00  0.00000000000E+00  0.11196090544E+03  0.11196090544E+03  0.00000000000E+00 0.  1.
         13   -1    0    0    0    0 -0.00000000000E+00 -0.00000000000E+00 -0.10000000000E+04  0.10000000000E+04  0.00000000000E+00 0.  1.
    9000005    2    1    2  501    0 -0.79240623948E+01 -0.97237336199E+01 -0.88514987937E+03  0.10990888689E+04  0.65142051780E+03 0.  0.
         13    1    3    3    0    0  0.18362132790E+02 -0.31205593217E+03 -0.26959691490E+03  0.41279361580E+03  0.00000000000E+00 0.  1.
          3    1    3    3  501    0 -0.26286195185E+02  0.30233219855E+03 -0.61555296448E+03  0.68629525309E+03  0.00000000000E+00 0.  1.
         21    1    1    2  502  501  0.79240623948E+01  0.97237336199E+01 -0.28892151880E+01  0.12872036542E+02  0.00000000000E+00 0. -1.
<mgrwt>
<rscale>  1 0.30000000E+03</rscale>
<asrwt>0</asrwt>
<pdfrwt beam="1">  1        1 0.40713142E+00 0.30000000E+03</pdfrwt>
<pdfrwt beam="2">0</pdfrwt>
<totfact> 0.95785584E-01</totfact>
</mgrwt>
</event>
<event>
 6    1  0.5260809E-006  0.3000000E+03  0.7818608E-02  0.1093470E+00
          1   -1    0    0  502    0  0.00000000000E+00  0.00000000000E+00  0.11651631104E+03  0.11651631104E+03  0.00000000000E+00 0.  1.
         13   -1    0    0    0    0 -0.00000000000E+00 -0.00000000000E+00 -0.10000000000E+04  0.10000000000E+04  0.00000000000E+00 0.  1.
    9000005    2    1    2  501    0 -0.99671587619E+01  0.32117258964E+02 -0.86767041358E+03  0.10793555487E+04  0.64111277588E+03 0.  0.
         13    1    3    3    0    0 -0.51968494993E+02  0.12541512444E+03  0.58303289923E+02  0.14774624031E+03  0.00000000000E+00 0.  1.
          1    1    3    3  501    0  0.42001336231E+02 -0.93297865481E+02 -0.92597370350E+03  0.93160930842E+03  0.00000000000E+00 0.  1.
         21    1    1    2  502  501  0.99671587619E+01 -0.32117258964E+02 -0.15813275381E+02  0.37160762309E+02  0.00000000000E+00 0. -1.
<mgrwt>
<rscale>  1 0.30000000E+03</rscale>
<asrwt>0</asrwt>
<pdfrwt beam="1">  1        1 0.42369657E+00 0.30000000E+03</pdfrwt>
<pdfrwt beam="2">0</pdfrwt>
<totfact> 0.76086144E-01</totfact>
</mgrwt>
</event>
<event>
 6    1  0.5260809E-006  0.3000000E+03  0.7818608E-02  0.1093470E+00
          1   -1    0    0  502    0  0.00000000000E+00  0.00000000000E+00  0.11391420394E+03  0.11391420394E+03  0.00000000000E+00 0.  1.
         13   -1    0    0    0    0 -0.00000000000E+00 -0.00000000000E+00 -0.10000000000E+04  0.10000000000E+04  0.00000000000E+00 0.  1.
    9000005    2    1    2  501    0 -0.12859728127E+02  0.54753387311E+01 -0.88380488932E+03  0.10997524782E+04  0.65433101629E+03 0.  0.
         13    1    3    3    0    0 -0.12076703834E+03 -0.28082326176E+03 -0.63738646129E+03  0.70690019305E+03  0.00000000000E+00 0.  1.
          3    1    3    3  501    0  0.10790731021E+03  0.28629860049E+03 -0.24641842803E+03  0.39285228510E+03  0.00000000000E+00 0.  1.
         21    1    1    2  502  501  0.12859728127E+02 -0.54753387311E+01 -0.22809067406E+01  0.14161725788E+02  0.00000000000E+00 0.  1.
<mgrwt>
<rscale>  1 0.30000000E+03</rscale>
<asrwt>0</asrwt>
<pdfrwt beam="1">  1        1 0.41423434E+00 0.30000000E+03</pdfrwt>
<pdfrwt beam="2">0</pdfrwt>
<totfact> 0.86936273E-01</totfact>
</mgrwt>
</event>
<event>
 6    1  0.5260809E-006  0.3000000E+03  0.7818608E-02  0.1093470E+00
          1   -1    0    0  502    0  0.00000000000E+00  0.00000000000E+00  0.10684077438E+03  0.10684077438E+03  0.00000000000E+00 0.  1.
         13   -1    0    0    0    0 -0.00000000000E+00 -0.00000000000E+00 -0.10000000000E+04  0.10000000000E+04  0.00000000000E+00 0.  1.
    9000005    2    1    2  501    0  0.55194504455E+01 -0.57829333847E+01 -0.87839540618E+03  0.10900515809E+04  0.64542238332E+03 0.  0.
         13    1    3    3    0    0  0.27164467569E+03 -0.82016268643E+02 -0.71345031779E+03  0.76780782368E+03  0.00000000000E+00 0.  1.
          3    1    3    3  501    0 -0.26612522524E+03  0.76233335258E+02 -0.16494508839E+03  0.32224375727E+03  0.00000000000E+00 0.  1.
         21    1    1    2  502  501 -0.55194504455E+01  0.57829333847E+01 -0.14763819439E+02  0.16789193435E+02  0.00000000000E+00 0. -1.
<mgrwt>
<rscale>  1 0.30000000E+03</rscale>
<asrwt>0</asrwt>
<pdfrwt beam="1">  1        1 0.38851273E+00 0.30000000E+03</pdfrwt>
<pdfrwt beam="2">0</pdfrwt>
<totfact> 0.12223647E+00</totfact>
</mgrwt>
</event>
<event>
 6    1  0.5260809E-006  0.3000000E+03  0.7818608E-02  0.1093470E+00
          1   -1    0    0  502    0  0.00000000000E+00  0.00000000000E+00  0.12783165875E+03  0.12783165875E+03  0.00000000000E+00 0.  1.
         13   -1    0    0    0    0 -0.00000000000E+00 -0.00000000000E+00 -0.10000000000E+04  0.10000000000E+04  0.00000000000E+00 0.  1.
    9000005    2    1    2  501    0 -0.60697714391E+01 -0.86822851641E+01 -0.89353451069E+03  0.11039834429E+04  0.64827717549E+03 0.  0.
         13    1    3    3    0    0  0.30490350138E+03  0.92580414461E+02 -0.49103975283E+03  0.58536938522E+03  0.00000000000E+00 0.  1.
          1    1    3    3  501    0 -0.31097327282E+03 -0.10126269962E+03 -0.40249475786E+03  0.51861405771E+03  0.00000000000E+00 0.  1.
         21    1    1    2  502  501  0.60697714391E+01  0.86822851641E+01  0.21366169439E+02  0.23848215814E+02  0.00000000000E+00 0.  1.
<mgrwt>
<rscale>  1 0.30000000E+03</rscale>
<asrwt>0</asrwt>
<pdfrwt beam="1">  1        1 0.46484338E+00 0.30000000E+03</pdfrwt>
<pdfrwt beam="2">0</pdfrwt>
<totfact> 0.40839767E-01</totfact>
</mgrwt>
</event>
<event>
 6    1  0.5260809E-006  0.3000000E+03  0.7818608E-02  0.1093470E+00
          1   -1    0    0  502    0  0.00000000000E+00  0.00000000000E+00  0.11552737295E+03  0.11552737295E+03  0.00000000000E+00 0.  1.
         13   -1    0    0    0    0 -0.00000000000E+00 -0.00000000000E+00 -0.10000000000E+04  0.10000000000E+04  0.00000000000E+00 0.  1.
    9000005    2    1    2  501    0  0.13190671476E+02  0.32224011629E+01 -0.88688870763E+03  0.11017355229E+04  0.65350226086E+03 0.  0.
         13    1    3    3    0    0  0.11011942845E+03  0.27864386653E+03 -0.21388642542E+03  0.36812510897E+03  0.00000000000E+00 0.  1.
          3    1    3    3  501    0 -0.96928756972E+02 -0.27542146537E+03 -0.67300228221E+03  0.73361041389E+03  0.00000000000E+00 0.  1.
         21    1    1    2  502  501 -0.13190671476E+02 -0.32224011629E+01  0.24160805717E+01  0.13791850078E+02  0.00000000000E+00 0. -1.
<mgrwt>
<rscale>  1 0.30000000E+03</rscale>
<asrwt>0</asrwt>
<pdfrwt beam="1">  1        1 0.42010042E+00 0.30000000E+03</pdfrwt>
<pdfrwt beam="2">0</pdfrwt>
<totfact> 0.80088685E-01</totfact>
</mgrwt>
</event>
<event>
 6    1  0.5260809E-006  0.3000000E+03  0.7818608E-02  0.1093470E+00
          1   -1    0    0  502    0  0.00000000000E+00  0.00000000000E+00  0.11962064373E+03  0.11962064373E+03  0.00000000000E+00 0.  1.
         13   -1    0    0    0    0 -0.00000000000E+00 -0.00000000000E+00 -0.10000000000E+04  0.10000000000E+04  0.00000000000E+00 0.  1.
    9000005    2    1    2  501    0  0.11193538301E+02  0.65271056515E+01 -0.89073132077E+03  0.11030356633E+04  0.65047481906E+03 0.  0.
         13    1    3    3    0    0 -0.17697385014E+03  0.15931642722E+03 -0.71388108241E+02  0.24859149144E+03  0.00000000000E+00 0.  1.
          3    1    3    3  501    0  0.18816738845E+03 -0.15278932157E+03 -0.81934321253E+03  0.85444417183E+03  0.00000000000E+00 0.  1.
         21    1    1    2  502  501 -0.11193538301E+02 -0.65271056515E+01  0.10351964499E+02  0.16584980460E+02  0.00000000000E+00 0. -1.
<mgrwt>
<rscale>  1 0.30000000E+03</rscale>
<asrwt>0</asrwt>
<pdfrwt beam="1">  1        1 0.43498508E+00 0.30000000E+03</pdfrwt>
<pdfrwt beam="2">0</pdfrwt>
<totfact> 0.64579845E-01</totfact>
</mgrwt>
</event>
<event>
 6    1  0.5260809E-006  0.3000000E+03  0.7818608E-02  0.1093470E+00
          1   -1    0    0  502    0  0.00000000000E+00  0.00000000000E+00  0.12798620375E+03  0.12798620375E+03  0.00000000000E+00 0.  1.
         13   -1    0    0    0    0 -0.00000000000E+00 -0.00000000000E+00 -0.10000000000E+04  0.10000000000E+04  0.00000000000E+00 0.  1.
    9000005    2    1    2  501    0  0.34365759016E+02  0.20876901622E+01 -0.87639092721E+03  0.10932799634E+04  0.65269798319E+03 0.  0.
         13    1    3    3    0    0  0.16339764407E+03  0.27297041759E+03 -0.62711598272E+03  0.70319705257E+03  0.00000000000E+00 0.  1.
          1    1    3    3  501    0 -0.12903188506E+03 -0.27088272742E+03 -0.24927494450E+03  0.39008291084E+03  0.00000000000E+00 0.  1.
         21    1    1    2  502  501 -0.34365759016E+02 -0.20876901622E+01  0.43771309666E+01  0.34706240338E+02  0.00000000000E+00 0.  1.
<mgrwt>
<rscale>  1 0.30000000E+03</rscale>
<asrwt>0</asrwt>
<pdfrwt beam="1">  1        1 0.46540536E+00 0.30000000E+03</pdfrwt>
<pdfrwt beam="2">0</pdfrwt>
<totfact> 0.40476783E-01</totfact>
</mgrwt>
</event>
<event>
 6    1  0.5260809E-006  0.3000000E+03  0.7818608E-02  0.1093470E+00
          1   -1    0    0  502    0  0.00000000000E+00  0.00000000000E+00  0.11865501980E+03  0.11865501980E+03  0.00000000000E+00 0.  1.
         13   -1    0    0    0    0 -0.00000000000E+00 -0.00000000000E+00 -0.10000000000E+04  0.10000000000E+04  0.00000000000E+00 0.  1.
    9000005    2    1    2  501    0  0.75527421716E+01  0.14654575661E+02 -0.88488882086E+03  0.11017920631E+04  0.65623602806E+03 0.  0.
         13    1    3    3    0    0  0.27081348068E+03 -0.14905674479E+03 -0.62495031636E+03  0.69722360288E+03  0.00000000000E+00 0.  1.
          3    1    3    3  501    0 -0.26326073851E+03  0.16371132045E+03 -0.25993850450E+03  0.40456846022E+03  0.00000000000E+00 0.  1.
         21    1    1    2  502  501 -0.75527421716E+01 -0.14654575661E+02  0.35438406642E+01  0.16862956703E+02  0.00000000000E+00 0.  1.
<mgrwt>
<rscale>  1 0.30000000E+03</rscale>
<asrwt>0</asrwt>
<pdfrwt beam="1">  1        1 0.43147371E+00 0.30000000E+03</pdfrwt>
<pdfrwt beam="2">0</pdfrwt>
<totfact> 0.67990823E-01</totfact>
</mgrwt>
</event>
<event>
 6    1  0.5260809E-006  0.3000000E+03  0.7818608E-02  0.1093470E+00
          1   -1    0    0  502    0  0.00000000000E+00  0.00000000000E+00  0.11832322829E+03  0.11832322829E+03  0.00000000000E+00 0.  1.
         13   -1    0    0    0    0 -0.00000000000E+00 -0.00000000000E+00 -0.10000000000E+04  0.10000000000E+04  0.00000000000E+00 0.  1.
    9000005    2    1    2  501    0 -0.81779704824E+01  0.37699082616E+02 -0.85101671495E+03  0.10690470767E+04  0.64586693918E+03 0.  0.
         13    1    3    3    0    0  0.24957797741E+03  0.17210033794E+03 -0.22088796109E+03  0.37509889960E+03  0.00000000000E+00 0.  1.
          3    1    3    3  501    0 -0.25775594789E+03 -0.13440125533E+03 -0.63012875387E+03  0.69394817714E+03  0.00000000000E+00 0.  1.
         21    1    1    2  502  501  0.81779704824E+01 -0.37699082616E+02 -0.30660056757E+02  0.49276151550E+02  0.00000000000E+00 0.  1.
<mgrwt>
<rscale>  1 0.30000000E+03</rscale>
<asrwt>0</asrwt>
<pdfrwt beam="1">  1        1 0.43026719E+00 0.30000000E+03</pdfrwt>
<pdfrwt beam="2">0</pdfrwt>
<totfact> 0.69196277E-01</totfact>
</mgrwt>
</event>
<event>
 6    1  0.5260809E-006  0.3000000E+03  0.7818608E-02  0.1093470E+00
          1   -1    0    0  502    0  0.00000000000E+00  0.00000000000E+00  0.11273412419E+03  0.11273412419E+03  0.00000000000E+00 0.  1.
         13   -1    0    0    0    0 -0.00000000000E+00 -0.00000000000E+00 -0.10000000000E+04  0.10000000000E+04  0.00000000000E+00 0.  1.
    9000005    2    1    2  501    0  0.17475261487E+01  0.10304674951E+02 -0.89130915547E+03  0.11015275063E+04  0.64716427313E+03 0.  0.
         13    1    3    3    0    0 -0.51343154307E+02 -0.24197005722E+03 -0.95753297333E+02  0.26524389161E+03  0.00000000000E+00 0.  1.
          1    1    3    3  501    0  0.53090680456E+02  0.25227473217E+03 -0.79555585813E+03  0.83628361472E+03  0.00000000000E+00 0.  1.
         21    1    1    2  502  501 -0.17475261487E+01 -0.10304674951E+02  0.40432796610E+01  0.11206617862E+02  0.00000000000E+00 0. -1.
<mgrwt>
<rscale>  1 0.30000000E+03</rscale>
<asrwt>0</asrwt>
<pdfrwt beam="1">  1        1 0.40994313E+00 0.30000000E+03</pdfrwt>
<pdfrwt beam="2">0</pdfrwt>
<totfact> 0.92206437E-01</totfact>
</mgrwt>
</event>
<event>
 6    1  0.5260809E-006  0.3000000E+03  0.7818608E-02  0.1093470E+00
          1   -1    0    0  502    0  0.00000000000E+00  0.00000000000E+00  0.11946940759E+03  0.11946940759E+03  0.00000000000E+00 0.  1.
         13   -1    0    0    0    0 -0.00000000000E+00 -0.00000000000E+00 -0.10000000000E+04  0.10000000000E+04  0.00000000000E+00 0.  1.
    9000005    2    1    2  501    0  0.12242649624E+02  0.65145487185E+01 -0.88574359357E+03  0.11046539698E+04  0.65994420804E+03 0.  0.
         13    1    3    3    0    0  0.23285719951E+03  0.23213894047E+03 -0.57137743089E+03  0.65922919503E+03  0.00000000000E+00 0.  1.
          3    1    3    3  501    0 -0.22061454989E+03 -0.22562439175E+03 -0.31436616268E+03  0.44542477481E+03  0.00000000000E+00 0.  1.
         21    1    1    2  502  501 -0.12242649624E+02 -0.65145487185E+01  0.52130011602E+01  0.14815437757E+02  0.00000000000E+00 0. -1.
<mgrwt>
<rscale>  1 0.30000000E+03</rscale>
<asrwt>0</asrwt>
<pdfrwt beam="1">  1        1 0.43443513E+00 0.30000000E+03</pdfrwt>
<pdfrwt beam="2">0</pdfrwt>
<totfact> 0.65104759E-01</totfact>
</mgrwt>
</event>
<event>
 6    1  0.5260809E-006  0.3000000E+03  0.7818608E-02  0.1093470E+00
          1   -1    0    0  502    0  0.00000000000E+00  0.00000000000E+00  0.10286691385E+03  0.10286691385E+03  0.00000000000E+00 0.  1.
         13   -1    0    0    0    0 -0.00000000000E+00 -0.00000000000E+00 -0.10000000000E+04  0.10000000000E+04  0.00000000000E+00 0.  1.
    9000005    2    1    2  501    0 -0.31232303167E+01  0.10224921100E+02 -0.90689384748E+03  0.10883901725E+04  0.60168298409E+03 0.  0.
         13    1    3    3    0    0 -0.13831686228E+03  0.41423845530E+02  0.24731791830E+02  0.14648942248E+03  0.00000000000E+00 0.  1.
          3    1    3    3  501    0  0.13519363197E+03 -0.31198924430E+02 -0.93162563931E+03  0.94190074999E+03  0.00000000000E+00 0.  1.
         21    1    1    2  502  501  0.31232303167E+01 -0.10224921100E+02  0.97607613336E+01  0.14476741378E+02  0.00000000000E+00 0.  1.
<mgrwt>
<rscale>  1 0.30000000E+03</rscale>
<asrwt>0</asrwt>
<pdfrwt beam="1">  1        1 0.37406229E+00 0.30000000E+03</pdfrwt>
<pdfrwt beam="2">0</pdfrwt>
<totfact> 0.14676826E+00</totfact>
</mgrwt>
</event>
<event>
 6    1  0.5260809E-006  0.3000000E+03  0.7818608E-02  0.1093470E+00
          1   -1    0    0  502    0  0.00000000000E+00  0.00000000000E+00  0.13441363428E+03  0.13441363428E+03  0.00000000000E+00 0.  1.
         13   -1    0    0    0    0 -0.00000000000E+00 -0.00000000000E+00 -0.10000000000E+04  0.10000000000E+04  0.00000000000E+00 0.  1.
    9000005    2    1    2  501    0  0.31869230528E+02 -0.36068588897E+02 -0.87301212634E+03  0.10857131940E+04  0.64366635457E+03 0.  0.
         13    1    3    3    0    0 -0.80241402823E+02 -0.53966436959E+01  0.87123599202E+02  0.11856782037E+03  0.00000000000E+00 0.  1.
          3    1    3    3  501    0  0.11211063335E+03 -0.30671945201E+02 -0.96013572554E+03  0.96714537366E+03  0.00000000000E+00 0.  1.
         21    1    1    2  502  501 -0.31869230528E+02  0.36068588897E+02  0.74257606138E+01  0.48700440246E+02  0.00000000000E+00 0.  1.
<mgrwt>
<rscale>  1 0.30000000E+03</rscale>
<asrwt>0</asrwt>
<pdfrwt beam="1">  1        1 0.48877788E+00 0.30000000E+03</pdfrwt>
<pdfrwt beam="2">0</pdfrwt>
<totfact> 0.27594744E-01</totfact>
</mgrwt>
</event>
<event>
 6    1  0.5260809E-006  0.3000000E+03  0.7818608E-02  0.1093470E+00
          1   -1    0    0  502    0  0.00000000000E+00  0.00000000000E+00  0.15552602549E+03  0.15552602549E+03  0.00000000000E+00 0.  1.
         13   -1    0    0    0    0 -0.00000000000E+00 -0.00000000000E+00 -0.10000000000E+04  0.10000000000E+04  0.00000000000E+00 0.  1.
    9000005    2    1    2  501    0 -0.27669496180E+02 -0.13282288335E+02 -0.89094200841E+03  0.10998367233E+04  0.64414372262E+03 0.  0.
         13    1    3    3    0    0  0.14922219151E+03  0.16041795492E+03 -0.80989967683E+03  0.83901052987E+03  0.00000000000E+00 0.  1.
          1    1    3    3  501    0 -0.17689168769E+03 -0.17370024325E+03 -0.81042331583E+02  0.26082619345E+03  0.00000000000E+00 0.  1.
         21    1    1    2  502  501  0.27669496180E+02  0.13282288335E+02  0.46468033903E+02  0.55689302178E+02  0.00000000000E+00 0. -1.
<mgrwt>
<rscale>  1 0.30000000E+03</rscale>
<asrwt>0</asrwt>
<pdfrwt beam="1">  1        1 0.56555038E+00 0.30000000E+03</pdfrwt>
<pdfrwt beam="2">0</pdfrwt>
<totfact> 0.81163726E-02</totfact>
</mgrwt>
</event>
<event>
 6    1  0.5260809E-006  0.3000000E+03  0.7818608E-02  0.1093470E+00
          1   -1    0    0  502    0  0.00000000000E+00  0.00000000000E+00  0.10775824924E+03  0.10775824924E+03  0.00000000000E+00 0.  1.
         13   -1    0    0    0    0 -0.00000000000E+00 -0.00000000000E+00 -0.10000000000E+04  0.10000000000E+04  0.00000000000E+00 0.  1.
    9000005    2    1    2  501    0  0.35237075237E+01  0.88631345778E+01 -0.87492761076E+03  0.10879908237E+04  0.64663338662E+03 0.  0.
         13    1    3    3    0    0  0.10135199847E+03  0.30651196633E+03 -0.54167799057E+03  0.63058453721E+03  0.00000000000E+00 0.  1.
          3    1    3    3  501    0 -0.97828290951E+02 -0.29764883176E+03 -0.33324962019E+03  0.45740628648E+03  0.00000000000E+00 0.  1.
         21    1    1    2  502  501 -0.35237075237E+01 -0.88631345778E+01 -0.17314139995E+02  0.19767425554E+02  0.00000000000E+00 0. -1.
<mgrwt>
<rscale>  1 0.30000000E+03</rscale>
<asrwt>0</asrwt>
<pdfrwt beam="1">  1        1 0.39184901E+00 0.30000000E+03</pdfrwt>
<pdfrwt beam="2">0</pdfrwt>
<totfact> 0.11709301E+00</totfact>
</mgrwt>
</event>
<event>
 6    1  0.5260809E-006  0.3000000E+03  0.7818608E-02  0.1093470E+00
          1   -1    0    0  502    0  0.00000000000E+00  0.00000000000E+00  0.75241728903E+02  0.75241728903E+02  0.00000000000E+00 0.  1.
         13   -1    0    0    0    0 -0.00000000000E+00 -0.00000000000E+00 -0.10000000000E+04  0.10000000000E+04  0.00000000000E+00 0.  1.
    9000005    2    1    2  501    0 -0.20681698857E+02 -0.30556250006E+02 -0.91318951172E+03  0.10365732239E+04  0.48908848607E+03 0.  0.
         13    1    3    3    0    0 -0.13024300010E+03 -0.22908902224E+03 -0.47617509726E+03  0.54423133173E+03  0.00000000000E+00 0.  1.
          3    1    3    3  501    0  0.10956130125E+03  0.19853277224E+03 -0.43701441446E+03  0.49234189221E+03  0.00000000000E+00 0.  1.
         21    1    1    2  502  501  0.20681698857E+02  0.30556250006E+02 -0.11568759378E+02  0.38668504957E+02  0.00000000000E+00 0. -1.
<mgrwt>
<rscale>  1 0.30000000E+03</rscale>
<asrwt>0</asrwt>
<pdfrwt beam="1">  1        1 0.27360686E+00 0.30000000E+03</pdfrwt>
<pdfrwt beam="2">0</pdfrwt>
<totfact> 0.46250172E+00</totfact>
</mgrwt>
</event>
<event>
 6    1  0.5260809E-006  0.3000000E+03  0.7818608E-02  0.1093470E+00
          1   -1    0    0  502    0  0.00000000000E+00  0.00000000000E+00  0.11495291115E+03  0.11495291115E+03  0.00000000000E+00 0.  1.
         13   -1    0    0    0    0 -0.00000000000E+00 -0.00000000000E+00 -0.10000000000E+04  0.10000000000E+04  0.00000000000E+00 0.  1.
    9000005    2    1    2  501    0 -0.40816069154E+01 -0.84532309740E+01 -0.88225340636E+03  0.11051589696E+04  0.66552021642E+03 0.  0.
         13    1    3    3    0    0  0.16756886875E+02  0.25965609630E+03 -0.10133094708E+03  0.27923116309E+03  0.00000000000E+00 0.  1.
          3    1    3    3  501    0 -0.20838493791E+02 -0.26810932727E+03 -0.78092245927E+03  0.82592780653E+03  0.00000000000E+00 0.  1.
         21    1    1    2  502  501  0.40816069154E+01  0.84532309740E+01 -0.27936824946E+01  0.97939415351E+01  0.00000000000E+00 0. -1.
<mgrwt>
<rscale>  1 0.30000000E+03</rscale>
<asrwt>0</asrwt>
<pdfrwt beam="1">  1        1 0.41801147E+00 0.30000000E+03</pdfrwt>
<pdfrwt beam="2">0</pdfrwt>
<totfact> 0.82483168E-01</totfact>
</mgrwt>
</event>
<event>
 6    1  0.5260809E-006  0.3000000E+03  0.7818608E-02  0.1093470E+00
          1   -1    0    0  502    0  0.00000000000E+00  0.00000000000E+00  0.10883133675E+03  0.10883133675E+03  0.00000000000E+00 0.  1.
         13   -1    0    0    0    0 -0.00000000000E+00 -0.00000000000E+00 -0.10000000000E+04  0.10000000000E+04  0.00000000000E+00 0.  1.
    9000005    2    1    2  501    0  0.67142590689E+01 -0.87177642893E+01 -0.88106500594E+03  0.10938926427E+04  0.64823181685E+03 0.  0.
         13    1    3    3    0    0  0.28402895067E+03  0.66852627930E+02 -0.68889159152E+03  0.74813992244E+03  0.00000000000E+00 0.  1.
          3    1    3    3  501    0 -0.27731469160E+03 -0.75570392219E+02 -0.19217341442E+03  0.34575272026E+03  0.00000000000E+00 0.  1.
         21    1    1    2  502  501 -0.67142590689E+01  0.87177642893E+01 -0.10103657310E+02  0.14938694056E+02  0.00000000000E+00 0.  1.
<mgrwt>
<rscale>  1 0.30000000E+03</rscale>
<asrwt>0</asrwt>
<pdfrwt beam="1">  1        1 0.39575115E+00 0.30000000E+03</pdfrwt>
<pdfrwt beam="2">0</pdfrwt>
<totfact> 0.11132277E+00</totfact>
</mgrwt>
</event>
<event>
 6    1  0.5260809E-006  0.3000000E+03  0.7818608E-02  0.1093470E+00
          1   -1    0    0  502    0  0.00000000000E+00  0.00000000000E+00  0.99723255899E+02  0.99723255899E+02  0.00000000000E+00 0.  1.
         13   -1    0    0    0    0 -0.00000000000E+00 -0.00000000000E+00 -0.10000000000E+04  0.10000000000E+04  0.00000000000E+00 0.  1.
    9000005    2    1    2  501    0  0.98534903744E+01  0.27010258479E+01 -0.90051234323E+03  0.10895035534E+04  0.61318115238E+03 0.  0.
         13    1    3    3    0    0  0.63532632349E+01 -0.29947423336E+03 -0.55347567893E+03  0.62933338348E+03  0.00000000000E+00 0.  1.
          3    1    3    3  501    0  0.35002271395E+01  0.30217525921E+03 -0.34703666430E+03  0.46017016987E+03  0.00000000000E+00 0.  1.
         21    1    1    2  502  501 -0.98534903744E+01 -0.27010258479E+01  0.23559913233E+00  0.10219702547E+02  0.00000000000E+00 0. -1.
<mgrwt>
<rscale>  1 0.30000000E+03</rscale>
<asrwt>0</asrwt>
<pdfrwt beam="1">  1        1 0.36263079E+00 0.30000000E+03</pdfrwt>
<pdfrwt beam="2">0</pdfrwt>
<totfact> 0.16907761E+00</totfact>
</mgrwt>
</event>
<event>
 6    1  0.5260809E-006  0.3000000E+03  0.7818608E-02  0.1093470E+00
          1   -1    0    0  502    0  0.00000000000E+00  0.00000000000E+00  0.12348931308E+03  0.12348931308E+03  0.00000000000E+00 0.  1.
         13   -1    0    0    0    0 -0.00000000000E+00 -0.00000000000E+00 -0.10000000000E+04  0.10000000000E+04  0.00000000000E+00 0.  1.
    9000005    2    1    2  501    0  0.18026870239E+02 -0.22433892801E+02 -0.86558087509E+03  0.10927044404E+04  0.66629159925E+03 0.  0.
         13    1    3    3    0    0  0.17763722390E+03  0.27499246846E+03 -0.38405378228E+03  0.50465151215E+03  0.00000000000E+00 0.  1.
          3    1    3    3  501    0 -0.15961035366E+03 -0.29742636126E+03 -0.48152709281E+03  0.58805292830E+03  0.00000000000E+00 0.  1.
         21    1    1    2  502  501 -0.18026870239E+02  0.22433892801E+02 -0.10929811827E+02  0.30784872639E+02  0.00000000000E+00 0. -1.
<mgrwt>
<rscale>  1 0.30000000E+03</rscale>
<asrwt>0</asrwt>
<pdfrwt beam="1">  1        1 0.44905299E+00 0.30000000E+03</pdfrwt>
<pdfrwt beam="2">0</pdfrwt>
<totfact> 0.52213924E-01</totfact>
</mgrwt>
</event>
<event>
 6    1  0.5260809E-006  0.3000000E+03  0.7818608E-02  0.1093470E+00
          1   -1    0    0  502    0  0.00000000000E+00  0.00000000000E+00  0.17231751570E+03  0.17231751570E+03  0.00000000000E+00 0.  1.
         13   -1    0    0    0    0 -0.00000000000E+00 -0.00000000000E+00 -0.10000000000E+04  0.10000000000E+04  0.00000000000E+00 0.  1.
    9000005    2    1    2  501    0 -0.80974882219E+02  0.11162813856E+03 -0.77881050976E+03  0.10260087915E+04  0.65355218410E+03 0.  0.
         13    1    3    3    0    0  0.17177525726E+03 -0.66148254867E+02 -0.67558664737E+03  0.70021400210E+03  0.00000000000E+00 0.  1.
          1    1    3    3  501    0 -0.25275013948E+03  0.17777639342E+03 -0.10322386239E+03  0.32579478945E+03  0.00000000000E+00 0.  1.
         21    1    1    2  502  501  0.80974882219E+02 -0.11162813856E+03 -0.48871974542E+02  0.14630872416E+03  0.00000000000E+00 0.  1.
<mgrwt>
<rscale>  1 0.30000000E+03</rscale>
<asrwt>0</asrwt>
<pdfrwt beam="1">  1        1 0.62661047E+00 0.30000000E+03</pdfrwt>
<pdfrwt beam="2">0</pdfrwt>
<totfact> 0.44708552E-02</totfact>
</mgrwt>
</event>
<event>
 6    1  0.5260809E-006  0.3000000E+03  0.7818608E-02  0.1093470E+00
          1   -1    0    0  502    0  0.00000000000E+00  0.00000000000E+00  0.11256018551E+03  0.11256018551E+03  0.00000000000E+00 0.  1.
         13   -1    0    0    0    0 -0.00000000000E+00 -0.00000000000E+00 -0.10000000000E+04  0.10000000000E+04  0.00000000000E+00 0.  1.
    9000005    2    1    2  501    0 -0.13302341583E+02 -0.39576348292E+01 -0.89473065781E+03  0.10968830824E+04  0.63436340634E+03 0.  0.
         13    1    3    3    0    0  0.28146914432E+03  0.11255542586E+03 -0.32163866925E+03  0.44197854772E+03  0.00000000000E+00 0.  1.
          3    1    3    3  501    0 -0.29477148590E+03 -0.11651306069E+03 -0.57309198856E+03  0.65490453469E+03  0.00000000000E+00 0.  1.
         21    1    1    2  502  501  0.13302341583E+02  0.39576348292E+01  0.72908433226E+01  0.15677103093E+02  0.00000000000E+00 0.  1.
<mgrwt>
<rscale>  1 0.30000000E+03</rscale>
<asrwt>0</asrwt>
<pdfrwt beam="1">  1        1 0.40931063E+00 0.30000000E+03</pdfrwt>
<pdfrwt beam="2">0</pdfrwt>
<totfact> 0.93002800E-01</totfact>
</mgrwt>
</event>
<event>
 6    1  0.5260809E-006  0.3000000E+03  0.7818608E-02  0.1093470E+00
          1   -1    0    0  502    0  0.00000000000E+00  0.00000000000E+00  0.11381994545E+03  0.11381994545E+03  0.00000000000E+00 0.  1.
         13   -1    0    0    0    0 -0.00000000000E+00 -0.00000000000E+00 -0.10000000000E+04  0.10000000000E+04  0.00000000000E+00 0.  1.
    9000005    2    1    2  501    0 -0.25564393679E+02  0.66085276638E+01 -0.86969224533E+03  0.10826902375E+04  0.64432626674E+03 0.  0.
         13    1    3    3    0    0  0.22821648224E+03  0.18885841963E+03 -0.24576114844E+03  0.38490103600E+03  0.00000000000E+00 0.  1.
          1    1    3    3  501    0 -0.25378087592E+03 -0.18224989197E+03 -0.62393109689E+03  0.69778920153E+03  0.00000000000E+00 0.  1.
         21    1    1    2  502  501  0.25564393679E+02 -0.66085276638E+01 -0.16487809214E+02  0.31129707913E+02  0.00000000000E+00 0.  1.
<mgrwt>
<rscale>  1 0.30000000E+03</rscale>
<asrwt>0</asrwt>
<pdfrwt beam="1">  1        1 0.41389158E+00 0.30000000E+03</pdfrwt>
<pdfrwt beam="2">0</pdfrwt>
<totfact> 0.87348800E-01</totfact>
</mgrwt>
</event>
<event>
 6    1  0.5260809E-006  0.3000000E+03  0.7818608E-02  0.1093470E+00
          1   -1    0    0  502    0  0.00000000000E+00  0.00000000000E+00  0.10037062766E+03  0.10037062766E+03  0.00000000000E+00 0.  1.
         13   -1    0    0    0    0 -0.00000000000E+00 -0.00000000000E+00 -0.10000000000E+04  0.10000000000E+04  0.00000000000E+00 0.  1.
    9000005    2    1    2  501    0  0.38864320032E+01 -0.10272959948E+02 -0.89132171495E+03  0.10865990907E+04  0.62138759744E+03 0.  0.
         13    1    3    3    0    0 -0.29738409464E+02  0.41861879294E+02  0.89839200251E+02  0.10347884729E+03  0.00000000000E+00 0.  1.
          1    1    3    3  501    0  0.33624841467E+02 -0.52134839243E+02 -0.98116091520E+03  0.98312024338E+03  0.00000000000E+00 0.  1.
         21    1    1    2  502  501 -0.38864320032E+01  0.10272959948E+02 -0.83076573897E+01  0.13771536992E+02  0.00000000000E+00 0.  1.
<mgrwt>
<rscale>  1 0.30000000E+03</rscale>
<asrwt>0</asrwt>
<pdfrwt beam="1">  1        1 0.36498487E+00 0.30000000E+03</pdfrwt>
<pdfrwt beam="2">0</pdfrwt>
<totfact> 0.16423947E+00</totfact>
</mgrwt>
</event>
<event>
 6    1  0.5260809E-006  0.3000000E+03  0.7818608E-02  0.1093470E+00
          1   -1    0    0  502    0  0.00000000000E+00  0.00000000000E+00  0.10589684530E+03  0.10589684530E+03  0.00000000000E+00 0.  1.
         13   -1    0    0    0    0 -0.00000000000E+00 -0.00000000000E+00 -0.10000000000E+04  0.10000000000E+04  0.00000000000E+00 0.  1.
    9000005    2    1    2  501    0  0.35400966376E+01 -0.13855648322E+02 -0.88902225922E+03  0.10907203248E+04  0.63174816053E+03 0.  0.
         13    1    3    3    0    0  0.29433959530E+02  0.29420567212E+03 -0.59336644859E+03  0.66295329986E+03  0.00000000000E+00 0.  1.
          1    1    3    3  501    0 -0.25893862893E+02 -0.30806132045E+03 -0.29565581063E+03  0.42776702497E+03  0.00000000000E+00 0.  1.
         21    1    1    2  502  501 -0.35400966376E+01  0.13855648322E+02 -0.50808954817E+01  0.15176520468E+02  0.00000000000E+00 0.  1.
<mgrwt>
<rscale>  1 0.30000000E+03</rscale>
<asrwt>0</asrwt>
<pdfrwt beam="1">  1        1 0.38508025E+00 0.30000000E+03</pdfrwt>
<pdfrwt beam="2">0</pdfrwt>
<totfact> 0.12772943E+00</totfact>
</mgrwt>
</event>
<event>
 6    1  0.5260809E-006  0.3000000E+03  0.7818608E-02  0.1093470E+00
          1   -1    0    0  502    0  0.00000000000E+00  0.00000000000E+00  0.10860450013E+03  0.10860450013E+03  0.00000000000E+00 0.  1.
         13   -1    0    0    0    0 -0.00000000000E+00 -0.00000000000E+00 -0.10000000000E+04  0.10000000000E+04  0.00000000000E+00 0.  1.
    9000005    2    1    2  501    0 -0.52115706627E+01  0.11781904789E+02 -0.89027984906E+03  0.10956732038E+04  0.63854176531E+03 0.  0.
         13    1    3    3    0    0 -0.27870229393E+03  0.77234863063E+02 -0.69650647509E+03  0.75416275602E+03  0.00000000000E+00 0.  1.
          3    1    3    3  501    0  0.27349072326E+03 -0.65452958274E+02 -0.19377337396E+03  0.34151044774E+03  0.00000000000E+00 0.  1.
         21    1    1    2  502  501  0.52115706627E+01 -0.11781904789E+02 -0.11156508134E+01  0.12931296376E+02  0.00000000000E+00 0. -1.
<mgrwt>
<rscale>  1 0.30000000E+03</rscale>
<asrwt>0</asrwt>
<pdfrwt beam="1">  1        1 0.39492629E+00 0.30000000E+03</pdfrwt>
<pdfrwt beam="2">0</pdfrwt>
<totfact> 0.11252099E+00</totfact>
</mgrwt>
</event>
<event>
 6    1  0.5260809E-006  0.3000000E+03  0.7818608E-02  0.1093470E+00
          1   -1    0    0  502    0  0.00000000000E+00  0.00000000000E+00  0.11057196506E+03  0.11057196506E+03  0.00000000000E+00 0.  1.
         13   -1    0    0    0    0 -0.00000000000E+00 -0.00000000000E+00 -0.10000000000E+04  0.10000000000E+04  0.00000000000E+00 0.  1.
    9000005    2    1    2  501    0  0.87957165308E+01 -0.83624385728E+01 -0.88583896182E+03  0.10979158814E+04  0.64850699402E+03 0.  0.
         13    1    3    3    0    0 -0.20741853069E+03 -0.15906176118E+03 -0.11928032383E+03  0.28731670052E+03  0.00000000000E+00 0.  1.
          1    1    3    3  501    0  0.21621424722E+03  0.15069932260E+03 -0.76655863799E+03  0.81059918086E+03  0.00000000000E+00 0.  1.
         21    1    1    2  502  501 -0.87957165308E+01  0.83624385728E+01 -0.35890731206E+01  0.12656083677E+02  0.00000000000E+00 0.  1.
<mgrwt>
<rscale>  1 0.30000000E+03</rscale>
<asrwt>0</asrwt>
<pdfrwt beam="1">  1        1 0.40208072E+00 0.30000000E+03</pdfrwt>
<pdfrwt beam="2">0</pdfrwt>
<totfact> 0.10246934E+00</totfact>
</mgrwt>
</event>
<event>
 6    1  0.5260809E-006  0.3000000E+03  0.7818608E-02  0.1093470E+00
          1   -1    0    0  502    0  0.00000000000E+00  0.00000000000E+00  0.12170572832E+03  0.12170572832E+03  0.00000000000E+00 0.  1.
         13   -1    0    0    0    0 -0.00000000000E+00 -0.00000000000E+00 -0.10000000000E+04  0.10000000000E+04  0.00000000000E+00 0.  1.
    9000005    2    1    2  501    0  0.29913863110E+02 -0.89246225932E+01 -0.87327092091E+03  0.10900873453E+04  0.65170072186E+03 0.  0.
         13    1    3    3    0    0 -0.28683459177E+03 -0.97991019121E+02 -0.55463713556E+03  0.63205907557E+03  0.00000000000E+00 0.  1.
          1    1    3    3  501    0  0.31674845488E+03  0.89066396528E+02 -0.31863378535E+03  0.45802826968E+03  0.00000000000E+00 0.  1.
         21    1    1    2  502  501 -0.29913863110E+02  0.89246225932E+01 -0.50233507716E+01  0.31618383064E+02  0.00000000000E+00 0.  1.
<mgrwt>
<rscale>  1 0.30000000E+03</rscale>
<asrwt>0</asrwt>
<pdfrwt beam="1">  1        1 0.44256722E+00 0.30000000E+03</pdfrwt>
<pdfrwt beam="2">0</pdfrwt>
<totfact> 0.57669778E-01</totfact>
</mgrwt>
</event>
<event>
 6    1  0.5260809E-006  0.3000000E+03  0.7818608E-02  0.1093470E+00
          1   -1    0    0  502    0  0.00000000000E+00  0.00000000000E+00  0.10884505435E+03  0.10884505435E+03  0.00000000000E+00 0.  1.
         13   -1    0    0    0    0 -0.00000000000E+00 -0.00000000000E+00 -0.10000000000E+04  0.10000000000E+04  0.00000000000E+00 0.  1.
    9000005    2    1    2  501    0 -0.14502674969E+02  0.26014708167E+01 -0.90186037830E+03  0.10906323796E+04  0.61311479378E+03 0.  0.
         13    1    3    3    0    0 -0.24960389584E+02 -0.20345629640E+03 -0.85476877018E+03  0.87900349036E+03  0.00000000000E+00 0.  1.
          1    1    3    3  501    0  0.10457714615E+02  0.20605776721E+03 -0.47091608119E+02  0.21162888928E+03  0.00000000000E+00 0.  1.
         21    1    1    2  502  501  0.14502674969E+02 -0.26014708167E+01  0.10705432648E+02  0.18212674704E+02  0.00000000000E+00 0. -1.
<mgrwt>
<rscale>  1 0.30000000E+03</rscale>
<asrwt>0</asrwt>
<pdfrwt beam="1">  1        1 0.39580103E+00 0.30000000E+03</pdfrwt>
<pdfrwt beam="2">0</pdfrwt>
<totfact> 0.11125066E+00</totfact>
</mgrwt>
</event>
<event>
 6    1  0.5260809E-006  0.3000000E+03  0.7818608E-02  0.1093470E+00
          1   -1    0    0  502    0  0.00000000000E+00  0.00000000000E+00  0.11457384885E+03  0.11457384885E+03  0.00000000000E+00 0.  1.
         13   -1    0    0    0    0 -0.00000000000E+00 -0.00000000000E+00 -0.10000000000E+04  0.10000000000E+04  0.00000000000E+00 0.  1.
    9000005    2    1    2  501    0 -0.81555921227E+01  0.18727359704E+02 -0.88178733573E+03  0.10938261101E+04  0.64690758695E+03 0.  0.
         13    1    3    3    0    0 -0.16768549325E+02 -0.29760289931E+03 -0.25741925358E+03  0.39384431193E+03  0.00000000000E+00 0.  1.
          1    1    3    3  501    0  0.86129572024E+01  0.31633025901E+03 -0.62436808215E+03  0.69998179820E+03  0.00000000000E+00 0.  1.
         21    1    1    2  502  501  0.81555921227E+01 -0.18727359704E+02 -0.36388154267E+01  0.20747738721E+02  0.00000000000E+00 0.  1.
<mgrwt>
<rscale>  1 0.30000000E+03</rscale>
<asrwt>0</asrwt>
<pdfrwt beam="1">  1        1 0.41663306E+00 0.30000000E+03</pdfrwt>
<pdfrwt beam="2">0</pdfrwt>
<totfact> 0.84089551E-01</totfact>
</mgrwt>
</event>
<event>
 6    1  0.5260809E-006  0.3000000E+03  0.7818608E-02  0.1093470E+00
          1   -1    0    0  502    0  0.00000000000E+00  0.00000000000E+00  0.11181289189E+03  0.11181289189E+03  0.00000000000E+00 0.  1.
         13   -1    0    0    0    0 -0.00000000000E+00 -0.00000000000E+00 -0.10000000000E+04  0.10000000000E+04  0.00000000000E+00 0.  1.
    9000005    2    1    2  501    0 -0.24384208653E+02  0.28711047435E+02 -0.86242159674E+03  0.10661754571E+04  0.62573171643E+03 0.  0.
         13    1    3    3    0    0 -0.15616061764E+03  0.28221236689E+03 -0.58454019519E+03  0.66762054965E+03  0.00000000000E+00 0.  1.
          3    1    3    3  501    0  0.13177640899E+03 -0.25350131946E+03 -0.27788140155E+03  0.39855490746E+03  0.00000000000E+00 0.  1.
         21    1    1    2  502  501  0.24384208653E+02 -0.28711047435E+02 -0.25765511371E+02  0.45637434773E+02  0.00000000000E+00 0. -1.
<mgrwt>
<rscale>  1 0.30000000E+03</rscale>
<asrwt>0</asrwt>
<pdfrwt beam="1">  1        1 0.40659319E+00 0.30000000E+03</pdfrwt>
<pdfrwt beam="2">0</pdfrwt>
<totfact> 0.96482270E-01</totfact>
</mgrwt>
</event>
<event>
 6    1  0.5260809E-006  0.3000000E+03  0.7818608E-02  0.1093470E+00
          1   -1    0    0  502    0  0.00000000000E+00  0.00000000000E+00  0.11896555041E+03  0.11896555041E+03  0.00000000000E+00 0.  1.
         13   -1    0    0    0    0 -0.00000000000E+00 -0.00000000000E+00 -0.10000000000E+04  0.10000000000E+04  0.00000000000E+00 0.  1.
    9000005    2    1    2  501    0 -0.17847288339E+02 -0.11313973976E+02 -0.88426198874E+03  0.10975891916E+04  0.64987401625E+03 0.  0.
         13    1    3    3    0    0 -0.13624376210E+03  0.12553903654E+03 -0.89723763921E+03  0.91616471970E+03  0.00000000000E+00 0.  1.
          3    1    3    3  501    0  0.11839647376E+03 -0.13685301052E+03  0.12975650468E+02  0.18142447187E+03  0.00000000000E+00 0.  1.
         21    1    1    2  502  501  0.17847288339E+02  0.11313973976E+02  0.32275391492E+01  0.21376358837E+02  0.00000000000E+00 0.  1.
<mgrwt>
<rscale>  1 0.30000000E+03</rscale>
<asrwt>0</asrwt>
<pdfrwt beam="1">  1        1 0.43260291E+00 0.30000000E+03</pdfrwt>
<pdfrwt beam="2">0</pdfrwt>
<totfact> 0.66878339E-01</totfact>
</mgrwt>
</event>
<event>
 6    1  0.5260809E-006  0.3000000E+03  0.7818608E-02  0.1093470E+00
          1   -1    0    0  502    0  0.00000000000E+00  0.00000000000E+00  0.11559164819E+03  0.11559164819E+03  0.00000000000E+00 0.  1.
         13   -1    0    0    0    0 -0.00000000000E+00 -0.00000000000E+00 -0.10000000000E+04  0.10000000000E+04  0.00000000000E+00 0.  1.
    9000005    2    1    2  501    0 -0.10573735717E+02  0.56407197991E+01 -0.88427297503E+03  0.11036066603E+04  0.66020098816E+03 0.  0.
         13    1    3    3    0    0  0.73766852699E+02  0.95327537267E+02 -0.95435928908E+03  0.96194102760E+03  0.00000000000E+00 0.  1.
          3    1    3    3  501    0 -0.84340588417E+02 -0.89686817468E+02  0.70086314055E+02  0.14166563274E+03  0.00000000000E+00 0.  1.
         21    1    1    2  502  501  0.10573735717E+02 -0.56407197991E+01 -0.13537678768E+00  0.11984987849E+02  0.00000000000E+00 0.  1.
<mgrwt>
<rscale>  1 0.30000000E+03</rscale>
<asrwt>0</asrwt>
<pdfrwt beam="1">  1        1 0.42033415E+00 0.30000000E+03</pdfrwt>
<pdfrwt beam="2">0</pdfrwt>
<totfact> 0.79823864E-01</totfact>
</mgrwt>
</event>
<event>
 6    1  0.5260809E-006  0.3000000E+03  0.7818608E-02  0.1093470E+00
          1   -1    0    0  502    0  0.00000000000E+00  0.00000000000E+00  0.11255674391E+03  0.11255674391E+03  0.00000000000E+00 0.  1.
         13   -1    0    0    0    0 -0.00000000000E+00 -0.00000000000E+00 -0.10000000000E+04  0.10000000000E+04  0.00000000000E+00 0.  1.
    9000005    2    1    2  501    0 -0.75011996593E+01 -0.11674380058E+02 -0.88456942522E+03  0.10983857154E+04  0.65099581607E+03 0.  0.
         13    1    3    3    0    0  0.28542127624E+03 -0.15288405979E+03 -0.48616846257E+03  0.58412208883E+03  0.00000000000E+00 0.  1.
          3    1    3    3  501    0 -0.29292247590E+03  0.14120967973E+03 -0.39840096265E+03  0.51426362653E+03  0.00000000000E+00 0.  1.
         21    1    1    2  502  501  0.75011996593E+01  0.11674380058E+02 -0.28738308737E+01  0.14171028543E+02  0.00000000000E+00 0.  1.
<mgrwt>
<rscale>  1 0.30000000E+03</rscale>
<asrwt>0</asrwt>
<pdfrwt beam="1">  1        1 0.40929811E+00 0.30000000E+03</pdfrwt>
<pdfrwt beam="2">0</pdfrwt>
<totfact> 0.93018608E-01</totfact>
</mgrwt>
</event>
<event>
 6    1  0.5260809E-006  0.3000000E+03  0.7818608E-02  0.1093470E+00
          1   -1    0    0  502    0  0.00000000000E+00  0.00000000000E+00  0.11334200067E+03  0.11334200067E+03  0.00000000000E+00 0.  1.
         13   -1    0    0    0    0 -0.00000000000E+00 -0.00000000000E+00 -0.10000000000E+04  0.10000000000E+04  0.00000000000E+00 0.  1.
    9000005    2    1    2  501    0  0.62684218640E+01 -0.16376904795E+02 -0.88308159079E+03  0.10954454417E+04  0.64796614396E+03 0.  0.
         13    1    3    3    0    0  0.22820706296E+03  0.19444404764E+03 -0.24295722782E+03  0.38589527828E+03  0.00000000000E+00 0.  1.
          3    1    3    3  501    0 -0.22193864110E+03 -0.21082095244E+03 -0.64012436297E+03  0.70955016346E+03  0.00000000000E+00 0.  1.
         21    1    1    2  502  501 -0.62684218640E+01  0.16376904795E+02 -0.35764085440E+01  0.17896558926E+02  0.00000000000E+00 0.  1.
<mgrwt>
<rscale>  1 0.30000000E+03</rscale>
<asrwt>0</asrwt>
<pdfrwt beam="1">  1        1 0.41215360E+00 0.30000000E+03</pdfrwt>
<pdfrwt beam="2">0</pdfrwt>
<totfact> 0.89462966E-01</totfact>
</mgrwt>
</event>
<event>
 6    1  0.5260809E-006  0.3000000E+03  0.7818608E-02  0.1093470E+00
          1   -1    0    0  502    0  0.00000000000E+00  0.00000000000E+00  0.10138551249E+03  0.10138551249E+03  0.00000000000E+00 0.  1.
         13   -1    0    0    0    0 -0.00000000000E+00 -0.00000000000E+00 -0.10000000000E+04  0.10000000000E+04  0.00000000000E+00 0.  1.
    9000005    2    1    2  501    0 -0.93710208232E+01  0.66170271751E+01 -0.89410185019E+03  0.10890581050E+04  0.62168950166E+03 0.  0.
         13    1    3    3    0    0  0.21781064696E+03 -0.12625873350E+03 -0.13509460186E+03  0.28571541289E+03  0.00000000000E+00 0.  1.
          1    1    3    3  501    0 -0.22718166778E+03  0.13287576067E+03 -0.75900724833E+03  0.80334269211E+03  0.00000000000E+00 0.  1.
         21    1    1    2  502  501  0.93710208232E+01 -0.66170271751E+01 -0.45126373126E+01  0.12327407490E+02  0.00000000000E+00 0.  1.
<mgrwt>
<rscale>  1 0.30000000E+03</rscale>
<asrwt>0</asrwt>
<pdfrwt beam="1">  1        1 0.36867537E+00 0.30000000E+03</pdfrwt>
<pdfrwt beam="2">0</pdfrwt>
<totfact> 0.15691834E+00</totfact>
</mgrwt>
</event>
<event>
 6    1  0.5260809E-006  0.3000000E+03  0.7818608E-02  0.1093470E+00
          1   -1    0    0  502    0  0.00000000000E+00  0.00000000000E+00  0.11448658777E+03  0.11448658777E+03  0.00000000000E+00 0.  1.
         13   -1    0    0    0    0 -0.00000000000E+00 -0.00000000000E+00 -0.10000000000E+04  0.10000000000E+04  0.00000000000E+00 0.  1.
    9000005    2    1    2  501    0 -0.18168403466E+02 -0.10994165479E+02 -0.88101680066E+03  0.10927798590E+04  0.64616271526E+03 0.  0.
         13    1    3    3    0    0 -0.22283703175E+03 -0.15983876385E+03 -0.13630114877E+03  0.30623973665E+03  0.00000000000E+00 0.  1.
          1    1    3    3  501    0  0.20466862829E+03  0.14884459837E+03 -0.74471565189E+03  0.78654012233E+03  0.00000000000E+00 0.  1.
         21    1    1    2  502  501  0.18168403466E+02  0.10994165479E+02 -0.44966115643E+01  0.21706728787E+02  0.00000000000E+00 0. -1.
<mgrwt>
<rscale>  1 0.30000000E+03</rscale>
<asrwt>0</asrwt>
<pdfrwt beam="1">  1        1 0.41631574E+00 0.30000000E+03</pdfrwt>
<pdfrwt beam="2">0</pdfrwt>
<totfact> 0.84462212E-01</totfact>
</mgrwt>
</event>
<event>
 6    1  0.5260809E-006  0.3000000E+03  0.7818608E-02  0.1093470E+00
          1   -1    0    0  502    0  0.00000000000E+00  0.00000000000E+00  0.11463536007E+03  0.11463536007E+03  0.00000000000E+00 0.  1.
         13   -1    0    0    0    0 -0.00000000000E+00 -0.00000000000E+00 -0.10000000000E+04  0.10000000000E+04  0.00000000000E+00 0.  1.
    9000005    2    1    2  501    0  0.11398743018E+02  0.10294098322E+01 -0.91064182987E+03  0.10868877952E+04  0.59323312949E+03 0.  0.
         13    1    3    3    0    0 -0.28935378075E+03 -0.10158853692E+02 -0.39339381499E+03  0.48845420094E+03  0.00000000000E+00 0.  1.
          1    1    3    3  501    0  0.30075252376E+03  0.11188263524E+02 -0.51724801489E+03  0.59843359422E+03  0.00000000000E+00 0.  1.
         21    1    1    2  502  501 -0.11398743018E+02 -0.10294098322E+01  0.25277189944E+02  0.27747564910E+02  0.00000000000E+00 0.  1.
<mgrwt>
<rscale>  1 0.30000000E+03</rscale>
<asrwt>0</asrwt>
<pdfrwt beam="1">  1        1 0.41685673E+00 0.30000000E+03</pdfrwt>
<pdfrwt beam="2">0</pdfrwt>
<totfact> 0.83827496E-01</totfact>
</mgrwt>
</event>
<event>
 6    1  0.5260809E-006  0.3000000E+03  0.7818608E-02  0.1093470E+00
          1   -1    0    0  502    0  0.00000000000E+00  0.00000000000E+00  0.11379058316E+03  0.11379058316E+03  0.00000000000E+00 0.  1.
         13   -1    0    0    0    0 -0.00000000000E+00 -0.00000000000E+00 -0.10000000000E+04  0.10000000000E+04  0.00000000000E+00 0.  1.
    9000005    2    1    2  501    0 -0.19695086867E+02  0.17294474997E+02 -0.82487096587E+03  0.10470867536E+04  0.64443119407E+03 0.  0.
         13    1    3    3    0    0  0.21896778325E+03  0.15392849005E+02 -0.35421182503E+02  0.22234767836E+03  0.00000000000E+00 0.  1.
          3    1    3    3  501    0 -0.23866287012E+03  0.19016259922E+01 -0.78944978337E+03  0.82473907523E+03  0.00000000000E+00 0.  1.
         21    1    1    2  502  501  0.19695086867E+02 -0.17294474997E+02 -0.61338450971E+02  0.66703829573E+02  0.00000000000E+00 0.  1.
<mgrwt>
<rscale>  1 0.30000000E+03</rscale>
<asrwt>0</asrwt>
<pdfrwt beam="1">  1        1 0.41378481E+00 0.30000000E+03</pdfrwt>
<pdfrwt beam="2">0</pdfrwt>
<totfact> 0.87477602E-01</totfact>
</mgrwt>
</event>
<event>
 6    1  0.5260809E-006  0.3000000E+03  0.7818608E-02  0.1093470E+00
          1   -1    0    0  502    0  0.00000000000E+00  0.00000000000E+00  0.10703816352E+03  0.10703816352E+03  0.00000000000E+00 0.  1.
         13   -1    0    0    0    0 -0.00000000000E+00 -0.00000000000E+00 -0.10000000000E+04  0.10000000000E+04  0.00000000000E+00 0.  1.
    9000005    2    1    2  501    0  0.83458040736E+01 -0.42359101963E+01 -0.89159008199E+03  0.10975789304E+04  0.64004612238E+03 0.  0.
         13    1    3    3    0    0 -0.27697801965E+03 -0.88258233381E+02 -0.65809009638E+03  0.71943652540E+03  0.00000000000E+00 0.  1.
          1    1    3    3  501    0  0.28532382372E+03  0.84022323184E+02 -0.23349998561E+03  0.37814240500E+03  0.00000000000E+00 0.  1.
         21    1    1    2  502  501 -0.83458040736E+01  0.42359101963E+01 -0.13717544899E+01  0.94592331194E+01  0.00000000000E+00 0.  1.
<mgrwt>
<rscale>  1 0.30000000E+03</rscale>
<asrwt>0</asrwt>
<pdfrwt beam="1">  1        1 0.38923051E+00 0.30000000E+03</pdfrwt>
<pdfrwt beam="2">0</pdfrwt>
<totfact> 0.12111368E+00</totfact>
</mgrwt>
</event>
<event>
 6    1  0.5260809E-006  0.3000000E+03  0.7818608E-02  0.1093470E+00
          1   -1    0    0  502    0  0.00000000000E+00  0.00000000000E+00  0.11448494913E+03  0.11448494913E+03  0.00000000000E+00 0.  1.
         13   -1    0    0    0    0 -0.00000000000E+00 -0.00000000000E+00 -0.10000000000E+04  0.10000000000E+04  0.00000000000E+00 0.  1.
    9000005    2    1    2  501    0 -0.15974457286E+02  0.13945082321E+02 -0.86770835483E+03  0.10867951129E+04  0.65403071777E+03 0.  0.
         13    1    3    3    0    0 -0.17607963649E+03 -0.16185514651E+03 -0.62481750163E+02  0.24719444966E+03  0.00000000000E+00 0.  1.
          3    1    3    3  501    0  0.16010517920E+03  0.17580022883E+03 -0.80522660467E+03  0.83960066325E+03  0.00000000000E+00 0.  1.
         21    1    1    2  502  501  0.15974457286E+02 -0.13945082321E+02 -0.17806696032E+02  0.27689836224E+02  0.00000000000E+00 0.  1.
<mgrwt>
<rscale>  1 0.30000000E+03</rscale>
<asrwt>0</asrwt>
<pdfrwt beam="1">  1        1 0.41630978E+00 0.30000000E+03</pdfrwt>
<pdfrwt beam="2">0</pdfrwt>
<totfact> 0.84469220E-01</totfact>
</mgrwt>
</event>
<event>
 6    1  0.5260809E-006  0.3000000E+03  0.7818608E-02  0.1093470E+00
          1   -1    0    0  502    0  0.00000000000E+00  0.00000000000E+00  0.11451282976E+03  0.11451282976E+03  0.00000000000E+00 0.  1.
         13   -1    0    0    0    0 -0.00000000000E+00 -0.00000000000E+00 -0.10000000000E+04  0.10000000000E+04  0.00000000000E+00 0.  1.
    9000005    2    1    2  501    0 -0.44241571343E+00 -0.12334096432E+02 -0.88441914893E+03  0.11021246767E+04  0.65751748749E+03 0.  0.
         13    1    3    3    0    0  0.19570190886E+03 -0.65424734020E+02 -0.12375615575E+02  0.20671910607E+03  0.00000000000E+00 0.  1.
          1    1    3    3  501    0 -0.19614432458E+03  0.53090637587E+02 -0.87204353335E+03  0.89540557063E+03  0.00000000000E+00 0.  1.
         21    1    1    2  502  501  0.44241571343E+00  0.12334096432E+02 -0.10680213180E+01  0.12388153051E+02  0.00000000000E+00 0.  1.
<mgrwt>
<rscale>  1 0.30000000E+03</rscale>
<asrwt>0</asrwt>
<pdfrwt beam="1">  1        1 0.41641117E+00 0.30000000E+03</pdfrwt>
<pdfrwt beam="2">0</pdfrwt>
<totfact> 0.84350031E-01</totfact>
</mgrwt>
</event>
<event>
 6    1  0.5260809E-006  0.3000000E+03  0.7818608E-02  0.1093470E+00
          1   -1    0    0  502    0  0.00000000000E+00  0.00000000000E+00  0.14418689107E+03  0.14418689107E+03  0.00000000000E+00 0.  1.
         13   -1    0    0    0    0 -0.00000000000E+00 -0.00000000000E+00 -0.10000000000E+04  0.10000000000E+04  0.00000000000E+00 0.  1.
    9000005    2    1    2  501    0 -0.37214906455E+01 -0.28107719060E+02 -0.88531240171E+03  0.11032711039E+04  0.65774249275E+03 0.  0.
         13    1    3    3    0    0  0.11062790580E+03  0.28524294311E+03 -0.29369088450E+03  0.42409480753E+03  0.00000000000E+00 0.  1.
          3    1    3    3  501    0 -0.11434939644E+03 -0.31335066217E+03 -0.59162151721E+03  0.67917629639E+03  0.00000000000E+00 0.  1.
         21    1    1    2  502  501  0.37214906455E+01  0.28107719060E+02  0.29499292782E+02  0.40915787149E+02  0.00000000000E+00 0. -1.
<mgrwt>
<rscale>  1 0.30000000E+03</rscale>
<asrwt>0</asrwt>
<pdfrwt beam="1">  1        1 0.52431707E+00 0.30000000E+03</pdfrwt>
<pdfrwt beam="2">0</pdfrwt>
<totfact> 0.15083636E-01</totfact>
</mgrwt>
</event>
<event>
 6    1  0.5260809E-006  0.3000000E+03  0.7818608E-02  0.1093470E+00
          1   -1    0    0  502    0  0.00000000000E+00  0.00000000000E+00  0.11540820386E+03  0.11540820386E+03  0.00000000000E+00 0.  1.
         13   -1    0    0    0    0 -0.00000000000E+00 -0.00000000000E+00 -0.10000000000E+04  0.10000000000E+04  0.00000000000E+00 0.  1.
    9000005    2    1    2  501    0  0.13274847961E+02  0.26132978874E+02 -0.85817541912E+03  0.10759496288E+04  0.64833895416E+03 0.  0.
         13    1    3    3    0    0 -0.13772436515E+03  0.20576144776E+03 -0.79538194648E+03  0.83302954025E+03  0.00000000000E+00 0.  1.
          3    1    3    3  501    0  0.15099921311E+03 -0.17962846889E+03 -0.62793472639E+02  0.24292008851E+03  0.00000000000E+00 0.  1.
         21    1    1    2  502  501 -0.13274847961E+02 -0.26132978874E+02 -0.26416377030E+02  0.39458575096E+02  0.00000000000E+00 0.  1.
<mgrwt>
<rscale>  1 0.30000000E+03</rscale>
<asrwt>0</asrwt>
<pdfrwt beam="1">  1        1 0.41966708E+00 0.30000000E+03</pdfrwt>
<pdfrwt beam="2">0</pdfrwt>
<totfact> 0.80581345E-01</totfact>
</mgrwt>
</event>
<event>
 6    1  0.5260809E-006  0.3000000E+03  0.7818608E-02  0.1093470E+00
          1   -1    0    0  502    0  0.00000000000E+00  0.00000000000E+00  0.10909908074E+03  0.10909908074E+03  0.00000000000E+00 0.  1.
         13   -1    0    0    0    0 -0.00000000000E+00 -0.00000000000E+00 -0.10000000000E+04  0.10000000000E+04  0.00000000000E+00 0.  1.
    9000005    2    1    2  501    0 -0.74214470933E+01 -0.73814485657E+01 -0.87302345030E+03  0.10883827211E+04  0.64984416530E+03 0.  0.
         13    1    3    3    0    0 -0.26563482173E+03  0.26809709063E+02 -0.12212062358E+03  0.29358825882E+03  0.00000000000E+00 0.  1.
          1    1    3    3  501    0  0.25821337464E+03 -0.34191157628E+02 -0.75090282672E+03  0.79479446229E+03  0.00000000000E+00 0.  1.
         21    1    1    2  502  501  0.74214470933E+01  0.73814485657E+01 -0.17877468958E+02  0.20716359628E+02  0.00000000000E+00 0. -1.
<mgrwt>
<rscale>  1 0.30000000E+03</rscale>
<asrwt>0</asrwt>
<pdfrwt beam="1">  1        1 0.39672477E+00 0.30000000E+03</pdfrwt>
<pdfrwt beam="2">0</pdfrwt>
<totfact> 0.10992251E+00</totfact>
</mgrwt>
</event>
<event>
 6    1  0.5260809E-006  0.3000000E+03  0.7818608E-02  0.1093470E+00
          1   -1    0    0  502    0  0.00000000000E+00  0.00000000000E+00  0.12524423157E+03  0.12524423157E+03  0.00000000000E+00 0.  1.
         13   -1    0    0    0    0 -0.00000000000E+00 -0.00000000000E+00 -0.10000000000E+04  0.10000000000E+04  0.00000000000E+00 0.  1.
    9000005    2    1    2  501    0  0.24445282444E+02  0.31300489076E+02 -0.86461049953E+03  0.10842537579E+04  0.65305252713E+03 0.  0.
         13    1    3    3    0    0  0.16382262964E+03 -0.20941729953E+03 -0.72664513824E+03  0.77376134322E+03  0.00000000000E+00 0.  1.
          3    1    3    3  501    0 -0.13937734720E+03  0.24071778861E+03 -0.13796536129E+03  0.31049241469E+03  0.00000000000E+00 0.  1.
         21    1    1    2  502  501 -0.24445282444E+02 -0.31300489076E+02 -0.10145268900E+02  0.40990473665E+02  0.00000000000E+00 0.  1.
<mgrwt>
<rscale>  1 0.30000000E+03</rscale>
<asrwt>0</asrwt>
<pdfrwt beam="1">  1        1 0.45543453E+00 0.30000000E+03</pdfrwt>
<pdfrwt beam="2">0</pdfrwt>
<totfact> 0.47305228E-01</totfact>
</mgrwt>
</event>
<event>
 6    1  0.5260809E-006  0.3000000E+03  0.7818608E-02  0.1093470E+00
          1   -1    0    0  502    0  0.00000000000E+00  0.00000000000E+00  0.11268095592E+03  0.11268095592E+03  0.00000000000E+00 0.  1.
         13   -1    0    0    0    0 -0.00000000000E+00 -0.00000000000E+00 -0.10000000000E+04  0.10000000000E+04  0.00000000000E+00 0.  1.
    9000005    2    1    2  501    0  0.76997787092E+01  0.20827400033E+02 -0.86652037974E+03  0.10822564325E+04  0.64801878838E+03 0.  0.
         13    1    3    3    0    0  0.26240256182E+03  0.10217295522E+03 -0.72919083423E+03  0.78167364670E+03  0.00000000000E+00 0.  1.
          1    1    3    3  501    0 -0.25470278311E+03 -0.81345555184E+02 -0.13732954552E+03  0.30058278584E+03  0.00000000000E+00 0.  1.
         21    1    1    2  502  501 -0.76997787092E+01 -0.20827400033E+02 -0.20798664337E+02  0.30424523373E+02  0.00000000000E+00 0.  1.
<mgrwt>
<rscale>  1 0.30000000E+03</rscale>
<asrwt>0</asrwt>
<pdfrwt beam="1">  1        1 0.40974979E+00 0.30000000E+03</pdfrwt>
<pdfrwt beam="2">0</pdfrwt>
<totfact> 0.92449325E-01</totfact>
</mgrwt>
</event>
<event>
 6    1  0.5260809E-006  0.3000000E+03  0.7818608E-02  0.1093470E+00
          1   -1    0    0  502    0  0.00000000000E+00  0.00000000000E+00  0.11043746506E+03  0.11043746506E+03  0.00000000000E+00 0.  1.
         13   -1    0    0    0    0 -0.00000000000E+00 -0.00000000000E+00 -0.10000000000E+04  0.10000000000E+04  0.00000000000E+00 0.  1.
    9000005    2    1    2  501    0  0.12305836416E-01  0.87301402776E+01 -0.88288175284E+03  0.10994443604E+04  0.65514998024E+03 0.  0.
         13    1    3    3    0    0 -0.14573757181E+03  0.58792669441E+02 -0.92614156816E+03  0.93937970070E+03  0.00000000000E+00 0.  1.
          3    1    3    3  501    0  0.14574987764E+03 -0.50062529164E+02  0.43259815322E+02  0.16006465969E+03  0.00000000000E+00 0.  1.
         21    1    1    2  502  501 -0.12305836416E-01 -0.87301402776E+01 -0.66807821005E+01  0.10993104665E+02  0.00000000000E+00 0.  1.
<mgrwt>
<rscale>  1 0.30000000E+03</rscale>
<asrwt>0</asrwt>
<pdfrwt beam="1">  1        1 0.40159163E+00 0.30000000E+03</pdfrwt>
<pdfrwt beam="2">0</pdfrwt>
<totfact> 0.10313362E+00</totfact>
</mgrwt>
</event>
<event>
 6    1  0.5260809E-006  0.3000000E+03  0.7818608E-02  0.1093470E+00
          1   -1    0    0  502    0  0.00000000000E+00  0.00000000000E+00  0.85849891254E+02  0.85849891254E+02  0.00000000000E+00 0.  1.
         13   -1    0    0    0    0 -0.00000000000E+00 -0.00000000000E+00 -0.10000000000E+04  0.10000000000E+04  0.00000000000E+00 0.  1.
    9000005    2    1    2  501    0 -0.56942616147E+02 -0.36935848047E+02 -0.90283587275E+03  0.10170405144E+04  0.46330559724E+03 0.  0.
         13    1    3    3    0    0  0.39267179904E+02 -0.10353529427E+03 -0.89275396441E+03  0.89959496972E+03  0.00000000000E+00 0.  1.
          1    1    3    3  501    0 -0.96209796051E+02  0.66599446224E+02 -0.10081908344E+02  0.11744554470E+03  0.00000000000E+00 0.  1.
         21    1    1    2  502  501  0.56942616147E+02  0.36935848047E+02 -0.11314235993E+02  0.68809376837E+02  0.00000000000E+00 0.  1.
<mgrwt>
<rscale>  1 0.30000000E+03</rscale>
<asrwt>0</asrwt>
<pdfrwt beam="1">  1        1 0.31218208E+00 0.30000000E+03</pdfrwt>
<pdfrwt beam="2">0</pdfrwt>
<totfact> 0.30384770E+00</totfact>
</mgrwt>
</event>
<event>
 6    1  0.5260809E-006  0.3000000E+03  0.7818608E-02  0.1093470E+00
          1   -1    0    0  502    0  0.00000000000E+00  0.00000000000E+00  0.11895796952E+03  0.11895796952E+03  0.00000000000E+00 0.  1.
         13   -1    0    0    0    0 -0.00000000000E+00 -0.00000000000E+00 -0.10000000000E+04  0.10000000000E+04  0.00000000000E+00 0.  1.
    9000005    2    1    2  501    0 -0.22566413786E+02 -0.14610818935E+02 -0.86588361354E+03  0.10880954248E+04  0.65838780538E+03 0.  0.
         13    1    3    3    0    0  0.29077212159E+03  0.11707948398E+03 -0.34506003889E+03  0.46617857383E+03  0.00000000000E+00 0.  1.
          1    1    3    3  501    0 -0.31333853538E+03 -0.13169030291E+03 -0.52082357465E+03  0.62191685099E+03  0.00000000000E+00 0.  1.
         21    1    1    2  502  501  0.22566413786E+02  0.14610818935E+02 -0.15158416939E+02  0.30862544697E+02  0.00000000000E+00 0.  1.
<mgrwt>
<rscale>  1 0.30000000E+03</rscale>
<asrwt>0</asrwt>
<pdfrwt beam="1">  1        1 0.43257535E+00 0.30000000E+03</pdfrwt>
<pdfrwt beam="2">0</pdfrwt>
<totfact> 0.66905319E-01</totfact>
</mgrwt>
</event>
<event>
 6    1  0.5260809E-006  0.3000000E+03  0.7818608E-02  0.1093470E+00
          1   -1    0    0  502    0  0.00000000000E+00  0.00000000000E+00  0.10629637957E+03  0.10629637957E+03  0.00000000000E+00 0.  1.
         13   -1    0    0    0    0 -0.00000000000E+00 -0.00000000000E+00 -0.10000000000E+04  0.10000000000E+04  0.00000000000E+00 0.  1.
    9000005    2    1    2  501    0  0.54534186333E+02  0.14459255135E+02 -0.79872240416E+03  0.99582249587E+03  0.59204891422E+03 0.  0.
         13    1    3    3    0    0  0.39496005439E+02  0.23264400360E+03 -0.72905396184E+03  0.76629161951E+03  0.00000000000E+00 0.  1.
          3    1    3    3  501    0  0.15038180894E+02 -0.21818474846E+03 -0.69668442325E+02  0.22953087636E+03  0.00000000000E+00 0.  1.
         21    1    1    2  502  501 -0.54534186333E+02 -0.14459255135E+02 -0.94981216262E+02  0.11047388370E+03  0.00000000000E+00 0.  1.
<mgrwt>
<rscale>  1 0.30000000E+03</rscale>
<asrwt>0</asrwt>
<pdfrwt beam="1">  1        1 0.38653310E+00 0.30000000E+03</pdfrwt>
<pdfrwt beam="2">0</pdfrwt>
<totfact> 0.12537942E+00</totfact>
</mgrwt>
</event>
<event>
 6    1  0.5260809E-006  0.3000000E+03  0.7818608E-02  0.1093470E+00
          1   -1    0    0  502    0  0.00000000000E+00  0.00000000000E+00  0.11195390903E+03  0.11195390903E+03  0.00000000000E+00 0.  1.
         13   -1    0    0    0    0 -0.00000000000E+00 -0.00000000000E+00 -0.10000000000E+04  0.10000000000E+04  0.00000000000E+00 0.  1.
    9000005    2    1    2  501    0  0.26080075409E+01 -0.14499513659E+02 -0.88043230058E+03  0.10953705618E+04  0.65150486895E+03 0.  0.
         13    1    3    3    0    0 -0.80125966603E+01 -0.59960981884E+02  0.98355492211E+02  0.11547001300E+03  0.00000000000E+00 0.  1.
          1    1    3    3  501    0  0.10620604201E+02  0.45461468225E+02 -0.97878779279E+03  0.97990054885E+03  0.00000000000E+00 0.  1.
         21    1    1    2  502  501 -0.26080075409E+01  0.14499513659E+02 -0.76137903940E+01  0.16583347185E+02  0.00000000000E+00 0. -1.
<mgrwt>
<rscale>  1 0.30000000E+03</rscale>
<asrwt>0</asrwt>
<pdfrwt beam="1">  1        1 0.40710598E+00 0.30000000E+03</pdfrwt>
<pdfrwt beam="2">0</pdfrwt>
<totfact> 0.95818432E-01</totfact>
</mgrwt>
</event>
<event>
 6    1  0.5260809E-006  0.3000000E+03  0.7818608E-02  0.1093470E+00
          1   -1    0    0  502    0  0.00000000000E+00  0.00000000000E+00  0.12406566372E+03  0.12406566372E+03  0.00000000000E+00 0.  1.
         13   -1    0    0    0    0 -0.00000000000E+00 -0.00000000000E+00 -0.10000000000E+04  0.10000000000E+04  0.00000000000E+00 0.  1.
    9000005    2    1    2  501    0  0.88780384689E+01  0.19101298920E+02 -0.88730379784E+03  0.11001294183E+04  0.65002540581E+03 0.  0.
         13    1    3    3    0    0  0.10830367735E+03  0.10904295289E+03 -0.94264099305E+03  0.95508747970E+03  0.00000000000E+00 0.  1.
          1    1    3    3  501    0 -0.99425638877E+02 -0.89941653969E+02  0.55337195209E+02  0.14504193862E+03  0.00000000000E+00 0.  1.
         21    1    1    2  502  501 -0.88780384689E+01 -0.19101298920E+02  0.11369461567E+02  0.23936245400E+02  0.00000000000E+00 0. -1.
<mgrwt>
<rscale>  1 0.30000000E+03</rscale>
<asrwt>0</asrwt>
<pdfrwt beam="1">  1        1 0.45114882E+00 0.30000000E+03</pdfrwt>
<pdfrwt beam="2">0</pdfrwt>
<totfact> 0.50548888E-01</totfact>
</mgrwt>
</event>
<event>
 6    1  0.5260809E-006  0.3000000E+03  0.7818608E-02  0.1093470E+00
          1   -1    0    0  502    0  0.00000000000E+00  0.00000000000E+00  0.10830034426E+03  0.10830034426E+03  0.00000000000E+00 0.  1.
         13   -1    0    0    0    0 -0.00000000000E+00 -0.00000000000E+00 -0.10000000000E+04  0.10000000000E+04  0.00000000000E+00 0.  1.
    9000005    2    1    2  501    0  0.12407933795E+02 -0.26198324088E+02 -0.87582927569E+03  0.10752522283E+04  0.62309720373E+03 0.  0.
         13    1    3    3    0    0  0.11215905838E+02 -0.28117948033E+03 -0.17968103604E+03  0.33387568258E+03  0.00000000000E+00 0.  1.
          3    1    3    3  501    0  0.11920279563E+01  0.25498115625E+03 -0.69614823965E+03  0.74137654572E+03  0.00000000000E+00 0.  1.
         21    1    1    2  502  501 -0.12407933795E+02  0.26198324088E+02 -0.15870380047E+02  0.33048115966E+02  0.00000000000E+00 0.  1.
<mgrwt>
<rscale>  1 0.30000000E+03</rscale>
<asrwt>0</asrwt>
<pdfrwt beam="1">  1        1 0.39382026E+00 0.30000000E+03</pdfrwt>
<pdfrwt beam="2">0</pdfrwt>
<totfact> 0.11414534E+00</totfact>
</mgrwt>
</event>
<event>
 6    1  0.5260809E-006  0.3000000E+03  0.7818608E-02  0.1093470E+00
          1   -1    0    0  502    0  0.00000000000E+00  0.00000000000E+00  0.13401399736E+03  0.13401399736E+03  0.00000000000E+00 0.  1.
         13   -1    0    0    0    0 -0.00000000000E+00 -0.00000000000E+00 -0.10000000000E+04  0.10000000000E+04  0.00000000000E+00 0.  1.
    9000005    2    1    2  501    0  0.15560663753E+02 -0.48407402508E+01 -0.88784433595E+03  0.11067494827E+04  0.66057647977E+03 0.  0.
         13    1    3    3    0    0 -0.51629415302E+02 -0.21555518689E+03 -0.85486945114E+03  0.88313725638E+03  0.00000000000E+00 0.  1.
          3    1    3    3  501    0  0.67190079056E+02  0.21071444664E+03 -0.32974884818E+02  0.22361222635E+03  0.00000000000E+00 0.  1.
         21    1    1    2  502  501 -0.15560663753E+02  0.48407402508E+01  0.21858333311E+02  0.27264514625E+02  0.00000000000E+00 0.  1.
<mgrwt>
<rscale>  1 0.30000000E+03</rscale>
<asrwt>0</asrwt>
<pdfrwt beam="1">  1        1 0.48732465E+00 0.30000000E+03</pdfrwt>
<pdfrwt beam="2">0</pdfrwt>
<totfact> 0.28274905E-01</totfact>
</mgrwt>
</event>
<event>
 6    1  0.5260809E-006  0.3000000E+03  0.7818608E-02  0.1093470E+00
          1   -1    0    0  502    0  0.00000000000E+00  0.00000000000E+00  0.12251037732E+03  0.12251037732E+03  0.00000000000E+00 0.  1.
         13   -1    0    0    0    0 -0.00000000000E+00 -0.00000000000E+00 -0.10000000000E+04  0.10000000000E+04  0.00000000000E+00 0.  1.
    9000005    2    1    2  501    0  0.47783927761E+00 -0.17456805316E+02 -0.88924078586E+03  0.11014614292E+04  0.64974082242E+03 0.  0.
         13    1    3    3    0    0  0.15590618189E+03  0.17784119351E+03 -0.72400859885E+02  0.24733805242E+03  0.00000000000E+00 0.  1.
          1    1    3    3  501    0 -0.15542834261E+03 -0.19529799883E+03 -0.81683992598E+03  0.85412337675E+03  0.00000000000E+00 0.  1.
         21    1    1    2  502  501 -0.47783927761E+00  0.17456805316E+02  0.11751163183E+02  0.21048948154E+02  0.00000000000E+00 0.  1.
<mgrwt>
<rscale>  1 0.30000000E+03</rscale>
<asrwt>0</asrwt>
<pdfrwt beam="1">  1        1 0.44549322E+00 0.30000000E+03</pdfrwt>
<pdfrwt beam="2">0</pdfrwt>
<totfact> 0.55154254E-01</totfact>
</mgrwt>
</event>
<event>
 6    1  0.5260809E-006  0.3000000E+03  0.7818608E-02  0.1093470E+00
          1   -1    0    0  502    0  0.00000000000E+00  0.00000000000E+00  0.12578893320E+03  0.12578893320E+03  0.00000000000E+00 0.  1.
         13   -1    0    0    0    0 -0.00000000000E+00 -0.00000000000E+00 -0.10000000000E+04  0.10000000000E+04  0.00000000000E+00 0.  1.
    9000005    2    1    2  501    0 -0.23893598207E+02 -0.28763141643E+02 -0.83781416922E+03  0.10736069774E+04  0.67029928952E+03 0.  0.
         13    1    3    3    0    0 -0.76625691171E+02 -0.27876203791E+03 -0.12241359448E+03  0.31395040761E+03  0.00000000000E+00 0.  1.
          3    1    3    3  501    0  0.52732092964E+02  0.24999889626E+03 -0.71540057473E+03  0.75965656983E+03  0.00000000000E+00 0.  1.
         21    1    1    2  502  501  0.23893598207E+02  0.28763141643E+02 -0.36396897584E+02  0.52181955753E+02  0.00000000000E+00 0. -1.
<mgrwt>
<rscale>  1 0.30000000E+03</rscale>
<asrwt>0</asrwt>
<pdfrwt beam="1">  1        1 0.45741527E+00 0.30000000E+03</pdfrwt>
<pdfrwt beam="2">0</pdfrwt>
<totfact> 0.45875769E-01</totfact>
</mgrwt>
</event>
<event>
 6    1  0.5260809E-006  0.3000000E+03  0.7818608E-02  0.1093470E+00
          1   -1    0    0  502    0  0.00000000000E+00  0.00000000000E+00  0.20754211666E+03  0.20754211666E+03  0.00000000000E+00 0.  1.
         13   -1    0    0    0    0 -0.00000000000E+00 -0.00000000000E+00 -0.10000000000E+04  0.10000000000E+04  0.00000000000E+00 0.  1.
    9000005    2    1    2  501    0  0.15548475655E+02  0.30774213568E+02 -0.88722588671E+03  0.11066967807E+04  0.66062030177E+03 0.  0.
         13    1    3    3    0    0 -0.14945286841E+03 -0.24652193874E+03 -0.21043449743E+03  0.35692002447E+03  0.00000000000E+00 0.  1.
          1    1    3    3  501    0  0.16500134406E+03  0.27729615231E+03 -0.67679138928E+03  0.74977675626E+03  0.00000000000E+00 0.  1.
         21    1    1    2  502  501 -0.15548475655E+02 -0.30774213568E+02  0.94768003366E+02  0.10084533593E+03  0.00000000000E+00 0.  1.
<mgrwt>
<rscale>  1 0.30000000E+03</rscale>
<asrwt>0</asrwt>
<pdfrwt beam="1">  1        1 0.75470020E+00 0.30000000E+03</pdfrwt>
<pdfrwt beam="2">0</pdfrwt>
<totfact> 0.14132956E-02</totfact>
</mgrwt>
</event>
<event>
 6    1  0.5260809E-006  0.3000000E+03  0.7818608E-02  0.1093470E+00
          1   -1    0    0  502    0  0.00000000000E+00  0.00000000000E+00  0.12756913792E+03  0.12756913792E+03  0.00000000000E+00 0.  1.
         13   -1    0    0    0    0 -0.00000000000E+00 -0.00000000000E+00 -0.10000000000E+04  0.10000000000E+04  0.00000000000E+00 0.  1.
    9000005    2    1    2  501    0 -0.37193548994E+02 -0.86134722108E+01 -0.86877998871E+03  0.10892170732E+04  0.65586401931E+03 0.  0.
         13    1    3    3    0    0  0.56569782422E+02  0.30893060879E+03 -0.32057113993E+03  0.44878070044E+03  0.00000000000E+00 0.  1.
          3    1    3    3  501    0 -0.93763331416E+02 -0.31754408100E+03 -0.54820884878E+03  0.64043637278E+03  0.00000000000E+00 0.  1.
         21    1    1    2  502  501  0.37193548994E+02  0.86134722108E+01 -0.36508733683E+01  0.38352064699E+02  0.00000000000E+00 0.  1.
<mgrwt>
<rscale>  1 0.30000000E+03</rscale>
<asrwt>0</asrwt>
<pdfrwt beam="1">  1        1 0.46388875E+00 0.30000000E+03</pdfrwt>
<pdfrwt beam="2">0</pdfrwt>
<totfact> 0.41461786E-01</totfact>
</mgrwt>
</event>
<event>
 6    1  0.5260809E-006  0.3000000E+03  0.7818608E-02  0.1093470E+00
          1   -1    0    0  502    0  0.00000000000E+00  0.00000000000E+00  0.11277091216E+03  0.11277091216E+03  0.00000000000E+00 0.  1.
         13   -1    0    0    0    0 -0.00000000000E+00 -0.00000000000E+00 -0.10000000000E+04  0.10000000000E+04  0.00000000000E+00 0.  1.
    9000005    2    1    2  501    0 -0.68564935461E+00  0.95899711536E+01 -0.88159823693E+03  0.11016289131E+04  0.66051371909E+03 0.  0.
         13    1    3    3    0    0  0.11503744866E+03  0.21678364604E+02  0.74316087363E+02  0.13865946389E+03  0.00000000000E+00 0.  1.
          1    1    3    3  501    0 -0.11572309801E+03 -0.12088393450E+02 -0.95591432429E+03  0.96296944918E+03  0.00000000000E+00 0.  1.
         21    1    1    2  502  501  0.68564935461E+00 -0.95899711536E+01 -0.56308509070E+01  0.11141999089E+02  0.00000000000E+00 0. -1.
<mgrwt>
<rscale>  1 0.30000000E+03</rscale>
<asrwt>0</asrwt>
<pdfrwt beam="1">  1        1 0.41007691E+00 0.30000000E+03</pdfrwt>
<pdfrwt beam="2">0</pdfrwt>
<totfact> 0.92038655E-01</totfact>
</mgrwt>
</event>
<event>
 6    1  0.5260809E-006  0.3000000E+03  0.7818608E-02  0.1093470E+00
          1   -1    0    0  502    0  0.00000000000E+00  0.00000000000E+00  0.16493828033E+03  0.16493828033E+03  0.00000000000E+00 0.  1.
         13   -1    0    0    0    0 -0.00000000000E+00 -0.00000000000E+00 -0.10000000000E+04  0.10000000000E+04  0.00000000000E+00 0.  1.
    9000005    2    1    2  501    0 -0.15062890964E+02 -0.21018739923E+02 -0.84933543337E+03  0.11354015741E+04  0.75305868164E+03 0.  0.
         13    1    3    3    0    0 -0.15753615052E+03  0.13073621827E+03 -0.89849421783E+03  0.92152127320E+03  0.00000000000E+00 0.  1.
          3    1    3    3  501    0  0.14247325955E+03 -0.15175495819E+03  0.49158784468E+02  0.21388030090E+03  0.00000000000E+00 0.  1.
         21    1    1    2  502  501  0.15062890964E+02  0.21018739923E+02  0.14273713697E+02  0.29536706229E+02  0.00000000000E+00 0.  1.
<mgrwt>
<rscale>  1 0.30000000E+03</rscale>
<asrwt>0</asrwt>
<pdfrwt beam="1">  1        1 0.59977683E+00 0.30000000E+03</pdfrwt>
<pdfrwt beam="2">0</pdfrwt>
<totfact> 0.58670811E-02</totfact>
</mgrwt>
</event>
<event>
 6    1  0.5260809E-006  0.3000000E+03  0.7818608E-02  0.1093470E+00
          1   -1    0    0  502    0  0.00000000000E+00  0.00000000000E+00  0.11555974268E+03  0.11555974268E+03  0.00000000000E+00 0.  1.
         13   -1    0    0    0    0 -0.00000000000E+00 -0.00000000000E+00 -0.10000000000E+04  0.10000000000E+04  0.00000000000E+00 0.  1.
    9000005    2    1    2  501    0 -0.63374357717E+01 -0.32512404514E+02 -0.87391968808E+03  0.10808048593E+04  0.63506401505E+03 0.  0.
         13    1    3    3    0    0 -0.14048951479E+02  0.23492811763E+03 -0.74979398718E+03  0.78586233954E+03  0.00000000000E+00 0.  1.
          3    1    3    3  501    0  0.77115157075E+01 -0.26744052214E+03 -0.12412570089E+03  0.29494251979E+03  0.00000000000E+00 0.  1.
         21    1    1    2  502  501  0.63374357717E+01  0.32512404514E+02 -0.10520569244E+02  0.34754883350E+02  0.00000000000E+00 0.  1.
<mgrwt>
<rscale>  1 0.30000000E+03</rscale>
<asrwt>0</asrwt>
<pdfrwt beam="1">  1        1 0.42021813E+00 0.30000000E+03</pdfrwt>
<pdfrwt beam="2">0</pdfrwt>
<totfact> 0.79955239E-01</totfact>
</mgrwt>
</event>
<event>
 6    1  0.5260809E-006  0.3000000E+03  0.7818608E-02  0.1093470E+00
          1   -1    0    0  502    0  0.00000000000E+00  0.00000000000E+00  0.13828053143E+03  0.13828053143E+03  0.00000000000E+00 0.  1.
         13   -1    0    0    0    0 -0.00000000000E+00 -0.00000000000E+00 -0.10000000000E+04  0.10000000000E+04  0.00000000000E+00 0.  1.
    9000005    2    1    2  501    0  0.11970708889E+02  0.20756672263E+02 -0.88893224178E+03  0.11020221208E+04  0.65090558990E+03 0.  0.
         13    1    3    3    0    0  0.31965599179E+03  0.11522389973E+01 -0.30565216590E+03  0.44227200597E+03  0.00000000000E+00 0.  1.
          1    1    3    3  501    0 -0.30768528290E+03  0.19604433266E+02 -0.58328007588E+03  0.65975011485E+03  0.00000000000E+00 0.  1.
         21    1    1    2  502  501 -0.11970708889E+02 -0.20756672263E+02  0.27212773211E+02  0.36258410619E+02  0.00000000000E+00 0.  1.
<mgrwt>
<rscale>  1 0.30000000E+03</rscale>
<asrwt>0</asrwt>
<pdfrwt beam="1">  1        1 0.50283936E+00 0.30000000E+03</pdfrwt>
<pdfrwt beam="2">0</pdfrwt>
<totfact> 0.21766799E-01</totfact>
</mgrwt>
</event>
<event>
 6    1  0.5260809E-006  0.3000000E+03  0.7818608E-02  0.1093470E+00
          1   -1    0    0  502    0  0.00000000000E+00  0.00000000000E+00  0.13287076610E+03  0.13287076610E+03  0.00000000000E+00 0.  1.
         13   -1    0    0    0    0 -0.00000000000E+00 -0.00000000000E+00 -0.10000000000E+04  0.10000000000E+04  0.00000000000E+00 0.  1.
    9000005    2    1    2  501    0 -0.20128190968E+02  0.45089912582E+01 -0.89032066625E+03  0.11018334078E+04  0.64879927158E+03 0.  0.
         13    1    3    3    0    0 -0.12683922644E+03  0.23626088239E+03 -0.77827274776E+03  0.82317426090E+03  0.00000000000E+00 0.  1.
          3    1    3    3  501    0  0.10671103547E+03 -0.23175189113E+03 -0.11204791849E+03  0.27865914693E+03  0.00000000000E+00 0.  1.
         21    1    1    2  502  501  0.20128190968E+02 -0.45089912582E+01  0.23191432347E+02  0.31037358266E+02  0.00000000000E+00 0.  1.
<mgrwt>
<rscale>  1 0.30000000E+03</rscale>
<asrwt>0</asrwt>
<pdfrwt beam="1">  1        1 0.48316744E+00 0.30000000E+03</pdfrwt>
<pdfrwt beam="2">0</pdfrwt>
<totfact> 0.30306064E-01</totfact>
</mgrwt>
</event>
<event>
 6    1  0.5260809E-006  0.3000000E+03  0.7818608E-02  0.1093470E+00
          1   -1    0    0  502    0  0.00000000000E+00  0.00000000000E+00  0.11251852113E+03  0.11251852113E+03  0.00000000000E+00 0.  1.
         13   -1    0    0    0    0 -0.00000000000E+00 -0.00000000000E+00 -0.10000000000E+04  0.10000000000E+04  0.00000000000E+00 0.  1.
    9000005    2    1    2  501    0  0.14441109702E+00 -0.12080079530E+02 -0.87864781184E+03  0.10975524646E+04  0.65761195703E+03 0.  0.
         13    1    3    3    0    0  0.23021646033E+03  0.33228247161E+02 -0.82478313993E+03  0.85695446958E+03  0.00000000000E+00 0.  1.
          3    1    3    3  501    0 -0.23007204924E+03 -0.45308326690E+02 -0.53864671910E+02  0.24059799498E+03  0.00000000000E+00 0.  1.
         21    1    1    2  502  501 -0.14441109702E+00  0.12080079530E+02 -0.88336670348E+01  0.14966056571E+02  0.00000000000E+00 0.  1.
<mgrwt>
<rscale>  1 0.30000000E+03</rscale>
<asrwt>0</asrwt>
<pdfrwt beam="1">  1        1 0.40915912E+00 0.30000000E+03</pdfrwt>
<pdfrwt beam="2">0</pdfrwt>
<totfact> 0.93194311E-01</totfact>
</mgrwt>
</event>
<event>
 6    1  0.5260809E-006  0.3000000E+03  0.7818608E-02  0.1093470E+00
          1   -1    0    0  502    0  0.00000000000E+00  0.00000000000E+00  0.14565910087E+03  0.14565910087E+03  0.00000000000E+00 0.  1.
         13   -1    0    0    0    0 -0.00000000000E+00 -0.00000000000E+00 -0.10000000000E+04  0.10000000000E+04  0.00000000000E+00 0.  1.
    9000005    2    1    2  501    0  0.30203490633E+02 -0.26550067212E+02 -0.87911592407E+03  0.10984260745E+04  0.65732630890E+03 0.  0.
         13    1    3    3    0    0 -0.28490371487E+02  0.23791896106E+03 -0.76991457574E+03  0.80634086294E+03  0.00000000000E+00 0.  1.
          3    1    3    3  501    0  0.58693862121E+02 -0.26446902827E+03 -0.10920134832E+03  0.29208521161E+03  0.00000000000E+00 0.  1.
         21    1    1    2  502  501 -0.30203490633E+02  0.26550067212E+02  0.24775024934E+02  0.47233026326E+02  0.00000000000E+00 0.  1.
<mgrwt>
<rscale>  1 0.30000000E+03</rscale>
<asrwt>0</asrwt>
<pdfrwt beam="1">  1        1 0.52967057E+00 0.30000000E+03</pdfrwt>
<pdfrwt beam="2">0</pdfrwt>
<totfact> 0.13734776E-01</totfact>
</mgrwt>
</event>
<event>
 6    1  0.5260809E-006  0.3000000E+03  0.7818608E-02  0.1093470E+00
          1   -1    0    0  502    0  0.00000000000E+00  0.00000000000E+00  0.11418771453E+03  0.11418771453E+03  0.00000000000E+00 0.  1.
         13   -1    0    0    0    0 -0.00000000000E+00 -0.00000000000E+00 -0.10000000000E+04  0.10000000000E+04  0.00000000000E+00 0.  1.
    9000005    2    1    2  501    0 -0.22567976580E+02 -0.74478996111E+01 -0.87499417276E+03  0.10880761014E+04  0.64632036592E+03 0.  0.
         13    1    3    3    0    0 -0.10554958056E+03  0.53709208455E+02  0.69937869102E+02  0.13753798953E+03  0.00000000000E+00 0.  1.
          1    1    3    3  501    0  0.82981603983E+02 -0.61157108066E+02 -0.94493204186E+03  0.95053811191E+03  0.00000000000E+00 0.  1.
         21    1    1    2  502  501  0.22567976580E+02  0.74478996111E+01 -0.10818112707E+02  0.26111613088E+02  0.00000000000E+00 0. -1.
<mgrwt>
<rscale>  1 0.30000000E+03</rscale>
<asrwt>0</asrwt>
<pdfrwt beam="1">  1        1 0.41522893E+00 0.30000000E+03</pdfrwt>
<pdfrwt beam="2">0</pdfrwt>
<totfact> 0.85747433E-01</totfact>
</mgrwt>
</event>
<event>
 6    1  0.5260809E-006  0.3000000E+03  0.7818608E-02  0.1093470E+00
          1   -1    0    0  502    0  0.00000000000E+00  0.00000000000E+00  0.60097964689E+02  0.60097964689E+02  0.00000000000E+00 0.  1.
         13   -1    0    0    0    0 -0.00000000000E+00 -0.00000000000E+00 -0.10000000000E+04  0.10000000000E+04  0.00000000000E+00 0.  1.
    9000005    2    1    2  501    0  0.18699117079E+02  0.16028592399E+02 -0.92112253386E+03  0.10291263256E+04  0.45828779045E+03 0.  0.
         13    1    3    3    0    0  0.23237928017E+03 -0.30963709262E+02 -0.39506021164E+03  0.45938159733E+03  0.00000000000E+00 0.  1.
          1    1    3    3  501    0 -0.21368016310E+03  0.46992301662E+02 -0.52606232222E+03  0.56974472826E+03  0.00000000000E+00 0.  1.
         21    1    1    2  502  501 -0.18699117079E+02 -0.16028592399E+02 -0.18779501449E+02  0.30971639100E+02  0.00000000000E+00 0. -1.
<mgrwt>
<rscale>  1 0.30000000E+03</rscale>
<asrwt>0</asrwt>
<pdfrwt beam="1">  1        1 0.21853851E+00 0.30000000E+03</pdfrwt>
<pdfrwt beam="2">0</pdfrwt>
<totfact> 0.83743945E+00</totfact>
</mgrwt>
</event>
<event>
 6    1  0.5260809E-006  0.3000000E+03  0.7818608E-02  0.1093470E+00
          1   -1    0    0  502    0  0.00000000000E+00  0.00000000000E+00  0.13276833074E+03  0.13276833074E+03  0.00000000000E+00 0.  1.
         13   -1    0    0    0    0 -0.00000000000E+00 -0.00000000000E+00 -0.10000000000E+04  0.10000000000E+04  0.00000000000E+00 0.  1.
    9000005    2    1    2  501    0  0.21385748928E+01  0.14178216330E+02 -0.89042378554E+03  0.11055016922E+04  0.65503731056E+03 0.  0.
         13    1    3    3    0    0  0.20676326786E+03 -0.19985046950E+03 -0.18892731818E+03  0.34407090934E+03  0.00000000000E+00 0.  1.
          3    1    3    3  501    0 -0.20462469297E+03  0.21402868583E+03 -0.70149646737E+03  0.76143078284E+03  0.00000000000E+00 0.  1.
         21    1    1    2  502  501 -0.21385748928E+01 -0.14178216330E+02  0.23192116285E+02  0.27266638565E+02  0.00000000000E+00 0.  1.
<mgrwt>
<rscale>  1 0.30000000E+03</rscale>
<asrwt>0</asrwt>
<pdfrwt beam="1">  1        1 0.48279495E+00 0.30000000E+03</pdfrwt>
<pdfrwt beam="2">0</pdfrwt>
<totfact> 0.30494291E-01</totfact>
</mgrwt>
</event>
<event>
 6    1  0.5260809E-006  0.3000000E+03  0.7818608E-02  0.1093470E+00
          1   -1    0    0  502    0  0.00000000000E+00  0.00000000000E+00  0.11084490987E+03  0.11084490987E+03  0.00000000000E+00 0.  1.
         13   -1    0    0    0    0 -0.00000000000E+00 -0.00000000000E+00 -0.10000000000E+04  0.10000000000E+04  0.00000000000E+00 0.  1.
    9000005    2    1    2  501    0 -0.10574621025E+02  0.56597631500E+01 -0.87494863348E+03  0.10922524668E+04  0.65370978613E+03 0.  0.
         13    1    3    3    0    0 -0.52365670388E+01  0.29263089313E+03 -0.18827123393E+03  0.34800333156E+03  0.00000000000E+00 0.  1.
          1    1    3    3  501    0 -0.53380539859E+01 -0.28697112998E+03 -0.68667739954E+03  0.74424913524E+03  0.00000000000E+00 0.  1.
         21    1    1    2  502  501  0.10574621025E+02 -0.56597631500E+01 -0.14206456650E+02  0.18592443069E+02  0.00000000000E+00 0. -1.
<mgrwt>
<rscale>  1 0.30000000E+03</rscale>
<asrwt>0</asrwt>
<pdfrwt beam="1">  1        1 0.40307325E+00 0.30000000E+03</pdfrwt>
<pdfrwt beam="2">0</pdfrwt>
<totfact> 0.10113061E+00</totfact>
</mgrwt>
</event>
<event>
 6    1  0.5260809E-006  0.3000000E+03  0.7818608E-02  0.1093470E+00
          1   -1    0    0  502    0  0.00000000000E+00  0.00000000000E+00  0.13102179757E+03  0.13102179757E+03  0.00000000000E+00 0.  1.
         13   -1    0    0    0    0 -0.00000000000E+00 -0.00000000000E+00 -0.10000000000E+04  0.10000000000E+04  0.00000000000E+00 0.  1.
    9000005    2    1    2  501    0 -0.10834460299E+02  0.16847057353E+01 -0.89941530255E+03  0.10986699688E+04  0.63087842730E+03 0.  0.
         13    1    3    3    0    0  0.80586121506E+01 -0.15879699387E+03 -0.92191071522E+03  0.93552166909E+03  0.00000000000E+00 0.  1.
          3    1    3    3  501    0 -0.18893072450E+02  0.16048169961E+03  0.22495412665E+02  0.16314829968E+03  0.00000000000E+00 0.  1.
         21    1    1    2  502  501  0.10834460299E+02 -0.16847057353E+01  0.30437100125E+02  0.32351828811E+02  0.00000000000E+00 0.  1.
<mgrwt>
<rscale>  1 0.30000000E+03</rscale>
<asrwt>0</asrwt>
<pdfrwt beam="1">  1        1 0.47644390E+00 0.30000000E+03</pdfrwt>
<pdfrwt beam="2">0</pdfrwt>
<totfact> 0.33863698E-01</totfact>
</mgrwt>
</event>
<event>
 6    1  0.5260809E-006  0.3000000E+03  0.7818608E-02  0.1093470E+00
          1   -1    0    0  502    0  0.00000000000E+00  0.00000000000E+00  0.93345046394E+02  0.93345046394E+02  0.00000000000E+00 0.  1.
         13   -1    0    0    0    0 -0.00000000000E+00 -0.00000000000E+00 -0.10000000000E+04  0.10000000000E+04  0.00000000000E+00 0.  1.
    9000005    2    1    2  501    0 -0.13798389732E+02 -0.13963383371E+02 -0.88466748365E+03  0.10638692857E+04  0.59058947566E+03 0.  0.
         13    1    3    3    0    0 -0.21458114237E+03  0.10342753750E+03 -0.12422168688E+03  0.26865098114E+03  0.00000000000E+00 0.  1.
          3    1    3    3  501    0  0.20078275264E+03 -0.11739092087E+03 -0.76044579677E+03  0.79521830454E+03  0.00000000000E+00 0.  1.
         21    1    1    2  502  501  0.13798389732E+02  0.13963383371E+02 -0.21987469959E+02  0.29475760712E+02  0.00000000000E+00 0.  1.
<mgrwt>
<rscale>  1 0.30000000E+03</rscale>
<asrwt>0</asrwt>
<pdfrwt beam="1">  1        1 0.33943725E+00 0.30000000E+03</pdfrwt>
<pdfrwt beam="2">0</pdfrwt>
<totfact> 0.22288212E+00</totfact>
</mgrwt>
</event>
<event>
 6    1  0.5260809E-006  0.3000000E+03  0.7818608E-02  0.1093470E+00
          1   -1    0    0  502    0  0.00000000000E+00  0.00000000000E+00  0.12244390433E+03  0.12244390433E+03  0.00000000000E+00 0.  1.
         13   -1    0    0    0    0 -0.00000000000E+00 -0.00000000000E+00 -0.10000000000E+04  0.10000000000E+04  0.00000000000E+00 0.  1.
    9000005    2    1    2  501    0  0.33897094031E+02  0.32300326041E+01 -0.85771329450E+03  0.10830334634E+04  0.66040134860E+03 0.  0.
         13    1    3    3    0    0 -0.10114844190E+03 -0.44512388781E+02  0.78738061795E+02  0.13569098138E+03  0.00000000000E+00 0.  1.
          3    1    3    3  501    0  0.13504553593E+03  0.47742421385E+02 -0.93645135629E+03  0.94734248204E+03  0.00000000000E+00 0.  1.
         21    1    1    2  502  501 -0.33897094031E+02 -0.32300326041E+01 -0.19842801173E+02  0.39410440911E+02  0.00000000000E+00 0. -1.
<mgrwt>
<rscale>  1 0.30000000E+03</rscale>
<asrwt>0</asrwt>
<pdfrwt beam="1">  1        1 0.44525150E+00 0.30000000E+03</pdfrwt>
<pdfrwt beam="2">0</pdfrwt>
<totfact> 0.55358803E-01</totfact>
</mgrwt>
</event>
<event>
 6    1  0.5260809E-006  0.3000000E+03  0.7818608E-02  0.1093470E+00
          1   -1    0    0  502    0  0.00000000000E+00  0.00000000000E+00  0.11855916529E+03  0.11855916529E+03  0.00000000000E+00 0.  1.
         13   -1    0    0    0    0 -0.00000000000E+00 -0.00000000000E+00 -0.10000000000E+04  0.10000000000E+04  0.00000000000E+00 0.  1.
    9000005    2    1    2  501    0  0.22285614643E+01 -0.23715582889E+02 -0.87463888334E+03  0.10937869651E+04  0.65636068855E+03 0.  0.
         13    1    3    3    0    0  0.31268912173E+03  0.15277659806E+01 -0.26788718921E+03  0.41175279849E+03  0.00000000000E+00 0.  1.
          3    1    3    3  501    0 -0.31046056026E+03 -0.25243348870E+02 -0.60675169413E+03  0.68203416665E+03  0.00000000000E+00 0.  1.
         21    1    1    2  502  501 -0.22285614643E+01  0.23715582889E+02 -0.68019513721E+01  0.24772200154E+02  0.00000000000E+00 0.  1.
<mgrwt>
<rscale>  1 0.30000000E+03</rscale>
<asrwt>0</asrwt>
<pdfrwt beam="1">  1        1 0.43112515E+00 0.30000000E+03</pdfrwt>
<pdfrwt beam="2">0</pdfrwt>
<totfact> 0.68337279E-01</totfact>
</mgrwt>
</event>
<event>
 6    1  0.5260809E-006  0.3000000E+03  0.7818608E-02  0.1093470E+00
          1   -1    0    0  502    0  0.00000000000E+00  0.00000000000E+00  0.11636096876E+03  0.11636096876E+03  0.00000000000E+00 0.  1.
         13   -1    0    0    0    0 -0.00000000000E+00 -0.00000000000E+00 -0.10000000000E+04  0.10000000000E+04  0.00000000000E+00 0.  1.
    9000005    2    1    2  501    0 -0.13473369565E+02 -0.29007382409E+01 -0.87663550531E+03  0.11009014945E+04  0.66581104331E+03 0.  0.
         13    1    3    3    0    0  0.27560377778E+02  0.29526343365E+03 -0.67874357327E+03  0.74069758196E+03  0.00000000000E+00 0.  1.
          3    1    3    3  501    0 -0.41033747343E+02 -0.29816417189E+03 -0.19789193204E+03  0.36020391251E+03  0.00000000000E+00 0.  1.
         21    1    1    2  502  501  0.13473369565E+02  0.29007382409E+01 -0.70035259318E+01  0.15459474288E+02  0.00000000000E+00 0.  1.
<mgrwt>
<rscale>  1 0.30000000E+03</rscale>
<asrwt>0</asrwt>
<pdfrwt beam="1">  1        1 0.42313169E+00 0.30000000E+03</pdfrwt>
<pdfrwt beam="2">0</pdfrwt>
<totfact> 0.76704455E-01</totfact>
</mgrwt>
</event>
<event>
 6    1  0.5260809E-006  0.3000000E+03  0.7818608E-02  0.1093470E+00
          1   -1    0    0  502    0  0.00000000000E+00  0.00000000000E+00  0.10605044202E+03  0.10605044202E+03  0.00000000000E+00 0.  1.
         13   -1    0    0    0    0 -0.00000000000E+00 -0.00000000000E+00 -0.10000000000E+04  0.10000000000E+04  0.00000000000E+00 0.  1.
    9000005    2    1    2  501    0  0.11068526801E+02 -0.16047157115E+01 -0.87568433936E+03  0.10846330283E+04  0.63990675612E+03 0.  0.
         13    1    3    3    0    0  0.29331274446E+03  0.11948384496E+03 -0.56534760544E+03  0.64801749224E+03  0.00000000000E+00 0.  1.
          1    1    3    3  501    0 -0.28224421766E+03 -0.12108856067E+03 -0.31033673392E+03  0.43661553608E+03  0.00000000000E+00 0.  1.
         21    1    1    2  502  501 -0.11068526801E+02  0.16047157115E+01 -0.18265218622E+02  0.21417413695E+02  0.00000000000E+00 0. -1.
<mgrwt>
<rscale>  1 0.30000000E+03</rscale>
<asrwt>0</asrwt>
<pdfrwt beam="1">  1        1 0.38563878E+00 0.30000000E+03</pdfrwt>
<pdfrwt beam="2">0</pdfrwt>
<totfact> 0.12682164E+00</totfact>
</mgrwt>
</event>
<event>
 6    1  0.5260809E-006  0.3000000E+03  0.7818608E-02  0.1093470E+00
          1   -1    0    0  502    0  0.00000000000E+00  0.00000000000E+00  0.11711212921E+03  0.11711212921E+03  0.00000000000E+00 0.  1.
         13   -1    0    0    0    0 -0.00000000000E+00 -0.00000000000E+00 -0.10000000000E+04  0.10000000000E+04  0.00000000000E+00 0.  1.
    9000005    2    1    2  501    0  0.23745560938E+02 -0.30582472623E+01 -0.86742102351E+03  0.10886090082E+04  0.65732574590E+03 0.  0.
         13    1    3    3    0    0 -0.25188480489E+03  0.84054897514E+02 -0.71308091767E+03  0.76091758810E+03  0.00000000000E+00 0.  1.
          3    1    3    3  501    0  0.27563036583E+03 -0.87113144776E+02 -0.15434010584E+03  0.32769142013E+03  0.00000000000E+00 0.  1.
         21    1    1    2  502  501 -0.23745560938E+02  0.30582472623E+01 -0.15466847284E+02  0.28503120978E+02  0.00000000000E+00 0. -1.
<mgrwt>
<rscale>  1 0.30000000E+03</rscale>
<asrwt>0</asrwt>
<pdfrwt beam="1">  1        1 0.42586319E+00 0.30000000E+03</pdfrwt>
<pdfrwt beam="2">0</pdfrwt>
<totfact> 0.73752007E-01</totfact>
</mgrwt>
</event>
<event>
 6    1  0.5260809E-006  0.3000000E+03  0.7818608E-02  0.1093470E+00
          1   -1    0    0  502    0  0.00000000000E+00  0.00000000000E+00  0.16822413326E+03  0.16822413326E+03  0.00000000000E+00 0.  1.
         13   -1    0    0    0    0 -0.00000000000E+00 -0.00000000000E+00 -0.10000000000E+04  0.10000000000E+04  0.00000000000E+00 0.  1.
    9000005    2    1    2  501    0  0.10263651223E+02  0.54384285546E+01 -0.89381318793E+03  0.11051087765E+04  0.64979110019E+03 0.  0.
         13    1    3    3    0    0 -0.43796205790E+02  0.31616526580E+03 -0.33019993438E+03  0.45925001862E+03  0.00000000000E+00 0.  1.
          1    1    3    3  501    0  0.54059857013E+02 -0.31072683724E+03 -0.56361325355E+03  0.64585875786E+03  0.00000000000E+00 0.  1.
         21    1    1    2  502  501 -0.10263651223E+02 -0.54384285546E+01  0.62037321186E+02  0.63115356781E+02  0.00000000000E+00 0. -1.
<mgrwt>
<rscale>  1 0.30000000E+03</rscale>
<asrwt>0</asrwt>
<pdfrwt beam="1">  1        1 0.61172541E+00 0.30000000E+03</pdfrwt>
<pdfrwt beam="2">0</pdfrwt>
<totfact> 0.51654694E-02</totfact>
</mgrwt>
</event>
<event>
 6    1  0.5260809E-006  0.3000000E+03  0.7818608E-02  0.1093470E+00
          1   -1    0    0  502    0  0.00000000000E+00  0.00000000000E+00  0.10641484374E+03  0.10641484374E+03  0.00000000000E+00 0.  1.
         13   -1    0    0    0    0 -0.00000000000E+00 -0.00000000000E+00 -0.10000000000E+04  0.10000000000E+04  0.00000000000E+00 0.  1.
    9000005    2    1    2  501    0  0.11303894270E+02  0.60300192262E+00 -0.89333004190E+03  0.10950920031E+04  0.63329281524E+03 0.  0.
         13    1    3    3    0    0  0.54191581718E+02  0.25058291485E+03 -0.12352828899E+03  0.28458349025E+03  0.00000000000E+00 0.  1.
          1    1    3    3  501    0 -0.42887687448E+02 -0.24997991293E+03 -0.76980175291E+03  0.81050851284E+03  0.00000000000E+00 0.  1.
         21    1    1    2  502  501 -0.11303894270E+02 -0.60300192262E+00 -0.25511435567E+00  0.11322840648E+02  0.00000000000E+00 0.  1.
<mgrwt>
<rscale>  1 0.30000000E+03</rscale>
<asrwt>0</asrwt>
<pdfrwt beam="1">  1        1 0.38696388E+00 0.30000000E+03</pdfrwt>
<pdfrwt beam="2">0</pdfrwt>
<totfact> 0.12468969E+00</totfact>
</mgrwt>
</event>
<event>
 6    1  0.5260809E-006  0.3000000E+03  0.7818608E-02  0.1093470E+00
          1   -1    0    0  502    0  0.00000000000E+00  0.00000000000E+00  0.11188944380E+03  0.11188944380E+03  0.00000000000E+00 0.  1.
         13   -1    0    0    0    0 -0.00000000000E+00 -0.00000000000E+00 -0.10000000000E+04  0.10000000000E+04  0.00000000000E+00 0.  1.
    9000005    2    1    2  501    0  0.24475708142E+02 -0.22779393694E+01 -0.85213267374E+03  0.10683158586E+04  0.64386678038E+03 0.  0.
         13    1    3    3    0    0 -0.21362648187E+03  0.98029905490E+02 -0.75755521062E+03  0.79318095871E+03  0.00000000000E+00 0.  1.
          3    1    3    3  501    0  0.23810219001E+03 -0.10030784486E+03 -0.94577463118E+02  0.27513489993E+03  0.00000000000E+00 0.  1.
         21    1    1    2  502  501 -0.24475708142E+02  0.22779393694E+01 -0.35977882462E+02  0.43573585156E+02  0.00000000000E+00 0. -1.
<mgrwt>
<rscale>  1 0.30000000E+03</rscale>
<asrwt>0</asrwt>
<pdfrwt beam="1">  1        1 0.40687156E+00 0.30000000E+03</pdfrwt>
<pdfrwt beam="2">0</pdfrwt>
<totfact> 0.96121481E-01</totfact>
</mgrwt>
</event>
<event>
 6    1  0.5260809E-006  0.3000000E+03  0.7818608E-02  0.1093470E+00
          1   -1    0    0  502    0  0.00000000000E+00  0.00000000000E+00  0.12523714302E+03  0.12523714302E+03  0.00000000000E+00 0.  1.
         13   -1    0    0    0    0 -0.00000000000E+00 -0.00000000000E+00 -0.10000000000E+04  0.10000000000E+04  0.00000000000E+00 0.  1.
    9000005    2    1    2  501    0 -0.18624718453E+02 -0.19900727820E+02 -0.88343849268E+03  0.10966331964E+04  0.64915166031E+03 0.  0.
         13    1    3    3    0    0  0.36333054576E+02 -0.14501858805E+03 -0.93774109955E+03  0.94958351477E+03  0.00000000000E+00 0.  1.
          3    1    3    3  501    0 -0.54957773029E+02  0.12511786023E+03  0.54302606871E+02  0.14704968167E+03  0.00000000000E+00 0.  1.
         21    1    1    2  502  501  0.18624718453E+02  0.19900727820E+02  0.86756357008E+01  0.28603946581E+02  0.00000000000E+00 0. -1.
<mgrwt>
<rscale>  1 0.30000000E+03</rscale>
<asrwt>0</asrwt>
<pdfrwt beam="1">  1        1 0.45540875E+00 0.30000000E+03</pdfrwt>
<pdfrwt beam="2">0</pdfrwt>
<totfact> 0.47324105E-01</totfact>
</mgrwt>
</event>
<event>
 6    1  0.5260809E-006  0.3000000E+03  0.7818608E-02  0.1093470E+00
          1   -1    0    0  502    0  0.00000000000E+00  0.00000000000E+00  0.12409502982E+03  0.12409502982E+03  0.00000000000E+00 0.  1.
         13   -1    0    0    0    0 -0.00000000000E+00 -0.00000000000E+00 -0.10000000000E+04  0.10000000000E+04  0.00000000000E+00 0.  1.
    9000005    2    1    2  501    0 -0.17689597449E+02  0.40122835661E+01 -0.88839732433E+03  0.11020705164E+04  0.65190535896E+03 0.  0.
         13    1    3    3    0    0  0.16212948441E+03  0.27945629512E+03 -0.45128059821E+03  0.55500988181E+03  0.00000000000E+00 0.  1.
          1    1    3    3  501    0 -0.17981908185E+03 -0.27544401155E+03 -0.43711672613E+03  0.54706063463E+03  0.00000000000E+00 0.  1.
         21    1    1    2  502  501  0.17689597449E+02 -0.40122835661E+01  0.12492354149E+02  0.22024513377E+02  0.00000000000E+00 0.  1.
<mgrwt>
<rscale>  1 0.30000000E+03</rscale>
<asrwt>0</asrwt>
<pdfrwt beam="1">  1        1 0.45125561E+00 0.30000000E+03</pdfrwt>
<pdfrwt beam="2">0</pdfrwt>
<totfact> 0.50465419E-01</totfact>
</mgrwt>
</event>
<event>
 6    1  0.5260809E-006  0.3000000E+03  0.7818608E-02  0.1093470E+00
          1   -1    0    0  502    0  0.00000000000E+00  0.00000000000E+00  0.12589462669E+03  0.12589462669E+03  0.00000000000E+00 0.  1.
         13   -1    0    0    0    0 -0.00000000000E+00 -0.00000000000E+00 -0.10000000000E+04  0.10000000000E+04  0.00000000000E+00 0.  1.
    9000005    2    1    2  501    0 -0.12415160491E+02  0.37661419689E+02 -0.86672752382E+03  0.10855591410E+04  0.65241821657E+03 0.  0.
         13    1    3    3    0    0  0.31723893042E+03 -0.11698044130E+02 -0.47340185767E+03  0.56998833502E+03  0.00000000000E+00 0.  1.
          3    1    3    3  501    0 -0.32965409091E+03  0.49359463819E+02 -0.39332566615E+03  0.51557080598E+03  0.00000000000E+00 0.  1.
         21    1    1    2  502  501  0.12415160491E+02 -0.37661419689E+02 -0.73778494853E+01  0.40335485692E+02  0.00000000000E+00 0.  1.
<mgrwt>
<rscale>  1 0.30000000E+03</rscale>
<asrwt>0</asrwt>
<pdfrwt beam="1">  1        1 0.45779961E+00 0.30000000E+03</pdfrwt>
<pdfrwt beam="2">0</pdfrwt>
<totfact> 0.45603067E-01</totfact>
</mgrwt>
</event>
<event>
 6    1  0.5260809E-006  0.3000000E+03  0.7818608E-02  0.1093470E+00
          1   -1    0    0  502    0  0.00000000000E+00  0.00000000000E+00  0.11153425118E+03  0.11153425118E+03  0.00000000000E+00 0.  1.
         13   -1    0    0    0    0 -0.00000000000E+00 -0.00000000000E+00 -0.10000000000E+04  0.10000000000E+04  0.00000000000E+00 0.  1.
    9000005    2    1    2  501    0  0.95600493237E+01  0.64298877747E+01 -0.87596345783E+03  0.10945329195E+04  0.65616887639E+03 0.  0.
         13    1    3    3    0    0 -0.91994464743E+02  0.18516372688E+03 -0.86424099363E+03  0.88862876522E+03  0.00000000000E+00 0.  1.
          3    1    3    3  501    0  0.10155451407E+03 -0.17873383911E+03 -0.11722464197E+02  0.20590415425E+03  0.00000000000E+00 0.  1.
         21    1    1    2  502  501 -0.95600493237E+01 -0.64298877747E+01 -0.12502290995E+02  0.17001331712E+02  0.00000000000E+00 0.  1.
<mgrwt>
<rscale>  1 0.30000000E+03</rscale>
<asrwt>0</asrwt>
<pdfrwt beam="1">  1        1 0.40557995E+00 0.30000000E+03</pdfrwt>
<pdfrwt beam="2">0</pdfrwt>
<totfact> 0.97803958E-01</totfact>
</mgrwt>
</event>
<event>
 6    1  0.5260809E-006  0.3000000E+03  0.7818608E-02  0.1093470E+00
          1   -1    0    0  502    0  0.00000000000E+00  0.00000000000E+00  0.67774945544E+02  0.67774945544E+02  0.00000000000E+00 0.  1.
         13   -1    0    0    0    0 -0.00000000000E+00 -0.00000000000E+00 -0.10000000000E+04  0.10000000000E+04  0.00000000000E+00 0.  1.
    9000005    2    1    2  501    0  0.22322212838E+02  0.20023377761E+02 -0.91909222146E+03  0.10350382972E+04  0.47505215319E+03 0.  0.
         13    1    3    3    0    0  0.20040729234E+03  0.15415688126E+03 -0.50374138314E+03  0.56363357596E+03  0.00000000000E+00 0.  1.
          1    1    3    3  501    0 -0.17808507950E+03 -0.13413350350E+03 -0.41535083832E+03  0.47140472123E+03  0.00000000000E+00 0.  1.
         21    1    1    2  502  501 -0.22322212838E+02 -0.20023377761E+02 -0.13132832992E+02  0.32736648352E+02  0.00000000000E+00 0. -1.
<mgrwt>
<rscale>  1 0.30000000E+03</rscale>
<asrwt>0</asrwt>
<pdfrwt beam="1">  1        1 0.24645487E+00 0.30000000E+03</pdfrwt>
<pdfrwt beam="2">0</pdfrwt>
<totfact> 0.61974131E+00</totfact>
</mgrwt>
</event>
<event>
 6    1  0.5260809E-006  0.3000000E+03  0.7818608E-02  0.1093470E+00
          1   -1    0    0  502    0  0.00000000000E+00  0.00000000000E+00  0.11666548250E+03  0.11666548250E+03  0.00000000000E+00 0.  1.
         13   -1    0    0    0    0 -0.00000000000E+00 -0.00000000000E+00 -0.10000000000E+04  0.10000000000E+04  0.00000000000E+00 0.  1.
    9000005    2    1    2  501    0 -0.31695229100E+02  0.18453210895E+01 -0.86192756882E+03  0.10783738358E+04  0.64727351484E+03 0.  0.
         13    1    3    3    0    0  0.21538550208E+03 -0.97332024967E+02 -0.75533520480E+02  0.24813252569E+03  0.00000000000E+00 0.  1.
          3    1    3    3  501    0 -0.24708073118E+03  0.99177346056E+02 -0.78639404834E+03  0.83024131007E+03  0.00000000000E+00 0.  1.
         21    1    1    2  502  501  0.31695229100E+02 -0.18453210895E+01 -0.21406948688E+02  0.38291646736E+02  0.00000000000E+00 0.  1.
<mgrwt>
<rscale>  1 0.30000000E+03</rscale>
<asrwt>0</asrwt>
<pdfrwt beam="1">  1        1 0.42423901E+00 0.30000000E+03</pdfrwt>
<pdfrwt beam="2">0</pdfrwt>
<totfact> 0.75496151E-01</totfact>
</mgrwt>
</event>
<event>
 6    1  0.5260809E-006  0.3000000E+03  0.7818608E-02  0.1093470E+00
          1   -1    0    0  502    0  0.00000000000E+00  0.00000000000E+00  0.11652522140E+03  0.11652522140E+03  0.00000000000E+00 0.  1.
         13   -1    0    0    0    0 -0.00000000000E+00 -0.00000000000E+00 -0.10000000000E+04  0.10000000000E+04  0.00000000000E+00 0.  1.
    9000005    2    1    2  501    0  0.23618317587E+02 -0.64377657583E+01 -0.88639880734E+03  0.10918712218E+04  0.63708763097E+03 0.  0.
         13    1    3    3    0    0  0.32526732589E+03 -0.28647663427E+02 -0.37057410714E+03  0.49390757313E+03  0.00000000000E+00 0.  1.
          3    1    3    3  501    0 -0.30164900830E+03  0.22209897669E+02 -0.51582470019E+03  0.59796364864E+03  0.00000000000E+00 0.  1.
         21    1    1    2  502  501 -0.23618317587E+02  0.64377657583E+01  0.29240287330E+01  0.24653999627E+02  0.00000000000E+00 0. -1.
<mgrwt>
<rscale>  1 0.30000000E+03</rscale>
<asrwt>0</asrwt>
<pdfrwt beam="1">  1        1 0.42372897E+00 0.30000000E+03</pdfrwt>
<pdfrwt beam="2">0</pdfrwt>
<totfact> 0.76050798E-01</totfact>
</mgrwt>
</event>
<event>
 6    1  0.5260809E-006  0.3000000E+03  0.7818608E-02  0.1093470E+00
          1   -1    0    0  502    0  0.00000000000E+00  0.00000000000E+00  0.10376690172E+03  0.10376690172E+03  0.00000000000E+00 0.  1.
         13   -1    0    0    0    0 -0.00000000000E+00 -0.00000000000E+00 -0.10000000000E+04  0.10000000000E+04  0.00000000000E+00 0.  1.
    9000005    2    1    2  501    0 -0.10183594835E+02 -0.10792033821E+02 -0.89379908561E+03  0.10887303457E+04  0.62147951432E+03 0.  0.
         13    1    3    3    0    0  0.20174330461E+03 -0.15785245254E+03 -0.13979486715E+03  0.29182248475E+03  0.00000000000E+00 0.  1.
          3    1    3    3  501    0 -0.21192689944E+03  0.14706041872E+03 -0.75400421846E+03  0.79690786099E+03  0.00000000000E+00 0.  1.
         21    1    1    2  502  501  0.10183594835E+02  0.10792033821E+02 -0.24340126744E+01  0.15036555971E+02  0.00000000000E+00 0. -1.
<mgrwt>
<rscale>  1 0.30000000E+03</rscale>
<asrwt>0</asrwt>
<pdfrwt beam="1">  1        1 0.37733498E+00 0.30000000E+03</pdfrwt>
<pdfrwt beam="2">0</pdfrwt>
<totfact> 0.14088352E+00</totfact>
</mgrwt>
</event>
<event>
 6    1  0.5260809E-006  0.3000000E+03  0.7818608E-02  0.1093470E+00
          1   -1    0    0  502    0  0.00000000000E+00  0.00000000000E+00  0.12288617284E+03  0.12288617284E+03  0.00000000000E+00 0.  1.
         13   -1    0    0    0    0 -0.00000000000E+00 -0.00000000000E+00 -0.10000000000E+04  0.10000000000E+04  0.00000000000E+00 0.  1.
    9000005    2    1    2  501    0 -0.32090965637E+01  0.31807266738E+02 -0.87160177222E+03  0.10904457156E+04  0.65449232902E+03 0.  0.
         13    1    3    3    0    0 -0.20107642877E+03  0.43868529523E+02 -0.96930810452E+01  0.20603430275E+03  0.00000000000E+00 0.  1.
          1    1    3    3  501    0  0.19786733220E+03 -0.12061262785E+02 -0.86190869118E+03  0.88441141283E+03  0.00000000000E+00 0.  1.
         21    1    1    2  502  501  0.32090965637E+01 -0.31807266738E+02 -0.55120549408E+01  0.32440457268E+02  0.00000000000E+00 0.  1.
<mgrwt>
<rscale>  1 0.30000000E+03</rscale>
<asrwt>0</asrwt>
<pdfrwt beam="1">  1        1 0.44685975E+00 0.30000000E+03</pdfrwt>
<pdfrwt beam="2">0</pdfrwt>
<totfact> 0.54009351E-01</totfact>
</mgrwt>
</event>
<event>
 6    1  0.5260809E-006  0.3000000E+03  0.7818608E-02  0.1093470E+00
          1   -1    0    0  502    0  0.00000000000E+00  0.00000000000E+00  0.15040050584E+03  0.15040050584E+03  0.00000000000E+00 0.  1.
         13   -1    0    0    0    0 -0.00000000000E+00 -0.00000000000E+00 -0.10000000000E+04  0.10000000000E+04  0.00000000000E+00 0.  1.
    9000005    2    1    2  501    0 -0.21047070201E+02 -0.71154321176E+02 -0.85361365433E+03  0.10760901427E+04  0.65100522871E+03 0.  0.
         13    1    3    3    0    0 -0.14532367904E+03 -0.16874909067E+03 -0.88704675524E+03  0.91457485931E+03  0.00000000000E+00 0.  1.
          3    1    3    3  501    0  0.12427660884E+03  0.97594769494E+02  0.33433100913E+02  0.16151528341E+03  0.00000000000E+00 0.  1.
         21    1    1    2  502  501  0.21047070201E+02  0.71154321176E+02  0.40141601682E+01  0.74310363126E+02  0.00000000000E+00 0.  1.
<mgrwt>
<rscale>  1 0.30000000E+03</rscale>
<asrwt>0</asrwt>
<pdfrwt beam="1">  1        1 0.54691208E+00 0.30000000E+03</pdfrwt>
<pdfrwt beam="2">0</pdfrwt>
<totfact> 0.10313101E-01</totfact>
</mgrwt>
</event>
<event>
 6    1  0.5260809E-006  0.3000000E+03  0.7818608E-02  0.1093470E+00
          1   -1    0    0  502    0  0.00000000000E+00  0.00000000000E+00  0.11569275619E+03  0.11569275619E+03  0.00000000000E+00 0.  1.
         13   -1    0    0    0    0 -0.00000000000E+00 -0.00000000000E+00 -0.10000000000E+04  0.10000000000E+04  0.00000000000E+00 0.  1.
    9000005    2    1    2  501    0 -0.93309672484E+00 -0.10939933689E+02 -0.87708780819E+03  0.11025522437E+04  0.66799541461E+03 0.  0.
         13    1    3    3    0    0 -0.32973142524E+03  0.53668588084E+01 -0.52963330501E+03  0.62390949162E+03  0.00000000000E+00 0.  1.
          1    1    3    3  501    0  0.32879832851E+03 -0.16306792498E+02 -0.34745450318E+03  0.47864275205E+03  0.00000000000E+00 0.  1.
         21    1    1    2  502  501  0.93309672484E+00  0.10939933689E+02 -0.72194356195E+01  0.13140512520E+02  0.00000000000E+00 0.  1.
<mgrwt>
<rscale>  1 0.30000000E+03</rscale>
<asrwt>0</asrwt>
<pdfrwt beam="1">  1        1 0.42070182E+00 0.30000000E+03</pdfrwt>
<pdfrwt beam="2">0</pdfrwt>
<totfact> 0.79408574E-01</totfact>
</mgrwt>
</event>
<event>
 6    1  0.5260809E-006  0.3000000E+03  0.7818608E-02  0.1093470E+00
          1   -1    0    0  502    0  0.00000000000E+00  0.00000000000E+00  0.14104442599E+03  0.14104442599E+03  0.00000000000E+00 0.  1.
         13   -1    0    0    0    0 -0.00000000000E+00 -0.00000000000E+00 -0.10000000000E+04  0.10000000000E+04  0.00000000000E+00 0.  1.
    9000005    2    1    2  501    0  0.26875546309E+00 -0.33885246967E+02 -0.88622498359E+03  0.10975484159E+04  0.64658295801E+03 0.  0.
         13    1    3    3    0    0  0.27597177236E+03 -0.11759923365E+03 -0.22098878401E+03  0.37259366816E+03  0.00000000000E+00 0.  1.
          1    1    3    3  501    0 -0.27570301689E+03  0.83713986680E+02 -0.66523619958E+03  0.72495474778E+03  0.00000000000E+00 0.  1.
         21    1    1    2  502  501 -0.26875546309E+00  0.33885246967E+02  0.27269409588E+02  0.43496010057E+02  0.00000000000E+00 0. -1.
<mgrwt>
<rscale>  1 0.30000000E+03</rscale>
<asrwt>0</asrwt>
<pdfrwt beam="1">  1        1 0.51288990E+00 0.30000000E+03</pdfrwt>
<pdfrwt beam="2">0</pdfrwt>
<totfact> 0.18368355E-01</totfact>
</mgrwt>
</event>
<event>
 6    1  0.5260809E-006  0.3000000E+03  0.7818608E-02  0.1093470E+00
          1   -1    0    0  502    0  0.00000000000E+00  0.00000000000E+00  0.11083170332E+03  0.11083170332E+03  0.00000000000E+00 0.  1.
         13   -1    0    0    0    0 -0.00000000000E+00 -0.00000000000E+00 -0.10000000000E+04  0.10000000000E+04  0.00000000000E+00 0.  1.
    9000005    2    1    2  501    0 -0.15703024056E+02  0.80545255992E+01 -0.87072276404E+03  0.10853033265E+04  0.64762158582E+03 0.  0.
         13    1    3    3    0    0  0.25925703789E+03  0.12969049956E+03 -0.65187912133E+03  0.71342850111E+03  0.00000000000E+00 0.  1.
          3    1    3    3  501    0 -0.27496006194E+03 -0.12163597396E+03 -0.21884364271E+03  0.37187482542E+03  0.00000000000E+00 0.  1.
         21    1    1    2  502  501  0.15703024056E+02 -0.80545255992E+01 -0.18445532645E+02  0.25528376793E+02  0.00000000000E+00 0.  1.
<mgrwt>
<rscale>  1 0.30000000E+03</rscale>
<asrwt>0</asrwt>
<pdfrwt beam="1">  1        1 0.40302523E+00 0.30000000E+03</pdfrwt>
<pdfrwt beam="2">0</pdfrwt>
<totfact> 0.10119510E+00</totfact>
</mgrwt>
</event>
<event>
 6    1  0.5260809E-006  0.3000000E+03  0.7818608E-02  0.1093470E+00
          1   -1    0    0  502    0  0.00000000000E+00  0.00000000000E+00  0.13261884106E+03  0.13261884106E+03  0.00000000000E+00 0.  1.
         13   -1    0    0    0    0 -0.00000000000E+00 -0.00000000000E+00 -0.10000000000E+04  0.10000000000E+04  0.00000000000E+00 0.  1.
    9000005    2    1    2  501    0 -0.56623407803E+01 -0.34443050146E+02 -0.86968556375E+03  0.10976374733E+04  0.66875754745E+03 0.  0.
         13    1    3    3    0    0  0.23280536848E+03  0.20919871824E+03 -0.29888536406E+03  0.43277581281E+03  0.00000000000E+00 0.  1.
          1    1    3    3  501    0 -0.23846770926E+03 -0.24364176839E+03 -0.57080019969E+03  0.66486166052E+03  0.00000000000E+00 0.  1.
         21    1    1    2  502  501  0.56623407803E+01  0.34443050146E+02  0.23044048102E+01  0.34981367726E+02  0.00000000000E+00 0.  1.
<mgrwt>
<rscale>  1 0.30000000E+03</rscale>
<asrwt>0</asrwt>
<pdfrwt beam="1">  1        1 0.48225135E+00 0.30000000E+03</pdfrwt>
<pdfrwt beam="2">0</pdfrwt>
<totfact> 0.30770834E-01</totfact>
</mgrwt>
</event>
<event>
 6    1  0.5260809E-006  0.3000000E+03  0.7818608E-02  0.1093470E+00
          1   -1    0    0  502    0  0.00000000000E+00  0.00000000000E+00  0.11588471799E+03  0.11588471799E+03  0.00000000000E+00 0.  1.
         13   -1    0    0    0    0 -0.00000000000E+00 -0.00000000000E+00 -0.10000000000E+04  0.10000000000E+04  0.00000000000E+00 0.  1.
    9000005    2    1    2  501    0 -0.91343897303E+01 -0.10558816399E+02 -0.89931406615E+03  0.10952466774E+04  0.62498365508E+03 0.  0.
         13    1    3    3    0    0  0.22561749256E+03 -0.17958970095E+03 -0.65843298105E+03  0.71881131333E+03  0.00000000000E+00 0.  1.
          1    1    3    3  501    0 -0.23475188229E+03  0.16903088455E+03 -0.24088108511E+03  0.37643536408E+03  0.00000000000E+00 0.  1.
         21    1    1    2  502  501  0.91343897303E+01  0.10558816399E+02  0.15198784143E+02  0.20638040578E+02  0.00000000000E+00 0. -1.
<mgrwt>
<rscale>  1 0.30000000E+03</rscale>
<asrwt>0</asrwt>
<pdfrwt beam="1">  1        1 0.42139986E+00 0.30000000E+03</pdfrwt>
<pdfrwt beam="2">0</pdfrwt>
<totfact> 0.78624485E-01</totfact>
</mgrwt>
</event>
<event>
 6    1  0.5260809E-006  0.3000000E+03  0.7818608E-02  0.1093470E+00
          1   -1    0    0  502    0  0.00000000000E+00  0.00000000000E+00  0.10471293681E+03  0.10471293681E+03  0.00000000000E+00 0.  1.
         13   -1    0    0    0    0 -0.00000000000E+00 -0.00000000000E+00 -0.10000000000E+04  0.10000000000E+04  0.00000000000E+00 0.  1.
    9000005    2    1    2  501    0 -0.84695707556E+01  0.12878268199E+02 -0.89280009405E+03  0.10890998514E+04  0.62354542333E+03 0.  0.
         13    1    3    3    0    0  0.62981655169E+01 -0.26788004961E+03 -0.69633261387E+03  0.74610890425E+03  0.00000000000E+00 0.  1.
          3    1    3    3  501    0 -0.14767736272E+02  0.28075831781E+03 -0.19646748019E+03  0.34299094715E+03  0.00000000000E+00 0.  1.
         21    1    1    2  502  501  0.84695707556E+01 -0.12878268199E+02 -0.24869691356E+01  0.15613085411E+02  0.00000000000E+00 0.  1.
<mgrwt>
<rscale>  1 0.30000000E+03</rscale>
<asrwt>0</asrwt>
<pdfrwt beam="1">  1        1 0.38077512E+00 0.30000000E+03</pdfrwt>
<pdfrwt beam="2">0</pdfrwt>
<totfact> 0.13491017E+00</totfact>
</mgrwt>
</event>
<event>
 6    1  0.5260809E-006  0.3000000E+03  0.7818608E-02  0.1093470E+00
          1   -1    0    0  502    0  0.00000000000E+00  0.00000000000E+00  0.12463558847E+03  0.12463558847E+03  0.00000000000E+00 0.  1.
         13   -1    0    0    0    0 -0.00000000000E+00 -0.00000000000E+00 -0.10000000000E+04  0.10000000000E+04  0.00000000000E+00 0.  1.
    9000005    2    1    2  501    0  0.13879381028E+02  0.29455034103E+02 -0.88191114230E+03  0.10914227004E+04  0.64216509694E+03 0.  0.
         13    1    3    3    0    0  0.25417351063E+03  0.20464297276E+03 -0.59276512594E+03  0.67664866388E+03  0.00000000000E+00 0.  1.
          3    1    3    3  501    0 -0.24029412960E+03 -0.17518793866E+03 -0.28914601637E+03  0.41477403650E+03  0.00000000000E+00 0.  1.
         21    1    1    2  502  501 -0.13879381028E+02 -0.29455034103E+02  0.65467307750E+01  0.33212888094E+02  0.00000000000E+00 0. -1.
<mgrwt>
<rscale>  1 0.30000000E+03</rscale>
<asrwt>0</asrwt>
<pdfrwt beam="1">  1        1 0.45322128E+00 0.30000000E+03</pdfrwt>
<pdfrwt beam="2">0</pdfrwt>
<totfact> 0.48953288E-01</totfact>
</mgrwt>
</event>
<event>
 6    1  0.5260809E-006  0.3000000E+03  0.7818608E-02  0.1093470E+00
          1   -1    0    0  502    0  0.00000000000E+00  0.00000000000E+00  0.67058310700E+02  0.67058310700E+02  0.00000000000E+00 0.  1.
         13   -1    0    0    0    0 -0.00000000000E+00 -0.00000000000E+00 -0.10000000000E+04  0.10000000000E+04  0.00000000000E+00 0.  1.
    9000005    2    1    2  501    0 -0.77763555845E+01  0.60043166212E+01 -0.93351924443E+03  0.10572167105E+04  0.49613755124E+03 0.  0.
         13    1    3    3    0    0 -0.22583681961E+03 -0.10309967710E+03 -0.53906721870E+03  0.59348570226E+03  0.00000000000E+00 0.  1.
          1    1    3    3  501    0  0.21806046403E+03  0.10910399372E+03 -0.39445202573E+03  0.46373100826E+03  0.00000000000E+00 0.  1.
         21    1    1    2  502  501  0.77763555845E+01 -0.60043166212E+01  0.57755513051E+00  0.98416001846E+01  0.00000000000E+00 0.  1.
<mgrwt>
<rscale>  1 0.30000000E+03</rscale>
<asrwt>0</asrwt>
<pdfrwt beam="1">  1        1 0.24384892E+00 0.30000000E+03</pdfrwt>
<pdfrwt beam="2">0</pdfrwt>
<totfact> 0.63736469E+00</totfact>
</mgrwt>
</event>
<event>
 6    1  0.5260809E-006  0.3000000E+03  0.7818608E-02  0.1093470E+00
          1   -1    0    0  502    0  0.00000000000E+00  0.00000000000E+00  0.11847369479E+03  0.11847369479E+03  0.00000000000E+00 0.  1.
         13   -1    0    0    0    0 -0.00000000000E+00 -0.00000000000E+00 -0.10000000000E+04  0.10000000000E+04  0.00000000000E+00 0.  1.
    9000005    2    1    2  501    0 -0.91711963573E+01  0.19961212170E+02 -0.86086340056E+03  0.10883155042E+04  0.66547898638E+03 0.  0.
         13    1    3    3    0    0  0.29490979969E+03 -0.12921450587E+03 -0.48732576400E+03  0.58408439351E+03  0.00000000000E+00 0.  1.
          1    1    3    3  501    0 -0.30408099605E+03  0.14917571804E+03 -0.37353763656E+03  0.50423111064E+03  0.00000000000E+00 0.  1.
         21    1    1    2  502  501  0.91711963573E+01 -0.19961212170E+02 -0.20662904650E+02  0.30158190637E+02  0.00000000000E+00 0.  1.
<mgrwt>
<rscale>  1 0.30000000E+03</rscale>
<asrwt>0</asrwt>
<pdfrwt beam="1">  1        1 0.43081434E+00 0.30000000E+03</pdfrwt>
<pdfrwt beam="2">0</pdfrwt>
<totfact> 0.68647432E-01</totfact>
</mgrwt>
</event>
<event>
 6    1  0.5260809E-006  0.3000000E+03  0.7818608E-02  0.1093470E+00
          1   -1    0    0  502    0  0.00000000000E+00  0.00000000000E+00  0.12057762828E+03  0.12057762828E+03  0.00000000000E+00 0.  1.
         13   -1    0    0    0    0 -0.00000000000E+00 -0.00000000000E+00 -0.10000000000E+04  0.10000000000E+04  0.00000000000E+00 0.  1.
    9000005    2    1    2  501    0 -0.29767633262E+02 -0.54715010842E+01 -0.86143311804E+03  0.10853687862E+04  0.65957739186E+03 0.  0.
         13    1    3    3    0    0  0.83299045205E+01  0.82077945679E+02  0.94061858196E+02  0.12511518550E+03  0.00000000000E+00 0.  1.
          3    1    3    3  501    0 -0.38097537783E+02 -0.87549446763E+02 -0.95549497623E+03  0.96025360068E+03  0.00000000000E+00 0.  1.
         21    1    1    2  502  501  0.29767633262E+02  0.54715010842E+01 -0.17989253678E+02  0.35208842100E+02  0.00000000000E+00 0. -1.
<mgrwt>
<rscale>  1 0.30000000E+03</rscale>
<asrwt>0</asrwt>
<pdfrwt beam="1">  1        1 0.43846503E+00 0.30000000E+03</pdfrwt>
<pdfrwt beam="2">0</pdfrwt>
<totfact> 0.61334994E-01</totfact>
</mgrwt>
</event>
<event>
 6    1  0.5260809E-006  0.3000000E+03  0.7818608E-02  0.1093470E+00
          1   -1    0    0  502    0  0.00000000000E+00  0.00000000000E+00  0.10860292451E+03  0.10860292451E+03  0.00000000000E+00 0.  1.
         13   -1    0    0    0    0 -0.00000000000E+00 -0.00000000000E+00 -0.10000000000E+04  0.10000000000E+04  0.00000000000E+00 0.  1.
    9000005    2    1    2  501    0  0.31986533995E+01  0.85471467022E+01 -0.88193965575E+03  0.10954603263E+04  0.64971723460E+03 0.  0.
         13    1    3    3    0    0 -0.16225813953E+03  0.22124134141E+03 -0.74350095649E+03  0.79250811182E+03  0.00000000000E+00 0.  1.
          1    1    3    3  501    0  0.16545679293E+03 -0.21269419470E+03 -0.13843869926E+03  0.30295221445E+03  0.00000000000E+00 0.  1.
         21    1    1    2  502  501 -0.31986533995E+01 -0.85471467022E+01 -0.94574197376E+01  0.13142598237E+02  0.00000000000E+00 0. -1.
<mgrwt>
<rscale>  1 0.30000000E+03</rscale>
<asrwt>0</asrwt>
<pdfrwt beam="1">  1        1 0.39492056E+00 0.30000000E+03</pdfrwt>
<pdfrwt beam="2">0</pdfrwt>
<totfact> 0.11252935E+00</totfact>
</mgrwt>
</event>
<event>
 6    1  0.5260809E-006  0.3000000E+03  0.7818608E-02  0.1093470E+00
          1   -1    0    0  502    0  0.00000000000E+00  0.00000000000E+00  0.13981346290E+03  0.13981346290E+03  0.00000000000E+00 0.  1.
         13   -1    0    0    0    0 -0.00000000000E+00 -0.00000000000E+00 -0.10000000000E+04  0.10000000000E+04  0.00000000000E+00 0.  1.
    9000005    2    1    2  501    0 -0.76705025939E+02  0.19377093897E+02 -0.72261249382E+03  0.98111327337E+03  0.65890462602E+03 0.  0.
         13    1    3    3    0    0 -0.15762155143E+03 -0.25910549835E+03 -0.14799911486E+03  0.33746696245E+03  0.00000000000E+00 0.  1.
          1    1    3    3  501    0  0.80916525492E+02  0.27848259224E+03 -0.57461337896E+03  0.64364631092E+03  0.00000000000E+00 0.  1.
         21    1    1    2  502  501  0.76705025939E+02 -0.19377093897E+02 -0.13757404328E+03  0.15870018953E+03  0.00000000000E+00 0.  1.
<mgrwt>
<rscale>  1 0.30000000E+03</rscale>
<asrwt>0</asrwt>
<pdfrwt beam="1">  1        1 0.50841366E+00 0.30000000E+03</pdfrwt>
<pdfrwt beam="2">0</pdfrwt>
<totfact> 0.19815550E-01</totfact>
</mgrwt>
</event>
<event>
 6    1  0.5260809E-006  0.3000000E+03  0.7818608E-02  0.1093470E+00
          1   -1    0    0  502    0  0.00000000000E+00  0.00000000000E+00  0.11539892958E+03  0.11539892958E+03  0.00000000000E+00 0.  1.
         13   -1    0    0    0    0 -0.00000000000E+00 -0.00000000000E+00 -0.10000000000E+04  0.10000000000E+04  0.00000000000E+00 0.  1.
    9000005    2    1    2  501    0 -0.13395782805E+02 -0.45979995045E+00 -0.85239811116E+03  0.10805178602E+04  0.66389505795E+03 0.  0.
         13    1    3    3    0    0  0.93653909808E+02 -0.16990156421E+02 -0.93777758059E+03  0.94259562427E+03  0.00000000000E+00 0.  1.
          1    1    3    3  501    0 -0.10704969261E+03  0.16530356471E+02  0.85379469432E+02  0.13792223597E+03  0.00000000000E+00 0.  1.
         21    1    1    2  502  501  0.13395782805E+02  0.45979995045E+00 -0.32202959264E+02  0.34881069341E+02  0.00000000000E+00 0. -1.
<mgrwt>
<rscale>  1 0.30000000E+03</rscale>
<asrwt>0</asrwt>
<pdfrwt beam="1">  1        1 0.41963336E+00 0.30000000E+03</pdfrwt>
<pdfrwt beam="2">0</pdfrwt>
<totfact> 0.80619777E-01</totfact>
</mgrwt>
</event>
<event>
 6    1  0.5260809E-006  0.3000000E+03  0.7818608E-02  0.1093470E+00
          1   -1    0    0  502    0  0.00000000000E+00  0.00000000000E+00  0.12398895304E+03  0.12398895304E+03  0.00000000000E+00 0.  1.
         13   -1    0    0    0    0 -0.00000000000E+00 -0.00000000000E+00 -0.10000000000E+04  0.10000000000E+04  0.00000000000E+00 0.  1.
    9000005    2    1    2  501    0 -0.23075811574E+02  0.17558019105E+02 -0.88208474487E+03  0.10943635092E+04  0.64708362372E+03 0.  0.
         13    1    3    3    0    0  0.13622615543E+03  0.28751554600E+03 -0.32284254578E+03  0.45326599695E+03  0.00000000000E+00 0.  1.
          1    1    3    3  501    0 -0.15930196701E+03 -0.26995752690E+03 -0.55924219908E+03  0.64109751229E+03  0.00000000000E+00 0.  1.
         21    1    1    2  502  501  0.23075811574E+02 -0.17558019105E+02  0.60736979110E+01  0.29625443812E+02  0.00000000000E+00 0.  1.
<mgrwt>
<rscale>  1 0.30000000E+03</rscale>
<asrwt>0</asrwt>
<pdfrwt beam="1">  1        1 0.45086987E+00 0.30000000E+03</pdfrwt>
<pdfrwt beam="2">0</pdfrwt>
<totfact> 0.50767561E-01</totfact>
</mgrwt>
</event>
<event>
 6    1  0.5260809E-006  0.3000000E+03  0.7818608E-02  0.1093470E+00
          1   -1    0    0  502    0  0.00000000000E+00  0.00000000000E+00  0.10623971196E+03  0.10623971196E+03  0.00000000000E+00 0.  1.
         13   -1    0    0    0    0 -0.00000000000E+00 -0.00000000000E+00 -0.10000000000E+04  0.10000000000E+04  0.00000000000E+00 0.  1.
    9000005    2    1    2  501    0 -0.10739368571E+02 -0.17954187168E+02 -0.86871607317E+03  0.10736069129E+04  0.63049702681E+03 0.  0.
         13    1    3    3    0    0 -0.25354039252E+03  0.18367814126E+03 -0.47695433473E+03  0.57053118025E+03  0.00000000000E+00 0.  1.
          3    1    3    3  501    0  0.24280102395E+03 -0.20163232843E+03 -0.39176173844E+03  0.50307573267E+03  0.00000000000E+00 0.  1.
         21    1    1    2  502  501  0.10739368571E+02  0.17954187168E+02 -0.25044214873E+02  0.32632799034E+02  0.00000000000E+00 0.  1.
<mgrwt>
<rscale>  1 0.30000000E+03</rscale>
<asrwt>0</asrwt>
<pdfrwt beam="1">  1        1 0.38632704E+00 0.30000000E+03</pdfrwt>
<pdfrwt beam="2">0</pdfrwt>
<totfact> 0.12571049E+00</totfact>
</mgrwt>
</event>
<event>
 6    1  0.5260809E-006  0.3000000E+03  0.7818608E-02  0.1093470E+00
          1   -1    0    0  502    0  0.00000000000E+00  0.00000000000E+00  0.88779445494E+02  0.88779445494E+02  0.00000000000E+00 0.  1.
         13   -1    0    0    0    0 -0.00000000000E+00 -0.00000000000E+00 -0.10000000000E+04  0.10000000000E+04  0.00000000000E+00 0.  1.
    9000005    2    1    2  501    0  0.19957187736E+02 -0.23871313540E+02 -0.92131452937E+03  0.10560683269E+04  0.51525888643E+03 0.  0.
         13    1    3    3    0    0 -0.30012105742E+02 -0.97493175768E+02 -0.95536645369E+03  0.96079691229E+03  0.00000000000E+00 0.  1.
          3    1    3    3  501    0  0.49969293478E+02  0.73621862228E+02  0.34051924321E+02  0.95271414593E+02  0.00000000000E+00 0.  1.
         21    1    1    2  502  501 -0.19957187736E+02  0.23871313540E+02  0.10093974868E+02  0.32711118616E+02  0.00000000000E+00 0.  1.
<mgrwt>
<rscale>  1 0.30000000E+03</rscale>
<asrwt>0</asrwt>
<pdfrwt beam="1">  1        1 0.32283503E+00 0.30000000E+03</pdfrwt>
<pdfrwt beam="2">0</pdfrwt>
<totfact> 0.26971149E+00</totfact>
</mgrwt>
</event>
<event>
 6    1  0.5260809E-006  0.3000000E+03  0.7818608E-02  0.1093470E+00
          1   -1    0    0  502    0  0.00000000000E+00  0.00000000000E+00  0.11371015582E+03  0.11371015582E+03  0.00000000000E+00 0.  1.
         13   -1    0    0    0    0 -0.00000000000E+00 -0.00000000000E+00 -0.10000000000E+04  0.10000000000E+04  0.00000000000E+00 0.  1.
    9000005    2    1    2  501    0 -0.10724578475E+02  0.13835185625E+01 -0.88144550056E+03  0.11018611739E+04  0.66108618608E+03 0.  0.
         13    1    3    3    0    0 -0.17803405808E+03 -0.27793333531E+03 -0.51470079582E+03  0.61144089979E+03  0.00000000000E+00 0.  1.
          1    1    3    3  501    0  0.16730947960E+03  0.27931685388E+03 -0.36674470474E+03  0.49042027413E+03  0.00000000000E+00 0.  1.
         21    1    1    2  502  501  0.10724578475E+02 -0.13835185625E+01 -0.48443436159E+01  0.11848981904E+02  0.00000000000E+00 0.  1.
<mgrwt>
<rscale>  1 0.30000000E+03</rscale>
<asrwt>0</asrwt>
<pdfrwt beam="1">  1        1 0.41349235E+00 0.30000000E+03</pdfrwt>
<pdfrwt beam="2">0</pdfrwt>
<totfact> 0.87831132E-01</totfact>
</mgrwt>
</event>
<event>
 6    1  0.5260809E-006  0.3000000E+03  0.7818608E-02  0.1093470E+00
          1   -1    0    0  502    0  0.00000000000E+00  0.00000000000E+00  0.11057756472E+03  0.11057756472E+03  0.00000000000E+00 0.  1.
         13   -1    0    0    0    0 -0.00000000000E+00 -0.00000000000E+00 -0.10000000000E+04  0.10000000000E+04  0.00000000000E+00 0.  1.
    9000005    2    1    2  501    0 -0.15082944648E+02 -0.13429903848E+02 -0.88231894434E+03  0.10891692224E+04  0.63827503318E+03 0.  0.
         13    1    3    3    0    0 -0.18483372179E+03  0.65686958169E+02 -0.93979995050E+01  0.19638381700E+03  0.00000000000E+00 0.  1.
          1    1    3    3  501    0  0.16975077714E+03 -0.79116862017E+02 -0.87292094484E+03  0.89278540542E+03  0.00000000000E+00 0.  1.
         21    1    1    2  502  501  0.15082944648E+02  0.13429903848E+02 -0.71034909345E+01  0.21408342301E+02  0.00000000000E+00 0.  1.
<mgrwt>
<rscale>  1 0.30000000E+03</rscale>
<asrwt>0</asrwt>
<pdfrwt beam="1">  1        1 0.40210108E+00 0.30000000E+03</pdfrwt>
<pdfrwt beam="2">0</pdfrwt>
<totfact> 0.10244176E+00</totfact>
</mgrwt>
</event>
<event>
 6    1  0.5260809E-006  0.3000000E+03  0.7818608E-02  0.1093470E+00
          1   -1    0    0  502    0  0.00000000000E+00  0.00000000000E+00  0.13279215543E+03  0.13279215543E+03  0.00000000000E+00 0.  1.
         13   -1    0    0    0    0 -0.00000000000E+00 -0.00000000000E+00 -0.10000000000E+04  0.10000000000E+04  0.00000000000E+00 0.  1.
    9000005    2    1    2  501    0  0.22572292875E+01  0.50618722272E+02 -0.86487735716E+03  0.10820695638E+04  0.64830112438E+03 0.  0.
         13    1    3    3    0    0 -0.21639931773E+03  0.65962769942E+02 -0.41486016772E+02  0.23000182895E+03  0.00000000000E+00 0.  1.
          1    1    3    3  501    0  0.21865654702E+03 -0.15344047670E+02 -0.82339134039E+03  0.85206773486E+03  0.00000000000E+00 0.  1.
         21    1    1    2  502  501 -0.22572292875E+01 -0.50618722272E+02 -0.23304874113E+01  0.50722591615E+02  0.00000000000E+00 0. -1.
<mgrwt>
<rscale>  1 0.30000000E+03</rscale>
<asrwt>0</asrwt>
<pdfrwt beam="1">  1        1 0.48288158E+00 0.30000000E+03</pdfrwt>
<pdfrwt beam="2">0</pdfrwt>
<totfact> 0.30450421E-01</totfact>
</mgrwt>
</event>
<event>
 6    1  0.5260809E-006  0.3000000E+03  0.7818608E-02  0.1093470E+00
          1   -1    0    0  502    0  0.00000000000E+00  0.00000000000E+00  0.11521596035E+03  0.11521596035E+03  0.00000000000E+00 0.  1.
         13   -1    0    0    0    0 -0.00000000000E+00 -0.00000000000E+00 -0.10000000000E+04  0.10000000000E+04  0.00000000000E+00 0.  1.
    9000005    2    1    2  501    0  0.10035612620E+02  0.15282525572E+02 -0.88283482842E+03  0.10968293203E+04  0.65061736409E+03 0.  0.
         13    1    3    3    0    0 -0.56482877071E+02 -0.26171823212E+03 -0.14191158668E+03  0.30302746883E+03  0.00000000000E+00 0.  1.
          1    1    3    3  501    0  0.66518489691E+02  0.27700075770E+03 -0.74092324174E+03  0.79380185146E+03  0.00000000000E+00 0.  1.
         21    1    1    2  502  501 -0.10035612620E+02 -0.15282525572E+02 -0.19492112282E+01  0.18386640066E+02  0.00000000000E+00 0.  1.
<mgrwt>
<rscale>  1 0.30000000E+03</rscale>
<asrwt>0</asrwt>
<pdfrwt beam="1">  1        1 0.41896801E+00 0.30000000E+03</pdfrwt>
<pdfrwt beam="2">0</pdfrwt>
<totfact> 0.81380623E-01</totfact>
</mgrwt>
</event>
<event>
 6    1  0.5260809E-006  0.3000000E+03  0.7818608E-02  0.1093470E+00
          1   -1    0    0  502    0  0.00000000000E+00  0.00000000000E+00  0.16759000514E+03  0.16759000514E+03  0.00000000000E+00 0.  1.
         13   -1    0    0    0    0 -0.00000000000E+00 -0.00000000000E+00 -0.10000000000E+04  0.10000000000E+04  0.00000000000E+00 0.  1.
    9000005    2    1    2  501    0 -0.43896904464E+02  0.34562175737E+02 -0.88374270690E+03  0.10917182084E+04  0.63853425308E+03 0.  0.
         13    1    3    3    0    0 -0.97201887502E+02  0.32782023211E+03 -0.44191159998E+03  0.55874875723E+03  0.00000000000E+00 0.  1.
          3    1    3    3  501    0  0.53304983038E+02 -0.29325805637E+03 -0.44183110693E+03  0.53296945118E+03  0.00000000000E+00 0.  1.
         21    1    1    2  502  501  0.43896904464E+02 -0.34562175737E+02  0.51332712045E+02  0.75871796730E+02  0.00000000000E+00 0.  1.
<mgrwt>
<rscale>  1 0.30000000E+03</rscale>
<asrwt>0</asrwt>
<pdfrwt beam="1">  1        1 0.60941949E+00 0.30000000E+03</pdfrwt>
<pdfrwt beam="2">0</pdfrwt>
<totfact> 0.52920118E-02</totfact>
</mgrwt>
</event>
<event>
 6    1  0.5260809E-006  0.3000000E+03  0.7818608E-02  0.1093470E+00
          1   -1    0    0  502    0  0.00000000000E+00  0.00000000000E+00  0.12145849555E+03  0.12145849555E+03  0.00000000000E+00 0.  1.
         13   -1    0    0    0    0 -0.00000000000E+00 -0.00000000000E+00 -0.10000000000E+04  0.10000000000E+04  0.00000000000E+00 0.  1.
    9000005    2    1    2  501    0  0.83968967377E+01  0.11657262625E+02 -0.88856411766E+03  0.11039412919E+04  0.65493036668E+03 0.  0.
         13    1    3    3    0    0  0.13038680656E+03 -0.29218164237E+03 -0.35479827823E+03  0.47775794049E+03  0.00000000000E+00 0.  1.
          3    1    3    3  501    0 -0.12198990982E+03  0.30383890500E+03 -0.53376583944E+03  0.62618335145E+03  0.00000000000E+00 0.  1.
         21    1    1    2  502  501 -0.83968967377E+01 -0.11657262625E+02  0.10022613211E+02  0.17517203610E+02  0.00000000000E+00 0.  1.
<mgrwt>
<rscale>  1 0.30000000E+03</rscale>
<asrwt>0</asrwt>
<pdfrwt beam="1">  1        1 0.44166819E+00 0.30000000E+03</pdfrwt>
<pdfrwt beam="2">0</pdfrwt>
<totfact> 0.58459382E-01</totfact>
</mgrwt>
</event>
<event>
 6    1  0.5260809E-006  0.3000000E+03  0.7818608E-02  0.1093470E+00
          1   -1    0    0  502    0  0.00000000000E+00  0.00000000000E+00  0.11366077235E+03  0.11366077235E+03  0.00000000000E+00 0.  1.
         13   -1    0    0    0    0 -0.00000000000E+00 -0.00000000000E+00 -0.10000000000E+04  0.10000000000E+04  0.00000000000E+00 0.  1.
    9000005    2    1    2  501    0 -0.42893992618E+01  0.16451837534E+02 -0.88340500619E+03  0.10964076115E+04  0.64916575977E+03 0.  0.
         13    1    3    3    0    0 -0.58490211345E+02 -0.18894696446E+03 -0.10549528247E+02  0.19807410923E+03  0.00000000000E+00 0.  1.
          1    1    3    3  501    0  0.54200812083E+02  0.20539880200E+03 -0.87285547795E+03  0.89833350226E+03  0.00000000000E+00 0.  1.
         21    1    1    2  502  501  0.42893992618E+01 -0.16451837534E+02 -0.29342214511E+01  0.17253160864E+02  0.00000000000E+00 0. -1.
<mgrwt>
<rscale>  1 0.30000000E+03</rscale>
<asrwt>0</asrwt>
<pdfrwt beam="1">  1        1 0.41331277E+00 0.30000000E+03</pdfrwt>
<pdfrwt beam="2">0</pdfrwt>
<totfact> 0.88048728E-01</totfact>
</mgrwt>
</event>
<event>
 6    1  0.5260809E-006  0.3000000E+03  0.7818608E-02  0.1093470E+00
          1   -1    0    0  502    0  0.00000000000E+00  0.00000000000E+00  0.11409537896E+03  0.11409537896E+03  0.00000000000E+00 0.  1.
         13   -1    0    0    0    0 -0.00000000000E+00 -0.00000000000E+00 -0.10000000000E+04  0.10000000000E+04  0.00000000000E+00 0.  1.
    9000005    2    1    2  501    0  0.11768474293E+02  0.11932952762E+02 -0.88265567685E+03  0.10970235312E+04  0.65122860173E+03 0.  0.
         13    1    3    3    0    0  0.14708247246E+03  0.29896732553E+03 -0.42284342641E+03  0.53834122886E+03  0.00000000000E+00 0.  1.
          3    1    3    3  501    0 -0.13531399817E+03 -0.28703437277E+03 -0.45981225045E+03  0.55868230231E+03  0.00000000000E+00 0.  1.
         21    1    1    2  502  501 -0.11768474293E+02 -0.11932952762E+02 -0.32489441802E+01  0.17071847794E+02  0.00000000000E+00 0.  1.
<mgrwt>
<rscale>  1 0.30000000E+03</rscale>
<asrwt>0</asrwt>
<pdfrwt beam="1">  1        1 0.41489316E+00 0.30000000E+03</pdfrwt>
<pdfrwt beam="2">0</pdfrwt>
<totfact> 0.86147418E-01</totfact>
</mgrwt>
</event>
<event>
 6    1  0.5260809E-006  0.3000000E+03  0.7818608E-02  0.1093470E+00
          1   -1    0    0  502    0  0.00000000000E+00  0.00000000000E+00  0.11294910459E+03  0.11294910459E+03  0.00000000000E+00 0.  1.
         13   -1    0    0    0    0 -0.00000000000E+00 -0.00000000000E+00 -0.10000000000E+04  0.10000000000E+04  0.00000000000E+00 0.  1.
    9000005    2    1    2  501    0 -0.61139269456E+01 -0.84517754565E+01 -0.89169188035E+03  0.11015319529E+04  0.64664474112E+03 0.  0.
         13    1    3    3    0    0  0.77138406806E+02 -0.70493010129E+02 -0.96740400542E+03  0.97303140133E+03  0.00000000000E+00 0.  1.
          3    1    3    3  501    0 -0.83252333752E+02  0.62041234672E+02  0.75712125071E+02  0.12850055158E+03  0.00000000000E+00 0.  1.
         21    1    1    2  502  501  0.61139269456E+01  0.84517754565E+01  0.46409849367E+01  0.11417151670E+02  0.00000000000E+00 0.  1.
<mgrwt>
<rscale>  1 0.30000000E+03</rscale>
<asrwt>0</asrwt>
<pdfrwt beam="1">  1        1 0.41072488E+00 0.30000000E+03</pdfrwt>
<pdfrwt beam="2">0</pdfrwt>
<totfact> 0.91229161E-01</totfact>
</mgrwt>
</event>
<event>
 6    1  0.5260809E-006  0.3000000E+03  0.7818608E-02  0.1093470E+00
          1   -1    0    0  502    0  0.00000000000E+00  0.00000000000E+00  0.12409345288E+03  0.12409345288E+03  0.00000000000E+00 0.  1.
         13   -1    0    0    0    0 -0.00000000000E+00 -0.00000000000E+00 -0.10000000000E+04  0.10000000000E+04  0.00000000000E+00 0.  1.
    9000005    2    1    2  501    0 -0.41737506112E+01  0.17841357159E+02 -0.88042248330E+03  0.11052221016E+04  0.66785957398E+03 0.  0.
         13    1    3    3    0    0  0.20612019080E+03 -0.15407922279E+02 -0.86765320433E+03  0.89193330475E+03  0.00000000000E+00 0.  1.
          3    1    3    3  501    0 -0.21029394141E+03  0.33249279439E+02 -0.12769278961E+02  0.21328879685E+03  0.00000000000E+00 0.  1.
         21    1    1    2  502  501  0.41737506112E+01 -0.17841357159E+02  0.45159361724E+01  0.18871351276E+02  0.00000000000E+00 0.  1.
<mgrwt>
<rscale>  1 0.30000000E+03</rscale>
<asrwt>0</asrwt>
<pdfrwt beam="1">  1        1 0.45124987E+00 0.30000000E+03</pdfrwt>
<pdfrwt beam="2">0</pdfrwt>
<totfact> 0.50469898E-01</totfact>
</mgrwt>
</event>
<event>
 6    1  0.5260809E-006  0.3000000E+03  0.7818608E-02  0.1093470E+00
          1   -1    0    0  502    0  0.00000000000E+00  0.00000000000E+00  0.11083303241E+03  0.11083303241E+03  0.00000000000E+00 0.  1.
         13   -1    0    0    0    0 -0.00000000000E+00 -0.00000000000E+00 -0.10000000000E+04  0.10000000000E+04  0.00000000000E+00 0.  1.
    9000005    2    1    2  501    0  0.11936387642E+01  0.13028108200E+02 -0.87511761599E+03  0.10916356196E+04  0.65243109051E+03 0.  0.
         13    1    3    3    0    0 -0.29571059067E+03  0.10467006638E+03 -0.59803567605E+03  0.67531270242E+03  0.00000000000E+00 0.  1.
          3    1    3    3  501    0  0.29690422943E+03 -0.91641958178E+02 -0.27708193994E+03  0.41632291721E+03  0.00000000000E+00 0.  1.
         21    1    1    2  502  501 -0.11936387642E+01 -0.13028108200E+02 -0.14049351606E+02  0.19197412777E+02  0.00000000000E+00 0. -1.
<mgrwt>
<rscale>  1 0.30000000E+03</rscale>
<asrwt>0</asrwt>
<pdfrwt beam="1">  1        1 0.40303006E+00 0.30000000E+03</pdfrwt>
<pdfrwt beam="2">0</pdfrwt>
<totfact> 0.10118861E+00</totfact>
</mgrwt>
</event>
<event>
 6    1  0.5260809E-006  0.3000000E+03  0.7818608E-02  0.1093470E+00
          1   -1    0    0  502    0  0.00000000000E+00  0.00000000000E+00  0.12409462691E+03  0.12409462691E+03  0.00000000000E+00 0.  1.
         13   -1    0    0    0    0 -0.00000000000E+00 -0.00000000000E+00 -0.10000000000E+04  0.10000000000E+04  0.00000000000E+00 0.  1.
    9000005    2    1    2  501    0  0.21284572103E+01  0.13387567242E+02 -0.88971788519E+03  0.11047415192E+04  0.65473059480E+03 0.  0.
         13    1    3    3    0    0  0.23747816287E+03  0.10816928873E+03 -0.10719071724E+03  0.28211047965E+03  0.00000000000E+00 0.  1.
          3    1    3    3  501    0 -0.23534970566E+03 -0.94781721489E+02 -0.78252716795E+03  0.82263103957E+03  0.00000000000E+00 0.  1.
         21    1    1    2  502  501 -0.21284572103E+01 -0.13387567242E+02  0.13812512104E+02  0.19353107693E+02  0.00000000000E+00 0.  1.
<mgrwt>
<rscale>  1 0.30000000E+03</rscale>
<asrwt>0</asrwt>
<pdfrwt beam="1">  1        1 0.45125414E+00 0.30000000E+03</pdfrwt>
<pdfrwt beam="2">0</pdfrwt>
<totfact> 0.50466563E-01</totfact>
</mgrwt>
</event>
<event>
 6    1  0.5260809E-006  0.3000000E+03  0.7818608E-02  0.1093470E+00
          1   -1    0    0  502    0  0.00000000000E+00  0.00000000000E+00  0.12022649090E+03  0.12022649090E+03  0.00000000000E+00 0.  1.
         13   -1    0    0    0    0 -0.00000000000E+00 -0.00000000000E+00 -0.10000000000E+04  0.10000000000E+04  0.00000000000E+00 0.  1.
    9000005    2    1    2  501    0 -0.20363667342E+02 -0.17794949540E+02 -0.87928246798E+03  0.10931787498E+04  0.64897671867E+03 0.  0.
         13    1    3    3    0    0 -0.60788833997E+02 -0.52725066658E+02 -0.97780094187E+03  0.98110646564E+03  0.00000000000E+00 0.  1.
          1    1    3    3  501    0  0.40425166655E+02  0.34930117118E+02  0.98518473895E+02  0.11207228417E+03  0.00000000000E+00 0.  1.
         21    1    1    2  502  501  0.20363667342E+02  0.17794949540E+02 -0.49104112329E+00  0.27047741091E+02  0.00000000000E+00 0.  1.
<mgrwt>
<rscale>  1 0.30000000E+03</rscale>
<asrwt>0</asrwt>
<pdfrwt beam="1">  1        1 0.43718816E+00 0.30000000E+03</pdfrwt>
<pdfrwt beam="2">0</pdfrwt>
<totfact> 0.62510487E-01</totfact>
</mgrwt>
</event>
<event>
 6    1  0.5260809E-006  0.3000000E+03  0.7818608E-02  0.1093470E+00
          1   -1    0    0  502    0  0.00000000000E+00  0.00000000000E+00  0.10453833436E+03  0.10453833436E+03  0.00000000000E+00 0.  1.
         13   -1    0    0    0    0 -0.00000000000E+00 -0.00000000000E+00 -0.10000000000E+04  0.10000000000E+04  0.00000000000E+00 0.  1.
    9000005    2    1    2  501    0  0.47531809001E+01 -0.17409732004E+02 -0.90194495181E+03  0.10853621904E+04  0.60347385758E+03 0.  0.
         13    1    3    3    0    0  0.27236305598E+03 -0.75342641868E+02 -0.66765333572E+03  0.72499594802E+03  0.00000000000E+00 0.  1.
          3    1    3    3  501    0 -0.26760987508E+03  0.57932909864E+02 -0.23429161609E+03  0.36036624240E+03  0.00000000000E+00 0.  1.
         21    1    1    2  502  501 -0.47531809001E+01  0.17409732004E+02  0.64832861655E+01  0.19176143946E+02  0.00000000000E+00 0.  1.
<mgrwt>
<rscale>  1 0.30000000E+03</rscale>
<asrwt>0</asrwt>
<pdfrwt beam="1">  1        1 0.38014020E+00 0.30000000E+03</pdfrwt>
<pdfrwt beam="2">0</pdfrwt>
<totfact> 0.13599680E+00</totfact>
</mgrwt>
</event>
<event>
 6    1  0.5260809E-006  0.3000000E+03  0.7818608E-02  0.1093470E+00
          1   -1    0    0  502    0  0.00000000000E+00  0.00000000000E+00  0.80763560653E+02  0.80763560653E+02  0.00000000000E+00 0.  1.
         13   -1    0    0    0    0 -0.00000000000E+00 -0.00000000000E+00 -0.10000000000E+04  0.10000000000E+04  0.00000000000E+00 0.  1.
    9000005    2    1    2  501    0  0.97820822596E+01  0.14305554885E+02 -0.89839305629E+03  0.10536566492E+04  0.55025622457E+03 0.  0.
         13    1    3    3    0    0 -0.17554826205E+03  0.20325877819E+03 -0.58325502585E+03  0.64211973058E+03  0.00000000000E+00 0.  1.
          3    1    3    3  501    0  0.18533034431E+03 -0.18895322331E+03 -0.31513803044E+03  0.41153691858E+03  0.00000000000E+00 0.  1.
         21    1    1    2  502  501 -0.97820822596E+01 -0.14305554885E+02 -0.20843383053E+02  0.27106911499E+02  0.00000000000E+00 0. -1.
<mgrwt>
<rscale>  1 0.30000000E+03</rscale>
<asrwt>0</asrwt>
<pdfrwt beam="1">  1        1 0.29368629E+00 0.30000000E+03</pdfrwt>
<pdfrwt beam="2">0</pdfrwt>
<totfact> 0.37220632E+00</totfact>
</mgrwt>
</event>
<event>
 6    1  0.5260809E-006  0.3000000E+03  0.7818608E-02  0.1093470E+00
          1   -1    0    0  502    0  0.00000000000E+00  0.00000000000E+00  0.10700092107E+03  0.10700092107E+03  0.00000000000E+00 0.  1.
         13   -1    0    0    0    0 -0.00000000000E+00 -0.00000000000E+00 -0.10000000000E+04  0.10000000000E+04  0.00000000000E+00 0.  1.
    9000005    2    1    2  501    0  0.11317002064E+02  0.74168897115E+01 -0.88511220399E+03  0.10913392613E+04  0.63829043932E+03 0.  0.
         13    1    3    3    0    0  0.24227768667E+03 -0.14942835430E+03 -0.18995086777E+03  0.34221140059E+03  0.00000000000E+00 0.  1.
          3    1    3    3  501    0 -0.23096068460E+03  0.15684524401E+03 -0.69516133621E+03  0.74912786076E+03  0.00000000000E+00 0.  1.
         21    1    1    2  502  501 -0.11317002064E+02 -0.74168897115E+01 -0.78868749480E+01  0.15661659719E+02  0.00000000000E+00 0. -1.
<mgrwt>
<rscale>  1 0.30000000E+03</rscale>
<asrwt>0</asrwt>
<pdfrwt beam="1">  1        1 0.38909508E+00 0.30000000E+03</pdfrwt>
<pdfrwt beam="2">0</pdfrwt>
<totfact> 0.12132484E+00</totfact>
</mgrwt>
</event>
<event>
 6    1  0.5260809E-006  0.3000000E+03  0.7818608E-02  0.1093470E+00
          1   -1    0    0  502    0  0.00000000000E+00  0.00000000000E+00  0.12967604484E+03  0.12967604484E+03  0.00000000000E+00 0.  1.
         13   -1    0    0    0    0 -0.00000000000E+00 -0.00000000000E+00 -0.10000000000E+04  0.10000000000E+04  0.00000000000E+00 0.  1.
    9000005    2    1    2  501    0  0.26766690525E+02 -0.44241702853E+01 -0.88518304273E+03  0.10987435136E+04  0.65034779970E+03 0.  0.
         13    1    3    3    0    0 -0.20002647567E+03  0.15428137295E+03 -0.74859996526E+03  0.79007293397E+03  0.00000000000E+00 0.  1.
          1    1    3    3  501    0  0.22679316620E+03 -0.15870554324E+03 -0.13658307747E+03  0.30867057965E+03  0.00000000000E+00 0.  1.
         21    1    1    2  502  501 -0.26766690525E+02  0.44241702853E+01  0.14859087576E+02  0.30932531225E+02  0.00000000000E+00 0.  1.
<mgrwt>
<rscale>  1 0.30000000E+03</rscale>
<asrwt>0</asrwt>
<pdfrwt beam="1">  1        1 0.47155025E+00 0.30000000E+03</pdfrwt>
<pdfrwt beam="2">0</pdfrwt>
<totfact> 0.36674395E-01</totfact>
</mgrwt>
</event>
<event>
 6    1  0.5260809E-006  0.3000000E+03  0.7818608E-02  0.1093470E+00
          1   -1    0    0  502    0  0.00000000000E+00  0.00000000000E+00  0.12424974287E+03  0.12424974287E+03  0.00000000000E+00 0.  1.
         13   -1    0    0    0    0 -0.00000000000E+00 -0.00000000000E+00 -0.10000000000E+04  0.10000000000E+04  0.00000000000E+00 0.  1.
    9000005    2    1    2  501    0 -0.74090308021E+01  0.97738555629E+01 -0.86919525306E+03  0.11103432671E+04  0.69080486453E+03 0.  0.
         13    1    3    3    0    0  0.25686905215E+03  0.18478217945E+02 -0.79505490377E+03  0.83572450873E+03  0.00000000000E+00 0.  1.
          1    1    3    3  501    0 -0.26427808295E+03 -0.87043623816E+01 -0.74140349292E+02  0.27461875837E+03  0.00000000000E+00 0.  1.
         21    1    1    2  502  501  0.74090308021E+01 -0.97738555629E+01 -0.65550040699E+01  0.13906475770E+02  0.00000000000E+00 0.  1.
<mgrwt>
<rscale>  1 0.30000000E+03</rscale>
<asrwt>0</asrwt>
<pdfrwt beam="1">  1        1 0.45181820E+00 0.30000000E+03</pdfrwt>
<pdfrwt beam="2">0</pdfrwt>
<totfact> 0.50027899E-01</totfact>
</mgrwt>
</event>
<event>
 6    1  0.5260809E-006  0.3000000E+03  0.7818608E-02  0.1093470E+00
          1   -1    0    0  502    0  0.00000000000E+00  0.00000000000E+00  0.11872306725E+03  0.11872306725E+03  0.00000000000E+00 0.  1.
         13   -1    0    0    0    0 -0.00000000000E+00 -0.00000000000E+00 -0.10000000000E+04  0.10000000000E+04  0.00000000000E+00 0.  1.
    9000005    2    1    2  501    0 -0.33712769605E+02  0.16460854336E+02 -0.81231832055E+03  0.10402195593E+04  0.64868186897E+03 0.  0.
         13    1    3    3    0    0  0.29300501460E+03 -0.55445548195E+02 -0.26595211306E+03  0.39957061183E+03  0.00000000000E+00 0.  1.
          1    1    3    3  501    0 -0.32671778420E+03  0.71906402532E+02 -0.54636620749E+03  0.64064894750E+03  0.00000000000E+00 0.  1.
         21    1    1    2  502  501  0.33712769605E+02 -0.16460854336E+02 -0.68958612199E+02  0.78503507924E+02  0.00000000000E+00 0.  1.
<mgrwt>
<rscale>  1 0.30000000E+03</rscale>
<asrwt>0</asrwt>
<pdfrwt beam="1">  1        1 0.43172115E+00 0.30000000E+03</pdfrwt>
<pdfrwt beam="2">0</pdfrwt>
<totfact> 0.67745752E-01</totfact>
</mgrwt>
</event>
<event>
 6    1  0.5260809E-006  0.3000000E+03  0.7818608E-02  0.1093470E+00
          1   -1    0    0  502    0  0.00000000000E+00  0.00000000000E+00  0.11961423093E+03  0.11961423093E+03  0.00000000000E+00 0.  1.
         13   -1    0    0    0    0 -0.00000000000E+00 -0.00000000000E+00 -0.10000000000E+04  0.10000000000E+04  0.00000000000E+00 0.  1.
    9000005    2    1    2  501    0 -0.32442609254E+01  0.37666631758E+02 -0.85221625507E+03  0.10724674188E+04  0.64998809108E+03 0.  0.
         13    1    3    3    0    0  0.10881636562E+03 -0.26677699584E+03 -0.58527165216E+03  0.65234490399E+03  0.00000000000E+00 0.  1.
          1    1    3    3  501    0 -0.11206062654E+03  0.30444362760E+03 -0.26694460291E+03  0.42012251479E+03  0.00000000000E+00 0.  1.
         21    1    1    2  502  501  0.32442609254E+01 -0.37666631758E+02 -0.28169514001E+02  0.47146812150E+02  0.00000000000E+00 0.  1.
<mgrwt>
<rscale>  1 0.30000000E+03</rscale>
<asrwt>0</asrwt>
<pdfrwt beam="1">  1        1 0.43496176E+00 0.30000000E+03</pdfrwt>
<pdfrwt beam="2">0</pdfrwt>
<totfact> 0.64602034E-01</totfact>
</mgrwt>
</event>
<event>
 6    1  0.5260809E-006  0.3000000E+03  0.7818608E-02  0.1093470E+00
          1   -1    0    0  502    0  0.00000000000E+00  0.00000000000E+00  0.11547894930E+03  0.11547894930E+03  0.00000000000E+00 0.  1.
         13   -1    0    0    0    0 -0.00000000000E+00 -0.00000000000E+00 -0.10000000000E+04  0.10000000000E+04  0.00000000000E+00 0.  1.
    9000005    2    1    2  501    0  0.44978998528E+02 -0.15520274958E+02 -0.86991657637E+03  0.10657066687E+04  0.61376857583E+03 0.  0.
         13    1    3    3    0    0  0.20176972754E+03 -0.22093400115E+03 -0.23578367126E+03  0.38094198436E+03  0.00000000000E+00 0.  1.
          1    1    3    3  501    0 -0.15679072901E+03  0.20541372619E+03 -0.63413290511E+03  0.68476468436E+03  0.00000000000E+00 0.  1.
         21    1    1    2  502  501 -0.44978998528E+02  0.15520274958E+02 -0.14604474327E+02  0.49772280576E+02  0.00000000000E+00 0.  1.
<mgrwt>
<rscale>  1 0.30000000E+03</rscale>
<asrwt>0</asrwt>
<pdfrwt beam="1">  1        1 0.41992434E+00 0.30000000E+03</pdfrwt>
<pdfrwt beam="2">0</pdfrwt>
<totfact> 0.80288614E-01</totfact>
</mgrwt>
</event>
<event>
 6    1  0.5260809E-006  0.3000000E+03  0.7818608E-02  0.1093470E+00
          1   -1    0    0  502    0  0.00000000000E+00  0.00000000000E+00  0.11519926614E+03  0.11519926614E+03  0.00000000000E+00 0.  1.
         13   -1    0    0    0    0 -0.00000000000E+00 -0.00000000000E+00 -0.10000000000E+04  0.10000000000E+04  0.00000000000E+00 0.  1.
    9000005    2    1    2  501    0 -0.29047805456E+02  0.14202176857E+01 -0.85773127145E+03  0.10754683233E+04  0.64813840225E+03 0.  0.
         13    1    3    3    0    0 -0.32217671665E+03 -0.25898853049E+02 -0.28247600108E+03  0.42925665811E+03  0.00000000000E+00 0.  1.
          3    1    3    3  501    0  0.29312891120E+03  0.27319070735E+02 -0.57525527037E+03  0.64621166524E+03  0.00000000000E+00 0.  1.
         21    1    1    2  502  501  0.29047805456E+02 -0.14202176857E+01 -0.27069462412E+02  0.39730942795E+02  0.00000000000E+00 0.  1.
<mgrwt>
<rscale>  1 0.30000000E+03</rscale>
<asrwt>0</asrwt>
<pdfrwt beam="1">  1        1 0.41890731E+00 0.30000000E+03</pdfrwt>
<pdfrwt beam="2">0</pdfrwt>
<totfact> 0.81450292E-01</totfact>
</mgrwt>
</event>
<event>
 6    1  0.5260809E-006  0.3000000E+03  0.7818608E-02  0.1093470E+00
          1   -1    0    0  502    0  0.00000000000E+00  0.00000000000E+00  0.11818721063E+03  0.11818721063E+03  0.00000000000E+00 0.  1.
         13   -1    0    0    0    0 -0.00000000000E+00 -0.00000000000E+00 -0.10000000000E+04  0.10000000000E+04  0.00000000000E+00 0.  1.
    9000005    2    1    2  501    0 -0.11927573153E+02  0.15236179782E+01 -0.89359848315E+03  0.11013500199E+04  0.64366841531E+03 0.  0.
         13    1    3    3    0    0 -0.53584555514E+02 -0.31687089912E+03 -0.48199868044E+03  0.57931096938E+03  0.00000000000E+00 0.  1.
          3    1    3    3  501    0  0.41656982361E+02  0.31839451709E+03 -0.41159980271E+03  0.52203905054E+03  0.00000000000E+00 0.  1.
         21    1    1    2  502  501  0.11927573153E+02 -0.15236179782E+01  0.11785693779E+02  0.16837190708E+02  0.00000000000E+00 0.  1.
<mgrwt>
<rscale>  1 0.30000000E+03</rscale>
<asrwt>0</asrwt>
<pdfrwt beam="1">  1        1 0.42977258E+00 0.30000000E+03</pdfrwt>
<pdfrwt beam="2">0</pdfrwt>
<totfact> 0.69695560E-01</totfact>
</mgrwt>
</event>
<event>
 6    1  0.5260809E-006  0.3000000E+03  0.7818608E-02  0.1093470E+00
          1   -1    0    0  502    0  0.00000000000E+00  0.00000000000E+00  0.11700909689E+03  0.11700909689E+03  0.00000000000E+00 0.  1.
         13   -1    0    0    0    0 -0.00000000000E+00 -0.00000000000E+00 -0.10000000000E+04  0.10000000000E+04  0.00000000000E+00 0.  1.
    9000005    2    1    2  501    0 -0.16293856231E+02  0.14269079733E+02 -0.87302644469E+03  0.10931682324E+04  0.65755038959E+03 0.  0.
         13    1    3    3    0    0 -0.10205848624E+03  0.28270879194E+03 -0.19334882356E+03  0.35738489508E+03  0.00000000000E+00 0.  1.
          3    1    3    3  501    0  0.85764630010E+02 -0.26843971221E+03 -0.67967762113E+03  0.73578333735E+03  0.00000000000E+00 0.  1.
         21    1    1    2  502  501  0.16293856231E+02 -0.14269079733E+02 -0.99644584137E+01  0.23840864472E+02  0.00000000000E+00 0.  1.
<mgrwt>
<rscale>  1 0.30000000E+03</rscale>
<asrwt>0</asrwt>
<pdfrwt beam="1">  1        1 0.42548852E+00 0.30000000E+03</pdfrwt>
<pdfrwt beam="2">0</pdfrwt>
<totfact> 0.74151331E-01</totfact>
</mgrwt>
</event>
<event>
 6    1  0.5260809E-006  0.3000000E+03  0.7818608E-02  0.1093470E+00
          1   -1    0    0  502    0  0.00000000000E+00  0.00000000000E+00  0.11370078260E+03  0.11370078260E+03  0.00000000000E+00 0.  1.
         13   -1    0    0    0    0 -0.00000000000E+00 -0.00000000000E+00 -0.10000000000E+04  0.10000000000E+04  0.00000000000E+00 0.  1.
    9000005    2    1    2  501    0 -0.86207598624E+01 -0.18023907814E+01 -0.87801223797E+03  0.11016078036E+04  0.66524934934E+03 0.  0.
         13    1    3    3    0    0 -0.20724623532E+03  0.24943879324E+02 -0.80915054966E+01  0.20889871142E+03  0.00000000000E+00 0.  1.
          1    1    3    3  501    0  0.19862547546E+03 -0.26746270105E+02 -0.86992073247E+03  0.89270909217E+03  0.00000000000E+00 0.  1.
         21    1    1    2  502  501  0.86207598624E+01  0.18023907814E+01 -0.82869794353E+01  0.12092979008E+02  0.00000000000E+00 0.  1.
<mgrwt>
<rscale>  1 0.30000000E+03</rscale>
<asrwt>0</asrwt>
<pdfrwt beam="1">  1        1 0.41345826E+00 0.30000000E+03</pdfrwt>
<pdfrwt beam="2">0</pdfrwt>
<totfact> 0.87872402E-01</totfact>
</mgrwt>
</event>
<event>
 6    1  0.5260809E-006  0.3000000E+03  0.7818608E-02  0.1093470E+00
          1   -1    0    0  502    0  0.00000000000E+00  0.00000000000E+00  0.11080886170E+03  0.11080886170E+03  0.00000000000E+00 0.  1.
         13   -1    0    0    0    0 -0.00000000000E+00 -0.00000000000E+00 -0.10000000000E+04  0.10000000000E+04  0.00000000000E+00 0.  1.
    9000005    2    1    2  501    0  0.11709497531E+02 -0.18482700562E+01 -0.88591044329E+03  0.10985088050E+04  0.64941801079E+03 0.  0.
         13    1    3    3    0    0 -0.24141219850E+03 -0.53701912538E+02 -0.92430587001E+02  0.26402113250E+03  0.00000000000E+00 0.  1.
          1    1    3    3  501    0  0.25312169603E+03  0.51853642482E+02 -0.79347985629E+03  0.83448767251E+03  0.00000000000E+00 0.  1.
         21    1    1    2  502  501 -0.11709497531E+02  0.18482700562E+01 -0.32806950123E+01  0.12300056683E+02  0.00000000000E+00 0. -1.
<mgrwt>
<rscale>  1 0.30000000E+03</rscale>
<asrwt>0</asrwt>
<pdfrwt beam="1">  1        1 0.40294216E+00 0.30000000E+03</pdfrwt>
<pdfrwt beam="2">0</pdfrwt>
<totfact> 0.10130671E+00</totfact>
</mgrwt>
</event>
<event>
 6    1  0.5260809E-006  0.3000000E+03  0.7818608E-02  0.1093470E+00
          1   -1    0    0  502    0  0.00000000000E+00  0.00000000000E+00  0.10724528585E+03  0.10724528585E+03  0.00000000000E+00 0.  1.
         13   -1    0    0    0    0 -0.00000000000E+00 -0.00000000000E+00 -0.10000000000E+04  0.10000000000E+04  0.00000000000E+00 0.  1.
    9000005    2    1    2  501    0  0.14415244421E+02  0.49229111596E+01 -0.87047863567E+03  0.10802590301E+04  0.63952676463E+03 0.  0.
         13    1    3    3    0    0 -0.18527404335E+02 -0.19132049056E+03 -0.50855602698E+01  0.19228275467E+03  0.00000000000E+00 0.  1.
          3    1    3    3  501    0  0.32942648756E+02  0.19624340172E+03 -0.86539307540E+03  0.88797627546E+03  0.00000000000E+00 0.  1.
         21    1    1    2  502  501 -0.14415244421E+02 -0.49229111596E+01 -0.22276078479E+02  0.26986255731E+02  0.00000000000E+00 0. -1.
<mgrwt>
<rscale>  1 0.30000000E+03</rscale>
<asrwt>0</asrwt>
<pdfrwt beam="1">  1        1 0.38998368E+00 0.30000000E+03</pdfrwt>
<pdfrwt beam="2">0</pdfrwt>
<totfact> 0.11994509E+00</totfact>
</mgrwt>
</event>
<event>
 6    1  0.5260809E-006  0.3000000E+03  0.7818608E-02  0.1093470E+00
          1   -1    0    0  502    0  0.00000000000E+00  0.00000000000E+00  0.12026173376E+03  0.12026173376E+03  0.00000000000E+00 0.  1.
         13   -1    0    0    0    0 -0.00000000000E+00 -0.00000000000E+00 -0.10000000000E+04  0.10000000000E+04  0.00000000000E+00 0.  1.
    9000005    2    1    2  501    0 -0.26840300831E+01  0.16692663742E+02 -0.88795510448E+03  0.11014637160E+04  0.65151531149E+03 0.  0.
         13    1    3    3    0    0  0.56880013899E+02 -0.13356432154E+02 -0.98333386745E+03  0.98506813223E+03  0.00000000000E+00 0.  1.
          3    1    3    3  501    0 -0.59564043982E+02  0.30049095897E+02  0.95378762973E+02  0.11639558379E+03  0.00000000000E+00 0.  1.
         21    1    1    2  502  501  0.26840300831E+01 -0.16692663742E+02  0.82168382432E+01  0.18798017742E+02  0.00000000000E+00 0.  1.
<mgrwt>
<rscale>  1 0.30000000E+03</rscale>
<asrwt>0</asrwt>
<pdfrwt beam="1">  1        1 0.43731632E+00 0.30000000E+03</pdfrwt>
<pdfrwt beam="2">0</pdfrwt>
<totfact> 0.62391726E-01</totfact>
</mgrwt>
</event>
<event>
 6    1  0.5260809E-006  0.3000000E+03  0.7818608E-02  0.1093470E+00
          1   -1    0    0  502    0  0.00000000000E+00  0.00000000000E+00  0.15611551487E+03  0.15611551487E+03  0.00000000000E+00 0.  1.
         13   -1    0    0    0    0 -0.00000000000E+00 -0.00000000000E+00 -0.10000000000E+04  0.10000000000E+04  0.00000000000E+00 0.  1.
    9000005    2    1    2  501    0 -0.95327316801E+01 -0.50153167692E+02 -0.88032175484E+03  0.10933948020E+04  0.64648247286E+03 0.  0.
         13    1    3    3    0    0  0.12492800889E+03  0.21126425446E+03 -0.11014086601E+03  0.26901784882E+03  0.00000000000E+00 0.  1.
          1    1    3    3  501    0 -0.13446074057E+03 -0.26141742215E+03 -0.77018088883E+03  0.82437695315E+03  0.00000000000E+00 0.  1.
         21    1    1    2  502  501  0.95327316801E+01  0.50153167692E+02  0.36437269708E+02  0.62720712900E+02  0.00000000000E+00 0.  1.
<mgrwt>
<rscale>  1 0.30000000E+03</rscale>
<asrwt>0</asrwt>
<pdfrwt beam="1">  1        1 0.56769398E+00 0.30000000E+03</pdfrwt>
<pdfrwt beam="2">0</pdfrwt>
<totfact> 0.79634368E-02</totfact>
</mgrwt>
</event>
<event>
 6    1  0.5260809E-006  0.3000000E+03  0.7818608E-02  0.1093470E+00
          1   -1    0    0  502    0  0.00000000000E+00  0.00000000000E+00  0.11456203327E+03  0.11456203327E+03  0.00000000000E+00 0.  1.
         13   -1    0    0    0    0 -0.00000000000E+00 -0.00000000000E+00 -0.10000000000E+04  0.10000000000E+04  0.00000000000E+00 0.  1.
    9000005    2    1    2  501    0 -0.15885204138E+02  0.42292262919E+01 -0.87295499803E+03  0.10939210407E+04  0.65904672726E+03 0.  0.
         13    1    3    3    0    0  0.15878669931E+03  0.12248699143E+03 -0.48951871263E+01  0.20059970539E+03  0.00000000000E+00 0.  1.
          1    1    3    3  501    0 -0.17467190344E+03 -0.11825776514E+03 -0.86805981090E+03  0.89332133534E+03  0.00000000000E+00 0.  1.
         21    1    1    2  502  501  0.15885204138E+02 -0.42292262919E+01 -0.12482968695E+02  0.20640992539E+02  0.00000000000E+00 0.  1.
<mgrwt>
<rscale>  1 0.30000000E+03</rscale>
<asrwt>0</asrwt>
<pdfrwt beam="1">  1        1 0.41659009E+00 0.30000000E+03</pdfrwt>
<pdfrwt beam="2">0</pdfrwt>
<totfact> 0.84139949E-01</totfact>
</mgrwt>
</event>
<event>
 6    1  0.5260809E-006  0.3000000E+03  0.7818608E-02  0.1093470E+00
          1   -1    0    0  502    0  0.00000000000E+00  0.00000000000E+00  0.10761589708E+03  0.10761589708E+03  0.00000000000E+00 0.  1.
         13   -1    0    0    0    0 -0.00000000000E+00 -0.00000000000E+00 -0.10000000000E+04  0.10000000000E+04  0.00000000000E+00 0.  1.
    9000005    2    1    2  501    0  0.10112774435E+02 -0.29857244362E+01 -0.89415154499E+03  0.10969244702E+04  0.63531498105E+03 0.  0.
         13    1    3    3    0    0  0.18379545063E+03  0.43305868910E+01  0.22121893718E+01  0.18385977112E+03  0.00000000000E+00 0.  1.
          1    1    3    3  501    0 -0.17368267619E+03 -0.73163113272E+01 -0.89636373437E+03  0.91306469908E+03  0.00000000000E+00 0.  1.
         21    1    1    2  502  501 -0.10112774435E+02  0.29857244362E+01  0.17674420708E+01  0.10691426877E+02  0.00000000000E+00 0.  1.
<mgrwt>
<rscale>  1 0.30000000E+03</rscale>
<asrwt>0</asrwt>
<pdfrwt beam="1">  1        1 0.39133136E+00 0.30000000E+03</pdfrwt>
<pdfrwt beam="2">0</pdfrwt>
<totfact> 0.11787849E+00</totfact>
</mgrwt>
</event>
<event>
 6    1  0.5260809E-006  0.3000000E+03  0.7818608E-02  0.1093470E+00
          1   -1    0    0  502    0  0.00000000000E+00  0.00000000000E+00  0.97116951425E+02  0.97116951425E+02  0.00000000000E+00 0.  1.
         13   -1    0    0    0    0 -0.00000000000E+00 -0.00000000000E+00 -0.10000000000E+04  0.10000000000E+04  0.00000000000E+00 0.  1.
    9000005    2    1    2  501    0 -0.17235841495E+01 -0.10211935589E+02 -0.89994606875E+03  0.10863521838E+04  0.60840026815E+03 0.  0.
         13    1    3    3    0    0  0.13699371204E+02 -0.28915528558E+03 -0.26414676451E+03  0.39188259103E+03  0.00000000000E+00 0.  1.
          3    1    3    3  501    0 -0.15422955353E+02  0.27894334999E+03 -0.63579930425E+03  0.69446959281E+03  0.00000000000E+00 0.  1.
         21    1    1    2  502  501  0.17235841495E+01  0.10211935589E+02 -0.29369798235E+01  0.10764767590E+02  0.00000000000E+00 0. -1.
<mgrwt>
<rscale>  1 0.30000000E+03</rscale>
<asrwt>0</asrwt>
<pdfrwt beam="1">  1        1 0.35315330E+00 0.30000000E+03</pdfrwt>
<pdfrwt beam="2">0</pdfrwt>
<totfact> 0.18967955E+00</totfact>
</mgrwt>
</event>
<event>
 6    1  0.5260809E-006  0.3000000E+03  0.7818608E-02  0.1093470E+00
          1   -1    0    0  502    0  0.00000000000E+00  0.00000000000E+00  0.10916799002E+03  0.10916799002E+03  0.00000000000E+00 0.  1.
         13   -1    0    0    0    0 -0.00000000000E+00 -0.00000000000E+00 -0.10000000000E+04  0.10000000000E+04  0.00000000000E+00 0.  1.
    9000005    2    1    2  501    0 -0.96721623772E+01 -0.56034671803E+01 -0.88967201025E+03  0.10979298777E+04  0.64327970659E+03 0.  0.
         13    1    3    3    0    0 -0.10119367165E+03 -0.26795451463E+03 -0.71371771997E+03  0.76904665976E+03  0.00000000000E+00 0.  1.
          1    1    3    3  501    0  0.91521509269E+02  0.26235104745E+03 -0.17595429028E+03  0.32888321792E+03  0.00000000000E+00 0.  1.
         21    1    1    2  502  501  0.96721623772E+01  0.56034671803E+01 -0.11599997325E+01  0.11238112336E+02  0.00000000000E+00 0. -1.
<mgrwt>
<rscale>  1 0.30000000E+03</rscale>
<asrwt>0</asrwt>
<pdfrwt beam="1">  1        1 0.39697535E+00 0.30000000E+03</pdfrwt>
<pdfrwt beam="2">0</pdfrwt>
<totfact> 0.10956452E+00</totfact>
</mgrwt>
</event>
<event>
 6    1  0.5260809E-006  0.3000000E+03  0.7818608E-02  0.1093470E+00
          1   -1    0    0  502    0  0.00000000000E+00  0.00000000000E+00  0.12566393036E+03  0.12566393036E+03  0.00000000000E+00 0.  1.
         13   -1    0    0    0    0 -0.00000000000E+00 -0.00000000000E+00 -0.10000000000E+04  0.10000000000E+04  0.00000000000E+00 0.  1.
    9000005    2    1    2  501    0  0.51804906301E+01 -0.96037934578E+01 -0.89534911949E+03  0.11019865446E+04  0.64234354392E+03 0.  0.
         13    1    3    3    0    0 -0.26432302917E+03  0.16134467887E+03 -0.55402669540E+03  0.63470020354E+03  0.00000000000E+00 0.  1.
          3    1    3    3  501    0  0.26950351980E+03 -0.17094847233E+03 -0.34132242408E+03  0.46728634108E+03  0.00000000000E+00 0.  1.
         21    1    1    2  502  501 -0.51804906301E+01  0.96037934578E+01  0.21013049849E+02  0.23677385749E+02  0.00000000000E+00 0. -1.
<mgrwt>
<rscale>  1 0.30000000E+03</rscale>
<asrwt>0</asrwt>
<pdfrwt beam="1">  1        1 0.45696071E+00 0.30000000E+03</pdfrwt>
<pdfrwt beam="2">0</pdfrwt>
<totfact> 0.46200209E-01</totfact>
</mgrwt>
</event>
<event>
 6    1  0.5260809E-006  0.3000000E+03  0.7818608E-02  0.1093470E+00
          1   -1    0    0  502    0  0.00000000000E+00  0.00000000000E+00  0.11357620636E+03  0.11357620636E+03  0.00000000000E+00 0.  1.
         13   -1    0    0    0    0 -0.00000000000E+00 -0.00000000000E+00 -0.10000000000E+04  0.10000000000E+04  0.00000000000E+00 0.  1.
    9000005    2    1    2  501    0 -0.15732158404E+02 -0.13824500132E+02 -0.88665724637E+03  0.10926317056E+04  0.63815699786E+03 0.  0.
         13    1    3    3    0    0 -0.95510590860E+02 -0.19453417750E+03 -0.86750991981E+03  0.89416960369E+03  0.00000000000E+00 0.  1.
          1    1    3    3  501    0  0.79778432456E+02  0.18070967737E+03 -0.19147326559E+02  0.19846210191E+03  0.00000000000E+00 0.  1.
         21    1    1    2  502  501  0.15732158404E+02  0.13824500132E+02  0.23345272971E+00  0.20944500761E+02  0.00000000000E+00 0.  1.
<mgrwt>
<rscale>  1 0.30000000E+03</rscale>
<asrwt>0</asrwt>
<pdfrwt beam="1">  1        1 0.41300526E+00 0.30000000E+03</pdfrwt>
<pdfrwt beam="2">0</pdfrwt>
<totfact> 0.88422278E-01</totfact>
</mgrwt>
</event>
<event>
 6    1  0.5260809E-006  0.3000000E+03  0.7818608E-02  0.1093470E+00
          1   -1    0    0  502    0  0.00000000000E+00  0.00000000000E+00  0.13205110137E+03  0.13205110137E+03  0.00000000000E+00 0.  1.
         13   -1    0    0    0    0 -0.00000000000E+00 -0.00000000000E+00 -0.10000000000E+04  0.10000000000E+04  0.00000000000E+00 0.  1.
    9000005    2    1    2  501    0  0.23456539292E+02  0.35467748089E+02 -0.86112554657E+03  0.10889845421E+04  0.66523826986E+03 0.  0.
         13    1    3    3    0    0 -0.31134527519E+02  0.30249849927E+03 -0.17534582599E+03  0.35102828882E+03  0.00000000000E+00 0.  1.
          3    1    3    3  501    0  0.54591066811E+02 -0.26703075118E+03 -0.68577972059E+03  0.73795625332E+03  0.00000000000E+00 0.  1.
         21    1    1    2  502  501 -0.23456539292E+02 -0.35467748089E+02 -0.68233520540E+01  0.43066559224E+02  0.00000000000E+00 0.  1.
<mgrwt>
<rscale>  1 0.30000000E+03</rscale>
<asrwt>0</asrwt>
<pdfrwt beam="1">  1        1 0.48018684E+00 0.30000000E+03</pdfrwt>
<pdfrwt beam="2">0</pdfrwt>
<totfact> 0.31841207E-01</totfact>
</mgrwt>
</event>
<event>
 6    1  0.5260809E-006  0.3000000E+03  0.7818608E-02  0.1093470E+00
          1   -1    0    0  502    0  0.00000000000E+00  0.00000000000E+00  0.10892480679E+03  0.10892480679E+03  0.00000000000E+00 0.  1.
         13   -1    0    0    0    0 -0.00000000000E+00 -0.00000000000E+00 -0.10000000000E+04  0.10000000000E+04  0.00000000000E+00 0.  1.
    9000005    2    1    2  501    0  0.10369403093E+02 -0.21931681968E-01 -0.88818186448E+03  0.10981592900E+04  0.64573932567E+03 0.  0.
         13    1    3    3    0    0  0.14595639759E+03  0.10196430561E+03 -0.90986166460E+03  0.92711824398E+03  0.00000000000E+00 0.  1.
          1    1    3    3  501    0 -0.13558699450E+03 -0.10198623730E+03  0.21679800119E+02  0.17104104597E+03  0.00000000000E+00 0.  1.
         21    1    1    2  502  501 -0.10369403093E+02  0.21931681968E-01 -0.28933287368E+01  0.10765516833E+02  0.00000000000E+00 0.  1.
<mgrwt>
<rscale>  1 0.30000000E+03</rscale>
<asrwt>0</asrwt>
<pdfrwt beam="1">  1        1 0.39609104E+00 0.30000000E+03</pdfrwt>
<pdfrwt beam="2">0</pdfrwt>
<totfact> 0.11083223E+00</totfact>
</mgrwt>
</event>
<event>
 6    1  0.5260809E-006  0.3000000E+03  0.7818608E-02  0.1093470E+00
          1   -1    0    0  502    0  0.00000000000E+00  0.00000000000E+00  0.11649009935E+03  0.11649009935E+03  0.00000000000E+00 0.  1.
         13   -1    0    0    0    0 -0.00000000000E+00 -0.00000000000E+00 -0.10000000000E+04  0.10000000000E+04  0.00000000000E+00 0.  1.
    9000005    2    1    2  501    0 -0.19681978254E+02 -0.10992220922E+02 -0.88397027003E+03  0.10939419037E+04  0.64404754568E+03 0.  0.
         13    1    3    3    0    0  0.10404470172E+03  0.11510966428E+03 -0.90302068264E+03  0.91625427041E+03  0.00000000000E+00 0.  1.
          1    1    3    3  501    0 -0.12372667998E+03 -0.12610188520E+03  0.19050412611E+02  0.17768763325E+03  0.00000000000E+00 0.  1.
         21    1    1    2  502  501  0.19681978254E+02  0.10992220922E+02  0.46036937782E+00  0.22548195687E+02  0.00000000000E+00 0.  1.
<mgrwt>
<rscale>  1 0.30000000E+03</rscale>
<asrwt>0</asrwt>
<pdfrwt beam="1">  1        1 0.42360125E+00 0.30000000E+03</pdfrwt>
<pdfrwt beam="2">0</pdfrwt>
<totfact> 0.76190196E-01</totfact>
</mgrwt>
</event>
<event>
 6    1  0.5260809E-006  0.3000000E+03  0.7818608E-02  0.1093470E+00
          1   -1    0    0  502    0  0.00000000000E+00  0.00000000000E+00  0.11127293128E+03  0.11127293128E+03  0.00000000000E+00 0.  1.
         13   -1    0    0    0    0 -0.00000000000E+00 -0.00000000000E+00 -0.10000000000E+04  0.10000000000E+04  0.00000000000E+00 0.  1.
    9000005    2    1    2  501    0  0.20662006153E+02  0.88977431933E+01 -0.85737370830E+03  0.10726837937E+04  0.64424743476E+03 0.  0.
         13    1    3    3    0    0  0.21291056529E+03  0.11554521727E+03 -0.81310516473E+03  0.84842301652E+03  0.00000000000E+00 0.  1.
          1    1    3    3  501    0 -0.19224855914E+03 -0.10664747408E+03 -0.44268543567E+02  0.22426077715E+03  0.00000000000E+00 0.  1.
         21    1    1    2  502  501 -0.20662006153E+02 -0.88977431933E+01 -0.31353360413E+02  0.38589137609E+02  0.00000000000E+00 0. -1.
<mgrwt>
<rscale>  1 0.30000000E+03</rscale>
<asrwt>0</asrwt>
<pdfrwt beam="1">  1        1 0.40462969E+00 0.30000000E+03</pdfrwt>
<pdfrwt beam="2">0</pdfrwt>
<totfact> 0.99055597E-01</totfact>
</mgrwt>
</event>
<event>
 6    1  0.5260809E-006  0.3000000E+03  0.7818608E-02  0.1093470E+00
          1   -1    0    0  502    0  0.00000000000E+00  0.00000000000E+00  0.12110898292E+03  0.12110898292E+03  0.00000000000E+00 0.  1.
         13   -1    0    0    0    0 -0.00000000000E+00 -0.00000000000E+00 -0.10000000000E+04  0.10000000000E+04  0.00000000000E+00 0.  1.
    9000005    2    1    2  501    0  0.31720835475E+02 -0.21033493220E+02 -0.87422824709E+03  0.10827637008E+04  0.63769395828E+03 0.  0.
         13    1    3    3    0    0  0.29154818825E+03 -0.10895549241E+03 -0.24418169791E+03  0.39559619184E+03  0.00000000000E+00 0.  1.
          1    1    3    3  501    0 -0.25982735278E+03  0.87921999189E+02 -0.63004654917E+03  0.68716750892E+03  0.00000000000E+00 0.  1.
         21    1    1    2  502  501 -0.31720835475E+02  0.21033493220E+02 -0.46627699888E+01  0.38345282164E+02  0.00000000000E+00 0.  1.
<mgrwt>
<rscale>  1 0.30000000E+03</rscale>
<asrwt>0</asrwt>
<pdfrwt beam="1">  1        1 0.44039723E+00 0.30000000E+03</pdfrwt>
<pdfrwt beam="2">0</pdfrwt>
<totfact> 0.59588354E-01</totfact>
</mgrwt>
</event>
<event>
 6    1  0.5260809E-006  0.3000000E+03  0.7818608E-02  0.1093470E+00
          1   -1    0    0  502    0  0.00000000000E+00  0.00000000000E+00  0.12008028094E+03  0.12008028094E+03  0.00000000000E+00 0.  1.
         13   -1    0    0    0    0 -0.00000000000E+00 -0.00000000000E+00 -0.10000000000E+04  0.10000000000E+04  0.00000000000E+00 0.  1.
    9000005    2    1    2  501    0 -0.12675537009E+01 -0.30110045353E+02 -0.86709346804E+03  0.10873276591E+04  0.65537938201E+03 0.  0.
         13    1    3    3    0    0 -0.93946078705E+02 -0.16527678586E+03  0.14468619443E+02  0.19066101488E+03  0.00000000000E+00 0.  1.
          1    1    3    3  501    0  0.92678525004E+02  0.13516674051E+03 -0.88156208748E+03  0.89666664420E+03  0.00000000000E+00 0.  1.
         21    1    1    2  502  501  0.12675537009E+01  0.30110045353E+02 -0.12826251018E+02  0.32752621860E+02  0.00000000000E+00 0. -1.
<mgrwt>
<rscale>  1 0.30000000E+03</rscale>
<asrwt>0</asrwt>
<pdfrwt beam="1">  1        1 0.43665649E+00 0.30000000E+03</pdfrwt>
<pdfrwt beam="2">0</pdfrwt>
<totfact> 0.63005059E-01</totfact>
</mgrwt>
</event>
<event>
 6    1  0.5260809E-006  0.3000000E+03  0.7818608E-02  0.1093470E+00
          1   -1    0    0  502    0  0.00000000000E+00  0.00000000000E+00  0.12269876535E+03  0.12269876535E+03  0.00000000000E+00 0.  1.
         13   -1    0    0    0    0 -0.00000000000E+00 -0.00000000000E+00 -0.10000000000E+04  0.10000000000E+04  0.00000000000E+00 0.  1.
    9000005    2    1    2  501    0 -0.84410451174E+00 -0.19964610493E+02 -0.88671156978E+03  0.11006113800E+04  0.65168144335E+03 0.  0.
         13    1    3    3    0    0  0.29211867478E+03 -0.12386871638E+03 -0.59505352429E+03  0.67436301487E+03  0.00000000000E+00 0.  1.
          1    1    3    3  501    0 -0.29296277930E+03  0.10390410588E+03 -0.29165804549E+03  0.42624836512E+03  0.00000000000E+00 0.  1.
         21    1    1    2  502  501  0.84410451174E+00  0.19964610493E+02  0.94103351354E+01  0.22087385357E+02  0.00000000000E+00 0.  1.
<mgrwt>
<rscale>  1 0.30000000E+03</rscale>
<asrwt>0</asrwt>
<pdfrwt beam="1">  1        1 0.44617827E+00 0.30000000E+03</pdfrwt>
<pdfrwt beam="2">0</pdfrwt>
<totfact> 0.54577850E-01</totfact>
</mgrwt>
</event>
<event>
 6    1  0.5260809E-006  0.3000000E+03  0.7818608E-02  0.1093470E+00
          1   -1    0    0  502    0  0.00000000000E+00  0.00000000000E+00  0.11332344938E+03  0.11332344938E+03  0.00000000000E+00 0.  1.
         13   -1    0    0    0    0 -0.00000000000E+00 -0.00000000000E+00 -0.10000000000E+04  0.10000000000E+04  0.00000000000E+00 0.  1.
    9000005    2    1    2  501    0 -0.89091265707E+01 -0.92614596499E+01 -0.89048682789E+03  0.10999195177E+04  0.64551607852E+03 0.  0.
         13    1    3    3    0    0  0.30142627520E+03  0.82969008501E+02 -0.53046793445E+03  0.61574173582E+03  0.00000000000E+00 0.  1.
          3    1    3    3  501    0 -0.31033540177E+03 -0.92230468151E+02 -0.36001889345E+03  0.48417778190E+03  0.00000000000E+00 0.  1.
         21    1    1    2  502  501  0.89091265707E+01  0.92614596499E+01  0.38102772702E+01  0.13403931661E+02  0.00000000000E+00 0. -1.
<mgrwt>
<rscale>  1 0.30000000E+03</rscale>
<asrwt>0</asrwt>
<pdfrwt beam="1">  1        1 0.41208614E+00 0.30000000E+03</pdfrwt>
<pdfrwt beam="2">0</pdfrwt>
<totfact> 0.89545785E-01</totfact>
</mgrwt>
</event>
<event>
 6    1  0.5260809E-006  0.3000000E+03  0.7818608E-02  0.1093470E+00
          1   -1    0    0  502    0  0.00000000000E+00  0.00000000000E+00  0.10931439552E+03  0.10931439552E+03  0.00000000000E+00 0.  1.
         13   -1    0    0    0    0 -0.00000000000E+00 -0.00000000000E+00 -0.10000000000E+04  0.10000000000E+04  0.00000000000E+00 0.  1.
    9000005    2    1    2  501    0  0.87978644381E+01  0.22468246736E+02 -0.89905324104E+03  0.10837753691E+04  0.60472315637E+03 0.  0.
         13    1    3    3    0    0 -0.40028944651E+02 -0.27993080652E+03 -0.30840438166E+03  0.41842183914E+03  0.00000000000E+00 0.  1.
          3    1    3    3  501    0  0.48826809089E+02  0.30239905325E+03 -0.59064885939E+03  0.66535352993E+03  0.00000000000E+00 0.  1.
         21    1    1    2  502  501 -0.87978644381E+01 -0.22468246736E+02  0.83676365613E+01  0.25539026443E+02  0.00000000000E+00 0.  1.
<mgrwt>
<rscale>  1 0.30000000E+03</rscale>
<asrwt>0</asrwt>
<pdfrwt beam="1">  1        1 0.39750773E+00 0.30000000E+03</pdfrwt>
<pdfrwt beam="2">0</pdfrwt>
<totfact> 0.10880714E+00</totfact>
</mgrwt>
</event>
<event>
 6    1  0.5260809E-006  0.3000000E+03  0.7818608E-02  0.1093470E+00
          1   -1    0    0  502    0  0.00000000000E+00  0.00000000000E+00  0.98473550266E+02  0.98473550266E+02  0.00000000000E+00 0.  1.
         13   -1    0    0    0    0 -0.00000000000E+00 -0.00000000000E+00 -0.10000000000E+04  0.10000000000E+04  0.00000000000E+00 0.  1.
    9000005    2    1    2  501    0 -0.10236328639E+02  0.40797611968E+00 -0.92602180954E+03  0.10719222505E+04  0.53981105070E+03 0.  0.
         13    1    3    3    0    0  0.93121436318E+02 -0.14310533807E+03 -0.49543976352E+02  0.17777892248E+03  0.00000000000E+00 0.  1.
          3    1    3    3  501    0 -0.10335776496E+03  0.14351331419E+03 -0.87647783319E+03  0.89414332799E+03  0.00000000000E+00 0.  1.
         21    1    1    2  502  501  0.10236328639E+02 -0.40797611968E+00  0.24495359804E+02  0.26551299788E+02  0.00000000000E+00 0.  1.
<mgrwt>
<rscale>  1 0.30000000E+03</rscale>
<asrwt>0</asrwt>
<pdfrwt beam="1">  1        1 0.35808639E+00 0.30000000E+03</pdfrwt>
<pdfrwt beam="2">0</pdfrwt>
<totfact> 0.17875067E+00</totfact>
</mgrwt>
</event>
<event>
 6    1  0.5260809E-006  0.3000000E+03  0.7818608E-02  0.1093470E+00
          1   -1    0    0  502    0  0.00000000000E+00  0.00000000000E+00  0.73567728110E+02  0.73567728110E+02  0.00000000000E+00 0.  1.
         13   -1    0    0    0    0 -0.00000000000E+00 -0.00000000000E+00 -0.10000000000E+04  0.10000000000E+04  0.00000000000E+00 0.  1.
    9000005    2    1    2  501    0 -0.31994128112E+02  0.59649520104E+01 -0.92897371728E+03  0.10409232212E+04  0.46847601877E+03 0.  0.
         13    1    3    3    0    0 -0.21646681246E+03 -0.11531945241E+03 -0.55245841377E+03  0.60445575185E+03  0.00000000000E+00 0.  1.
          1    1    3    3  501    0  0.18447268435E+03  0.12128440442E+03 -0.37651530352E+03  0.43646746936E+03  0.00000000000E+00 0.  1.
         21    1    1    2  502  501  0.31994128112E+02 -0.59649520104E+01  0.25414453938E+01  0.32644506902E+02  0.00000000000E+00 0.  1.
<mgrwt>
<rscale>  1 0.30000000E+03</rscale>
<asrwt>0</asrwt>
<pdfrwt beam="1">  1        1 0.26751958E+00 0.30000000E+03</pdfrwt>
<pdfrwt beam="2">0</pdfrwt>
<totfact> 0.49388647E+00</totfact>
</mgrwt>
</event>
<event>
 6    1  0.5260809E-006  0.3000000E+03  0.7818608E-02  0.1093470E+00
          1   -1    0    0  502    0  0.00000000000E+00  0.00000000000E+00  0.13264573771E+03  0.13264573771E+03  0.00000000000E+00 0.  1.
         13   -1    0    0    0    0 -0.00000000000E+00 -0.00000000000E+00 -0.10000000000E+04  0.10000000000E+04  0.00000000000E+00 0.  1.
    9000005    2    1    2  501    0 -0.13022851409E+02 -0.18723957019E+02 -0.89103298832E+03  0.10997692523E+04  0.64423011481E+03 0.  0.
         13    1    3    3    0    0  0.15184166916E+03  0.27085665811E+03 -0.40086794817E+03  0.50706442748E+03  0.00000000000E+00 0.  1.
          3    1    3    3  501    0 -0.16486452057E+03 -0.28958061513E+03 -0.49016504015E+03  0.59270482484E+03  0.00000000000E+00 0.  1.
         21    1    1    2  502  501  0.13022851409E+02  0.18723957019E+02  0.23678726037E+02  0.32876485396E+02  0.00000000000E+00 0. -1.
<mgrwt>
<rscale>  1 0.30000000E+03</rscale>
<asrwt>0</asrwt>
<pdfrwt beam="1">  1        1 0.48234915E+00 0.30000000E+03</pdfrwt>
<pdfrwt beam="2">0</pdfrwt>
<totfact> 0.30720915E-01</totfact>
</mgrwt>
</event>
<event>
 6    1  0.5260809E-006  0.3000000E+03  0.7818608E-02  0.1093470E+00
          1   -1    0    0  502    0  0.00000000000E+00  0.00000000000E+00  0.13666428081E+03  0.13666428081E+03  0.00000000000E+00 0.  1.
         13   -1    0    0    0    0 -0.00000000000E+00 -0.00000000000E+00 -0.10000000000E+04  0.10000000000E+04  0.00000000000E+00 0.  1.
    9000005    2    1    2  501    0  0.80021728942E+01  0.15596668196E+02 -0.89071102371E+03  0.11041573873E+04  0.65229603500E+03 0.  0.
         13    1    3    3    0    0  0.15757808803E+03 -0.14710076732E+03 -0.32570066879E+02  0.21801444638E+03  0.00000000000E+00 0.  1.
          3    1    3    3  501    0 -0.14957591513E+03  0.16269743551E+03 -0.85814095683E+03  0.88614294090E+03  0.00000000000E+00 0.  1.
         21    1    1    2  502  501 -0.80021728942E+01 -0.15596668196E+02  0.27375304520E+02  0.32506893536E+02  0.00000000000E+00 0. -1.
<mgrwt>
<rscale>  1 0.30000000E+03</rscale>
<asrwt>0</asrwt>
<pdfrwt beam="1">  1        1 0.49696207E+00 0.30000000E+03</pdfrwt>
<pdfrwt beam="2">0</pdfrwt>
<totfact> 0.24042645E-01</totfact>
</mgrwt>
</event>
<event>
 6    1  0.5260809E-006  0.3000000E+03  0.7818608E-02  0.1093470E+00
          1   -1    0    0  502    0  0.00000000000E+00  0.00000000000E+00  0.12671068716E+03  0.12671068716E+03  0.00000000000E+00 0.  1.
         13   -1    0    0    0    0 -0.00000000000E+00 -0.00000000000E+00 -0.10000000000E+04  0.10000000000E+04  0.00000000000E+00 0.  1.
    9000005    2    1    2  501    0 -0.68212296860E+01 -0.19153858519E+02 -0.87947470140E+03  0.11054584284E+04  0.66943945735E+03 0.  0.
         13    1    3    3    0    0 -0.22317116981E+03  0.23918191072E+03 -0.36166514516E+03  0.48766282888E+03  0.00000000000E+00 0.  1.
          1    1    3    3  501    0  0.21634994012E+03 -0.25833576923E+03 -0.51780955624E+03  0.61779559952E+03  0.00000000000E+00 0.  1.
         21    1    1    2  502  501  0.68212296860E+01  0.19153858519E+02  0.61853885639E+01  0.21252258758E+02  0.00000000000E+00 0.  1.
<mgrwt>
<rscale>  1 0.30000000E+03</rscale>
<asrwt>0</asrwt>
<pdfrwt beam="1">  1        1 0.46076711E+00 0.30000000E+03</pdfrwt>
<pdfrwt beam="2">0</pdfrwt>
<totfact> 0.43544853E-01</totfact>
</mgrwt>
</event>
<event>
 6    1  0.5260809E-006  0.3000000E+03  0.7818608E-02  0.1093470E+00
          1   -1    0    0  502    0  0.00000000000E+00  0.00000000000E+00  0.92214234235E+02  0.92214234235E+02  0.00000000000E+00 0.  1.
         13   -1    0    0    0    0 -0.00000000000E+00 -0.00000000000E+00 -0.10000000000E+04  0.10000000000E+04  0.00000000000E+00 0.  1.
    9000005    2    1    2  501    0 -0.11382988593E+02 -0.73031541147E+01 -0.91121773345E+03  0.10782612098E+04  0.57632158581E+03 0.  0.
         13    1    3    3    0    0 -0.10856054272E+03 -0.27709217832E+02 -0.96077417839E+03  0.96728497044E+03  0.00000000000E+00 0.  1.
          1    1    3    3  501    0  0.97177554125E+02  0.20406063717E+02  0.49556444940E+02  0.11097623934E+03  0.00000000000E+00 0.  1.
         21    1    1    2  502  501  0.11382988593E+02  0.73031541147E+01  0.34319676808E+01  0.13953024457E+02  0.00000000000E+00 0.  1.
<mgrwt>
<rscale>  1 0.30000000E+03</rscale>
<asrwt>0</asrwt>
<pdfrwt beam="1">  1        1 0.33532520E+00 0.30000000E+03</pdfrwt>
<pdfrwt beam="2">0</pdfrwt>
<totfact> 0.23382615E+00</totfact>
</mgrwt>
</event>
<event>
 6    1  0.5260809E-006  0.3000000E+03  0.7818608E-02  0.1093470E+00
          1   -1    0    0  502    0  0.00000000000E+00  0.00000000000E+00  0.11402268450E+03  0.11402268450E+03  0.00000000000E+00 0.  1.
         13   -1    0    0    0    0 -0.00000000000E+00 -0.00000000000E+00 -0.10000000000E+04  0.10000000000E+04  0.00000000000E+00 0.  1.
    9000005    2    1    2  501    0 -0.56903549793E+01 -0.10421787248E+02 -0.88800486358E+03  0.11019767416E+04  0.65242555706E+03 0.  0.
         13    1    3    3    0    0 -0.12196181198E+03 -0.30080935284E+03 -0.33385975805E+03  0.46564287644E+03  0.00000000000E+00 0.  1.
          1    1    3    3  501    0  0.11627145700E+03  0.29038756559E+03 -0.55414510553E+03  0.63633386516E+03  0.00000000000E+00 0.  1.
         21    1    1    2  502  501  0.56903549793E+01  0.10421787248E+02  0.20275480779E+01  0.12045942904E+02  0.00000000000E+00 0. -1.
<mgrwt>
<rscale>  1 0.30000000E+03</rscale>
<asrwt>0</asrwt>
<pdfrwt beam="1">  1        1 0.41462882E+00 0.30000000E+03</pdfrwt>
<pdfrwt beam="2">0</pdfrwt>
<totfact> 0.86463296E-01</totfact>
</mgrwt>
</event>
<event>
 6    1  0.5260809E-006  0.3000000E+03  0.7818608E-02  0.1093470E+00
          1   -1    0    0  502    0  0.00000000000E+00  0.00000000000E+00  0.17329492393E+03  0.17329492393E+03  0.00000000000E+00 0.  1.
         13   -1    0    0    0    0 -0.00000000000E+00 -0.00000000000E+00 -0.10000000000E+04  0.10000000000E+04  0.00000000000E+00 0.  1.
    9000005    2    1    2  501    0  0.39482055206E+02 -0.45716010214E+02 -0.88665924710E+03  0.10881874102E+04  0.62796371943E+03 0.  0.
         13    1    3    3    0    0 -0.17622865960E+03 -0.25308730181E+03 -0.59584898102E+03  0.67092900593E+03  0.00000000000E+00 0.  1.
          1    1    3    3  501    0  0.21571071481E+03  0.20737129160E+03 -0.29081026608E+03  0.41725840425E+03  0.00000000000E+00 0.  1.
         21    1    1    2  502  501 -0.39482055206E+02  0.45716010214E+02  0.59954171035E+02  0.85107513756E+02  0.00000000000E+00 0.  1.
<mgrwt>
<rscale>  1 0.30000000E+03</rscale>
<asrwt>0</asrwt>
<pdfrwt beam="1">  1        1 0.63016469E+00 0.30000000E+03</pdfrwt>
<pdfrwt beam="2">0</pdfrwt>
<totfact> 0.43541189E-02</totfact>
</mgrwt>
</event>
<event>
 6    1  0.5260809E-006  0.3000000E+03  0.7818608E-02  0.1093470E+00
          1   -1    0    0  502    0  0.00000000000E+00  0.00000000000E+00  0.14400911515E+03  0.14400911515E+03  0.00000000000E+00 0.  1.
         13   -1    0    0    0    0 -0.00000000000E+00 -0.00000000000E+00 -0.10000000000E+04  0.10000000000E+04  0.00000000000E+00 0.  1.
    9000005    2    1    2  501    0  0.99463472775E+01  0.21884669870E+02 -0.89047756728E+03  0.11019710388E+04  0.64870024194E+03 0.  0.
         13    1    3    3    0    0 -0.14327567163E+03 -0.19928806396E+03 -0.76814236124E+03  0.80640333435E+03  0.00000000000E+00 0.  1.
          3    1    3    3  501    0  0.15322201891E+03  0.22117273383E+03 -0.12233520604E+03  0.29556770444E+03  0.00000000000E+00 0.  1.
         21    1    1    2  502  501 -0.99463472775E+01 -0.21884669870E+02  0.34486682431E+02  0.42038076366E+02  0.00000000000E+00 0. -1.
<mgrwt>
<rscale>  1 0.30000000E+03</rscale>
<asrwt>0</asrwt>
<pdfrwt beam="1">  1        1 0.52367061E+00 0.30000000E+03</pdfrwt>
<pdfrwt beam="2">0</pdfrwt>
<totfact> 0.15253903E-01</totfact>
</mgrwt>
</event>
<event>
 6    1  0.5260809E-006  0.3000000E+03  0.7818608E-02  0.1093470E+00
          1   -1    0    0  502    0  0.00000000000E+00  0.00000000000E+00  0.14962872669E+03  0.14962872669E+03  0.00000000000E+00 0.  1.
         13   -1    0    0    0    0 -0.00000000000E+00 -0.00000000000E+00 -0.10000000000E+04  0.10000000000E+04  0.00000000000E+00 0.  1.
    9000005    2    1    2  501    0 -0.15072464871E+02  0.10295667273E+02 -0.89648167662E+03  0.11000369002E+04  0.63723512562E+03 0.  0.
         13    1    3    3    0    0  0.17426529719E+03  0.15217452024E+02  0.88044519171E+01  0.17514988730E+03  0.00000000000E+00 0.  1.
          1    1    3    3  501    0 -0.18933776206E+03 -0.49217847511E+01 -0.90528612853E+03  0.92488701289E+03  0.00000000000E+00 0.  1.
         21    1    1    2  502  501  0.15072464871E+02 -0.10295667273E+02  0.46110403307E+02  0.49591826494E+02  0.00000000000E+00 0. -1.
<mgrwt>
<rscale>  1 0.30000000E+03</rscale>
<asrwt>0</asrwt>
<pdfrwt beam="1">  1        1 0.54410561E+00 0.30000000E+03</pdfrwt>
<pdfrwt beam="2">0</pdfrwt>
<totfact> 0.10768526E-01</totfact>
</mgrwt>
</event>
<event>
 6    1  0.5260809E-006  0.3000000E+03  0.7818608E-02  0.1093470E+00
          1   -1    0    0  502    0  0.00000000000E+00  0.00000000000E+00  0.10966874249E+03  0.10966874249E+03  0.00000000000E+00 0.  1.
         13   -1    0    0    0    0 -0.00000000000E+00 -0.00000000000E+00 -0.10000000000E+04  0.10000000000E+04  0.00000000000E+00 0.  1.
    9000005    2    1    2  501    0 -0.10688768260E+02  0.29709190565E-01 -0.88840409794E+03  0.10988075918E+04  0.64653076646E+03 0.  0.
         13    1    3    3    0    0 -0.27568858977E+02  0.23300239962E+03 -0.65795788972E+02  0.24367857120E+03  0.00000000000E+00 0.  1.
          1    1    3    3  501    0  0.16880090718E+02 -0.23297269043E+03 -0.82260830897E+03  0.85512902063E+03  0.00000000000E+00 0.  1.
         21    1    1    2  502  501  0.10688768260E+02 -0.29709190565E-01 -0.19271595747E+01  0.10861150656E+02  0.00000000000E+00 0.  1.
<mgrwt>
<rscale>  1 0.30000000E+03</rscale>
<asrwt>0</asrwt>
<pdfrwt beam="1">  1        1 0.39879627E+00 0.30000000E+03</pdfrwt>
<pdfrwt beam="2">0</pdfrwt>
<totfact> 0.10699158E+00</totfact>
</mgrwt>
</event>
<event>
 6    1  0.5260809E-006  0.3000000E+03  0.7818608E-02  0.1093470E+00
          1   -1    0    0  502    0  0.00000000000E+00  0.00000000000E+00  0.13202719777E+03  0.13202719777E+03  0.00000000000E+00 0.  1.
         13   -1    0    0    0    0 -0.00000000000E+00 -0.00000000000E+00 -0.10000000000E+04  0.10000000000E+04  0.00000000000E+00 0.  1.
    9000005    2    1    2  501    0 -0.68239576072E+02  0.22026463834E+01 -0.82083590302E+03  0.10490610682E+04  0.64968919774E+03 0.  0.
         13    1    3    3    0    0  0.20149870061E+03 -0.14324101507E+03 -0.65611151307E+03  0.70114337502E+03  0.00000000000E+00 0.  1.
          3    1    3    3  501    0 -0.26973827668E+03  0.14544366145E+03 -0.16472438995E+03  0.34791769315E+03  0.00000000000E+00 0.  1.
         21    1    1    2  502  501  0.68239576072E+02 -0.22026463834E+01 -0.47136899211E+02  0.82966129600E+02  0.00000000000E+00 0. -1.
<mgrwt>
<rscale>  1 0.30000000E+03</rscale>
<asrwt>0</asrwt>
<pdfrwt beam="1">  1        1 0.48009991E+00 0.30000000E+03</pdfrwt>
<pdfrwt beam="2">0</pdfrwt>
<totfact> 0.31886974E-01</totfact>
</mgrwt>
</event>
<event>
 6    1  0.5260809E-006  0.3000000E+03  0.7818608E-02  0.1093470E+00
          1   -1    0    0  502    0  0.00000000000E+00  0.00000000000E+00  0.11317365677E+03  0.11317365677E+03  0.00000000000E+00 0.  1.
         13   -1    0    0    0    0 -0.00000000000E+00 -0.00000000000E+00 -0.10000000000E+04  0.10000000000E+04  0.00000000000E+00 0.  1.
    9000005    2    1    2  501    0 -0.65288832633E+00 -0.14535278406E+02 -0.87292187033E+03  0.10930481767E+04  0.65768535357E+03 0.  0.
         13    1    3    3    0    0 -0.10559581125E+03  0.28715227023E+03 -0.25840935988E+03  0.40047758854E+03  0.00000000000E+00 0.  1.
          3    1    3    3  501    0  0.10494292292E+03 -0.30168754864E+03 -0.61451251044E+03  0.69257058815E+03  0.00000000000E+00 0.  1.
         21    1    1    2  502  501  0.65288832633E+00  0.14535278406E+02 -0.13904472906E+02  0.20125480076E+02  0.00000000000E+00 0. -1.
<mgrwt>
<rscale>  1 0.30000000E+03</rscale>
<asrwt>0</asrwt>
<pdfrwt beam="1">  1        1 0.41154144E+00 0.30000000E+03</pdfrwt>
<pdfrwt beam="2">0</pdfrwt>
<totfact> 0.90216592E-01</totfact>
</mgrwt>
</event>
<event>
 6    1  0.5260809E-006  0.3000000E+03  0.7818608E-02  0.1093470E+00
          1   -1    0    0  502    0  0.00000000000E+00  0.00000000000E+00  0.11138446002E+03  0.11138446002E+03  0.00000000000E+00 0.  1.
         13   -1    0    0    0    0 -0.00000000000E+00 -0.00000000000E+00 -0.10000000000E+04  0.10000000000E+04  0.00000000000E+00 0.  1.
    9000005    2    1    2  501    0 -0.29382397796E+01  0.12749105908E+02 -0.88010590636E+03  0.10957771919E+04  0.65266382992E+03 0.  0.
         13    1    3    3    0    0  0.35067224644E+01 -0.28990728005E+02 -0.98358117419E+03  0.98401457593E+03  0.00000000000E+00 0.  1.
          3    1    3    3  501    0 -0.64449622440E+01  0.41739833913E+02  0.10347526783E+03  0.11176261596E+03  0.00000000000E+00 0.  1.
         21    1    1    2  502  501  0.29382397796E+01 -0.12749105908E+02 -0.85096336174E+01  0.15607268139E+02  0.00000000000E+00 0. -1.
<mgrwt>
<rscale>  1 0.30000000E+03</rscale>
<asrwt>0</asrwt>
<pdfrwt beam="1">  1        1 0.40503525E+00 0.30000000E+03</pdfrwt>
<pdfrwt beam="2">0</pdfrwt>
<totfact> 0.98519972E-01</totfact>
</mgrwt>
</event>
<event>
 6    1  0.5260809E-006  0.3000000E+03  0.7818608E-02  0.1093470E+00
          1   -1    0    0  502    0  0.00000000000E+00  0.00000000000E+00  0.12476308358E+03  0.12476308358E+03  0.00000000000E+00 0.  1.
         13   -1    0    0    0    0 -0.00000000000E+00 -0.00000000000E+00 -0.10000000000E+04  0.10000000000E+04  0.00000000000E+00 0.  1.
    9000005    2    1    2  501    0 -0.43048485702E+02 -0.55388137938E+01 -0.87375943912E+03  0.10813345962E+04  0.63556675561E+03 0.  0.
         13    1    3    3    0    0  0.22754326087E+03 -0.22756957168E+02 -0.74851333910E+03  0.78266597822E+03  0.00000000000E+00 0.  1.
          3    1    3    3  501    0 -0.27059174657E+03  0.17218143374E+02 -0.12524610002E+03  0.29866861794E+03  0.00000000000E+00 0.  1.
         21    1    1    2  502  501  0.43048485702E+02  0.55388137938E+01 -0.14774773059E+01  0.43428487410E+02  0.00000000000E+00 0.  1.
<mgrwt>
<rscale>  1 0.30000000E+03</rscale>
<asrwt>0</asrwt>
<pdfrwt beam="1">  1        1 0.45368490E+00 0.30000000E+03</pdfrwt>
<pdfrwt beam="2">0</pdfrwt>
<totfact> 0.48603396E-01</totfact>
</mgrwt>
</event>
<event>
 6    1  0.5260809E-006  0.3000000E+03  0.7818608E-02  0.1093470E+00
          1   -1    0    0  502    0  0.00000000000E+00  0.00000000000E+00  0.11175206610E+03  0.11175206610E+03  0.00000000000E+00 0.  1.
         13   -1    0    0    0    0 -0.00000000000E+00 -0.00000000000E+00 -0.10000000000E+04  0.10000000000E+04  0.00000000000E+00 0.  1.
    9000005    2    1    2  501    0  0.70581951055E+01 -0.81306133152E+01 -0.88574287935E+03  0.11006976421E+04  0.65335972181E+03 0.  0.
         13    1    3    3    0    0  0.21387562723E+03  0.13664014727E+03 -0.95601351663E+02  0.27120643836E+03  0.00000000000E+00 0.  1.
          3    1    3    3  501    0 -0.20681743213E+03 -0.14477076058E+03 -0.79014152769E+03  0.82949120377E+03  0.00000000000E+00 0.  1.
         21    1    1    2  502  501 -0.70581951055E+01  0.81306133152E+01 -0.25050545413E+01  0.11054423969E+02  0.00000000000E+00 0.  1.
<mgrwt>
<rscale>  1 0.30000000E+03</rscale>
<asrwt>0</asrwt>
<pdfrwt beam="1">  1        1 0.40637201E+00 0.30000000E+03</pdfrwt>
<pdfrwt beam="2">0</pdfrwt>
<totfact> 0.96769654E-01</totfact>
</mgrwt>
</event>
<event>
 6    1  0.5260809E-006  0.3000000E+03  0.7818608E-02  0.1093470E+00
          1   -1    0    0  502    0  0.00000000000E+00  0.00000000000E+00  0.10848288440E+03  0.10848288440E+03  0.00000000000E+00 0.  1.
         13   -1    0    0    0    0 -0.00000000000E+00 -0.00000000000E+00 -0.10000000000E+04  0.10000000000E+04  0.00000000000E+00 0.  1.
    9000005    2    1    2  501    0 -0.24339241384E+01 -0.92828329691E+01 -0.88896955810E+03  0.10985538853E+04  0.64533841404E+03 0.  0.
         13    1    3    3    0    0 -0.40353105522E+02  0.15744381890E+03  0.28737699983E+02  0.16505388404E+03  0.00000000000E+00 0.  1.
          3    1    3    3  501    0  0.37919181384E+02 -0.16672665187E+03 -0.91770725808E+03  0.93350000123E+03  0.00000000000E+00 0.  1.
         21    1    1    2  502  501  0.24339241384E+01  0.92828329691E+01 -0.25475575043E+01  0.99289991379E+01  0.00000000000E+00 0. -1.
<mgrwt>
<rscale>  1 0.30000000E+03</rscale>
<asrwt>0</asrwt>
<pdfrwt beam="1">  1        1 0.39448405E+00 0.30000000E+03</pdfrwt>
<pdfrwt beam="2">0</pdfrwt>
<totfact> 0.11316801E+00</totfact>
</mgrwt>
</event>
<event>
 6    1  0.5260809E-006  0.3000000E+03  0.7818608E-02  0.1093470E+00
          1   -1    0    0  502    0  0.00000000000E+00  0.00000000000E+00  0.12528416574E+03  0.12528416574E+03  0.00000000000E+00 0.  1.
         13   -1    0    0    0    0 -0.00000000000E+00 -0.00000000000E+00 -0.10000000000E+04  0.10000000000E+04  0.00000000000E+00 0.  1.
    9000005    2    1    2  501    0  0.47990283657E+02 -0.12176273397E+02 -0.84397275830E+03  0.10670049612E+04  0.65096715858E+03 0.  0.
         13    1    3    3    0    0  0.56310488918E+02  0.26802490856E+03 -0.70042034487E+03  0.75206175430E+03  0.00000000000E+00 0.  1.
          3    1    3    3  501    0 -0.83202052609E+01 -0.28020118195E+03 -0.14355241343E+03  0.31494320692E+03  0.00000000000E+00 0.  1.
         21    1    1    2  502  501 -0.47990283657E+02  0.12176273397E+02 -0.30743075966E+02  0.58279204517E+02  0.00000000000E+00 0. -1.
<mgrwt>
<rscale>  1 0.30000000E+03</rscale>
<asrwt>0</asrwt>
<pdfrwt beam="1">  1        1 0.45557975E+00 0.30000000E+03</pdfrwt>
<pdfrwt beam="2">0</pdfrwt>
<totfact> 0.47199017E-01</totfact>
</mgrwt>
</event>
<event>
 6    1  0.5260809E-006  0.3000000E+03  0.7818608E-02  0.1093470E+00
          1   -1    0    0  502    0  0.00000000000E+00  0.00000000000E+00  0.14828317046E+03  0.14828317046E+03  0.00000000000E+00 0.  1.
         13   -1    0    0    0    0 -0.00000000000E+00 -0.00000000000E+00 -0.10000000000E+04  0.10000000000E+04  0.00000000000E+00 0.  1.
    9000005    2    1    2  501    0  0.40859369970E+02  0.14056287901E+02 -0.73352325438E+03  0.10224388676E+04  0.71095555838E+03 0.  0.
         13    1    3    3    0    0  0.85929821595E+02 -0.78354578620E+02  0.11744748816E+03  0.16527942009E+03  0.00000000000E+00 0.  1.
          1    1    3    3  501    0 -0.45070451624E+02  0.92410866521E+02 -0.85097074254E+03  0.85715944755E+03  0.00000000000E+00 0.  1.
         21    1    1    2  502  501 -0.40859369970E+02 -0.14056287901E+02 -0.11819357516E+03  0.12584430282E+03  0.00000000000E+00 0. -1.
<mgrwt>
<rscale>  1 0.30000000E+03</rscale>
<asrwt>0</asrwt>
<pdfrwt beam="1">  1        1 0.53921267E+00 0.30000000E+03</pdfrwt>
<pdfrwt beam="2">0</pdfrwt>
<totfact> 0.11650121E-01</totfact>
</mgrwt>
</event>
<event>
 6    1  0.5260809E-006  0.3000000E+03  0.7818608E-02  0.1093470E+00
          1   -1    0    0  502    0  0.00000000000E+00  0.00000000000E+00  0.12179385343E+03  0.12179385343E+03  0.00000000000E+00 0.  1.
         13   -1    0    0    0    0 -0.00000000000E+00 -0.00000000000E+00 -0.10000000000E+04  0.10000000000E+04  0.00000000000E+00 0.  1.
    9000005    2    1    2  501    0 -0.29982273633E+02  0.13761473539E+02 -0.86615284777E+03  0.10866712553E+04  0.65539709073E+03 0.  0.
         13    1    3    3    0    0  0.25855999314E+03 -0.14233404941E+02 -0.71350178194E+03  0.75903929589E+03  0.00000000000E+00 0.  1.
          3    1    3    3  501    0 -0.28854226677E+03  0.27994878479E+02 -0.15265106582E+03  0.32763195942E+03  0.00000000000E+00 0.  1.
         21    1    1    2  502  501  0.29982273633E+02 -0.13761473539E+02 -0.12053298809E+02  0.35122598115E+02  0.00000000000E+00 0.  1.
<mgrwt>
<rscale>  1 0.30000000E+03</rscale>
<asrwt>0</asrwt>
<pdfrwt beam="1">  1        1 0.44288767E+00 0.30000000E+03</pdfrwt>
<pdfrwt beam="2">0</pdfrwt>
<totfact> 0.57390174E-01</totfact>
</mgrwt>
</event>
<event>
 6    1  0.5260809E-006  0.3000000E+03  0.7818608E-02  0.1093470E+00
          1   -1    0    0  502    0  0.00000000000E+00  0.00000000000E+00  0.11472231787E+03  0.11472231787E+03  0.00000000000E+00 0.  1.
         13   -1    0    0    0    0 -0.00000000000E+00 -0.00000000000E+00 -0.10000000000E+04  0.10000000000E+04  0.00000000000E+00 0.  1.
    9000005    2    1    2  501    0 -0.19908226478E+02  0.89379811447E+01 -0.89052109134E+03  0.10922786477E+04  0.63211439251E+03 0.  0.
         13    1    3    3    0    0 -0.12357216426E+03  0.33638317458E+02 -0.95775251237E+03  0.96627712957E+03  0.00000000000E+00 0.  1.
          3    1    3    3  501    0  0.10366393778E+03 -0.24700336313E+02  0.67231421027E+02  0.12600151818E+03  0.00000000000E+00 0.  1.
         21    1    1    2  502  501  0.19908226478E+02 -0.89379811447E+01  0.52434092174E+01  0.22443670124E+02  0.00000000000E+00 0.  1.
<mgrwt>
<rscale>  1 0.30000000E+03</rscale>
<asrwt>0</asrwt>
<pdfrwt beam="1">  1        1 0.41717294E+00 0.30000000E+03</pdfrwt>
<pdfrwt beam="2">0</pdfrwt>
<totfact> 0.83457940E-01</totfact>
</mgrwt>
</event>
<event>
 6    1  0.5260809E-006  0.3000000E+03  0.7818608E-02  0.1093470E+00
          1   -1    0    0  502    0  0.00000000000E+00  0.00000000000E+00  0.10747202696E+03  0.10747202696E+03  0.00000000000E+00 0.  1.
         13   -1    0    0    0    0 -0.00000000000E+00 -0.00000000000E+00 -0.10000000000E+04  0.10000000000E+04  0.00000000000E+00 0.  1.
    9000005    2    1    2  501    0  0.13809316329E+02 -0.52036347570E+01 -0.89236753852E+03  0.10927139522E+04  0.63046505252E+03 0.  0.
         13    1    3    3    0    0  0.15645054058E+03 -0.26413302459E+03 -0.29282653391E+03  0.42425276109E+03  0.00000000000E+00 0.  1.
          1    1    3    3  501    0 -0.14264122426E+03  0.25892938984E+03 -0.59954100461E+03  0.66846119109E+03  0.00000000000E+00 0.  1.
         21    1    1    2  502  501 -0.13809316329E+02  0.52036347570E+01 -0.16043451838E+00  0.14758074786E+02  0.00000000000E+00 0.  1.
<mgrwt>
<rscale>  1 0.30000000E+03</rscale>
<asrwt>0</asrwt>
<pdfrwt beam="1">  1        1 0.39080819E+00 0.30000000E+03</pdfrwt>
<pdfrwt beam="2">0</pdfrwt>
<totfact> 0.11867703E+00</totfact>
</mgrwt>
</event>
<event>
 6    1  0.5260809E-006  0.3000000E+03  0.7818608E-02  0.1093470E+00
          1   -1    0    0  502    0  0.00000000000E+00  0.00000000000E+00  0.12882628879E+03  0.12882628879E+03  0.00000000000E+00 0.  1.
         13   -1    0    0    0    0 -0.00000000000E+00 -0.00000000000E+00 -0.10000000000E+04  0.10000000000E+04  0.00000000000E+00 0.  1.
    9000005    2    1    2  501    0  0.11657805801E+02  0.12089095220E+02 -0.89416263041E+03  0.11003562859E+04  0.64107339331E+03 0.  0.
         13    1    3    3    0    0  0.15295898077E+03 -0.18264441794E+03 -0.79875049342E+02  0.25126769930E+03  0.00000000000E+00 0.  1.
          3    1    3    3  501    0 -0.14130117497E+03  0.19473351316E+03 -0.81428758107E+03  0.84908858659E+03  0.00000000000E+00 0.  1.
         21    1    1    2  502  501 -0.11657805801E+02 -0.12089095220E+02  0.22988919199E+02  0.28470002903E+02  0.00000000000E+00 0.  1.
<mgrwt>
<rscale>  1 0.30000000E+03</rscale>
<asrwt>0</asrwt>
<pdfrwt beam="1">  1        1 0.46846022E+00 0.30000000E+03</pdfrwt>
<pdfrwt beam="2">0</pdfrwt>
<totfact> 0.38548355E-01</totfact>
</mgrwt>
</event>
<event>
 6    1  0.5260809E-006  0.3000000E+03  0.7818608E-02  0.1093470E+00
          1   -1    0    0  502    0  0.00000000000E+00  0.00000000000E+00  0.11994969444E+03  0.11994969444E+03  0.00000000000E+00 0.  1.
         13   -1    0    0    0    0 -0.00000000000E+00 -0.00000000000E+00 -0.10000000000E+04  0.10000000000E+04  0.00000000000E+00 0.  1.
    9000005    2    1    2  501    0 -0.10854092573E+01 -0.13328641077E+02 -0.88139203139E+03  0.11065097906E+04  0.66882970402E+03 0.  0.
         13    1    3    3    0    0  0.81546484295E+02  0.26160915927E+03 -0.73465442066E+03  0.78409584816E+03  0.00000000000E+00 0.  1.
          1    1    3    3  501    0 -0.82631893553E+02 -0.27493780035E+03 -0.14673761073E+03  0.32241394247E+03  0.00000000000E+00 0.  1.
         21    1    1    2  502  501  0.10854092573E+01  0.13328641077E+02  0.13417258244E+01  0.13439903809E+02  0.00000000000E+00 0. -1.
<mgrwt>
<rscale>  1 0.30000000E+03</rscale>
<asrwt>0</asrwt>
<pdfrwt beam="1">  1        1 0.43618163E+00 0.30000000E+03</pdfrwt>
<pdfrwt beam="2">0</pdfrwt>
<totfact> 0.63449360E-01</totfact>
</mgrwt>
</event>
<event>
 6    1  0.5260809E-006  0.3000000E+03  0.7818608E-02  0.1093470E+00
          1   -1    0    0  502    0  0.00000000000E+00  0.00000000000E+00  0.13892095681E+03  0.13892095681E+03  0.00000000000E+00 0.  1.
         13   -1    0    0    0    0 -0.00000000000E+00 -0.00000000000E+00 -0.10000000000E+04  0.10000000000E+04  0.00000000000E+00 0.  1.
    9000005    2    1    2  501    0  0.22536230575E+02 -0.21932832380E+02 -0.88620466336E+03  0.10986689058E+04  0.64863373973E+03 0.  0.
         13    1    3    3    0    0 -0.25488854921E+03 -0.39109507536E+02 -0.74199904547E+03  0.78553186414E+03  0.00000000000E+00 0.  1.
          1    1    3    3  501    0  0.27742477979E+03  0.17176675156E+02 -0.14420561789E+03  0.31313704163E+03  0.00000000000E+00 0.  1.
         21    1    1    2  502  501 -0.22536230575E+02  0.21932832380E+02  0.25125620164E+02  0.40252051046E+02  0.00000000000E+00 0. -1.
<mgrwt>
<rscale>  1 0.30000000E+03</rscale>
<asrwt>0</asrwt>
<pdfrwt beam="1">  1        1 0.50516818E+00 0.30000000E+03</pdfrwt>
<pdfrwt beam="2">0</pdfrwt>
<totfact> 0.20928670E-01</totfact>
</mgrwt>
</event>
<event>
 6    1  0.5260809E-006  0.3000000E+03  0.7818608E-02  0.1093470E+00
          1   -1    0    0  502    0  0.00000000000E+00  0.00000000000E+00  0.14992382275E+03  0.14992382275E+03  0.00000000000E+00 0.  1.
         13   -1    0    0    0    0 -0.00000000000E+00 -0.00000000000E+00 -0.10000000000E+04  0.10000000000E+04  0.00000000000E+00 0.  1.
    9000005    2    1    2  501    0  0.44176875812E+02 -0.97046890928E+02 -0.78492477108E+03  0.10249662255E+04  0.65044536411E+03 0.  0.
         13    1    3    3    0    0 -0.11337076063E+03  0.23988920558E+03 -0.20195307882E+03  0.33344385789E+03  0.00000000000E+00 0.  1.
          1    1    3    3  501    0  0.15754763644E+03 -0.33693609651E+03 -0.58297169226E+03  0.69152236757E+03  0.00000000000E+00 0.  1.
         21    1    1    2  502  501 -0.44176875812E+02  0.97046890928E+02 -0.65151406164E+02  0.12495759729E+03  0.00000000000E+00 0.  1.
<mgrwt>
<rscale>  1 0.30000000E+03</rscale>
<asrwt>0</asrwt>
<pdfrwt beam="1">  1        1 0.54517869E+00 0.30000000E+03</pdfrwt>
<pdfrwt beam="2">0</pdfrwt>
<totfact> 0.10590307E-01</totfact>
</mgrwt>
</event>
<event>
 6    1  0.5260809E-006  0.3000000E+03  0.7818608E-02  0.1093470E+00
          1   -1    0    0  502    0  0.00000000000E+00  0.00000000000E+00  0.12121537143E+03  0.12121537143E+03  0.00000000000E+00 0.  1.
         13   -1    0    0    0    0 -0.00000000000E+00 -0.00000000000E+00 -0.10000000000E+04  0.10000000000E+04  0.00000000000E+00 0.  1.
    9000005    2    1    2  501    0 -0.35849412736E+02  0.12458444239E+02 -0.86841704940E+03  0.10818722663E+04  0.64409551744E+03 0.  0.
         13    1    3    3    0    0  0.25436520316E+03 -0.15806018321E+03 -0.31901675426E+03  0.43755727350E+03  0.00000000000E+00 0.  1.
          3    1    3    3  501    0 -0.29021461590E+03  0.17051862745E+03 -0.54940029514E+03  0.64431499276E+03  0.00000000000E+00 0.  1.
         21    1    1    2  502  501  0.35849412736E+02 -0.12458444239E+02 -0.10367579166E+02  0.39343105166E+02  0.00000000000E+00 0.  1.
<mgrwt>
<rscale>  1 0.30000000E+03</rscale>
<asrwt>0</asrwt>
<pdfrwt beam="1">  1        1 0.44078410E+00 0.30000000E+03</pdfrwt>
<pdfrwt beam="2">0</pdfrwt>
<totfact> 0.59243153E-01</totfact>
</mgrwt>
</event>
<event>
 6    1  0.5260809E-006  0.3000000E+03  0.7818608E-02  0.1093470E+00
          1   -1    0    0  502    0  0.00000000000E+00  0.00000000000E+00  0.12180119773E+03  0.12180119773E+03  0.00000000000E+00 0.  1.
         13   -1    0    0    0    0 -0.00000000000E+00 -0.00000000000E+00 -0.10000000000E+04  0.10000000000E+04  0.00000000000E+00 0.  1.
    9000005    2    1    2  501    0 -0.23651809205E+01  0.15821637767E+02 -0.89256190723E+03  0.11003019632E+04  0.64322759084E+03 0.  0.
         13    1    3    3    0    0  0.14666672334E+03  0.56872861296E+02 -0.92838919066E+03  0.94162207888E+03  0.00000000000E+00 0.  1.
          3    1    3    3  501    0 -0.14903190427E+03 -0.41051223529E+02  0.35827283433E+02  0.15867988430E+03  0.00000000000E+00 0.  1.
         21    1    1    2  502  501  0.23651809205E+01 -0.15821637767E+02  0.14363104958E+02  0.21499234555E+02  0.00000000000E+00 0. -1.
<mgrwt>
<rscale>  1 0.30000000E+03</rscale>
<asrwt>0</asrwt>
<pdfrwt beam="1">  1        1 0.44291438E+00 0.30000000E+03</pdfrwt>
<pdfrwt beam="2">0</pdfrwt>
<totfact> 0.57366917E-01</totfact>
</mgrwt>
</event>
<event>
 6    1  0.5260809E-006  0.3000000E+03  0.7818608E-02  0.1093470E+00
          1   -1    0    0  502    0  0.00000000000E+00  0.00000000000E+00  0.11484678647E+03  0.11484678647E+03  0.00000000000E+00 0.  1.
         13   -1    0    0    0    0 -0.00000000000E+00 -0.00000000000E+00 -0.10000000000E+04  0.10000000000E+04  0.00000000000E+00 0.  1.
    9000005    2    1    2  501    0  0.88792236723E+01  0.12278839118E+02 -0.88561842146E+03  0.10996867429E+04  0.65173716600E+03 0.  0.
         13    1    3    3    0    0  0.26441519583E+03 -0.13978183376E+03 -0.66582590713E+03  0.72991677296E+03  0.00000000000E+00 0.  1.
          3    1    3    3  501    0 -0.25553597216E+03  0.15206067288E+03 -0.21979251433E+03  0.36976996993E+03  0.00000000000E+00 0.  1.
         21    1    1    2  502  501 -0.88792236723E+01 -0.12278839118E+02  0.46520792601E+00  0.15160043586E+02  0.00000000000E+00 0. -1.
<mgrwt>
<rscale>  1 0.30000000E+03</rscale>
<asrwt>0</asrwt>
<pdfrwt beam="1">  1        1 0.41762556E+00 0.30000000E+03</pdfrwt>
<pdfrwt beam="2">0</pdfrwt>
<totfact> 0.82930835E-01</totfact>
</mgrwt>
</event>
<event>
 6    1  0.5260809E-006  0.3000000E+03  0.7818608E-02  0.1093470E+00
          1   -1    0    0  502    0  0.00000000000E+00  0.00000000000E+00  0.10968273797E+03  0.10968273797E+03  0.00000000000E+00 0.  1.
         13   -1    0    0    0    0 -0.00000000000E+00 -0.00000000000E+00 -0.10000000000E+04  0.10000000000E+04  0.00000000000E+00 0.  1.
    9000005    2    1    2  501    0 -0.76285744185E+01 -0.11928443476E+02 -0.88444738823E+03  0.10943550398E+04  0.64433321176E+03 0.  0.
         13    1    3    3    0    0  0.14875457248E+03 -0.24195827409E+03 -0.17818715864E+03  0.33529448659E+03  0.00000000000E+00 0.  1.
          1    1    3    3  501    0 -0.15638314690E+03  0.23002983061E+03 -0.70626022959E+03  0.75906055326E+03  0.00000000000E+00 0.  1.
         21    1    1    2  502  501  0.76285744185E+01  0.11928443476E+02 -0.58698737918E+01  0.15327698123E+02  0.00000000000E+00 0.  1.
<mgrwt>
<rscale>  1 0.30000000E+03</rscale>
<asrwt>0</asrwt>
<pdfrwt beam="1">  1        1 0.39884716E+00 0.30000000E+03</pdfrwt>
<pdfrwt beam="2">0</pdfrwt>
<totfact> 0.10692037E+00</totfact>
</mgrwt>
</event>
<event>
 6    1  0.5260809E-006  0.3000000E+03  0.7818608E-02  0.1093470E+00
          1   -1    0    0  502    0  0.00000000000E+00  0.00000000000E+00  0.11047056298E+03  0.11047056298E+03  0.00000000000E+00 0.  1.
         13   -1    0    0    0    0 -0.00000000000E+00 -0.00000000000E+00 -0.10000000000E+04  0.10000000000E+04  0.00000000000E+00 0.  1.
    9000005    2    1    2  501    0  0.12554956302E+02  0.91537608964E+01 -0.89290388295E+03  0.10945707154E+04  0.63290306420E+03 0.  0.
         13    1    3    3    0    0 -0.17965936462E+03  0.13554151926E+03 -0.82436597191E+03  0.85453393518E+03  0.00000000000E+00 0.  1.
          3    1    3    3  501    0  0.19221432092E+03 -0.12638775837E+03 -0.68537911039E+02  0.24003678027E+03  0.00000000000E+00 0.  1.
         21    1    1    2  502  501 -0.12554956302E+02 -0.91537608964E+01  0.33744459309E+01  0.15899847535E+02  0.00000000000E+00 0.  1.
<mgrwt>
<rscale>  1 0.30000000E+03</rscale>
<asrwt>0</asrwt>
<pdfrwt beam="1">  1        1 0.40171199E+00 0.30000000E+03</pdfrwt>
<pdfrwt beam="2">0</pdfrwt>
<totfact> 0.10296987E+00</totfact>
</mgrwt>
</event>
<event>
 6    1  0.5260809E-006  0.3000000E+03  0.7818608E-02  0.1093470E+00
          1   -1    0    0  502    0  0.00000000000E+00  0.00000000000E+00  0.12991019856E+03  0.12991019856E+03  0.00000000000E+00 0.  1.
         13   -1    0    0    0    0 -0.00000000000E+00 -0.00000000000E+00 -0.10000000000E+04  0.10000000000E+04  0.00000000000E+00 0.  1.
    9000005    2    1    2  501    0 -0.11524107539E+02  0.35086646894E+01 -0.88228010986E+03  0.11127719547E+04  0.67801040935E+03 0.  0.
         13    1    3    3    0    0  0.43793720971E+02 -0.86916882483E+02  0.91294563328E+02  0.13344336533E+03  0.00000000000E+00 0.  1.
          3    1    3    3  501    0 -0.55317828510E+02  0.90425547173E+02 -0.97357467319E+03  0.97932858939E+03  0.00000000000E+00 0.  1.
         21    1    1    2  502  501  0.11524107539E+02 -0.35086646894E+01  0.12190308422E+02  0.17138243840E+02  0.00000000000E+00 0. -1.
<mgrwt>
<rscale>  1 0.30000000E+03</rscale>
<asrwt>0</asrwt>
<pdfrwt beam="1">  1        1 0.47240172E+00 0.30000000E+03</pdfrwt>
<pdfrwt beam="2">0</pdfrwt>
<totfact> 0.36171535E-01</totfact>
</mgrwt>
</event>
<event>
 6    1  0.5260809E-006  0.3000000E+03  0.7818608E-02  0.1093470E+00
          1   -1    0    0  502    0  0.00000000000E+00  0.00000000000E+00  0.12810911772E+03  0.12810911772E+03  0.00000000000E+00 0.  1.
         13   -1    0    0    0    0 -0.00000000000E+00 -0.00000000000E+00 -0.10000000000E+04  0.10000000000E+04  0.00000000000E+00 0.  1.
    9000005    2    1    2  501    0  0.12031034077E+02  0.21766839091E+02 -0.88633290300E+03  0.10993495449E+04  0.64989604240E+03 0.  0.
         13    1    3    3    0    0 -0.14748341893E+03  0.19017963623E+03 -0.82503829943E+03  0.85942297411E+03  0.00000000000E+00 0.  1.
          3    1    3    3  501    0  0.15951445301E+03 -0.16841279714E+03 -0.61294603567E+02  0.23992657082E+03  0.00000000000E+00 0.  1.
         21    1    1    2  502  501 -0.12031034077E+02 -0.21766839091E+02  0.14442020717E+02  0.28759572795E+02  0.00000000000E+00 0. -1.
<mgrwt>
<rscale>  1 0.30000000E+03</rscale>
<asrwt>0</asrwt>
<pdfrwt beam="1">  1        1 0.46585232E+00 0.30000000E+03</pdfrwt>
<pdfrwt beam="2">0</pdfrwt>
<totfact> 0.40189917E-01</totfact>
</mgrwt>
</event>
<event>
 6    1  0.5260809E-006  0.3000000E+03  0.7818608E-02  0.1093470E+00
          1   -1    0    0  502    0  0.00000000000E+00  0.00000000000E+00  0.12064694075E+03  0.12064694075E+03  0.00000000000E+00 0.  1.
         13   -1    0    0    0    0 -0.00000000000E+00 -0.00000000000E+00 -0.10000000000E+04  0.10000000000E+04  0.00000000000E+00 0.  1.
    9000005    2    1    2  501    0 -0.33205746733E+02 -0.18337379896E+02 -0.86290393209E+03  0.10793013859E+04  0.64718575739E+03 0.  0.
         13    1    3    3    0    0  0.27400641992E+03  0.98524014341E+02 -0.56536983702E+03  0.63594775900E+03  0.00000000000E+00 0.  1.
          1    1    3    3  501    0 -0.30721216665E+03 -0.11686139424E+03 -0.29753409507E+03  0.44335362695E+03  0.00000000000E+00 0.  1.
         21    1    1    2  502  501  0.33205746733E+02  0.18337379896E+02 -0.16449127162E+02  0.41345554802E+02  0.00000000000E+00 0.  1.
<mgrwt>
<rscale>  1 0.30000000E+03</rscale>
<asrwt>0</asrwt>
<pdfrwt beam="1">  1        1 0.43871707E+00 0.30000000E+03</pdfrwt>
<pdfrwt beam="2">0</pdfrwt>
<totfact> 0.61104979E-01</totfact>
</mgrwt>
</event>
<event>
 6    1  0.5260809E-006  0.3000000E+03  0.7818608E-02  0.1093470E+00
          1   -1    0    0  502    0  0.00000000000E+00  0.00000000000E+00  0.11101621774E+03  0.11101621774E+03  0.00000000000E+00 0.  1.
         13   -1    0    0    0    0 -0.00000000000E+00 -0.00000000000E+00 -0.10000000000E+04  0.10000000000E+04  0.00000000000E+00 0.  1.
    9000005    2    1    2  501    0 -0.85190912086E+01  0.75355746639E+01 -0.88805331775E+03  0.10996045761E+04  0.64835342895E+03 0.  0.
         13    1    3    3    0    0 -0.26621928156E+03 -0.70552778805E+00 -0.12488042138E+03  0.29405496644E+03  0.00000000000E+00 0.  1.
          3    1    3    3  501    0  0.25770019035E+03  0.82411024519E+01 -0.76317289637E+03  0.80554960967E+03  0.00000000000E+00 0.  1.
         21    1    1    2  502  501  0.85190912086E+01 -0.75355746639E+01 -0.93046451664E+00  0.11411641633E+02  0.00000000000E+00 0. -1.
<mgrwt>
<rscale>  1 0.30000000E+03</rscale>
<asrwt>0</asrwt>
<pdfrwt beam="1">  1        1 0.40369619E+00 0.30000000E+03</pdfrwt>
<pdfrwt beam="2">0</pdfrwt>
<totfact> 0.10029657E+00</totfact>
</mgrwt>
</event>
<event>
 6    1  0.5260809E-006  0.3000000E+03  0.7818608E-02  0.1093470E+00
          1   -1    0    0  502    0  0.00000000000E+00  0.00000000000E+00  0.14364486184E+03  0.14364486184E+03  0.00000000000E+00 0.  1.
         13   -1    0    0    0    0 -0.00000000000E+00 -0.00000000000E+00 -0.10000000000E+04  0.10000000000E+04  0.00000000000E+00 0.  1.
    9000005    2    1    2  501    0 -0.28063809320E+02 -0.16822933262E+02 -0.88125949801E+03  0.11025253334E+04  0.66171989508E+03 0.  0.
         13    1    3    3    0    0  0.22964399176E+03  0.27232317560E+02 -0.57531494153E+02  0.23830198255E+03  0.00000000000E+00 0.  1.
          3    1    3    3  501    0 -0.25770780108E+03 -0.44055250822E+02 -0.82372800386E+03  0.86422335088E+03  0.00000000000E+00 0.  1.
         21    1    1    2  502  501  0.28063809320E+02  0.16822933262E+02  0.24904359849E+02  0.41119528409E+02  0.00000000000E+00 0.  1.
<mgrwt>
<rscale>  1 0.30000000E+03</rscale>
<asrwt>0</asrwt>
<pdfrwt beam="1">  1        1 0.52234605E+00 0.30000000E+03</pdfrwt>
<pdfrwt beam="2">0</pdfrwt>
<totfact> 0.15608384E-01</totfact>
</mgrwt>
</event>
<event>
 6    1  0.5260809E-006  0.3000000E+03  0.7818608E-02  0.1093470E+00
          1   -1    0    0  502    0  0.00000000000E+00  0.00000000000E+00  0.12484249574E+03  0.12484249574E+03  0.00000000000E+00 0.  1.
         13   -1    0    0    0    0 -0.00000000000E+00 -0.00000000000E+00 -0.10000000000E+04  0.10000000000E+04  0.00000000000E+00 0.  1.
    9000005    2    1    2  501    0  0.32505915041E+02  0.70176632790E+01 -0.87370114428E+03  0.10915558153E+04  0.65347878794E+03 0.  0.
         13    1    3    3    0    0 -0.29655383782E+03 -0.82050439858E+02 -0.34290967826E+03  0.46072063211E+03  0.00000000000E+00 0.  1.
          1    1    3    3  501    0  0.32905975286E+03  0.89068103137E+02 -0.53079146602E+03  0.63083518319E+03  0.00000000000E+00 0.  1.
         21    1    1    2  502  501 -0.32505915041E+02 -0.70176632790E+01 -0.14563599816E+01  0.33286680444E+02  0.00000000000E+00 0.  1.
<mgrwt>
<rscale>  1 0.30000000E+03</rscale>
<asrwt>0</asrwt>
<pdfrwt beam="1">  1        1 0.45397367E+00 0.30000000E+03</pdfrwt>
<pdfrwt beam="2">0</pdfrwt>
<totfact> 0.48386734E-01</totfact>
</mgrwt>
</event>
<event>
 6    1  0.5260809E-006  0.3000000E+03  0.7818608E-02  0.1093470E+00
          1   -1    0    0  502    0  0.00000000000E+00  0.00000000000E+00  0.12220862354E+03  0.12220862354E+03  0.00000000000E+00 0.  1.
         13   -1    0    0    0    0 -0.00000000000E+00 -0.00000000000E+00 -0.10000000000E+04  0.10000000000E+04  0.00000000000E+00 0.  1.
    9000005    2    1    2  501    0 -0.10477030718E+02  0.16321608210E+02 -0.88448299897E+03  0.11016917797E+04  0.65653517731E+03 0.  0.
         13    1    3    3    0    0 -0.18664996746E+03  0.26943380186E+03 -0.31785398680E+03  0.45657851555E+03  0.00000000000E+00 0.  1.
          1    1    3    3  501    0  0.17617293674E+03 -0.25311219365E+03 -0.56662901216E+03  0.64511326420E+03  0.00000000000E+00 0.  1.
         21    1    1    2  502  501  0.10477030718E+02 -0.16321608210E+02  0.66916225009E+01  0.20516843786E+02  0.00000000000E+00 0. -1.
<mgrwt>
<rscale>  1 0.30000000E+03</rscale>
<asrwt>0</asrwt>
<pdfrwt beam="1">  1        1 0.44439593E+00 0.30000000E+03</pdfrwt>
<pdfrwt beam="2">0</pdfrwt>
<totfact> 0.56087602E-01</totfact>
</mgrwt>
</event>
<event>
 6    1  0.5260809E-006  0.3000000E+03  0.7818608E-02  0.1093470E+00
          1   -1    0    0  502    0  0.00000000000E+00  0.00000000000E+00  0.11568948406E+03  0.11568948406E+03  0.00000000000E+00 0.  1.
         13   -1    0    0    0    0 -0.00000000000E+00 -0.00000000000E+00 -0.10000000000E+04  0.10000000000E+04  0.00000000000E+00 0.  1.
    9000005    2    1    2  501    0  0.12479677289E+02  0.48284671037E+01 -0.89249241354E+03  0.11000051005E+04  0.64287592615E+03 0.  0.
         13    1    3    3    0    0 -0.22601584627E+03  0.17896637214E+03 -0.67273690378E+03  0.73190646044E+03  0.00000000000E+00 0.  1.
          3    1    3    3  501    0  0.23849552356E+03 -0.17413790504E+03 -0.21975550976E+03  0.36809864004E+03  0.00000000000E+00 0.  1.
         21    1    1    2  502  501 -0.12479677289E+02 -0.48284671037E+01  0.81818976083E+01  0.15684383580E+02  0.00000000000E+00 0.  1.
<mgrwt>
<rscale>  1 0.30000000E+03</rscale>
<asrwt>0</asrwt>
<pdfrwt beam="1">  1        1 0.42068992E+00 0.30000000E+03</pdfrwt>
<pdfrwt beam="2">0</pdfrwt>
<totfact> 0.79421989E-01</totfact>
</mgrwt>
</event>
<event>
 6    1  0.5260809E-006  0.3000000E+03  0.7818608E-02  0.1093470E+00
          1   -1    0    0  502    0  0.00000000000E+00  0.00000000000E+00  0.10825271481E+03  0.10825271481E+03  0.00000000000E+00 0.  1.
         13   -1    0    0    0    0 -0.00000000000E+00 -0.00000000000E+00 -0.10000000000E+04  0.10000000000E+04  0.00000000000E+00 0.  1.
    9000005    2    1    2  501    0 -0.15090243963E+02 -0.19254769618E+01 -0.86527220785E+03  0.10777182647E+04  0.64229996219E+03 0.  0.
         13    1    3    3    0    0 -0.51511213619E+02  0.11183937782E+03 -0.93253560296E+03  0.94062963081E+03  0.00000000000E+00 0.  1.
          3    1    3    3  501    0  0.36420969655E+02 -0.11376485478E+03  0.67263395115E+02  0.13708863387E+03  0.00000000000E+00 0.  1.
         21    1    1    2  502  501  0.15090243963E+02  0.19254769618E+01 -0.26475077344E+02  0.30534450131E+02  0.00000000000E+00 0.  1.
<mgrwt>
<rscale>  1 0.30000000E+03</rscale>
<asrwt>0</asrwt>
<pdfrwt beam="1">  1        1 0.39364707E+00 0.30000000E+03</pdfrwt>
<pdfrwt beam="2">0</pdfrwt>
<totfact> 0.11440159E+00</totfact>
</mgrwt>
</event>
<event>
 6    1  0.5260809E-006  0.3000000E+03  0.7818608E-02  0.1093470E+00
          1   -1    0    0  502    0  0.00000000000E+00  0.00000000000E+00  0.12146614581E+03  0.12146614581E+03  0.00000000000E+00 0.  1.
         13   -1    0    0    0    0 -0.00000000000E+00 -0.00000000000E+00 -0.10000000000E+04  0.10000000000E+04  0.00000000000E+00 0.  1.
    9000005    2    1    2  501    0  0.96934914652E+01 -0.95901834479E+01 -0.89119068431E+03  0.11028615565E+04  0.64953586626E+03 0.  0.
         13    1    3    3    0    0 -0.10065248007E+03 -0.68836013358E+02  0.65219525432E+02  0.13828559208E+03  0.00000000000E+00 0.  1.
          3    1    3    3  501    0  0.11034597153E+03  0.59245829910E+02 -0.95641020975E+03  0.96457596440E+03  0.00000000000E+00 0.  1.
         21    1    1    2  502  501 -0.96934914652E+01  0.95901834479E+01  0.12656830119E+02  0.18604589326E+02  0.00000000000E+00 0.  1.
<mgrwt>
<rscale>  1 0.30000000E+03</rscale>
<asrwt>0</asrwt>
<pdfrwt beam="1">  1        1 0.44169601E+00 0.30000000E+03</pdfrwt>
<pdfrwt beam="2">0</pdfrwt>
<totfact> 0.58434836E-01</totfact>
</mgrwt>
</event>
<event>
 6    1  0.5260809E-006  0.3000000E+03  0.7818608E-02  0.1093470E+00
          1   -1    0    0  502    0  0.00000000000E+00  0.00000000000E+00  0.14001509384E+03  0.14001509384E+03  0.00000000000E+00 0.  1.
         13   -1    0    0    0    0 -0.00000000000E+00 -0.00000000000E+00 -0.10000000000E+04  0.10000000000E+04  0.00000000000E+00 0.  1.
    9000005    2    1    2  501    0  0.35277107570E+02 -0.54794027854E+02 -0.84672148866E+03  0.10735111237E+04  0.65669018072E+03 0.  0.
         13    1    3    3    0    0 -0.30727054501E+03  0.17117702761E+02 -0.35308678366E+03  0.46837856523E+03  0.00000000000E+00 0.  1.
          3    1    3    3  501    0  0.34254765258E+03 -0.71911730615E+02 -0.49363470500E+03  0.60513255842E+03  0.00000000000E+00 0.  1.
         21    1    1    2  502  501 -0.35277107570E+02  0.54794027854E+02 -0.13263417501E+02  0.66503970188E+02  0.00000000000E+00 0.  1.
<mgrwt>
<rscale>  1 0.30000000E+03</rscale>
<asrwt>0</asrwt>
<pdfrwt beam="1">  1        1 0.50914687E+00 0.30000000E+03</pdfrwt>
<pdfrwt beam="2">0</pdfrwt>
<totfact> 0.19572025E-01</totfact>
</mgrwt>
</event>
<event>
 6    1  0.5260809E-006  0.3000000E+03  0.7818608E-02  0.1093470E+00
          1   -1    0    0  502    0  0.00000000000E+00  0.00000000000E+00  0.97143956224E+02  0.97143956224E+02  0.00000000000E+00 0.  1.
         13   -1    0    0    0    0 -0.00000000000E+00 -0.00000000000E+00 -0.10000000000E+04  0.10000000000E+04  0.00000000000E+00 0.  1.
    9000005    2    1    2  501    0 -0.14397593858E+02 -0.29055487896E+02 -0.88557011761E+03  0.10603973192E+04  0.58237147026E+03 0.  0.
         13    1    3    3    0    0 -0.99068260695E+02  0.12984444949E+03 -0.86371965466E+03  0.87902545082E+03  0.00000000000E+00 0.  1.
          1    1    3    3  501    0  0.84670666837E+02 -0.15889993739E+03 -0.21850462947E+02  0.18137186842E+03  0.00000000000E+00 0.  1.
         21    1    1    2  502  501  0.14397593858E+02  0.29055487896E+02 -0.17285926168E+02  0.36746636979E+02  0.00000000000E+00 0.  1.
<mgrwt>
<rscale>  1 0.30000000E+03</rscale>
<asrwt>0</asrwt>
<pdfrwt beam="1">  1        1 0.35325149E+00 0.30000000E+03</pdfrwt>
<pdfrwt beam="2">0</pdfrwt>
<totfact> 0.18945779E+00</totfact>
</mgrwt>
</event>
<event>
 6    1  0.5260809E-006  0.3000000E+03  0.7818608E-02  0.1093470E+00
          1   -1    0    0  502    0  0.00000000000E+00  0.00000000000E+00  0.12147961198E+03  0.12147961198E+03  0.00000000000E+00 0.  1.
         13   -1    0    0    0    0 -0.00000000000E+00 -0.00000000000E+00 -0.10000000000E+04  0.10000000000E+04  0.00000000000E+00 0.  1.
    9000005    2    1    2  501    0  0.22589800044E+01  0.20359129055E+02 -0.89002909376E+03  0.10979839223E+04  0.64264866664E+03 0.  0.
         13    1    3    3    0    0 -0.25182368931E+03  0.13706151288E+03 -0.70930751877E+03  0.76506090280E+03  0.00000000000E+00 0.  1.
          1    1    3    3  501    0  0.25408266931E+03 -0.11670238383E+03 -0.18072157499E+03  0.33292301948E+03  0.00000000000E+00 0.  1.
         21    1    1    2  502  501 -0.22589800044E+01 -0.20359129055E+02  0.11508705733E+02  0.23495689694E+02  0.00000000000E+00 0. -1.
<mgrwt>
<rscale>  1 0.30000000E+03</rscale>
<asrwt>0</asrwt>
<pdfrwt beam="1">  1        1 0.44174498E+00 0.30000000E+03</pdfrwt>
<pdfrwt beam="2">0</pdfrwt>
<totfact> 0.58391647E-01</totfact>
</mgrwt>
</event>
<event>
 6    1  0.5260809E-006  0.3000000E+03  0.7818608E-02  0.1093470E+00
          1   -1    0    0  502    0  0.00000000000E+00  0.00000000000E+00  0.93768873720E+02  0.93768873720E+02  0.00000000000E+00 0.  1.
         13   -1    0    0    0    0 -0.00000000000E+00 -0.00000000000E+00 -0.10000000000E+04  0.10000000000E+04  0.00000000000E+00 0.  1.
    9000005    2    1    2  501    0  0.14552364876E+02 -0.75416263299E+01 -0.90839580455E+03  0.10772360795E+04  0.57877973867E+03 0.  0.
         13    1    3    3    0    0  0.19811598892E+03  0.21377591933E+03 -0.46096875499E+03  0.54538269300E+03  0.00000000000E+00 0.  1.
          3    1    3    3  501    0 -0.18356362405E+03 -0.22131754566E+03 -0.44742704957E+03  0.53185338654E+03  0.00000000000E+00 0.  1.
         21    1    1    2  502  501 -0.14552364876E+02  0.75416263299E+01  0.21646782742E+01  0.16532794174E+02  0.00000000000E+00 0.  1.
<mgrwt>
<rscale>  1 0.30000000E+03</rscale>
<asrwt>0</asrwt>
<pdfrwt beam="1">  1        1 0.34097844E+00 0.30000000E+03</pdfrwt>
<pdfrwt beam="2">0</pdfrwt>
<totfact> 0.21889839E+00</totfact>
</mgrwt>
</event>
<event>
 6    1  0.5260809E-006  0.3000000E+03  0.7818608E-02  0.1093470E+00
          1   -1    0    0  502    0  0.00000000000E+00  0.00000000000E+00  0.11665456348E+03  0.11665456348E+03  0.00000000000E+00 0.  1.
         13   -1    0    0    0    0 -0.00000000000E+00 -0.00000000000E+00 -0.10000000000E+04  0.10000000000E+04  0.00000000000E+00 0.  1.
    9000005    2    1    2  501    0 -0.63059072549E+01  0.13359680285E+02 -0.88609852911E+03  0.11016270872E+04  0.65436487566E+03 0.  0.
         13    1    3    3    0    0 -0.88128837676E+02 -0.42750167104E+02 -0.96802003424E+03  0.97296302885E+03  0.00000000000E+00 0.  1.
          1    1    3    3  501    0  0.81822930421E+02  0.56109847389E+02  0.81921505127E+02  0.12866405838E+03  0.00000000000E+00 0.  1.
         21    1    1    2  502  501  0.63059072549E+01 -0.13359680285E+02  0.27530925858E+01  0.15027476249E+02  0.00000000000E+00 0.  1.
<mgrwt>
<rscale>  1 0.30000000E+03</rscale>
<asrwt>0</asrwt>
<pdfrwt beam="1">  1        1 0.42419931E+00 0.30000000E+03</pdfrwt>
<pdfrwt beam="2">0</pdfrwt>
<totfact> 0.75539211E-01</totfact>
</mgrwt>
</event>
<event>
 6    1  0.5260809E-006  0.3000000E+03  0.7818608E-02  0.1093470E+00
          1   -1    0    0  502    0  0.00000000000E+00  0.00000000000E+00  0.11390617663E+03  0.11390617663E+03  0.00000000000E+00 0.  1.
         13   -1    0    0    0    0 -0.00000000000E+00 -0.00000000000E+00 -0.10000000000E+04  0.10000000000E+04  0.00000000000E+00 0.  1.
    9000005    2    1    2  501    0 -0.68911235482E+01 -0.15848393165E+02 -0.88826538716E+03  0.10964885178E+04  0.64262976317E+03 0.  0.
         13    1    3    3    0    0  0.10371769364E+02 -0.17073670857E+03  0.22464479616E+02  0.17252028894E+03  0.00000000000E+00 0.  1.
          3    1    3    3  501    0 -0.17262892912E+02  0.15488831540E+03 -0.91072986677E+03  0.92396822887E+03  0.00000000000E+00 0.  1.
         21    1    1    2  502  501  0.68911235482E+01  0.15848393165E+02  0.21715637910E+01  0.17417658825E+02  0.00000000000E+00 0.  1.
<mgrwt>
<rscale>  1 0.30000000E+03</rscale>
<asrwt>0</asrwt>
<pdfrwt beam="1">  1        1 0.41420515E+00 0.30000000E+03</pdfrwt>
<pdfrwt beam="2">0</pdfrwt>
<totfact> 0.86971348E-01</totfact>
</mgrwt>
</event>
<event>
 6    1  0.5260809E-006  0.3000000E+03  0.7818608E-02  0.1093470E+00
          1   -1    0    0  502    0  0.00000000000E+00  0.00000000000E+00  0.15283075379E+03  0.15283075379E+03  0.00000000000E+00 0.  1.
         13   -1    0    0    0    0 -0.00000000000E+00 -0.00000000000E+00 -0.10000000000E+04  0.10000000000E+04  0.00000000000E+00 0.  1.
    9000005    2    1    2  501    0 -0.14062800282E+02 -0.12650586025E+02 -0.89376734491E+03  0.11025397757E+04  0.64530309964E+03 0.  0.
         13    1    3    3    0    0 -0.49466420387E+02 -0.13356265943E+03 -0.95281425000E+03  0.96340069843E+03  0.00000000000E+00 0.  1.
          3    1    3    3  501    0  0.35403620104E+02  0.12091207341E+03  0.59046905087E+02  0.13913907723E+03  0.00000000000E+00 0.  1.
         21    1    1    2  502  501  0.14062800282E+02  0.12650586025E+02  0.46598098700E+02  0.50290978127E+02  0.00000000000E+00 0. -1.
<mgrwt>
<rscale>  1 0.30000000E+03</rscale>
<asrwt>0</asrwt>
<pdfrwt beam="1">  1        1 0.55574937E+00 0.30000000E+03</pdfrwt>
<pdfrwt beam="2">0</pdfrwt>
<totfact> 0.90903029E-02</totfact>
</mgrwt>
</event>
<event>
 6    1  0.5260809E-006  0.3000000E+03  0.7818608E-02  0.1093470E+00
          1   -1    0    0  502    0  0.00000000000E+00  0.00000000000E+00  0.12674786542E+03  0.12674786542E+03  0.00000000000E+00 0.  1.
         13   -1    0    0    0    0 -0.00000000000E+00 -0.00000000000E+00 -0.10000000000E+04  0.10000000000E+04  0.00000000000E+00 0.  1.
    9000005    2    1    2  501    0  0.31351073944E+02  0.26130926755E+02 -0.86385252245E+03  0.10848662719E+04  0.65500223825E+03 0.  0.
         13    1    3    3    0    0 -0.57257424848E+02 -0.23993114684E+03 -0.91352755251E+02  0.26304123976E+03  0.00000000000E+00 0.  1.
          1    1    3    3  501    0  0.88608498792E+02  0.26606207359E+03 -0.77249976720E+03  0.82182503210E+03  0.00000000000E+00 0.  1.
         21    1    1    2  502  501 -0.31351073944E+02 -0.26130926755E+02 -0.93996121345E+01  0.41881593556E+02  0.00000000000E+00 0.  1.
<mgrwt>
<rscale>  1 0.30000000E+03</rscale>
<asrwt>0</asrwt>
<pdfrwt beam="1">  1        1 0.46090230E+00 0.30000000E+03</pdfrwt>
<pdfrwt beam="2">0</pdfrwt>
<totfact> 0.43452979E-01</totfact>
</mgrwt>
</event>
<event>
 6    1  0.5260809E-006  0.3000000E+03  0.7818608E-02  0.1093470E+00
          1   -1    0    0  502    0  0.00000000000E+00  0.00000000000E+00  0.12942215812E+03  0.12942215812E+03  0.00000000000E+00 0.  1.
         13   -1    0    0    0    0 -0.00000000000E+00 -0.00000000000E+00 -0.10000000000E+04  0.10000000000E+04  0.00000000000E+00 0.  1.
    9000005    2    1    2  501    0 -0.14471782534E+02  0.14365034643E+01 -0.87494268222E+03  0.11142383555E+04  0.68977599231E+03 0.  0.
         13    1    3    3    0    0  0.11626327842E+03 -0.31756787629E+03 -0.51246790892E+03  0.61399500294E+03  0.00000000000E+00 0.  1.
          1    1    3    3  501    0 -0.13073506095E+03  0.31900437975E+03 -0.36247477330E+03  0.50024335252E+03  0.00000000000E+00 0.  1.
         21    1    1    2  502  501  0.14471782534E+02 -0.14365034643E+01  0.43648403392E+01  0.15183802656E+02  0.00000000000E+00 0. -1.
<mgrwt>
<rscale>  1 0.30000000E+03</rscale>
<asrwt>0</asrwt>
<pdfrwt beam="1">  1        1 0.47062702E+00 0.30000000E+03</pdfrwt>
<pdfrwt beam="2">0</pdfrwt>
<totfact> 0.37226227E-01</totfact>
</mgrwt>
</event>
<event>
 6    1  0.5260809E-006  0.3000000E+03  0.7818608E-02  0.1093470E+00
          1   -1    0    0  502    0  0.00000000000E+00  0.00000000000E+00  0.12205776618E+03  0.12205776618E+03  0.00000000000E+00 0.  1.
         13   -1    0    0    0    0 -0.00000000000E+00 -0.00000000000E+00 -0.10000000000E+04  0.10000000000E+04  0.00000000000E+00 0.  1.
    9000005    2    1    2  501    0 -0.11270673704E+00  0.14798906501E+02 -0.88942940921E+03  0.11033234251E+04  0.65270122271E+03 0.  0.
         13    1    3    3    0    0  0.28955769651E+03 -0.45268374090E+02 -0.68115529089E+03  0.74152910638E+03  0.00000000000E+00 0.  1.
          1    1    3    3  501    0 -0.28967040325E+03  0.60067280591E+02 -0.20827411832E+03  0.36179431875E+03  0.00000000000E+00 0.  1.
         21    1    1    2  502  501  0.11270673704E+00 -0.14798906501E+02  0.11487175391E+02  0.18734341059E+02  0.00000000000E+00 0. -1.
<mgrwt>
<rscale>  1 0.30000000E+03</rscale>
<asrwt>0</asrwt>
<pdfrwt beam="1">  1        1 0.44384736E+00 0.30000000E+03</pdfrwt>
<pdfrwt beam="2">0</pdfrwt>
<totfact> 0.56558773E-01</totfact>
</mgrwt>
</event>
<event>
 6    1  0.5260809E-006  0.3000000E+03  0.7818608E-02  0.1093470E+00
          1   -1    0    0  502    0  0.00000000000E+00  0.00000000000E+00  0.11180212257E+03  0.11180212257E+03  0.00000000000E+00 0.  1.
         13   -1    0    0    0    0 -0.00000000000E+00 -0.00000000000E+00 -0.10000000000E+04  0.10000000000E+04  0.00000000000E+00 0.  1.
    9000005    2    1    2  501    0  0.83547491401E+01  0.11710977926E+02 -0.88466959096E+03  0.10969900450E+04  0.64849049705E+03 0.  0.
         13    1    3    3    0    0  0.26180387752E+03 -0.12703005752E+03 -0.19789489153E+03  0.35190949673E+03  0.00000000000E+00 0.  1.
          3    1    3    3  501    0 -0.25344912838E+03  0.13874103545E+03 -0.68677469943E+03  0.74508054824E+03  0.00000000000E+00 0.  1.
         21    1    1    2  502  501 -0.83547491401E+01 -0.11710977926E+02 -0.35282864704E+01  0.14812077592E+02  0.00000000000E+00 0. -1.
<mgrwt>
<rscale>  1 0.30000000E+03</rscale>
<asrwt>0</asrwt>
<pdfrwt beam="1">  1        1 0.40655403E+00 0.30000000E+03</pdfrwt>
<pdfrwt beam="2">0</pdfrwt>
<totfact> 0.96533106E-01</totfact>
</mgrwt>
</event>
<event>
 6    1  0.5260809E-006  0.3000000E+03  0.7818608E-02  0.1093470E+00
          1   -1    0    0  502    0  0.00000000000E+00  0.00000000000E+00  0.11712884857E+03  0.11712884857E+03  0.00000000000E+00 0.  1.
         13   -1    0    0    0    0 -0.00000000000E+00 -0.00000000000E+00 -0.10000000000E+04  0.10000000000E+04  0.00000000000E+00 0.  1.
    9000005    2    1    2  501    0  0.81684571874E+01 -0.14460520515E+02 -0.88700543788E+03  0.11000138648E+04  0.65036607037E+03 0.  0.
         13    1    3    3    0    0 -0.20564528547E+03  0.10119930602E+03 -0.81480482910E+03  0.84642672011E+03  0.00000000000E+00 0.  1.
          3    1    3    3  501    0  0.21381374266E+03 -0.11565982654E+03 -0.72200608779E+02  0.25358714465E+03  0.00000000000E+00 0.  1.
         21    1    1    2  502  501 -0.81684571874E+01  0.14460520515E+02  0.41342864567E+01  0.17114983812E+02  0.00000000000E+00 0.  1.
<mgrwt>
<rscale>  1 0.30000000E+03</rscale>
<asrwt>0</asrwt>
<pdfrwt beam="1">  1        1 0.42592398E+00 0.30000000E+03</pdfrwt>
<pdfrwt beam="2">0</pdfrwt>
<totfact> 0.73687380E-01</totfact>
</mgrwt>
</event>
<event>
 6    1  0.5260809E-006  0.3000000E+03  0.7818608E-02  0.1093470E+00
          1   -1    0    0  502    0  0.00000000000E+00  0.00000000000E+00  0.11659275549E+03  0.11659275549E+03  0.00000000000E+00 0.  1.
         13   -1    0    0    0    0 -0.00000000000E+00 -0.00000000000E+00 -0.10000000000E+04  0.10000000000E+04  0.00000000000E+00 0.  1.
    9000005    2    1    2  501    0  0.20964848455E+00  0.18890347508E+02 -0.88413881344E+03  0.10976870851E+04  0.65027579234E+03 0.  0.
         13    1    3    3    0    0 -0.20242696683E+03 -0.14328476983E+03 -0.92678514799E+02  0.26475745366E+03  0.00000000000E+00 0.  1.
          3    1    3    3  501    0  0.20263661531E+03  0.16217511733E+03 -0.79146029864E+03  0.83292963140E+03  0.00000000000E+00 0.  1.
         21    1    1    2  502  501 -0.20964848455E+00 -0.18890347508E+02  0.73156892980E+00  0.18905670434E+02  0.00000000000E+00 0.  1.
<mgrwt>
<rscale>  1 0.30000000E+03</rscale>
<asrwt>0</asrwt>
<pdfrwt beam="1">  1        1 0.42397455E+00 0.30000000E+03</pdfrwt>
<pdfrwt beam="2">0</pdfrwt>
<totfact> 0.75783333E-01</totfact>
</mgrwt>
</event>
<event>
 6    1  0.5260809E-006  0.3000000E+03  0.7818608E-02  0.1093470E+00
          1   -1    0    0  502    0  0.00000000000E+00  0.00000000000E+00  0.11487252912E+03  0.11487252912E+03  0.00000000000E+00 0.  1.
         13   -1    0    0    0    0 -0.00000000000E+00 -0.00000000000E+00 -0.10000000000E+04  0.10000000000E+04  0.00000000000E+00 0.  1.
    9000005    2    1    2  501    0 -0.51431995839E+01 -0.19523238247E+02 -0.88188924911E+03  0.10944251475E+04  0.64778865884E+03 0.  0.
         13    1    3    3    0    0  0.14015613350E+03  0.27876255274E+03 -0.36469505587E+03  0.47995290013E+03  0.00000000000E+00 0.  1.
          3    1    3    3  501    0 -0.14529933309E+03 -0.29828579099E+03 -0.51719419324E+03  0.61447224740E+03  0.00000000000E+00 0.  1.
         21    1    1    2  502  501  0.51431995839E+01  0.19523238247E+02 -0.32382217755E+01  0.20447381590E+02  0.00000000000E+00 0.  1.
<mgrwt>
<rscale>  1 0.30000000E+03</rscale>
<asrwt>0</asrwt>
<pdfrwt beam="1">  1        1 0.41771917E+00 0.30000000E+03</pdfrwt>
<pdfrwt beam="2">0</pdfrwt>
<totfact> 0.82822095E-01</totfact>
</mgrwt>
</event>
<event>
 6    1  0.5260809E-006  0.3000000E+03  0.7818608E-02  0.1093470E+00
          1   -1    0    0  502    0  0.00000000000E+00  0.00000000000E+00  0.11326704723E+03  0.11326704723E+03  0.00000000000E+00 0.  1.
         13   -1    0    0    0    0 -0.00000000000E+00 -0.00000000000E+00 -0.10000000000E+04  0.10000000000E+04  0.00000000000E+00 0.  1.
    9000005    2    1    2  501    0 -0.89763188949E+01  0.52669253482E+01 -0.88957199380E+03  0.11024793247E+04  0.65116358499E+03 0.  0.
         13    1    3    3    0    0  0.30483469753E+03 -0.95731715073E+02 -0.39396651806E+03  0.50724586883E+03  0.00000000000E+00 0.  1.
          3    1    3    3  501    0 -0.31381101643E+03  0.10099864042E+03 -0.49560547574E+03  0.59523345587E+03  0.00000000000E+00 0.  1.
         21    1    1    2  502  501  0.89763188949E+01 -0.52669253482E+01  0.28390410299E+01  0.10787722535E+02  0.00000000000E+00 0. -1.
<mgrwt>
<rscale>  1 0.30000000E+03</rscale>
<asrwt>0</asrwt>
<pdfrwt beam="1">  1        1 0.41188104E+00 0.30000000E+03</pdfrwt>
<pdfrwt beam="2">0</pdfrwt>
<totfact> 0.89797931E-01</totfact>
</mgrwt>
</event>
<event>
 6    1  0.5260809E-006  0.3000000E+03  0.7818608E-02  0.1093470E+00
          1   -1    0    0  502    0  0.00000000000E+00  0.00000000000E+00  0.11346311120E+03  0.11346311120E+03  0.00000000000E+00 0.  1.
         13   -1    0    0    0    0 -0.00000000000E+00 -0.00000000000E+00 -0.10000000000E+04  0.10000000000E+04  0.00000000000E+00 0.  1.
    9000005    2    1    2  501    0  0.16495617116E+01 -0.15420437497E+02 -0.87629189704E+03  0.10948762663E+04  0.65622102891E+03 0.  0.
         13    1    3    3    0    0 -0.10796229928E+03  0.22427556596E+03 -0.77249333785E+03  0.81160417974E+03  0.00000000000E+00 0.  1.
          1    1    3    3  501    0  0.10961186099E+03 -0.23969600346E+03 -0.10379855919E+03  0.28327208658E+03  0.00000000000E+00 0.  1.
         21    1    1    2  502  501 -0.16495617116E+01  0.15420437497E+02 -0.10244991759E+02  0.18586844880E+02  0.00000000000E+00 0.  1.
<mgrwt>
<rscale>  1 0.30000000E+03</rscale>
<asrwt>0</asrwt>
<pdfrwt beam="1">  1        1 0.41259400E+00 0.30000000E+03</pdfrwt>
<pdfrwt beam="2">0</pdfrwt>
<totfact> 0.88923686E-01</totfact>
</mgrwt>
</event>
<event>
 6    1  0.5260809E-006  0.3000000E+03  0.7818608E-02  0.1093470E+00
          1   -1    0    0  502    0  0.00000000000E+00  0.00000000000E+00  0.11406001218E+03  0.11406001218E+03  0.00000000000E+00 0.  1.
         13   -1    0    0    0    0 -0.00000000000E+00 -0.00000000000E+00 -0.10000000000E+04  0.10000000000E+04  0.00000000000E+00 0.  1.
    9000005    2    1    2  501    0 -0.20385583516E+02  0.16404122470E+01 -0.87466149487E+03  0.10907047693E+04  0.65129555514E+03 0.  0.
         13    1    3    3    0    0  0.32984826302E+01  0.32566850973E+03 -0.46864413241E+03  0.57069972934E+03  0.00000000000E+00 0.  1.
          1    1    3    3  501    0 -0.23684066146E+02 -0.32402809748E+03 -0.40601736246E+03  0.52000503994E+03  0.00000000000E+00 0.  1.
         21    1    1    2  502  501  0.20385583516E+02 -0.16404122470E+01 -0.11278492954E+02  0.23355242900E+02  0.00000000000E+00 0.  1.
<mgrwt>
<rscale>  1 0.30000000E+03</rscale>
<asrwt>0</asrwt>
<pdfrwt beam="1">  1        1 0.41476456E+00 0.30000000E+03</pdfrwt>
<pdfrwt beam="2">0</pdfrwt>
<totfact> 0.86300989E-01</totfact>
</mgrwt>
</event>
<event>
 6    1  0.5260809E-006  0.3000000E+03  0.7818608E-02  0.1093470E+00
          1   -1    0    0  502    0  0.00000000000E+00  0.00000000000E+00  0.11584263686E+03  0.11584263686E+03  0.00000000000E+00 0.  1.
         13   -1    0    0    0    0 -0.00000000000E+00 -0.00000000000E+00 -0.10000000000E+04  0.10000000000E+04  0.00000000000E+00 0.  1.
    9000005    2    1    2  501    0 -0.23679619426E+02  0.31016307390E+02 -0.83544055785E+03  0.10534241875E+04  0.64048329990E+03 0.  0.
         13    1    3    3    0    0  0.12069256454E+03  0.21923927449E+03 -0.81740762523E+02  0.26327572405E+03  0.00000000000E+00 0.  1.
          1    1    3    3  501    0 -0.14437218397E+03 -0.18822296710E+03 -0.75369979533E+03  0.79014846347E+03  0.00000000000E+00 0.  1.
         21    1    1    2  502  501  0.23679619426E+02 -0.31016307390E+02 -0.48716805290E+02  0.62418449339E+02  0.00000000000E+00 0.  1.
<mgrwt>
<rscale>  1 0.30000000E+03</rscale>
<asrwt>0</asrwt>
<pdfrwt beam="1">  1        1 0.42124684E+00 0.30000000E+03</pdfrwt>
<pdfrwt beam="2">0</pdfrwt>
<totfact> 0.78795876E-01</totfact>
</mgrwt>
</event>
<event>
 6    1  0.5260809E-006  0.3000000E+03  0.7818608E-02  0.1093470E+00
          1   -1    0    0  502    0  0.00000000000E+00  0.00000000000E+00  0.12195466791E+03  0.12195466791E+03  0.00000000000E+00 0.  1.
         13   -1    0    0    0    0 -0.00000000000E+00 -0.00000000000E+00 -0.10000000000E+04  0.10000000000E+04  0.00000000000E+00 0.  1.
    9000005    2    1    2  501    0 -0.23931718271E+02  0.23454248080E+02 -0.87273694627E+03  0.10880281613E+04  0.64885489398E+03 0.  0.
         13    1    3    3    0    0 -0.89748884901E+02  0.27484831332E+03 -0.16233011849E+03  0.33158336063E+03  0.00000000000E+00 0.  1.
          1    1    3    3  501    0  0.65817166630E+02 -0.25139406524E+03 -0.71040682778E+03  0.75644480065E+03  0.00000000000E+00 0.  1.
         21    1    1    2  502  501  0.23931718271E+02 -0.23454248080E+02 -0.53083858171E+01  0.33926506634E+02  0.00000000000E+00 0.  1.
<mgrwt>
<rscale>  1 0.30000000E+03</rscale>
<asrwt>0</asrwt>
<pdfrwt beam="1">  1        1 0.44347245E+00 0.30000000E+03</pdfrwt>
<pdfrwt beam="2">0</pdfrwt>
<totfact> 0.56882492E-01</totfact>
</mgrwt>
</event>
<event>
 6    1  0.5260809E-006  0.3000000E+03  0.7818608E-02  0.1093470E+00
          1   -1    0    0  502    0  0.00000000000E+00  0.00000000000E+00  0.11519242480E+03  0.11519242480E+03  0.00000000000E+00 0.  1.
         13   -1    0    0    0    0 -0.00000000000E+00 -0.00000000000E+00 -0.10000000000E+04  0.10000000000E+04  0.00000000000E+00 0.  1.
    9000005    2    1    2  501    0  0.28744092348E+01  0.94060653590E+01 -0.88970291262E+03  0.11042060413E+04  0.65391358193E+03 0.  0.
         13    1    3    3    0    0 -0.28847797116E+03  0.15549745698E+03 -0.46391915238E+03  0.56799646030E+03  0.00000000000E+00 0.  1.
          1    1    3    3  501    0  0.29135238040E+03 -0.14609139162E+03 -0.42578376024E+03  0.53620958100E+03  0.00000000000E+00 0.  1.
         21    1    1    2  502  501 -0.28744092348E+01 -0.94060653590E+01  0.48953374165E+01  0.10986383500E+02  0.00000000000E+00 0. -1.
<mgrwt>
<rscale>  1 0.30000000E+03</rscale>
<asrwt>0</asrwt>
<pdfrwt beam="1">  1        1 0.41888243E+00 0.30000000E+03</pdfrwt>
<pdfrwt beam="2">0</pdfrwt>
<totfact> 0.81478854E-01</totfact>
</mgrwt>
</event>
<event>
 6    1  0.5260809E-006  0.3000000E+03  0.7818608E-02  0.1093470E+00
          1   -1    0    0  502    0  0.00000000000E+00  0.00000000000E+00  0.12822281243E+03  0.12822281243E+03  0.00000000000E+00 0.  1.
         13   -1    0    0    0    0 -0.00000000000E+00 -0.00000000000E+00 -0.10000000000E+04  0.10000000000E+04  0.00000000000E+00 0.  1.
    9000005    2    1    2  501    0 -0.13089726707E+02  0.32552844050E+02 -0.87282059859E+03  0.10931212839E+04  0.65716612459E+03 0.  0.
         13    1    3    3    0    0  0.29903278464E+03 -0.18060025497E+02 -0.61887967484E+03  0.68757459431E+03  0.00000000000E+00 0.  1.
          3    1    3    3  501    0 -0.31212251135E+03  0.50612869547E+02 -0.25394092375E+03  0.40554668956E+03  0.00000000000E+00 0.  1.
         21    1    1    2  502  501  0.13089726707E+02 -0.32552844050E+02  0.10434110259E+01  0.35101528564E+02  0.00000000000E+00 0.  1.
<mgrwt>
<rscale>  1 0.30000000E+03</rscale>
<asrwt>0</asrwt>
<pdfrwt beam="1">  1        1 0.46626576E+00 0.30000000E+03</pdfrwt>
<pdfrwt beam="2">0</pdfrwt>
<totfact> 0.39926008E-01</totfact>
</mgrwt>
</event>
<event>
 6    1  0.5260809E-006  0.3000000E+03  0.7818608E-02  0.1093470E+00
          1   -1    0    0  502    0  0.00000000000E+00  0.00000000000E+00  0.12148691064E+03  0.12148691064E+03  0.00000000000E+00 0.  1.
         13   -1    0    0    0    0 -0.00000000000E+00 -0.00000000000E+00 -0.10000000000E+04  0.10000000000E+04  0.00000000000E+00 0.  1.
    9000005    2    1    2  501    0 -0.25503987510E+01 -0.17694858243E+02 -0.86584934816E+03  0.10995783990E+04  0.67753815336E+03 0.  0.
         13    1    3    3    0    0  0.20424536596E+03 -0.27168634567E+03 -0.53638726737E+03  0.63501255148E+03  0.00000000000E+00 0.  1.
          1    1    3    3  501    0 -0.20679576471E+03  0.25399148742E+03 -0.32946208079E+03  0.46456584750E+03  0.00000000000E+00 0.  1.
         21    1    1    2  502  501  0.25503987510E+01  0.17694858243E+02 -0.12663741199E+02  0.21908511661E+02  0.00000000000E+00 0.  1.
<mgrwt>
<rscale>  1 0.30000000E+03</rscale>
<asrwt>0</asrwt>
<pdfrwt beam="1">  1        1 0.44177152E+00 0.30000000E+03</pdfrwt>
<pdfrwt beam="2">0</pdfrwt>
<totfact> 0.58368247E-01</totfact>
</mgrwt>
</event>
<event>
 6    1  0.5260809E-006  0.3000000E+03  0.7818608E-02  0.1093470E+00
          1   -1    0    0  502    0  0.00000000000E+00  0.00000000000E+00  0.11135426835E+03  0.11135426835E+03  0.00000000000E+00 0.  1.
         13   -1    0    0    0    0 -0.00000000000E+00 -0.00000000000E+00 -0.10000000000E+04  0.10000000000E+04  0.00000000000E+00 0.  1.
    9000005    2    1    2  501    0 -0.13201306707E+02 -0.11186533876E+01 -0.90553603262E+03  0.10898878259E+04  0.60636988779E+03 0.  0.
         13    1    3    3    0    0 -0.11060911365E+03 -0.25781023698E+03 -0.23726692488E+03  0.36741813776E+03  0.00000000000E+00 0.  1.
          1    1    3    3  501    0  0.97407806941E+02  0.25669158360E+03 -0.66826910774E+03  0.72246968815E+03  0.00000000000E+00 0.  1.
         21    1    1    2  502  501  0.13201306707E+02  0.11186533876E+01  0.16890300965E+02  0.21466442436E+02  0.00000000000E+00 0.  1.
<mgrwt>
<rscale>  1 0.30000000E+03</rscale>
<asrwt>0</asrwt>
<pdfrwt beam="1">  1        1 0.40492547E+00 0.30000000E+03</pdfrwt>
<pdfrwt beam="2">0</pdfrwt>
<totfact> 0.98664758E-01</totfact>
</mgrwt>
</event>
<event>
 6    1  0.5260809E-006  0.3000000E+03  0.7818608E-02  0.1093470E+00
          1   -1    0    0  502    0  0.00000000000E+00  0.00000000000E+00  0.11598815521E+03  0.11598815521E+03  0.00000000000E+00 0.  1.
         13   -1    0    0    0    0 -0.00000000000E+00 -0.00000000000E+00 -0.10000000000E+04  0.10000000000E+04  0.00000000000E+00 0.  1.
    9000005    2    1    2  501    0  0.10408703792E+02  0.12999760351E+02 -0.88094525793E+03  0.10990547905E+04  0.65694714420E+03 0.  0.
         13    1    3    3    0    0  0.11019229572E+03  0.16278133977E+02 -0.96324789155E+03  0.96966686045E+03  0.00000000000E+00 0.  1.
          1    1    3    3  501    0 -0.99783591927E+02 -0.32783736258E+01  0.82302633625E+02  0.12938793009E+03  0.00000000000E+00 0.  1.
         21    1    1    2  502  501 -0.10408703792E+02 -0.12999760351E+02 -0.30665868690E+01  0.16933364664E+02  0.00000000000E+00 0. -1.
<mgrwt>
<rscale>  1 0.30000000E+03</rscale>
<asrwt>0</asrwt>
<pdfrwt beam="1">  1        1 0.42177600E+00 0.30000000E+03</pdfrwt>
<pdfrwt beam="2">0</pdfrwt>
<totfact> 0.78204387E-01</totfact>
</mgrwt>
</event>
<event>
 6    1  0.5260809E-006  0.3000000E+03  0.7818608E-02  0.1093470E+00
          1   -1    0    0  502    0  0.00000000000E+00  0.00000000000E+00  0.21742797747E+03  0.21742797747E+03  0.00000000000E+00 0.  1.
         13   -1    0    0    0    0 -0.00000000000E+00 -0.00000000000E+00 -0.10000000000E+04  0.10000000000E+04  0.00000000000E+00 0.  1.
    9000005    2    1    2  501    0 -0.53224672507E+02 -0.53267753523E+02 -0.87910585448E+03  0.10949979973E+04  0.64847759516E+03 0.  0.
         13    1    3    3    0    0  0.15051963165E+03  0.14916106043E+03 -0.75134101558E+03  0.78065261362E+03  0.00000000000E+00 0.  1.
          3    1    3    3  501    0 -0.20374430416E+03 -0.20242881395E+03 -0.12776483890E+03  0.31434538370E+03  0.00000000000E+00 0.  1.
         21    1    1    2  502  501  0.53224672507E+02  0.53267753523E+02  0.96533831943E+02  0.12242998015E+03  0.00000000000E+00 0.  1.
<mgrwt>
<rscale>  1 0.30000000E+03</rscale>
<asrwt>0</asrwt>
<pdfrwt beam="1">  1        1 0.79064886E+00 0.30000000E+03</pdfrwt>
<pdfrwt beam="2">0</pdfrwt>
<totfact> 0.79502784E-03</totfact>
</mgrwt>
</event>
<event>
 6    1  0.5260809E-006  0.3000000E+03  0.7818608E-02  0.1093470E+00
          1   -1    0    0  502    0  0.00000000000E+00  0.00000000000E+00  0.10566201565E+03  0.10566201565E+03  0.00000000000E+00 0.  1.
         13   -1    0    0    0    0 -0.00000000000E+00 -0.00000000000E+00 -0.10000000000E+04  0.10000000000E+04  0.00000000000E+00 0.  1.
    9000005    2    1    2  501    0 -0.47959423488E+01  0.69338025749E+01 -0.88608324331E+03  0.10938628873E+04  0.64134345196E+03 0.  0.
         13    1    3    3    0    0  0.12841522610E+03 -0.27046235309E+03 -0.61398226183E+03  0.68309192103E+03  0.00000000000E+00 0.  1.
          3    1    3    3  501    0 -0.13321116844E+03  0.27739615567E+03 -0.27210098149E+03  0.41077096624E+03  0.00000000000E+00 0.  1.
         21    1    1    2  502  501  0.47959423488E+01 -0.69338025749E+01 -0.82547410369E+01  0.11799128389E+02  0.00000000000E+00 0. -1.
<mgrwt>
<rscale>  1 0.30000000E+03</rscale>
<asrwt>0</asrwt>
<pdfrwt beam="1">  1        1 0.38422632E+00 0.30000000E+03</pdfrwt>
<pdfrwt beam="2">0</pdfrwt>
<totfact> 0.12912788E+00</totfact>
</mgrwt>
</event>
<event>
 6    1  0.5260809E-006  0.3000000E+03  0.7818608E-02  0.1093470E+00
          1   -1    0    0  502    0  0.00000000000E+00  0.00000000000E+00  0.10981529156E+03  0.10981529156E+03  0.00000000000E+00 0.  1.
         13   -1    0    0    0    0 -0.00000000000E+00 -0.00000000000E+00 -0.10000000000E+04  0.10000000000E+04  0.00000000000E+00 0.  1.
    9000005    2    1    2  501    0  0.42524103452E+00  0.13782098923E+02 -0.87807891409E+03  0.10914665222E+04  0.64814077376E+03 0.  0.
         13    1    3    3    0    0 -0.91534736358E+02 -0.28913254528E+03 -0.27058421492E+03  0.40643825369E+03  0.00000000000E+00 0.  1.
          1    1    3    3  501    0  0.91959977393E+02  0.30291464421E+03 -0.60749469917E+03  0.68502826850E+03  0.00000000000E+00 0.  1.
         21    1    1    2  502  501 -0.42524103452E+00 -0.13782098923E+02 -0.12105794349E+02  0.18348769372E+02  0.00000000000E+00 0.  1.
<mgrwt>
<rscale>  1 0.30000000E+03</rscale>
<asrwt>0</asrwt>
<pdfrwt beam="1">  1        1 0.39932918E+00 0.30000000E+03</pdfrwt>
<pdfrwt beam="2">0</pdfrwt>
<totfact> 0.10624776E+00</totfact>
</mgrwt>
</event>
<event>
 6    1  0.5260809E-006  0.3000000E+03  0.7818608E-02  0.1093470E+00
          1   -1    0    0  502    0  0.00000000000E+00  0.00000000000E+00  0.11733266463E+03  0.11733266463E+03  0.00000000000E+00 0.  1.
         13   -1    0    0    0    0 -0.00000000000E+00 -0.00000000000E+00 -0.10000000000E+04  0.10000000000E+04  0.00000000000E+00 0.  1.
    9000005    2    1    2  501    0 -0.20810612220E+02 -0.89848578479E+01 -0.87366469729E+03  0.10929429794E+04  0.65629303191E+03 0.  0.
         13    1    3    3    0    0 -0.10885269210E+03  0.30853979922E+03 -0.43637006992E+03  0.54540311166E+03  0.00000000000E+00 0.  1.
          1    1    3    3  501    0  0.88042079882E+02 -0.31752465707E+03 -0.43729462737E+03  0.54753986777E+03  0.00000000000E+00 0.  1.
         21    1    1    2  502  501  0.20810612220E+02  0.89848578479E+01 -0.90026380836E+01  0.24389685196E+02  0.00000000000E+00 0.  1.
<mgrwt>
<rscale>  1 0.30000000E+03</rscale>
<asrwt>0</asrwt>
<pdfrwt beam="1">  1        1 0.42666513E+00 0.30000000E+03</pdfrwt>
<pdfrwt beam="2">0</pdfrwt>
<totfact> 0.72903440E-01</totfact>
</mgrwt>
</event>
<event>
 6    1  0.5260809E-006  0.3000000E+03  0.7818608E-02  0.1093470E+00
          1   -1    0    0  502    0  0.00000000000E+00  0.00000000000E+00  0.12501964252E+03  0.12501964252E+03  0.00000000000E+00 0.  1.
         13   -1    0    0    0    0 -0.00000000000E+00 -0.00000000000E+00 -0.10000000000E+04  0.10000000000E+04  0.00000000000E+00 0.  1.
    9000005    2    1    2  501    0 -0.38628819992E+00 -0.21689087582E+02 -0.88842250985E+03  0.10994999012E+04  0.64740629509E+03 0.  0.
         13    1    3    3    0    0 -0.15131004993E+03 -0.18502146651E+03 -0.66599089520E+02  0.24811915082E+03  0.00000000000E+00 0.  1.
          3    1    3    3  501    0  0.15092376173E+03  0.16333237892E+03 -0.82182342033E+03  0.85138075035E+03  0.00000000000E+00 0.  1.
         21    1    1    2  502  501  0.38628819992E+00  0.21689087582E+02  0.13442152371E+02  0.25519741360E+02  0.00000000000E+00 0.  1.
<mgrwt>
<rscale>  1 0.30000000E+03</rscale>
<asrwt>0</asrwt>
<pdfrwt beam="1">  1        1 0.45461784E+00 0.30000000E+03</pdfrwt>
<pdfrwt beam="2">0</pdfrwt>
<totfact> 0.47906881E-01</totfact>
</mgrwt>
</event>
<event>
 6    1  0.5260809E-006  0.3000000E+03  0.7818608E-02  0.1093470E+00
          1   -1    0    0  502    0  0.00000000000E+00  0.00000000000E+00  0.13340135319E+03  0.13340135319E+03  0.00000000000E+00 0.  1.
         13   -1    0    0    0    0 -0.00000000000E+00 -0.00000000000E+00 -0.10000000000E+04  0.10000000000E+04  0.00000000000E+00 0.  1.
    9000005    2    1    2  501    0  0.92871211626E+01  0.41279804316E+02 -0.87332695177E+03  0.10905581162E+04  0.65178736361E+03 0.  0.
         13    1    3    3    0    0 -0.23513444323E+03 -0.19825433700E+03 -0.46887955139E+03  0.56075040994E+03  0.00000000000E+00 0.  1.
          1    1    3    3  501    0  0.24442156439E+03  0.23953414131E+03 -0.40444740038E+03  0.52980770631E+03  0.00000000000E+00 0.  1.
         21    1    1    2  502  501 -0.92871211626E+01 -0.41279804316E+02  0.67283049546E+01  0.42843236939E+02  0.00000000000E+00 0. -1.
<mgrwt>
<rscale>  1 0.30000000E+03</rscale>
<asrwt>0</asrwt>
<pdfrwt beam="1">  1        1 0.48509685E+00 0.30000000E+03</pdfrwt>
<pdfrwt beam="2">0</pdfrwt>
<totfact> 0.29347554E-01</totfact>
</mgrwt>
</event>
<event>
 6    1  0.5260809E-006  0.3000000E+03  0.7818608E-02  0.1093470E+00
          1   -1    0    0  502    0  0.00000000000E+00  0.00000000000E+00  0.12178018059E+03  0.12178018059E+03  0.00000000000E+00 0.  1.
         13   -1    0    0    0    0 -0.00000000000E+00 -0.00000000000E+00 -0.10000000000E+04  0.10000000000E+04  0.00000000000E+00 0.  1.
    9000005    2    1    2  501    0 -0.52204144017E+01 -0.20642861783E+02 -0.88812573843E+03  0.10982959795E+04  0.64578119427E+03 0.  0.
         13    1    3    3    0    0 -0.21732199708E+03 -0.14653837146E+03 -0.11400576487E+03  0.28583152232E+03  0.00000000000E+00 0.  1.
          1    1    3    3  501    0  0.21210158268E+03  0.12589550968E+03 -0.77411997356E+03  0.81246445719E+03  0.00000000000E+00 0.  1.
         21    1    1    2  502  501  0.52204144017E+01  0.20642861783E+02  0.99059190199E+01  0.23484201088E+02  0.00000000000E+00 0.  1.
<mgrwt>
<rscale>  1 0.30000000E+03</rscale>
<asrwt>0</asrwt>
<pdfrwt beam="1">  1        1 0.44283795E+00 0.30000000E+03</pdfrwt>
<pdfrwt beam="2">0</pdfrwt>
<totfact> 0.57433491E-01</totfact>
</mgrwt>
</event>
<event>
 6    1  0.5260809E-006  0.3000000E+03  0.7818608E-02  0.1093470E+00
          1   -1    0    0  502    0  0.00000000000E+00  0.00000000000E+00  0.12108308411E+03  0.12108308411E+03  0.00000000000E+00 0.  1.
         13   -1    0    0    0    0 -0.00000000000E+00 -0.00000000000E+00 -0.10000000000E+04  0.10000000000E+04  0.00000000000E+00 0.  1.
    9000005    2    1    2  501    0  0.58617056376E+02  0.44213889429E+01 -0.86062977751E+03  0.10595206978E+04  0.61517882534E+03 0.  0.
         13    1    3    3    0    0  0.12975400111E+03  0.26644876366E+03 -0.23742446746E+03  0.37973862354E+03  0.00000000000E+00 0.  1.
          3    1    3    3  501    0 -0.71136944738E+02 -0.26202737472E+03 -0.62320531005E+03  0.67978207426E+03  0.00000000000E+00 0.  1.
         21    1    1    2  502  501 -0.58617056376E+02 -0.44213889429E+01 -0.18287138377E+02  0.61562386312E+02  0.00000000000E+00 0.  1.
<mgrwt>
<rscale>  1 0.30000000E+03</rscale>
<asrwt>0</asrwt>
<pdfrwt beam="1">  1        1 0.44030305E+00 0.30000000E+03</pdfrwt>
<pdfrwt beam="2">0</pdfrwt>
<totfact> 0.59672607E-01</totfact>
</mgrwt>
</event>
<event>
 6    1  0.5260809E-006  0.3000000E+03  0.7818608E-02  0.1093470E+00
          1   -1    0    0  502    0  0.00000000000E+00  0.00000000000E+00  0.11455234149E+03  0.11455234149E+03  0.00000000000E+00 0.  1.
         13   -1    0    0    0    0 -0.00000000000E+00 -0.00000000000E+00 -0.10000000000E+04  0.10000000000E+04  0.00000000000E+00 0.  1.
    9000005    2    1    2  501    0 -0.10131557840E+02  0.90950693823E+01 -0.88527331462E+03  0.11009362060E+04  0.65434419020E+03 0.  0.
         13    1    3    3    0    0  0.11010814652E+03  0.42732398800E+02  0.70161913321E+02  0.13737742143E+03  0.00000000000E+00 0.  1.
          3    1    3    3  501    0 -0.12023970436E+03 -0.33637329417E+02 -0.95543522794E+03  0.96355878452E+03  0.00000000000E+00 0.  1.
         21    1    1    2  502  501  0.10131557840E+02 -0.90950693823E+01 -0.17434388745E+00  0.13616135543E+02  0.00000000000E+00 0. -1.
<mgrwt>
<rscale>  1 0.30000000E+03</rscale>
<asrwt>0</asrwt>
<pdfrwt beam="1">  1        1 0.41655485E+00 0.30000000E+03</pdfrwt>
<pdfrwt beam="2">0</pdfrwt>
<totfact> 0.84181303E-01</totfact>
</mgrwt>
</event>
<event>
 6    1  0.5260809E-006  0.3000000E+03  0.7818608E-02  0.1093470E+00
          1   -1    0    0  502    0  0.00000000000E+00  0.00000000000E+00  0.10508596977E+03  0.10508596977E+03  0.00000000000E+00 0.  1.
         13   -1    0    0    0    0 -0.00000000000E+00 -0.00000000000E+00 -0.10000000000E+04  0.10000000000E+04  0.00000000000E+00 0.  1.
    9000005    2    1    2  501    0 -0.12731787839E+02 -0.48992505839E+01 -0.91055567884E+03  0.10843311571E+04  0.58862238567E+03 0.  0.
         13    1    3    3    0    0  0.15052447092E+02 -0.11498096772E+01 -0.99512307410E+03  0.99523757507E+03  0.00000000000E+00 0.  1.
          1    1    3    3  501    0 -0.27784234931E+02 -0.37494409068E+01  0.84567395262E+02  0.89093582031E+02  0.00000000000E+00 0.  1.
         21    1    1    2  502  501  0.12731787839E+02  0.48992505839E+01  0.15641648602E+02  0.20754812668E+02  0.00000000000E+00 0.  1.
<mgrwt>
<rscale>  1 0.30000000E+03</rscale>
<asrwt>0</asrwt>
<pdfrwt beam="1">  1        1 0.38213160E+00 0.30000000E+03</pdfrwt>
<pdfrwt beam="2">0</pdfrwt>
<totfact> 0.13261247E+00</totfact>
</mgrwt>
</event>
<event>
 6    1  0.5260809E-006  0.3000000E+03  0.7818608E-02  0.1093470E+00
          1   -1    0    0  502    0  0.00000000000E+00  0.00000000000E+00  0.10291374955E+03  0.10291374955E+03  0.00000000000E+00 0.  1.
         13   -1    0    0    0    0 -0.00000000000E+00 -0.00000000000E+00 -0.10000000000E+04  0.10000000000E+04  0.00000000000E+00 0.  1.
    9000005    2    1    2  501    0  0.37718365859E+01  0.13348200453E+02 -0.89646452062E+03  0.10890289465E+04  0.61817716593E+03 0.  0.
         13    1    3    3    0    0 -0.24760094063E+03  0.12914122184E+03 -0.21163514563E+03  0.35038994827E+03  0.00000000000E+00 0.  1.
          3    1    3    3  501    0  0.25137277722E+03 -0.11579302139E+03 -0.68482937498E+03  0.73863899827E+03  0.00000000000E+00 0.  1.
         21    1    1    2  502  501 -0.37718365859E+01 -0.13348200453E+02 -0.62172983536E+00  0.13884803008E+02  0.00000000000E+00 0.  1.
<mgrwt>
<rscale>  1 0.30000000E+03</rscale>
<asrwt>0</asrwt>
<pdfrwt beam="1">  1        1 0.37423261E+00 0.30000000E+03</pdfrwt>
<pdfrwt beam="2">0</pdfrwt>
<totfact> 0.14645695E+00</totfact>
</mgrwt>
</event>
<event>
 6    1  0.5260809E-006  0.3000000E+03  0.7818608E-02  0.1093470E+00
          1   -1    0    0  502    0  0.00000000000E+00  0.00000000000E+00  0.11642004572E+03  0.11642004572E+03  0.00000000000E+00 0.  1.
         13   -1    0    0    0    0 -0.00000000000E+00 -0.00000000000E+00 -0.10000000000E+04  0.10000000000E+04  0.00000000000E+00 0.  1.
    9000005    2    1    2  501    0 -0.20240479190E+00  0.26964432867E+02 -0.87220117724E+03  0.10871523472E+04  0.64841206876E+03 0.  0.
         13    1    3    3    0    0  0.66848696299E+02  0.31720047241E+03 -0.60785133592E+03  0.68888905817E+03  0.00000000000E+00 0.  1.
          3    1    3    3  501    0 -0.67051101091E+02 -0.29023603954E+03 -0.26434984132E+03  0.39826328906E+03  0.00000000000E+00 0.  1.
         21    1    1    2  502  501  0.20240479190E+00 -0.26964432867E+02 -0.11378777048E+02  0.29267698486E+02  0.00000000000E+00 0.  1.
<mgrwt>
<rscale>  1 0.30000000E+03</rscale>
<asrwt>0</asrwt>
<pdfrwt beam="1">  1        1 0.42334651E+00 0.30000000E+03</pdfrwt>
<pdfrwt beam="2">0</pdfrwt>
<totfact> 0.76468843E-01</totfact>
</mgrwt>
</event>
<event>
 6    1  0.5260809E-006  0.3000000E+03  0.7818608E-02  0.1093470E+00
          1   -1    0    0  502    0  0.00000000000E+00  0.00000000000E+00  0.10833473728E+03  0.10833473728E+03  0.00000000000E+00 0.  1.
         13   -1    0    0    0    0 -0.00000000000E+00 -0.00000000000E+00 -0.10000000000E+04  0.10000000000E+04  0.00000000000E+00 0.  1.
    9000005    2    1    2  501    0  0.21565491211E+02  0.79156342365E+01 -0.86655215292E+03  0.10742995208E+04  0.63457001111E+03 0.  0.
         13    1    3    3    0    0  0.12590808275E+03  0.12177792509E+03 -0.89948865185E+03  0.91638558650E+03  0.00000000000E+00 0.  1.
          3    1    3    3  501    0 -0.10434259154E+03 -0.11386229086E+03  0.32936498924E+02  0.15791393431E+03  0.00000000000E+00 0.  1.
         21    1    1    2  502  501 -0.21565491211E+02 -0.79156342365E+01 -0.25113109799E+02  0.34035216473E+02  0.00000000000E+00 0.  1.
<mgrwt>
<rscale>  1 0.30000000E+03</rscale>
<asrwt>0</asrwt>
<pdfrwt beam="1">  1        1 0.39394533E+00 0.30000000E+03</pdfrwt>
<pdfrwt beam="2">0</pdfrwt>
<totfact> 0.11396062E+00</totfact>
</mgrwt>
</event>
<event>
 6    1  0.5260809E-006  0.3000000E+03  0.7818608E-02  0.1093470E+00
          1   -1    0    0  502    0  0.00000000000E+00  0.00000000000E+00  0.10487140560E+03  0.10487140560E+03  0.00000000000E+00 0.  1.
         13   -1    0    0    0    0 -0.00000000000E+00 -0.00000000000E+00 -0.10000000000E+04  0.10000000000E+04  0.00000000000E+00 0.  1.
    9000005    2    1    2  501    0 -0.16285029952E+02 -0.97353783220E+01 -0.87261848166E+03  0.10754318919E+04  0.62827602197E+03 0.  0.
         13    1    3    3    0    0  0.60101893055E+02  0.12525178309E+03 -0.90615782045E+03  0.91674546210E+03  0.00000000000E+00 0.  1.
          1    1    3    3  501    0 -0.76386923008E+02 -0.13498716141E+03  0.33539338797E+02  0.15868642979E+03  0.00000000000E+00 0.  1.
         21    1    1    2  502  501  0.16285029952E+02  0.97353783220E+01 -0.22510112744E+02  0.29439513708E+02  0.00000000000E+00 0. -1.
<mgrwt>
<rscale>  1 0.30000000E+03</rscale>
<asrwt>0</asrwt>
<pdfrwt beam="1">  1        1 0.38135137E+00 0.30000000E+03</pdfrwt>
<pdfrwt beam="2">0</pdfrwt>
<totfact> 0.13393012E+00</totfact>
</mgrwt>
</event>
<event>
 6    1  0.5260809E-006  0.3000000E+03  0.7818608E-02  0.1093470E+00
          1   -1    0    0  502    0  0.00000000000E+00  0.00000000000E+00  0.19130739135E+03  0.19130739135E+03  0.00000000000E+00 0.  1.
         13   -1    0    0    0    0 -0.00000000000E+00 -0.00000000000E+00 -0.10000000000E+04  0.10000000000E+04  0.00000000000E+00 0.  1.
    9000005    2    1    2  501    0 -0.51049880795E+02 -0.85414146941E+01 -0.88628463030E+03  0.10980359170E+04  0.64614501710E+03 0.  0.
         13    1    3    3    0    0 -0.43632828853E+02 -0.29410678724E+03 -0.69029488394E+03  0.75160471848E+03  0.00000000000E+00 0.  1.
          1    1    3    3  501    0 -0.74170519425E+01  0.28556537255E+03 -0.19598974637E+03  0.34643119857E+03  0.00000000000E+00 0.  1.
         21    1    1    2  502  501  0.51049880795E+02  0.85414146941E+01  0.77592021651E+02  0.93271474300E+02  0.00000000000E+00 0. -1.
<mgrwt>
<rscale>  1 0.30000000E+03</rscale>
<asrwt>0</asrwt>
<pdfrwt beam="1">  1        1 0.69566471E+00 0.30000000E+03</pdfrwt>
<pdfrwt beam="2">0</pdfrwt>
<totfact> 0.25746866E-02</totfact>
</mgrwt>
</event>
<event>
 6    1  0.5260809E-006  0.3000000E+03  0.7818608E-02  0.1093470E+00
          1   -1    0    0  502    0  0.00000000000E+00  0.00000000000E+00  0.12497155104E+03  0.12497155104E+03  0.00000000000E+00 0.  1.
         13   -1    0    0    0    0 -0.00000000000E+00 -0.00000000000E+00 -0.10000000000E+04  0.10000000000E+04  0.00000000000E+00 0.  1.
    9000005    2    1    2  501    0 -0.41707289002E+02  0.24908335172E+02 -0.81828538596E+03  0.10502741728E+04  0.65660105243E+03 0.  0.
         13    1    3    3    0    0  0.18289430452E+03  0.26324279095E+03 -0.49770024491E+03  0.59199039469E+03  0.00000000000E+00 0.  1.
          3    1    3    3  501    0 -0.22460159352E+03 -0.23833445578E+03 -0.32058514104E+03  0.45828377811E+03  0.00000000000E+00 0.  1.
         21    1    1    2  502  501  0.41707289002E+02 -0.24908335172E+02 -0.56743063004E+02  0.74697378241E+02  0.00000000000E+00 0. -1.
<mgrwt>
<rscale>  1 0.30000000E+03</rscale>
<asrwt>0</asrwt>
<pdfrwt beam="1">  1        1 0.45444296E+00 0.30000000E+03</pdfrwt>
<pdfrwt beam="2">0</pdfrwt>
<totfact> 0.48036683E-01</totfact>
</mgrwt>
</event>
<event>
 6    1  0.5260809E-006  0.3000000E+03  0.7818608E-02  0.1093470E+00
          1   -1    0    0  502    0  0.00000000000E+00  0.00000000000E+00  0.11481174194E+03  0.11481174194E+03  0.00000000000E+00 0.  1.
         13   -1    0    0    0    0 -0.00000000000E+00 -0.00000000000E+00 -0.10000000000E+04  0.10000000000E+04  0.00000000000E+00 0.  1.
    9000005    2    1    2  501    0  0.96460881410E+01 -0.50145338278E+01 -0.88574133349E+03  0.11039260422E+04  0.65878433821E+03 0.  0.
         13    1    3    3    0    0 -0.24905920598E+03  0.89969372312E+02 -0.12119716027E+03  0.29122796517E+03  0.00000000000E+00 0.  1.
          1    1    3    3  501    0  0.25870529413E+03 -0.94983906140E+02 -0.76454417322E+03  0.81269807705E+03  0.00000000000E+00 0.  1.
         21    1    1    2  502  501 -0.96460881410E+01  0.50145338278E+01  0.55307542369E+00  0.10885699718E+02  0.00000000000E+00 0. -1.
<mgrwt>
<rscale>  1 0.30000000E+03</rscale>
<asrwt>0</asrwt>
<pdfrwt beam="1">  1        1 0.41749812E+00 0.30000000E+03</pdfrwt>
<pdfrwt beam="2">0</pdfrwt>
<totfact> 0.83079019E-01</totfact>
</mgrwt>
</event>
<event>
 6    1  0.5260809E-006  0.3000000E+03  0.7818608E-02  0.1093470E+00
          1   -1    0    0  502    0  0.00000000000E+00  0.00000000000E+00  0.11525224131E+03  0.11525224131E+03  0.00000000000E+00 0.  1.
         13   -1    0    0    0    0 -0.00000000000E+00 -0.00000000000E+00 -0.10000000000E+04  0.10000000000E+04  0.00000000000E+00 0.  1.
    9000005    2    1    2  501    0  0.55973162822E+01 -0.17190640968E+02 -0.89771863000E+03  0.10930015876E+04  0.62323902624E+03 0.  0.
         13    1    3    3    0    0  0.19010130015E+03  0.23143710194E+03 -0.55847149416E+03  0.63371290523E+03  0.00000000000E+00 0.  1.
          1    1    3    3  501    0 -0.18450398387E+03 -0.24862774290E+03 -0.33924713584E+03  0.45928868240E+03  0.00000000000E+00 0.  1.
         21    1    1    2  502  501 -0.55973162822E+01  0.17190640968E+02  0.12970871308E+02  0.22250653674E+02  0.00000000000E+00 0.  1.
<mgrwt>
<rscale>  1 0.30000000E+03</rscale>
<asrwt>0</asrwt>
<pdfrwt beam="1">  1        1 0.41909994E+00 0.30000000E+03</pdfrwt>
<pdfrwt beam="2">0</pdfrwt>
<totfact> 0.81229356E-01</totfact>
</mgrwt>
</event>
<event>
 6    1  0.5260809E-006  0.3000000E+03  0.7818608E-02  0.1093470E+00
          1   -1    0    0  502    0  0.00000000000E+00  0.00000000000E+00  0.11276359129E+03  0.11276359129E+03  0.00000000000E+00 0.  1.
         13   -1    0    0    0    0 -0.00000000000E+00 -0.00000000000E+00 -0.10000000000E+04  0.10000000000E+04  0.00000000000E+00 0.  1.
    9000005    2    1    2  501    0  0.11994172613E+02 -0.11357958604E+02 -0.90429599946E+03  0.10890171592E+04  0.60657584440E+03 0.  0.
         13    1    3    3    0    0  0.16189960249E+03 -0.21942064621E+03 -0.72915546597E+03  0.77847581518E+03  0.00000000000E+00 0.  1.
          3    1    3    3  501    0 -0.14990542987E+03  0.20806268760E+03 -0.17514053349E+03  0.31054134403E+03  0.00000000000E+00 0.  1.
         21    1    1    2  502  501 -0.11994172613E+02  0.11357958604E+02  0.17059590747E+02  0.23746432086E+02  0.00000000000E+00 0. -1.
<mgrwt>
<rscale>  1 0.30000000E+03</rscale>
<asrwt>0</asrwt>
<pdfrwt beam="1">  1        1 0.41005029E+00 0.30000000E+03</pdfrwt>
<pdfrwt beam="2">0</pdfrwt>
<totfact> 0.92072026E-01</totfact>
</mgrwt>
</event>
<event>
 6    1  0.5260809E-006  0.3000000E+03  0.7818608E-02  0.1093470E+00
          1   -1    0    0  502    0  0.00000000000E+00  0.00000000000E+00  0.12013968485E+03  0.12013968485E+03  0.00000000000E+00 0.  1.
         13   -1    0    0    0    0 -0.00000000000E+00 -0.00000000000E+00 -0.10000000000E+04  0.10000000000E+04  0.00000000000E+00 0.  1.
    9000005    2    1    2  501    0 -0.24238550718E+00  0.34186857052E+02 -0.87045885637E+03  0.10846828467E+04  0.64627351587E+03 0.  0.
         13    1    3    3    0    0  0.63555816903E+00  0.19011803910E+03  0.10135295098E+02  0.19038906726E+03  0.00000000000E+00 0.  1.
          3    1    3    3  501    0 -0.87794367621E+00 -0.15593118205E+03 -0.88059415147E+03  0.89429377943E+03  0.00000000000E+00 0.  1.
         21    1    1    2  502  501  0.24238550718E+00 -0.34186857052E+02 -0.94014587703E+01  0.35456838167E+02  0.00000000000E+00 0.  1.
<mgrwt>
<rscale>  1 0.30000000E+03</rscale>
<asrwt>0</asrwt>
<pdfrwt beam="1">  1        1 0.43687250E+00 0.30000000E+03</pdfrwt>
<pdfrwt beam="2">0</pdfrwt>
<totfact> 0.62803752E-01</totfact>
</mgrwt>
</event>
<event>
 6    1  0.5260809E-006  0.3000000E+03  0.7818608E-02  0.1093470E+00
          1   -1    0    0  502    0  0.00000000000E+00  0.00000000000E+00  0.11633317774E+03  0.11633317774E+03  0.00000000000E+00 0.  1.
         13   -1    0    0    0    0 -0.00000000000E+00 -0.00000000000E+00 -0.10000000000E+04  0.10000000000E+04  0.00000000000E+00 0.  1.
    9000005    2    1    2  501    0  0.12482258713E+02 -0.10051951085E+01 -0.88634986404E+03  0.11035263080E+04  0.65726510156E+03 0.  0.
         13    1    3    3    0    0 -0.21913782322E+03  0.93763787820E+02 -0.68145003490E+02  0.24790476997E+03  0.00000000000E+00 0.  1.
          3    1    3    3  501    0  0.23162008194E+03 -0.94768982928E+02 -0.81820486055E+03  0.85562153801E+03  0.00000000000E+00 0.  1.
         21    1    1    2  502  501 -0.12482258713E+02  0.10051951085E+01  0.26830417779E+01  0.12806869757E+02  0.00000000000E+00 0.  1.
<mgrwt>
<rscale>  1 0.30000000E+03</rscale>
<asrwt>0</asrwt>
<pdfrwt beam="1">  1        1 0.42303063E+00 0.30000000E+03</pdfrwt>
<pdfrwt beam="2">0</pdfrwt>
<totfact> 0.76815490E-01</totfact>
</mgrwt>
</event>
<event>
 6    1  0.5260809E-006  0.3000000E+03  0.7818608E-02  0.1093470E+00
          1   -1    0    0  502    0  0.00000000000E+00  0.00000000000E+00  0.12707268556E+03  0.12707268556E+03  0.00000000000E+00 0.  1.
         13   -1    0    0    0    0 -0.00000000000E+00 -0.00000000000E+00 -0.10000000000E+04  0.10000000000E+04  0.00000000000E+00 0.  1.
    9000005    2    1    2  501    0  0.15121312962E+02  0.21985172502E+01 -0.88569524945E+03  0.11071601832E+04  0.66416421832E+03 0.  0.
         13    1    3    3    0    0  0.25206877650E+03 -0.22343649642E+03 -0.43250680934E+03  0.54820130988E+03  0.00000000000E+00 0.  1.
          3    1    3    3  501    0 -0.23694746354E+03  0.22563501367E+03 -0.45318844011E+03  0.55895887337E+03  0.00000000000E+00 0.  1.
         21    1    1    2  502  501 -0.15121312962E+02 -0.21985172502E+01  0.12767935006E+02  0.19912502306E+02  0.00000000000E+00 0.  1.
<mgrwt>
<rscale>  1 0.30000000E+03</rscale>
<asrwt>0</asrwt>
<pdfrwt beam="1">  1        1 0.46208347E+00 0.30000000E+03</pdfrwt>
<pdfrwt beam="2">0</pdfrwt>
<totfact> 0.42656867E-01</totfact>
</mgrwt>
</event>
<event>
 6    1  0.5260809E-006  0.3000000E+03  0.7818608E-02  0.1093470E+00
          1   -1    0    0  502    0  0.00000000000E+00  0.00000000000E+00  0.10725883841E+03  0.10725883841E+03  0.00000000000E+00 0.  1.
         13   -1    0    0    0    0 -0.00000000000E+00 -0.00000000000E+00 -0.10000000000E+04  0.10000000000E+04  0.00000000000E+00 0.  1.
    9000005    2    1    2  501    0 -0.63198650481E+01  0.62240234065E+01 -0.87952871408E+03  0.10913450730E+04  0.64605311718E+03 0.  0.
         13    1    3    3    0    0  0.25168320949E+03  0.69763075934E+02 -0.12141594727E+03  0.28801589705E+03  0.00000000000E+00 0.  1.
          3    1    3    3  501    0 -0.25800307453E+03 -0.63539052528E+02 -0.75811276681E+03  0.80332917591E+03  0.00000000000E+00 0.  1.
         21    1    1    2  502  501  0.63198650481E+01 -0.62240234065E+01 -0.13212447513E+02  0.15913765452E+02  0.00000000000E+00 0.  1.
<mgrwt>
<rscale>  1 0.30000000E+03</rscale>
<asrwt>0</asrwt>
<pdfrwt beam="1">  1        1 0.39003296E+00 0.30000000E+03</pdfrwt>
<pdfrwt beam="2">0</pdfrwt>
<totfact> 0.11986897E+00</totfact>
</mgrwt>
</event>
<event>
 6    1  0.5260809E-006  0.3000000E+03  0.7818608E-02  0.1093470E+00
          1   -1    0    0  502    0  0.00000000000E+00  0.00000000000E+00  0.11865060845E+03  0.11865060845E+03  0.00000000000E+00 0.  1.
         13   -1    0    0    0    0 -0.00000000000E+00 -0.00000000000E+00 -0.10000000000E+04  0.10000000000E+04  0.00000000000E+00 0.  1.
    9000005    2    1    2  501    0 -0.14332683486E+02  0.22726842300E+02 -0.84144567405E+03  0.10705440408E+04  0.66129553592E+03 0.  0.
         13    1    3    3    0    0 -0.15113706287E+03 -0.40665198750E+02 -0.89647728158E+03  0.91003713471E+03  0.00000000000E+00 0.  1.
          3    1    3    3  501    0  0.13680437939E+03  0.63392041051E+02  0.55031607533E+02  0.16050690613E+03  0.00000000000E+00 0.  1.
         21    1    1    2  502  501  0.14332683486E+02 -0.22726842300E+02 -0.39903717498E+02  0.48106567608E+02  0.00000000000E+00 0.  1.
<mgrwt>
<rscale>  1 0.30000000E+03</rscale>
<asrwt>0</asrwt>
<pdfrwt beam="1">  1        1 0.43145767E+00 0.30000000E+03</pdfrwt>
<pdfrwt beam="2">0</pdfrwt>
<totfact> 0.68006735E-01</totfact>
</mgrwt>
</event>
<event>
 6    1  0.5260809E-006  0.3000000E+03  0.7818608E-02  0.1093470E+00
          1   -1    0    0  502    0  0.00000000000E+00  0.00000000000E+00  0.10831209473E+03  0.10831209473E+03  0.00000000000E+00 0.  1.
         13   -1    0    0    0    0 -0.00000000000E+00 -0.00000000000E+00 -0.10000000000E+04  0.10000000000E+04  0.00000000000E+00 0.  1.
    9000005    2    1    2  501    0  0.57241411553E+01 -0.59165036210E+01 -0.88403094760E+03  0.10970693278E+04  0.64960189571E+03 0.  0.
         13    1    3    3    0    0  0.59714840393E+02  0.95482231378E+02  0.72322933206E+02  0.13384067147E+03  0.00000000000E+00 0.  1.
          1    1    3    3  501    0 -0.53990699238E+02 -0.10139873500E+03 -0.95635388081E+03  0.96322865634E+03  0.00000000000E+00 0.  1.
         21    1    1    2  502  501 -0.57241411553E+01  0.59165036210E+01 -0.76569576706E+01  0.11242766912E+02  0.00000000000E+00 0. -1.
<mgrwt>
<rscale>  1 0.30000000E+03</rscale>
<asrwt>0</asrwt>
<pdfrwt beam="1">  1        1 0.39386299E+00 0.30000000E+03</pdfrwt>
<pdfrwt beam="2">0</pdfrwt>
<totfact> 0.11408220E+00</totfact>
</mgrwt>
</event>
<event>
 6    1  0.5260809E-006  0.3000000E+03  0.7818608E-02  0.1093470E+00
          1   -1    0    0  502    0  0.00000000000E+00  0.00000000000E+00  0.10957905522E+03  0.10957905522E+03  0.00000000000E+00 0.  1.
         13   -1    0    0    0    0 -0.00000000000E+00 -0.00000000000E+00 -0.10000000000E+04  0.10000000000E+04  0.00000000000E+00 0.  1.
    9000005    2    1    2  501    0 -0.15177091404E+02 -0.10148705564E+02 -0.88249985987E+03  0.10896771982E+04  0.63894996144E+03 0.  0.
         13    1    3    3    0    0  0.24128053348E+03 -0.17852271199E+03 -0.60782635432E+03  0.67789345146E+03  0.00000000000E+00 0.  1.
          1    1    3    3  501    0 -0.25645762488E+03  0.16837400643E+03 -0.27467350555E+03  0.41178374671E+03  0.00000000000E+00 0.  1.
         21    1    1    2  502  501  0.15177091404E+02  0.10148705564E+02 -0.79210849089E+01  0.19901857055E+02  0.00000000000E+00 0.  1.
<mgrwt>
<rscale>  1 0.30000000E+03</rscale>
<asrwt>0</asrwt>
<pdfrwt beam="1">  1        1 0.39847013E+00 0.30000000E+03</pdfrwt>
<pdfrwt beam="2">0</pdfrwt>
<totfact> 0.10744880E+00</totfact>
</mgrwt>
</event>
<event>
 6    1  0.5260809E-006  0.3000000E+03  0.7818608E-02  0.1093470E+00
          1   -1    0    0  502    0  0.00000000000E+00  0.00000000000E+00  0.12791946040E+03  0.12791946040E+03  0.00000000000E+00 0.  1.
         13   -1    0    0    0    0 -0.00000000000E+00 -0.00000000000E+00 -0.10000000000E+04  0.10000000000E+04  0.00000000000E+00 0.  1.
    9000005    2    1    2  501    0 -0.12379879927E+02 -0.79403105528E+01 -0.88366893567E+03  0.11091951211E+04  0.67024377569E+03 0.  0.
         13    1    3    3    0    0 -0.70866740083E+02  0.30977259764E+03 -0.27559820764E+03  0.42063705157E+03  0.00000000000E+00 0.  1.
          3    1    3    3  501    0  0.58486860156E+02 -0.31771290819E+03 -0.60807072803E+03  0.68855806954E+03  0.00000000000E+00 0.  1.
         21    1    1    2  502  501  0.12379879927E+02  0.79403105528E+01  0.11588396065E+02  0.18724339295E+02  0.00000000000E+00 0. -1.
<mgrwt>
<rscale>  1 0.30000000E+03</rscale>
<asrwt>0</asrwt>
<pdfrwt beam="1">  1        1 0.46516266E+00 0.30000000E+03</pdfrwt>
<pdfrwt beam="2">0</pdfrwt>
<totfact> 0.40633231E-01</totfact>
</mgrwt>
</event>
<event>
 6    1  0.5260809E-006  0.3000000E+03  0.7818608E-02  0.1093470E+00
          1   -1    0    0  502    0  0.00000000000E+00  0.00000000000E+00  0.14134202468E+03  0.14134202468E+03  0.00000000000E+00 0.  1.
         13   -1    0    0    0    0 -0.00000000000E+00 -0.00000000000E+00 -0.10000000000E+04  0.10000000000E+04  0.00000000000E+00 0.  1.
    9000005    2    1    2  501    0  0.41055605498E+01 -0.19964198295E+02 -0.90190537400E+03  0.10935323778E+04  0.61803263089E+03 0.  0.
         13    1    3    3    0    0  0.13783466118E+03  0.24113676989E+03 -0.23086045331E+03  0.36116739127E+03  0.00000000000E+00 0.  1.
          3    1    3    3  501    0 -0.13372910063E+03 -0.26110096818E+03 -0.67104492068E+03  0.73236498654E+03  0.00000000000E+00 0.  1.
         21    1    1    2  502  501 -0.41055605498E+01  0.19964198295E+02  0.43247398671E+02  0.47809646859E+02  0.00000000000E+00 0.  1.
<mgrwt>
<rscale>  1 0.30000000E+03</rscale>
<asrwt>0</asrwt>
<pdfrwt beam="1">  1        1 0.51397208E+00 0.30000000E+03</pdfrwt>
<pdfrwt beam="2">0</pdfrwt>
<totfact> 0.18031469E-01</totfact>
</mgrwt>
</event>
<event>
 6    1  0.5260809E-006  0.3000000E+03  0.7818608E-02  0.1093470E+00
          1   -1    0    0  502    0  0.00000000000E+00  0.00000000000E+00  0.11067460550E+03  0.11067460550E+03  0.00000000000E+00 0.  1.
         13   -1    0    0    0    0 -0.00000000000E+00 -0.00000000000E+00 -0.10000000000E+04  0.10000000000E+04  0.00000000000E+00 0.  1.
    9000005    2    1    2  501    0 -0.73399671331E+01 -0.84752174996E+01 -0.88631663477E+03  0.10990661145E+04  0.64981800717E+03 0.  0.
         13    1    3    3    0    0 -0.60604389292E+02 -0.79990901495E+02  0.80186919339E+02  0.12845769092E+03  0.00000000000E+00 0.  1.
          3    1    3    3  501    0  0.53264422159E+02  0.71515683995E+02 -0.96650355411E+03  0.97060842353E+03  0.00000000000E+00 0.  1.
         21    1    1    2  502  501  0.73399671331E+01  0.84752174996E+01 -0.30087597358E+01  0.11608491044E+02  0.00000000000E+00 0. -1.
<mgrwt>
<rscale>  1 0.30000000E+03</rscale>
<asrwt>0</asrwt>
<pdfrwt beam="1">  1        1 0.40245396E+00 0.30000000E+03</pdfrwt>
<pdfrwt beam="2">0</pdfrwt>
<totfact> 0.10196447E+00</totfact>
</mgrwt>
</event>
<event>
 6    1  0.5260809E-006  0.3000000E+03  0.7818608E-02  0.1093470E+00
          1   -1    0    0  502    0  0.00000000000E+00  0.00000000000E+00  0.11632767689E+03  0.11632767689E+03  0.00000000000E+00 0.  1.
         13   -1    0    0    0    0 -0.00000000000E+00 -0.00000000000E+00 -0.10000000000E+04  0.10000000000E+04  0.00000000000E+00 0.  1.
    9000005    2    1    2  501    0  0.58526024965E+01 -0.77175763380E+01 -0.88288708851E+03  0.11066101394E+04  0.66708513379E+03 0.  0.
         13    1    3    3    0    0  0.11701507659E+03 -0.14218453480E+03  0.21640019234E+02  0.18541105824E+03  0.00000000000E+00 0.  1.
          3    1    3    3  501    0 -0.11116247409E+03  0.13446695846E+03 -0.90452710775E+03  0.92119908121E+03  0.00000000000E+00 0.  1.
         21    1    1    2  502  501 -0.58526024965E+01  0.77175763380E+01 -0.78523460032E+00  0.97175374397E+01  0.00000000000E+00 0. -1.
<mgrwt>
<rscale>  1 0.30000000E+03</rscale>
<asrwt>0</asrwt>
<pdfrwt beam="1">  1        1 0.42301063E+00 0.30000000E+03</pdfrwt>
<pdfrwt beam="2">0</pdfrwt>
<totfact> 0.76837483E-01</totfact>
</mgrwt>
</event>
<event>
 6    1  0.5260809E-006  0.3000000E+03  0.7818608E-02  0.1093470E+00
          1   -1    0    0  502    0  0.00000000000E+00  0.00000000000E+00  0.11320627846E+03  0.11320627846E+03  0.00000000000E+00 0.  1.
         13   -1    0    0    0    0 -0.00000000000E+00 -0.00000000000E+00 -0.10000000000E+04  0.10000000000E+04  0.00000000000E+00 0.  1.
    9000005    2    1    2  501    0  0.90385275828E+01 -0.39846392506E+01 -0.88562439061E+03  0.11032594365E+04  0.65783983657E+03 0.  0.
         13    1    3    3    0    0  0.86797127216E+02  0.27882896251E+03 -0.69390632785E+03  0.75285146175E+03  0.00000000000E+00 0.  1.
          1    1    3    3  501    0 -0.77758599633E+02 -0.28281360176E+03 -0.19171806276E+03  0.35040797471E+03  0.00000000000E+00 0.  1.
         21    1    1    2  502  501 -0.90385275828E+01  0.39846392506E+01 -0.11693309323E+01  0.99468419939E+01  0.00000000000E+00 0. -1.
<mgrwt>
<rscale>  1 0.30000000E+03</rscale>
<asrwt>0</asrwt>
<pdfrwt beam="1">  1        1 0.41166006E+00 0.30000000E+03</pdfrwt>
<pdfrwt beam="2">0</pdfrwt>
<totfact> 0.90070188E-01</totfact>
</mgrwt>
</event>
<event>
 6    1  0.5260809E-006  0.3000000E+03  0.7818608E-02  0.1093470E+00
          1   -1    0    0  502    0  0.00000000000E+00  0.00000000000E+00  0.80323567650E+02  0.80323567650E+02  0.00000000000E+00 0.  1.
         13   -1    0    0    0    0 -0.00000000000E+00 -0.00000000000E+00 -0.10000000000E+04  0.10000000000E+04  0.00000000000E+00 0.  1.
    9000005    2    1    2  501    0  0.19179170495E+02 -0.27314109621E+02 -0.93305184503E+03  0.10443680002E+04  0.46797956494E+03 0.  0.
         13    1    3    3    0    0 -0.48616932623E+02  0.18655574451E+03 -0.67706582709E+03  0.70397783073E+03  0.00000000000E+00 0.  1.
          1    1    3    3  501    0  0.67796103118E+02 -0.21386985413E+03 -0.25598601794E+03  0.34039016949E+03  0.00000000000E+00 0.  1.
         21    1    1    2  502  501 -0.19179170495E+02  0.27314109621E+02  0.13375412678E+02  0.35955567435E+02  0.00000000000E+00 0. -1.
<mgrwt>
<rscale>  1 0.30000000E+03</rscale>
<asrwt>0</asrwt>
<pdfrwt beam="1">  1        1 0.29208632E+00 0.30000000E+03</pdfrwt>
<pdfrwt beam="2">0</pdfrwt>
<totfact> 0.37875289E+00</totfact>
</mgrwt>
</event>
<event>
 6    1  0.5260809E-006  0.3000000E+03  0.7818608E-02  0.1093470E+00
          1   -1    0    0  502    0  0.00000000000E+00  0.00000000000E+00  0.10624936244E+03  0.10624936244E+03  0.00000000000E+00 0.  1.
         13   -1    0    0    0    0 -0.00000000000E+00 -0.00000000000E+00 -0.10000000000E+04  0.10000000000E+04  0.00000000000E+00 0.  1.
    9000005    2    1    2  501    0 -0.96335119379E+01 -0.80999285076E+01 -0.88704444778E+03  0.10919880029E+04  0.63673505698E+03 0.  0.
         13    1    3    3    0    0  0.29399762038E+03  0.11847826924E+02 -0.62349806781E+03  0.68943804099E+03  0.00000000000E+00 0.  1.
          3    1    3    3  501    0 -0.30363113232E+03 -0.19947755432E+02 -0.26354637996E+03  0.40254996193E+03  0.00000000000E+00 0.  1.
         21    1    1    2  502  501  0.96335119379E+01  0.80999285076E+01 -0.67061897816E+01  0.14261359524E+02  0.00000000000E+00 0. -1.
<mgrwt>
<rscale>  1 0.30000000E+03</rscale>
<asrwt>0</asrwt>
<pdfrwt beam="1">  1        1 0.38636213E+00 0.30000000E+03</pdfrwt>
<pdfrwt beam="2">0</pdfrwt>
<totfact> 0.12565406E+00</totfact>
</mgrwt>
</event>
<event>
 6    1  0.5260809E-006  0.3000000E+03  0.7818608E-02  0.1093470E+00
          1   -1    0    0  502    0  0.00000000000E+00  0.00000000000E+00  0.12176575214E+03  0.12176575214E+03  0.00000000000E+00 0.  1.
         13   -1    0    0    0    0 -0.00000000000E+00 -0.00000000000E+00 -0.10000000000E+04  0.10000000000E+04  0.00000000000E+00 0.  1.
    9000005    2    1    2  501    0 -0.62529804413E+01 -0.11643339183E+02 -0.88710918011E+03  0.11058462190E+04  0.66012006151E+03 0.  0.
         13    1    3    3    0    0  0.27830058497E+02 -0.23633231831E+03 -0.56326062343E+02  0.24454059404E+03  0.00000000000E+00 0.  1.
          3    1    3    3  501    0 -0.34083038939E+02  0.22468897913E+03 -0.83078311777E+03  0.86130562500E+03  0.00000000000E+00 0.  1.
         21    1    1    2  502  501  0.62529804413E+01  0.11643339183E+02  0.88749322511E+01  0.15919533102E+02  0.00000000000E+00 0. -1.
<mgrwt>
<rscale>  1 0.30000000E+03</rscale>
<asrwt>0</asrwt>
<pdfrwt beam="1">  1        1 0.44278549E+00 0.30000000E+03</pdfrwt>
<pdfrwt beam="2">0</pdfrwt>
<totfact> 0.57479228E-01</totfact>
</mgrwt>
</event>
<event>
 6    1  0.5260809E-006  0.3000000E+03  0.7818608E-02  0.1093470E+00
          1   -1    0    0  502    0  0.00000000000E+00  0.00000000000E+00  0.77405306300E+02  0.77405306300E+02  0.00000000000E+00 0.  1.
         13   -1    0    0    0    0 -0.00000000000E+00 -0.00000000000E+00 -0.10000000000E+04  0.10000000000E+04  0.00000000000E+00 0.  1.
    9000005    2    1    2  501    0  0.16742529808E+02  0.31515592391E+01 -0.89346182685E+03  0.10436566980E+04  0.53912431095E+03 0.  0.
         13    1    3    3    0    0  0.24888818699E+03 -0.66429685743E+02 -0.65423955425E+03  0.70312703484E+03  0.00000000000E+00 0.  1.
          1    1    3    3  501    0 -0.23214565718E+03  0.69581244982E+02 -0.23922227259E+03  0.34052966318E+03  0.00000000000E+00 0.  1.
         21    1    1    2  502  501 -0.16742529808E+02 -0.31515592391E+01 -0.29132866853E+02  0.33748608284E+02  0.00000000000E+00 0.  1.
<mgrwt>
<rscale>  1 0.30000000E+03</rscale>
<asrwt>0</asrwt>
<pdfrwt beam="1">  1        1 0.28147443E+00 0.30000000E+03</pdfrwt>
<pdfrwt beam="2">0</pdfrwt>
<totfact> 0.42499618E+00</totfact>
</mgrwt>
</event>
<event>
 6    1  0.5260809E-006  0.3000000E+03  0.7818608E-02  0.1093470E+00
          1   -1    0    0  502    0  0.00000000000E+00  0.00000000000E+00  0.11132000965E+03  0.11132000965E+03  0.00000000000E+00 0.  1.
         13   -1    0    0    0    0 -0.00000000000E+00 -0.00000000000E+00 -0.10000000000E+04  0.10000000000E+04  0.00000000000E+00 0.  1.
    9000005    2    1    2  501    0  0.21089279165E+02 -0.22772423169E+02 -0.83774716026E+03  0.10516752770E+04  0.63500963990E+03 0.  0.
         13    1    3    3    0    0  0.26550324716E+03 -0.24381923434E+02 -0.74325020958E+03  0.78962480108E+03  0.00000000000E+00 0.  1.
          3    1    3    3  501    0 -0.24441396799E+03  0.16095002654E+01 -0.94496950683E+02  0.26205047592E+03  0.00000000000E+00 0.  1.
         21    1    1    2  502  501 -0.21089279165E+02  0.22772423169E+02 -0.50932830084E+02  0.59644732651E+02  0.00000000000E+00 0.  1.
<mgrwt>
<rscale>  1 0.30000000E+03</rscale>
<asrwt>0</asrwt>
<pdfrwt beam="1">  1        1 0.40480089E+00 0.30000000E+03</pdfrwt>
<pdfrwt beam="2">0</pdfrwt>
<totfact> 0.98829238E-01</totfact>
</mgrwt>
</event>
<event>
 6    1  0.5260809E-006  0.3000000E+03  0.7818608E-02  0.1093470E+00
          1   -1    0    0  502    0  0.00000000000E+00  0.00000000000E+00  0.10013776799E+03  0.10013776799E+03  0.00000000000E+00 0.  1.
         13   -1    0    0    0    0 -0.00000000000E+00 -0.00000000000E+00 -0.10000000000E+04  0.10000000000E+04  0.00000000000E+00 0.  1.
    9000005    2    1    2  501    0  0.12154667526E+02 -0.15866249914E+02 -0.91641515743E+03  0.10741864064E+04  0.56005376624E+03 0.  0.
         13    1    3    3    0    0  0.16020216202E+03 -0.12248927206E+03 -0.85983667425E+03  0.88316898772E+03  0.00000000000E+00 0.  1.
          1    1    3    3  501    0 -0.14804749449E+03  0.10662302215E+03 -0.56578483183E+02  0.19101741867E+03  0.00000000000E+00 0.  1.
         21    1    1    2  502  501 -0.12154667526E+02  0.15866249914E+02  0.16552925415E+02  0.25951361598E+02  0.00000000000E+00 0.  1.
<mgrwt>
<rscale>  1 0.30000000E+03</rscale>
<asrwt>0</asrwt>
<pdfrwt beam="1">  1        1 0.36413811E+00 0.30000000E+03</pdfrwt>
<pdfrwt beam="2">0</pdfrwt>
<totfact> 0.16596521E+00</totfact>
</mgrwt>
</event>
<event>
 6    1  0.5260809E-006  0.3000000E+03  0.7818608E-02  0.1093470E+00
          1   -1    0    0  502    0  0.00000000000E+00  0.00000000000E+00  0.16483336402E+03  0.16483336402E+03  0.00000000000E+00 0.  1.
         13   -1    0    0    0    0 -0.00000000000E+00 -0.00000000000E+00 -0.10000000000E+04  0.10000000000E+04  0.00000000000E+00 0.  1.
    9000005    2    1    2  501    0  0.40555893774E+02 -0.36921858210E+02 -0.88245073778E+03  0.10924193432E+04  0.64160167751E+03 0.  0.
         13    1    3    3    0    0 -0.17063081806E+03  0.22106586879E+03 -0.23835261854E+03  0.36714706206E+03  0.00000000000E+00 0.  1.
          3    1    3    3  501    0  0.21118671183E+03 -0.25798772700E+03 -0.64409811924E+03  0.72527228111E+03  0.00000000000E+00 0.  1.
         21    1    1    2  502  501 -0.40555893774E+02  0.36921858210E+02  0.47284101801E+02  0.72414020856E+02  0.00000000000E+00 0.  1.
<mgrwt>
<rscale>  1 0.30000000E+03</rscale>
<asrwt>0</asrwt>
<pdfrwt beam="1">  1        1 0.59939531E+00 0.30000000E+03</pdfrwt>
<pdfrwt beam="2">0</pdfrwt>
<totfact> 0.58913757E-02</totfact>
</mgrwt>
</event>
<event>
 6    1  0.5260809E-006  0.3000000E+03  0.7818608E-02  0.1093470E+00
          1   -1    0    0  502    0  0.00000000000E+00  0.00000000000E+00  0.10699346342E+03  0.10699346342E+03  0.00000000000E+00 0.  1.
         13   -1    0    0    0    0 -0.00000000000E+00 -0.00000000000E+00 -0.10000000000E+04  0.10000000000E+04  0.00000000000E+00 0.  1.
    9000005    2    1    2  501    0 -0.97410326820E+01  0.70471133468E+01 -0.85238383124E+03  0.10646289298E+04  0.63775544905E+03 0.  0.
         13    1    3    3    0    0 -0.31094449642E+03 -0.69268844948E+02 -0.51837722271E+03  0.60844029926E+03  0.00000000000E+00 0.  1.
          3    1    3    3  501    0  0.30120346373E+03  0.76315958294E+02 -0.33400660853E+03  0.45618863050E+03  0.00000000000E+00 0.  1.
         21    1    1    2  502  501  0.97410326820E+01 -0.70471133468E+01 -0.40622705338E+02  0.42364533671E+02  0.00000000000E+00 0. -1.
<mgrwt>
<rscale>  1 0.30000000E+03</rscale>
<asrwt>0</asrwt>
<pdfrwt beam="1">  1        1 0.38906796E+00 0.30000000E+03</pdfrwt>
<pdfrwt beam="2">0</pdfrwt>
<totfact> 0.12136716E+00</totfact>
</mgrwt>
</event>
<event>
 6    1  0.5260809E-006  0.3000000E+03  0.7818608E-02  0.1093470E+00
          1   -1    0    0  502    0  0.00000000000E+00  0.00000000000E+00  0.12472045245E+03  0.12472045245E+03  0.00000000000E+00 0.  1.
         13   -1    0    0    0    0 -0.00000000000E+00 -0.00000000000E+00 -0.10000000000E+04  0.10000000000E+04  0.00000000000E+00 0.  1.
    9000005    2    1    2  501    0  0.10367453333E+02 -0.53340232849E+01 -0.89066481214E+03  0.11054165083E+04  0.65461890696E+03 0.  0.
         13    1    3    3    0    0  0.30980088960E+03 -0.11456333535E+03 -0.38047609119E+03  0.50384859330E+03  0.00000000000E+00 0.  1.
          1    1    3    3  501    0 -0.29943343627E+03  0.10922931207E+03 -0.51018872096E+03  0.60156791500E+03  0.00000000000E+00 0.  1.
         21    1    1    2  502  501 -0.10367453333E+02  0.53340232849E+01  0.15385264591E+02  0.19303944145E+02  0.00000000000E+00 0.  1.
<mgrwt>
<rscale>  1 0.30000000E+03</rscale>
<asrwt>0</asrwt>
<pdfrwt beam="1">  1        1 0.45352987E+00 0.30000000E+03</pdfrwt>
<pdfrwt beam="2">0</pdfrwt>
<totfact> 0.48720109E-01</totfact>
</mgrwt>
</event>
<event>
 6    1  0.5260809E-006  0.3000000E+03  0.7818608E-02  0.1093470E+00
          1   -1    0    0  502    0  0.00000000000E+00  0.00000000000E+00  0.11169713662E+03  0.11169713662E+03  0.00000000000E+00 0.  1.
         13   -1    0    0    0    0 -0.00000000000E+00 -0.00000000000E+00 -0.10000000000E+04  0.10000000000E+04  0.00000000000E+00 0.  1.
    9000005    2    1    2  501    0 -0.10594947887E+02  0.51777697199E+01 -0.88904123019E+03  0.10998815788E+04  0.64746128555E+03 0.  0.
         13    1    3    3    0    0  0.27703674929E+03  0.70330641429E+02 -0.68220599437E+03  0.73966261115E+03  0.00000000000E+00 0.  1.
          1    1    3    3  501    0 -0.28763169717E+03 -0.65152871709E+02 -0.20683523582E+03  0.36021896769E+03  0.00000000000E+00 0.  1.
         21    1    1    2  502  501  0.10594947887E+02 -0.51777697199E+01  0.73836681244E+00  0.11815557776E+02  0.00000000000E+00 0.  1.
<mgrwt>
<rscale>  1 0.30000000E+03</rscale>
<asrwt>0</asrwt>
<pdfrwt beam="1">  1        1 0.40617226E+00 0.30000000E+03</pdfrwt>
<pdfrwt beam="2">0</pdfrwt>
<totfact> 0.97029724E-01</totfact>
</mgrwt>
</event>
<event>
 6    1  0.5260809E-006  0.3000000E+03  0.7818608E-02  0.1093470E+00
          1   -1    0    0  502    0  0.00000000000E+00  0.00000000000E+00  0.11868629309E+03  0.11868629309E+03  0.00000000000E+00 0.  1.
         13   -1    0    0    0    0 -0.00000000000E+00 -0.00000000000E+00 -0.10000000000E+04  0.10000000000E+04  0.00000000000E+00 0.  1.
    9000005    2    1    2  501    0  0.32394886779E+01 -0.32648381463E+02 -0.86020960504E+03  0.10796761122E+04  0.65166212987E+03 0.  0.
         13    1    3    3    0    0  0.17544771886E+03 -0.17344017718E+03 -0.81653756353E+03  0.85299295997E+03  0.00000000000E+00 0.  1.
          3    1    3    3  501    0 -0.17220823018E+03  0.14079179571E+03 -0.43672041510E+02  0.22668315220E+03  0.00000000000E+00 0.  1.
         21    1    1    2  502  501 -0.32394886779E+01  0.32648381463E+02 -0.21104101875E+02  0.39010180915E+02  0.00000000000E+00 0.  1.
<mgrwt>
<rscale>  1 0.30000000E+03</rscale>
<asrwt>0</asrwt>
<pdfrwt beam="1">  1        1 0.43158743E+00 0.30000000E+03</pdfrwt>
<pdfrwt beam="2">0</pdfrwt>
<totfact> 0.67878103E-01</totfact>
</mgrwt>
</event>
<event>
 6    1  0.5260809E-006  0.3000000E+03  0.7818608E-02  0.1093470E+00
          1   -1    0    0  502    0  0.00000000000E+00  0.00000000000E+00  0.11057382531E+03  0.11057382531E+03  0.00000000000E+00 0.  1.
         13   -1    0    0    0    0 -0.00000000000E+00 -0.00000000000E+00 -0.10000000000E+04  0.10000000000E+04  0.00000000000E+00 0.  1.
    9000005    2    1    2  501    0 -0.12958033076E+01  0.11471798204E+02 -0.88888681726E+03  0.10990164828E+04  0.64620753186E+03 0.  0.
         13    1    3    3    0    0 -0.22885785311E+03  0.63462729888E+02 -0.70125572386E+02  0.24763083596E+03  0.00000000000E+00 0.  1.
          3    1    3    3  501    0  0.22756204980E+03 -0.51990931684E+02 -0.81876124487E+03  0.85138564681E+03  0.00000000000E+00 0.  1.
         21    1    1    2  502  501  0.12958033076E+01 -0.11471798204E+02 -0.53935743451E+00  0.11557342544E+02  0.00000000000E+00 0.  1.
<mgrwt>
<rscale>  1 0.30000000E+03</rscale>
<asrwt>0</asrwt>
<pdfrwt beam="1">  1        1 0.40208749E+00 0.30000000E+03</pdfrwt>
<pdfrwt beam="2">0</pdfrwt>
<totfact> 0.10246018E+00</totfact>
</mgrwt>
</event>
<event>
 6    1  0.5260809E-006  0.3000000E+03  0.7818608E-02  0.1093470E+00
          1   -1    0    0  502    0  0.00000000000E+00  0.00000000000E+00  0.11542196079E+03  0.11542196079E+03  0.00000000000E+00 0.  1.
         13   -1    0    0    0    0 -0.00000000000E+00 -0.00000000000E+00 -0.10000000000E+04  0.10000000000E+04  0.00000000000E+00 0.  1.
    9000005    2    1    2  501    0  0.61780855773E+01 -0.13857589993E+02 -0.87631113590E+03  0.10981435571E+04  0.66164028268E+03 0.  0.
         13    1    3    3    0    0  0.15803431225E+03  0.21463304697E+03 -0.75030280219E+03  0.79623896142E+03  0.00000000000E+00 0.  1.
          1    1    3    3  501    0 -0.15185622667E+03 -0.22849063697E+03 -0.12600833371E+03  0.30190459573E+03  0.00000000000E+00 0.  1.
         21    1    1    2  502  501 -0.61780855773E+01  0.13857589993E+02 -0.82669033154E+01  0.17278403637E+02  0.00000000000E+00 0.  1.
<mgrwt>
<rscale>  1 0.30000000E+03</rscale>
<asrwt>0</asrwt>
<pdfrwt beam="1">  1        1 0.41971711E+00 0.30000000E+03</pdfrwt>
<pdfrwt beam="2">0</pdfrwt>
<totfact> 0.80524362E-01</totfact>
</mgrwt>
</event>
<event>
 6    1  0.5260809E-006  0.3000000E+03  0.7818608E-02  0.1093470E+00
          1   -1    0    0  502    0  0.00000000000E+00  0.00000000000E+00  0.11000042477E+03  0.11000042477E+03  0.00000000000E+00 0.  1.
         13   -1    0    0    0    0 -0.00000000000E+00 -0.00000000000E+00 -0.10000000000E+04  0.10000000000E+04  0.00000000000E+00 0.  1.
    9000005    2    1    2  501    0 -0.12389594492E+01 -0.10247772112E+02 -0.88952928652E+03  0.10996673214E+04  0.64645132403E+03 0.  0.
         13    1    3    3    0    0  0.30302114948E+03  0.50870960735E+02 -0.60538644776E+03  0.67889794728E+03  0.00000000000E+00 0.  1.
          1    1    3    3  501    0 -0.30426010893E+03 -0.61118732847E+02 -0.28414283875E+03  0.42076937413E+03  0.00000000000E+00 0.  1.
         21    1    1    2  502  501  0.12389594492E+01  0.10247772112E+02 -0.47028871000E+00  0.10333103369E+02  0.00000000000E+00 0.  1.
<mgrwt>
<rscale>  1 0.30000000E+03</rscale>
<asrwt>0</asrwt>
<pdfrwt beam="1">  1        1 0.40000239E+00 0.30000000E+03</pdfrwt>
<pdfrwt beam="2">0</pdfrwt>
<totfact> 0.10531384E+00</totfact>
</mgrwt>
</event>
<event>
 6    1  0.5260809E-006  0.3000000E+03  0.7818608E-02  0.1093470E+00
          1   -1    0    0  502    0  0.00000000000E+00  0.00000000000E+00  0.11407974140E+03  0.11407974140E+03  0.00000000000E+00 0.  1.
         13   -1    0    0    0    0 -0.00000000000E+00 -0.00000000000E+00 -0.10000000000E+04  0.10000000000E+04  0.00000000000E+00 0.  1.
    9000005    2    1    2  501    0  0.30198109198E+01 -0.12584981783E+02 -0.88271854990E+03  0.11007473762E+04  0.65748402775E+03 0.  0.
         13    1    3    3    0    0  0.14109159091E+03  0.24160695307E+03 -0.71166214510E+03  0.76468540300E+03  0.00000000000E+00 0.  1.
          3    1    3    3  501    0 -0.13807177999E+03 -0.25419193486E+03 -0.17105640480E+03  0.33606197315E+03  0.00000000000E+00 0.  1.
         21    1    1    2  502  501 -0.30198109198E+01  0.12584981783E+02 -0.32017087062E+01  0.13332365248E+02  0.00000000000E+00 0. -1.
<mgrwt>
<rscale>  1 0.30000000E+03</rscale>
<asrwt>0</asrwt>
<pdfrwt beam="1">  1        1 0.41483630E+00 0.30000000E+03</pdfrwt>
<pdfrwt beam="2">0</pdfrwt>
<totfact> 0.86215295E-01</totfact>
</mgrwt>
</event>
<event>
 6    1  0.5260809E-006  0.3000000E+03  0.7818608E-02  0.1093470E+00
          1   -1    0    0  502    0  0.00000000000E+00  0.00000000000E+00  0.10906830254E+03  0.10906830254E+03  0.00000000000E+00 0.  1.
         13   -1    0    0    0    0 -0.00000000000E+00 -0.00000000000E+00 -0.10000000000E+04  0.10000000000E+04  0.00000000000E+00 0.  1.
    9000005    2    1    2  501    0  0.49792228797E+01  0.90109415202E+01 -0.88789597465E+03  0.10983349275E+04  0.64643202378E+03 0.  0.
         13    1    3    3    0    0 -0.25094437845E+03  0.20495160392E+03 -0.45846588874E+03  0.56139933395E+03  0.00000000000E+00 0.  1.
          3    1    3    3  501    0  0.25592360133E+03 -0.19594066240E+03 -0.42943008592E+03  0.53693559352E+03  0.00000000000E+00 0.  1.
         21    1    1    2  502  501 -0.49792228797E+01 -0.90109415202E+01 -0.30357228018E+01  0.10733375075E+02  0.00000000000E+00 0.  1.
<mgrwt>
<rscale>  1 0.30000000E+03</rscale>
<asrwt>0</asrwt>
<pdfrwt beam="1">  1        1 0.39661285E+00 0.30000000E+03</pdfrwt>
<pdfrwt beam="2">0</pdfrwt>
<totfact> 0.11008271E+00</totfact>
</mgrwt>
</event>
<event>
 6    1  0.5260809E-006  0.3000000E+03  0.7818608E-02  0.1093470E+00
          1   -1    0    0  502    0  0.00000000000E+00  0.00000000000E+00  0.11789099338E+03  0.11789099338E+03  0.00000000000E+00 0.  1.
         13   -1    0    0    0    0 -0.00000000000E+00 -0.00000000000E+00 -0.10000000000E+04  0.10000000000E+04  0.00000000000E+00 0.  1.
    9000005    2    1    2  501    0  0.18337639912E+02 -0.16066547872E+02 -0.88343500187E+03  0.10934745796E+04  0.64392146317E+03 0.  0.
         13    1    3    3    0    0 -0.24154136006E+03 -0.14891586001E+03 -0.19102836224E+03  0.34206724070E+03  0.00000000000E+00 0.  1.
          1    1    3    3  501    0  0.25987899997E+03  0.13284931214E+03 -0.69240663963E+03  0.75140733891E+03  0.00000000000E+00 0.  1.
         21    1    1    2  502  501 -0.18337639912E+02  0.16066547872E+02  0.13259952522E+01  0.24416413772E+02  0.00000000000E+00 0. -1.
<mgrwt>
<rscale>  1 0.30000000E+03</rscale>
<asrwt>0</asrwt>
<pdfrwt beam="1">  1        1 0.42869543E+00 0.30000000E+03</pdfrwt>
<pdfrwt beam="2">0</pdfrwt>
<totfact> 0.70793351E-01</totfact>
</mgrwt>
</event>
<event>
 6    1  0.5260809E-006  0.3000000E+03  0.7818608E-02  0.1093470E+00
          1   -1    0    0  502    0  0.00000000000E+00  0.00000000000E+00  0.12700185030E+03  0.12700185030E+03  0.00000000000E+00 0.  1.
         13   -1    0    0    0    0 -0.00000000000E+00 -0.00000000000E+00 -0.10000000000E+04  0.10000000000E+04  0.00000000000E+00 0.  1.
    9000005    2    1    2  501    0  0.26188739236E+02  0.12552730448E+02 -0.87883866205E+03  0.10973786721E+04  0.65653570724E+03 0.  0.
         13    1    3    3    0    0  0.51805813972E+02  0.11838961209E+03 -0.95550507537E+03  0.96420427901E+03  0.00000000000E+00 0.  1.
          3    1    3    3  501    0 -0.25617074735E+02 -0.10583688164E+03  0.76666413321E+02  0.13317439305E+03  0.00000000000E+00 0.  1.
         21    1    1    2  502  501 -0.26188739236E+02 -0.12552730448E+02  0.58405123510E+01  0.29623178239E+02  0.00000000000E+00 0. -1.
<mgrwt>
<rscale>  1 0.30000000E+03</rscale>
<asrwt>0</asrwt>
<pdfrwt beam="1">  1        1 0.46182588E+00 0.30000000E+03</pdfrwt>
<pdfrwt beam="2">0</pdfrwt>
<totfact> 0.42829490E-01</totfact>
</mgrwt>
</event>
<event>
 6    1  0.5260809E-006  0.3000000E+03  0.7818608E-02  0.1093470E+00
          1   -1    0    0  502    0  0.00000000000E+00  0.00000000000E+00  0.14059181066E+03  0.14059181066E+03  0.00000000000E+00 0.  1.
         13   -1    0    0    0    0 -0.00000000000E+00 -0.00000000000E+00 -0.10000000000E+04  0.10000000000E+04  0.00000000000E+00 0.  1.
    9000005    2    1    2  501    0 -0.94495225093E+01  0.11104066361E+02 -0.89217692716E+03  0.11047256157E+04  0.65132666364E+03 0.  0.
         13    1    3    3    0    0  0.30792350310E+03  0.24636198814E+02 -0.59162259787E+03  0.66741375800E+03  0.00000000000E+00 0.  1.
          1    1    3    3  501    0 -0.31737302561E+03 -0.13532132453E+02 -0.30055432929E+03  0.43731185766E+03  0.00000000000E+00 0.  1.
         21    1    1    2  502  501  0.94495225093E+01 -0.11104066361E+02  0.32768737822E+02  0.35866195001E+02  0.00000000000E+00 0.  1.
<mgrwt>
<rscale>  1 0.30000000E+03</rscale>
<asrwt>0</asrwt>
<pdfrwt beam="1">  1        1 0.51124403E+00 0.30000000E+03</pdfrwt>
<pdfrwt beam="2">0</pdfrwt>
<totfact> 0.18889934E-01</totfact>
</mgrwt>
</event>
<event>
 6    1  0.5260809E-006  0.3000000E+03  0.7818608E-02  0.1093470E+00
          1   -1    0    0  502    0  0.00000000000E+00  0.00000000000E+00  0.11296459046E+03  0.11296459046E+03  0.00000000000E+00 0.  1.
         13   -1    0    0    0    0 -0.00000000000E+00 -0.00000000000E+00 -0.10000000000E+04  0.10000000000E+04  0.00000000000E+00 0.  1.
    9000005    2    1    2  501    0  0.54957279269E+01  0.87834658740E+01 -0.88615641478E+03  0.11025662767E+04  0.65595110385E+03 0.  0.
         13    1    3    3    0    0 -0.77954787754E+02 -0.53981214658E+02  0.84078551928E+02  0.12672854203E+03  0.00000000000E+00 0.  1.
          3    1    3    3  501    0  0.83450515681E+02  0.62764680532E+02 -0.97023496671E+03  0.97583773462E+03  0.00000000000E+00 0.  1.
         21    1    1    2  502  501 -0.54957279269E+01 -0.87834658740E+01 -0.87899476162E+00  0.10398313806E+02  0.00000000000E+00 0. -1.
<mgrwt>
<rscale>  1 0.30000000E+03</rscale>
<asrwt>0</asrwt>
<pdfrwt beam="1">  1        1 0.41078120E+00 0.30000000E+03</pdfrwt>
<pdfrwt beam="2">0</pdfrwt>
<totfact> 0.91159061E-01</totfact>
</mgrwt>
</event>
<event>
 6    1  0.5260809E-006  0.3000000E+03  0.7818608E-02  0.1093470E+00
          1   -1    0    0  502    0  0.00000000000E+00  0.00000000000E+00  0.10160451774E+03  0.10160451774E+03  0.00000000000E+00 0.  1.
         13   -1    0    0    0    0 -0.00000000000E+00 -0.00000000000E+00 -0.10000000000E+04  0.10000000000E+04  0.00000000000E+00 0.  1.
    9000005    2    1    2  501    0  0.16675366803E+01  0.13987904353E+02 -0.91034433885E+03  0.10831324491E+04  0.58672876599E+03 0.  0.
         13    1    3    3    0    0  0.84954155701E+02 -0.16395013586E+03 -0.37464218595E+02  0.18841556012E+03  0.00000000000E+00 0.  1.
          1    1    3    3  501    0 -0.83286619021E+02  0.17793804021E+03 -0.87288012025E+03  0.89471688896E+03  0.00000000000E+00 0.  1.
         21    1    1    2  502  501 -0.16675366803E+01 -0.13987904353E+02  0.11948856593E+02  0.18472068662E+02  0.00000000000E+00 0.  1.
<mgrwt>
<rscale>  1 0.30000000E+03</rscale>
<asrwt>0</asrwt>
<pdfrwt beam="1">  1        1 0.36947175E+00 0.30000000E+03</pdfrwt>
<pdfrwt beam="2">0</pdfrwt>
<totfact> 0.15537959E+00</totfact>
</mgrwt>
</event>
<event>
 6    1  0.5260809E-006  0.3000000E+03  0.7818608E-02  0.1093470E+00
          1   -1    0    0  502    0  0.00000000000E+00  0.00000000000E+00  0.10101605837E+03  0.10101605837E+03  0.00000000000E+00 0.  1.
         13   -1    0    0    0    0 -0.00000000000E+00 -0.00000000000E+00 -0.10000000000E+04  0.10000000000E+04  0.00000000000E+00 0.  1.
    9000005    2    1    2  501    0  0.43176497266E+01 -0.14216694928E+02 -0.88769131158E+03  0.10823537968E+04  0.61909055901E+03 0.  0.
         13    1    3    3    0    0  0.35643790553E+02 -0.12764933353E+03 -0.94304084853E+03  0.95230818234E+03  0.00000000000E+00 0.  1.
          3    1    3    3  501    0 -0.31326140826E+02  0.11343263860E+03  0.55349536944E+02  0.13004561445E+03  0.00000000000E+00 0.  1.
         21    1    1    2  502  501 -0.43176497266E+01  0.14216694928E+02 -0.11292630049E+02  0.18662261579E+02  0.00000000000E+00 0.  1.
<mgrwt>
<rscale>  1 0.30000000E+03</rscale>
<asrwt>0</asrwt>
<pdfrwt beam="1">  1        1 0.36733190E+00 0.30000000E+03</pdfrwt>
<pdfrwt beam="2">0</pdfrwt>
<totfact> 0.15954561E+00</totfact>
</mgrwt>
</event>
<event>
 6    1  0.5260809E-006  0.3000000E+03  0.7818608E-02  0.1093470E+00
          1   -1    0    0  502    0  0.00000000000E+00  0.00000000000E+00  0.69516415977E+02  0.69516415977E+02  0.00000000000E+00 0.  1.
         13   -1    0    0    0    0 -0.00000000000E+00 -0.00000000000E+00 -0.10000000000E+04  0.10000000000E+04  0.00000000000E+00 0.  1.
    9000005    2    1    2  501    0 -0.12320046671E+02 -0.97427534509E+01 -0.91129799518E+03  0.10447214243E+04  0.51061934305E+03 0.  0.
         13    1    3    3    0    0  0.32317654524E+02  0.23210978735E+03 -0.26797826115E+03  0.35599400645E+03  0.00000000000E+00 0.  1.
          3    1    3    3  501    0 -0.44637701195E+02 -0.24185254080E+03 -0.64331973403E+03  0.68872741782E+03  0.00000000000E+00 0.  1.
         21    1    1    2  502  501  0.12320046671E+02  0.97427534509E+01 -0.19185588840E+02  0.24794991710E+02  0.00000000000E+00 0. -1.
<mgrwt>
<rscale>  1 0.30000000E+03</rscale>
<asrwt>0</asrwt>
<pdfrwt beam="1">  1        1 0.25278750E+00 0.30000000E+03</pdfrwt>
<pdfrwt beam="2">0</pdfrwt>
<totfact> 0.57904301E+00</totfact>
</mgrwt>
</event>
<event>
 6    1  0.5260809E-006  0.3000000E+03  0.7818608E-02  0.1093470E+00
          1   -1    0    0  502    0  0.00000000000E+00  0.00000000000E+00  0.12159052555E+03  0.12159052555E+03  0.00000000000E+00 0.  1.
         13   -1    0    0    0    0 -0.00000000000E+00 -0.00000000000E+00 -0.10000000000E+04  0.10000000000E+04  0.00000000000E+00 0.  1.
    9000005    2    1    2  501    0 -0.23020278532E+01 -0.22298254615E+02 -0.88460619347E+03  0.10983330361E+04  0.65061880474E+03 0.  0.
         13    1    3    3    0    0 -0.24884315926E+03  0.36581849053E+02 -0.94701447438E+02  0.26875549062E+03  0.00000000000E+00 0.  1.
          1    1    3    3  501    0  0.24654113141E+03 -0.58880103667E+02 -0.78990474603E+03  0.82957754543E+03  0.00000000000E+00 0.  1.
         21    1    1    2  502  501  0.23020278532E+01  0.22298254615E+02  0.61967190200E+01  0.23257489497E+02  0.00000000000E+00 0.  1.
<mgrwt>
<rscale>  1 0.30000000E+03</rscale>
<asrwt>0</asrwt>
<pdfrwt beam="1">  1        1 0.44214830E+00 0.30000000E+03</pdfrwt>
<pdfrwt beam="2">0</pdfrwt>
<totfact> 0.58036765E-01</totfact>
</mgrwt>
</event>
<event>
 6    1  0.5260809E-006  0.3000000E+03  0.7818608E-02  0.1093470E+00
          1   -1    0    0  502    0  0.00000000000E+00  0.00000000000E+00  0.10824436268E+03  0.10824436268E+03  0.00000000000E+00 0.  1.
         13   -1    0    0    0    0 -0.00000000000E+00 -0.00000000000E+00 -0.10000000000E+04  0.10000000000E+04  0.00000000000E+00 0.  1.
    9000005    2    1    2  501    0 -0.45201301951E+01  0.71945579005E+01 -0.87706931841E+03  0.10912773004E+04  0.64927911083E+03 0.  0.
         13    1    3    3    0    0 -0.21318606595E+03 -0.24214936318E+03 -0.39884107870E+03  0.51299007677E+03  0.00000000000E+00 0.  1.
          3    1    3    3  501    0  0.20866593575E+03  0.24934392108E+03 -0.47822823971E+03  0.57828722360E+03  0.00000000000E+00 0.  1.
         21    1    1    2  502  501  0.45201301951E+01 -0.71945579005E+01 -0.14686318911E+02  0.16967062312E+02  0.00000000000E+00 0.  1.
<mgrwt>
<rscale>  1 0.30000000E+03</rscale>
<asrwt>0</asrwt>
<pdfrwt beam="1">  1        1 0.39361669E+00 0.30000000E+03</pdfrwt>
<pdfrwt beam="2">0</pdfrwt>
<totfact> 0.11444657E+00</totfact>
</mgrwt>
</event>
<event>
 6    1  0.5260809E-006  0.3000000E+03  0.7818608E-02  0.1093470E+00
          1   -1    0    0  502    0  0.00000000000E+00  0.00000000000E+00  0.10740100846E+03  0.10740100846E+03  0.00000000000E+00 0.  1.
         13   -1    0    0    0    0 -0.00000000000E+00 -0.00000000000E+00 -0.10000000000E+04  0.10000000000E+04  0.00000000000E+00 0.  1.
    9000005    2    1    2  501    0 -0.11415465753E+02  0.22875558267E+00 -0.89241234574E+03  0.10959817255E+04  0.63611774267E+03 0.  0.
         13    1    3    3    0    0  0.12819811959E+03 -0.27982603393E+03 -0.56291405374E+03  0.64156807825E+03  0.00000000000E+00 0.  1.
          1    1    3    3  501    0 -0.13961358535E+03  0.28005478951E+03 -0.32949829200E+03  0.45441364722E+03  0.00000000000E+00 0.  1.
         21    1    1    2  502  501  0.11415465753E+02 -0.22875558267E+00 -0.18664579733E+00  0.11419282995E+02  0.00000000000E+00 0.  1.
<mgrwt>
<rscale>  1 0.30000000E+03</rscale>
<asrwt>0</asrwt>
<pdfrwt beam="1">  1        1 0.39054995E+00 0.30000000E+03</pdfrwt>
<pdfrwt beam="2">0</pdfrwt>
<totfact> 0.11907294E+00</totfact>
</mgrwt>
</event>
<event>
 6    1  0.5260809E-006  0.3000000E+03  0.7818608E-02  0.1093470E+00
          1   -1    0    0  502    0  0.00000000000E+00  0.00000000000E+00  0.11700180145E+03  0.11700180145E+03  0.00000000000E+00 0.  1.
         13   -1    0    0    0    0 -0.00000000000E+00 -0.00000000000E+00 -0.10000000000E+04  0.10000000000E+04  0.00000000000E+00 0.  1.
    9000005    2    1    2  501    0  0.12599007415E+02 -0.42812325364E+01 -0.89289562795E+03  0.11004179826E+04  0.64302415974E+03 0.  0.
         13    1    3    3    0    0  0.41485415947E+01  0.20451251563E+03 -0.86588040211E+03  0.88971425200E+03  0.00000000000E+00 0.  1.
          3    1    3    3  501    0  0.84504658201E+01 -0.20879374817E+03 -0.27015225837E+02  0.21070373057E+03  0.00000000000E+00 0.  1.
         21    1    1    2  502  501 -0.12599007415E+02  0.42812325364E+01  0.98974293963E+01  0.16583818876E+02  0.00000000000E+00 0.  1.
<mgrwt>
<rscale>  1 0.30000000E+03</rscale>
<asrwt>0</asrwt>
<pdfrwt beam="1">  1        1 0.42546199E+00 0.30000000E+03</pdfrwt>
<pdfrwt beam="2">0</pdfrwt>
<totfact> 0.74179676E-01</totfact>
</mgrwt>
</event>
<event>
 6    1  0.5260809E-006  0.3000000E+03  0.7818608E-02  0.1093470E+00
          1   -1    0    0  502    0  0.00000000000E+00  0.00000000000E+00  0.97246350289E+02  0.97246350289E+02  0.00000000000E+00 0.  1.
         13   -1    0    0    0    0 -0.00000000000E+00 -0.00000000000E+00 -0.10000000000E+04  0.10000000000E+04  0.00000000000E+00 0.  1.
    9000005    2    1    2  501    0 -0.15656967638E+02  0.15345490382E+02 -0.88778486516E+03  0.10707003671E+04  0.59812764914E+03 0.  0.
         13    1    3    3    0    0  0.68685182408E+02  0.29026561172E+03 -0.34207143484E+03  0.45385531413E+03  0.00000000000E+00 0.  1.
          3    1    3    3  501    0 -0.84342150046E+02 -0.27492012133E+03 -0.54571343032E+03  0.61684505301E+03  0.00000000000E+00 0.  1.
         21    1    1    2  502  501  0.15656967638E+02 -0.15345490382E+02 -0.14968784547E+02  0.26545983152E+02  0.00000000000E+00 0.  1.
<mgrwt>
<rscale>  1 0.30000000E+03</rscale>
<asrwt>0</asrwt>
<pdfrwt beam="1">  1        1 0.35362384E+00 0.30000000E+03</pdfrwt>
<pdfrwt beam="2">0</pdfrwt>
<totfact> 0.18861860E+00</totfact>
</mgrwt>
</event>
<event>
 6    1  0.5260809E-006  0.3000000E+03  0.7818608E-02  0.1093470E+00
          1   -1    0    0  502    0  0.00000000000E+00  0.00000000000E+00  0.12512549659E+03  0.12512549659E+03  0.00000000000E+00 0.  1.
         13   -1    0    0    0    0 -0.00000000000E+00 -0.00000000000E+00 -0.10000000000E+04  0.10000000000E+04  0.00000000000E+00 0.  1.
    9000005    2    1    2  501    0 -0.27431701490E+02  0.67117616680E+01 -0.88167459065E+03  0.10960774815E+04  0.65056761045E+03 0.  0.
         13    1    3    3    0    0  0.29447702616E+03 -0.78038127716E+02 -0.53368306124E+03  0.61451141419E+03  0.00000000000E+00 0.  1.
          3    1    3    3  501    0 -0.32190872765E+03  0.84749889384E+02 -0.34799152941E+03  0.48156606736E+03  0.00000000000E+00 0.  1.
         21    1    1    2  502  501  0.27431701490E+02 -0.67117616680E+01  0.68000872380E+01  0.29048015040E+02  0.00000000000E+00 0.  1.
<mgrwt>
<rscale>  1 0.30000000E+03</rscale>
<asrwt>0</asrwt>
<pdfrwt beam="1">  1        1 0.45500277E+00 0.30000000E+03</pdfrwt>
<pdfrwt beam="2">0</pdfrwt>
<totfact> 0.47622386E-01</totfact>
</mgrwt>
</event>
<event>
 6    1  0.5260809E-006  0.3000000E+03  0.7818608E-02  0.1093470E+00
          1   -1    0    0  502    0  0.00000000000E+00  0.00000000000E+00  0.12098092637E+03  0.12098092637E+03  0.00000000000E+00 0.  1.
         13   -1    0    0    0    0 -0.00000000000E+00 -0.00000000000E+00 -0.10000000000E+04  0.10000000000E+04  0.00000000000E+00 0.  1.
    9000005    2    1    2  501    0 -0.16215537719E+02 -0.37659802039E+00 -0.88134669814E+03  0.11045948553E+04  0.66565359349E+03 0.  0.
         13    1    3    3    0    0  0.40231241635E+02 -0.32943376034E+03 -0.44923535125E+03  0.55853160704E+03  0.00000000000E+00 0.  1.
          1    1    3    3  501    0 -0.56446779354E+02  0.32905716232E+03 -0.43211134689E+03  0.54606324825E+03  0.00000000000E+00 0.  1.
         21    1    1    2  502  501  0.16215537719E+02  0.37659802039E+00  0.23276245100E+01  0.16386071080E+02  0.00000000000E+00 0.  1.
<mgrwt>
<rscale>  1 0.30000000E+03</rscale>
<asrwt>0</asrwt>
<pdfrwt beam="1">  1        1 0.43993157E+00 0.30000000E+03</pdfrwt>
<pdfrwt beam="2">0</pdfrwt>
<totfact> 0.60005815E-01</totfact>
</mgrwt>
</event>
<event>
 6    1  0.5260809E-006  0.3000000E+03  0.7818608E-02  0.1093470E+00
          1   -1    0    0  502    0  0.00000000000E+00  0.00000000000E+00  0.11452220823E+03  0.11452220823E+03  0.00000000000E+00 0.  1.
         13   -1    0    0    0    0 -0.00000000000E+00 -0.00000000000E+00 -0.10000000000E+04  0.10000000000E+04  0.00000000000E+00 0.  1.
    9000005    2    1    2  501    0 -0.17163328994E+02 -0.15124605791E+02 -0.88607687735E+03  0.10916378803E+04  0.63719517850E+03 0.  0.
         13    1    3    3    0    0  0.20396818094E+03 -0.72674231889E+02 -0.46423793684E+02  0.22144916219E+03  0.00000000000E+00 0.  1.
          1    1    3    3  501    0 -0.22113150993E+03  0.57549626098E+02 -0.83965308367E+03  0.87018871808E+03  0.00000000000E+00 0.  1.
         21    1    1    2  502  501  0.17163328994E+02  0.15124605791E+02  0.59908558015E+00  0.22884327956E+02  0.00000000000E+00 0.  1.
<mgrwt>
<rscale>  1 0.30000000E+03</rscale>
<asrwt>0</asrwt>
<pdfrwt beam="1">  1        1 0.41644527E+00 0.30000000E+03</pdfrwt>
<pdfrwt beam="2">0</pdfrwt>
<totfact> 0.84309962E-01</totfact>
</mgrwt>
</event>
<event>
 6    1  0.5260809E-006  0.3000000E+03  0.7818608E-02  0.1093470E+00
          1   -1    0    0  502    0  0.00000000000E+00  0.00000000000E+00  0.11821734412E+03  0.11821734412E+03  0.00000000000E+00 0.  1.
         13   -1    0    0    0    0 -0.00000000000E+00 -0.00000000000E+00 -0.10000000000E+04  0.10000000000E+04  0.00000000000E+00 0.  1.
    9000005    2    1    2  501    0 -0.10158251650E+02 -0.37137842472E+01 -0.89225522196E+03  0.11031622151E+04  0.64863742524E+03 0.  0.
         13    1    3    3    0    0  0.19533875959E+03  0.54520919522E+02 -0.18462427893E+02  0.20364337187E+03  0.00000000000E+00 0.  1.
          3    1    3    3  501    0 -0.20549701124E+03 -0.58234703769E+02 -0.87379279406E+03  0.89951884322E+03  0.00000000000E+00 0.  1.
         21    1    1    2  502  501  0.10158251650E+02  0.37137842472E+01  0.10472566079E+02  0.15055129036E+02  0.00000000000E+00 0.  1.
<mgrwt>
<rscale>  1 0.30000000E+03</rscale>
<asrwt>0</asrwt>
<pdfrwt beam="1">  1        1 0.42988216E+00 0.30000000E+03</pdfrwt>
<pdfrwt beam="2">0</pdfrwt>
<totfact> 0.69584690E-01</totfact>
</mgrwt>
</event>
<event>
 6    1  0.5260809E-006  0.3000000E+03  0.7818608E-02  0.1093470E+00
          1   -1    0    0  502    0  0.00000000000E+00  0.00000000000E+00  0.12142305467E+03  0.12142305467E+03  0.00000000000E+00 0.  1.
         13   -1    0    0    0    0 -0.00000000000E+00 -0.00000000000E+00 -0.10000000000E+04  0.10000000000E+04  0.00000000000E+00 0.  1.
    9000005    2    1    2  501    0  0.12139637774E+02  0.38099794047E+01 -0.89173416422E+03  0.11031200725E+04  0.64924740117E+03 0.  0.
         13    1    3    3    0    0  0.49145872387E+01 -0.30277088701E+03 -0.63372667038E+03  0.70235593252E+03  0.00000000000E+00 0.  1.
          3    1    3    3  501    0  0.72250505356E+01  0.30658086641E+03 -0.25800749383E+03  0.40076413996E+03  0.00000000000E+00 0.  1.
         21    1    1    2  502  501 -0.12139637774E+02 -0.38099794047E+01  0.13157218887E+02  0.18302982194E+02  0.00000000000E+00 0. -1.
<mgrwt>
<rscale>  1 0.30000000E+03</rscale>
<asrwt>0</asrwt>
<pdfrwt beam="1">  1        1 0.44153931E+00 0.30000000E+03</pdfrwt>
<pdfrwt beam="2">0</pdfrwt>
<totfact> 0.58573190E-01</totfact>
</mgrwt>
</event>
<event>
 6    1  0.5260809E-006  0.3000000E+03  0.7818608E-02  0.1093470E+00
          1   -1    0    0  502    0  0.00000000000E+00  0.00000000000E+00  0.12389162402E+03  0.12389162402E+03  0.00000000000E+00 0.  1.
         13   -1    0    0    0    0 -0.00000000000E+00 -0.00000000000E+00 -0.10000000000E+04  0.10000000000E+04  0.00000000000E+00 0.  1.
    9000005    2    1    2  501    0  0.88450716708E+01 -0.34154274352E+02 -0.86339884971E+03  0.10863911999E+04  0.65844021431E+03 0.  0.
         13    1    3    3    0    0 -0.19685503138E+03 -0.15013056253E+03 -0.80628940155E+03  0.84344157369E+03  0.00000000000E+00 0.  1.
          1    1    3    3  501    0  0.20570010305E+03  0.11597628818E+03 -0.57109448165E+02  0.24294962623E+03  0.00000000000E+00 0.  1.
         21    1    1    2  502  501 -0.88450716708E+01  0.34154274352E+02 -0.12709526271E+02  0.37500424096E+02  0.00000000000E+00 0. -1.
<mgrwt>
<rscale>  1 0.30000000E+03</rscale>
<asrwt>0</asrwt>
<pdfrwt beam="1">  1        1 0.45051595E+00 0.30000000E+03</pdfrwt>
<pdfrwt beam="2">0</pdfrwt>
<totfact> 0.51046321E-01</totfact>
</mgrwt>
</event>
<event>
 6    1  0.5260809E-006  0.3000000E+03  0.7818608E-02  0.1093470E+00
          1   -1    0    0  502    0  0.00000000000E+00  0.00000000000E+00  0.11189504989E+03  0.11189504989E+03  0.00000000000E+00 0.  1.
         13   -1    0    0    0    0 -0.00000000000E+00 -0.00000000000E+00 -0.10000000000E+04  0.10000000000E+04  0.00000000000E+00 0.  1.
    9000005    2    1    2  501    0  0.14579734292E+02  0.19234021509E+00 -0.88300368559E+03  0.10964474434E+04  0.64983758102E+03 0.  0.
         13    1    3    3    0    0  0.10560089806E+01 -0.32269946612E+03 -0.37951686419E+03  0.49816574630E+03  0.00000000000E+00 0.  1.
          3    1    3    3  501    0  0.13523725312E+02  0.32289180633E+03 -0.50348682141E+03  0.59828169709E+03  0.00000000000E+00 0.  1.
         21    1    1    2  502  501 -0.14579734292E+02 -0.19234021509E+00 -0.51012645168E+01  0.15447606496E+02  0.00000000000E+00 0.  1.
<mgrwt>
<rscale>  1 0.30000000E+03</rscale>
<asrwt>0</asrwt>
<pdfrwt beam="1">  1        1 0.40689195E+00 0.30000000E+03</pdfrwt>
<pdfrwt beam="2">0</pdfrwt>
<totfact> 0.96095099E-01</totfact>
</mgrwt>
</event>
<event>
 6    1  0.5260809E-006  0.3000000E+03  0.7818608E-02  0.1093470E+00
          1   -1    0    0  502    0  0.00000000000E+00  0.00000000000E+00  0.12897662545E+03  0.12897662545E+03  0.00000000000E+00 0.  1.
         13   -1    0    0    0    0 -0.00000000000E+00 -0.00000000000E+00 -0.10000000000E+04  0.10000000000E+04  0.00000000000E+00 0.  1.
    9000005    2    1    2  501    0  0.44274014326E+02  0.10707302909E+01 -0.86600199823E+03  0.10844059060E+04  0.65116462843E+03 0.  0.
         13    1    3    3    0    0  0.30103364270E+03 -0.84746403205E+02 -0.70040655672E+03  0.76705446456E+03  0.00000000000E+00 0.  1.
          3    1    3    3  501    0 -0.25675962838E+03  0.85817133496E+02 -0.16559544151E+03  0.31735144149E+03  0.00000000000E+00 0.  1.
         21    1    1    2  502  501 -0.44274014326E+02 -0.10707302909E+01 -0.50213763175E+01  0.44570719402E+02  0.00000000000E+00 0. -1.
<mgrwt>
<rscale>  1 0.30000000E+03</rscale>
<asrwt>0</asrwt>
<pdfrwt beam="1">  1        1 0.46900690E+00 0.30000000E+03</pdfrwt>
<pdfrwt beam="2">0</pdfrwt>
<totfact> 0.38211212E-01</totfact>
</mgrwt>
</event>
<event>
 6    1  0.5260809E-006  0.3000000E+03  0.7818608E-02  0.1093470E+00
          1   -1    0    0  502    0  0.00000000000E+00  0.00000000000E+00  0.16233356032E+03  0.16233356032E+03  0.00000000000E+00 0.  1.
         13   -1    0    0    0    0 -0.00000000000E+00 -0.00000000000E+00 -0.10000000000E+04  0.10000000000E+04  0.00000000000E+00 0.  1.
    9000005    2    1    2  501    0 -0.24323168708E+02  0.63102119242E+01 -0.89362990179E+03  0.11009874569E+04  0.64262550807E+03 0.  0.
         13    1    3    3    0    0 -0.33201878228E+03 -0.26347371262E+02 -0.43887350855E+03  0.55094519896E+03  0.00000000000E+00 0.  1.
          1    1    3    3  501    0  0.30769561357E+03  0.32657583186E+02 -0.45475639324E+03  0.55004225796E+03  0.00000000000E+00 0.  1.
         21    1    1    2  502  501  0.24323168708E+02 -0.63102119242E+01  0.55963462108E+02  0.61346103394E+02  0.00000000000E+00 0.  1.
<mgrwt>
<rscale>  1 0.30000000E+03</rscale>
<asrwt>0</asrwt>
<pdfrwt beam="1">  1        1 0.59030510E+00 0.30000000E+03</pdfrwt>
<pdfrwt beam="2">0</pdfrwt>
<totfact> 0.65224630E-02</totfact>
</mgrwt>
</event>
<event>
 6    1  0.5260809E-006  0.3000000E+03  0.7818608E-02  0.1093470E+00
          1   -1    0    0  502    0  0.00000000000E+00  0.00000000000E+00  0.14209587215E+03  0.14209587215E+03  0.00000000000E+00 0.  1.
         13   -1    0    0    0    0 -0.00000000000E+00 -0.00000000000E+00 -0.10000000000E+04  0.10000000000E+04  0.00000000000E+00 0.  1.
    9000005    2    1    2  501    0  0.13293015394E+02 -0.11556744586E+01 -0.89259919573E+03  0.11049234687E+04  0.65111021160E+03 0.  0.
         13    1    3    3    0    0 -0.23588481362E+03 -0.21160224654E+03 -0.35261728343E+03  0.47408449101E+03  0.00000000000E+00 0.  1.
          3    1    3    3  501    0  0.24917782902E+03  0.21044657209E+03 -0.53998191231E+03  0.63083897771E+03  0.00000000000E+00 0.  1.
         21    1    1    2  502  501 -0.13293015394E+02  0.11556744586E+01  0.34695067888E+02  0.37172403440E+02  0.00000000000E+00 0. -1.
<mgrwt>
<rscale>  1 0.30000000E+03</rscale>
<asrwt>0</asrwt>
<pdfrwt beam="1">  1        1 0.51671335E+00 0.30000000E+03</pdfrwt>
<pdfrwt beam="2">0</pdfrwt>
<totfact> 0.17202685E-01</totfact>
</mgrwt>
</event>
<event>
 6    1  0.5260809E-006  0.3000000E+03  0.7818608E-02  0.1093470E+00
          1   -1    0    0  502    0  0.00000000000E+00  0.00000000000E+00  0.11529924214E+03  0.11529924214E+03  0.00000000000E+00 0.  1.
         13   -1    0    0    0    0 -0.00000000000E+00 -0.00000000000E+00 -0.10000000000E+04  0.10000000000E+04  0.00000000000E+00 0.  1.
    9000005    2    1    2  501    0  0.58561936366E+01 -0.13785793744E+02 -0.89953215707E+03  0.10942204966E+04  0.62284512549E+03 0.  0.
         13    1    3    3    0    0  0.96890540313E+02 -0.51980958996E+02  0.62943371689E+02  0.12669516542E+03  0.00000000000E+00 0.  1.
          1    1    3    3  501    0 -0.91034346677E+02  0.38195165252E+02 -0.96247552876E+03  0.96752533113E+03  0.00000000000E+00 0.  1.
         21    1    1    2  502  501 -0.58561936366E+01  0.13785793744E+02  0.14831399208E+02  0.21078745587E+02  0.00000000000E+00 0.  1.
<mgrwt>
<rscale>  1 0.30000000E+03</rscale>
<asrwt>0</asrwt>
<pdfrwt beam="1">  1        1 0.41927086E+00 0.30000000E+03</pdfrwt>
<pdfrwt beam="2">0</pdfrwt>
<totfact> 0.81033687E-01</totfact>
</mgrwt>
</event>
<event>
 6    1  0.5260809E-006  0.3000000E+03  0.7818608E-02  0.1093470E+00
          1   -1    0    0  502    0  0.00000000000E+00  0.00000000000E+00  0.11450575506E+03  0.11450575506E+03  0.00000000000E+00 0.  1.
         13   -1    0    0    0    0 -0.00000000000E+00 -0.00000000000E+00 -0.10000000000E+04  0.10000000000E+04  0.00000000000E+00 0.  1.
    9000005    2    1    2  501    0  0.10607775325E+02 -0.10907410120E+02 -0.89076164310E+03  0.10984047620E+04  0.64249919841E+03 0.  0.
         13    1    3    3    0    0 -0.43054056943E+02  0.17570435809E+03 -0.88588768184E+03  0.90416959587E+03  0.00000000000E+00 0.  1.
          1    1    3    3  501    0  0.53661832268E+02 -0.18661176821E+03 -0.48739612631E+01  0.19423516617E+03  0.00000000000E+00 0.  1.
         21    1    1    2  502  501 -0.10607775325E+02  0.10907410120E+02  0.52673981628E+01  0.16100993021E+02  0.00000000000E+00 0. -1.
<mgrwt>
<rscale>  1 0.30000000E+03</rscale>
<asrwt>0</asrwt>
<pdfrwt beam="1">  1        1 0.41638544E+00 0.30000000E+03</pdfrwt>
<pdfrwt beam="2">0</pdfrwt>
<totfact> 0.84380265E-01</totfact>
</mgrwt>
</event>
<event>
 6    1  0.5260809E-006  0.3000000E+03  0.7818608E-02  0.1093470E+00
          1   -1    0    0  502    0  0.00000000000E+00  0.00000000000E+00  0.11982029492E+03  0.11982029492E+03  0.00000000000E+00 0.  1.
         13   -1    0    0    0    0 -0.00000000000E+00 -0.00000000000E+00 -0.10000000000E+04  0.10000000000E+04  0.00000000000E+00 0.  1.
    9000005    2    1    2  501    0  0.12597158661E+02  0.10032241492E+02 -0.88821161788E+03  0.11018245760E+04  0.65179612142E+03 0.  0.
         13    1    3    3    0    0 -0.10479039289E+03  0.20144098520E+03 -0.84265453308E+03  0.87271195654E+03  0.00000000000E+00 0.  1.
          1    1    3    3  501    0  0.11738755155E+03 -0.19140874371E+03 -0.45557084799E+02  0.22911261948E+03  0.00000000000E+00 0.  1.
         21    1    1    2  502  501 -0.12597158661E+02 -0.10032241492E+02  0.80319128027E+01  0.17995718906E+02  0.00000000000E+00 0.  1.
<mgrwt>
<rscale>  1 0.30000000E+03</rscale>
<asrwt>0</asrwt>
<pdfrwt beam="1">  1        1 0.43571108E+00 0.30000000E+03</pdfrwt>
<pdfrwt beam="2">0</pdfrwt>
<totfact> 0.63892044E-01</totfact>
</mgrwt>
</event>
<event>
 6    1  0.5260809E-006  0.3000000E+03  0.7818608E-02  0.1093470E+00
          1   -1    0    0  502    0  0.00000000000E+00  0.00000000000E+00  0.11913371454E+03  0.11913371454E+03  0.00000000000E+00 0.  1.
         13   -1    0    0    0    0 -0.00000000000E+00 -0.00000000000E+00 -0.10000000000E+04  0.10000000000E+04  0.00000000000E+00 0.  1.
    9000005    2    1    2  501    0 -0.14511611871E+02  0.10015923294E+01 -0.89018116274E+03  0.11018607008E+04  0.64920174933E+03 0.  0.
         13    1    3    3    0    0 -0.12511707499E+02 -0.13375531458E+03 -0.94636098365E+03  0.95584838671E+03  0.00000000000E+00 0.  1.
          1    1    3    3  501    0 -0.19999043720E+01  0.13475690691E+03  0.56179820910E+02  0.14601231406E+03  0.00000000000E+00 0.  1.
         21    1    1    2  502  501  0.14511611871E+02 -0.10015923294E+01  0.93148772780E+01  0.17273013779E+02  0.00000000000E+00 0. -1.
<mgrwt>
<rscale>  1 0.30000000E+03</rscale>
<asrwt>0</asrwt>
<pdfrwt beam="1">  1        1 0.43321442E+00 0.30000000E+03</pdfrwt>
<pdfrwt beam="2">0</pdfrwt>
<totfact> 0.66282114E-01</totfact>
</mgrwt>
</event>
<event>
 6    1  0.5260809E-006  0.3000000E+03  0.7818608E-02  0.1093470E+00
          1   -1    0    0  502    0  0.00000000000E+00  0.00000000000E+00  0.10797366341E+03  0.10797366341E+03  0.00000000000E+00 0.  1.
         13   -1    0    0    0    0 -0.00000000000E+00 -0.00000000000E+00 -0.10000000000E+04  0.10000000000E+04  0.00000000000E+00 0.  1.
    9000005    2    1    2  501    0  0.78149524915E+01  0.95767047541E+01 -0.88004713950E+03  0.10907606474E+04  0.64430042330E+03 0.  0.
         13    1    3    3    0    0 -0.13116811436E+02  0.32197122598E+03 -0.35492955434E+03  0.47938764027E+03  0.00000000000E+00 0.  1.
          1    1    3    3  501    0  0.20931763927E+02 -0.31239452122E+03 -0.52511758516E+03  0.61137300715E+03  0.00000000000E+00 0.  1.
         21    1    1    2  502  501 -0.78149524915E+01 -0.95767047541E+01 -0.11979197092E+02  0.17213015987E+02  0.00000000000E+00 0. -1.
<mgrwt>
<rscale>  1 0.30000000E+03</rscale>
<asrwt>0</asrwt>
<pdfrwt beam="1">  1        1 0.39263233E+00 0.30000000E+03</pdfrwt>
<pdfrwt beam="2">0</pdfrwt>
<totfact> 0.11591340E+00</totfact>
</mgrwt>
</event>
<event>
 6    1  0.5260809E-006  0.3000000E+03  0.7818608E-02  0.1093470E+00
          1   -1    0    0  502    0  0.00000000000E+00  0.00000000000E+00  0.10949548167E+03  0.10949548167E+03  0.00000000000E+00 0.  1.
         13   -1    0    0    0    0 -0.00000000000E+00 -0.00000000000E+00 -0.10000000000E+04  0.10000000000E+04  0.00000000000E+00 0.  1.
    9000005    2    1    2  501    0 -0.25492433820E+01  0.12939822110E+02 -0.92056812024E+03  0.10766662600E+04  0.55820303984E+03 0.  0.
         13    1    3    3    0    0 -0.71354030463E+02 -0.17208756453E+03 -0.62981314389E+02  0.19665241796E+03  0.00000000000E+00 0.  1.
          1    1    3    3  501    0  0.68804787081E+02  0.18502738664E+03 -0.85758680585E+03  0.88001384200E+03  0.00000000000E+00 0.  1.
         21    1    1    2  502  501  0.25492433820E+01 -0.12939822110E+02  0.30063601914E+02  0.32829221710E+02  0.00000000000E+00 0.  1.
<mgrwt>
<rscale>  1 0.30000000E+03</rscale>
<asrwt>0</asrwt>
<pdfrwt beam="1">  1        1 0.39816623E+00 0.30000000E+03</pdfrwt>
<pdfrwt beam="2">0</pdfrwt>
<totfact> 0.10787625E+00</totfact>
</mgrwt>
</event>
<event>
 6    1  0.5260809E-006  0.3000000E+03  0.7818608E-02  0.1093470E+00
          1   -1    0    0  502    0  0.00000000000E+00  0.00000000000E+00  0.12554701192E+03  0.12554701192E+03  0.00000000000E+00 0.  1.
         13   -1    0    0    0    0 -0.00000000000E+00 -0.00000000000E+00 -0.10000000000E+04  0.10000000000E+04  0.00000000000E+00 0.  1.
    9000005    2    1    2  501    0 -0.50907028879E+01 -0.34572096969E+02 -0.83897915892E+03  0.10757520553E+04  0.67241007603E+03 0.  0.
         13    1    3    3    0    0 -0.35443858479E+02  0.15753967969E+03  0.47395512897E+02  0.16828948994E+03  0.00000000000E+00 0.  1.
          1    1    3    3  501    0  0.30353155591E+02 -0.19211177666E+03 -0.88637467181E+03  0.90746256541E+03  0.00000000000E+00 0.  1.
         21    1    1    2  502  501  0.50907028879E+01  0.34572096969E+02 -0.35473829162E+02  0.49794956573E+02  0.00000000000E+00 0.  1.
<mgrwt>
<rscale>  1 0.30000000E+03</rscale>
<asrwt>0</asrwt>
<pdfrwt beam="1">  1        1 0.45653555E+00 0.30000000E+03</pdfrwt>
<pdfrwt beam="2">0</pdfrwt>
<totfact> 0.46505579E-01</totfact>
</mgrwt>
</event>
<event>
 6    1  0.5260809E-006  0.3000000E+03  0.7818608E-02  0.1093470E+00
          1   -1    0    0  502    0  0.00000000000E+00  0.00000000000E+00  0.13862935028E+03  0.13862935028E+03  0.00000000000E+00 0.  1.
         13   -1    0    0    0    0 -0.00000000000E+00 -0.00000000000E+00 -0.10000000000E+04  0.10000000000E+04  0.00000000000E+00 0.  1.
    9000005    2    1    2  501    0 -0.13274992384E+02 -0.19210902573E+02 -0.87599770129E+03  0.11110751339E+04  0.68305980440E+03 0.  0.
         13    1    3    3    0    0 -0.19312838141E+02 -0.20877745567E+03 -0.89614434867E+03  0.92034542720E+03  0.00000000000E+00 0.  1.
          1    1    3    3  501    0  0.60378457573E+01  0.18956655310E+03  0.20146647376E+02  0.19072970674E+03  0.00000000000E+00 0.  1.
         21    1    1    2  502  501  0.13274992384E+02  0.19210902573E+02  0.14627051577E+02  0.27554216343E+02  0.00000000000E+00 0. -1.
<mgrwt>
<rscale>  1 0.30000000E+03</rscale>
<asrwt>0</asrwt>
<pdfrwt beam="1">  1        1 0.50410779E+00 0.30000000E+03</pdfrwt>
<pdfrwt beam="2">0</pdfrwt>
<totfact> 0.21305923E-01</totfact>
</mgrwt>
</event>
<event>
 6    1  0.5260809E-006  0.3000000E+03  0.7818608E-02  0.1093470E+00
          1   -1    0    0  502    0  0.00000000000E+00  0.00000000000E+00  0.10766029961E+03  0.10766029961E+03  0.00000000000E+00 0.  1.
         13   -1    0    0    0    0 -0.00000000000E+00 -0.00000000000E+00 -0.10000000000E+04  0.10000000000E+04  0.00000000000E+00 0.  1.
    9000005    2    1    2  501    0 -0.12558769626E+02 -0.17187160721E+02 -0.92092404151E+03  0.10720206343E+04  0.54833751367E+03 0.  0.
         13    1    3    3    0    0  0.11257181466E+02  0.39144343830E+02  0.69045291151E+02  0.80163932156E+02  0.00000000000E+00 0.  1.
          1    1    3    3  501    0 -0.23815951091E+02 -0.56331504552E+02 -0.98996933266E+03  0.99185670212E+03  0.00000000000E+00 0.  1.
         21    1    1    2  502  501  0.12558769626E+02  0.17187160721E+02  0.28584341118E+02  0.35639665337E+02  0.00000000000E+00 0.  1.
<mgrwt>
<rscale>  1 0.30000000E+03</rscale>
<asrwt>0</asrwt>
<pdfrwt beam="1">  1        1 0.39149282E+00 0.30000000E+03</pdfrwt>
<pdfrwt beam="2">0</pdfrwt>
<totfact> 0.11763299E+00</totfact>
</mgrwt>
</event>
<event>
 6    1  0.5260809E-006  0.3000000E+03  0.7818608E-02  0.1093470E+00
          1   -1    0    0  502    0  0.00000000000E+00  0.00000000000E+00  0.10692352109E+03  0.10692352109E+03  0.00000000000E+00 0.  1.
         13   -1    0    0    0    0 -0.00000000000E+00 -0.00000000000E+00 -0.10000000000E+04  0.10000000000E+04  0.00000000000E+00 0.  1.
    9000005    2    1    2  501    0 -0.18682897696E+02 -0.35307846601E+01 -0.87016099175E+03  0.10771470764E+04  0.63458975372E+03 0.  0.
         13    1    3    3    0    0 -0.27970414793E+03  0.15931273760E+03 -0.37513903910E+03  0.49431190294E+03  0.00000000000E+00 0.  1.
          1    1    3    3  501    0  0.26102125024E+03 -0.16284352226E+03 -0.49502195266E+03  0.58283517346E+03  0.00000000000E+00 0.  1.
         21    1    1    2  502  501  0.18682897696E+02  0.35307846601E+01 -0.22915487155E+02  0.29776444687E+02  0.00000000000E+00 0.  1.
<mgrwt>
<rscale>  1 0.30000000E+03</rscale>
<asrwt>0</asrwt>
<pdfrwt beam="1">  1        1 0.38881362E+00 0.30000000E+03</pdfrwt>
<pdfrwt beam="2">0</pdfrwt>
<totfact> 0.12176471E+00</totfact>
</mgrwt>
</event>
<event>
 6    1  0.5260809E-006  0.3000000E+03  0.7818608E-02  0.1093470E+00
          1   -1    0    0  502    0  0.00000000000E+00  0.00000000000E+00  0.11222204180E+03  0.11222204180E+03  0.00000000000E+00 0.  1.
         13   -1    0    0    0    0 -0.00000000000E+00 -0.00000000000E+00 -0.10000000000E+04  0.10000000000E+04  0.00000000000E+00 0.  1.
    9000005    2    1    2  501    0  0.10887379202E+02  0.87121505030E+01 -0.88362441085E+03  0.10976725213E+04  0.65107482511E+03 0.  0.
         13    1    3    3    0    0  0.20024541136E+00  0.32942191649E+03 -0.47666518033E+03  0.57942086026E+03  0.00000000000E+00 0.  1.
          1    1    3    3  501    0  0.10687133791E+02 -0.32070976599E+03 -0.40695923052E+03  0.51825166100E+03  0.00000000000E+00 0.  1.
         21    1    1    2  502  501 -0.10887379202E+02 -0.87121505030E+01 -0.41535473459E+01  0.14549520536E+02  0.00000000000E+00 0. -1.
<mgrwt>
<rscale>  1 0.30000000E+03</rscale>
<asrwt>0</asrwt>
<pdfrwt beam="1">  1        1 0.40808101E+00 0.30000000E+03</pdfrwt>
<pdfrwt beam="2">0</pdfrwt>
<totfact> 0.94565521E-01</totfact>
</mgrwt>
</event>
<event>
 6    1  0.5260809E-006  0.3000000E+03  0.7818608E-02  0.1093470E+00
          1   -1    0    0  502    0  0.00000000000E+00  0.00000000000E+00  0.12027675314E+03  0.12027675314E+03  0.00000000000E+00 0.  1.
         13   -1    0    0    0    0 -0.00000000000E+00 -0.00000000000E+00 -0.10000000000E+04  0.10000000000E+04  0.00000000000E+00 0.  1.
    9000005    2    1    2  501    0 -0.10437447485E+02 -0.12115053828E+02 -0.86603082652E+03  0.10992245035E+04  0.67677869487E+03 0.  0.
         13    1    3    3    0    0  0.25473170617E+03 -0.12145717678E+03 -0.13280453223E+03  0.31189282086E+03  0.00000000000E+00 0.  1.
          3    1    3    3  501    0 -0.26516915366E+03  0.10934212295E+03 -0.73322629428E+03  0.78733168267E+03  0.00000000000E+00 0.  1.
         21    1    1    2  502  501  0.10437447485E+02  0.12115053828E+02 -0.13692420340E+02  0.21052249619E+02  0.00000000000E+00 0.  1.
<mgrwt>
<rscale>  1 0.30000000E+03</rscale>
<asrwt>0</asrwt>
<pdfrwt beam="1">  1        1 0.43737093E+00 0.30000000E+03</pdfrwt>
<pdfrwt beam="2">0</pdfrwt>
<totfact> 0.62341168E-01</totfact>
</mgrwt>
</event>
<event>
 6    1  0.5260809E-006  0.3000000E+03  0.7818608E-02  0.1093470E+00
          1   -1    0    0  502    0  0.00000000000E+00  0.00000000000E+00  0.12200288360E+03  0.12200288360E+03  0.00000000000E+00 0.  1.
         13   -1    0    0    0    0 -0.00000000000E+00 -0.00000000000E+00 -0.10000000000E+04  0.10000000000E+04  0.00000000000E+00 0.  1.
    9000005    2    1    2  501    0  0.23774173131E+02  0.27631122054E+01 -0.88447410438E+03  0.10972077738E+04  0.64884328729E+03 0.  0.
         13    1    3    3    0    0  0.19514562409E+03 -0.18188651332E+03 -0.78022454420E+03  0.82456949840E+03  0.00000000000E+00 0.  1.
          1    1    3    3  501    0 -0.17137145096E+03  0.18464962553E+03 -0.10424956018E+03  0.27263827539E+03  0.00000000000E+00 0.  1.
         21    1    1    2  502  501 -0.23774173131E+02 -0.27631122054E+01  0.64769879760E+01  0.24795109807E+02  0.00000000000E+00 0.  1.
<mgrwt>
<rscale>  1 0.30000000E+03</rscale>
<asrwt>0</asrwt>
<pdfrwt beam="1">  1        1 0.44364778E+00 0.30000000E+03</pdfrwt>
<pdfrwt beam="2">0</pdfrwt>
<totfact> 0.56730927E-01</totfact>
</mgrwt>
</event>
<event>
 6    1  0.5260809E-006  0.3000000E+03  0.7818608E-02  0.1093470E+00
          1   -1    0    0  502    0  0.00000000000E+00  0.00000000000E+00  0.14679160204E+03  0.14679160204E+03  0.00000000000E+00 0.  1.
         13   -1    0    0    0    0 -0.00000000000E+00 -0.00000000000E+00 -0.10000000000E+04  0.10000000000E+04  0.00000000000E+00 0.  1.
    9000005    2    1    2  501    0  0.29647007137E+02 -0.26028814121E+02 -0.85687045754E+03  0.11071702079E+04  0.70003031646E+03 0.  0.
         13    1    3    3    0    0  0.27645304690E+03 -0.10802033793E+03 -0.11036896025E+03  0.31666384059E+03  0.00000000000E+00 0.  1.
          3    1    3    3  501    0 -0.24680603976E+03  0.81991523811E+02 -0.74650149729E+03  0.79050636727E+03  0.00000000000E+00 0.  1.
         21    1    1    2  502  501 -0.29647007137E+02  0.26028814121E+02  0.36620595832E+01  0.39621394185E+02  0.00000000000E+00 0.  1.
<mgrwt>
<rscale>  1 0.30000000E+03</rscale>
<asrwt>0</asrwt>
<pdfrwt beam="1">  1        1 0.53378877E+00 0.30000000E+03</pdfrwt>
<pdfrwt beam="2">0</pdfrwt>
<totfact> 0.12776220E-01</totfact>
</mgrwt>
</event>
<event>
 6    1  0.5260809E-006  0.3000000E+03  0.7818608E-02  0.1093470E+00
          1   -1    0    0  502    0  0.00000000000E+00  0.00000000000E+00  0.12306077995E+03  0.12306077995E+03  0.00000000000E+00 0.  1.
         13   -1    0    0    0    0 -0.00000000000E+00 -0.00000000000E+00 -0.10000000000E+04  0.10000000000E+04  0.00000000000E+00 0.  1.
    9000005    2    1    2  501    0  0.28111482947E+02  0.11317162924E+02 -0.87203846448E+03  0.10923630430E+04  0.65718155823E+03 0.  0.
         13    1    3    3    0    0  0.16259585188E+03 -0.10460899675E+03 -0.89289708628E+03  0.91358943730E+03  0.00000000000E+00 0.  1.
          1    1    3    3  501    0 -0.13448436893E+03  0.11592615968E+03  0.20858621798E+02  0.17877360568E+03  0.00000000000E+00 0.  1.
         21    1    1    2  502  501 -0.28111482947E+02 -0.11317162924E+02 -0.49007555670E+01  0.30697736973E+02  0.00000000000E+00 0. -1.
<mgrwt>
<rscale>  1 0.30000000E+03</rscale>
<asrwt>0</asrwt>
<pdfrwt beam="1">  1        1 0.44749469E+00 0.30000000E+03</pdfrwt>
<pdfrwt beam="2">0</pdfrwt>
<totfact> 0.53484158E-01</totfact>
</mgrwt>
</event>
<event>
 6    1  0.5260809E-006  0.3000000E+03  0.7818608E-02  0.1093470E+00
          1   -1    0    0  502    0  0.00000000000E+00  0.00000000000E+00  0.12149405835E+03  0.12149405835E+03  0.00000000000E+00 0.  1.
         13   -1    0    0    0    0 -0.00000000000E+00 -0.00000000000E+00 -0.10000000000E+04  0.10000000000E+04  0.00000000000E+00 0.  1.
    9000005    2    1    2  501    0  0.67502628621E+01  0.13572467119E+02 -0.88925747059E+03  0.11029098369E+04  0.65222809003E+03 0.  0.
         13    1    3    3    0    0 -0.25737720423E+03  0.18721708447E+03 -0.57486370932E+03  0.65708564607E+03  0.00000000000E+00 0.  1.
          1    1    3    3  501    0  0.26412746709E+03 -0.17364461735E+03 -0.31439376127E+03  0.44582419083E+03  0.00000000000E+00 0.  1.
         21    1    1    2  502  501 -0.67502628621E+01 -0.13572467119E+02  0.10751528934E+02  0.18584221448E+02  0.00000000000E+00 0.  1.
<mgrwt>
<rscale>  1 0.30000000E+03</rscale>
<asrwt>0</asrwt>
<pdfrwt beam="1">  1        1 0.44179751E+00 0.30000000E+03</pdfrwt>
<pdfrwt beam="2">0</pdfrwt>
<totfact> 0.58345338E-01</totfact>
</mgrwt>
</event>
<event>
 6    1  0.5260809E-006  0.3000000E+03  0.7818608E-02  0.1093470E+00
          1   -1    0    0  502    0  0.00000000000E+00  0.00000000000E+00  0.11034835752E+03  0.11034835752E+03  0.00000000000E+00 0.  1.
         13   -1    0    0    0    0 -0.00000000000E+00 -0.00000000000E+00 -0.10000000000E+04  0.10000000000E+04  0.00000000000E+00 0.  1.
    9000005    2    1    2  501    0 -0.48637442019E+00 -0.17306570292E+02 -0.86000517900E+03  0.10760166414E+04  0.64645429129E+03 0.  0.
         13    1    3    3    0    0 -0.21325172180E+03  0.98899336118E+01 -0.83288909618E+03  0.85981297627E+03  0.00000000000E+00 0.  1.
          3    1    3    3  501    0  0.21276534738E+03 -0.27196503904E+02 -0.27116082829E+02  0.21620366513E+03  0.00000000000E+00 0.  1.
         21    1    1    2  502  501  0.48637442019E+00  0.17306570292E+02 -0.29646463473E+02  0.34331716121E+02  0.00000000000E+00 0.  1.
<mgrwt>
<rscale>  1 0.30000000E+03</rscale>
<asrwt>0</asrwt>
<pdfrwt beam="1">  1        1 0.40126760E+00 0.30000000E+03</pdfrwt>
<pdfrwt beam="2">0</pdfrwt>
<totfact> 0.10357542E+00</totfact>
</mgrwt>
</event>
<event>
 6    1  0.5260809E-006  0.3000000E+03  0.7818608E-02  0.1093470E+00
          1   -1    0    0  502    0  0.00000000000E+00  0.00000000000E+00  0.12789930220E+03  0.12789930220E+03  0.00000000000E+00 0.  1.
         13   -1    0    0    0    0 -0.00000000000E+00 -0.00000000000E+00 -0.10000000000E+04  0.10000000000E+04  0.00000000000E+00 0.  1.
    9000005    2    1    2  501    0 -0.83809106885E+01  0.86488245049E+01 -0.89270106394E+03  0.11040368439E+04  0.64948989321E+03 0.  0.
         13    1    3    3    0    0  0.18328149220E+03  0.26941145163E+03 -0.45910483352E+03  0.56298479892E+03  0.00000000000E+00 0.  1.
          3    1    3    3  501    0 -0.19166240289E+03 -0.26076262712E+03 -0.43359623042E+03  0.54105204502E+03  0.00000000000E+00 0.  1.
         21    1    1    2  502  501  0.83809106885E+01 -0.86488245049E+01  0.20600366144E+02  0.23862458267E+02  0.00000000000E+00 0.  1.
<mgrwt>
<rscale>  1 0.30000000E+03</rscale>
<asrwt>0</asrwt>
<pdfrwt beam="1">  1        1 0.46508935E+00 0.30000000E+03</pdfrwt>
<pdfrwt beam="2">0</pdfrwt>
<totfact> 0.40680576E-01</totfact>
</mgrwt>
</event>
<event>
 6    1  0.5260809E-006  0.3000000E+03  0.7818608E-02  0.1093470E+00
          1   -1    0    0  502    0  0.00000000000E+00  0.00000000000E+00  0.11049032718E+03  0.11049032718E+03  0.00000000000E+00 0.  1.
         13   -1    0    0    0    0 -0.00000000000E+00 -0.00000000000E+00 -0.10000000000E+04  0.10000000000E+04  0.00000000000E+00 0.  1.
    9000005    2    1    2  501    0 -0.23264238560E+01 -0.96518788254E+01 -0.88834158569E+03  0.11004935557E+04  0.64948958593E+03 0.  0.
         13    1    3    3    0    0 -0.22003016302E+02  0.12813649004E+03 -0.94229072862E+03  0.95121759343E+03  0.00000000000E+00 0.  1.
          3    1    3    3  501    0  0.19676592446E+02 -0.13778836886E+03  0.53949142934E+02  0.14927596226E+03  0.00000000000E+00 0.  1.
         21    1    1    2  502  501  0.23264238560E+01  0.96518788254E+01 -0.11680871284E+01  0.99967714967E+01  0.00000000000E+00 0. -1.
<mgrwt>
<rscale>  1 0.30000000E+03</rscale>
<asrwt>0</asrwt>
<pdfrwt beam="1">  1        1 0.40178386E+00 0.30000000E+03</pdfrwt>
<pdfrwt beam="2">0</pdfrwt>
<totfact> 0.10287218E+00</totfact>
</mgrwt>
</event>
<event>
 6    1  0.5260809E-006  0.3000000E+03  0.7818608E-02  0.1093470E+00
          1   -1    0    0  502    0  0.00000000000E+00  0.00000000000E+00  0.11854597278E+03  0.11854597278E+03  0.00000000000E+00 0.  1.
         13   -1    0    0    0    0 -0.00000000000E+00 -0.00000000000E+00 -0.10000000000E+04  0.10000000000E+04  0.00000000000E+00 0.  1.
    9000005    2    1    2  501    0  0.10201171766E+02 -0.24886663527E+01 -0.89497509274E+03  0.11014264933E+04  0.64191093315E+03 0.  0.
         13    1    3    3    0    0 -0.18498606460E+03 -0.13402213247E+02 -0.88656061670E+03  0.90575338283E+03  0.00000000000E+00 0.  1.
          3    1    3    3  501    0  0.19518723637E+03  0.10913546895E+02 -0.84144760397E+01  0.19567311045E+03  0.00000000000E+00 0.  1.
         21    1    1    2  502  501 -0.10201171766E+02  0.24886663527E+01  0.13521065517E+02  0.17119479500E+02  0.00000000000E+00 0. -1.
<mgrwt>
<rscale>  1 0.30000000E+03</rscale>
<asrwt>0</asrwt>
<pdfrwt beam="1">  1        1 0.43107717E+00 0.30000000E+03</pdfrwt>
<pdfrwt beam="2">0</pdfrwt>
<totfact> 0.68385076E-01</totfact>
</mgrwt>
</event>
<event>
 6    1  0.5260809E-006  0.3000000E+03  0.7818608E-02  0.1093470E+00
          1   -1    0    0  502    0  0.00000000000E+00  0.00000000000E+00  0.11791084529E+03  0.11791084529E+03  0.00000000000E+00 0.  1.
         13   -1    0    0    0    0 -0.00000000000E+00 -0.00000000000E+00 -0.10000000000E+04  0.10000000000E+04  0.00000000000E+00 0.  1.
    9000005    2    1    2  501    0 -0.28287459383E+02  0.16839278666E+02 -0.82880759197E+03  0.10552796503E+04  0.65238744168E+03 0.  0.
         13    1    3    3    0    0 -0.25550944708E+03  0.56930753440E+02 -0.77547170179E+03  0.81846352913E+03  0.00000000000E+00 0.  1.
          3    1    3    3  501    0  0.22722198770E+03 -0.40091474774E+02 -0.53335890179E+02  0.23681612112E+03  0.00000000000E+00 0.  1.
         21    1    1    2  502  501  0.28287459383E+02 -0.16839278666E+02 -0.53281562738E+02  0.62631195040E+02  0.00000000000E+00 0.  1.
<mgrwt>
<rscale>  1 0.30000000E+03</rscale>
<asrwt>0</asrwt>
<pdfrwt beam="1">  1        1 0.42876761E+00 0.30000000E+03</pdfrwt>
<pdfrwt beam="2">0</pdfrwt>
<totfact> 0.70719326E-01</totfact>
</mgrwt>
</event>
<event>
 6    1  0.5260809E-006  0.3000000E+03  0.7818608E-02  0.1093470E+00
          1   -1    0    0  502    0  0.00000000000E+00  0.00000000000E+00  0.11326500787E+03  0.11326500787E+03  0.00000000000E+00 0.  1.
         13   -1    0    0    0    0 -0.00000000000E+00 -0.00000000000E+00 -0.10000000000E+04  0.10000000000E+04  0.00000000000E+00 0.  1.
    9000005    2    1    2  501    0 -0.14776006327E+02  0.33284527930E+00 -0.88697070908E+03  0.10984833736E+04  0.64786591375E+03 0.  0.
         13    1    3    3    0    0  0.51672332951E+01  0.15015844602E+03  0.43024095959E+02  0.15628605838E+03  0.00000000000E+00 0.  1.
          3    1    3    3  501    0 -0.19943239622E+02 -0.14982560074E+03 -0.92999480503E+03  0.94219731523E+03  0.00000000000E+00 0.  1.
         21    1    1    2  502  501  0.14776006327E+02 -0.33284527930E+00  0.23571694744E+00  0.14781634261E+02  0.00000000000E+00 0. -1.
<mgrwt>
<rscale>  1 0.30000000E+03</rscale>
<asrwt>0</asrwt>
<pdfrwt beam="1">  1        1 0.41187362E+00 0.30000000E+03</pdfrwt>
<pdfrwt beam="2">0</pdfrwt>
<totfact> 0.89807058E-01</totfact>
</mgrwt>
</event>
<event>
 6    1  0.5260809E-006  0.3000000E+03  0.7818608E-02  0.1093470E+00
          1   -1    0    0  502    0  0.00000000000E+00  0.00000000000E+00  0.13815700908E+03  0.13815700908E+03  0.00000000000E+00 0.  1.
         13   -1    0    0    0    0 -0.00000000000E+00 -0.00000000000E+00 -0.10000000000E+04  0.10000000000E+04  0.00000000000E+00 0.  1.
    9000005    2    1    2  501    0 -0.72511911844E+01 -0.89435712909E+01 -0.89466222212E+03  0.11033767104E+04  0.64566795342E+03 0.  0.
         13    1    3    3    0    0  0.21279746862E+03  0.10711616201E+03 -0.79584611126E+02  0.25117791531E+03  0.00000000000E+00 0.  1.
          1    1    3    3  501    0 -0.22004865980E+03 -0.11605973330E+03 -0.81507761099E+03  0.85219879507E+03  0.00000000000E+00 0.  1.
         21    1    1    2  502  501  0.72511911844E+01  0.89435712909E+01  0.32819231201E+02  0.34780298700E+02  0.00000000000E+00 0. -1.
<mgrwt>
<rscale>  1 0.30000000E+03</rscale>
<asrwt>0</asrwt>
<pdfrwt beam="1">  1        1 0.50239018E+00 0.30000000E+03</pdfrwt>
<pdfrwt beam="2">0</pdfrwt>
<totfact> 0.21932624E-01</totfact>
</mgrwt>
</event>
<event>
 6    1  0.5260809E-006  0.3000000E+03  0.7818608E-02  0.1093470E+00
          1   -1    0    0  502    0  0.00000000000E+00  0.00000000000E+00  0.12839803678E+03  0.12839803678E+03  0.00000000000E+00 0.  1.
         13   -1    0    0    0    0 -0.00000000000E+00 -0.00000000000E+00 -0.10000000000E+04  0.10000000000E+04  0.00000000000E+00 0.  1.
    9000005    2    1    2  501    0  0.30866463760E+02  0.25936373027E+02 -0.87043764157E+03  0.10880645559E+04  0.65161135351E+03 0.  0.
         13    1    3    3    0    0 -0.27989840282E+03 -0.12598543104E+03 -0.40963126703E+03  0.51187226890E+03  0.00000000000E+00 0.  1.
          1    1    3    3  501    0  0.31076486658E+03  0.15192180407E+03 -0.46080637453E+03  0.57619228705E+03  0.00000000000E+00 0.  1.
         21    1    1    2  502  501 -0.30866463760E+02 -0.25936373027E+02 -0.11643216546E+01  0.40333480829E+02  0.00000000000E+00 0. -1.
<mgrwt>
<rscale>  1 0.30000000E+03</rscale>
<asrwt>0</asrwt>
<pdfrwt beam="1">  1        1 0.46690294E+00 0.30000000E+03</pdfrwt>
<pdfrwt beam="2">0</pdfrwt>
<totfact> 0.39521983E-01</totfact>
</mgrwt>
</event>
<event>
 6    1  0.5260809E-006  0.3000000E+03  0.7818608E-02  0.1093470E+00
          1   -1    0    0  502    0  0.00000000000E+00  0.00000000000E+00  0.12459992015E+03  0.12459992015E+03  0.00000000000E+00 0.  1.
         13   -1    0    0    0    0 -0.00000000000E+00 -0.00000000000E+00 -0.10000000000E+04  0.10000000000E+04  0.00000000000E+00 0.  1.
    9000005    2    1    2  501    0 -0.13688602314E+02 -0.87380248620E+00 -0.89842414495E+03  0.10977997534E+04  0.63072197756E+03 0.  0.
         13    1    3    3    0    0 -0.24969912314E+03 -0.13154845371E+03 -0.19127781132E+03  0.34094258883E+03  0.00000000000E+00 0.  1.
          3    1    3    3  501    0  0.23601052083E+03  0.13067465123E+03 -0.70714633362E+03  0.75685716458E+03  0.00000000000E+00 0.  1.
         21    1    1    2  502  501  0.13688602314E+02  0.87380248620E+00  0.23024065094E+02  0.26800166745E+02  0.00000000000E+00 0. -1.
<mgrwt>
<rscale>  1 0.30000000E+03</rscale>
<asrwt>0</asrwt>
<pdfrwt beam="1">  1        1 0.45309157E+00 0.30000000E+03</pdfrwt>
<pdfrwt beam="2">0</pdfrwt>
<totfact> 0.49051632E-01</totfact>
</mgrwt>
</event>
<event>
 6    1  0.5260809E-006  0.3000000E+03  0.7818608E-02  0.1093470E+00
          1   -1    0    0  502    0  0.00000000000E+00  0.00000000000E+00  0.11581326029E+03  0.11581326029E+03  0.00000000000E+00 0.  1.
         13   -1    0    0    0    0 -0.00000000000E+00 -0.00000000000E+00 -0.10000000000E+04  0.10000000000E+04  0.00000000000E+00 0.  1.
    9000005    2    1    2  501    0 -0.41599254887E+01  0.44588402908E+02 -0.84930300466E+03  0.10590479044E+04  0.63107958254E+03 0.  0.
         13    1    3    3    0    0  0.92279223972E+02 -0.24688280034E+03 -0.17012237543E+03  0.31370080476E+03  0.00000000000E+00 0.  1.
          3    1    3    3  501    0 -0.96439149461E+02  0.29147120325E+03 -0.67918062922E+03  0.74534709967E+03  0.00000000000E+00 0.  1.
         21    1    1    2  502  501  0.41599254887E+01 -0.44588402908E+02 -0.34883735059E+02  0.56765355857E+02  0.00000000000E+00 0.  1.
<mgrwt>
<rscale>  1 0.30000000E+03</rscale>
<asrwt>0</asrwt>
<pdfrwt beam="1">  1        1 0.42114002E+00 0.30000000E+03</pdfrwt>
<pdfrwt beam="2">0</pdfrwt>
<totfact> 0.78915688E-01</totfact>
</mgrwt>
</event>
<event>
 6    1  0.5260809E-006  0.3000000E+03  0.7818608E-02  0.1093470E+00
          1   -1    0    0  502    0  0.00000000000E+00  0.00000000000E+00  0.12291013713E+03  0.12291013713E+03  0.00000000000E+00 0.  1.
         13   -1    0    0    0    0 -0.00000000000E+00 -0.00000000000E+00 -0.10000000000E+04  0.10000000000E+04  0.00000000000E+00 0.  1.
    9000005    2    1    2  501    0 -0.35200073821E+02 -0.74220753944E+01 -0.86602115336E+03  0.10852717428E+04  0.65309110022E+03 0.  0.
         13    1    3    3    0    0 -0.18199866540E+03  0.24141699548E+03 -0.67306214288E+03  0.73784708991E+03  0.00000000000E+00 0.  1.
          3    1    3    3  501    0  0.14679859158E+03 -0.24883907088E+03 -0.19295901048E+03  0.34742465286E+03  0.00000000000E+00 0.  1.
         21    1    1    2  502  501  0.35200073821E+02  0.74220753944E+01 -0.11068709511E+02  0.37638394365E+02  0.00000000000E+00 0. -1.
<mgrwt>
<rscale>  1 0.30000000E+03</rscale>
<asrwt>0</asrwt>
<pdfrwt beam="1">  1        1 0.44694690E+00 0.30000000E+03</pdfrwt>
<pdfrwt beam="2">0</pdfrwt>
<totfact> 0.53937012E-01</totfact>
</mgrwt>
</event>
<event>
 6    1  0.5260809E-006  0.3000000E+03  0.7818608E-02  0.1093470E+00
          1   -1    0    0  502    0  0.00000000000E+00  0.00000000000E+00  0.12003303028E+03  0.12003303028E+03  0.00000000000E+00 0.  1.
         13   -1    0    0    0    0 -0.00000000000E+00 -0.00000000000E+00 -0.10000000000E+04  0.10000000000E+04  0.00000000000E+00 0.  1.
    9000005    2    1    2  501    0  0.11850314457E+02  0.10816117733E+02 -0.88883730205E+03  0.11016999686E+04  0.65073316568E+03 0.  0.
         13    1    3    3    0    0  0.12260622657E+03 -0.21689100989E+03 -0.79256351094E+03  0.83080136967E+03  0.00000000000E+00 0.  1.
          1    1    3    3  501    0 -0.11075591212E+03  0.22770712763E+03 -0.96273791103E+02  0.27089859891E+03  0.00000000000E+00 0.  1.
         21    1    1    2  502  501 -0.11850314457E+02 -0.10816117733E+02  0.88703323277E+01  0.18333061696E+02  0.00000000000E+00 0.  1.
<mgrwt>
<rscale>  1 0.30000000E+03</rscale>
<asrwt>0</asrwt>
<pdfrwt beam="1">  1        1 0.43648467E+00 0.30000000E+03</pdfrwt>
<pdfrwt beam="2">0</pdfrwt>
<totfact> 0.63165540E-01</totfact>
</mgrwt>
</event>
<event>
 6    1  0.5260809E-006  0.3000000E+03  0.7818608E-02  0.1093470E+00
          1   -1    0    0  502    0  0.00000000000E+00  0.00000000000E+00  0.10808075912E+03  0.10808075912E+03  0.00000000000E+00 0.  1.
         13   -1    0    0    0    0 -0.00000000000E+00 -0.00000000000E+00 -0.10000000000E+04  0.10000000000E+04  0.00000000000E+00 0.  1.
    9000005    2    1    2  501    0  0.98384710006E+01 -0.22045837317E+02 -0.86088866812E+03  0.10687652291E+04  0.63288782702E+03 0.  0.
         13    1    3    3    0    0  0.12351748386E+03 -0.28758789746E+03 -0.61235653654E+03  0.68770916485E+03  0.00000000000E+00 0.  1.
          3    1    3    3  501    0 -0.11367901286E+03  0.26554206015E+03 -0.24853213158E+03  0.38105606425E+03  0.00000000000E+00 0.  1.
         21    1    1    2  502  501 -0.98384710006E+01  0.22045837317E+02 -0.31030572762E+02  0.39315530018E+02  0.00000000000E+00 0. -1.
<mgrwt>
<rscale>  1 0.30000000E+03</rscale>
<asrwt>0</asrwt>
<pdfrwt beam="1">  1        1 0.39302177E+00 0.30000000E+03</pdfrwt>
<pdfrwt beam="2">0</pdfrwt>
<totfact> 0.11533105E+00</totfact>
</mgrwt>
</event>
<event>
 6    1  0.5260809E-006  0.3000000E+03  0.7818608E-02  0.1093470E+00
          1   -1    0    0  502    0  0.00000000000E+00  0.00000000000E+00  0.11458138693E+03  0.11458138693E+03  0.00000000000E+00 0.  1.
         13   -1    0    0    0    0 -0.00000000000E+00 -0.00000000000E+00 -0.10000000000E+04  0.10000000000E+04  0.00000000000E+00 0.  1.
    9000005    2    1    2  501    0  0.21681659455E+02 -0.27958845908E+01 -0.88580453121E+03  0.10927167977E+04  0.63945478434E+03 0.  0.
         13    1    3    3    0    0  0.97430726439E+02  0.30192767534E+03 -0.53426365037E+03  0.62136198443E+03  0.00000000000E+00 0.  1.
          1    1    3    3  501    0 -0.75749066984E+02 -0.30472355993E+03 -0.35154088085E+03  0.47135481331E+03  0.00000000000E+00 0.  1.
         21    1    1    2  502  501 -0.21681659455E+02  0.27958845908E+01  0.38591814024E+00  0.21864589184E+02  0.00000000000E+00 0.  1.
<mgrwt>
<rscale>  1 0.30000000E+03</rscale>
<asrwt>0</asrwt>
<pdfrwt beam="1">  1        1 0.41666047E+00 0.30000000E+03</pdfrwt>
<pdfrwt beam="2">0</pdfrwt>
<totfact> 0.84057408E-01</totfact>
</mgrwt>
</event>
<event>
 6    1  0.5260809E-006  0.3000000E+03  0.7818608E-02  0.1093470E+00
          1   -1    0    0  502    0  0.00000000000E+00  0.00000000000E+00  0.11390156734E+03  0.11390156734E+03  0.00000000000E+00 0.  1.
         13   -1    0    0    0    0 -0.00000000000E+00 -0.00000000000E+00 -0.10000000000E+04  0.10000000000E+04  0.00000000000E+00 0.  1.
    9000005    2    1    2  501    0 -0.10465092542E+02  0.59185154202E+01 -0.89292704239E+03  0.11000748939E+04  0.64241849463E+03 0.  0.
         13    1    3    3    0    0  0.28734312989E+03  0.11127697400E+02 -0.66662969845E+03  0.72600623606E+03  0.00000000000E+00 0.  1.
          3    1    3    3  501    0 -0.29780822244E+03 -0.52091819802E+01 -0.22629734394E+03  0.37406865787E+03  0.00000000000E+00 0.  1.
         21    1    1    2  502  501  0.10465092542E+02 -0.59185154202E+01  0.68286097261E+01  0.13826673406E+02  0.00000000000E+00 0.  1.
<mgrwt>
<rscale>  1 0.30000000E+03</rscale>
<asrwt>0</asrwt>
<pdfrwt beam="1">  1        1 0.41418839E+00 0.30000000E+03</pdfrwt>
<pdfrwt beam="2">0</pdfrwt>
<totfact> 0.86991493E-01</totfact>
</mgrwt>
</event>
<event>
 6    1  0.5260809E-006  0.3000000E+03  0.7818608E-02  0.1093470E+00
          1   -1    0    0  502    0  0.00000000000E+00  0.00000000000E+00  0.11350021725E+03  0.11350021725E+03  0.00000000000E+00 0.  1.
         13   -1    0    0    0    0 -0.00000000000E+00 -0.00000000000E+00 -0.10000000000E+04  0.10000000000E+04  0.00000000000E+00 0.  1.
    9000005    2    1    2  501    0  0.58344693764E+01  0.82620420356E+01 -0.88586508833E+03  0.11033658594E+04  0.65769062838E+03 0.  0.
         13    1    3    3    0    0  0.83650348094E+02 -0.10745446898E+03 -0.94291654710E+03  0.95269903875E+03  0.00000000000E+00 0.  1.
          1    1    3    3  501    0 -0.77815878718E+02  0.11571651102E+03  0.57051458777E+02  0.15066682067E+03  0.00000000000E+00 0.  1.
         21    1    1    2  502  501 -0.58344693764E+01 -0.82620420356E+01 -0.63469442125E+00  0.10134357824E+02  0.00000000000E+00 0. -1.
<mgrwt>
<rscale>  1 0.30000000E+03</rscale>
<asrwt>0</asrwt>
<pdfrwt beam="1">  1        1 0.41272893E+00 0.30000000E+03</pdfrwt>
<pdfrwt beam="2">0</pdfrwt>
<totfact> 0.88758944E-01</totfact>
</mgrwt>
</event>
<event>
 6    1  0.5260809E-006  0.3000000E+03  0.7818608E-02  0.1093470E+00
          1   -1    0    0  502    0  0.00000000000E+00  0.00000000000E+00  0.11028541300E+03  0.11028541300E+03  0.00000000000E+00 0.  1.
         13   -1    0    0    0    0 -0.00000000000E+00 -0.00000000000E+00 -0.10000000000E+04  0.10000000000E+04  0.00000000000E+00 0.  1.
    9000005    2    1    2  501    0  0.83452595081E+01 -0.12835654971E+02 -0.86963110150E+03  0.10850318235E+04  0.64869207473E+03 0.  0.
         13    1    3    3    0    0 -0.15366577867E+03  0.27160686960E+03 -0.33243015777E+03  0.45595314775E+03  0.00000000000E+00 0.  1.
          3    1    3    3  501    0  0.16201103818E+03 -0.28444252457E+03 -0.53720094374E+03  0.62907867571E+03  0.00000000000E+00 0.  1.
         21    1    1    2  502  501 -0.83452595081E+01  0.12835654971E+02 -0.20083485500E+02  0.25253589540E+02  0.00000000000E+00 0. -1.
<mgrwt>
<rscale>  1 0.30000000E+03</rscale>
<asrwt>0</asrwt>
<pdfrwt beam="1">  1        1 0.40103871E+00 0.30000000E+03</pdfrwt>
<pdfrwt beam="2">0</pdfrwt>
<totfact> 0.10388833E+00</totfact>
</mgrwt>
</event>
<event>
 6    1  0.5260809E-006  0.3000000E+03  0.7818608E-02  0.1093470E+00
          1   -1    0    0  502    0  0.00000000000E+00  0.00000000000E+00  0.13267237802E+03  0.13267237802E+03  0.00000000000E+00 0.  1.
         13   -1    0    0    0    0 -0.00000000000E+00 -0.00000000000E+00 -0.10000000000E+04  0.10000000000E+04  0.00000000000E+00 0.  1.
    9000005    2    1    2  501    0 -0.11232829664E+02 -0.10897802078E+02 -0.90036278963E+03  0.10961174761E+04  0.62496034267E+03 0.  0.
         13    1    3    3    0    0  0.14201040827E+03  0.17853924933E+03 -0.80121223659E+03  0.83305718152E+03  0.00000000000E+00 0.  1.
          1    1    3    3  501    0 -0.15324323794E+03 -0.18943705141E+03 -0.99150553040E+02  0.26306029459E+03  0.00000000000E+00 0.  1.
         21    1    1    2  502  501  0.11232829664E+02  0.10897802078E+02  0.33035167649E+02  0.36554901915E+02  0.00000000000E+00 0. -1.
<mgrwt>
<rscale>  1 0.30000000E+03</rscale>
<asrwt>0</asrwt>
<pdfrwt beam="1">  1        1 0.48244603E+00 0.30000000E+03</pdfrwt>
<pdfrwt beam="2">0</pdfrwt>
<totfact> 0.30671542E-01</totfact>
</mgrwt>
</event>
<event>
 6    1  0.5260809E-006  0.3000000E+03  0.7818608E-02  0.1093470E+00
          1   -1    0    0  502    0  0.00000000000E+00  0.00000000000E+00  0.11153691138E+03  0.11153691138E+03  0.00000000000E+00 0.  1.
         13   -1    0    0    0    0 -0.00000000000E+00 -0.00000000000E+00 -0.10000000000E+04  0.10000000000E+04  0.00000000000E+00 0.  1.
    9000005    2    1    2  501    0 -0.13360406022E+02  0.47847534041E+01 -0.87014355100E+03  0.10883636558E+04  0.65359333969E+03 0.  0.
         13    1    3    3    0    0  0.60495042182E+02  0.31443225892E+03 -0.55300489565E+03  0.63901620495E+03  0.00000000000E+00 0.  1.
          3    1    3    3  501    0 -0.73855448204E+02 -0.30964750551E+03 -0.31713865534E+03  0.44934745088E+03  0.00000000000E+00 0.  1.
         21    1    1    2  502  501  0.13360406022E+02 -0.47847534041E+01 -0.18319537620E+02  0.23173255551E+02  0.00000000000E+00 0.  1.
<mgrwt>
<rscale>  1 0.30000000E+03</rscale>
<asrwt>0</asrwt>
<pdfrwt beam="1">  1        1 0.40558962E+00 0.30000000E+03</pdfrwt>
<pdfrwt beam="2">0</pdfrwt>
<totfact> 0.97791277E-01</totfact>
</mgrwt>
</event>
<event>
 6    1  0.5260809E-006  0.3000000E+03  0.7818608E-02  0.1093470E+00
          1   -1    0    0  502    0  0.00000000000E+00  0.00000000000E+00  0.11131450803E+03  0.11131450803E+03  0.00000000000E+00 0.  1.
         13   -1    0    0    0    0 -0.00000000000E+00 -0.00000000000E+00 -0.10000000000E+04  0.10000000000E+04  0.00000000000E+00 0.  1.
    9000005    2    1    2  501    0  0.18268832339E+02  0.86063441530E+01 -0.87836242670E+03  0.10886344491E+04  0.64280369617E+03 0.  0.
         13    1    3    3    0    0  0.26432682306E+03  0.11623535278E+03 -0.17963635512E+03  0.34007138472E+03  0.00000000000E+00 0.  1.
          3    1    3    3  501    0 -0.24605799072E+03 -0.10762900862E+03 -0.69872607159E+03  0.74856306442E+03  0.00000000000E+00 0.  1.
         21    1    1    2  502  501 -0.18268832339E+02 -0.86063441530E+01 -0.10323065269E+02  0.22680058890E+02  0.00000000000E+00 0.  1.
<mgrwt>
<rscale>  1 0.30000000E+03</rscale>
<asrwt>0</asrwt>
<pdfrwt beam="1">  1        1 0.40478088E+00 0.30000000E+03</pdfrwt>
<pdfrwt beam="2">0</pdfrwt>
<totfact> 0.98855671E-01</totfact>
</mgrwt>
</event>
<event>
 6    1  0.5260809E-006  0.3000000E+03  0.7818608E-02  0.1093470E+00
          1   -1    0    0  502    0  0.00000000000E+00  0.00000000000E+00  0.11643597130E+03  0.11643597130E+03  0.00000000000E+00 0.  1.
         13   -1    0    0    0    0 -0.00000000000E+00 -0.00000000000E+00 -0.10000000000E+04  0.10000000000E+04  0.00000000000E+00 0.  1.
    9000005    2    1    2  501    0 -0.18992610994E+02  0.25678140011E+02 -0.86150659936E+03  0.10776208153E+04  0.64657011581E+03 0.  0.
         13    1    3    3    0    0  0.29639361899E+03 -0.84082800503E+02 -0.34475558045E+03  0.46235863242E+03  0.00000000000E+00 0.  1.
          1    1    3    3  501    0 -0.31538622998E+03  0.10976094051E+03 -0.51675101891E+03  0.61526218287E+03  0.00000000000E+00 0.  1.
         21    1    1    2  502  501  0.18992610994E+02 -0.25678140011E+02 -0.22057429343E+02  0.38815156010E+02  0.00000000000E+00 0. -1.
<mgrwt>
<rscale>  1 0.30000000E+03</rscale>
<asrwt>0</asrwt>
<pdfrwt beam="1">  1        1 0.42340442E+00 0.30000000E+03</pdfrwt>
<pdfrwt beam="2">0</pdfrwt>
<totfact> 0.76405426E-01</totfact>
</mgrwt>
</event>
<event>
 6    1  0.5260809E-006  0.3000000E+03  0.7818608E-02  0.1093470E+00
          1   -1    0    0  502    0  0.00000000000E+00  0.00000000000E+00  0.11752976696E+03  0.11752976696E+03  0.00000000000E+00 0.  1.
         13   -1    0    0    0    0 -0.00000000000E+00 -0.00000000000E+00 -0.10000000000E+04  0.10000000000E+04  0.00000000000E+00 0.  1.
    9000005    2    1    2  501    0 -0.14691599097E+02 -0.13795827712E+02 -0.89119840667E+03  0.10955673226E+04  0.63688852274E+03 0.  0.
         13    1    3    3    0    0  0.57995836140E+02 -0.15565988801E+03 -0.91888513220E+03  0.93377909803E+03  0.00000000000E+00 0.  1.
          1    1    3    3  501    0 -0.72687435237E+02  0.14186406030E+03  0.27686725528E+02  0.16178822459E+03  0.00000000000E+00 0.  1.
         21    1    1    2  502  501  0.14691599097E+02  0.13795827712E+02  0.87281736290E+01  0.21962444335E+02  0.00000000000E+00 0. -1.
<mgrwt>
<rscale>  1 0.30000000E+03</rscale>
<asrwt>0</asrwt>
<pdfrwt beam="1">  1        1 0.42738187E+00 0.30000000E+03</pdfrwt>
<pdfrwt beam="2">0</pdfrwt>
<totfact> 0.72152230E-01</totfact>
</mgrwt>
</event>
<event>
 6    1  0.5260809E-006  0.3000000E+03  0.7818608E-02  0.1093470E+00
          1   -1    0    0  502    0  0.00000000000E+00  0.00000000000E+00  0.11313649749E+03  0.11313649749E+03  0.00000000000E+00 0.  1.
         13   -1    0    0    0    0 -0.00000000000E+00 -0.00000000000E+00 -0.10000000000E+04  0.10000000000E+04  0.00000000000E+00 0.  1.
    9000005    2    1    2  501    0  0.26670859476E+02  0.15090254810E+01 -0.85785611795E+03  0.10737024987E+04  0.64514054643E+03 0.  0.
         13    1    3    3    0    0 -0.12505826222E+03  0.79226596903E+02 -0.88828169290E+03  0.90053361322E+03  0.00000000000E+00 0.  1.
          3    1    3    3  501    0  0.15172912169E+03 -0.77717571422E+02  0.30425574947E+02  0.17316888545E+03  0.00000000000E+00 0.  1.
         21    1    1    2  502  501 -0.26670859476E+02 -0.15090254810E+01 -0.29007384562E+02  0.39433998811E+02  0.00000000000E+00 0. -1.
<mgrwt>
<rscale>  1 0.30000000E+03</rscale>
<asrwt>0</asrwt>
<pdfrwt beam="1">  1        1 0.41140631E+00 0.30000000E+03</pdfrwt>
<pdfrwt beam="2">0</pdfrwt>
<totfact> 0.90383575E-01</totfact>
</mgrwt>
</event>
<event>
 6    1  0.5260809E-006  0.3000000E+03  0.7818608E-02  0.1093470E+00
          1   -1    0    0  502    0  0.00000000000E+00  0.00000000000E+00  0.10844009043E+03  0.10844009043E+03  0.00000000000E+00 0.  1.
         13   -1    0    0    0    0 -0.00000000000E+00 -0.00000000000E+00 -0.10000000000E+04  0.10000000000E+04  0.00000000000E+00 0.  1.
    9000005    2    1    2  501    0 -0.12999635517E+02 -0.26151607969E+01 -0.86683791762E+03  0.10803864547E+04  0.64471007945E+03 0.  0.
         13    1    3    3    0    0 -0.93891295054E+02  0.13659064617E+03 -0.90073203415E+03  0.91585521632E+03  0.00000000000E+00 0.  1.
          1    1    3    3  501    0  0.80891659537E+02 -0.13920580697E+03  0.33894116536E+02  0.16453123841E+03  0.00000000000E+00 0.  1.
         21    1    1    2  502  501  0.12999635517E+02  0.26151607969E+01 -0.24721991956E+02  0.28053635698E+02  0.00000000000E+00 0. -1.
<mgrwt>
<rscale>  1 0.30000000E+03</rscale>
<asrwt>0</asrwt>
<pdfrwt beam="1">  1        1 0.39432843E+00 0.30000000E+03</pdfrwt>
<pdfrwt beam="2">0</pdfrwt>
<totfact> 0.11339646E+00</totfact>
</mgrwt>
</event>
<event>
 6    1  0.5260809E-006  0.3000000E+03  0.7818608E-02  0.1093470E+00
          1   -1    0    0  502    0  0.00000000000E+00  0.00000000000E+00  0.67272519550E+02  0.67272519550E+02  0.00000000000E+00 0.  1.
         13   -1    0    0    0    0 -0.00000000000E+00 -0.00000000000E+00 -0.10000000000E+04  0.10000000000E+04  0.00000000000E+00 0.  1.
    9000005    2    1    2  501    0  0.30476325308E+02  0.93789829469E+01 -0.91113066808E+03  0.10287602614E+04  0.47662543925E+03 0.  0.
         13    1    3    3    0    0  0.11567667158E+03  0.13081154602E+03 -0.85094134148E+03  0.86867365538E+03  0.00000000000E+00 0.  1.
          1    1    3    3  501    0 -0.85200346274E+02 -0.12143256308E+03 -0.60189326604E+02  0.16008660599E+03  0.00000000000E+00 0.  1.
         21    1    1    2  502  501 -0.30476325308E+02 -0.93789829469E+01 -0.21596812369E+02  0.38512258178E+02  0.00000000000E+00 0.  1.
<mgrwt>
<rscale>  1 0.30000000E+03</rscale>
<asrwt>0</asrwt>
<pdfrwt beam="1">  1        1 0.24462786E+00 0.30000000E+03</pdfrwt>
<pdfrwt beam="2">0</pdfrwt>
<totfact> 0.63203997E+00</totfact>
</mgrwt>
</event>
<event>
 6    1  0.5260809E-006  0.3000000E+03  0.7818608E-02  0.1093470E+00
          1   -1    0    0  502    0  0.00000000000E+00  0.00000000000E+00  0.12882258662E+03  0.12882258662E+03  0.00000000000E+00 0.  1.
         13   -1    0    0    0    0 -0.00000000000E+00 -0.00000000000E+00 -0.10000000000E+04  0.10000000000E+04  0.00000000000E+00 0.  1.
    9000005    2    1    2  501    0 -0.17892325196E+02 -0.20042119350E+02 -0.88550528416E+03  0.10983741100E+04  0.64929519892E+03 0.  0.
         13    1    3    3    0    0  0.41670402563E+02 -0.15576230226E+03  0.35846905275E+02  0.16517662629E+03  0.00000000000E+00 0.  1.
          1    1    3    3  501    0 -0.59562727760E+02  0.13572018291E+03 -0.92135218943E+03  0.93319748368E+03  0.00000000000E+00 0.  1.
         21    1    1    2  502  501  0.17892325196E+02  0.20042119350E+02  0.14327870773E+02  0.30448476643E+02  0.00000000000E+00 0. -1.
<mgrwt>
<rscale>  1 0.30000000E+03</rscale>
<asrwt>0</asrwt>
<pdfrwt beam="1">  1        1 0.46844676E+00 0.30000000E+03</pdfrwt>
<pdfrwt beam="2">0</pdfrwt>
<totfact> 0.38556688E-01</totfact>
</mgrwt>
</event>
<event>
 6    1  0.5260809E-006  0.3000000E+03  0.7818608E-02  0.1093470E+00
          1   -1    0    0  502    0  0.00000000000E+00  0.00000000000E+00  0.11441405676E+03  0.11441405676E+03  0.00000000000E+00 0.  1.
         13   -1    0    0    0    0 -0.00000000000E+00 -0.00000000000E+00 -0.10000000000E+04  0.10000000000E+04  0.00000000000E+00 0.  1.
    9000005    2    1    2  501    0  0.21871217380E+02 -0.11273435075E+02 -0.86836025472E+03  0.10843779979E+04  0.64901515377E+03 0.  0.
         13    1    3    3    0    0 -0.31037082668E+02  0.10496199244E+03 -0.93427210701E+03  0.94066183631E+03  0.00000000000E+00 0.  1.
          1    1    3    3  501    0  0.52908300048E+02 -0.11623542752E+03  0.65911852289E+02  0.14371616157E+03  0.00000000000E+00 0.  1.
         21    1    1    2  502  501 -0.21871217380E+02  0.11273435075E+02 -0.17225688523E+02  0.30036058882E+02  0.00000000000E+00 0. -1.
<mgrwt>
<rscale>  1 0.30000000E+03</rscale>
<asrwt>0</asrwt>
<pdfrwt beam="1">  1        1 0.41605199E+00 0.30000000E+03</pdfrwt>
<pdfrwt beam="2">0</pdfrwt>
<totfact> 0.84772792E-01</totfact>
</mgrwt>
</event>
<event>
 6    1  0.5260809E-006  0.3000000E+03  0.7818608E-02  0.1093470E+00
          1   -1    0    0  502    0  0.00000000000E+00  0.00000000000E+00  0.11456607672E+03  0.11456607672E+03  0.00000000000E+00 0.  1.
         13   -1    0    0    0    0 -0.00000000000E+00 -0.00000000000E+00 -0.10000000000E+04  0.10000000000E+04  0.00000000000E+00 0.  1.
    9000005    2    1    2  501    0 -0.87949806379E+01  0.92664174228E+01 -0.88755427338E+03  0.11016156304E+04  0.65241182598E+03 0.  0.
         13    1    3    3    0    0 -0.27973433245E+03  0.15720263623E+03 -0.30696897560E+03  0.44406521770E+03  0.00000000000E+00 0.  1.
          3    1    3    3  501    0  0.27093935181E+03 -0.14793621880E+03 -0.58058529778E+03  0.65755041266E+03  0.00000000000E+00 0.  1.
         21    1    1    2  502  501  0.87949806379E+01 -0.92664174228E+01  0.21203500971E+01  0.12950446356E+02  0.00000000000E+00 0.  1.
<mgrwt>
<rscale>  1 0.30000000E+03</rscale>
<asrwt>0</asrwt>
<pdfrwt beam="1">  1        1 0.41660479E+00 0.30000000E+03</pdfrwt>
<pdfrwt beam="2">0</pdfrwt>
<totfact> 0.84122700E-01</totfact>
</mgrwt>
</event>
<event>
 6    1  0.5260809E-006  0.3000000E+03  0.7818608E-02  0.1093470E+00
          1   -1    0    0  502    0  0.00000000000E+00  0.00000000000E+00  0.10990109425E+03  0.10990109425E+03  0.00000000000E+00 0.  1.
         13   -1    0    0    0    0 -0.00000000000E+00 -0.00000000000E+00 -0.10000000000E+04  0.10000000000E+04  0.00000000000E+00 0.  1.
    9000005    2    1    2  501    0 -0.90260857040E+01 -0.65498439631E+01 -0.88521827239E+03  0.10977277110E+04  0.64905343920E+03 0.  0.
         13    1    3    3    0    0 -0.18446542337E+02 -0.25930242909E+03 -0.78282540462E+03  0.82485976915E+03  0.00000000000E+00 0.  1.
          1    1    3    3  501    0  0.94204566325E+01  0.25275258512E+03 -0.10239286778E+03  0.27286794180E+03  0.00000000000E+00 0.  1.
         21    1    1    2  502  501  0.90260857040E+01  0.65498439631E+01 -0.48806333527E+01  0.12173383301E+02  0.00000000000E+00 0. -1.
<mgrwt>
<rscale>  1 0.30000000E+03</rscale>
<asrwt>0</asrwt>
<pdfrwt beam="1">  1        1 0.39964119E+00 0.30000000E+03</pdfrwt>
<pdfrwt beam="2">0</pdfrwt>
<totfact> 0.10581413E+00</totfact>
</mgrwt>
</event>
<event>
 6    1  0.5260809E-006  0.3000000E+03  0.7818608E-02  0.1093470E+00
          1   -1    0    0  502    0  0.00000000000E+00  0.00000000000E+00  0.68741514801E+02  0.68741514801E+02  0.00000000000E+00 0.  1.
         13   -1    0    0    0    0 -0.00000000000E+00 -0.00000000000E+00 -0.10000000000E+04  0.10000000000E+04  0.00000000000E+00 0.  1.
    9000005    2    1    2  501    0 -0.21062192596E+02 -0.11754058128E+02 -0.91319687309E+03  0.10386085483E+04  0.49416334718E+03 0.  0.
         13    1    3    3    0    0 -0.10572138850E+02  0.18919416136E+03 -0.76653986902E+03  0.78961355840E+03  0.00000000000E+00 0.  1.
          3    1    3    3  501    0 -0.10490053745E+02 -0.20094821949E+03 -0.14665700407E+03  0.24899498988E+03  0.00000000000E+00 0.  1.
         21    1    1    2  502  501  0.21062192596E+02  0.11754058128E+02 -0.18061612110E+02  0.30132966522E+02  0.00000000000E+00 0. -1.
<mgrwt>
<rscale>  1 0.30000000E+03</rscale>
<asrwt>0</asrwt>
<pdfrwt beam="1">  1        1 0.24996967E+00 0.30000000E+03</pdfrwt>
<pdfrwt beam="2">0</pdfrwt>
<totfact> 0.59680149E+00</totfact>
</mgrwt>
</event>
<event>
 6    1  0.5260809E-006  0.3000000E+03  0.7818608E-02  0.1093470E+00
          1   -1    0    0  502    0  0.00000000000E+00  0.00000000000E+00  0.11399006331E+03  0.11399006331E+03  0.00000000000E+00 0.  1.
         13   -1    0    0    0    0 -0.00000000000E+00 -0.00000000000E+00 -0.10000000000E+04  0.10000000000E+04  0.00000000000E+00 0.  1.
    9000005    2    1    2  501    0 -0.78628508170E+01 -0.19429925865E+02 -0.87563528709E+03  0.10906024641E+04  0.64979783955E+03 0.  0.
         13    1    3    3    0    0 -0.22738957571E+03  0.15794269496E+03 -0.15641596086E+03  0.31799035653E+03  0.00000000000E+00 0.  1.
          3    1    3    3  501    0  0.21952672490E+03 -0.17737262082E+03 -0.71921932622E+03  0.77261210758E+03  0.00000000000E+00 0.  1.
         21    1    1    2  502  501  0.78628508170E+01  0.19429925865E+02 -0.10374649603E+02  0.23387599203E+02  0.00000000000E+00 0. -1.
<mgrwt>
<rscale>  1 0.30000000E+03</rscale>
<asrwt>0</asrwt>
<pdfrwt beam="1">  1        1 0.41451020E+00 0.30000000E+03</pdfrwt>
<pdfrwt beam="2">0</pdfrwt>
<totfact> 0.86605323E-01</totfact>
</mgrwt>
</event>
<event>
 6    1  0.5260809E-006  0.3000000E+03  0.7818608E-02  0.1093470E+00
          1   -1    0    0  502    0  0.00000000000E+00  0.00000000000E+00  0.15711266220E+03  0.15711266220E+03  0.00000000000E+00 0.  1.
         13   -1    0    0    0    0 -0.00000000000E+00 -0.00000000000E+00 -0.10000000000E+04  0.10000000000E+04  0.00000000000E+00 0.  1.
    9000005    2    1    2  501    0 -0.39385222433E+02  0.12483258628E+03 -0.65529893365E+03  0.92836874487E+03  0.64445128882E+03 0.  0.
         13    1    3    3    0    0 -0.15077833531E+03 -0.11204462363E+03 -0.63906701165E+03  0.66610415812E+03  0.00000000000E+00 0.  1.
          3    1    3    3  501    0  0.11139311287E+03  0.23687720991E+03 -0.16231922003E+02  0.26226458675E+03  0.00000000000E+00 0.  1.
         21    1    1    2  502  501  0.39385222433E+02 -0.12483258628E+03 -0.18758840415E+03  0.22874391733E+03  0.00000000000E+00 0.  1.
<mgrwt>
<rscale>  1 0.30000000E+03</rscale>
<asrwt>0</asrwt>
<pdfrwt beam="1">  1        1 0.57131998E+00 0.30000000E+03</pdfrwt>
<pdfrwt beam="2">0</pdfrwt>
<totfact> 0.77286138E-02</totfact>
</mgrwt>
</event>
<event>
 6    1  0.5260809E-006  0.3000000E+03  0.7818608E-02  0.1093470E+00
          1   -1    0    0  502    0  0.00000000000E+00  0.00000000000E+00  0.14601913510E+03  0.14601913510E+03  0.00000000000E+00 0.  1.
         13   -1    0    0    0    0 -0.00000000000E+00 -0.00000000000E+00 -0.10000000000E+04  0.10000000000E+04  0.00000000000E+00 0.  1.
    9000005    2    1    2  501    0 -0.25822052253E+02 -0.45400562265E+02 -0.87371709288E+03  0.10901844852E+04  0.64991742852E+03 0.  0.
         13    1    3    3    0    0  0.88129696844E+02 -0.13602473119E+03  0.38362813844E+02  0.16655712668E+03  0.00000000000E+00 0.  1.
          3    1    3    3  501    0 -0.11395174910E+03  0.90624168927E+02 -0.91207990673E+03  0.92362735850E+03  0.00000000000E+00 0.  1.
         21    1    1    2  502  501  0.25822052253E+02  0.45400562265E+02  0.19736227984E+02  0.55834649919E+02  0.00000000000E+00 0.  1.
<mgrwt>
<rscale>  1 0.30000000E+03</rscale>
<asrwt>0</asrwt>
<pdfrwt beam="1">  1        1 0.53097979E+00 0.30000000E+03</pdfrwt>
<pdfrwt beam="2">0</pdfrwt>
<totfact> 0.13421564E-01</totfact>
</mgrwt>
</event>
<event>
 6    1  0.5260809E-006  0.3000000E+03  0.7818608E-02  0.1093470E+00
          1   -1    0    0  502    0  0.00000000000E+00  0.00000000000E+00  0.16461305577E+03  0.16461305577E+03  0.00000000000E+00 0.  1.
         13   -1    0    0    0    0 -0.00000000000E+00 -0.00000000000E+00 -0.10000000000E+04  0.10000000000E+04  0.00000000000E+00 0.  1.
    9000005    2    1    2  501    0  0.25339111589E+02 -0.10929273033E+03 -0.83190925195E+03  0.10523674954E+04  0.63467895065E+03 0.  0.
         13    1    3    3    0    0 -0.26916326441E+01  0.25262644299E+03 -0.50135177285E+03  0.56140980105E+03  0.00000000000E+00 0.  1.
          1    1    3    3  501    0  0.28030744233E+02 -0.36191917332E+03 -0.33055747910E+03  0.49095769434E+03  0.00000000000E+00 0.  1.
         21    1    1    2  502  501 -0.25339111589E+02  0.10929273033E+03 -0.34776922805E+01  0.11224556037E+03  0.00000000000E+00 0.  1.
<mgrwt>
<rscale>  1 0.30000000E+03</rscale>
<asrwt>0</asrwt>
<pdfrwt beam="1">  1        1 0.59859419E+00 0.30000000E+03</pdfrwt>
<pdfrwt beam="2">0</pdfrwt>
<totfact> 0.59427713E-02</totfact>
</mgrwt>
</event>
<event>
 6    1  0.5260809E-006  0.3000000E+03  0.7818608E-02  0.1093470E+00
          1   -1    0    0  502    0  0.00000000000E+00  0.00000000000E+00  0.12045213356E+03  0.12045213356E+03  0.00000000000E+00 0.  1.
         13   -1    0    0    0    0 -0.00000000000E+00 -0.00000000000E+00 -0.10000000000E+04  0.10000000000E+04  0.00000000000E+00 0.  1.
    9000005    2    1    2  501    0  0.30392689148E+01  0.13367064933E+02 -0.89000271767E+03  0.11032120786E+04  0.65175466040E+03 0.  0.
         13    1    3    3    0    0 -0.45162399765E+02  0.66149702645E+02 -0.98281009128E+03  0.98606850728E+03  0.00000000000E+00 0.  1.
          3    1    3    3  501    0  0.48201668680E+02 -0.52782637712E+02  0.92807373614E+02  0.11714357133E+03  0.00000000000E+00 0.  1.
         21    1    1    2  502  501 -0.30392689148E+01 -0.13367064933E+02  0.10454851225E+02  0.17240054948E+02  0.00000000000E+00 0. -1.
<mgrwt>
<rscale>  1 0.30000000E+03</rscale>
<asrwt>0</asrwt>
<pdfrwt beam="1">  1        1 0.43800868E+00 0.30000000E+03</pdfrwt>
<pdfrwt beam="2">0</pdfrwt>
<totfact> 0.61753137E-01</totfact>
</mgrwt>
</event>
<event>
 6    1  0.5260809E-006  0.3000000E+03  0.7818608E-02  0.1093470E+00
          1   -1    0    0  502    0  0.00000000000E+00  0.00000000000E+00  0.11114139495E+03  0.11114139495E+03  0.00000000000E+00 0.  1.
         13   -1    0    0    0    0 -0.00000000000E+00 -0.00000000000E+00 -0.10000000000E+04  0.10000000000E+04  0.00000000000E+00 0.  1.
    9000005    2    1    2  501    0 -0.12998903620E+02  0.74187131762E+00 -0.90313890524E+03  0.10918165705E+04  0.61337918083E+03 0.  0.
         13    1    3    3    0    0  0.11537883234E+03  0.18015251751E+03 -0.83343816334E+03  0.86045707425E+03  0.00000000000E+00 0.  1.
          1    1    3    3  501    0 -0.12837773596E+03 -0.17941064620E+03 -0.69700741905E+02  0.23135949620E+03  0.00000000000E+00 0.  1.
         21    1    1    2  502  501  0.12998903620E+02 -0.74187131762E+00  0.14280300196E+02  0.19324824502E+02  0.00000000000E+00 0.  1.
<mgrwt>
<rscale>  1 0.30000000E+03</rscale>
<asrwt>0</asrwt>
<pdfrwt beam="1">  1        1 0.40415138E+00 0.30000000E+03</pdfrwt>
<pdfrwt beam="2">0</pdfrwt>
<totfact> 0.99690069E-01</totfact>
</mgrwt>
</event>
<event>
 6    1  0.5260809E-006  0.3000000E+03  0.7818608E-02  0.1093470E+00
          1   -1    0    0  502    0  0.00000000000E+00  0.00000000000E+00  0.11972317156E+03  0.11972317156E+03  0.00000000000E+00 0.  1.
         13   -1    0    0    0    0 -0.00000000000E+00 -0.00000000000E+00 -0.10000000000E+04  0.10000000000E+04  0.00000000000E+00 0.  1.
    9000005    2    1    2  501    0  0.98926200360E+01  0.34965028814E+01 -0.89056471789E+03  0.11050286102E+04  0.65411973155E+03 0.  0.
         13    1    3    3    0    0  0.15465138504E+03 -0.96390436215E+02 -0.91001351828E+03  0.92808015308E+03  0.00000000000E+00 0.  1.
          1    1    3    3  501    0 -0.14475876500E+03  0.99886939096E+02  0.19448800394E+02  0.17694845714E+03  0.00000000000E+00 0.  1.
         21    1    1    2  502  501 -0.98926200360E+01 -0.34965028814E+01  0.10287889450E+02  0.14694561338E+02  0.00000000000E+00 0. -1.
<mgrwt>
<rscale>  1 0.30000000E+03</rscale>
<asrwt>0</asrwt>
<pdfrwt beam="1">  1        1 0.43535791E+00 0.30000000E+03</pdfrwt>
<pdfrwt beam="2">0</pdfrwt>
<totfact> 0.64225907E-01</totfact>
</mgrwt>
</event>
<event>
 6    1  0.5260809E-006  0.3000000E+03  0.7818608E-02  0.1093470E+00
          1   -1    0    0  502    0  0.00000000000E+00  0.00000000000E+00  0.13393806377E+03  0.13393806377E+03  0.00000000000E+00 0.  1.
         13   -1    0    0    0    0 -0.00000000000E+00 -0.00000000000E+00 -0.10000000000E+04  0.10000000000E+04  0.00000000000E+00 0.  1.
    9000005    2    1    2  501    0  0.84536542797E+01 -0.78543969754E+01 -0.88771584539E+03  0.11094014054E+04  0.66528106865E+03 0.  0.
         13    1    3    3    0    0 -0.17587051097E+03 -0.20654607326E+03 -0.12258746147E+03  0.29769011189E+03  0.00000000000E+00 0.  1.
          3    1    3    3  501    0  0.18432416525E+03  0.19869167629E+03 -0.76512838392E+03  0.81171129350E+03  0.00000000000E+00 0.  1.
         21    1    1    2  502  501 -0.84536542797E+01  0.78543969754E+01  0.21653909159E+02  0.24536658379E+02  0.00000000000E+00 0.  1.
<mgrwt>
<rscale>  1 0.30000000E+03</rscale>
<asrwt>0</asrwt>
<pdfrwt beam="1">  1        1 0.48704853E+00 0.30000000E+03</pdfrwt>
<pdfrwt beam="2">0</pdfrwt>
<totfact> 0.28405880E-01</totfact>
</mgrwt>
</event>
<event>
 6    1  0.5260809E-006  0.3000000E+03  0.7818608E-02  0.1093470E+00
          1   -1    0    0  502    0  0.00000000000E+00  0.00000000000E+00  0.11739068836E+03  0.11739068836E+03  0.00000000000E+00 0.  1.
         13   -1    0    0    0    0 -0.00000000000E+00 -0.00000000000E+00 -0.10000000000E+04  0.10000000000E+04  0.00000000000E+00 0.  1.
    9000005    2    1    2  501    0 -0.16785797735E+02 -0.16139549799E+01 -0.88343038771E+03  0.11005075008E+04  0.65603593006E+03 0.  0.
         13    1    3    3    0    0  0.20166072753E+03 -0.20568727281E+03 -0.18915035184E+03  0.34460435114E+03  0.00000000000E+00 0.  1.
          1    1    3    3  501    0 -0.21844652526E+03  0.20407331783E+03 -0.69428003587E+03  0.75590314965E+03  0.00000000000E+00 0.  1.
         21    1    1    2  502  501  0.16785797735E+02  0.16139549799E+01  0.82107606310E+00  0.16883187560E+02  0.00000000000E+00 0.  1.
<mgrwt>
<rscale>  1 0.30000000E+03</rscale>
<asrwt>0</asrwt>
<pdfrwt beam="1">  1        1 0.42687613E+00 0.30000000E+03</pdfrwt>
<pdfrwt beam="2">0</pdfrwt>
<totfact> 0.72681587E-01</totfact>
</mgrwt>
</event>
<event>
 6    1  0.5260809E-006  0.3000000E+03  0.7818608E-02  0.1093470E+00
          1   -1    0    0  502    0  0.00000000000E+00  0.00000000000E+00  0.11875591359E+03  0.11875591359E+03  0.00000000000E+00 0.  1.
         13   -1    0    0    0    0 -0.00000000000E+00 -0.00000000000E+00 -0.10000000000E+04  0.10000000000E+04  0.00000000000E+00 0.  1.
    9000005    2    1    2  501    0 -0.64449085642E+01  0.15402704275E+02 -0.88451574286E+03  0.11017416877E+04  0.65664896785E+03 0.  0.
         13    1    3    3    0    0 -0.35601257573E+02 -0.10678966311E+03  0.74205253210E+02  0.13482544749E+03  0.00000000000E+00 0.  1.
          3    1    3    3  501    0  0.29156349009E+02  0.12219236738E+03 -0.95872099607E+03  0.96691624024E+03  0.00000000000E+00 0.  1.
         21    1    1    2  502  501  0.64449085642E+01 -0.15402704275E+02  0.32716564513E+01  0.17014225851E+02  0.00000000000E+00 0. -1.
<mgrwt>
<rscale>  1 0.30000000E+03</rscale>
<asrwt>0</asrwt>
<pdfrwt beam="1">  1        1 0.43184060E+00 0.30000000E+03</pdfrwt>
<pdfrwt beam="2">0</pdfrwt>
<totfact> 0.67627717E-01</totfact>
</mgrwt>
</event>
<event>
 6    1  0.5260809E-006  0.3000000E+03  0.7818608E-02  0.1093470E+00
          1   -1    0    0  502    0  0.00000000000E+00  0.00000000000E+00  0.13366882515E+03  0.13366882515E+03  0.00000000000E+00 0.  1.
         13   -1    0    0    0    0 -0.00000000000E+00 -0.00000000000E+00 -0.10000000000E+04  0.10000000000E+04  0.00000000000E+00 0.  1.
    9000005    2    1    2  501    0 -0.92113658450E+00 -0.16331095166E+02 -0.89042623078E+03  0.11045462414E+04  0.65337276792E+03 0.  0.
         13    1    3    3    0    0 -0.30589056155E+03 -0.28330011080E+02 -0.25356834325E+03  0.39833218533E+03  0.00000000000E+00 0.  1.
          3    1    3    3  501    0  0.30496942496E+03  0.11998915913E+02 -0.63685788753E+03  0.70621405611E+03  0.00000000000E+00 0.  1.
         21    1    1    2  502  501  0.92113658450E+00  0.16331095166E+02  0.24095055927E+02  0.29122583712E+02  0.00000000000E+00 0.  1.
<mgrwt>
<rscale>  1 0.30000000E+03</rscale>
<asrwt>0</asrwt>
<pdfrwt beam="1">  1        1 0.48606948E+00 0.30000000E+03</pdfrwt>
<pdfrwt beam="2">0</pdfrwt>
<totfact> 0.28874773E-01</totfact>
</mgrwt>
</event>
<event>
 6    1  0.5260809E-006  0.3000000E+03  0.7818608E-02  0.1093470E+00
          1   -1    0    0  502    0  0.00000000000E+00  0.00000000000E+00  0.12526896108E+03  0.12526896108E+03  0.00000000000E+00 0.  1.
         13   -1    0    0    0    0 -0.00000000000E+00 -0.00000000000E+00 -0.10000000000E+04  0.10000000000E+04  0.00000000000E+00 0.  1.
    9000005    2    1    2  501    0 -0.19286049202E+02 -0.12078195706E+02 -0.88667930742E+03  0.10995669062E+04  0.64986871942E+03 0.  0.
         13    1    3    3    0    0  0.30470761242E+03  0.58401299395E+02 -0.51725060171E+03  0.60316301761E+03  0.00000000000E+00 0.  1.
          3    1    3    3  501    0 -0.32399366162E+03 -0.70479495100E+02 -0.36942870570E+03  0.49640388858E+03  0.00000000000E+00 0.  1.
         21    1    1    2  502  501  0.19286049202E+02  0.12078195706E+02  0.11948268497E+02  0.25702054887E+02  0.00000000000E+00 0.  1.
<mgrwt>
<rscale>  1 0.30000000E+03</rscale>
<asrwt>0</asrwt>
<pdfrwt beam="1">  1        1 0.45552446E+00 0.30000000E+03</pdfrwt>
<pdfrwt beam="2">0</pdfrwt>
<totfact> 0.47239429E-01</totfact>
</mgrwt>
</event>
<event>
 6    1  0.5260809E-006  0.3000000E+03  0.7818608E-02  0.1093470E+00
          1   -1    0    0  502    0  0.00000000000E+00  0.00000000000E+00  0.93058625883E+02  0.93058625883E+02  0.00000000000E+00 0.  1.
         13   -1    0    0    0    0 -0.00000000000E+00 -0.00000000000E+00 -0.10000000000E+04  0.10000000000E+04  0.00000000000E+00 0.  1.
    9000005    2    1    2  501    0 -0.37725075313E+02 -0.34898534021E+01 -0.80501335298E+03  0.98431727277E+03  0.56515363806E+03 0.  0.
         13    1    3    3    0    0 -0.22911524304E+03  0.18688756337E+03 -0.44688928867E+03  0.53584586615E+03  0.00000000000E+00 0.  1.
          3    1    3    3  501    0  0.19139016773E+03 -0.19037741677E+03 -0.35812406431E+03  0.44847140662E+03  0.00000000000E+00 0.  1.
         21    1    1    2  502  501  0.37725075313E+02  0.34898534021E+01 -0.10192802114E+03  0.10874135311E+03  0.00000000000E+00 0. -1.
<mgrwt>
<rscale>  1 0.30000000E+03</rscale>
<asrwt>0</asrwt>
<pdfrwt beam="1">  1        1 0.33839572E+00 0.30000000E+03</pdfrwt>
<pdfrwt beam="2">0</pdfrwt>
<totfact> 0.22561149E+00</totfact>
</mgrwt>
</event>
<event>
 6    1  0.5260809E-006  0.3000000E+03  0.7818608E-02  0.1093470E+00
          1   -1    0    0  502    0  0.00000000000E+00  0.00000000000E+00  0.11369644268E+03  0.11369644268E+03  0.00000000000E+00 0.  1.
         13   -1    0    0    0    0 -0.00000000000E+00 -0.00000000000E+00 -0.10000000000E+04  0.10000000000E+04  0.00000000000E+00 0.  1.
    9000005    2    1    2  501    0  0.82987131364E+01 -0.16955591609E+02 -0.87728921898E+03  0.10927770970E+04  0.65128261863E+03 0.  0.
         13    1    3    3    0    0  0.38304990322E+02 -0.30777602121E+03 -0.65760569276E+03  0.72707537344E+03  0.00000000000E+00 0.  1.
          3    1    3    3  501    0 -0.30006277185E+02  0.29082042960E+03 -0.21968352622E+03  0.36570172359E+03  0.00000000000E+00 0.  1.
         21    1    1    2  502  501 -0.82987131364E+01  0.16955591609E+02 -0.90143383452E+01  0.20919345648E+02  0.00000000000E+00 0.  1.
<mgrwt>
<rscale>  1 0.30000000E+03</rscale>
<asrwt>0</asrwt>
<pdfrwt beam="1">  1        1 0.41344248E+00 0.30000000E+03</pdfrwt>
<pdfrwt beam="2">0</pdfrwt>
<totfact> 0.87891515E-01</totfact>
</mgrwt>
</event>
<event>
 6    1  0.5260809E-006  0.3000000E+03  0.7818608E-02  0.1093470E+00
          1   -1    0    0  502    0  0.00000000000E+00  0.00000000000E+00  0.10668160347E+03  0.10668160347E+03  0.00000000000E+00 0.  1.
         13   -1    0    0    0    0 -0.00000000000E+00 -0.00000000000E+00 -0.10000000000E+04  0.10000000000E+04  0.00000000000E+00 0.  1.
    9000005    2    1    2  501    0  0.16157632987E+01  0.24553591924E+02 -0.85877391234E+03  0.10642692119E+04  0.62814873510E+03 0.  0.
         13    1    3    3    0    0 -0.15472266696E+03 -0.23853394387E+03 -0.59819881604E+03  0.66232874735E+03  0.00000000000E+00 0.  1.
          3    1    3    3  501    0  0.15633843026E+03  0.26308753579E+03 -0.26057509629E+03  0.40194046459E+03  0.00000000000E+00 0.  1.
         21    1    1    2  502  501 -0.16157632987E+01 -0.24553591924E+02 -0.34544484193E+02  0.42412391533E+02  0.00000000000E+00 0.  1.
<mgrwt>
<rscale>  1 0.30000000E+03</rscale>
<asrwt>0</asrwt>
<pdfrwt beam="1">  1        1 0.38793392E+00 0.30000000E+03</pdfrwt>
<pdfrwt beam="2">0</pdfrwt>
<totfact> 0.12314837E+00</totfact>
</mgrwt>
</event>
<event>
 6    1  0.5260809E-006  0.3000000E+03  0.7818608E-02  0.1093470E+00
          1   -1    0    0  502    0  0.00000000000E+00  0.00000000000E+00  0.12295272332E+03  0.12295272332E+03  0.00000000000E+00 0.  1.
         13   -1    0    0    0    0 -0.00000000000E+00 -0.00000000000E+00 -0.10000000000E+04  0.10000000000E+04  0.00000000000E+00 0.  1.
    9000005    2    1    2  501    0 -0.95108741733E+00 -0.25870253487E+02 -0.88402729382E+03  0.10961405018E+04  0.64757205693E+03 0.  0.
         13    1    3    3    0    0 -0.30627865720E+03 -0.10167346042E+02 -0.62238092863E+03  0.69373482766E+03  0.00000000000E+00 0.  1.
          3    1    3    3  501    0  0.30532756979E+03 -0.15702907445E+02 -0.26164636519E+03  0.40240567415E+03  0.00000000000E+00 0.  1.
         21    1    1    2  502  501  0.95108741733E+00  0.25870253487E+02  0.69800171432E+01  0.26812221505E+02  0.00000000000E+00 0.  1.
<mgrwt>
<rscale>  1 0.30000000E+03</rscale>
<asrwt>0</asrwt>
<pdfrwt beam="1">  1        1 0.44710175E+00 0.30000000E+03</pdfrwt>
<pdfrwt beam="2">0</pdfrwt>
<totfact> 0.53808663E-01</totfact>
</mgrwt>
</event>
<event>
 6    1  0.5260809E-006  0.3000000E+03  0.7818608E-02  0.1093470E+00
          1   -1    0    0  502    0  0.00000000000E+00  0.00000000000E+00  0.11244850999E+03  0.11244850999E+03  0.00000000000E+00 0.  1.
         13   -1    0    0    0    0 -0.00000000000E+00 -0.00000000000E+00 -0.10000000000E+04  0.10000000000E+04  0.00000000000E+00 0.  1.
    9000005    2    1    2  501    0 -0.13080085870E+02  0.30688751071E+00 -0.89602967369E+03  0.10968580506E+04  0.63250077009E+03 0.  0.
         13    1    3    3    0    0 -0.13457652284E+03  0.28809191411E+03 -0.49848999735E+03  0.59126987825E+03  0.00000000000E+00 0.  1.
          1    1    3    3  501    0  0.12149643697E+03 -0.28778502660E+03 -0.39753967634E+03  0.50558817232E+03  0.00000000000E+00 0.  1.
         21    1    1    2  502  501  0.13080085870E+02 -0.30688751071E+00  0.84781836771E+01  0.15590459415E+02  0.00000000000E+00 0.  1.
<mgrwt>
<rscale>  1 0.30000000E+03</rscale>
<asrwt>0</asrwt>
<pdfrwt beam="1">  1        1 0.40890453E+00 0.30000000E+03</pdfrwt>
<pdfrwt beam="2">0</pdfrwt>
<totfact> 0.93516774E-01</totfact>
</mgrwt>
</event>
<event>
 6    1  0.5260809E-006  0.3000000E+03  0.7818608E-02  0.1093470E+00
          1   -1    0    0  502    0  0.00000000000E+00  0.00000000000E+00  0.13871817735E+03  0.13871817735E+03  0.00000000000E+00 0.  1.
         13   -1    0    0    0    0 -0.00000000000E+00 -0.00000000000E+00 -0.10000000000E+04  0.10000000000E+04  0.00000000000E+00 0.  1.
    9000005    2    1    2  501    0 -0.26089428149E+02 -0.53263808508E+02 -0.85167244709E+03  0.10786346384E+04  0.65923367208E+03 0.  0.
         13    1    3    3    0    0  0.74139401871E+02  0.76682655105E+02  0.79551136113E+02  0.13306112791E+03  0.00000000000E+00 0.  1.
          3    1    3    3  501    0 -0.10022883002E+03 -0.12994646361E+03 -0.93122358321E+03  0.94557351047E+03  0.00000000000E+00 0.  1.
         21    1    1    2  502  501  0.26089428149E+02  0.53263808508E+02 -0.96093755511E+01  0.60083538980E+02  0.00000000000E+00 0. -1.
<mgrwt>
<rscale>  1 0.30000000E+03</rscale>
<asrwt>0</asrwt>
<pdfrwt beam="1">  1        1 0.50443080E+00 0.30000000E+03</pdfrwt>
<pdfrwt beam="2">0</pdfrwt>
<totfact> 0.21190251E-01</totfact>
</mgrwt>
</event>
<event>
 6    1  0.5260809E-006  0.3000000E+03  0.7818608E-02  0.1093470E+00
          1   -1    0    0  502    0  0.00000000000E+00  0.00000000000E+00  0.12585460894E+03  0.12585460894E+03  0.00000000000E+00 0.  1.
         13   -1    0    0    0    0 -0.00000000000E+00 -0.00000000000E+00 -0.10000000000E+04  0.10000000000E+04  0.00000000000E+00 0.  1.
    9000005    2    1    2  501    0 -0.10816472348E+01  0.21499263266E+02 -0.88793819502E+03  0.11002884258E+04  0.64941280661E+03 0.  0.
         13    1    3    3    0    0  0.32204042007E+03  0.39323718075E+00 -0.50309190762E+03  0.59733713622E+03  0.00000000000E+00 0.  1.
          3    1    3    3  501    0 -0.32312206731E+03  0.21106026086E+02 -0.38484628740E+03  0.50295128953E+03  0.00000000000E+00 0.  1.
         21    1    1    2  502  501  0.10816472348E+01 -0.21499263266E+02  0.13792803966E+02  0.25566183191E+02  0.00000000000E+00 0.  1.
<mgrwt>
<rscale>  1 0.30000000E+03</rscale>
<asrwt>0</asrwt>
<pdfrwt beam="1">  1        1 0.45765409E+00 0.30000000E+03</pdfrwt>
<pdfrwt beam="2">0</pdfrwt>
<totfact> 0.45706145E-01</totfact>
</mgrwt>
</event>
<event>
 6    1  0.5260809E-006  0.3000000E+03  0.7818608E-02  0.1093470E+00
          1   -1    0    0  502    0  0.00000000000E+00  0.00000000000E+00  0.12797301660E+03  0.12797301660E+03  0.00000000000E+00 0.  1.
         13   -1    0    0    0    0 -0.00000000000E+00 -0.00000000000E+00 -0.10000000000E+04  0.10000000000E+04  0.00000000000E+00 0.  1.
    9000005    2    1    2  501    0  0.38472134401E+02  0.20615811592E+02 -0.85234211534E+03  0.10800918006E+04  0.66197137354E+03 0.  0.
         13    1    3    3    0    0 -0.24254721926E+03 -0.19319101386E+03 -0.38475608225E+03  0.49415500021E+03  0.00000000000E+00 0.  1.
          1    1    3    3  501    0  0.28101935366E+03  0.21380682545E+03 -0.46758603309E+03  0.58593680042E+03  0.00000000000E+00 0.  1.
         21    1    1    2  502  501 -0.38472134401E+02 -0.20615811592E+02 -0.19684868061E+02  0.47881215978E+02  0.00000000000E+00 0. -1.
<mgrwt>
<rscale>  1 0.30000000E+03</rscale>
<asrwt>0</asrwt>
<pdfrwt beam="1">  1        1 0.46535741E+00 0.30000000E+03</pdfrwt>
<pdfrwt beam="2">0</pdfrwt>
<totfact> 0.40507656E-01</totfact>
</mgrwt>
</event>
<event>
 6    1  0.5260809E-006  0.3000000E+03  0.7818608E-02  0.1093470E+00
          1   -1    0    0  502    0  0.00000000000E+00  0.00000000000E+00  0.10922872280E+03  0.10922872280E+03  0.00000000000E+00 0.  1.
         13   -1    0    0    0    0 -0.00000000000E+00 -0.00000000000E+00 -0.10000000000E+04  0.10000000000E+04  0.00000000000E+00 0.  1.
    9000005    2    1    2  501    0 -0.13608005570E+02 -0.51582258578E+00 -0.85914014337E+03  0.10747907711E+04  0.64565313586E+03 0.  0.
         13    1    3    3    0    0  0.29381574747E+03 -0.11736254813E+03 -0.39955405270E+03  0.50965194221E+03  0.00000000000E+00 0.  1.
          3    1    3    3  501    0 -0.30742375304E+03  0.11684672554E+03 -0.45958609067E+03  0.56513882891E+03  0.00000000000E+00 0.  1.
         21    1    1    2  502  501  0.13608005570E+02  0.51582258578E+00 -0.31631133832E+02  0.34437951682E+02  0.00000000000E+00 0. -1.
<mgrwt>
<rscale>  1 0.30000000E+03</rscale>
<asrwt>0</asrwt>
<pdfrwt beam="1">  1        1 0.39719619E+00 0.30000000E+03</pdfrwt>
<pdfrwt beam="2">0</pdfrwt>
<totfact> 0.10924981E+00</totfact>
</mgrwt>
</event>
<event>
 6    1  0.5260809E-006  0.3000000E+03  0.7818608E-02  0.1093470E+00
          1   -1    0    0  502    0  0.00000000000E+00  0.00000000000E+00  0.13639920678E+03  0.13639920678E+03  0.00000000000E+00 0.  1.
         13   -1    0    0    0    0 -0.00000000000E+00 -0.00000000000E+00 -0.10000000000E+04  0.10000000000E+04  0.00000000000E+00 0.  1.
    9000005    2    1    2  501    0 -0.24975860301E+02 -0.37678550166E+02 -0.87525220552E+03  0.10897170673E+04  0.64759045445E+03 0.  0.
         13    1    3    3    0    0 -0.11627115329E+03 -0.23280320740E+03 -0.89838164068E+02  0.27529476963E+03  0.00000000000E+00 0.  1.
          3    1    3    3  501    0  0.91295292984E+02  0.19512465724E+03 -0.78541404145E+03  0.81442229764E+03  0.00000000000E+00 0.  1.
         21    1    1    2  502  501  0.24975860301E+02  0.37678550166E+02  0.11651412304E+02  0.46682139508E+02  0.00000000000E+00 0.  1.
<mgrwt>
<rscale>  1 0.30000000E+03</rscale>
<asrwt>0</asrwt>
<pdfrwt beam="1">  1        1 0.49599816E+00 0.30000000E+03</pdfrwt>
<pdfrwt beam="2">0</pdfrwt>
<totfact> 0.24437285E-01</totfact>
</mgrwt>
</event>
<event>
 6    1  0.5260809E-006  0.3000000E+03  0.7818608E-02  0.1093470E+00
          1   -1    0    0  502    0  0.00000000000E+00  0.00000000000E+00  0.10878094698E+03  0.10878094698E+03  0.00000000000E+00 0.  1.
         13   -1    0    0    0    0 -0.00000000000E+00 -0.00000000000E+00 -0.10000000000E+04  0.10000000000E+04  0.00000000000E+00 0.  1.
    9000005    2    1    2  501    0 -0.69914827254E+01  0.90260416275E+01 -0.89796312626E+03  0.10955207516E+04  0.62745325783E+03 0.  0.
         13    1    3    3    0    0 -0.24363146177E+03  0.12846373596E+03 -0.17705926467E+03  0.32742816591E+03  0.00000000000E+00 0.  1.
          1    1    3    3  501    0  0.23663997905E+03 -0.11943769434E+03 -0.72090386159E+03  0.76809258567E+03  0.00000000000E+00 0.  1.
         21    1    1    2  502  501  0.69914827254E+01 -0.90260416275E+01  0.67440732349E+01  0.13260195397E+02  0.00000000000E+00 0. -1.
<mgrwt>
<rscale>  1 0.30000000E+03</rscale>
<asrwt>0</asrwt>
<pdfrwt beam="1">  1        1 0.39556791E+00 0.30000000E+03</pdfrwt>
<pdfrwt beam="2">0</pdfrwt>
<totfact> 0.11158799E+00</totfact>
</mgrwt>
</event>
<event>
 6    1  0.5260809E-006  0.3000000E+03  0.7818608E-02  0.1093470E+00
          1   -1    0    0  502    0  0.00000000000E+00  0.00000000000E+00  0.10853892388E+03  0.10853892388E+03  0.00000000000E+00 0.  1.
         13   -1    0    0    0    0 -0.00000000000E+00 -0.00000000000E+00 -0.10000000000E+04  0.10000000000E+04  0.00000000000E+00 0.  1.
    9000005    2    1    2  501    0 -0.71508763762E+01 -0.59451943260E+01 -0.88696231640E+03  0.10982084250E+04  0.64751302195E+03 0.  0.
         13    1    3    3    0    0 -0.11059760895E+03  0.26154270939E+03 -0.18236864681E+03  0.33748295258E+03  0.00000000000E+00 0.  1.
          3    1    3    3  501    0  0.10344673258E+03 -0.26748790372E+03 -0.70459366960E+03  0.76072547240E+03  0.00000000000E+00 0.  1.
         21    1    1    2  502  501  0.71508763762E+01  0.59451943260E+01 -0.44987597177E+01  0.10330498900E+02  0.00000000000E+00 0.  1.
<mgrwt>
<rscale>  1 0.30000000E+03</rscale>
<asrwt>0</asrwt>
<pdfrwt beam="1">  1        1 0.39468783E+00 0.30000000E+03</pdfrwt>
<pdfrwt beam="2">0</pdfrwt>
<totfact> 0.11286946E+00</totfact>
</mgrwt>
</event>
<event>
 6    1  0.5260809E-006  0.3000000E+03  0.7818608E-02  0.1093470E+00
          1   -1    0    0  502    0  0.00000000000E+00  0.00000000000E+00  0.11218670284E+03  0.11218670284E+03  0.00000000000E+00 0.  1.
         13   -1    0    0    0    0 -0.00000000000E+00 -0.00000000000E+00 -0.10000000000E+04  0.10000000000E+04  0.00000000000E+00 0.  1.
    9000005    2    1    2  501    0  0.45222284492E+01  0.12624292517E+02 -0.88715441644E+03  0.10987607043E+04  0.64811442160E+03 0.  0.
         13    1    3    3    0    0 -0.42159484905E+02  0.31464648451E+03 -0.60299344618E+03  0.68145500844E+03  0.00000000000E+00 0.  1.
          1    1    3    3  501    0  0.46681713354E+02 -0.30202219200E+03 -0.28416097026E+03  0.41730569591E+03  0.00000000000E+00 0.  1.
         21    1    1    2  502  501 -0.45222284492E+01 -0.12624292517E+02 -0.65888071886E+00  0.13425998492E+02  0.00000000000E+00 0. -1.
<mgrwt>
<rscale>  1 0.30000000E+03</rscale>
<asrwt>0</asrwt>
<pdfrwt beam="1">  1        1 0.40795251E+00 0.30000000E+03</pdfrwt>
<pdfrwt beam="2">0</pdfrwt>
<totfact> 0.94729953E-01</totfact>
</mgrwt>
</event>
<event>
 6    1  0.5260809E-006  0.3000000E+03  0.7818608E-02  0.1093470E+00
          1   -1    0    0  502    0  0.00000000000E+00  0.00000000000E+00  0.10925386534E+03  0.10925386534E+03  0.00000000000E+00 0.  1.
         13   -1    0    0    0    0 -0.00000000000E+00 -0.00000000000E+00 -0.10000000000E+04  0.10000000000E+04  0.00000000000E+00 0.  1.
    9000005    2    1    2  501    0 -0.46688565903E+01 -0.68295696961E+01 -0.88292773207E+03  0.10978710422E+04  0.65245000110E+03 0.  0.
         13    1    3    3    0    0 -0.36439576809E+01 -0.26759145037E+03 -0.12315309505E+03  0.29459318994E+03  0.00000000000E+00 0.  1.
          3    1    3    3  501    0 -0.10248989094E+01  0.26076188067E+03 -0.75977463702E+03  0.80327785223E+03  0.00000000000E+00 0.  1.
         21    1    1    2  502  501  0.46688565903E+01  0.68295696961E+01 -0.78184025931E+01  0.11382823165E+02  0.00000000000E+00 0.  1.
<mgrwt>
<rscale>  1 0.30000000E+03</rscale>
<asrwt>0</asrwt>
<pdfrwt beam="1">  1        1 0.39728762E+00 0.30000000E+03</pdfrwt>
<pdfrwt beam="2">0</pdfrwt>
<totfact> 0.10911975E+00</totfact>
</mgrwt>
</event>
<event>
 6    1  0.5260809E-006  0.3000000E+03  0.7818608E-02  0.1093470E+00
          1   -1    0    0  502    0  0.00000000000E+00  0.00000000000E+00  0.11783691262E+03  0.11783691262E+03  0.00000000000E+00 0.  1.
         13   -1    0    0    0    0 -0.00000000000E+00 -0.00000000000E+00 -0.10000000000E+04  0.10000000000E+04  0.00000000000E+00 0.  1.
    9000005    2    1    2  501    0 -0.88453119482E+01 -0.47347211322E+01 -0.89596621059E+03  0.11007728176E+04  0.63940964052E+03 0.  0.
         13    1    3    3    0    0 -0.31592949418E+03  0.65406076378E+02 -0.41129672751E+03  0.52273740843E+03  0.00000000000E+00 0.  1.
          1    1    3    3  501    0  0.30708418223E+03 -0.70140797510E+02 -0.48466948308E+03  0.57803540919E+03  0.00000000000E+00 0.  1.
         21    1    1    2  502  501  0.88453119482E+01  0.47347211322E+01  0.13803123205E+02  0.17064094992E+02  0.00000000000E+00 0.  1.
<mgrwt>
<rscale>  1 0.30000000E+03</rscale>
<asrwt>0</asrwt>
<pdfrwt beam="1">  1        1 0.42849877E+00 0.30000000E+03</pdfrwt>
<pdfrwt beam="2">0</pdfrwt>
<totfact> 0.70995341E-01</totfact>
</mgrwt>
</event>
<event>
 6    1  0.5260809E-006  0.3000000E+03  0.7818608E-02  0.1093470E+00
          1   -1    0    0  502    0  0.00000000000E+00  0.00000000000E+00  0.10814804104E+03  0.10814804104E+03  0.00000000000E+00 0.  1.
         13   -1    0    0    0    0 -0.00000000000E+00 -0.00000000000E+00 -0.10000000000E+04  0.10000000000E+04  0.00000000000E+00 0.  1.
    9000005    2    1    2  501    0  0.76449995434E+00 -0.87124393835E+01 -0.88537243673E+03  0.10972634065E+04  0.64809423736E+03 0.  0.
         13    1    3    3    0    0 -0.23219579120E+03 -0.20641503224E+03 -0.27595233438E+03  0.41553789458E+03  0.00000000000E+00 0.  1.
          1    1    3    3  501    0  0.23296029115E+03  0.19770259286E+03 -0.60942010235E+03  0.68172551194E+03  0.00000000000E+00 0.  1.
         21    1    1    2  502  501 -0.76449995434E+00  0.87124393835E+01 -0.64795222378E+01  0.10884634519E+02  0.00000000000E+00 0. -1.
<mgrwt>
<rscale>  1 0.30000000E+03</rscale>
<asrwt>0</asrwt>
<pdfrwt beam="1">  1        1 0.39326643E+00 0.30000000E+03</pdfrwt>
<pdfrwt beam="2">0</pdfrwt>
<totfact> 0.11496656E+00</totfact>
</mgrwt>
</event>
<event>
 6    1  0.5260809E-006  0.3000000E+03  0.7818608E-02  0.1093470E+00
          1   -1    0    0  502    0  0.00000000000E+00  0.00000000000E+00  0.92657749948E+02  0.92657749948E+02  0.00000000000E+00 0.  1.
         13   -1    0    0    0    0 -0.00000000000E+00 -0.00000000000E+00 -0.10000000000E+04  0.10000000000E+04  0.00000000000E+00 0.  1.
    9000005    2    1    2  501    0 -0.23911855693E+00 -0.13735135230E+02 -0.90248512783E+03  0.10780871373E+04  0.58957930636E+03 0.  0.
         13    1    3    3    0    0 -0.25394789343E+03 -0.15399948403E+03 -0.40376324420E+03  0.50122862151E+03  0.00000000000E+00 0.  1.
          1    1    3    3  501    0  0.25370877487E+03  0.14026434880E+03 -0.49872188363E+03  0.57685851576E+03  0.00000000000E+00 0.  1.
         21    1    1    2  502  501  0.23911855693E+00  0.13735135230E+02 -0.48571222250E+01  0.14570612677E+02  0.00000000000E+00 0.  1.
<mgrwt>
<rscale>  1 0.30000000E+03</rscale>
<asrwt>0</asrwt>
<pdfrwt beam="1">  1        1 0.33693798E+00 0.30000000E+03</pdfrwt>
<pdfrwt beam="2">0</pdfrwt>
<totfact> 0.22948062E+00</totfact>
</mgrwt>
</event>
<event>
 6    1  0.5260809E-006  0.3000000E+03  0.7818608E-02  0.1093470E+00
          1   -1    0    0  502    0  0.00000000000E+00  0.00000000000E+00  0.11383068988E+03  0.11383068988E+03  0.00000000000E+00 0.  1.
         13   -1    0    0    0    0 -0.00000000000E+00 -0.00000000000E+00 -0.10000000000E+04  0.10000000000E+04  0.00000000000E+00 0.  1.
    9000005    2    1    2  501    0 -0.39176315862E+01 -0.10101657958E+02 -0.88912904695E+03  0.11025989771E+04  0.65196368822E+03 0.  0.
         13    1    3    3    0    0 -0.39783652627E+02  0.30893565300E+03 -0.57211026884E+03  0.65140934628E+03  0.00000000000E+00 0.  1.
          3    1    3    3  501    0  0.35866021041E+02 -0.31903731096E+03 -0.31701877811E+03  0.45118963078E+03  0.00000000000E+00 0.  1.
         21    1    1    2  502  501  0.39176315862E+01  0.10101657958E+02  0.29597368322E+01  0.11231712820E+02  0.00000000000E+00 0.  1.
<mgrwt>
<rscale>  1 0.30000000E+03</rscale>
<asrwt>0</asrwt>
<pdfrwt beam="1">  1        1 0.41393065E+00 0.30000000E+03</pdfrwt>
<pdfrwt beam="2">0</pdfrwt>
<totfact> 0.87301703E-01</totfact>
</mgrwt>
</event>
<event>
 6    1  0.5260809E-006  0.3000000E+03  0.7818608E-02  0.1093470E+00
          1   -1    0    0  502    0  0.00000000000E+00  0.00000000000E+00  0.12794675938E+03  0.12794675938E+03  0.00000000000E+00 0.  1.
         13   -1    0    0    0    0 -0.00000000000E+00 -0.00000000000E+00 -0.10000000000E+04  0.10000000000E+04  0.00000000000E+00 0.  1.
    9000005    2    1    2  501    0  0.30542968345E+02  0.57737465640E+01 -0.87950106978E+03  0.10959830421E+04  0.65321549868E+03 0.  0.
         13    1    3    3    0    0  0.17862916017E+03  0.66715213957E+02  0.11191959650E+02  0.19100931023E+03  0.00000000000E+00 0.  1.
          1    1    3    3  501    0 -0.14808619182E+03 -0.60941467393E+02 -0.89069302943E+03  0.90497373184E+03  0.00000000000E+00 0.  1.
         21    1    1    2  502  501 -0.30542968345E+02 -0.57737465640E+01  0.74478291620E+01  0.31963717305E+02  0.00000000000E+00 0. -1.
<mgrwt>
<rscale>  1 0.30000000E+03</rscale>
<asrwt>0</asrwt>
<pdfrwt beam="1">  1        1 0.46526192E+00 0.30000000E+03</pdfrwt>
<pdfrwt beam="2">0</pdfrwt>
<totfact> 0.40569184E-01</totfact>
</mgrwt>
</event>
<event>
 6    1  0.5260809E-006  0.3000000E+03  0.7818608E-02  0.1093470E+00
          1   -1    0    0  502    0  0.00000000000E+00  0.00000000000E+00  0.11263225903E+03  0.11263225903E+03  0.00000000000E+00 0.  1.
         13   -1    0    0    0    0 -0.00000000000E+00 -0.00000000000E+00 -0.10000000000E+04  0.10000000000E+04  0.00000000000E+00 0.  1.
    9000005    2    1    2  501    0 -0.22242952700E+00 -0.11461886603E+02 -0.89212532746E+03  0.11002202105E+04  0.64378994041E+03 0.  0.
         13    1    3    3    0    0 -0.31871304588E+03  0.28024633296E+02 -0.39216407781E+03  0.50611861219E+03  0.00000000000E+00 0.  1.
          3    1    3    3  501    0  0.31849061635E+03 -0.39486519899E+02 -0.49996124966E+03  0.59410159831E+03  0.00000000000E+00 0.  1.
         21    1    1    2  502  501  0.22242952700E+00  0.11461886603E+02  0.47575864911E+01  0.12412048526E+02  0.00000000000E+00 0. -1.
<mgrwt>
<rscale>  1 0.30000000E+03</rscale>
<asrwt>0</asrwt>
<pdfrwt beam="1">  1        1 0.40957271E+00 0.30000000E+03</pdfrwt>
<pdfrwt beam="2">0</pdfrwt>
<totfact> 0.92672202E-01</totfact>
</mgrwt>
</event>
<event>
 6    1  0.5260809E-006  0.3000000E+03  0.7818608E-02  0.1093470E+00
          1   -1    0    0  502    0  0.00000000000E+00  0.00000000000E+00  0.12131193847E+03  0.12131193847E+03  0.00000000000E+00 0.  1.
         13   -1    0    0    0    0 -0.00000000000E+00 -0.00000000000E+00 -0.10000000000E+04  0.10000000000E+04  0.00000000000E+00 0.  1.
    9000005    2    1    2  501    0  0.33784714652E+01  0.42805459636E+02 -0.80683228216E+03  0.10376042657E+04  0.65099966153E+03 0.  0.
         13    1    3    3    0    0  0.70307212340E+01 -0.38321940044E+02 -0.90745932946E+03  0.90829534666E+03  0.00000000000E+00 0.  1.
          3    1    3    3  501    0 -0.36522497688E+01  0.81127399680E+02  0.10062704730E+03  0.12930891909E+03  0.00000000000E+00 0.  1.
         21    1    1    2  502  501 -0.33784714652E+01 -0.42805459636E+02 -0.71855779369E+02  0.83707672724E+02  0.00000000000E+00 0.  1.
<mgrwt>
<rscale>  1 0.30000000E+03</rscale>
<asrwt>0</asrwt>
<pdfrwt beam="1">  1        1 0.44113525E+00 0.30000000E+03</pdfrwt>
<pdfrwt beam="2">0</pdfrwt>
<totfact> 0.58930994E-01</totfact>
</mgrwt>
</event>
<event>
 6    1  0.5260809E-006  0.3000000E+03  0.7818608E-02  0.1093470E+00
          1   -1    0    0  502    0  0.00000000000E+00  0.00000000000E+00  0.11969995861E+03  0.11969995861E+03  0.00000000000E+00 0.  1.
         13   -1    0    0    0    0 -0.00000000000E+00 -0.00000000000E+00 -0.10000000000E+04  0.10000000000E+04  0.00000000000E+00 0.  1.
    9000005    2    1    2  501    0 -0.27384353322E+02  0.76393681454E+00 -0.85638470683E+03  0.10833347330E+04  0.66292449889E+03 0.  0.
         13    1    3    3    0    0  0.53712659989E+02 -0.26818183411E+02  0.10349134517E+03  0.11964415293E+03  0.00000000000E+00 0.  1.
          1    1    3    3  501    0 -0.81097013311E+02  0.27582120225E+02 -0.95987605200E+03  0.96369058008E+03  0.00000000000E+00 0.  1.
         21    1    1    2  502  501  0.27384353322E+02 -0.76393681454E+00 -0.23915334561E+02  0.36365225607E+02  0.00000000000E+00 0. -1.
<mgrwt>
<rscale>  1 0.30000000E+03</rscale>
<asrwt>0</asrwt>
<pdfrwt beam="1">  1        1 0.43527349E+00 0.30000000E+03</pdfrwt>
<pdfrwt beam="2">0</pdfrwt>
<totfact> 0.64305906E-01</totfact>
</mgrwt>
</event>
<event>
 6    1  0.5260809E-006  0.3000000E+03  0.7818608E-02  0.1093470E+00
          1   -1    0    0  502    0  0.00000000000E+00  0.00000000000E+00  0.10225902079E+03  0.10225902079E+03  0.00000000000E+00 0.  1.
         13   -1    0    0    0    0 -0.00000000000E+00 -0.00000000000E+00 -0.10000000000E+04  0.10000000000E+04  0.00000000000E+00 0.  1.
    9000005    2    1    2  501    0 -0.11360797946E+01  0.17673966344E+02 -0.89724853736E+03  0.10845417337E+04  0.60898454375E+03 0.  0.
         13    1    3    3    0    0  0.69368401184E+00  0.31202957677E+03 -0.51394584985E+03  0.60125142374E+03  0.00000000000E+00 0.  1.
          3    1    3    3  501    0 -0.18297638064E+01 -0.29435561042E+03 -0.38330268751E+03  0.48329030993E+03  0.00000000000E+00 0.  1.
         21    1    1    2  502  501  0.11360797946E+01 -0.17673966344E+02 -0.49244185700E+00  0.17717287112E+02  0.00000000000E+00 0.  1.
<mgrwt>
<rscale>  1 0.30000000E+03</rscale>
<asrwt>0</asrwt>
<pdfrwt beam="1">  1        1 0.37185177E+00 0.30000000E+03</pdfrwt>
<pdfrwt beam="2">0</pdfrwt>
<totfact> 0.15086108E+00</totfact>
</mgrwt>
</event>
<event>
 6    1  0.5260809E-006  0.3000000E+03  0.7818608E-02  0.1093470E+00
          1   -1    0    0  502    0  0.00000000000E+00  0.00000000000E+00  0.12377930377E+03  0.12377930377E+03  0.00000000000E+00 0.  1.
         13   -1    0    0    0    0 -0.00000000000E+00 -0.00000000000E+00 -0.10000000000E+04  0.10000000000E+04  0.00000000000E+00 0.  1.
    9000005    2    1    2  501    0 -0.32623442638E+02 -0.45983742712E+01 -0.87610662363E+03  0.10908331800E+04  0.64905221413E+03 0.  0.
         13    1    3    3    0    0 -0.28614586950E+03  0.17106601644E+03 -0.54029572219E+03  0.63487204068E+03  0.00000000000E+00 0.  1.
          1    1    3    3  501    0  0.25352242687E+03 -0.17566439072E+03 -0.33581090144E+03  0.45596113937E+03  0.00000000000E+00 0.  1.
         21    1    1    2  502  501  0.32623442638E+02  0.45983742712E+01 -0.11407260004E+00  0.32946123719E+02  0.00000000000E+00 0.  1.
<mgrwt>
<rscale>  1 0.30000000E+03</rscale>
<asrwt>0</asrwt>
<pdfrwt beam="1">  1        1 0.45010751E+00 0.30000000E+03</pdfrwt>
<pdfrwt beam="2">0</pdfrwt>
<totfact> 0.51369828E-01</totfact>
</mgrwt>
</event>
<event>
 6    1  0.5260809E-006  0.3000000E+03  0.7818608E-02  0.1093470E+00
          1   -1    0    0  502    0  0.00000000000E+00  0.00000000000E+00  0.12747951545E+03  0.12747951545E+03  0.00000000000E+00 0.  1.
         13   -1    0    0    0    0 -0.00000000000E+00 -0.00000000000E+00 -0.10000000000E+04  0.10000000000E+04  0.00000000000E+00 0.  1.
    9000005    2    1    2  501    0  0.74033860149E+01  0.24789955747E+02 -0.88352082144E+03  0.10993661833E+04  0.65370299918E+03 0.  0.
         13    1    3    3    0    0 -0.72542336887E+02 -0.16689901901E+03 -0.87261377795E+03  0.89138795070E+03  0.00000000000E+00 0.  1.
          3    1    3    3  501    0  0.79945722902E+02  0.19168897476E+03 -0.10907043487E+02  0.20797823264E+03  0.00000000000E+00 0.  1.
         21    1    1    2  502  501 -0.74033860149E+01 -0.24789955747E+02  0.11000336887E+02  0.28113332105E+02  0.00000000000E+00 0.  1.
<mgrwt>
<rscale>  1 0.30000000E+03</rscale>
<asrwt>0</asrwt>
<pdfrwt beam="1">  1        1 0.46356285E+00 0.30000000E+03</pdfrwt>
<pdfrwt beam="2">0</pdfrwt>
<totfact> 0.41675672E-01</totfact>
</mgrwt>
</event>
<event>
 6    1  0.5260809E-006  0.3000000E+03  0.7818608E-02  0.1093470E+00
          1   -1    0    0  502    0  0.00000000000E+00  0.00000000000E+00  0.74496405477E+02  0.74496405477E+02  0.00000000000E+00 0.  1.
         13   -1    0    0    0    0 -0.00000000000E+00 -0.00000000000E+00 -0.10000000000E+04  0.10000000000E+04  0.00000000000E+00 0.  1.
    9000005    2    1    2  501    0  0.13585192616E+02  0.23133127076E+02 -0.91580018396E+03  0.10459682579E+04  0.50461858923E+03 0.  0.
         13    1    3    3    0    0 -0.21870034711E+03 -0.73699805701E+02 -0.28436736333E+03  0.36623257707E+03  0.00000000000E+00 0.  1.
          1    1    3    3  501    0  0.23228553972E+03  0.96832932777E+02 -0.63143282063E+03  0.67973568084E+03  0.00000000000E+00 0.  1.
         21    1    1    2  502  501 -0.13585192616E+02 -0.23133127076E+02 -0.97034105617E+01  0.28528147561E+02  0.00000000000E+00 0. -1.
<mgrwt>
<rscale>  1 0.30000000E+03</rscale>
<asrwt>0</asrwt>
<pdfrwt beam="1">  1        1 0.27089659E+00 0.30000000E+03</pdfrwt>
<pdfrwt beam="2">0</pdfrwt>
<totfact> 0.47618691E+00</totfact>
</mgrwt>
</event>
<event>
 6    1  0.5260809E-006  0.3000000E+03  0.7818608E-02  0.1093470E+00
          1   -1    0    0  502    0  0.00000000000E+00  0.00000000000E+00  0.11793833370E+03  0.11793833370E+03  0.00000000000E+00 0.  1.
         13   -1    0    0    0    0 -0.00000000000E+00 -0.00000000000E+00 -0.10000000000E+04  0.10000000000E+04  0.00000000000E+00 0.  1.
    9000005    2    1    2  501    0  0.14866368248E+02  0.27929128521E+02 -0.86965050435E+03  0.10839518354E+04  0.64626506688E+03 0.  0.
         13    1    3    3    0    0 -0.12502514013E+03  0.21071796352E+03 -0.74405655959E+02  0.25606551399E+03  0.00000000000E+00 0.  1.
          3    1    3    3  501    0  0.13989150838E+03 -0.18278883500E+03 -0.79524484839E+03  0.82788632143E+03  0.00000000000E+00 0.  1.
         21    1    1    2  502  501 -0.14866368248E+02 -0.27929128521E+02 -0.12411161947E+02  0.33986498286E+02  0.00000000000E+00 0.  1.
<mgrwt>
<rscale>  1 0.30000000E+03</rscale>
<asrwt>0</asrwt>
<pdfrwt beam="1">  1        1 0.42886757E+00 0.30000000E+03</pdfrwt>
<pdfrwt beam="2">0</pdfrwt>
<totfact> 0.70616935E-01</totfact>
</mgrwt>
</event>
<event>
 6    1  0.5260809E-006  0.3000000E+03  0.7818608E-02  0.1093470E+00
          1   -1    0    0  502    0  0.00000000000E+00  0.00000000000E+00  0.11246590528E+03  0.11246590528E+03  0.00000000000E+00 0.  1.
         13   -1    0    0    0    0 -0.00000000000E+00 -0.00000000000E+00 -0.10000000000E+04  0.10000000000E+04  0.00000000000E+00 0.  1.
    9000005    2    1    2  501    0 -0.12271723563E+02 -0.24013856153E+02 -0.87316672959E+03  0.10819097002E+04  0.63826420962E+03 0.  0.
         13    1    3    3    0    0 -0.99487363188E+02  0.11436069210E+03 -0.90300927493E+03  0.91564286375E+03  0.00000000000E+00 0.  1.
          1    1    3    3  501    0  0.87215639625E+02 -0.13837454825E+03  0.29842545339E+02  0.16626683647E+03  0.00000000000E+00 0.  1.
         21    1    1    2  502  501  0.12271723563E+02  0.24013856153E+02 -0.14367365134E+02  0.30556205056E+02  0.00000000000E+00 0. -1.
<mgrwt>
<rscale>  1 0.30000000E+03</rscale>
<asrwt>0</asrwt>
<pdfrwt beam="1">  1        1 0.40896779E+00 0.30000000E+03</pdfrwt>
<pdfrwt beam="2">0</pdfrwt>
<totfact> 0.93436577E-01</totfact>
</mgrwt>
</event>
<event>
 6    1  0.5260809E-006  0.3000000E+03  0.7818608E-02  0.1093470E+00
          1   -1    0    0  502    0  0.00000000000E+00  0.00000000000E+00  0.11273161395E+03  0.11273161395E+03  0.00000000000E+00 0.  1.
         13   -1    0    0    0    0 -0.00000000000E+00 -0.00000000000E+00 -0.10000000000E+04  0.10000000000E+04  0.00000000000E+00 0.  1.
    9000005    2    1    2  501    0 -0.14492653265E+01 -0.15680647192E+02 -0.89978171691E+03  0.10926177750E+04  0.61964383413E+03 0.  0.
         13    1    3    3    0    0  0.21978586179E+03  0.11276030169E+03 -0.12530923577E+03  0.27698937750E+03  0.00000000000E+00 0.  1.
          1    1    3    3  501    0 -0.22123512712E+03 -0.12844094888E+03 -0.77447248114E+03  0.81562839754E+03  0.00000000000E+00 0.  1.
         21    1    1    2  502  501  0.14492653265E+01  0.15680647192E+02  0.12513330859E+02  0.20113838906E+02  0.00000000000E+00 0.  1.
<mgrwt>
<rscale>  1 0.30000000E+03</rscale>
<asrwt>0</asrwt>
<pdfrwt beam="1">  1        1 0.40993401E+00 0.30000000E+03</pdfrwt>
<pdfrwt beam="2">0</pdfrwt>
<totfact> 0.92217894E-01</totfact>
</mgrwt>
</event>
<event>
 6    1  0.5260809E-006  0.3000000E+03  0.7818608E-02  0.1093470E+00
          1   -1    0    0  502    0  0.00000000000E+00  0.00000000000E+00  0.11919777899E+03  0.11919777899E+03  0.00000000000E+00 0.  1.
         13   -1    0    0    0    0 -0.00000000000E+00 -0.00000000000E+00 -0.10000000000E+04  0.10000000000E+04  0.00000000000E+00 0.  1.
    9000005    2    1    2  501    0 -0.10608757439E+02 -0.13405140968E+02 -0.88750954070E+03  0.11008339102E+04  0.65105289303E+03 0.  0.
         13    1    3    3    0    0  0.57626406981E+02  0.63077486581E+02  0.86421280621E+02  0.12152452361E+03  0.00000000000E+00 0.  1.
          1    1    3    3  501    0 -0.68235164420E+02 -0.76482627549E+02 -0.97393082132E+03  0.97930938661E+03  0.00000000000E+00 0.  1.
         21    1    1    2  502  501  0.10608757439E+02  0.13405140968E+02  0.67073196867E+01  0.18363868768E+02  0.00000000000E+00 0.  1.
<mgrwt>
<rscale>  1 0.30000000E+03</rscale>
<asrwt>0</asrwt>
<pdfrwt beam="1">  1        1 0.43344738E+00 0.30000000E+03</pdfrwt>
<pdfrwt beam="2">0</pdfrwt>
<totfact> 0.66056111E-01</totfact>
</mgrwt>
</event>
<event>
 6    1  0.5260809E-006  0.3000000E+03  0.7818608E-02  0.1093470E+00
          1   -1    0    0  502    0  0.00000000000E+00  0.00000000000E+00  0.11811161365E+03  0.11811161365E+03  0.00000000000E+00 0.  1.
         13   -1    0    0    0    0 -0.00000000000E+00 -0.00000000000E+00 -0.10000000000E+04  0.10000000000E+04  0.00000000000E+00 0.  1.
    9000005    2    1    2  501    0 -0.25872676900E+02 -0.35806461038E+01 -0.88077257089E+03  0.10919685174E+04  0.64494395489E+03 0.  0.
         13    1    3    3    0    0 -0.21607706068E+03  0.24773590699E+03 -0.48760119193E+03  0.58806232504E+03  0.00000000000E+00 0.  1.
          1    1    3    3  501    0  0.19020438378E+03 -0.25131655310E+03 -0.39317137897E+03  0.50390619237E+03  0.00000000000E+00 0.  1.
         21    1    1    2  502  501  0.25872676900E+02  0.35806461038E+01 -0.11158154631E+01  0.26143096233E+02  0.00000000000E+00 0. -1.
<mgrwt>
<rscale>  1 0.30000000E+03</rscale>
<asrwt>0</asrwt>
<pdfrwt beam="1">  1        1 0.42949768E+00 0.30000000E+03</pdfrwt>
<pdfrwt beam="2">0</pdfrwt>
<totfact> 0.69974356E-01</totfact>
</mgrwt>
</event>
<event>
 6    1  0.5260809E-006  0.3000000E+03  0.7818608E-02  0.1093470E+00
          1   -1    0    0  502    0  0.00000000000E+00  0.00000000000E+00  0.11115247376E+03  0.11115247376E+03  0.00000000000E+00 0.  1.
         13   -1    0    0    0    0 -0.00000000000E+00 -0.00000000000E+00 -0.10000000000E+04  0.10000000000E+04  0.00000000000E+00 0.  1.
    9000005    2    1    2  501    0  0.10632105260E+02  0.12369158487E+02 -0.88071712746E+03  0.10929277343E+04  0.64696393722E+03 0.  0.
         13    1    3    3    0    0 -0.20544109261E+03  0.24973575334E+03 -0.49282062194E+03  0.58944563315E+03  0.00000000000E+00 0.  1.
          1    1    3    3  501    0  0.21607319787E+03 -0.23736659485E+03 -0.38789650551E+03  0.50348210115E+03  0.00000000000E+00 0.  1.
         21    1    1    2  502  501 -0.10632105260E+02 -0.12369158487E+02 -0.81303987854E+01  0.18224739459E+02  0.00000000000E+00 0.  1.
<mgrwt>
<rscale>  1 0.30000000E+03</rscale>
<asrwt>0</asrwt>
<pdfrwt beam="1">  1        1 0.40419167E+00 0.30000000E+03</pdfrwt>
<pdfrwt beam="2">0</pdfrwt>
<totfact> 0.99636515E-01</totfact>
</mgrwt>
</event>
<event>
 6    1  0.5260809E-006  0.3000000E+03  0.7818608E-02  0.1093470E+00
          1   -1    0    0  502    0  0.00000000000E+00  0.00000000000E+00  0.12532942739E+03  0.12532942739E+03  0.00000000000E+00 0.  1.
         13   -1    0    0    0    0 -0.00000000000E+00 -0.00000000000E+00 -0.10000000000E+04  0.10000000000E+04  0.00000000000E+00 0.  1.
    9000005    2    1    2  501    0  0.27319411344E+02 -0.14502413120E+02 -0.87576430332E+03  0.10943800095E+04  0.65555153874E+03 0.  0.
         13    1    3    3    0    0  0.23432222955E+03 -0.23996218522E+03 -0.34152025484E+03  0.47866986751E+03  0.00000000000E+00 0.  1.
          1    1    3    3  501    0 -0.20700281820E+03  0.22545977210E+03 -0.53424404848E+03  0.61571014197E+03  0.00000000000E+00 0.  1.
         21    1    1    2  502  501 -0.27319411344E+02  0.14502413120E+02  0.10937307129E+01  0.30949417916E+02  0.00000000000E+00 0. -1.
<mgrwt>
<rscale>  1 0.30000000E+03</rscale>
<asrwt>0</asrwt>
<pdfrwt beam="1">  1        1 0.45574433E+00 0.30000000E+03</pdfrwt>
<pdfrwt beam="2">0</pdfrwt>
<totfact> 0.47078913E-01</totfact>
</mgrwt>
</event>
<event>
 6    1  0.5260809E-006  0.3000000E+03  0.7818608E-02  0.1093470E+00
          1   -1    0    0  502    0  0.00000000000E+00  0.00000000000E+00  0.76387362040E+02  0.76387362040E+02  0.00000000000E+00 0.  1.
         13   -1    0    0    0    0 -0.00000000000E+00 -0.00000000000E+00 -0.10000000000E+04  0.10000000000E+04  0.00000000000E+00 0.  1.
    9000005    2    1    2  501    0  0.25514010071E+02  0.14133890952E+02 -0.89369721768E+03  0.10346062185E+04  0.52044651880E+03 0.  0.
         13    1    3    3    0    0  0.20279861918E+03  0.14382617878E+03 -0.24227335156E+03  0.34714496470E+03  0.00000000000E+00 0.  1.
          1    1    3    3  501    0 -0.17728460911E+03 -0.12969228782E+03 -0.65142386612E+03  0.68746125382E+03  0.00000000000E+00 0.  1.
         21    1    1    2  502  501 -0.25514010071E+02 -0.14133890952E+02 -0.29915420277E+02  0.41781143518E+02  0.00000000000E+00 0.  1.
<mgrwt>
<rscale>  1 0.30000000E+03</rscale>
<asrwt>0</asrwt>
<pdfrwt beam="1">  1        1 0.27777281E+00 0.30000000E+03</pdfrwt>
<pdfrwt beam="2">0</pdfrwt>
<totfact> 0.44226526E+00</totfact>
</mgrwt>
</event>
<event>
 6    1  0.5260809E-006  0.3000000E+03  0.7818608E-02  0.1093470E+00
          1   -1    0    0  502    0  0.00000000000E+00  0.00000000000E+00  0.13074349784E+03  0.13074349784E+03  0.00000000000E+00 0.  1.
         13   -1    0    0    0    0 -0.00000000000E+00 -0.00000000000E+00 -0.10000000000E+04  0.10000000000E+04  0.00000000000E+00 0.  1.
    9000005    2    1    2  501    0  0.11324462881E+02 -0.11844880145E+02 -0.89320884176E+03  0.11017217953E+04  0.64474827229E+03 0.  0.
         13    1    3    3    0    0  0.29929390885E+03 -0.52728781474E+02 -0.66795442825E+03  0.73383941464E+03  0.00000000000E+00 0.  1.
          1    1    3    3  501    0 -0.28796944597E+03  0.40883901329E+02 -0.22525441351E+03  0.36788238067E+03  0.00000000000E+00 0.  1.
         21    1    1    2  502  501 -0.11324462881E+02  0.11844880145E+02  0.23952339600E+02  0.29021702526E+02  0.00000000000E+00 0. -1.
<mgrwt>
<rscale>  1 0.30000000E+03</rscale>
<asrwt>0</asrwt>
<pdfrwt beam="1">  1        1 0.47543190E+00 0.30000000E+03</pdfrwt>
<pdfrwt beam="2">0</pdfrwt>
<totfact> 0.34429202E-01</totfact>
</mgrwt>
</event>
<event>
 6    1  0.5260809E-006  0.3000000E+03  0.7818608E-02  0.1093470E+00
          1   -1    0    0  502    0  0.00000000000E+00  0.00000000000E+00  0.12460827661E+03  0.12460827661E+03  0.00000000000E+00 0.  1.
         13   -1    0    0    0    0 -0.00000000000E+00 -0.00000000000E+00 -0.10000000000E+04  0.10000000000E+04  0.00000000000E+00 0.  1.
    9000005    2    1    2  501    0  0.57722014561E+01 -0.10292340389E+02 -0.89272976566E+03  0.11036354778E+04  0.64877236591E+03 0.  0.
         13    1    3    3    0    0 -0.30967627475E+03  0.64461329683E+02 -0.52941543003E+03  0.61671334972E+03  0.00000000000E+00 0.  1.
          1    1    3    3  501    0  0.31544847621E+03 -0.74753670072E+02 -0.36331433563E+03  0.48692212808E+03  0.00000000000E+00 0.  1.
         21    1    1    2  502  501 -0.57722014561E+01  0.10292340389E+02  0.17338042276E+02  0.20972798819E+02  0.00000000000E+00 0. -1.
<mgrwt>
<rscale>  1 0.30000000E+03</rscale>
<asrwt>0</asrwt>
<pdfrwt beam="1">  1        1 0.45312196E+00 0.30000000E+03</pdfrwt>
<pdfrwt beam="2">0</pdfrwt>
<totfact> 0.49028574E-01</totfact>
</mgrwt>
</event>
<event>
 6    1  0.5260809E-006  0.3000000E+03  0.7818608E-02  0.1093470E+00
          1   -1    0    0  502    0  0.00000000000E+00  0.00000000000E+00  0.11454082838E+03  0.11454082838E+03  0.00000000000E+00 0.  1.
         13   -1    0    0    0    0 -0.00000000000E+00 -0.00000000000E+00 -0.10000000000E+04  0.10000000000E+04  0.00000000000E+00 0.  1.
    9000005    2    1    2  501    0  0.26447012824E+01  0.14761592869E+02 -0.88391360620E+03  0.10994647599E+04  0.65367774624E+03 0.  0.
         13    1    3    3    0    0  0.18328316739E+03 -0.10852859014E+03 -0.85227042321E+03  0.87848508730E+03  0.00000000000E+00 0.  1.
          3    1    3    3  501    0 -0.18063846611E+03  0.12329018301E+03 -0.31643182989E+02  0.22097967258E+03  0.00000000000E+00 0.  1.
         21    1    1    2  502  501 -0.26447012824E+01 -0.14761592869E+02 -0.15455654208E+01  0.15076068498E+02  0.00000000000E+00 0.  1.
<mgrwt>
<rscale>  1 0.30000000E+03</rscale>
<asrwt>0</asrwt>
<pdfrwt beam="1">  1        1 0.41651298E+00 0.30000000E+03</pdfrwt>
<pdfrwt beam="2">0</pdfrwt>
<totfact> 0.84230445E-01</totfact>
</mgrwt>
</event>
<event>
 6    1  0.5260809E-006  0.3000000E+03  0.7818608E-02  0.1093470E+00
          1   -1    0    0  502    0  0.00000000000E+00  0.00000000000E+00  0.11512553581E+03  0.11512553581E+03  0.00000000000E+00 0.  1.
         13   -1    0    0    0    0 -0.00000000000E+00 -0.00000000000E+00 -0.10000000000E+04  0.10000000000E+04  0.00000000000E+00 0.  1.
    9000005    2    1    2  501    0  0.10956701603E+02 -0.78787939003E+00 -0.87907601071E+03  0.11027040976E+04  0.66562829285E+03 0.  0.
         13    1    3    3    0    0 -0.14073251053E+03  0.21783499375E+03 -0.97483320668E+02  0.27705725371E+03  0.00000000000E+00 0.  1.
          3    1    3    3  501    0  0.15168921214E+03 -0.21862287314E+03 -0.78159269005E+03  0.82564684392E+03  0.00000000000E+00 0.  1.
         21    1    1    2  502  501 -0.10956701603E+02  0.78787939003E+00 -0.57984534729E+01  0.12421438187E+02  0.00000000000E+00 0. -1.
<mgrwt>
<rscale>  1 0.30000000E+03</rscale>
<asrwt>0</asrwt>
<pdfrwt beam="1">  1        1 0.41863919E+00 0.30000000E+03</pdfrwt>
<pdfrwt beam="2">0</pdfrwt>
<totfact> 0.81758481E-01</totfact>
</mgrwt>
</event>
<event>
 6    1  0.5260809E-006  0.3000000E+03  0.7818608E-02  0.1093470E+00
          1   -1    0    0  502    0  0.00000000000E+00  0.00000000000E+00  0.16612364075E+03  0.16612364075E+03  0.00000000000E+00 0.  1.
         13   -1    0    0    0    0 -0.00000000000E+00 -0.00000000000E+00 -0.10000000000E+04  0.10000000000E+04  0.00000000000E+00 0.  1.
    9000005    2    1    2  501    0 -0.75045183502E+02  0.11530138873E+02 -0.86965520991E+03  0.10821900371E+04  0.63958609161E+03 0.  0.
         13    1    3    3    0    0 -0.84901922577E+02  0.10034190463E+03 -0.95178783434E+03  0.96082095932E+03  0.00000000000E+00 0.  1.
          1    1    3    3  501    0  0.98567390746E+01 -0.88811765758E+02  0.82132624427E+02  0.12136907776E+03  0.00000000000E+00 0.  1.
         21    1    1    2  502  501  0.75045183502E+02 -0.11530138873E+02  0.35778850656E+02  0.83933603662E+02  0.00000000000E+00 0. -1.
<mgrwt>
<rscale>  1 0.30000000E+03</rscale>
<asrwt>0</asrwt>
<pdfrwt beam="1">  1        1 0.60408724E+00 0.30000000E+03</pdfrwt>
<pdfrwt beam="2">0</pdfrwt>
<totfact> 0.56007159E-02</totfact>
</mgrwt>
</event>
<event>
 6    1  0.5260809E-006  0.3000000E+03  0.7818608E-02  0.1093470E+00
          1   -1    0    0  502    0  0.00000000000E+00  0.00000000000E+00  0.16060878925E+03  0.16060878925E+03  0.00000000000E+00 0.  1.
         13   -1    0    0    0    0 -0.00000000000E+00 -0.00000000000E+00 -0.10000000000E+04  0.10000000000E+04  0.00000000000E+00 0.  1.
    9000005    2    1    2  501    0 -0.19112991578E+02  0.17485159841E+02 -0.90103308307E+03  0.10937450645E+04  0.61947285017E+03 0.  0.
         13    1    3    3    0    0 -0.19777352466E+03 -0.23233744480E+03 -0.53535271435E+03  0.61619605977E+03  0.00000000000E+00 0.  1.
          1    1    3    3  501    0  0.17866053308E+03  0.24982260464E+03 -0.36568036873E+03  0.47754900475E+03  0.00000000000E+00 0.  1.
         21    1    1    2  502  501  0.19112991578E+02 -0.17485159841E+02  0.61641872321E+02  0.66863724731E+02  0.00000000000E+00 0. -1.
<mgrwt>
<rscale>  1 0.30000000E+03</rscale>
<asrwt>0</asrwt>
<pdfrwt beam="1">  1        1 0.58403319E+00 0.30000000E+03</pdfrwt>
<pdfrwt beam="2">0</pdfrwt>
<totfact> 0.69419051E-02</totfact>
</mgrwt>
</event>
<event>
 6    1  0.5260809E-006  0.3000000E+03  0.7818608E-02  0.1093470E+00
          1   -1    0    0  502    0  0.00000000000E+00  0.00000000000E+00  0.10295346583E+03  0.10295346583E+03  0.00000000000E+00 0.  1.
         13   -1    0    0    0    0 -0.00000000000E+00 -0.00000000000E+00 -0.10000000000E+04  0.10000000000E+04  0.00000000000E+00 0.  1.
    9000005    2    1    2  501    0  0.19975420446E+02  0.95679507191E+01 -0.89566111530E+03  0.10807615193E+04  0.60443863638E+03 0.  0.
         13    1    3    3    0    0 -0.16252350837E+01  0.30651788286E+03 -0.43051982808E+03  0.52849141551E+03  0.00000000000E+00 0.  1.
          1    1    3    3  501    0  0.21600655530E+02 -0.29694993214E+03 -0.46514128722E+03  0.55227010384E+03  0.00000000000E+00 0.  1.
         21    1    1    2  502  501 -0.19975420446E+02 -0.95679507191E+01 -0.13854188750E+01  0.22191946477E+02  0.00000000000E+00 0. -1.
<mgrwt>
<rscale>  1 0.30000000E+03</rscale>
<asrwt>0</asrwt>
<pdfrwt beam="1">  1        1 0.37437703E+00 0.30000000E+03</pdfrwt>
<pdfrwt beam="2">0</pdfrwt>
<totfact> 0.14619340E+00</totfact>
</mgrwt>
</event>
<event>
 6    1  0.5260809E-006  0.3000000E+03  0.7818608E-02  0.1093470E+00
          1   -1    0    0  502    0  0.00000000000E+00  0.00000000000E+00  0.11311653756E+03  0.11311653756E+03  0.00000000000E+00 0.  1.
         13   -1    0    0    0    0 -0.00000000000E+00 -0.00000000000E+00 -0.10000000000E+04  0.10000000000E+04  0.00000000000E+00 0.  1.
    9000005    2    1    2  501    0 -0.10322979742E+02 -0.85241055178E+01 -0.89139349694E+03  0.10989898006E+04  0.64266397997E+03 0.  0.
         13    1    3    3    0    0 -0.31441381579E+03  0.63054648456E+02 -0.35611940892E+03  0.47922121162E+03  0.00000000000E+00 0.  1.
          1    1    3    3  501    0  0.30409083605E+03 -0.71578753974E+02 -0.53527408802E+03  0.61976858899E+03  0.00000000000E+00 0.  1.
         21    1    1    2  502  501  0.10322979742E+02  0.85241055178E+01  0.45100344992E+01  0.14126736949E+02  0.00000000000E+00 0.  1.
<mgrwt>
<rscale>  1 0.30000000E+03</rscale>
<asrwt>0</asrwt>
<pdfrwt beam="1">  1        1 0.41133373E+00 0.30000000E+03</pdfrwt>
<pdfrwt beam="2">0</pdfrwt>
<totfact> 0.90473364E-01</totfact>
</mgrwt>
</event>
<event>
 6    1  0.5260809E-006  0.3000000E+03  0.7818608E-02  0.1093470E+00
          1   -1    0    0  502    0  0.00000000000E+00  0.00000000000E+00  0.11842460527E+03  0.11842460527E+03  0.00000000000E+00 0.  1.
         13   -1    0    0    0    0 -0.00000000000E+00 -0.00000000000E+00 -0.10000000000E+04  0.10000000000E+04  0.00000000000E+00 0.  1.
    9000005    2    1    2  501    0 -0.79166174765E+01  0.66548599293E+01 -0.89292182025E+03  0.11030720366E+04  0.64757361035E+03 0.  0.
         13    1    3    3    0    0 -0.68154966366E+02  0.32068952752E+03 -0.44558659864E+03  0.55320365995E+03  0.00000000000E+00 0.  1.
          3    1    3    3  501    0  0.60238348890E+02 -0.31403466759E+03 -0.44733522161E+03  0.54986837663E+03  0.00000000000E+00 0.  1.
         21    1    1    2  502  501  0.79166174765E+01 -0.66548599293E+01  0.11346425524E+02  0.15352568681E+02  0.00000000000E+00 0.  1.
<mgrwt>
<rscale>  1 0.30000000E+03</rscale>
<asrwt>0</asrwt>
<pdfrwt beam="1">  1        1 0.43063584E+00 0.30000000E+03</pdfrwt>
<pdfrwt beam="2">0</pdfrwt>
<totfact> 0.68826093E-01</totfact>
</mgrwt>
</event>
<event>
 6    1  0.5260809E-006  0.3000000E+03  0.7818608E-02  0.1093470E+00
          1   -1    0    0  502    0  0.00000000000E+00  0.00000000000E+00  0.12303107582E+03  0.12303107582E+03  0.00000000000E+00 0.  1.
         13   -1    0    0    0    0 -0.00000000000E+00 -0.00000000000E+00 -0.10000000000E+04  0.10000000000E+04  0.00000000000E+00 0.  1.
    9000005    2    1    2  501    0  0.16425267970E+02 -0.18162622594E+02 -0.88352165645E+03  0.10976813502E+04  0.65091793564E+03 0.  0.
         13    1    3    3    0    0 -0.21220271723E+03 -0.23089335548E+03 -0.29056806923E+03  0.42751787993E+03  0.00000000000E+00 0.  1.
          1    1    3    3  501    0  0.22862798520E+03  0.21273073288E+03 -0.59295358722E+03  0.67016347030E+03  0.00000000000E+00 0.  1.
         21    1    1    2  502  501 -0.16425267970E+02  0.18162622594E+02  0.65527322709E+01  0.25349725592E+02  0.00000000000E+00 0.  1.
<mgrwt>
<rscale>  1 0.30000000E+03</rscale>
<asrwt>0</asrwt>
<pdfrwt beam="1">  1        1 0.44738667E+00 0.30000000E+03</pdfrwt>
<pdfrwt beam="2">0</pdfrwt>
<totfact> 0.53573196E-01</totfact>
</mgrwt>
</event>
<event>
 6    1  0.5260809E-006  0.3000000E+03  0.7818608E-02  0.1093470E+00
          1   -1    0    0  502    0  0.00000000000E+00  0.00000000000E+00  0.96507319597E+02  0.96507319597E+02  0.00000000000E+00 0.  1.
         13   -1    0    0    0    0 -0.00000000000E+00 -0.00000000000E+00 -0.10000000000E+04  0.10000000000E+04  0.00000000000E+00 0.  1.
    9000005    2    1    2  501    0  0.25182117829E+02  0.87269324835E+01 -0.84256623765E+03  0.10300067193E+04  0.59184937157E+03 0.  0.
         13    1    3    3    0    0 -0.18382665519E+03  0.31872341000E+02 -0.79206481442E+03  0.81374120918E+03  0.00000000000E+00 0.  1.
          3    1    3    3  501    0  0.20900877302E+03 -0.23145408516E+02 -0.50501423232E+02  0.21626551015E+03  0.00000000000E+00 0.  1.
         21    1    1    2  502  501 -0.25182117829E+02 -0.87269324835E+01 -0.60926442755E+02  0.66500600266E+02  0.00000000000E+00 0. -1.
<mgrwt>
<rscale>  1 0.30000000E+03</rscale>
<asrwt>0</asrwt>
<pdfrwt beam="1">  1        1 0.35093645E+00 0.30000000E+03</pdfrwt>
<pdfrwt beam="2">0</pdfrwt>
<totfact> 0.19473662E+00</totfact>
</mgrwt>
</event>
<event>
 6    1  0.5260809E-006  0.3000000E+03  0.7818608E-02  0.1093470E+00
          1   -1    0    0  502    0  0.00000000000E+00  0.00000000000E+00  0.12408967532E+03  0.12408967532E+03  0.00000000000E+00 0.  1.
         13   -1    0    0    0    0 -0.00000000000E+00 -0.00000000000E+00 -0.10000000000E+04  0.10000000000E+04  0.00000000000E+00 0.  1.
    9000005    2    1    2  501    0 -0.54860382690E+01  0.13769899119E+02 -0.89298315260E+03  0.11014802041E+04  0.64468598741E+03 0.  0.
         13    1    3    3    0    0 -0.32137721994E+03 -0.38304929584E+02 -0.48032025883E+03  0.57918747929E+03  0.00000000000E+00 0.  1.
          1    1    3    3  501    0  0.31589118167E+03  0.52074828703E+02 -0.41266289377E+03  0.52229272476E+03  0.00000000000E+00 0.  1.
         21    1    1    2  502  501  0.54860382690E+01 -0.13769899119E+02  0.17072827916E+02  0.22609471261E+02  0.00000000000E+00 0.  1.
<mgrwt>
<rscale>  1 0.30000000E+03</rscale>
<asrwt>0</asrwt>
<pdfrwt beam="1">  1        1 0.45123613E+00 0.30000000E+03</pdfrwt>
<pdfrwt beam="2">0</pdfrwt>
<totfact> 0.50480628E-01</totfact>
</mgrwt>
</event>
<event>
 6    1  0.5260809E-006  0.3000000E+03  0.7818608E-02  0.1093470E+00
          1   -1    0    0  502    0  0.00000000000E+00  0.00000000000E+00  0.10994771300E+03  0.10994771300E+03  0.00000000000E+00 0.  1.
         13   -1    0    0    0    0 -0.00000000000E+00 -0.00000000000E+00 -0.10000000000E+04  0.10000000000E+04  0.00000000000E+00 0.  1.
    9000005    2    1    2  501    0 -0.81657288060E+01  0.77463137912E+01 -0.88565314221E+03  0.10978631369E+04  0.64868736275E+03 0.  0.
         13    1    3    3    0    0 -0.68256352857E+02  0.18697113089E+03 -0.70607376876E+01  0.19916572875E+03  0.00000000000E+00 0.  1.
          3    1    3    3  501    0  0.60090624050E+02 -0.17922481710E+03 -0.87859240452E+03  0.89869740817E+03  0.00000000000E+00 0.  1.
         21    1    1    2  502  501  0.81657288060E+01 -0.77463137912E+01 -0.43991447870E+01  0.12084576085E+02  0.00000000000E+00 0.  1.
<mgrwt>
<rscale>  1 0.30000000E+03</rscale>
<asrwt>0</asrwt>
<pdfrwt beam="1">  1        1 0.39981071E+00 0.30000000E+03</pdfrwt>
<pdfrwt beam="2">0</pdfrwt>
<totfact> 0.10557910E+00</totfact>
</mgrwt>
</event>
<event>
 6    1  0.5260809E-006  0.3000000E+03  0.7818608E-02  0.1093470E+00
          1   -1    0    0  502    0  0.00000000000E+00  0.00000000000E+00  0.12278473068E+03  0.12278473068E+03  0.00000000000E+00 0.  1.
         13   -1    0    0    0    0 -0.00000000000E+00 -0.00000000000E+00 -0.10000000000E+04  0.10000000000E+04  0.00000000000E+00 0.  1.
    9000005    2    1    2  501    0 -0.64073302040E+01 -0.15649880938E+02 -0.88563714064E+03  0.11038929184E+04  0.65874157135E+03 0.  0.
         13    1    3    3    0    0 -0.10072778716E+03  0.22126220870E+03 -0.79807245925E+03  0.83427975064E+03  0.00000000000E+00 0.  1.
          3    1    3    3  501    0  0.94320456958E+02 -0.23691208964E+03 -0.87564681385E+02  0.26961316779E+03  0.00000000000E+00 0.  1.
         21    1    1    2  502  501  0.64073302040E+01  0.15649880938E+02  0.84218713205E+01  0.18891812254E+02  0.00000000000E+00 0.  1.
<mgrwt>
<rscale>  1 0.30000000E+03</rscale>
<asrwt>0</asrwt>
<pdfrwt beam="1">  1        1 0.44649087E+00 0.30000000E+03</pdfrwt>
<pdfrwt beam="2">0</pdfrwt>
<totfact> 0.54316462E-01</totfact>
</mgrwt>
</event>
<event>
 6    1  0.5260809E-006  0.3000000E+03  0.7818608E-02  0.1093470E+00
          1   -1    0    0  502    0  0.00000000000E+00  0.00000000000E+00  0.14848372102E+03  0.14848372102E+03  0.00000000000E+00 0.  1.
         13   -1    0    0    0    0 -0.00000000000E+00 -0.00000000000E+00 -0.10000000000E+04  0.10000000000E+04  0.00000000000E+00 0.  1.
    9000005    2    1    2  501    0 -0.10153700115E+02 -0.53413745878E+01 -0.90596298807E+03  0.10928413627E+04  0.61106601964E+03 0.  0.
         13    1    3    3    0    0 -0.46517376742E+02  0.17404611311E+03 -0.89118237928E+03  0.90920951874E+03  0.00000000000E+00 0.  1.
          1    1    3    3  501    0  0.36363676627E+02 -0.17938748770E+03 -0.14780608795E+02  0.18363184396E+03  0.00000000000E+00 0.  1.
         21    1    1    2  502  501  0.10153700115E+02  0.53413745878E+01  0.54446709097E+02  0.55642358325E+02  0.00000000000E+00 0.  1.
<mgrwt>
<rscale>  1 0.30000000E+03</rscale>
<asrwt>0</asrwt>
<pdfrwt beam="1">  1        1 0.53994194E+00 0.30000000E+03</pdfrwt>
<pdfrwt beam="2">0</pdfrwt>
<totfact> 0.11511195E-01</totfact>
</mgrwt>
</event>
<event>
 6    1  0.5260809E-006  0.3000000E+03  0.7818608E-02  0.1093470E+00
          1   -1    0    0  502    0  0.00000000000E+00  0.00000000000E+00  0.11160233218E+03  0.11160233218E+03  0.00000000000E+00 0.  1.
         13   -1    0    0    0    0 -0.00000000000E+00 -0.00000000000E+00 -0.10000000000E+04  0.10000000000E+04  0.00000000000E+00 0.  1.
    9000005    2    1    2  501    0  0.48349732555E+01  0.13843816463E+02 -0.88620890523E+03  0.10967760413E+04  0.64601581465E+03 0.  0.
         13    1    3    3    0    0  0.20695430595E+03 -0.20591231646E+03 -0.66161278330E+03  0.72316073030E+03  0.00000000000E+00 0.  1.
          3    1    3    3  501    0 -0.20211933269E+03  0.21975613292E+03 -0.22459612193E+03  0.37361531097E+03  0.00000000000E+00 0.  1.
         21    1    1    2  502  501 -0.48349732555E+01 -0.13843816463E+02 -0.21887625855E+01  0.14826290915E+02  0.00000000000E+00 0. -1.
<mgrwt>
<rscale>  1 0.30000000E+03</rscale>
<asrwt>0</asrwt>
<pdfrwt beam="1">  1        1 0.40582752E+00 0.30000000E+03</pdfrwt>
<pdfrwt beam="2">0</pdfrwt>
<totfact> 0.97479799E-01</totfact>
</mgrwt>
</event>
<event>
 6    1  0.5260809E-006  0.3000000E+03  0.7818608E-02  0.1093470E+00
          1   -1    0    0  502    0  0.00000000000E+00  0.00000000000E+00  0.10980254663E+03  0.10980254663E+03  0.00000000000E+00 0.  1.
         13   -1    0    0    0    0 -0.00000000000E+00 -0.00000000000E+00 -0.10000000000E+04  0.10000000000E+04  0.00000000000E+00 0.  1.
    9000005    2    1    2  501    0  0.33815209461E+01 -0.72728503863E+01 -0.87685749998E+03  0.10942370915E+04  0.65453144168E+03 0.  0.
         13    1    3    3    0    0 -0.25752035168E+02 -0.41515074977E+02 -0.98026359938E+03  0.98148020512E+03  0.00000000000E+00 0.  1.
          1    1    3    3  501    0  0.29133556114E+02  0.34242224591E+02  0.10340609940E+03  0.11275688640E+03  0.00000000000E+00 0.  1.
         21    1    1    2  502  501 -0.33815209461E+01  0.72728503863E+01 -0.13339953390E+02  0.15565455120E+02  0.00000000000E+00 0.  1.
<mgrwt>
<rscale>  1 0.30000000E+03</rscale>
<asrwt>0</asrwt>
<pdfrwt beam="1">  1        1 0.39928283E+00 0.30000000E+03</pdfrwt>
<pdfrwt beam="2">0</pdfrwt>
<totfact> 0.10631229E+00</totfact>
</mgrwt>
</event>
<event>
 6    1  0.5260809E-006  0.3000000E+03  0.7818608E-02  0.1093470E+00
          1   -1    0    0  502    0  0.00000000000E+00  0.00000000000E+00  0.12623432340E+03  0.12623432340E+03  0.00000000000E+00 0.  1.
         13   -1    0    0    0    0 -0.00000000000E+00 -0.00000000000E+00 -0.10000000000E+04  0.10000000000E+04  0.00000000000E+00 0.  1.
    9000005    2    1    2  501    0 -0.15527005924E+02  0.37725091537E+02 -0.87083257685E+03  0.10853335469E+04  0.64647912625E+03 0.  0.
         13    1    3    3    0    0  0.27568670023E+02 -0.21526910614E+03 -0.46469914445E+02  0.22194655342E+03  0.00000000000E+00 0.  1.
          3    1    3    3  501    0 -0.43095675947E+02  0.25299419768E+03 -0.82436266240E+03  0.86338699348E+03  0.00000000000E+00 0.  1.
         21    1    1    2  502  501  0.15527005924E+02 -0.37725091537E+02 -0.29330997501E+01  0.40900776503E+02  0.00000000000E+00 0.  1.
<mgrwt>
<rscale>  1 0.30000000E+03</rscale>
<asrwt>0</asrwt>
<pdfrwt beam="1">  1        1 0.45903487E+00 0.30000000E+03</pdfrwt>
<pdfrwt beam="2">0</pdfrwt>
<totfact> 0.44736367E-01</totfact>
</mgrwt>
</event>
<event>
 6    1  0.5260809E-006  0.3000000E+03  0.7818608E-02  0.1093470E+00
          1   -1    0    0  502    0  0.00000000000E+00  0.00000000000E+00  0.11809740115E+03  0.11809740115E+03  0.00000000000E+00 0.  1.
         13   -1    0    0    0    0 -0.00000000000E+00 -0.00000000000E+00 -0.10000000000E+04  0.10000000000E+04  0.00000000000E+00 0.  1.
    9000005    2    1    2  501    0 -0.24947922601E+02  0.10445189195E+02 -0.87023496052E+03  0.10886417633E+04  0.65352926589E+03 0.  0.
         13    1    3    3    0    0 -0.19200692857E+03  0.25784088563E+01  0.10362254982E+02  0.19230362747E+03  0.00000000000E+00 0.  1.
          1    1    3    3  501    0  0.16705900597E+03  0.78667803390E+01 -0.88059721551E+03  0.89633813579E+03  0.00000000000E+00 0.  1.
         21    1    1    2  502  501  0.24947922601E+02 -0.10445189195E+02 -0.11667638328E+02  0.29455637891E+02  0.00000000000E+00 0.  1.
<mgrwt>
<rscale>  1 0.30000000E+03</rscale>
<asrwt>0</asrwt>
<pdfrwt beam="1">  1        1 0.42944600E+00 0.30000000E+03</pdfrwt>
<pdfrwt beam="2">0</pdfrwt>
<totfact> 0.70026874E-01</totfact>
</mgrwt>
</event>
<event>
 6    1  0.5260809E-006  0.3000000E+03  0.7818608E-02  0.1093470E+00
          1   -1    0    0  502    0  0.00000000000E+00  0.00000000000E+00  0.11967391916E+03  0.11967391916E+03  0.00000000000E+00 0.  1.
         13   -1    0    0    0    0 -0.00000000000E+00 -0.00000000000E+00 -0.10000000000E+04  0.10000000000E+04  0.00000000000E+00 0.  1.
    9000005    2    1    2  501    0 -0.12575084006E+01  0.17060038092E+02 -0.89353122060E+03  0.10980636914E+04  0.63800721156E+03 0.  0.
         13    1    3    3    0    0  0.24992021063E+03 -0.63663870763E+00 -0.10638072303E+03  0.27161990947E+03  0.00000000000E+00 0.  1.
          3    1    3    3  501    0 -0.25117771903E+03  0.17696676799E+02 -0.78715049756E+03  0.82644378195E+03  0.00000000000E+00 0.  1.
         21    1    1    2  502  501  0.12575084006E+01 -0.17060038092E+02  0.13205139756E+02  0.21610227741E+02  0.00000000000E+00 0.  1.
<mgrwt>
<rscale>  1 0.30000000E+03</rscale>
<asrwt>0</asrwt>
<pdfrwt beam="1">  1        1 0.43517881E+00 0.30000000E+03</pdfrwt>
<pdfrwt beam="2">0</pdfrwt>
<totfact> 0.64395739E-01</totfact>
</mgrwt>
</event>
<event>
 6    1  0.5260809E-006  0.3000000E+03  0.7818608E-02  0.1093470E+00
          1   -1    0    0  502    0  0.00000000000E+00  0.00000000000E+00  0.11609228804E+03  0.11609228804E+03  0.00000000000E+00 0.  1.
         13   -1    0    0    0    0 -0.00000000000E+00 -0.00000000000E+00 -0.10000000000E+04  0.10000000000E+04  0.00000000000E+00 0.  1.
    9000005    2    1    2  501    0  0.44901094451E+01  0.89112598557E+01 -0.89168961646E+03  0.11034380527E+04  0.64989660127E+03 0.  0.
         13    1    3    3    0    0  0.62160901311E+00  0.15320955412E+03  0.41834372842E+02  0.15881961032E+03  0.00000000000E+00 0.  1.
          1    1    3    3  501    0  0.38685004320E+01 -0.14429829426E+03 -0.93352398931E+03  0.94461844235E+03  0.00000000000E+00 0.  1.
         21    1    1    2  502  501 -0.44901094451E+01 -0.89112598557E+01  0.77819045021E+01  0.12654235367E+02  0.00000000000E+00 0. -1.
<mgrwt>
<rscale>  1 0.30000000E+03</rscale>
<asrwt>0</asrwt>
<pdfrwt beam="1">  1        1 0.42215466E+00 0.30000000E+03</pdfrwt>
<pdfrwt beam="2">0</pdfrwt>
<totfact> 0.77783181E-01</totfact>
</mgrwt>
</event>
<event>
 6    1  0.5260809E-006  0.3000000E+03  0.7818608E-02  0.1093470E+00
          1   -1    0    0  502    0  0.00000000000E+00  0.00000000000E+00  0.10899186629E+03  0.10899186629E+03  0.00000000000E+00 0.  1.
         13   -1    0    0    0    0 -0.00000000000E+00 -0.00000000000E+00 -0.10000000000E+04  0.10000000000E+04  0.00000000000E+00 0.  1.
    9000005    2    1    2  501    0  0.10998063533E+02 -0.37875434640E+00 -0.88600041889E+03  0.10969014542E+04  0.64658716130E+03 0.  0.
         13    1    3    3    0    0  0.19144983748E+03 -0.22141167943E+03 -0.69338712704E+03  0.75263661883E+03  0.00000000000E+00 0.  1.
          1    1    3    3  501    0 -0.18045177395E+03  0.22103292509E+03 -0.19261329185E+03  0.34426483540E+03  0.00000000000E+00 0.  1.
         21    1    1    2  502  501 -0.10998063533E+02  0.37875434640E+00 -0.50077148198E+01  0.12090412071E+02  0.00000000000E+00 0.  1.
<mgrwt>
<rscale>  1 0.30000000E+03</rscale>
<asrwt>0</asrwt>
<pdfrwt beam="1">  1        1 0.39633490E+00 0.30000000E+03</pdfrwt>
<pdfrwt beam="2">0</pdfrwt>
<totfact> 0.11048143E+00</totfact>
</mgrwt>
</event>
<event>
 6    1  0.5260809E-006  0.3000000E+03  0.7818608E-02  0.1093470E+00
          1   -1    0    0  502    0  0.00000000000E+00  0.00000000000E+00  0.11901150693E+03  0.11901150693E+03  0.00000000000E+00 0.  1.
         13   -1    0    0    0    0 -0.00000000000E+00 -0.00000000000E+00 -0.10000000000E+04  0.10000000000E+04  0.00000000000E+00 0.  1.
    9000005    2    1    2  501    0  0.24958354420E+02 -0.16705696585E+02 -0.87748808815E+03  0.10887748969E+04  0.64385047290E+03 0.  0.
         13    1    3    3    0    0 -0.10885179449E+03 -0.10648599955E+03 -0.91146121528E+03  0.92409389578E+03  0.00000000000E+00 0.  1.
          1    1    3    3  501    0  0.13381014891E+03  0.89780302966E+02  0.33973127131E+02  0.16468100109E+03  0.00000000000E+00 0.  1.
         21    1    1    2  502  501 -0.24958354420E+02  0.16705696585E+02 -0.35004049213E+01  0.30236610067E+02  0.00000000000E+00 0.  1.
<mgrwt>
<rscale>  1 0.30000000E+03</rscale>
<asrwt>0</asrwt>
<pdfrwt beam="1">  1        1 0.43277003E+00 0.30000000E+03</pdfrwt>
<pdfrwt beam="2">0</pdfrwt>
<totfact> 0.66714969E-01</totfact>
</mgrwt>
</event>
<event>
 6    1  0.5260809E-006  0.3000000E+03  0.7818608E-02  0.1093470E+00
          1   -1    0    0  502    0  0.00000000000E+00  0.00000000000E+00  0.10706181944E+03  0.10706181944E+03  0.00000000000E+00 0.  1.
         13   -1    0    0    0    0 -0.00000000000E+00 -0.00000000000E+00 -0.10000000000E+04  0.10000000000E+04  0.00000000000E+00 0.  1.
    9000005    2    1    2  501    0  0.17663648280E+02  0.13881319921E+02 -0.88581506936E+03  0.10834941673E+04  0.62352752785E+03 0.  0.
         13    1    3    3    0    0 -0.21666786619E+03 -0.93961298635E+02 -0.76124110625E+03  0.79703306815E+03  0.00000000000E+00 0.  1.
          3    1    3    3  501    0  0.23433151447E+03  0.10784261856E+03 -0.12457396310E+03  0.28646109916E+03  0.00000000000E+00 0.  1.
         21    1    1    2  502  501 -0.17663648280E+02 -0.13881319921E+02 -0.71231112063E+01  0.23567652123E+02  0.00000000000E+00 0.  1.
<mgrwt>
<rscale>  1 0.30000000E+03</rscale>
<asrwt>0</asrwt>
<pdfrwt beam="1">  1        1 0.38931653E+00 0.30000000E+03</pdfrwt>
<pdfrwt beam="2">0</pdfrwt>
<totfact> 0.12097971E+00</totfact>
</mgrwt>
</event>
<event>
 6    1  0.5260809E-006  0.3000000E+03  0.7818608E-02  0.1093470E+00
          1   -1    0    0  502    0  0.00000000000E+00  0.00000000000E+00  0.11875416141E+03  0.11875416141E+03  0.00000000000E+00 0.  1.
         13   -1    0    0    0    0 -0.00000000000E+00 -0.00000000000E+00 -0.10000000000E+04  0.10000000000E+04  0.00000000000E+00 0.  1.
    9000005    2    1    2  501    0  0.25916517509E+02  0.22406170304E+02 -0.86117259729E+03  0.10790472683E+04  0.64926963772E+03 0.  0.
         13    1    3    3    0    0 -0.32786214902E+02 -0.89895700831E+00  0.10541437351E+03  0.11039897714E+03  0.00000000000E+00 0.  1.
          3    1    3    3  501    0  0.58702732411E+02  0.23305127313E+02 -0.96658697080E+03  0.96864829111E+03  0.00000000000E+00 0.  1.
         21    1    1    2  502  501 -0.25916517509E+02 -0.22406170304E+02 -0.20073241302E+02  0.39706893154E+02  0.00000000000E+00 0.  1.
<mgrwt>
<rscale>  1 0.30000000E+03</rscale>
<asrwt>0</asrwt>
<pdfrwt beam="1">  1        1 0.43183422E+00 0.30000000E+03</pdfrwt>
<pdfrwt beam="2">0</pdfrwt>
<totfact> 0.67634010E-01</totfact>
</mgrwt>
</event>
<event>
 6    1  0.5260809E-006  0.3000000E+03  0.7818608E-02  0.1093470E+00
          1   -1    0    0  502    0  0.00000000000E+00  0.00000000000E+00  0.69337547310E+02  0.69337547310E+02  0.00000000000E+00 0.  1.
         13   -1    0    0    0    0 -0.00000000000E+00 -0.00000000000E+00 -0.10000000000E+04  0.10000000000E+04  0.00000000000E+00 0.  1.
    9000005    2    1    2  501    0  0.39158698155E+01  0.10785659506E+02 -0.92180204049E+03  0.10548402582E+04  0.51267660758E+03 0.  0.
         13    1    3    3    0    0  0.22228264623E+03  0.53911102648E+02 -0.71617052534E+03  0.75180862138E+03  0.00000000000E+00 0.  1.
          1    1    3    3  501    0 -0.21836677642E+03 -0.43125443143E+02 -0.20563151515E+03  0.30303163682E+03  0.00000000000E+00 0.  1.
         21    1    1    2  502  501 -0.39158698155E+01 -0.10785659506E+02 -0.88604121973E+01  0.14497289115E+02  0.00000000000E+00 0.  1.
<mgrwt>
<rscale>  1 0.30000000E+03</rscale>
<asrwt>0</asrwt>
<pdfrwt beam="1">  1        1 0.25213707E+00 0.30000000E+03</pdfrwt>
<pdfrwt beam="2">0</pdfrwt>
<totfact> 0.58309492E+00</totfact>
</mgrwt>
</event>
<event>
 6    1  0.5260809E-006  0.3000000E+03  0.7818608E-02  0.1093470E+00
          1   -1    0    0  502    0  0.00000000000E+00  0.00000000000E+00  0.75810882675E+02  0.75810882675E+02  0.00000000000E+00 0.  1.
         13   -1    0    0    0    0 -0.00000000000E+00 -0.00000000000E+00 -0.10000000000E+04  0.10000000000E+04  0.00000000000E+00 0.  1.
    9000005    2    1    2  501    0 -0.20579449588E+01 -0.14898356521E+02 -0.93664670277E+03  0.10562817352E+04  0.48805518359E+03 0.  0.
         13    1    3    3    0    0  0.96725790822E+02  0.21043614005E+03 -0.56443159760E+03  0.61010021802E+03  0.00000000000E+00 0.  1.
          3    1    3    3  501    0 -0.98783735781E+02 -0.22533449657E+03 -0.37221510516E+03  0.44618151722E+03  0.00000000000E+00 0.  1.
         21    1    1    2  502  501  0.20579449588E+01  0.14898356521E+02  0.12457585443E+02  0.19529147435E+02  0.00000000000E+00 0. -1.
<mgrwt>
<rscale>  1 0.30000000E+03</rscale>
<asrwt>0</asrwt>
<pdfrwt beam="1">  1        1 0.27567652E+00 0.30000000E+03</pdfrwt>
<pdfrwt beam="2">0</pdfrwt>
<totfact> 0.45233423E+00</totfact>
</mgrwt>
</event>
<event>
 6    1  0.5260809E-006  0.3000000E+03  0.7818608E-02  0.1093470E+00
          1   -1    0    0  502    0  0.00000000000E+00  0.00000000000E+00  0.11171464331E+03  0.11171464331E+03  0.00000000000E+00 0.  1.
         13   -1    0    0    0    0 -0.00000000000E+00 -0.00000000000E+00 -0.10000000000E+04  0.10000000000E+04  0.00000000000E+00 0.  1.
    9000005    2    1    2  501    0  0.97720508621E+01  0.55729258822E+01 -0.88008460203E+03  0.10977933338E+04  0.65610574343E+03 0.  0.
         13    1    3    3    0    0  0.24008843224E+03  0.20888763835E+03 -0.28106528638E+03  0.42458708878E+03  0.00000000000E+00 0.  1.
          1    1    3    3  501    0 -0.23031638138E+03 -0.20331471246E+03 -0.59901931566E+03  0.67320624504E+03  0.00000000000E+00 0.  1.
         21    1    1    2  502  501 -0.97720508621E+01 -0.55729258822E+01 -0.82007546581E+01  0.13921309489E+02  0.00000000000E+00 0. -1.
<mgrwt>
<rscale>  1 0.30000000E+03</rscale>
<asrwt>0</asrwt>
<pdfrwt beam="1">  1        1 0.40623592E+00 0.30000000E+03</pdfrwt>
<pdfrwt beam="2">0</pdfrwt>
<totfact> 0.96946780E-01</totfact>
</mgrwt>
</event>
<event>
 6    1  0.5260809E-006  0.3000000E+03  0.7818608E-02  0.1093470E+00
          1   -1    0    0  502    0  0.00000000000E+00  0.00000000000E+00  0.11950202700E+03  0.11950202700E+03  0.00000000000E+00 0.  1.
         13   -1    0    0    0    0 -0.00000000000E+00 -0.00000000000E+00 -0.10000000000E+04  0.10000000000E+04  0.00000000000E+00 0.  1.
    9000005    2    1    2  501    0  0.22624912249E+02  0.38414266207E+01 -0.88090207923E+03  0.10965497610E+04  0.65261494156E+03 0.  0.
         13    1    3    3    0    0 -0.13804688461E+03  0.29141328079E+03 -0.40327344187E+03  0.51634108057E+03  0.00000000000E+00 0.  1.
          3    1    3    3  501    0  0.16067179686E+03 -0.28757185417E+03 -0.47762863736E+03  0.58020868042E+03  0.00000000000E+00 0.  1.
         21    1    1    2  502  501 -0.22624912249E+02 -0.38414266207E+01  0.40410622729E+00  0.22952266001E+02  0.00000000000E+00 0. -1.
<mgrwt>
<rscale>  1 0.30000000E+03</rscale>
<asrwt>0</asrwt>
<pdfrwt beam="1">  1        1 0.43455374E+00 0.30000000E+03</pdfrwt>
<pdfrwt beam="2">0</pdfrwt>
<totfact> 0.64991256E-01</totfact>
</mgrwt>
</event>
<event>
 6    1  0.5260809E-006  0.3000000E+03  0.7818608E-02  0.1093470E+00
          1   -1    0    0  502    0  0.00000000000E+00  0.00000000000E+00  0.11062470266E+03  0.11062470266E+03  0.00000000000E+00 0.  1.
         13   -1    0    0    0    0 -0.00000000000E+00 -0.00000000000E+00 -0.10000000000E+04  0.10000000000E+04  0.00000000000E+00 0.  1.
    9000005    2    1    2  501    0 -0.10192942553E+02  0.36723641238E+01 -0.89001979522E+03  0.10997712371E+04  0.64594439067E+03 0.  0.
         13    1    3    3    0    0  0.30093887610E+03  0.20762961013E+02 -0.26559099556E+03  0.40191278236E+03  0.00000000000E+00 0.  1.
          1    1    3    3  501    0 -0.31113181865E+03 -0.17090596889E+02 -0.62442879966E+03  0.69785845479E+03  0.00000000000E+00 0.  1.
         21    1    1    2  502  501  0.10192942553E+02 -0.36723641238E+01  0.64449788295E+00  0.10853465515E+02  0.00000000000E+00 0.  1.
<mgrwt>
<rscale>  1 0.30000000E+03</rscale>
<asrwt>0</asrwt>
<pdfrwt beam="1">  1        1 0.40227249E+00 0.30000000E+03</pdfrwt>
<pdfrwt beam="2">0</pdfrwt>
<totfact> 0.10220971E+00</totfact>
</mgrwt>
</event>
<event>
 6    1  0.5260809E-006  0.3000000E+03  0.7818608E-02  0.1093470E+00
          1   -1    0    0  502    0  0.00000000000E+00  0.00000000000E+00  0.10489648712E+03  0.10489648712E+03  0.00000000000E+00 0.  1.
         13   -1    0    0    0    0 -0.00000000000E+00 -0.00000000000E+00 -0.10000000000E+04  0.10000000000E+04  0.00000000000E+00 0.  1.
    9000005    2    1    2  501    0 -0.44327441061E+01  0.12775481217E+02 -0.88077862279E+03  0.10851971314E+04  0.63379726210E+03 0.  0.
         13    1    3    3    0    0  0.85868389785E+02 -0.28218753891E+03 -0.26520832078E+03  0.39665935120E+03  0.00000000000E+00 0.  1.
          1    1    3    3  501    0 -0.90301133891E+02  0.29496302013E+03 -0.61557030201E+03  0.68853778018E+03  0.00000000000E+00 0.  1.
         21    1    1    2  502  501  0.44327441061E+01 -0.12775481217E+02 -0.14324890085E+02  0.19699355740E+02  0.00000000000E+00 0.  1.
<mgrwt>
<rscale>  1 0.30000000E+03</rscale>
<asrwt>0</asrwt>
<pdfrwt beam="1">  1        1 0.38144258E+00 0.30000000E+03</pdfrwt>
<pdfrwt beam="2">0</pdfrwt>
<totfact> 0.13377554E+00</totfact>
</mgrwt>
</event>
<event>
 6    1  0.5260809E-006  0.3000000E+03  0.7818608E-02  0.1093470E+00
          1   -1    0    0  502    0  0.00000000000E+00  0.00000000000E+00  0.10526230704E+03  0.10526230704E+03  0.00000000000E+00 0.  1.
         13   -1    0    0    0    0 -0.00000000000E+00 -0.00000000000E+00 -0.10000000000E+04  0.10000000000E+04  0.00000000000E+00 0.  1.
    9000005    2    1    2  501    0 -0.94623172699E+01 -0.10033138861E+02 -0.88826555860E+03  0.10900278774E+04  0.63162874504E+03 0.  0.
         13    1    3    3    0    0  0.12909567101E+02 -0.29703713083E+03 -0.24489736405E+03  0.38519142375E+03  0.00000000000E+00 0.  1.
          1    1    3    3  501    0 -0.22371884371E+02  0.28700399196E+03 -0.64336819455E+03  0.70483645364E+03  0.00000000000E+00 0.  1.
         21    1    1    2  502  501  0.94623172699E+01  0.10033138861E+02 -0.64721343643E+01  0.15234429650E+02  0.00000000000E+00 0. -1.
<mgrwt>
<rscale>  1 0.30000000E+03</rscale>
<asrwt>0</asrwt>
<pdfrwt beam="1">  1        1 0.38277283E+00 0.30000000E+03</pdfrwt>
<pdfrwt beam="2">0</pdfrwt>
<totfact> 0.13153759E+00</totfact>
</mgrwt>
</event>
<event>
 6    1  0.5260809E-006  0.3000000E+03  0.7818608E-02  0.1093470E+00
          1   -1    0    0  502    0  0.00000000000E+00  0.00000000000E+00  0.13957184698E+03  0.13957184698E+03  0.00000000000E+00 0.  1.
         13   -1    0    0    0    0 -0.00000000000E+00 -0.00000000000E+00 -0.10000000000E+04  0.10000000000E+04  0.00000000000E+00 0.  1.
    9000005    2    1    2  501    0  0.33785358092E+02  0.48138449993E+01 -0.88175501249E+03  0.10993293513E+04  0.65564357466E+03 0.  0.
         13    1    3    3    0    0  0.97027423832E+02 -0.88811415568E+01 -0.97828100455E+03  0.98312100959E+03  0.00000000000E+00 0.  1.
          3    1    3    3  501    0 -0.63242065740E+02  0.13694986556E+02  0.96525992050E+02  0.11620834169E+03  0.00000000000E+00 0.  1.
         21    1    1    2  502  501 -0.33785358092E+02 -0.48138449993E+01  0.21326859472E+02  0.40242495698E+02  0.00000000000E+00 0. -1.
<mgrwt>
<rscale>  1 0.30000000E+03</rscale>
<asrwt>0</asrwt>
<pdfrwt beam="1">  1        1 0.50753506E+00 0.30000000E+03</pdfrwt>
<pdfrwt beam="2">0</pdfrwt>
<totfact> 0.20111063E-01</totfact>
</mgrwt>
</event>
<event>
 6    1  0.5260809E-006  0.3000000E+03  0.7818608E-02  0.1093470E+00
          1   -1    0    0  502    0  0.00000000000E+00  0.00000000000E+00  0.11551157271E+03  0.11551157271E+03  0.00000000000E+00 0.  1.
         13   -1    0    0    0    0 -0.00000000000E+00 -0.00000000000E+00 -0.10000000000E+04  0.10000000000E+04  0.00000000000E+00 0.  1.
    9000005    2    1    2  501    0 -0.11818809057E+02  0.69146609356E+01 -0.88400575051E+03  0.11018101217E+04  0.65751949059E+03 0.  0.
         13    1    3    3    0    0 -0.11341945046E+03  0.31401848139E+03 -0.43195767698E+03  0.54594781170E+03  0.00000000000E+00 0.  1.
          3    1    3    3  501    0  0.10160064140E+03 -0.30710382046E+03 -0.45204807353E+03  0.55586230997E+03  0.00000000000E+00 0.  1.
         21    1    1    2  502  501  0.11818809057E+02 -0.69146609356E+01 -0.48267678296E+00  0.13701451028E+02  0.00000000000E+00 0.  1.
<mgrwt>
<rscale>  1 0.30000000E+03</rscale>
<asrwt>0</asrwt>
<pdfrwt beam="1">  1        1 0.42004297E+00 0.30000000E+03</pdfrwt>
<pdfrwt beam="2">0</pdfrwt>
<totfact> 0.80153881E-01</totfact>
</mgrwt>
</event>
<event>
 6    1  0.5260809E-006  0.3000000E+03  0.7818608E-02  0.1093470E+00
          1   -1    0    0  502    0  0.00000000000E+00  0.00000000000E+00  0.12137255832E+03  0.12137255832E+03  0.00000000000E+00 0.  1.
         13   -1    0    0    0    0 -0.00000000000E+00 -0.00000000000E+00 -0.10000000000E+04  0.10000000000E+04  0.00000000000E+00 0.  1.
    9000005    2    1    2  501    0 -0.35209353472E+01  0.34926682491E+02 -0.86888535823E+03  0.10849420996E+04  0.64877216610E+03 0.  0.
         13    1    3    3    0    0  0.49398440728E+02  0.29703058680E+03 -0.19189662189E+03  0.35705978341E+03  0.00000000000E+00 0.  1.
          1    1    3    3  501    0 -0.52919376076E+02 -0.26210390431E+03 -0.67698873635E+03  0.72788231615E+03  0.00000000000E+00 0.  1.
         21    1    1    2  502  501  0.35209353472E+01 -0.34926682491E+02 -0.97420834490E+01  0.36430458760E+02  0.00000000000E+00 0. -1.
<mgrwt>
<rscale>  1 0.30000000E+03</rscale>
<asrwt>0</asrwt>
<pdfrwt beam="1">  1        1 0.44135569E+00 0.30000000E+03</pdfrwt>
<pdfrwt beam="2">0</pdfrwt>
<totfact> 0.58735608E-01</totfact>
</mgrwt>
</event>
<event>
 6    1  0.5260809E-006  0.3000000E+03  0.7818608E-02  0.1093470E+00
          1   -1    0    0  502    0  0.00000000000E+00  0.00000000000E+00  0.12081401119E+03  0.12081401119E+03  0.00000000000E+00 0.  1.
         13   -1    0    0    0    0 -0.00000000000E+00 -0.00000000000E+00 -0.10000000000E+04  0.10000000000E+04  0.00000000000E+00 0.  1.
    9000005    2    1    2  501    0  0.22311398144E+02  0.12175297881E+02 -0.88072178619E+03  0.10953504089E+04  0.65075004213E+03 0.  0.
         13    1    3    3    0    0  0.28889360587E+03  0.15242612109E+03 -0.60225465852E+03  0.68513057997E+03  0.00000000000E+00 0.  1.
          1    1    3    3  501    0 -0.26658220773E+03 -0.14025082321E+03 -0.27846712767E+03  0.41021982897E+03  0.00000000000E+00 0.  1.
         21    1    1    2  502  501 -0.22311398144E+02 -0.12175297881E+02  0.15357973755E+01  0.25463602243E+02  0.00000000000E+00 0. -1.
<mgrwt>
<rscale>  1 0.30000000E+03</rscale>
<asrwt>0</asrwt>
<pdfrwt beam="1">  1        1 0.43932460E+00 0.30000000E+03</pdfrwt>
<pdfrwt beam="2">0</pdfrwt>
<totfact> 0.60553253E-01</totfact>
</mgrwt>
</event>
<event>
 6    1  0.5260809E-006  0.3000000E+03  0.7818608E-02  0.1093470E+00
          1   -1    0    0  502    0  0.00000000000E+00  0.00000000000E+00  0.13994151524E+03  0.13994151524E+03  0.00000000000E+00 0.  1.
         13   -1    0    0    0    0 -0.00000000000E+00 -0.00000000000E+00 -0.10000000000E+04  0.10000000000E+04  0.00000000000E+00 0.  1.
    9000005    2    1    2  501    0 -0.13158805402E+02 -0.14844180896E+02 -0.89144709110E+03  0.11028100128E+04  0.64893644083E+03 0.  0.
         13    1    3    3    0    0  0.37008615138E+02  0.87657131662E+02  0.80226664892E+02  0.12445773614E+03  0.00000000000E+00 0.  1.
          1    1    3    3  501    0 -0.50167420540E+02 -0.10250131256E+03 -0.97167375599E+03  0.97835227665E+03  0.00000000000E+00 0.  1.
         21    1    1    2  502  501  0.13158805402E+02  0.14844180896E+02  0.31388606331E+02  0.37131502440E+02  0.00000000000E+00 0.  1.
<mgrwt>
<rscale>  1 0.30000000E+03</rscale>
<asrwt>0</asrwt>
<pdfrwt beam="1">  1        1 0.50887931E+00 0.30000000E+03</pdfrwt>
<pdfrwt beam="2">0</pdfrwt>
<totfact> 0.19660574E-01</totfact>
</mgrwt>
</event>
<event>
 6    1  0.5260809E-006  0.3000000E+03  0.7818608E-02  0.1093470E+00
          1   -1    0    0  502    0  0.00000000000E+00  0.00000000000E+00  0.10913294635E+03  0.10913294635E+03  0.00000000000E+00 0.  1.
         13   -1    0    0    0    0 -0.00000000000E+00 -0.00000000000E+00 -0.10000000000E+04  0.10000000000E+04  0.00000000000E+00 0.  1.
    9000005    2    1    2  501    0 -0.46420313520E+01 -0.84307784203E+01 -0.89032017938E+03  0.10994931564E+04  0.64507561772E+03 0.  0.
         13    1    3    3    0    0  0.24622408331E+03 -0.94910478822E+02 -0.75871809877E+03  0.80329785982E+03  0.00000000000E+00 0.  1.
          3    1    3    3  501    0 -0.25086611466E+03  0.86479700402E+02 -0.13160208061E+03  0.29619529653E+03  0.00000000000E+00 0.  1.
         21    1    1    2  502  501  0.46420313520E+01  0.84307784203E+01 -0.54687426792E+00  0.96397900034E+01  0.00000000000E+00 0.  1.
<mgrwt>
<rscale>  1 0.30000000E+03</rscale>
<asrwt>0</asrwt>
<pdfrwt beam="1">  1        1 0.39684791E+00 0.30000000E+03</pdfrwt>
<pdfrwt beam="2">0</pdfrwt>
<totfact> 0.10974645E+00</totfact>
</mgrwt>
</event>
<event>
 6    1  0.5260809E-006  0.3000000E+03  0.7818608E-02  0.1093470E+00
          1   -1    0    0  502    0  0.00000000000E+00  0.00000000000E+00  0.83445379966E+02  0.83445379966E+02  0.00000000000E+00 0.  1.
         13   -1    0    0    0    0 -0.00000000000E+00 -0.00000000000E+00 -0.10000000000E+04  0.10000000000E+04  0.00000000000E+00 0.  1.
    9000005    2    1    2  501    0  0.66795624728E+01  0.17879073689E+02 -0.90808251651E+03  0.10625634651E+04  0.55141906271E+03 0.  0.
         13    1    3    3    0    0 -0.23102067515E+01  0.79820476047E+02  0.55311035129E+02  0.97138849379E+02  0.00000000000E+00 0.  1.
          1    1    3    3  501    0  0.89897692243E+01 -0.61941402357E+02 -0.96339355164E+03  0.96542461571E+03  0.00000000000E+00 0.  1.
         21    1    1    2  502  501 -0.66795624728E+01 -0.17879073689E+02 -0.84721035216E+01  0.20881914876E+02  0.00000000000E+00 0.  1.
<mgrwt>
<rscale>  1 0.30000000E+03</rscale>
<asrwt>0</asrwt>
<pdfrwt beam="1">  1        1 0.30343839E+00 0.30000000E+03</pdfrwt>
<pdfrwt beam="2">0</pdfrwt>
<totfact> 0.33461061E+00</totfact>
</mgrwt>
</event>
<event>
 6    1  0.5260809E-006  0.3000000E+03  0.7818608E-02  0.1093470E+00
          1   -1    0    0  502    0  0.00000000000E+00  0.00000000000E+00  0.89061719769E+02  0.89061719769E+02  0.00000000000E+00 0.  1.
         13   -1    0    0    0    0 -0.00000000000E+00 -0.00000000000E+00 -0.10000000000E+04  0.10000000000E+04  0.00000000000E+00 0.  1.
    9000005    2    1    2  501    0 -0.20013522323E+02 -0.25414828924E+02 -0.88414165792E+03  0.10470556063E+04  0.55997546082E+03 0.  0.
         13    1    3    3    0    0  0.24346140895E+03  0.42474367943E+02 -0.62173905551E+03  0.66905678587E+03  0.00000000000E+00 0.  1.
          1    1    3    3  501    0 -0.26347493127E+03 -0.67889196867E+02 -0.26240260242E+03  0.37799882039E+03  0.00000000000E+00 0.  1.
         21    1    1    2  502  501  0.20013522323E+02  0.25414828924E+02 -0.26796622306E+02  0.42006113508E+02  0.00000000000E+00 0.  1.
<mgrwt>
<rscale>  1 0.30000000E+03</rscale>
<asrwt>0</asrwt>
<pdfrwt beam="1">  1        1 0.32386148E+00 0.30000000E+03</pdfrwt>
<pdfrwt beam="2">0</pdfrwt>
<totfact> 0.26660321E+00</totfact>
</mgrwt>
</event>
<event>
 6    1  0.5260809E-006  0.3000000E+03  0.7818608E-02  0.1093470E+00
          1   -1    0    0  502    0  0.00000000000E+00  0.00000000000E+00  0.63610345218E+02  0.63610345218E+02  0.00000000000E+00 0.  1.
         13   -1    0    0    0    0 -0.00000000000E+00 -0.00000000000E+00 -0.10000000000E+04  0.10000000000E+04  0.00000000000E+00 0.  1.
    9000005    2    1    2  501    0 -0.19384028895E+02 -0.12230060767E+02 -0.92997741909E+03  0.10398105190E+04  0.46456711075E+03 0.  0.
         13    1    3    3    0    0 -0.19659646660E+03  0.10185672438E+03 -0.28272275742E+03  0.35910600182E+03  0.00000000000E+00 0.  1.
          1    1    3    3  501    0  0.17721243770E+03 -0.11408678515E+03 -0.64725466167E+03  0.68070451715E+03  0.00000000000E+00 0.  1.
         21    1    1    2  502  501  0.19384028895E+02  0.12230060767E+02 -0.64122356908E+01  0.23799826241E+02  0.00000000000E+00 0.  1.
<mgrwt>
<rscale>  1 0.30000000E+03</rscale>
<asrwt>0</asrwt>
<pdfrwt beam="1">  1        1 0.23131083E+00 0.30000000E+03</pdfrwt>
<pdfrwt beam="2">0</pdfrwt>
<totfact> 0.72965952E+00</totfact>
</mgrwt>
</event>
<event>
 6    1  0.5260809E-006  0.3000000E+03  0.7818608E-02  0.1093470E+00
          1   -1    0    0  502    0  0.00000000000E+00  0.00000000000E+00  0.12659560889E+03  0.12659560889E+03  0.00000000000E+00 0.  1.
         13   -1    0    0    0    0 -0.00000000000E+00 -0.00000000000E+00 -0.10000000000E+04  0.10000000000E+04  0.00000000000E+00 0.  1.
    9000005    2    1    2  501    0  0.20297147253E+02 -0.18217600052E+02 -0.85998914693E+03  0.10962011371E+04  0.67921406421E+03 0.  0.
         13    1    3    3    0    0 -0.54293931293E+02 -0.19713721733E+03 -0.87802328056E+03  0.90151860471E+03  0.00000000000E+00 0.  1.
          3    1    3    3  501    0  0.74591078546E+02  0.17891961728E+03  0.18034133630E+02  0.19468253240E+03  0.00000000000E+00 0.  1.
         21    1    1    2  502  501 -0.20297147253E+02  0.18217600052E+02 -0.13415244185E+02  0.30394471781E+02  0.00000000000E+00 0.  1.
<mgrwt>
<rscale>  1 0.30000000E+03</rscale>
<asrwt>0</asrwt>
<pdfrwt beam="1">  1        1 0.46034864E+00 0.30000000E+03</pdfrwt>
<pdfrwt beam="2">0</pdfrwt>
<totfact> 0.43830237E-01</totfact>
</mgrwt>
</event>
<event>
 6    1  0.5260809E-006  0.3000000E+03  0.7818608E-02  0.1093470E+00
          1   -1    0    0  502    0  0.00000000000E+00  0.00000000000E+00  0.12685248386E+03  0.12685248386E+03  0.00000000000E+00 0.  1.
         13   -1    0    0    0    0 -0.00000000000E+00 -0.00000000000E+00 -0.10000000000E+04  0.10000000000E+04  0.00000000000E+00 0.  1.
    9000005    2    1    2  501    0 -0.38675457051E+01  0.12635672399E+02 -0.89186738487E+03  0.11039384792E+04  0.65044455216E+03 0.  0.
         13    1    3    3    0    0 -0.22839150258E+03 -0.22452489398E+03 -0.50060693812E+03  0.59429068053E+03  0.00000000000E+00 0.  1.
          1    1    3    3  501    0  0.22452395688E+03  0.23716056637E+03 -0.39126044674E+03  0.50964779862E+03  0.00000000000E+00 0.  1.
         21    1    1    2  502  501  0.38675457051E+01 -0.12635672399E+02  0.18719868727E+02  0.22914004711E+02  0.00000000000E+00 0. -1.
<mgrwt>
<rscale>  1 0.30000000E+03</rscale>
<asrwt>0</asrwt>
<pdfrwt beam="1">  1        1 0.46128273E+00 0.30000000E+03</pdfrwt>
<pdfrwt beam="2">0</pdfrwt>
<totfact> 0.43195289E-01</totfact>
</mgrwt>
</event>
<event>
 6    1  0.5260809E-006  0.3000000E+03  0.7818608E-02  0.1093470E+00
          1   -1    0    0  502    0  0.00000000000E+00  0.00000000000E+00  0.10612810863E+03  0.10612810863E+03  0.00000000000E+00 0.  1.
         13   -1    0    0    0    0 -0.00000000000E+00 -0.00000000000E+00 -0.10000000000E+04  0.10000000000E+04  0.00000000000E+00 0.  1.
    9000005    2    1    2  501    0  0.26965726483E+02 -0.23579369928E+02 -0.86574134661E+03  0.10605818175E+04  0.61159020201E+03 0.  0.
         13    1    3    3    0    0  0.12035441275E+03  0.20128744716E+03 -0.75957137255E+03  0.79495313764E+03  0.00000000000E+00 0.  1.
          1    1    3    3  501    0 -0.93388686263E+02 -0.22486681708E+03 -0.10616997406E+03  0.26562867981E+03  0.00000000000E+00 0.  1.
         21    1    1    2  502  501 -0.26965726483E+02  0.23579369928E+02 -0.28130544762E+02  0.45546291172E+02  0.00000000000E+00 0.  1.
<mgrwt>
<rscale>  1 0.30000000E+03</rscale>
<asrwt>0</asrwt>
<pdfrwt beam="1">  1        1 0.38592121E+00 0.30000000E+03</pdfrwt>
<pdfrwt beam="2">0</pdfrwt>
<totfact> 0.12636468E+00</totfact>
</mgrwt>
</event>
<event>
 6    1  0.5260809E-006  0.3000000E+03  0.7818608E-02  0.1093470E+00
          1   -1    0    0  502    0  0.00000000000E+00  0.00000000000E+00  0.12793253971E+03  0.12793253971E+03  0.00000000000E+00 0.  1.
         13   -1    0    0    0    0 -0.00000000000E+00 -0.00000000000E+00 -0.10000000000E+04  0.10000000000E+04  0.00000000000E+00 0.  1.
    9000005    2    1    2  501    0  0.18167002591E+02 -0.32150702244E+01 -0.88947225767E+03  0.11025691087E+04  0.65127364885E+03 0.  0.
         13    1    3    3    0    0 -0.22116734273E+03 -0.16103271324E+02 -0.82512071438E+03  0.85439949797E+03  0.00000000000E+00 0.  1.
          1    1    3    3  501    0  0.23933434532E+03  0.12888201100E+02 -0.64351543291E+02  0.24816961075E+03  0.00000000000E+00 0.  1.
         21    1    1    2  502  501 -0.18167002591E+02  0.32150702244E+01  0.17404797376E+02  0.25363430986E+02  0.00000000000E+00 0.  1.
<mgrwt>
<rscale>  1 0.30000000E+03</rscale>
<asrwt>0</asrwt>
<pdfrwt beam="1">  1        1 0.46521022E+00 0.30000000E+03</pdfrwt>
<pdfrwt beam="2">0</pdfrwt>
<totfact> 0.40602535E-01</totfact>
</mgrwt>
</event>
<event>
 6    1  0.5260809E-006  0.3000000E+03  0.7818608E-02  0.1093470E+00
          1   -1    0    0  502    0  0.00000000000E+00  0.00000000000E+00  0.11338726714E+03  0.11338726714E+03  0.00000000000E+00 0.  1.
         13   -1    0    0    0    0 -0.00000000000E+00 -0.00000000000E+00 -0.10000000000E+04  0.10000000000E+04  0.00000000000E+00 0.  1.
    9000005    2    1    2  501    0 -0.11033626958E+02  0.96648253766E+01 -0.88183661777E+03  0.10979612810E+04  0.65396330503E+03 0.  0.
         13    1    3    3    0    0  0.11267817393E+02 -0.23235120329E+03 -0.81261318724E+03  0.84525394850E+03  0.00000000000E+00 0.  1.
          1    1    3    3  501    0 -0.22301444351E+02  0.24201602867E+03 -0.69223430526E+02  0.25270733248E+03  0.00000000000E+00 0.  1.
         21    1    1    2  502  501  0.11033626958E+02 -0.96648253766E+01 -0.47761150958E+01  0.15425986154E+02  0.00000000000E+00 0. -1.
<mgrwt>
<rscale>  1 0.30000000E+03</rscale>
<asrwt>0</asrwt>
<pdfrwt beam="1">  1        1 0.41231820E+00 0.30000000E+03</pdfrwt>
<pdfrwt beam="2">0</pdfrwt>
<totfact> 0.89261120E-01</totfact>
</mgrwt>
</event>
<event>
 6    1  0.5260809E-006  0.3000000E+03  0.7818608E-02  0.1093470E+00
          1   -1    0    0  502    0  0.00000000000E+00  0.00000000000E+00  0.86296416120E+02  0.86296416120E+02  0.00000000000E+00 0.  1.
         13   -1    0    0    0    0 -0.00000000000E+00 -0.00000000000E+00 -0.10000000000E+04  0.10000000000E+04  0.00000000000E+00 0.  1.
    9000005    2    1    2  501    0 -0.73691193212E+01  0.94489908509E+01 -0.91974350255E+03  0.10728774756E+04  0.55226296252E+03 0.  0.
         13    1    3    3    0    0  0.25903255865E+03  0.65480355567E+02 -0.57137648006E+03  0.63075876956E+03  0.00000000000E+00 0.  1.
          1    1    3    3  501    0 -0.26640167797E+03 -0.56031364716E+02 -0.34836702249E+03  0.44211870602E+03  0.00000000000E+00 0.  1.
         21    1    1    2  502  501  0.73691193212E+01 -0.94489908509E+01  0.60399186713E+01  0.13418940540E+02  0.00000000000E+00 0.  1.
<mgrwt>
<rscale>  1 0.30000000E+03</rscale>
<asrwt>0</asrwt>
<pdfrwt beam="1">  1        1 0.31380581E+00 0.30000000E+03</pdfrwt>
<pdfrwt beam="2">0</pdfrwt>
<totfact> 0.29841513E+00</totfact>
</mgrwt>
</event>
<event>
 6    1  0.5260809E-006  0.3000000E+03  0.7818608E-02  0.1093470E+00
          1   -1    0    0  502    0  0.00000000000E+00  0.00000000000E+00  0.13879480490E+03  0.13879480490E+03  0.00000000000E+00 0.  1.
         13   -1    0    0    0    0 -0.00000000000E+00 -0.00000000000E+00 -0.10000000000E+04  0.10000000000E+04  0.00000000000E+00 0.  1.
    9000005    2    1    2  501    0 -0.18060188554E+02  0.12289810488E+02 -0.89025815581E+03  0.11024453293E+04  0.64988376668E+03 0.  0.
         13    1    3    3    0    0  0.55307854890E+02 -0.19296916514E+03 -0.85911385272E+03  0.88225431109E+03  0.00000000000E+00 0.  1.
          1    1    3    3  501    0 -0.73368043444E+02  0.20525897563E+03 -0.31144303094E+02  0.22019101818E+03  0.00000000000E+00 0.  1.
         21    1    1    2  502  501  0.18060188554E+02 -0.12289810488E+02  0.29052960712E+02  0.36349475630E+02  0.00000000000E+00 0.  1.
<mgrwt>
<rscale>  1 0.30000000E+03</rscale>
<asrwt>0</asrwt>
<pdfrwt beam="1">  1        1 0.50470945E+00 0.30000000E+03</pdfrwt>
<pdfrwt beam="2">0</pdfrwt>
<totfact> 0.21091002E-01</totfact>
</mgrwt>
</event>
<event>
 6    1  0.5260809E-006  0.3000000E+03  0.7818608E-02  0.1093470E+00
          1   -1    0    0  502    0  0.00000000000E+00  0.00000000000E+00  0.11165703971E+03  0.11165703971E+03  0.00000000000E+00 0.  1.
         13   -1    0    0    0    0 -0.00000000000E+00 -0.00000000000E+00 -0.10000000000E+04  0.10000000000E+04  0.00000000000E+00 0.  1.
    9000005    2    1    2  501    0  0.84602839214E+01 -0.50541559296E+01 -0.88684145877E+03  0.11016883185E+04  0.65355356107E+03 0.  0.
         13    1    3    3    0    0 -0.31826006503E+03  0.47963461081E+02 -0.41032958544E+03  0.52149816038E+03  0.00000000000E+00 0.  1.
          1    1    3    3  501    0  0.32672034895E+03 -0.53017617011E+02 -0.47651187333E+03  0.58019015810E+03  0.00000000000E+00 0.  1.
         21    1    1    2  502  501 -0.84602839214E+01  0.50541559296E+01 -0.15015015170E+01  0.99687212317E+01  0.00000000000E+00 0.  1.
<mgrwt>
<rscale>  1 0.30000000E+03</rscale>
<asrwt>0</asrwt>
<pdfrwt beam="1">  1        1 0.40602646E+00 0.30000000E+03</pdfrwt>
<pdfrwt beam="2">0</pdfrwt>
<totfact> 0.97219892E-01</totfact>
</mgrwt>
</event>
<event>
 6    1  0.5260809E-006  0.3000000E+03  0.7818608E-02  0.1093470E+00
          1   -1    0    0  502    0  0.00000000000E+00  0.00000000000E+00  0.14073090832E+03  0.14073090832E+03  0.00000000000E+00 0.  1.
         13   -1    0    0    0    0 -0.00000000000E+00 -0.00000000000E+00 -0.10000000000E+04  0.10000000000E+04  0.00000000000E+00 0.  1.
    9000005    2    1    2  501    0 -0.10804412860E+02  0.10413425395E+02 -0.89062725025E+03  0.11059672941E+04  0.65553152628E+03 0.  0.
         13    1    3    3    0    0  0.64559060945E+02 -0.31436957749E+03 -0.47245888717E+03  0.57115103402E+03  0.00000000000E+00 0.  1.
          1    1    3    3  501    0 -0.75363473805E+02  0.32478300289E+03 -0.41816836308E+03  0.53481626006E+03  0.00000000000E+00 0.  1.
         21    1    1    2  502  501  0.10804412860E+02 -0.10413425395E+02  0.31358158573E+02  0.34763614236E+02  0.00000000000E+00 0.  1.
<mgrwt>
<rscale>  1 0.30000000E+03</rscale>
<asrwt>0</asrwt>
<pdfrwt beam="1">  1        1 0.51174984E+00 0.30000000E+03</pdfrwt>
<pdfrwt beam="2">0</pdfrwt>
<totfact> 0.18728424E-01</totfact>
</mgrwt>
</event>
<event>
 6    1  0.5260809E-006  0.3000000E+03  0.7818608E-02  0.1093470E+00
          1   -1    0    0  502    0  0.00000000000E+00  0.00000000000E+00  0.12771299646E+03  0.12771299646E+03  0.00000000000E+00 0.  1.
         13   -1    0    0    0    0 -0.00000000000E+00 -0.00000000000E+00 -0.10000000000E+04  0.10000000000E+04  0.00000000000E+00 0.  1.
    9000005    2    1    2  501    0 -0.11310404237E+03  0.77189994167E+02 -0.84357888788E+03  0.98780239820E+03  0.49535585010E+03 0.  0.
         13    1    3    3    0    0 -0.74351437397E+02  0.19333626435E+03 -0.84015536425E+03  0.86531386412E+03  0.00000000000E+00 0.  1.
          1    1    3    3  501    0 -0.38752604971E+02 -0.11614627018E+03 -0.34235236247E+01  0.12248853409E+03  0.00000000000E+00 0.  1.
         21    1    1    2  502  501  0.11310404237E+03 -0.77189994167E+02 -0.28708115665E+02  0.13991059826E+03  0.00000000000E+00 0.  1.
<mgrwt>
<rscale>  1 0.30000000E+03</rscale>
<asrwt>0</asrwt>
<pdfrwt beam="1">  1        1 0.46441188E+00 0.30000000E+03</pdfrwt>
<pdfrwt beam="2">0</pdfrwt>
<totfact> 0.41120109E-01</totfact>
</mgrwt>
</event>
<event>
 6    1  0.5260809E-006  0.3000000E+03  0.7818608E-02  0.1093470E+00
          1   -1    0    0  502    0  0.00000000000E+00  0.00000000000E+00  0.12334794592E+03  0.12334794592E+03  0.00000000000E+00 0.  1.
         13   -1    0    0    0    0 -0.00000000000E+00 -0.00000000000E+00 -0.10000000000E+04  0.10000000000E+04  0.00000000000E+00 0.  1.
    9000005    2    1    2  501    0  0.10326340202E+02 -0.31364718685E+01 -0.89019993738E+03  0.11060269789E+04  0.65629511557E+03 0.  0.
         13    1    3    3    0    0  0.10886075626E+03  0.69114017982E+02 -0.95776432430E+03  0.96640566670E+03  0.00000000000E+00 0.  1.
          3    1    3    3  501    0 -0.98534416059E+02 -0.72250489850E+02  0.67564386921E+02  0.13962131217E+03  0.00000000000E+00 0.  1.
         21    1    1    2  502  501 -0.10326340202E+02  0.31364718685E+01  0.13547883294E+02  0.17320967049E+02  0.00000000000E+00 0.  1.
<mgrwt>
<rscale>  1 0.30000000E+03</rscale>
<asrwt>0</asrwt>
<pdfrwt beam="1">  1        1 0.44853893E+00 0.30000000E+03</pdfrwt>
<pdfrwt beam="2">0</pdfrwt>
<totfact> 0.52629976E-01</totfact>
</mgrwt>
</event>
<event>
 6    1  0.5260809E-006  0.3000000E+03  0.7818608E-02  0.1093470E+00
          1   -1    0    0  502    0  0.00000000000E+00  0.00000000000E+00  0.12114816336E+03  0.12114816336E+03  0.00000000000E+00 0.  1.
         13   -1    0    0    0    0 -0.00000000000E+00 -0.00000000000E+00 -0.10000000000E+04  0.10000000000E+04  0.00000000000E+00 0.  1.
    9000005    2    1    2  501    0 -0.15328283112E+02  0.14111018311E+02 -0.88696414405E+03  0.10987900187E+04  0.64822838204E+03 0.  0.
         13    1    3    3    0    0 -0.31625532945E+03  0.10209700379E+03 -0.50643440410E+03  0.60573677224E+03  0.00000000000E+00 0.  1.
          3    1    3    3  501    0  0.30092704634E+03 -0.87985985482E+02 -0.38052973994E+03  0.49305324646E+03  0.00000000000E+00 0.  1.
         21    1    1    2  502  501  0.15328283112E+02 -0.14111018311E+02  0.81123074003E+01  0.22358144652E+02  0.00000000000E+00 0.  1.
<mgrwt>
<rscale>  1 0.30000000E+03</rscale>
<asrwt>0</asrwt>
<pdfrwt beam="1">  1        1 0.44053970E+00 0.30000000E+03</pdfrwt>
<pdfrwt beam="2">0</pdfrwt>
<totfact> 0.59461062E-01</totfact>
</mgrwt>
</event>
<event>
 6    1  0.5260809E-006  0.3000000E+03  0.7818608E-02  0.1093470E+00
          1   -1    0    0  502    0  0.00000000000E+00  0.00000000000E+00  0.12659687153E+03  0.12659687153E+03  0.00000000000E+00 0.  1.
         13   -1    0    0    0    0 -0.00000000000E+00 -0.00000000000E+00 -0.10000000000E+04  0.10000000000E+04  0.00000000000E+00 0.  1.
    9000005    2    1    2  501    0 -0.96791785330E+01 -0.77106902330E+01 -0.88028774981E+03  0.11124356833E+04  0.68003932666E+03 0.  0.
         13    1    3    3    0    0  0.20854569590E+03  0.24159129595E+03 -0.27012279956E+03  0.41811958624E+03  0.00000000000E+00 0.  1.
          1    1    3    3  501    0 -0.21822487444E+03 -0.24930198618E+03 -0.61016495025E+03  0.69431609707E+03  0.00000000000E+00 0.  1.
         21    1    1    2  502  501  0.96791785330E+01  0.77106902330E+01  0.68846213400E+01  0.14161188225E+02  0.00000000000E+00 0. -1.
<mgrwt>
<rscale>  1 0.30000000E+03</rscale>
<asrwt>0</asrwt>
<pdfrwt beam="1">  1        1 0.46035323E+00 0.30000000E+03</pdfrwt>
<pdfrwt beam="2">0</pdfrwt>
<totfact> 0.43827098E-01</totfact>
</mgrwt>
</event>
<event>
 6    1  0.5260809E-006  0.3000000E+03  0.7818608E-02  0.1093470E+00
          1   -1    0    0  502    0  0.00000000000E+00  0.00000000000E+00  0.11200700347E+03  0.11200700347E+03  0.00000000000E+00 0.  1.
         13   -1    0    0    0    0 -0.00000000000E+00 -0.00000000000E+00 -0.10000000000E+04  0.10000000000E+04  0.00000000000E+00 0.  1.
    9000005    2    1    2  501    0  0.23236698476E+01  0.13874514106E+02 -0.88286294670E+03  0.10970330596E+04  0.65102738012E+03 0.  0.
         13    1    3    3    0    0  0.22955371410E+03  0.23537121169E+03 -0.51749555932E+03  0.61310371787E+03  0.00000000000E+00 0.  1.
          3    1    3    3  501    0 -0.22723004425E+03 -0.22149669758E+03 -0.36536738738E+03  0.48392934175E+03  0.00000000000E+00 0.  1.
         21    1    1    2  502  501 -0.23236698476E+01 -0.13874514106E+02 -0.51300498326E+01  0.14973943853E+02  0.00000000000E+00 0.  1.
<mgrwt>
<rscale>  1 0.30000000E+03</rscale>
<asrwt>0</asrwt>
<pdfrwt beam="1">  1        1 0.40729905E+00 0.30000000E+03</pdfrwt>
<pdfrwt beam="2">0</pdfrwt>
<totfact> 0.95569367E-01</totfact>
</mgrwt>
</event>
<event>
 6    1  0.5260809E-006  0.3000000E+03  0.7818608E-02  0.1093470E+00
          1   -1    0    0  502    0  0.00000000000E+00  0.00000000000E+00  0.14224102239E+03  0.14224102239E+03  0.00000000000E+00 0.  1.
         13   -1    0    0    0    0 -0.00000000000E+00 -0.00000000000E+00 -0.10000000000E+04  0.10000000000E+04  0.00000000000E+00 0.  1.
    9000005    2    1    2  501    0  0.84986916951E+02  0.11434332275E+02 -0.81203239126E+03  0.10450585100E+04  0.65222478099E+03 0.  0.
         13    1    3    3    0    0  0.15456961958E+03  0.23676571090E+03 -0.74952445774E+03  0.80108469085E+03  0.00000000000E+00 0.  1.
          1    1    3    3  501    0 -0.69582702632E+02 -0.22533137862E+03 -0.62507933521E+02  0.24397381919E+03  0.00000000000E+00 0.  1.
         21    1    1    2  502  501 -0.84986916951E+02 -0.11434332275E+02 -0.45726586349E+02  0.97182512349E+02  0.00000000000E+00 0.  1.
<mgrwt>
<rscale>  1 0.30000000E+03</rscale>
<asrwt>0</asrwt>
<pdfrwt beam="1">  1        1 0.51724117E+00 0.30000000E+03</pdfrwt>
<pdfrwt beam="2">0</pdfrwt>
<totfact> 0.17047162E-01</totfact>
</mgrwt>
</event>
<event>
 6    1  0.5260809E-006  0.3000000E+03  0.7818608E-02  0.1093470E+00
          1   -1    0    0  502    0  0.00000000000E+00  0.00000000000E+00  0.10976940688E+03  0.10976940688E+03  0.00000000000E+00 0.  1.
         13   -1    0    0    0    0 -0.00000000000E+00 -0.00000000000E+00 -0.10000000000E+04  0.10000000000E+04  0.00000000000E+00 0.  1.
    9000005    2    1    2  501    0  0.11700709877E+02  0.52236607698E+01 -0.89260004687E+03  0.10967383841E+04  0.63713110602E+03 0.  0.
         13    1    3    3    0    0  0.10474710923E+03 -0.16984498908E+03 -0.87526392281E+03  0.89772279228E+03  0.00000000000E+00 0.  1.
          1    1    3    3  501    0 -0.93046399348E+02  0.17506864985E+03 -0.17336124062E+02  0.19901559183E+03  0.00000000000E+00 0.  1.
         21    1    1    2  502  501 -0.11700709877E+02 -0.52236607698E+01  0.23694537533E+01  0.13031022775E+02  0.00000000000E+00 0.  1.
<mgrwt>
<rscale>  1 0.30000000E+03</rscale>
<asrwt>0</asrwt>
<pdfrwt beam="1">  1        1 0.39916232E+00 0.30000000E+03</pdfrwt>
<pdfrwt beam="2">0</pdfrwt>
<totfact> 0.10648022E+00</totfact>
</mgrwt>
</event>
<event>
 6    1  0.5260809E-006  0.3000000E+03  0.7818608E-02  0.1093470E+00
          1   -1    0    0  502    0  0.00000000000E+00  0.00000000000E+00  0.10808821182E+03  0.10808821182E+03  0.00000000000E+00 0.  1.
         13   -1    0    0    0    0 -0.00000000000E+00 -0.00000000000E+00 -0.10000000000E+04  0.10000000000E+04  0.00000000000E+00 0.  1.
    9000005    2    1    2  501    0  0.46400973310E+01 -0.83335879977E+01 -0.89063348491E+03  0.10984646339E+04  0.64288845716E+03 0.  0.
         13    1    3    3    0    0 -0.27454002630E+03  0.97201563683E+02 -0.22187171446E+03  0.36612487992E+03  0.00000000000E+00 0.  1.
          1    1    3    3  501    0  0.27918012363E+03 -0.10553515168E+03 -0.66876177046E+03  0.73233975400E+03  0.00000000000E+00 0.  1.
         21    1    1    2  502  501 -0.46400973310E+01  0.83335879977E+01 -0.12783032694E+01  0.96235778899E+01  0.00000000000E+00 0. -1.
<mgrwt>
<rscale>  1 0.30000000E+03</rscale>
<asrwt>0</asrwt>
<pdfrwt beam="1">  1        1 0.39304887E+00 0.30000000E+03</pdfrwt>
<pdfrwt beam="2">0</pdfrwt>
<totfact> 0.11529062E+00</totfact>
</mgrwt>
</event>
<event>
 6    1  0.5260809E-006  0.3000000E+03  0.7818608E-02  0.1093470E+00
          1   -1    0    0  502    0  0.00000000000E+00  0.00000000000E+00  0.11498966750E+03  0.11498966750E+03  0.00000000000E+00 0.  1.
         13   -1    0    0    0    0 -0.00000000000E+00 -0.00000000000E+00 -0.10000000000E+04  0.10000000000E+04  0.00000000000E+00 0.  1.
    9000005    2    1    2  501    0  0.37999755134E+01 -0.14782514721E+02 -0.88551993764E+03  0.10997180516E+04  0.65192121492E+03 0.  0.
         13    1    3    3    0    0  0.29071019938E+03  0.14244690116E+03 -0.47375595102E+03  0.57380156918E+03  0.00000000000E+00 0.  1.
          1    1    3    3  501    0 -0.28691022387E+03 -0.15722941588E+03 -0.41176398662E+03  0.52591648240E+03  0.00000000000E+00 0.  1.
         21    1    1    2  502  501 -0.37999755134E+01  0.14782514721E+02  0.50960513384E+00  0.15271615919E+02  0.00000000000E+00 0.  1.
<mgrwt>
<rscale>  1 0.30000000E+03</rscale>
<asrwt>0</asrwt>
<pdfrwt beam="1">  1        1 0.41814513E+00 0.30000000E+03</pdfrwt>
<pdfrwt beam="2">0</pdfrwt>
<totfact> 0.82328499E-01</totfact>
</mgrwt>
</event>
<event>
 6    1  0.5260809E-006  0.3000000E+03  0.7818608E-02  0.1093470E+00
          1   -1    0    0  502    0  0.00000000000E+00  0.00000000000E+00  0.11844799562E+03  0.11844799562E+03  0.00000000000E+00 0.  1.
         13   -1    0    0    0    0 -0.00000000000E+00 -0.00000000000E+00 -0.10000000000E+04  0.10000000000E+04  0.00000000000E+00 0.  1.
    9000005    2    1    2  501    0 -0.90775192176E+01  0.15192989772E+02 -0.88996192887E+03  0.10988532228E+04  0.64430811111E+03 0.  0.
         13    1    3    3    0    0  0.42764175383E+02 -0.30665093601E+03 -0.34267032218E+03  0.46182953669E+03  0.00000000000E+00 0.  1.
          3    1    3    3  501    0 -0.51841694600E+02  0.32184392579E+03 -0.54729160669E+03  0.63702368607E+03  0.00000000000E+00 0.  1.
         21    1    1    2  502  501  0.90775192176E+01 -0.15192989772E+02  0.84099244865E+01  0.19594772855E+02  0.00000000000E+00 0. -1.
<mgrwt>
<rscale>  1 0.30000000E+03</rscale>
<asrwt>0</asrwt>
<pdfrwt beam="1">  1        1 0.43072089E+00 0.30000000E+03</pdfrwt>
<pdfrwt beam="2">0</pdfrwt>
<totfact> 0.68740916E-01</totfact>
</mgrwt>
</event>
<event>
 6    1  0.5260809E-006  0.3000000E+03  0.7818608E-02  0.1093470E+00
          1   -1    0    0  502    0  0.00000000000E+00  0.00000000000E+00  0.11286698497E+03  0.11286698497E+03  0.00000000000E+00 0.  1.
         13   -1    0    0    0    0 -0.00000000000E+00 -0.00000000000E+00 -0.10000000000E+04  0.10000000000E+04  0.00000000000E+00 0.  1.
    9000005    2    1    2  501    0 -0.14694400007E+02 -0.11520019141E+02 -0.86217705603E+03  0.10816991149E+04  0.65297401409E+03 0.  0.
         13    1    3    3    0    0 -0.70321979159E+02 -0.30940537177E+03 -0.60948867591E+03  0.68713412875E+03  0.00000000000E+00 0.  1.
          1    1    3    3  501    0  0.55627579152E+02  0.29788535263E+03 -0.25268838012E+03  0.39456498618E+03  0.00000000000E+00 0.  1.
         21    1    1    2  502  501  0.14694400007E+02  0.11520019141E+02 -0.24955959005E+02  0.31167870034E+02  0.00000000000E+00 0.  1.
<mgrwt>
<rscale>  1 0.30000000E+03</rscale>
<asrwt>0</asrwt>
<pdfrwt beam="1">  1        1 0.41042627E+00 0.30000000E+03</pdfrwt>
<pdfrwt beam="2">0</pdfrwt>
<totfact> 0.91601556E-01</totfact>
</mgrwt>
</event>
<event>
 6    1  0.5260809E-006  0.3000000E+03  0.7818608E-02  0.1093470E+00
          1   -1    0    0  502    0  0.00000000000E+00  0.00000000000E+00  0.11048097093E+03  0.11048097093E+03  0.00000000000E+00 0.  1.
         13   -1    0    0    0    0 -0.00000000000E+00 -0.00000000000E+00 -0.10000000000E+04  0.10000000000E+04  0.00000000000E+00 0.  1.
    9000005    2    1    2  501    0  0.85883863766E+01 -0.10098474992E+02 -0.91950215732E+03  0.10776979333E+04  0.56193672111E+03 0.  0.
         13    1    3    3    0    0  0.40588262710E+01 -0.19334430758E+03 -0.86516049225E+03  0.88651067263E+03  0.00000000000E+00 0.  1.
          3    1    3    3  501    0  0.45295601056E+01  0.18324583258E+03 -0.54341665064E+02  0.19118726065E+03  0.00000000000E+00 0.  1.
         21    1    1    2  502  501 -0.85883863766E+01  0.10098474992E+02  0.29983128246E+02  0.32783037644E+02  0.00000000000E+00 0.  1.
<mgrwt>
<rscale>  1 0.30000000E+03</rscale>
<asrwt>0</asrwt>
<pdfrwt beam="1">  1        1 0.40174983E+00 0.30000000E+03</pdfrwt>
<pdfrwt beam="2">0</pdfrwt>
<totfact> 0.10291842E+00</totfact>
</mgrwt>
</event>
<event>
 6    1  0.5260809E-006  0.3000000E+03  0.7818608E-02  0.1093470E+00
          1   -1    0    0  502    0  0.00000000000E+00  0.00000000000E+00  0.11336677153E+03  0.11336677153E+03  0.00000000000E+00 0.  1.
         13   -1    0    0    0    0 -0.00000000000E+00 -0.00000000000E+00 -0.10000000000E+04  0.10000000000E+04  0.00000000000E+00 0.  1.
    9000005    2    1    2  501    0 -0.94980639707E+01  0.48383900562E+01 -0.88780631437E+03  0.11026429957E+04  0.65384088346E+03 0.  0.
         13    1    3    3    0    0  0.27914815686E+03  0.61850309486E+02 -0.69329162603E+03  0.74993495250E+03  0.00000000000E+00 0.  1.
          3    1    3    3  501    0 -0.28864622083E+03 -0.57011919430E+02 -0.19451468835E+03  0.35270804320E+03  0.00000000000E+00 0.  1.
         21    1    1    2  502  501  0.94980639707E+01 -0.48383900562E+01  0.11730859034E+01  0.10723775831E+02  0.00000000000E+00 0. -1.
<mgrwt>
<rscale>  1 0.30000000E+03</rscale>
<asrwt>0</asrwt>
<pdfrwt beam="1">  1        1 0.41224367E+00 0.30000000E+03</pdfrwt>
<pdfrwt beam="2">0</pdfrwt>
<totfact> 0.89352469E-01</totfact>
</mgrwt>
</event>
<event>
 6    1  0.5260809E-006  0.3000000E+03  0.7818608E-02  0.1093470E+00
          1   -1    0    0  502    0  0.00000000000E+00  0.00000000000E+00  0.11395005690E+03  0.11395005690E+03  0.00000000000E+00 0.  1.
         13   -1    0    0    0    0 -0.00000000000E+00 -0.00000000000E+00 -0.10000000000E+04  0.10000000000E+04  0.00000000000E+00 0.  1.
    9000005    2    1    2  501    0 -0.11318209273E+02  0.38237821685E+01 -0.89161790500E+03  0.11007695648E+04  0.64542112082E+03 0.  0.
         13    1    3    3    0    0  0.20053692522E+02 -0.95446061412E+02 -0.96720796722E+03  0.97211282940E+03  0.00000000000E+00 0.  1.
          3    1    3    3  501    0 -0.31371901795E+02  0.99269843581E+02  0.75590062228E+02  0.12865673544E+03  0.00000000000E+00 0.  1.
         21    1    1    2  502  501  0.11318209273E+02 -0.38237821685E+01  0.55679618985E+01  0.13180492060E+02  0.00000000000E+00 0. -1.
<mgrwt>
<rscale>  1 0.30000000E+03</rscale>
<asrwt>0</asrwt>
<pdfrwt beam="1">  1        1 0.41436472E+00 0.30000000E+03</pdfrwt>
<pdfrwt beam="2">0</pdfrwt>
<totfact> 0.86779741E-01</totfact>
</mgrwt>
</event>
<event>
 6    1  0.5260809E-006  0.3000000E+03  0.7818608E-02  0.1093470E+00
          1   -1    0    0  502    0  0.00000000000E+00  0.00000000000E+00  0.10800707626E+03  0.10800707626E+03  0.00000000000E+00 0.  1.
         13   -1    0    0    0    0 -0.00000000000E+00 -0.00000000000E+00 -0.10000000000E+04  0.10000000000E+04  0.00000000000E+00 0.  1.
    9000005    2    1    2  501    0 -0.12536012079E+01 -0.98260455381E+01 -0.87669016643E+03  0.10897780590E+04  0.64724991107E+03 0.  0.
         13    1    3    3    0    0  0.39493864752E+02  0.89445374198E+02 -0.95306358460E+03  0.95806598761E+03  0.00000000000E+00 0.  1.
          3    1    3    3  501    0 -0.40747465960E+02 -0.99271419736E+02  0.76373418175E+02  0.13171207144E+03  0.00000000000E+00 0.  1.
         21    1    1    2  502  501  0.12536012079E+01  0.98260455381E+01 -0.15302757316E+02  0.18229017208E+02  0.00000000000E+00 0. -1.
<mgrwt>
<rscale>  1 0.30000000E+03</rscale>
<asrwt>0</asrwt>
<pdfrwt beam="1">  1        1 0.39275383E+00 0.30000000E+03</pdfrwt>
<pdfrwt beam="2">0</pdfrwt>
<totfact> 0.11573143E+00</totfact>
</mgrwt>
</event>
<event>
 6    1  0.5260809E-006  0.3000000E+03  0.7818608E-02  0.1093470E+00
          1   -1    0    0  502    0  0.00000000000E+00  0.00000000000E+00  0.76943227981E+02  0.76943227981E+02  0.00000000000E+00 0.  1.
         13   -1    0    0    0    0 -0.00000000000E+00 -0.00000000000E+00 -0.10000000000E+04  0.10000000000E+04  0.00000000000E+00 0.  1.
    9000005    2    1    2  501    0 -0.13211759071E+02  0.57048193018E+01 -0.90093974639E+03  0.10505565199E+04  0.54015690251E+03 0.  0.
         13    1    3    3    0    0  0.10316024774E+03 -0.23164054549E+03 -0.29210622294E+03  0.38681445747E+03  0.00000000000E+00 0.  1.
          1    1    3    3  501    0 -0.11637200681E+03  0.23734536479E+03 -0.60883352345E+03  0.66374206242E+03  0.00000000000E+00 0.  1.
         21    1    1    2  502  501  0.13211759071E+02 -0.57048193018E+01 -0.22117025633E+02  0.26386708091E+02  0.00000000000E+00 0.  1.
<mgrwt>
<rscale>  1 0.30000000E+03</rscale>
<asrwt>0</asrwt>
<pdfrwt beam="1">  1        1 0.27979415E+00 0.30000000E+03</pdfrwt>
<pdfrwt beam="2">0</pdfrwt>
<totfact> 0.43275857E+00</totfact>
</mgrwt>
</event>
<event>
 6    1  0.5260809E-006  0.3000000E+03  0.7818608E-02  0.1093470E+00
          1   -1    0    0  502    0  0.00000000000E+00  0.00000000000E+00  0.11360466452E+03  0.11360466452E+03  0.00000000000E+00 0.  1.
         13   -1    0    0    0    0 -0.00000000000E+00 -0.00000000000E+00 -0.10000000000E+04  0.10000000000E+04  0.00000000000E+00 0.  1.
    9000005    2    1    2  501    0  0.54996521437E+01 -0.67971963080E+01 -0.88037496571E+03  0.11029889731E+04  0.66441564292E+03 0.  0.
         13    1    3    3    0    0  0.19143174094E+03  0.22580049836E+03 -0.19165933426E+03  0.35265461419E+03  0.00000000000E+00 0.  1.
          3    1    3    3  501    0 -0.18593208880E+03 -0.23259769467E+03 -0.68871563145E+03  0.75033435895E+03  0.00000000000E+00 0.  1.
         21    1    1    2  502  501 -0.54996521437E+01  0.67971963080E+01 -0.60203697708E+01  0.10615691382E+02  0.00000000000E+00 0.  1.
<mgrwt>
<rscale>  1 0.30000000E+03</rscale>
<asrwt>0</asrwt>
<pdfrwt beam="1">  1        1 0.41310874E+00 0.30000000E+03</pdfrwt>
<pdfrwt beam="2">0</pdfrwt>
<totfact> 0.88296440E-01</totfact>
</mgrwt>
</event>
<event>
 6    1  0.5260809E-006  0.3000000E+03  0.7818608E-02  0.1093470E+00
          1   -1    0    0  502    0  0.00000000000E+00  0.00000000000E+00  0.12515527515E+03  0.12515527515E+03  0.00000000000E+00 0.  1.
         13   -1    0    0    0    0 -0.00000000000E+00 -0.00000000000E+00 -0.10000000000E+04  0.10000000000E+04  0.00000000000E+00 0.  1.
    9000005    2    1    2  501    0  0.15994216346E+02 -0.22368158471E+02 -0.86981116168E+03  0.10972002000E+04  0.66822202327E+03 0.  0.
         13    1    3    3    0    0 -0.12925286432E+03  0.39850103670E+02  0.64339745075E+02  0.14977962643E+03  0.00000000000E+00 0.  1.
          3    1    3    3  501    0  0.14524708067E+03 -0.62218262141E+02 -0.93415090675E+03  0.94742057354E+03  0.00000000000E+00 0.  1.
         21    1    1    2  502  501 -0.15994216346E+02  0.22368158471E+02 -0.50335631677E+01  0.27955075175E+02  0.00000000000E+00 0.  1.
<mgrwt>
<rscale>  1 0.30000000E+03</rscale>
<asrwt>0</asrwt>
<pdfrwt beam="1">  1        1 0.45511105E+00 0.30000000E+03</pdfrwt>
<pdfrwt beam="2">0</pdfrwt>
<totfact> 0.47542650E-01</totfact>
</mgrwt>
</event>
<event>
 6    1  0.5260809E-006  0.3000000E+03  0.7818608E-02  0.1093470E+00
          1   -1    0    0  502    0  0.00000000000E+00  0.00000000000E+00  0.14442798349E+03  0.14442798349E+03  0.00000000000E+00 0.  1.
         13   -1    0    0    0    0 -0.00000000000E+00 -0.00000000000E+00 -0.10000000000E+04  0.10000000000E+04  0.00000000000E+00 0.  1.
    9000005    2    1    2  501    0  0.34391907318E+01 -0.33528145493E+02 -0.88469700541E+03  0.10998832919E+04  0.65262431749E+03 0.  0.
         13    1    3    3    0    0  0.14324992660E+03 -0.22291181905E+03 -0.10430832181E+03  0.28476384346E+03  0.00000000000E+00 0.  1.
          1    1    3    3  501    0 -0.13981073587E+03  0.18938367356E+03 -0.78038868360E+03  0.81511944841E+03  0.00000000000E+00 0.  1.
         21    1    1    2  502  501 -0.34391907318E+01  0.33528145493E+02  0.29124988903E+02  0.44544691622E+02  0.00000000000E+00 0.  1.
<mgrwt>
<rscale>  1 0.30000000E+03</rscale>
<asrwt>0</asrwt>
<pdfrwt beam="1">  1        1 0.52519377E+00 0.30000000E+03</pdfrwt>
<pdfrwt beam="2">0</pdfrwt>
<totfact> 0.14855566E-01</totfact>
</mgrwt>
</event>
<event>
 6    1  0.5260809E-006  0.3000000E+03  0.7818608E-02  0.1093470E+00
          1   -1    0    0  502    0  0.00000000000E+00  0.00000000000E+00  0.11710592824E+03  0.11710592824E+03  0.00000000000E+00 0.  1.
         13   -1    0    0    0    0 -0.00000000000E+00 -0.00000000000E+00 -0.10000000000E+04  0.10000000000E+04  0.00000000000E+00 0.  1.
    9000005    2    1    2  501    0  0.70168527719E+01  0.70349409872E+01 -0.89281967501E+03  0.11030615622E+04  0.64770294990E+03 0.  0.
         13    1    3    3    0    0 -0.91801238932E+02 -0.29989109093E+03 -0.33605979810E+03  0.45967197194E+03  0.00000000000E+00 0.  1.
          1    1    3    3  501    0  0.98818091704E+02  0.30692603192E+03 -0.55675987691E+03  0.64338959026E+03  0.00000000000E+00 0.  1.
         21    1    1    2  502  501 -0.70168527719E+01 -0.70349409872E+01  0.99256032538E+01  0.14044366040E+02  0.00000000000E+00 0. -1.
<mgrwt>
<rscale>  1 0.30000000E+03</rscale>
<asrwt>0</asrwt>
<pdfrwt beam="1">  1        1 0.42584064E+00 0.30000000E+03</pdfrwt>
<pdfrwt beam="2">0</pdfrwt>
<totfact> 0.73775989E-01</totfact>
</mgrwt>
</event>
<event>
 6    1  0.5260809E-006  0.3000000E+03  0.7818608E-02  0.1093470E+00
          1   -1    0    0  502    0  0.00000000000E+00  0.00000000000E+00  0.11656479640E+03  0.11656479640E+03  0.00000000000E+00 0.  1.
         13   -1    0    0    0    0 -0.00000000000E+00 -0.00000000000E+00 -0.10000000000E+04  0.10000000000E+04  0.00000000000E+00 0.  1.
    9000005    2    1    2  501    0 -0.57715286787E+01 -0.14249558532E+02 -0.89039631670E+03  0.10996882577E+04  0.64519167923E+03 0.  0.
         13    1    3    3    0    0 -0.26950884185E+03  0.14357329518E+03 -0.27120690513E+03  0.40841338410E+03  0.00000000000E+00 0.  1.
          1    1    3    3  501    0  0.26373731318E+03 -0.15782285371E+03 -0.61918941158E+03  0.69127487364E+03  0.00000000000E+00 0.  1.
         21    1    1    2  502  501  0.57715286787E+01  0.14249558532E+02  0.69611131034E+01  0.16876538664E+02  0.00000000000E+00 0. -1.
<mgrwt>
<rscale>  1 0.30000000E+03</rscale>
<asrwt>0</asrwt>
<pdfrwt beam="1">  1        1 0.42387288E+00 0.30000000E+03</pdfrwt>
<pdfrwt beam="2">0</pdfrwt>
<totfact> 0.75893972E-01</totfact>
</mgrwt>
</event>
<event>
 6    1  0.5260809E-006  0.3000000E+03  0.7818608E-02  0.1093470E+00
          1   -1    0    0  502    0  0.00000000000E+00  0.00000000000E+00  0.11230616914E+03  0.11230616914E+03  0.00000000000E+00 0.  1.
         13   -1    0    0    0    0 -0.00000000000E+00 -0.00000000000E+00 -0.10000000000E+04  0.10000000000E+04  0.00000000000E+00 0.  1.
    9000005    2    1    2  501    0  0.16426620961E+02  0.52860859886E+00 -0.88917664786E+03  0.10958042890E+04  0.64022013034E+03 0.  0.
         13    1    3    3    0    0  0.95694502880E+02  0.26771167097E+03 -0.18685632740E+03  0.34020914706E+03  0.00000000000E+00 0.  1.
          1    1    3    3  501    0 -0.79267881919E+02 -0.26718306237E+03 -0.70232032046E+03  0.75559514189E+03  0.00000000000E+00 0.  1.
         21    1    1    2  502  501 -0.16426620961E+02 -0.52860859886E+00  0.14828169922E+01  0.16501880181E+02  0.00000000000E+00 0.  1.
<mgrwt>
<rscale>  1 0.30000000E+03</rscale>
<asrwt>0</asrwt>
<pdfrwt beam="1">  1        1 0.40838693E+00 0.30000000E+03</pdfrwt>
<pdfrwt beam="2">0</pdfrwt>
<totfact> 0.94174927E-01</totfact>
</mgrwt>
</event>
<event>
 6    1  0.5260809E-006  0.3000000E+03  0.7818608E-02  0.1093470E+00
          1   -1    0    0  502    0  0.00000000000E+00  0.00000000000E+00  0.11218120734E+03  0.11218120734E+03  0.00000000000E+00 0.  1.
         13   -1    0    0    0    0 -0.00000000000E+00 -0.00000000000E+00 -0.10000000000E+04  0.10000000000E+04  0.00000000000E+00 0.  1.
    9000005    2    1    2  501    0  0.24195363626E+02 -0.34075509203E+01 -0.87293393822E+03  0.10835702668E+04  0.64149344165E+03 0.  0.
         13    1    3    3    0    0  0.19105879971E+03  0.21767923017E+03 -0.69866525151E+03  0.75632059727E+03  0.00000000000E+00 0.  1.
          3    1    3    3  501    0 -0.16686343608E+03 -0.22108678109E+03 -0.17426868671E+03  0.32724966958E+03  0.00000000000E+00 0.  1.
         21    1    1    2  502  501 -0.24195363626E+02  0.34075509203E+01 -0.14884854442E+02  0.28610940495E+02  0.00000000000E+00 0.  1.
<mgrwt>
<rscale>  1 0.30000000E+03</rscale>
<asrwt>0</asrwt>
<pdfrwt beam="1">  1        1 0.40793252E+00 0.30000000E+03</pdfrwt>
<pdfrwt beam="2">0</pdfrwt>
<totfact> 0.94755542E-01</totfact>
</mgrwt>
</event>
<event>
 6    1  0.5260809E-006  0.3000000E+03  0.7818608E-02  0.1093470E+00
          1   -1    0    0  502    0  0.00000000000E+00  0.00000000000E+00  0.10833022689E+03  0.10833022689E+03  0.00000000000E+00 0.  1.
         13   -1    0    0    0    0 -0.00000000000E+00 -0.00000000000E+00 -0.10000000000E+04  0.10000000000E+04  0.00000000000E+00 0.  1.
    9000005    2    1    2  501    0 -0.29290057323E+02 -0.61759472494E+01 -0.87867897356E+03  0.10756987903E+04  0.61980246776E+03 0.  0.
         13    1    3    3    0    0 -0.43854920940E+02 -0.18429893788E+03 -0.87673667537E+03  0.89697076347E+03  0.00000000000E+00 0.  1.
          3    1    3    3  501    0  0.14564863617E+02  0.17812299063E+03 -0.19422981900E+01  0.17872802680E+03  0.00000000000E+00 0.  1.
         21    1    1    2  502  501  0.29290057323E+02  0.61759472494E+01 -0.12990799556E+02  0.32631436614E+02  0.00000000000E+00 0. -1.
<mgrwt>
<rscale>  1 0.30000000E+03</rscale>
<asrwt>0</asrwt>
<pdfrwt beam="1">  1        1 0.39392893E+00 0.30000000E+03</pdfrwt>
<pdfrwt beam="2">0</pdfrwt>
<totfact> 0.11398483E+00</totfact>
</mgrwt>
</event>
<event>
 6    1  0.5260809E-006  0.3000000E+03  0.7818608E-02  0.1093470E+00
          1   -1    0    0  502    0  0.00000000000E+00  0.00000000000E+00  0.10752185355E+03  0.10752185355E+03  0.00000000000E+00 0.  1.
         13   -1    0    0    0    0 -0.00000000000E+00 -0.00000000000E+00 -0.10000000000E+04  0.10000000000E+04  0.00000000000E+00 0.  1.
    9000005    2    1    2  501    0 -0.80111509934E+01  0.48303553754E+01 -0.86406251862E+03  0.10776059919E+04  0.64385023633E+03 0.  0.
         13    1    3    3    0    0  0.17921980409E+03 -0.19771256695E+03 -0.13696430890E+03  0.29994869431E+03  0.00000000000E+00 0.  1.
          1    1    3    3  501    0 -0.18723095508E+03  0.20254292232E+03 -0.72709820972E+03  0.77765729759E+03  0.00000000000E+00 0.  1.
         21    1    1    2  502  501  0.80111509934E+01 -0.48303553754E+01 -0.28415627831E+02  0.29915861651E+02  0.00000000000E+00 0.  1.
<mgrwt>
<rscale>  1 0.30000000E+03</rscale>
<asrwt>0</asrwt>
<pdfrwt beam="1">  1        1 0.39098938E+00 0.30000000E+03</pdfrwt>
<pdfrwt beam="2">0</pdfrwt>
<totfact> 0.11839994E+00</totfact>
</mgrwt>
</event>
<event>
 6    1  0.5260809E-006  0.3000000E+03  0.7818608E-02  0.1093470E+00
          1   -1    0    0  502    0  0.00000000000E+00  0.00000000000E+00  0.11591026681E+03  0.11591026681E+03  0.00000000000E+00 0.  1.
         13   -1    0    0    0    0 -0.00000000000E+00 -0.00000000000E+00 -0.10000000000E+04  0.10000000000E+04  0.00000000000E+00 0.  1.
    9000005    2    1    2  501    0  0.27806723638E+02  0.23579765539E+02 -0.83429297259E+03  0.10541936840E+04  0.64338972649E+03 0.  0.
         13    1    3    3    0    0  0.12304119368E+03  0.26062457168E+03 -0.15240474329E+03  0.32602378515E+03  0.00000000000E+00 0.  1.
          1    1    3    3  501    0 -0.95234470041E+02 -0.23704480614E+03 -0.68188822930E+03  0.72816989890E+03  0.00000000000E+00 0.  1.
         21    1    1    2  502  501 -0.27806723638E+02 -0.23579765539E+02 -0.49796760594E+02  0.61716582764E+02  0.00000000000E+00 0. -1.
<mgrwt>
<rscale>  1 0.30000000E+03</rscale>
<asrwt>0</asrwt>
<pdfrwt beam="1">  1        1 0.42149277E+00 0.30000000E+03</pdfrwt>
<pdfrwt beam="2">0</pdfrwt>
<totfact> 0.78520564E-01</totfact>
</mgrwt>
</event>
<event>
 6    1  0.5260809E-006  0.3000000E+03  0.7818608E-02  0.1093470E+00
          1   -1    0    0  502    0  0.00000000000E+00  0.00000000000E+00  0.12473777231E+03  0.12473777231E+03  0.00000000000E+00 0.  1.
         13   -1    0    0    0    0 -0.00000000000E+00 -0.00000000000E+00 -0.10000000000E+04  0.10000000000E+04  0.00000000000E+00 0.  1.
    9000005    2    1    2  501    0  0.22506296774E+02  0.40605197618E+02 -0.85421977140E+03  0.10737662073E+04  0.64894309051E+03 0.  0.
         13    1    3    3    0    0 -0.17528310586E+03  0.28107339679E+03 -0.35615779482E+03  0.48638955211E+03  0.00000000000E+00 0.  1.
          1    1    3    3  501    0  0.19778940264E+03 -0.24046819918E+03 -0.49806197658E+03  0.58737665524E+03  0.00000000000E+00 0.  1.
         21    1    1    2  502  501 -0.22506296774E+02 -0.40605197618E+02 -0.21042456291E+02  0.50971564963E+02  0.00000000000E+00 0.  1.
<mgrwt>
<rscale>  1 0.30000000E+03</rscale>
<asrwt>0</asrwt>
<pdfrwt beam="1">  1        1 0.45359286E+00 0.30000000E+03</pdfrwt>
<pdfrwt beam="2">0</pdfrwt>
<totfact> 0.48672658E-01</totfact>
</mgrwt>
</event>
<event>
 6    1  0.5260809E-006  0.3000000E+03  0.7818608E-02  0.1093470E+00
          1   -1    0    0  502    0  0.00000000000E+00  0.00000000000E+00  0.12871827666E+03  0.12871827666E+03  0.00000000000E+00 0.  1.
         13   -1    0    0    0    0 -0.00000000000E+00 -0.00000000000E+00 -0.10000000000E+04  0.10000000000E+04  0.00000000000E+00 0.  1.
    9000005    2    1    2  501    0 -0.11104659307E+02 -0.20620887703E+01 -0.89701184415E+03  0.11006183694E+04  0.63765428011E+03 0.  0.
         13    1    3    3    0    0 -0.31766488913E+03  0.44933216386E+02 -0.53599346804E+03  0.62467509435E+03  0.00000000000E+00 0.  1.
          1    1    3    3  501    0  0.30656022982E+03 -0.46995305156E+02 -0.36101837611E+03  0.47594327509E+03  0.00000000000E+00 0.  1.
         21    1    1    2  502  501  0.11104659307E+02  0.20620887703E+01  0.25730120819E+02  0.28099907220E+02  0.00000000000E+00 0. -1.
<mgrwt>
<rscale>  1 0.30000000E+03</rscale>
<asrwt>0</asrwt>
<pdfrwt beam="1">  1        1 0.46806745E+00 0.30000000E+03</pdfrwt>
<pdfrwt beam="2">0</pdfrwt>
<totfact> 0.38792072E-01</totfact>
</mgrwt>
</event>
<event>
 6    1  0.5260809E-006  0.3000000E+03  0.7818608E-02  0.1093470E+00
          1   -1    0    0  502    0  0.00000000000E+00  0.00000000000E+00  0.12868726374E+03  0.12868726374E+03  0.00000000000E+00 0.  1.
         13   -1    0    0    0    0 -0.00000000000E+00 -0.00000000000E+00 -0.10000000000E+04  0.10000000000E+04  0.00000000000E+00 0.  1.
    9000005    2    1    2  501    0 -0.61580720817E+02  0.85918777749E+01 -0.81840390264E+03  0.10470456676E+04  0.65011820211E+03 0.  0.
         13    1    3    3    0    0 -0.27802147060E+03  0.14221439373E+03 -0.69994672220E+03  0.76645044577E+03  0.00000000000E+00 0.  1.
          3    1    3    3  501    0  0.21644074978E+03 -0.13362251596E+03 -0.11845718044E+03  0.28059522187E+03  0.00000000000E+00 0.  1.
         21    1    1    2  502  501  0.61580720817E+02 -0.85918777749E+01 -0.52908833616E+02  0.81641596105E+02  0.00000000000E+00 0. -1.
<mgrwt>
<rscale>  1 0.30000000E+03</rscale>
<asrwt>0</asrwt>
<pdfrwt beam="1">  1        1 0.46795467E+00 0.30000000E+03</pdfrwt>
<pdfrwt beam="2">0</pdfrwt>
<totfact> 0.38862279E-01</totfact>
</mgrwt>
</event>
<event>
 6    1  0.5260809E-006  0.3000000E+03  0.7818608E-02  0.1093470E+00
          1   -1    0    0  502    0  0.00000000000E+00  0.00000000000E+00  0.11590929968E+03  0.11590929968E+03  0.00000000000E+00 0.  1.
         13   -1    0    0    0    0 -0.00000000000E+00 -0.00000000000E+00 -0.10000000000E+04  0.10000000000E+04  0.00000000000E+00 0.  1.
    9000005    2    1    2  501    0  0.45186076434E+01  0.24119199236E+02 -0.87565920125E+03  0.10899623584E+04  0.64856514888E+03 0.  0.
         13    1    3    3    0    0  0.43515665970E+01  0.15615445682E+03  0.42870929889E+02  0.16199094773E+03  0.00000000000E+00 0.  1.
          3    1    3    3  501    0  0.16704104641E+00 -0.13203525759E+03 -0.91853013114E+03  0.92797141064E+03  0.00000000000E+00 0.  1.
         21    1    1    2  502  501 -0.45186076434E+01 -0.24119199236E+02 -0.84314990665E+01  0.25946941310E+02  0.00000000000E+00 0.  1.
<mgrwt>
<rscale>  1 0.30000000E+03</rscale>
<asrwt>0</asrwt>
<pdfrwt beam="1">  1        1 0.42148925E+00 0.30000000E+03</pdfrwt>
<pdfrwt beam="2">0</pdfrwt>
<totfact> 0.78524496E-01</totfact>
</mgrwt>
</event>
<event>
 6    1  0.5260809E-006  0.3000000E+03  0.7818608E-02  0.1093470E+00
          1   -1    0    0  502    0  0.00000000000E+00  0.00000000000E+00  0.11662964926E+03  0.11662964926E+03  0.00000000000E+00 0.  1.
         13   -1    0    0    0    0 -0.00000000000E+00 -0.00000000000E+00 -0.10000000000E+04  0.10000000000E+04  0.00000000000E+00 0.  1.
    9000005    2    1    2  501    0 -0.23207398638E+01 -0.19830798573E+02 -0.88266211852E+03  0.10966509607E+04  0.65050155083E+03 0.  0.
         13    1    3    3    0    0  0.11612022078E+03  0.30462879076E+02 -0.94575137939E+03  0.95334021435E+03  0.00000000000E+00 0.  1.
          3    1    3    3  501    0 -0.11844096064E+03 -0.50293677649E+02  0.63089260873E+02  0.14331074631E+03  0.00000000000E+00 0.  1.
         21    1    1    2  502  501  0.23207398638E+01  0.19830798573E+02 -0.70823221985E+00  0.19978688607E+02  0.00000000000E+00 0. -1.
<mgrwt>
<rscale>  1 0.30000000E+03</rscale>
<asrwt>0</asrwt>
<pdfrwt beam="1">  1        1 0.42410871E+00 0.30000000E+03</pdfrwt>
<pdfrwt beam="2">0</pdfrwt>
<totfact> 0.75637538E-01</totfact>
</mgrwt>
</event>
<event>
 6    1  0.5260809E-006  0.3000000E+03  0.7818608E-02  0.1093470E+00
          1   -1    0    0  502    0  0.00000000000E+00  0.00000000000E+00  0.13226006331E+03  0.13226006331E+03  0.00000000000E+00 0.  1.
         13   -1    0    0    0    0 -0.00000000000E+00 -0.00000000000E+00 -0.10000000000E+04  0.10000000000E+04  0.00000000000E+00 0.  1.
    9000005    2    1    2  501    0 -0.33137379475E+02 -0.24758694167E+02 -0.86975293129E+03  0.10908459232E+04  0.65708719953E+03 0.  0.
         13    1    3    3    0    0 -0.20172199354E+03 -0.18609306551E+03 -0.80230702164E+03  0.84794985033E+03  0.00000000000E+00 0.  1.
          1    1    3    3  501    0  0.16858461407E+03  0.16133437135E+03 -0.67445909648E+02  0.24289607285E+03  0.00000000000E+00 0.  1.
         21    1    1    2  502  501  0.33137379475E+02  0.24758694167E+02  0.20129945970E+01  0.41414140128E+02  0.00000000000E+00 0.  1.
<mgrwt>
<rscale>  1 0.30000000E+03</rscale>
<asrwt>0</asrwt>
<pdfrwt beam="1">  1        1 0.48094670E+00 0.30000000E+03</pdfrwt>
<pdfrwt beam="2">0</pdfrwt>
<totfact> 0.31443535E-01</totfact>
</mgrwt>
</event>
<event>
 6    1  0.5260809E-006  0.3000000E+03  0.7818608E-02  0.1093470E+00
          1   -1    0    0  502    0  0.00000000000E+00  0.00000000000E+00  0.15988597407E+03  0.15988597407E+03  0.00000000000E+00 0.  1.
         13   -1    0    0    0    0 -0.00000000000E+00 -0.00000000000E+00 -0.10000000000E+04  0.10000000000E+04  0.00000000000E+00 0.  1.
    9000005    2    1    2  501    0 -0.24713098241E+02 -0.10673942444E+03 -0.80227016418E+03  0.10439713511E+04  0.65896488795E+03 0.  0.
         13    1    3    3    0    0  0.19984746763E+03 -0.27691761537E+03 -0.24751792447E+03  0.42176711460E+03  0.00000000000E+00 0.  1.
          3    1    3    3  501    0 -0.22456056588E+03  0.17017819093E+03 -0.55475223971E+03  0.62220423647E+03  0.00000000000E+00 0.  1.
         21    1    1    2  502  501  0.24713098241E+02  0.10673942444E+03 -0.37843861749E+02  0.11591462301E+03  0.00000000000E+00 0.  1.
<mgrwt>
<rscale>  1 0.30000000E+03</rscale>
<asrwt>0</asrwt>
<pdfrwt beam="1">  1        1 0.58140477E+00 0.30000000E+03</pdfrwt>
<pdfrwt beam="2">0</pdfrwt>
<totfact> 0.71008992E-02</totfact>
</mgrwt>
</event>
<event>
 6    1  0.5260809E-006  0.3000000E+03  0.7818608E-02  0.1093470E+00
          1   -1    0    0  502    0  0.00000000000E+00  0.00000000000E+00  0.10975763722E+03  0.10975763722E+03  0.00000000000E+00 0.  1.
         13   -1    0    0    0    0 -0.00000000000E+00 -0.00000000000E+00 -0.10000000000E+04  0.10000000000E+04  0.00000000000E+00 0.  1.
    9000005    2    1    2  501    0  0.89343295976E+01  0.72086365022E+01 -0.89538992887E+03  0.10971765354E+04  0.63398851604E+03 0.  0.
         13    1    3    3    0    0  0.28200976413E+03 -0.14919897345E+03 -0.46902211226E+03  0.56724913621E+03  0.00000000000E+00 0.  1.
          3    1    3    3  501    0 -0.27307543453E+03  0.15640760995E+03 -0.42636781661E+03  0.52992739922E+03  0.00000000000E+00 0.  1.
         21    1    1    2  502  501 -0.89343295976E+01 -0.72086365022E+01  0.51475660897E+01  0.12581101789E+02  0.00000000000E+00 0.  1.
<mgrwt>
<rscale>  1 0.30000000E+03</rscale>
<asrwt>0</asrwt>
<pdfrwt beam="1">  1        1 0.39911952E+00 0.30000000E+03</pdfrwt>
<pdfrwt beam="2">0</pdfrwt>
<totfact> 0.10653991E+00</totfact>
</mgrwt>
</event>
<event>
 6    1  0.5260809E-006  0.3000000E+03  0.7818608E-02  0.1093470E+00
          1   -1    0    0  502    0  0.00000000000E+00  0.00000000000E+00  0.82651495514E+02  0.82651495514E+02  0.00000000000E+00 0.  1.
         13   -1    0    0    0    0 -0.00000000000E+00 -0.00000000000E+00 -0.10000000000E+04  0.10000000000E+04  0.00000000000E+00 0.  1.
    9000005    2    1    2  501    0 -0.19235732943E+01 -0.26156972887E+02 -0.89816802124E+03  0.10501587532E+04  0.54354367369E+03 0.  0.
         13    1    3    3    0    0  0.22469348773E+03  0.13055001654E+03 -0.53031705285E+03  0.59056468468E+03  0.00000000000E+00 0.  1.
          1    1    3    3  501    0 -0.22661706103E+03 -0.15670698943E+03 -0.36785096839E+03  0.45959406853E+03  0.00000000000E+00 0.  1.
         21    1    1    2  502  501  0.19235732943E+01  0.26156972887E+02 -0.19180483248E+02  0.32492742304E+02  0.00000000000E+00 0. -1.
<mgrwt>
<rscale>  1 0.30000000E+03</rscale>
<asrwt>0</asrwt>
<pdfrwt beam="1">  1        1 0.30055153E+00 0.30000000E+03</pdfrwt>
<pdfrwt beam="2">0</pdfrwt>
<totfact> 0.34535200E+00</totfact>
</mgrwt>
</event>
<event>
 6    1  0.5260809E-006  0.3000000E+03  0.7818608E-02  0.1093470E+00
          1   -1    0    0  502    0  0.00000000000E+00  0.00000000000E+00  0.12146353465E+03  0.12146353465E+03  0.00000000000E+00 0.  1.
         13   -1    0    0    0    0 -0.00000000000E+00 -0.00000000000E+00 -0.10000000000E+04  0.10000000000E+04  0.00000000000E+00 0.  1.
    9000005    2    1    2  501    0 -0.14299463799E+02 -0.86682603950E+01 -0.89241746475E+03  0.10997311729E+04  0.64243295979E+03 0.  0.
         13    1    3    3    0    0  0.19465842094E+03 -0.20856283502E+03 -0.19731327773E+03  0.34687589504E+03  0.00000000000E+00 0.  1.
          1    1    3    3  501    0 -0.20895788474E+03  0.19989457462E+03 -0.69510418703E+03  0.75285527785E+03  0.00000000000E+00 0.  1.
         21    1    1    2  502  501  0.14299463799E+02  0.86682603950E+01  0.13880999403E+02  0.21732361759E+02  0.00000000000E+00 0. -1.
<mgrwt>
<rscale>  1 0.30000000E+03</rscale>
<asrwt>0</asrwt>
<pdfrwt beam="1">  1        1 0.44168651E+00 0.30000000E+03</pdfrwt>
<pdfrwt beam="2">0</pdfrwt>
<totfact> 0.58443213E-01</totfact>
</mgrwt>
</event>
<event>
 6    1  0.5260809E-006  0.3000000E+03  0.7818608E-02  0.1093470E+00
          1   -1    0    0  502    0  0.00000000000E+00  0.00000000000E+00  0.15734019689E+03  0.15734019689E+03  0.00000000000E+00 0.  1.
         13   -1    0    0    0    0 -0.00000000000E+00 -0.00000000000E+00 -0.10000000000E+04  0.10000000000E+04  0.00000000000E+00 0.  1.
    9000005    2    1    2  501    0  0.10567916938E+02  0.76764024937E+00 -0.90307702148E+03  0.10960008913E+04  0.62093282791E+03 0.  0.
         13    1    3    3    0    0  0.20281957468E+03 -0.22739495287E+03 -0.58684572228E+03  0.66123531834E+03  0.00000000000E+00 0.  1.
          3    1    3    3  501    0 -0.19225165774E+03  0.22816259312E+03 -0.31623129919E+03  0.43476557292E+03  0.00000000000E+00 0.  1.
         21    1    1    2  502  501 -0.10567916938E+02 -0.76764024937E+00  0.60417218373E+02  0.61339305635E+02  0.00000000000E+00 0.  1.
<mgrwt>
<rscale>  1 0.30000000E+03</rscale>
<asrwt>0</asrwt>
<pdfrwt beam="1">  1        1 0.57214738E+00 0.30000000E+03</pdfrwt>
<pdfrwt beam="2">0</pdfrwt>
<totfact> 0.76762763E-02</totfact>
</mgrwt>
</event>
<event>
 6    1  0.5260809E-006  0.3000000E+03  0.7818608E-02  0.1093470E+00
          1   -1    0    0  502    0  0.00000000000E+00  0.00000000000E+00  0.12482470125E+03  0.12482470125E+03  0.00000000000E+00 0.  1.
         13   -1    0    0    0    0 -0.00000000000E+00 -0.00000000000E+00 -0.10000000000E+04  0.10000000000E+04  0.00000000000E+00 0.  1.
    9000005    2    1    2  501    0  0.19362292406E+02  0.78591411885E+00 -0.88752111448E+03  0.11018478609E+04  0.65268634412E+03 0.  0.
         13    1    3    3    0    0 -0.29503151884E+03 -0.94432221262E+02 -0.54752402342E+03  0.62908155095E+03  0.00000000000E+00 0.  1.
          3    1    3    3  501    0  0.31439381125E+03  0.95218135381E+02 -0.33999709106E+03  0.47276630991E+03  0.00000000000E+00 0.  1.
         21    1    1    2  502  501 -0.19362292406E+02 -0.78591411885E+00  0.12345815725E+02  0.22976840386E+02  0.00000000000E+00 0.  1.
<mgrwt>
<rscale>  1 0.30000000E+03</rscale>
<asrwt>0</asrwt>
<pdfrwt beam="1">  1        1 0.45390896E+00 0.30000000E+03</pdfrwt>
<pdfrwt beam="2">0</pdfrwt>
<totfact> 0.48435199E-01</totfact>
</mgrwt>
</event>
<event>
 6    1  0.5260809E-006  0.3000000E+03  0.7818608E-02  0.1093470E+00
          1   -1    0    0  502    0  0.00000000000E+00  0.00000000000E+00  0.69617139006E+02  0.69617139006E+02  0.00000000000E+00 0.  1.
         13   -1    0    0    0    0 -0.00000000000E+00 -0.00000000000E+00 -0.10000000000E+04  0.10000000000E+04  0.00000000000E+00 0.  1.
    9000005    2    1    2  501    0  0.59344948665E+01  0.15318433041E+02 -0.93074432775E+03  0.10531853625E+04  0.49258961781E+03 0.  0.
         13    1    3    3    0    0  0.20948427025E+03 -0.53512544546E+02 -0.21121141083E+03  0.30225405204E+03  0.00000000000E+00 0.  1.
          3    1    3    3  501    0 -0.20354977539E+03  0.68830977587E+02 -0.71953291692E+03  0.75093131049E+03  0.00000000000E+00 0.  1.
         21    1    1    2  502  501 -0.59344948665E+01 -0.15318433041E+02  0.36146675816E+00  0.16431776483E+02  0.00000000000E+00 0. -1.
<mgrwt>
<rscale>  1 0.30000000E+03</rscale>
<asrwt>0</asrwt>
<pdfrwt beam="1">  1        1 0.25315377E+00 0.30000000E+03</pdfrwt>
<pdfrwt beam="2">0</pdfrwt>
<totfact> 0.57677344E+00</totfact>
</mgrwt>
</event>
<event>
 6    1  0.5260809E-006  0.3000000E+03  0.7818608E-02  0.1093470E+00
          1   -1    0    0  502    0  0.00000000000E+00  0.00000000000E+00  0.11476061387E+03  0.11476061387E+03  0.00000000000E+00 0.  1.
         13   -1    0    0    0    0 -0.00000000000E+00 -0.00000000000E+00 -0.10000000000E+04  0.10000000000E+04  0.00000000000E+00 0.  1.
    9000005    2    1    2  501    0 -0.67146581332E+01  0.19585428396E+02 -0.84300751654E+03  0.10677265151E+04  0.65494241153E+03 0.  0.
         13    1    3    3    0    0 -0.54592280441E+02 -0.94378635018E+02 -0.91713379677E+03  0.92359192559E+03  0.00000000000E+00 0.  1.
          3    1    3    3  501    0  0.47877622308E+02  0.11396406341E+03  0.74126280229E+02  0.14413458949E+03  0.00000000000E+00 0.  1.
         21    1    1    2  502  501  0.67146581332E+01 -0.19585428396E+02 -0.42231869590E+02  0.47034098784E+02  0.00000000000E+00 0.  1.
<mgrwt>
<rscale>  1 0.30000000E+03</rscale>
<asrwt>0</asrwt>
<pdfrwt beam="1">  1        1 0.41731220E+00 0.30000000E+03</pdfrwt>
<pdfrwt beam="2">0</pdfrwt>
<totfact> 0.83295527E-01</totfact>
</mgrwt>
</event>
<event>
 6    1  0.5260809E-006  0.3000000E+03  0.7818608E-02  0.1093470E+00
          1   -1    0    0  502    0  0.00000000000E+00  0.00000000000E+00  0.10743524451E+03  0.10743524451E+03  0.00000000000E+00 0.  1.
         13   -1    0    0    0    0 -0.00000000000E+00 -0.00000000000E+00 -0.10000000000E+04  0.10000000000E+04  0.00000000000E+00 0.  1.
    9000005    2    1    2  501    0  0.22315461825E+01  0.13056207000E+02 -0.89314185746E+03  0.10941771381E+04  0.63193812007E+03 0.  0.
         13    1    3    3    0    0 -0.11717767669E+03 -0.28491711227E+03 -0.38428076263E+03  0.49252418550E+03  0.00000000000E+00 0.  1.
          1    1    3    3  501    0  0.11940922287E+03  0.29797331927E+03 -0.50886109483E+03  0.60165295257E+03  0.00000000000E+00 0.  1.
         21    1    1    2  502  501 -0.22315461825E+01 -0.13056207000E+02  0.57710196822E+00  0.13258106436E+02  0.00000000000E+00 0.  1.
<mgrwt>
<rscale>  1 0.30000000E+03</rscale>
<asrwt>0</asrwt>
<pdfrwt beam="1">  1        1 0.39067444E+00 0.30000000E+03</pdfrwt>
<pdfrwt beam="2">0</pdfrwt>
<totfact> 0.11888194E+00</totfact>
</mgrwt>
</event>
<event>
 6    1  0.5260809E-006  0.3000000E+03  0.7818608E-02  0.1093470E+00
          1   -1    0    0  502    0  0.00000000000E+00  0.00000000000E+00  0.13673610615E+03  0.13673610615E+03  0.00000000000E+00 0.  1.
         13   -1    0    0    0    0 -0.00000000000E+00 -0.00000000000E+00 -0.10000000000E+04  0.10000000000E+04  0.00000000000E+00 0.  1.
    9000005    2    1    2  501    0 -0.19904245964E+01  0.36528060379E+02 -0.87753729028E+03  0.10974679151E+04  0.65804701031E+03 0.  0.
         13    1    3    3    0    0 -0.21912657021E+03  0.10357425960E+03 -0.61046085161E+02  0.24994140421E+03  0.00000000000E+00 0.  1.
          1    1    3    3  501    0  0.21713614562E+03 -0.67046199216E+02 -0.81649120512E+03  0.84752651086E+03  0.00000000000E+00 0.  1.
         21    1    1    2  502  501  0.19904245964E+01 -0.36528060379E+02  0.14273396427E+02  0.39268191080E+02  0.00000000000E+00 0.  1.
<mgrwt>
<rscale>  1 0.30000000E+03</rscale>
<asrwt>0</asrwt>
<pdfrwt beam="1">  1        1 0.49722325E+00 0.30000000E+03</pdfrwt>
<pdfrwt beam="2">0</pdfrwt>
<totfact> 0.23936765E-01</totfact>
</mgrwt>
</event>
<event>
 6    1  0.5260809E-006  0.3000000E+03  0.7818608E-02  0.1093470E+00
          1   -1    0    0  502    0  0.00000000000E+00  0.00000000000E+00  0.12770373581E+03  0.12770373581E+03  0.00000000000E+00 0.  1.
         13   -1    0    0    0    0 -0.00000000000E+00 -0.00000000000E+00 -0.10000000000E+04  0.10000000000E+04  0.00000000000E+00 0.  1.
    9000005    2    1    2  501    0 -0.11170299071E+02  0.31394336590E+01 -0.89386660380E+03  0.11032106516E+04  0.64648403282E+03 0.  0.
         13    1    3    3    0    0 -0.19538774166E+03  0.13147320685E+03 -0.64760606729E+02  0.24424477454E+03  0.00000000000E+00 0.  1.
          3    1    3    3  501    0  0.18421744258E+03 -0.12833377319E+03 -0.82910599708E+03  0.85896587702E+03  0.00000000000E+00 0.  1.
         21    1    1    2  502  501  0.11170299071E+02 -0.31394336590E+01  0.21570339615E+02  0.24493084251E+02  0.00000000000E+00 0.  1.
<mgrwt>
<rscale>  1 0.30000000E+03</rscale>
<asrwt>0</asrwt>
<pdfrwt beam="1">  1        1 0.46437820E+00 0.30000000E+03</pdfrwt>
<pdfrwt beam="2">0</pdfrwt>
<totfact> 0.41142043E-01</totfact>
</mgrwt>
</event>
<event>
 6    1  0.5260809E-006  0.3000000E+03  0.7818608E-02  0.1093470E+00
          1   -1    0    0  502    0  0.00000000000E+00  0.00000000000E+00  0.11786195015E+03  0.11786195015E+03  0.00000000000E+00 0.  1.
         13   -1    0    0    0    0 -0.00000000000E+00 -0.00000000000E+00 -0.10000000000E+04  0.10000000000E+04  0.00000000000E+00 0.  1.
    9000005    2    1    2  501    0 -0.91368532504E+01 -0.17854196427E+02 -0.87686024444E+03  0.10971228651E+04  0.65908454579E+03 0.  0.
         13    1    3    3    0    0  0.11355698676E+03  0.12468213489E+03 -0.89260324865E+03  0.90839494907E+03  0.00000000000E+00 0.  1.
          1    1    3    3  501    0 -0.12269384001E+03 -0.14253633131E+03  0.15743004205E+02  0.18872791606E+03  0.00000000000E+00 0.  1.
         21    1    1    2  502  501  0.91368532504E+01  0.17854196427E+02 -0.52778054105E+01  0.20739085017E+02  0.00000000000E+00 0.  1.
<mgrwt>
<rscale>  1 0.30000000E+03</rscale>
<asrwt>0</asrwt>
<pdfrwt beam="1">  1        1 0.42858981E+00 0.30000000E+03</pdfrwt>
<pdfrwt beam="2">0</pdfrwt>
<totfact> 0.70901766E-01</totfact>
</mgrwt>
</event>
<event>
 6    1  0.5260809E-006  0.3000000E+03  0.7818608E-02  0.1093470E+00
          1   -1    0    0  502    0  0.00000000000E+00  0.00000000000E+00  0.11771256035E+03  0.11771256035E+03  0.00000000000E+00 0.  1.
         13   -1    0    0    0    0 -0.00000000000E+00 -0.00000000000E+00 -0.10000000000E+04  0.10000000000E+04  0.00000000000E+00 0.  1.
    9000005    2    1    2  501    0 -0.77974317273E+01  0.15771667369E+02 -0.87997372728E+03  0.10999671751E+04  0.65974576932E+03 0.  0.
         13    1    3    3    0    0  0.49577351827E+02 -0.79659199155E+02 -0.95890143837E+03  0.96348091332E+03  0.00000000000E+00 0.  1.
          3    1    3    3  501    0 -0.57374783554E+02  0.95430866524E+02  0.78927711091E+02  0.13648626177E+03  0.00000000000E+00 0.  1.
         21    1    1    2  502  501  0.77974317273E+01 -0.15771667369E+02 -0.23137123655E+01  0.17745385260E+02  0.00000000000E+00 0.  1.
<mgrwt>
<rscale>  1 0.30000000E+03</rscale>
<asrwt>0</asrwt>
<pdfrwt beam="1">  1        1 0.42804658E+00 0.30000000E+03</pdfrwt>
<pdfrwt beam="2">0</pdfrwt>
<totfact> 0.71461697E-01</totfact>
</mgrwt>
</event>
<event>
 6    1  0.5260809E-006  0.3000000E+03  0.7818608E-02  0.1093470E+00
          1   -1    0    0  502    0  0.00000000000E+00  0.00000000000E+00  0.87641454360E+02  0.87641454360E+02  0.00000000000E+00 0.  1.
         13   -1    0    0    0    0 -0.00000000000E+00 -0.00000000000E+00 -0.10000000000E+04  0.10000000000E+04  0.00000000000E+00 0.  1.
    9000005    2    1    2  501    0 -0.12525607966E+02  0.23619044885E+02 -0.91233730931E+03  0.10609066346E+04  0.54078532826E+03 0.  0.
         13    1    3    3    0    0 -0.10275336360E+02 -0.23632620278E+03 -0.64948241220E+03  0.69121853304E+03  0.00000000000E+00 0.  1.
          1    1    3    3  501    0 -0.22502716059E+01  0.25994524767E+03 -0.26285489711E+03  0.36968810157E+03  0.00000000000E+00 0.  1.
         21    1    1    2  502  501  0.12525607966E+02 -0.23619044885E+02 -0.21236331187E-01  0.26734819752E+02  0.00000000000E+00 0. -1.
<mgrwt>
<rscale>  1 0.30000000E+03</rscale>
<asrwt>0</asrwt>
<pdfrwt beam="1">  1        1 0.31869687E+00 0.30000000E+03</pdfrwt>
<pdfrwt beam="2">0</pdfrwt>
<totfact> 0.28255668E+00</totfact>
</mgrwt>
</event>
<event>
 6    1  0.5260809E-006  0.3000000E+03  0.7818608E-02  0.1093470E+00
          1   -1    0    0  502    0  0.00000000000E+00  0.00000000000E+00  0.89941664020E+02  0.89941664020E+02  0.00000000000E+00 0.  1.
         13   -1    0    0    0    0 -0.00000000000E+00 -0.00000000000E+00 -0.10000000000E+04  0.10000000000E+04  0.00000000000E+00 0.  1.
    9000005    2    1    2  501    0  0.98267904795E+01 -0.20258436572E+01 -0.90309711371E+03  0.10777298472E+04  0.58806169487E+03 0.  0.
         13    1    3    3    0    0  0.21197447524E+03 -0.20781253224E+03 -0.40512579059E+03  0.50224111033E+03  0.00000000000E+00 0.  1.
          3    1    3    3  501    0 -0.20214768476E+03  0.20578668858E+03 -0.49797132312E+03  0.57548873691E+03  0.00000000000E+00 0.  1.
         21    1    1    2  502  501 -0.98267904795E+01  0.20258436572E+01 -0.69612222659E+01  0.12211816781E+02  0.00000000000E+00 0. -1.
<mgrwt>
<rscale>  1 0.30000000E+03</rscale>
<asrwt>0</asrwt>
<pdfrwt beam="1">  1        1 0.32706129E+00 0.30000000E+03</pdfrwt>
<pdfrwt beam="2">0</pdfrwt>
<totfact> 0.25710508E+00</totfact>
</mgrwt>
</event>
<event>
 6    1  0.5260809E-006  0.3000000E+03  0.7818608E-02  0.1093470E+00
          1   -1    0    0  502    0  0.00000000000E+00  0.00000000000E+00  0.11579771141E+03  0.11579771141E+03  0.00000000000E+00 0.  1.
         13   -1    0    0    0    0 -0.00000000000E+00 -0.00000000000E+00 -0.10000000000E+04  0.10000000000E+04  0.00000000000E+00 0.  1.
    9000005    2    1    2  501    0 -0.12907454595E+02 -0.43029585379E+01 -0.88050630882E+03  0.11016988426E+04  0.66201500133E+03 0.  0.
         13    1    3    3    0    0 -0.37970800549E+01  0.30533598312E+03 -0.64140024001E+03  0.71037929889E+03  0.00000000000E+00 0.  1.
          1    1    3    3  501    0 -0.91103745396E+01 -0.30963894166E+03 -0.23910606881E+03  0.39131954367E+03  0.00000000000E+00 0.  1.
         21    1    1    2  502  501  0.12907454595E+02  0.43029585379E+01 -0.36959797732E+01  0.14098868847E+02  0.00000000000E+00 0.  1.
<mgrwt>
<rscale>  1 0.30000000E+03</rscale>
<asrwt>0</asrwt>
<pdfrwt beam="1">  1        1 0.42108347E+00 0.30000000E+03</pdfrwt>
<pdfrwt beam="2">0</pdfrwt>
<totfact> 0.78979159E-01</totfact>
</mgrwt>
</event>
<event>
 6    1  0.5260809E-006  0.3000000E+03  0.7818608E-02  0.1093470E+00
          1   -1    0    0  502    0  0.00000000000E+00  0.00000000000E+00  0.11875828521E+03  0.11875828521E+03  0.00000000000E+00 0.  1.
         13   -1    0    0    0    0 -0.00000000000E+00 -0.00000000000E+00 -0.10000000000E+04  0.10000000000E+04  0.00000000000E+00 0.  1.
    9000005    2    1    2  501    0 -0.11156168060E+02 -0.14390302382E+02 -0.88677443713E+03  0.10997279961E+04  0.65015476780E+03 0.  0.
         13    1    3    3    0    0  0.17948509618E+03  0.42281647454E+02  0.65671154669E+01  0.18451494375E+03  0.00000000000E+00 0.  1.
          1    1    3    3  501    0 -0.19064126424E+03 -0.56671949836E+02 -0.89334155260E+03  0.91521305231E+03  0.00000000000E+00 0.  1.
         21    1    1    2  502  501  0.11156168060E+02  0.14390302382E+02  0.55327223364E+01  0.19030289143E+02  0.00000000000E+00 0. -1.
<mgrwt>
<rscale>  1 0.30000000E+03</rscale>
<asrwt>0</asrwt>
<pdfrwt beam="1">  1        1 0.43184922E+00 0.30000000E+03</pdfrwt>
<pdfrwt beam="2">0</pdfrwt>
<totfact> 0.67619201E-01</totfact>
</mgrwt>
</event>
<event>
 6    1  0.5260809E-006  0.3000000E+03  0.7818608E-02  0.1093470E+00
          1   -1    0    0  502    0  0.00000000000E+00  0.00000000000E+00  0.13245261976E+03  0.13245261976E+03  0.00000000000E+00 0.  1.
         13   -1    0    0    0    0 -0.00000000000E+00 -0.00000000000E+00 -0.10000000000E+04  0.10000000000E+04  0.00000000000E+00 0.  1.
    9000005    2    1    2  501    0  0.32845608051E+02  0.15824182818E+01 -0.88528903361E+03  0.10950881409E+04  0.64373909724E+03 0.  0.
         13    1    3    3    0    0 -0.21409930200E+03  0.21057143311E+03 -0.28942801757E+03  0.41707003838E+03  0.00000000000E+00 0.  1.
          3    1    3    3  501    0  0.24694491005E+03 -0.20898901483E+03 -0.59586101604E+03  0.67801810253E+03  0.00000000000E+00 0.  1.
         21    1    1    2  502  501 -0.32845608051E+02 -0.15824182818E+01  0.17741653368E+02  0.37364478855E+02  0.00000000000E+00 0.  1.
<mgrwt>
<rscale>  1 0.30000000E+03</rscale>
<asrwt>0</asrwt>
<pdfrwt beam="1">  1        1 0.48164691E+00 0.30000000E+03</pdfrwt>
<pdfrwt beam="2">0</pdfrwt>
<totfact> 0.31080914E-01</totfact>
</mgrwt>
</event>
<event>
 6    1  0.5260809E-006  0.3000000E+03  0.7818608E-02  0.1093470E+00
          1   -1    0    0  502    0  0.00000000000E+00  0.00000000000E+00  0.13612092259E+03  0.13612092259E+03  0.00000000000E+00 0.  1.
         13   -1    0    0    0    0 -0.00000000000E+00 -0.00000000000E+00 -0.10000000000E+04  0.10000000000E+04  0.00000000000E+00 0.  1.
    9000005    2    1    2  501    0  0.78044561074E+01 -0.61564023134E+02 -0.80789281559E+03  0.10525416190E+04  0.67179016048E+03 0.  0.
         13    1    3    3    0    0 -0.13941602359E+03 -0.84249647751E+02  0.58768694270E+02  0.17317214039E+03  0.00000000000E+00 0.  1.
          3    1    3    3  501    0  0.14722047970E+03  0.22685624617E+02 -0.86666150986E+03  0.87936947859E+03  0.00000000000E+00 0.  1.
         21    1    1    2  502  501 -0.78044561074E+01  0.61564023134E+02 -0.55986261824E+02  0.83579303615E+02  0.00000000000E+00 0.  1.
<mgrwt>
<rscale>  1 0.30000000E+03</rscale>
<asrwt>0</asrwt>
<pdfrwt beam="1">  1        1 0.49498622E+00 0.30000000E+03</pdfrwt>
<pdfrwt beam="2">0</pdfrwt>
<totfact> 0.24858231E-01</totfact>
</mgrwt>
</event>
<event>
 6    1  0.5260809E-006  0.3000000E+03  0.7818608E-02  0.1093470E+00
          1   -1    0    0  502    0  0.00000000000E+00  0.00000000000E+00  0.11242270394E+03  0.11242270394E+03  0.00000000000E+00 0.  1.
         13   -1    0    0    0    0 -0.00000000000E+00 -0.00000000000E+00 -0.10000000000E+04  0.10000000000E+04  0.00000000000E+00 0.  1.
    9000005    2    1    2  501    0  0.14134985091E+02 -0.67421195806E+01 -0.88028666112E+03  0.10951482332E+04  0.65130622065E+03 0.  0.
         13    1    3    3    0    0  0.14015360831E+03 -0.26228577528E+03 -0.69318129582E+03  0.75427923922E+03  0.00000000000E+00 0.  1.
          1    1    3    3  501    0 -0.12601862322E+03  0.25554365570E+03 -0.18710536530E+03  0.34086899403E+03  0.00000000000E+00 0.  1.
         21    1    1    2  502  501 -0.14134985091E+02  0.67421195806E+01 -0.72906349415E+01  0.17274470695E+02  0.00000000000E+00 0.  1.
<mgrwt>
<rscale>  1 0.30000000E+03</rscale>
<asrwt>0</asrwt>
<pdfrwt beam="1">  1        1 0.40881069E+00 0.30000000E+03</pdfrwt>
<pdfrwt beam="2">0</pdfrwt>
<totfact> 0.93635842E-01</totfact>
</mgrwt>
</event>
<event>
 6    1  0.5260809E-006  0.3000000E+03  0.7818608E-02  0.1093470E+00
          1   -1    0    0  502    0  0.00000000000E+00  0.00000000000E+00  0.11827003569E+03  0.11827003569E+03  0.00000000000E+00 0.  1.
         13   -1    0    0    0    0 -0.00000000000E+00 -0.00000000000E+00 -0.10000000000E+04  0.10000000000E+04  0.00000000000E+00 0.  1.
    9000005    2    1    2  501    0  0.12111038720E+02  0.13052241806E+02 -0.88655507467E+03  0.10998222725E+04  0.65062438664E+03 0.  0.
         13    1    3    3    0    0 -0.23588047199E+03 -0.20914061598E+03 -0.48083071216E+03  0.57495875337E+03  0.00000000000E+00 0.  1.
          3    1    3    3  501    0  0.24799151071E+03  0.22219285778E+03 -0.40572436251E+03  0.52486351918E+03  0.00000000000E+00 0.  1.
         21    1    1    2  502  501 -0.12111038720E+02 -0.13052241806E+02  0.48251103598E+01  0.18447763144E+02  0.00000000000E+00 0. -1.
<mgrwt>
<rscale>  1 0.30000000E+03</rscale>
<asrwt>0</asrwt>
<pdfrwt beam="1">  1        1 0.43007376E+00 0.30000000E+03</pdfrwt>
<pdfrwt beam="2">0</pdfrwt>
<totfact> 0.69391176E-01</totfact>
</mgrwt>
</event>
<event>
 6    1  0.5260809E-006  0.3000000E+03  0.7818608E-02  0.1093470E+00
          1   -1    0    0  502    0  0.00000000000E+00  0.00000000000E+00  0.10867428620E+03  0.10867428620E+03  0.00000000000E+00 0.  1.
         13   -1    0    0    0    0 -0.00000000000E+00 -0.00000000000E+00 -0.10000000000E+04  0.10000000000E+04  0.00000000000E+00 0.  1.
    9000005    2    1    2  501    0  0.94483158664E+01  0.21607993624E+00 -0.88796564540E+03  0.10986439610E+04  0.64687421370E+03 0.  0.
         13    1    3    3    0    0  0.35669319224E+02 -0.23784919049E+03 -0.76212147510E+02  0.25229512318E+03  0.00000000000E+00 0.  1.
          3    1    3    3  501    0 -0.26221003358E+02  0.23806527043E+03 -0.81175349789E+03  0.84634883786E+03  0.00000000000E+00 0.  1.
         21    1    1    2  502  501 -0.94483158664E+01 -0.21607993624E+00 -0.33600683969E+01  0.10030325163E+02  0.00000000000E+00 0. -1.
<mgrwt>
<rscale>  1 0.30000000E+03</rscale>
<asrwt>0</asrwt>
<pdfrwt beam="1">  1        1 0.39518006E+00 0.30000000E+03</pdfrwt>
<pdfrwt beam="2">0</pdfrwt>
<totfact> 0.11215117E+00</totfact>
</mgrwt>
</event>
<event>
 6    1  0.5260809E-006  0.3000000E+03  0.7818608E-02  0.1093470E+00
          1   -1    0    0  502    0  0.00000000000E+00  0.00000000000E+00  0.12308503835E+03  0.12308503835E+03  0.00000000000E+00 0.  1.
         13   -1    0    0    0    0 -0.00000000000E+00 -0.00000000000E+00 -0.10000000000E+04  0.10000000000E+04  0.00000000000E+00 0.  1.
    9000005    2    1    2  501    0  0.18237612414E+02  0.14111749550E+02 -0.89307919676E+03  0.10949241705E+04  0.63303770461E+03 0.  0.
         13    1    3    3    0    0  0.26499121376E+03  0.46839025450E+02 -0.14323462095E+03  0.30484486926E+03  0.00000000000E+00 0.  1.
          3    1    3    3  501    0 -0.24675360134E+03 -0.32727275900E+02 -0.74984457581E+03  0.79007930123E+03  0.00000000000E+00 0.  1.
         21    1    1    2  502  501 -0.18237612414E+02 -0.14111749550E+02  0.16164235110E+02  0.28160867860E+02  0.00000000000E+00 0. -1.
<mgrwt>
<rscale>  1 0.30000000E+03</rscale>
<asrwt>0</asrwt>
<pdfrwt beam="1">  1        1 0.44758290E+00 0.30000000E+03</pdfrwt>
<pdfrwt beam="2">0</pdfrwt>
<totfact> 0.53411538E-01</totfact>
</mgrwt>
</event>
<event>
 6    1  0.5260809E-006  0.3000000E+03  0.7818608E-02  0.1093470E+00
          1   -1    0    0  502    0  0.00000000000E+00  0.00000000000E+00  0.11753946965E+03  0.11753946965E+03  0.00000000000E+00 0.  1.
         13   -1    0    0    0    0 -0.00000000000E+00 -0.00000000000E+00 -0.10000000000E+04  0.10000000000E+04  0.00000000000E+00 0.  1.
    9000005    2    1    2  501    0  0.18292856442E+02  0.17953941143E+02 -0.87025046938E+03  0.10891483057E+04  0.65440903100E+03 0.  0.
         13    1    3    3    0    0 -0.16568131291E+03 -0.24805829153E+03 -0.24826784193E+03  0.38809809943E+03  0.00000000000E+00 0.  1.
          3    1    3    3  501    0  0.18397416936E+03  0.26601223267E+03 -0.62198262745E+03  0.70105020631E+03  0.00000000000E+00 0.  1.
         21    1    1    2  502  501 -0.18292856442E+02 -0.17953941143E+02 -0.12210060970E+02  0.28391163912E+02  0.00000000000E+00 0. -1.
<mgrwt>
<rscale>  1 0.30000000E+03</rscale>
<asrwt>0</asrwt>
<pdfrwt beam="1">  1        1 0.42741715E+00 0.30000000E+03</pdfrwt>
<pdfrwt beam="2">0</pdfrwt>
<totfact> 0.72115427E-01</totfact>
</mgrwt>
</event>
<event>
 6    1  0.5260809E-006  0.3000000E+03  0.7818608E-02  0.1093470E+00
          1   -1    0    0  502    0  0.00000000000E+00  0.00000000000E+00  0.92125820075E+02  0.92125820075E+02  0.00000000000E+00 0.  1.
         13   -1    0    0    0    0 -0.00000000000E+00 -0.00000000000E+00 -0.10000000000E+04  0.10000000000E+04  0.00000000000E+00 0.  1.
    9000005    2    1    2  501    0 -0.16084810125E+02  0.31533508057E+01 -0.89860179480E+03  0.10732938827E+04  0.58669064110E+03 0.  0.
         13    1    3    3    0    0 -0.44689907675E+02 -0.28424460991E+03 -0.34807735098E+03  0.45160826872E+03  0.00000000000E+00 0.  1.
          3    1    3    3  501    0  0.28605097549E+02  0.28739796072E+03 -0.55052444382E+03  0.62168561402E+03  0.00000000000E+00 0.  1.
         21    1    1    2  502  501  0.16084810125E+02 -0.31533508057E+01 -0.92723851251E+01  0.18831937340E+02  0.00000000000E+00 0. -1.
<mgrwt>
<rscale>  1 0.30000000E+03</rscale>
<asrwt>0</asrwt>
<pdfrwt beam="1">  1        1 0.33500369E+00 0.30000000E+03</pdfrwt>
<pdfrwt beam="2">0</pdfrwt>
<totfact> 0.23470036E+00</totfact>
</mgrwt>
</event>
<event>
 6    1  0.5260809E-006  0.3000000E+03  0.7818608E-02  0.1093470E+00
          1   -1    0    0  502    0  0.00000000000E+00  0.00000000000E+00  0.12931120579E+03  0.12931120579E+03  0.00000000000E+00 0.  1.
         13   -1    0    0    0    0 -0.00000000000E+00 -0.00000000000E+00 -0.10000000000E+04  0.10000000000E+04  0.00000000000E+00 0.  1.
    9000005    2    1    2  501    0  0.30059705122E+00 -0.20791023323E+02 -0.88054844059E+03  0.11062988257E+04  0.66940210529E+03 0.  0.
         13    1    3    3    0    0 -0.17912117818E+03  0.26477015958E+03 -0.53655919505E+03  0.62456657265E+03  0.00000000000E+00 0.  1.
          3    1    3    3  501    0  0.17942177523E+03 -0.28556118290E+03 -0.34398924554E+03  0.48173225308E+03  0.00000000000E+00 0.  1.
         21    1    1    2  502  501 -0.30059705122E+00  0.20791023323E+02  0.98596463792E+01  0.23012380062E+02  0.00000000000E+00 0.  1.
<mgrwt>
<rscale>  1 0.30000000E+03</rscale>
<asrwt>0</asrwt>
<pdfrwt beam="1">  1        1 0.47022356E+00 0.30000000E+03</pdfrwt>
<pdfrwt beam="2">0</pdfrwt>
<totfact> 0.37469542E-01</totfact>
</mgrwt>
</event>
<event>
 6    1  0.5260809E-006  0.3000000E+03  0.7818608E-02  0.1093470E+00
          1   -1    0    0  502    0  0.00000000000E+00  0.00000000000E+00  0.11331364979E+03  0.11331364979E+03  0.00000000000E+00 0.  1.
         13   -1    0    0    0    0 -0.00000000000E+00 -0.00000000000E+00 -0.10000000000E+04  0.10000000000E+04  0.00000000000E+00 0.  1.
    9000005    2    1    2  501    0 -0.86961812739E+00  0.14138165761E+02 -0.89277787734E+03  0.10978944841E+04  0.63884216835E+03 0.  0.
         13    1    3    3    0    0  0.14175591504E+03 -0.27826700765E+03 -0.40136952023E+03  0.50855162842E+03  0.00000000000E+00 0.  1.
          3    1    3    3  501    0 -0.14262553317E+03  0.29240517341E+03 -0.49140835711E+03  0.58934285572E+03  0.00000000000E+00 0.  1.
         21    1    1    2  502  501  0.86961812739E+00 -0.14138165761E+02  0.60915271326E+01  0.15419165658E+02  0.00000000000E+00 0. -1.
<mgrwt>
<rscale>  1 0.30000000E+03</rscale>
<asrwt>0</asrwt>
<pdfrwt beam="1">  1        1 0.41205050E+00 0.30000000E+03</pdfrwt>
<pdfrwt beam="2">0</pdfrwt>
<totfact> 0.89589556E-01</totfact>
</mgrwt>
</event>
<event>
 6    1  0.5260809E-006  0.3000000E+03  0.7818608E-02  0.1093470E+00
          1   -1    0    0  502    0  0.00000000000E+00  0.00000000000E+00  0.11192677672E+03  0.11192677672E+03  0.00000000000E+00 0.  1.
         13   -1    0    0    0    0 -0.00000000000E+00 -0.00000000000E+00 -0.10000000000E+04  0.10000000000E+04  0.00000000000E+00 0.  1.
    9000005    2    1    2  501    0 -0.14390409399E+02 -0.25173885899E+01 -0.89045325767E+03  0.10971252332E+04  0.64075217677E+03 0.  0.
         13    1    3    3    0    0 -0.20509501747E+03  0.24078760452E+03 -0.56993323550E+03  0.65181786536E+03  0.00000000000E+00 0.  1.
          3    1    3    3  501    0  0.19070460807E+03 -0.24330499311E+03 -0.32052002217E+03  0.44530736780E+03  0.00000000000E+00 0.  1.
         21    1    1    2  502  501  0.14390409399E+02  0.25173885899E+01  0.23800343873E+01  0.14801543557E+02  0.00000000000E+00 0.  1.
<mgrwt>
<rscale>  1 0.30000000E+03</rscale>
<asrwt>0</asrwt>
<pdfrwt beam="1">  1        1 0.40700732E+00 0.30000000E+03</pdfrwt>
<pdfrwt beam="2">0</pdfrwt>
<totfact> 0.95945894E-01</totfact>
</mgrwt>
</event>
<event>
 6    1  0.5260809E-006  0.3000000E+03  0.7818608E-02  0.1093470E+00
          1   -1    0    0  502    0  0.00000000000E+00  0.00000000000E+00  0.13294446041E+03  0.13294446041E+03  0.00000000000E+00 0.  1.
         13   -1    0    0    0    0 -0.00000000000E+00 -0.00000000000E+00 -0.10000000000E+04  0.10000000000E+04  0.00000000000E+00 0.  1.
    9000005    2    1    2  501    0  0.27298904637E+02  0.32611698441E+02 -0.87251343868E+03  0.10900662406E+04  0.65203984173E+03 0.  0.
         13    1    3    3    0    0 -0.29746839320E+03  0.10897411106E+03 -0.47723035139E+03  0.57281027410E+03  0.00000000000E+00 0.  1.
          1    1    3    3  501    0  0.32476729783E+03 -0.76362412621E+02 -0.39528308729E+03  0.51725596652E+03  0.00000000000E+00 0.  1.
         21    1    1    2  502  501 -0.27298904637E+02 -0.32611698441E+02  0.54578990858E+01  0.42878219786E+02  0.00000000000E+00 0.  1.
<mgrwt>
<rscale>  1 0.30000000E+03</rscale>
<asrwt>0</asrwt>
<pdfrwt beam="1">  1        1 0.48343542E+00 0.30000000E+03</pdfrwt>
<pdfrwt beam="2">0</pdfrwt>
<totfact> 0.30171287E-01</totfact>
</mgrwt>
</event>
<event>
 6    1  0.5260809E-006  0.3000000E+03  0.7818608E-02  0.1093470E+00
          1   -1    0    0  502    0  0.00000000000E+00  0.00000000000E+00  0.11903575957E+03  0.11903575957E+03  0.00000000000E+00 0.  1.
         13   -1    0    0    0    0 -0.00000000000E+00 -0.00000000000E+00 -0.10000000000E+04  0.10000000000E+04  0.00000000000E+00 0.  1.
    9000005    2    1    2  501    0 -0.28016168555E+02 -0.24641294223E+02 -0.84979459775E+03  0.10704184200E+04  0.64980969247E+03 0.  0.
         13    1    3    3    0    0 -0.39428637438E+02 -0.26641148842E+03 -0.76972440905E+03  0.81547861070E+03  0.00000000000E+00 0.  1.
          3    1    3    3  501    0  0.11412468884E+02  0.24177019420E+03 -0.80070188696E+02  0.25493980930E+03  0.00000000000E+00 0.  1.
         21    1    1    2  502  501  0.28016168555E+02  0.24641294223E+02 -0.31169642686E+02  0.48617339567E+02  0.00000000000E+00 0. -1.
<mgrwt>
<rscale>  1 0.30000000E+03</rscale>
<asrwt>0</asrwt>
<pdfrwt beam="1">  1        1 0.43285822E+00 0.30000000E+03</pdfrwt>
<pdfrwt beam="2">0</pdfrwt>
<totfact> 0.66628885E-01</totfact>
</mgrwt>
</event>
<event>
 6    1  0.5260809E-006  0.3000000E+03  0.7818608E-02  0.1093470E+00
          1   -1    0    0  502    0  0.00000000000E+00  0.00000000000E+00  0.70379123235E+02  0.70379123235E+02  0.00000000000E+00 0.  1.
         13   -1    0    0    0    0 -0.00000000000E+00 -0.00000000000E+00 -0.10000000000E+04  0.10000000000E+04  0.00000000000E+00 0.  1.
    9000005    2    1    2  501    0 -0.44116410387E+01 -0.30597006401E+02 -0.88696101769E+03  0.10176960809E+04  0.49804600864E+03 0.  0.
         13    1    3    3    0    0  0.11204833692E+03 -0.18770357010E+03 -0.74399818710E+03  0.77544874908E+03  0.00000000000E+00 0.  1.
          3    1    3    3  501    0 -0.11645997796E+03  0.15710656370E+03 -0.14296283058E+03  0.24224733178E+03  0.00000000000E+00 0.  1.
         21    1    1    2  502  501  0.44116410387E+01  0.30597006401E+02 -0.42659859080E+02  0.52683042377E+02  0.00000000000E+00 0. -1.
<mgrwt>
<rscale>  1 0.30000000E+03</rscale>
<asrwt>0</asrwt>
<pdfrwt beam="1">  1        1 0.25592462E+00 0.30000000E+03</pdfrwt>
<pdfrwt beam="2">0</pdfrwt>
<totfact> 0.55987596E+00</totfact>
</mgrwt>
</event>
<event>
 6    1  0.5260809E-006  0.3000000E+03  0.7818608E-02  0.1093470E+00
          1   -1    0    0  502    0  0.00000000000E+00  0.00000000000E+00  0.11176990068E+03  0.11176990068E+03  0.00000000000E+00 0.  1.
         13   -1    0    0    0    0 -0.00000000000E+00 -0.00000000000E+00 -0.10000000000E+04  0.10000000000E+04  0.00000000000E+00 0.  1.
    9000005    2    1    2  501    0 -0.11160540201E+02 -0.49828678069E+00 -0.88790478475E+03  0.11005935070E+04  0.65023561485E+03 0.  0.
         13    1    3    3    0    0 -0.29382751930E+03  0.13801850635E+03 -0.55097698988E+03  0.63949930615E+03  0.00000000000E+00 0.  1.
          3    1    3    3  501    0  0.28266697910E+03 -0.13851679313E+03 -0.33692779487E+03  0.46109420080E+03  0.00000000000E+00 0.  1.
         21    1    1    2  502  501  0.11160540201E+02  0.49828678069E+00 -0.32531457086E+00  0.11176393732E+02  0.00000000000E+00 0. -1.
<mgrwt>
<rscale>  1 0.30000000E+03</rscale>
<asrwt>0</asrwt>
<pdfrwt beam="1">  1        1 0.40643686E+00 0.30000000E+03</pdfrwt>
<pdfrwt beam="2">0</pdfrwt>
<totfact> 0.96685326E-01</totfact>
</mgrwt>
</event>
<event>
 6    1  0.5260809E-006  0.3000000E+03  0.7818608E-02  0.1093470E+00
          1   -1    0    0  502    0  0.00000000000E+00  0.00000000000E+00  0.11165607546E+03  0.11165607546E+03  0.00000000000E+00 0.  1.
         13   -1    0    0    0    0 -0.00000000000E+00 -0.00000000000E+00 -0.10000000000E+04  0.10000000000E+04  0.00000000000E+00 0.  1.
    9000005    2    1    2  501    0  0.18802969270E+02 -0.51845852432E+01 -0.88065744930E+03  0.10906914987E+04  0.64317180499E+03 0.  0.
         13    1    3    3    0    0  0.28273514995E+03 -0.98290030508E+02 -0.21486189355E+03  0.36846401237E+03  0.00000000000E+00 0.  1.
          1    1    3    3  501    0 -0.26393218068E+03  0.93105445265E+02 -0.66579555575E+03  0.72222748632E+03  0.00000000000E+00 0.  1.
         21    1    1    2  502  501 -0.18802969270E+02  0.51845852432E+01 -0.76864752376E+01  0.20964576769E+02  0.00000000000E+00 0.  1.
<mgrwt>
<rscale>  1 0.30000000E+03</rscale>
<asrwt>0</asrwt>
<pdfrwt beam="1">  1        1 0.40602295E+00 0.30000000E+03</pdfrwt>
<pdfrwt beam="2">0</pdfrwt>
<totfact> 0.97224469E-01</totfact>
</mgrwt>
</event>
<event>
 6    1  0.5260809E-006  0.3000000E+03  0.7818608E-02  0.1093470E+00
          1   -1    0    0  502    0  0.00000000000E+00  0.00000000000E+00  0.11043801670E+03  0.11043801670E+03  0.00000000000E+00 0.  1.
         13   -1    0    0    0    0 -0.00000000000E+00 -0.00000000000E+00 -0.10000000000E+04  0.10000000000E+04  0.00000000000E+00 0.  1.
    9000005    2    1    2  501    0 -0.70848520194E+01 -0.15593754446E+02 -0.88108882225E+03  0.10913289936E+04  0.64372983406E+03 0.  0.
         13    1    3    3    0    0 -0.19462999476E+03 -0.26607500872E+03 -0.48772080335E+03  0.58868355433E+03  0.00000000000E+00 0.  1.
          1    1    3    3  501    0  0.18754514274E+03  0.25048125428E+03 -0.39336801890E+03  0.50264543926E+03  0.00000000000E+00 0.  1.
         21    1    1    2  502  501  0.70848520194E+01  0.15593754446E+02 -0.84731610529E+01  0.19109023106E+02  0.00000000000E+00 0.  1.
<mgrwt>
<rscale>  1 0.30000000E+03</rscale>
<asrwt>0</asrwt>
<pdfrwt beam="1">  1        1 0.40159363E+00 0.30000000E+03</pdfrwt>
<pdfrwt beam="2">0</pdfrwt>
<totfact> 0.10313089E+00</totfact>
</mgrwt>
</event>
<event>
 6    1  0.5260809E-006  0.3000000E+03  0.7818608E-02  0.1093470E+00
          1   -1    0    0  502    0  0.00000000000E+00  0.00000000000E+00  0.11875704643E+03  0.11875704643E+03  0.00000000000E+00 0.  1.
         13   -1    0    0    0    0 -0.00000000000E+00 -0.00000000000E+00 -0.10000000000E+04  0.10000000000E+04  0.00000000000E+00 0.  1.
    9000005    2    1    2  501    0  0.79941138180E+01 -0.11561267611E+02 -0.89152325284E+03  0.11013428764E+04  0.64648654457E+03 0.  0.
         13    1    3    3    0    0  0.26190678417E+03  0.15365095254E+03 -0.63703284248E+03  0.70570150999E+03  0.00000000000E+00 0.  1.
          1    1    3    3  501    0 -0.25391267036E+03 -0.16521222015E+03 -0.25449041036E+03  0.39564136642E+03  0.00000000000E+00 0.  1.
         21    1    1    2  502  501 -0.79941138180E+01  0.11561267611E+02  0.10280299272E+02  0.17414170024E+02  0.00000000000E+00 0. -1.
<mgrwt>
<rscale>  1 0.30000000E+03</rscale>
<asrwt>0</asrwt>
<pdfrwt beam="1">  1        1 0.43184472E+00 0.30000000E+03</pdfrwt>
<pdfrwt beam="2">0</pdfrwt>
<totfact> 0.67623649E-01</totfact>
</mgrwt>
</event>
<event>
 6    1  0.5260809E-006  0.3000000E+03  0.7818608E-02  0.1093470E+00
          1   -1    0    0  502    0  0.00000000000E+00  0.00000000000E+00  0.11027119083E+03  0.11027119083E+03  0.00000000000E+00 0.  1.
         13   -1    0    0    0    0 -0.00000000000E+00 -0.00000000000E+00 -0.10000000000E+04  0.10000000000E+04  0.00000000000E+00 0.  1.
    9000005    2    1    2  501    0 -0.54744329701E+00 -0.95989723360E+01 -0.87698519589E+03  0.10943074931E+04  0.65445658052E+03 0.  0.
         13    1    3    3    0    0  0.16827064280E+03 -0.21530112944E+03 -0.75239204871E+03  0.80047697064E+03  0.00000000000E+00 0.  1.
          1    1    3    3  501    0 -0.16881808609E+03  0.20570215710E+03 -0.12459314718E+03  0.29383052250E+03  0.00000000000E+00 0.  1.
         21    1    1    2  502  501  0.54744329701E+00  0.95989723360E+01 -0.12743613287E+02  0.15963697682E+02  0.00000000000E+00 0. -1.
<mgrwt>
<rscale>  1 0.30000000E+03</rscale>
<asrwt>0</asrwt>
<pdfrwt beam="1">  1        1 0.40098699E+00 0.30000000E+03</pdfrwt>
<pdfrwt beam="2">0</pdfrwt>
<totfact> 0.10395913E+00</totfact>
</mgrwt>
</event>
<event>
 6    1  0.5260809E-006  0.3000000E+03  0.7818608E-02  0.1093470E+00
          1   -1    0    0  502    0  0.00000000000E+00  0.00000000000E+00  0.12524262195E+03  0.12524262195E+03  0.00000000000E+00 0.  1.
         13   -1    0    0    0    0 -0.00000000000E+00 -0.00000000000E+00 -0.10000000000E+04  0.10000000000E+04  0.00000000000E+00 0.  1.
    9000005    2    1    2  501    0  0.39934902812E+02  0.22444234629E+02 -0.86050254022E+03  0.10772661638E+04  0.64648219302E+03 0.  0.
         13    1    3    3    0    0 -0.24919537878E+03 -0.14085530947E+03 -0.56227378095E+03  0.63094402268E+03  0.00000000000E+00 0.  1.
          1    1    3    3  501    0  0.28913028159E+03  0.16329954410E+03 -0.29822875927E+03  0.44632214116E+03  0.00000000000E+00 0.  1.
         21    1    1    2  502  501 -0.39934902812E+02 -0.22444234629E+02 -0.14254837829E+02  0.47976458104E+02  0.00000000000E+00 0.  1.
<mgrwt>
<rscale>  1 0.30000000E+03</rscale>
<asrwt>0</asrwt>
<pdfrwt beam="1">  1        1 0.45542868E+00 0.30000000E+03</pdfrwt>
<pdfrwt beam="2">0</pdfrwt>
<totfact> 0.47309514E-01</totfact>
</mgrwt>
</event>
<event>
 6    1  0.5260809E-006  0.3000000E+03  0.7818608E-02  0.1093470E+00
          1   -1    0    0  502    0  0.00000000000E+00  0.00000000000E+00  0.11335606923E+03  0.11335606923E+03  0.00000000000E+00 0.  1.
         13   -1    0    0    0    0 -0.00000000000E+00 -0.00000000000E+00 -0.10000000000E+04  0.10000000000E+04  0.00000000000E+00 0.  1.
    9000005    2    1    2  501    0 -0.25960471973E+02 -0.15522201559E+02 -0.83959743798E+03  0.10574252429E+04  0.64211323120E+03 0.  0.
         13    1    3    3    0    0 -0.10198200127E+02 -0.20057804168E+03 -0.84805014317E+03  0.87150708513E+03  0.00000000000E+00 0.  1.
          1    1    3    3  501    0 -0.15762271847E+02  0.18505584012E+03  0.84527051892E+01  0.18591815781E+03  0.00000000000E+00 0.  1.
         21    1    1    2  502  501  0.25960471973E+02  0.15522201559E+02 -0.47046492788E+02  0.55930826295E+02  0.00000000000E+00 0.  1.
<mgrwt>
<rscale>  1 0.30000000E+03</rscale>
<asrwt>0</asrwt>
<pdfrwt beam="1">  1        1 0.41220476E+00 0.30000000E+03</pdfrwt>
<pdfrwt beam="2">0</pdfrwt>
<totfact> 0.89400197E-01</totfact>
</mgrwt>
</event>
<event>
 6    1  0.5260809E-006  0.3000000E+03  0.7818608E-02  0.1093470E+00
          1   -1    0    0  502    0  0.00000000000E+00  0.00000000000E+00  0.12533857266E+03  0.12533857266E+03  0.00000000000E+00 0.  1.
         13   -1    0    0    0    0 -0.00000000000E+00 -0.00000000000E+00 -0.10000000000E+04  0.10000000000E+04  0.00000000000E+00 0.  1.
    9000005    2    1    2  501    0 -0.12155712775E+02  0.29063493875E+01 -0.88948018505E+03  0.11059529130E+04  0.65711539167E+03 0.  0.
         13    1    3    3    0    0  0.10314020982E+03  0.16594969479E+03 -0.10865457577E+01  0.19539289819E+03  0.00000000000E+00 0.  1.
          1    1    3    3  501    0 -0.11529592260E+03 -0.16304334540E+03 -0.88839363930E+03  0.91056001482E+03  0.00000000000E+00 0.  1.
         21    1    1    2  502  501  0.12155712775E+02 -0.29063493875E+01  0.14818757717E+02  0.19385659651E+02  0.00000000000E+00 0.  1.
<mgrwt>
<rscale>  1 0.30000000E+03</rscale>
<asrwt>0</asrwt>
<pdfrwt beam="1">  1        1 0.45577759E+00 0.30000000E+03</pdfrwt>
<pdfrwt beam="2">0</pdfrwt>
<totfact> 0.47054681E-01</totfact>
</mgrwt>
</event>
<event>
 6    1  0.5260809E-006  0.3000000E+03  0.7818608E-02  0.1093470E+00
          1   -1    0    0  502    0  0.00000000000E+00  0.00000000000E+00  0.12366696327E+03  0.12366696327E+03  0.00000000000E+00 0.  1.
         13   -1    0    0    0    0 -0.00000000000E+00 -0.00000000000E+00 -0.10000000000E+04  0.10000000000E+04  0.00000000000E+00 0.  1.
    9000005    2    1    2  501    0 -0.71198820457E+01 -0.13747180745E+02 -0.89012990276E+03  0.11029297694E+04  0.65106309577E+03 0.  0.
         13    1    3    3    0    0 -0.28811611912E+03 -0.68312233714E+02 -0.20425113978E+03  0.35971653767E+03  0.00000000000E+00 0.  1.
          1    1    3    3  501    0  0.28099623708E+03  0.54565052969E+02 -0.68587876298E+03  0.74321323169E+03  0.00000000000E+00 0.  1.
         21    1    1    2  502  501  0.71198820457E+01  0.13747180745E+02  0.13796866023E+02  0.20737193900E+02  0.00000000000E+00 0.  1.
<mgrwt>
<rscale>  1 0.30000000E+03</rscale>
<asrwt>0</asrwt>
<pdfrwt beam="1">  1        1 0.44969900E+00 0.30000000E+03</pdfrwt>
<pdfrwt beam="2">0</pdfrwt>
<totfact> 0.51695319E-01</totfact>
</mgrwt>
</event>
<event>
 6    1  0.5260809E-006  0.3000000E+03  0.7818608E-02  0.1093470E+00
          1   -1    0    0  502    0  0.00000000000E+00  0.00000000000E+00  0.16303185646E+03  0.16303185646E+03  0.00000000000E+00 0.  1.
         13   -1    0    0    0    0 -0.00000000000E+00 -0.00000000000E+00 -0.10000000000E+04  0.10000000000E+04  0.00000000000E+00 0.  1.
    9000005    2    1    2  501    0 -0.20286306398E+02 -0.25209071541E+02 -0.89766334563E+03  0.10942500342E+04  0.62492929503E+03 0.  0.
         13    1    3    3    0    0  0.20590307651E+03  0.11969691324E+03 -0.11057355889E+03  0.26258320564E+03  0.00000000000E+00 0.  1.
          1    1    3    3  501    0 -0.22618938291E+03 -0.14490598478E+03 -0.78708978674E+03  0.83166682858E+03  0.00000000000E+00 0.  1.
         21    1    1    2  502  501  0.20286306398E+02  0.25209071541E+02  0.60695202086E+02  0.68781822247E+02  0.00000000000E+00 0.  1.
<mgrwt>
<rscale>  1 0.30000000E+03</rscale>
<asrwt>0</asrwt>
<pdfrwt beam="1">  1        1 0.59284436E+00 0.30000000E+03</pdfrwt>
<pdfrwt beam="2">0</pdfrwt>
<totfact> 0.63403074E-02</totfact>
</mgrwt>
</event>
<event>
 6    1  0.5260809E-006  0.3000000E+03  0.7818608E-02  0.1093470E+00
          1   -1    0    0  502    0  0.00000000000E+00  0.00000000000E+00  0.12089481258E+03  0.12089481258E+03  0.00000000000E+00 0.  1.
         13   -1    0    0    0    0 -0.00000000000E+00 -0.00000000000E+00 -0.10000000000E+04  0.10000000000E+04  0.00000000000E+00 0.  1.
    9000005    2    1    2  501    0  0.23615503168E+02 -0.15410193775E+02 -0.87711844666E+03  0.10926262222E+04  0.65092251916E+03 0.  0.
         13    1    3    3    0    0  0.23578238073E+03 -0.11256073657E+03 -0.80809166144E+03  0.84927933200E+03  0.00000000000E+00 0.  1.
          1    1    3    3  501    0 -0.21216687756E+03  0.97150542794E+02 -0.69026785225E+02  0.24334689022E+03  0.00000000000E+00 0.  1.
         21    1    1    2  502  501 -0.23615503168E+02  0.15410193775E+02 -0.19867407603E+01  0.28268590359E+02  0.00000000000E+00 0.  1.
<mgrwt>
<rscale>  1 0.30000000E+03</rscale>
<asrwt>0</asrwt>
<pdfrwt beam="1">  1        1 0.43961843E+00 0.30000000E+03</pdfrwt>
<pdfrwt beam="2">0</pdfrwt>
<totfact> 0.60287777E-01</totfact>
</mgrwt>
</event>
<event>
 6    1  0.5260809E-006  0.3000000E+03  0.7818608E-02  0.1093470E+00
          1   -1    0    0  502    0  0.00000000000E+00  0.00000000000E+00  0.12689008822E+03  0.12689008822E+03  0.00000000000E+00 0.  1.
         13   -1    0    0    0    0 -0.00000000000E+00 -0.00000000000E+00 -0.10000000000E+04  0.10000000000E+04  0.00000000000E+00 0.  1.
    9000005    2    1    2  501    0  0.13493988794E+02 -0.17226908114E+00 -0.88261374924E+03  0.11103843215E+04  0.67362021465E+03 0.  0.
         13    1    3    3    0    0  0.78620463214E+01 -0.32422971274E+03 -0.29066133245E+03  0.43551203035E+03  0.00000000000E+00 0.  1.
          3    1    3    3  501    0  0.56319424726E+01  0.32405744366E+03 -0.59195241679E+03  0.67487229111E+03  0.00000000000E+00 0.  1.
         21    1    1    2  502  501 -0.13493988794E+02  0.17226908114E+00  0.95038374603E+01  0.16505766770E+02  0.00000000000E+00 0.  1.
<mgrwt>
<rscale>  1 0.30000000E+03</rscale>
<asrwt>0</asrwt>
<pdfrwt beam="1">  1        1 0.46141948E+00 0.30000000E+03</pdfrwt>
<pdfrwt beam="2">0</pdfrwt>
<totfact> 0.43102964E-01</totfact>
</mgrwt>
</event>
<event>
 6    1  0.5260809E-006  0.3000000E+03  0.7818608E-02  0.1093470E+00
          1   -1    0    0  502    0  0.00000000000E+00  0.00000000000E+00  0.11161312773E+03  0.11161312773E+03  0.00000000000E+00 0.  1.
         13   -1    0    0    0    0 -0.00000000000E+00 -0.00000000000E+00 -0.10000000000E+04  0.10000000000E+04  0.00000000000E+00 0.  1.
    9000005    2    1    2  501    0 -0.10290825099E+02  0.53249180916E+01 -0.89312656519E+03  0.10990943210E+04  0.64046780488E+03 0.  0.
         13    1    3    3    0    0  0.27250207348E+03  0.16492573492E+02 -0.71336117932E+03  0.76381513287E+03  0.00000000000E+00 0.  1.
          3    1    3    3  501    0 -0.28279289858E+03 -0.11167655400E+02 -0.17976538587E+03  0.33527918810E+03  0.00000000000E+00 0.  1.
         21    1    1    2  502  501  0.10290825099E+02 -0.53249180916E+01  0.47396929223E+01  0.12518806768E+02  0.00000000000E+00 0.  1.
<mgrwt>
<rscale>  1 0.30000000E+03</rscale>
<asrwt>0</asrwt>
<pdfrwt beam="1">  1        1 0.40586677E+00 0.30000000E+03</pdfrwt>
<pdfrwt beam="2">0</pdfrwt>
<totfact> 0.97428471E-01</totfact>
</mgrwt>
</event>
<event>
 6    1  0.5260809E-006  0.3000000E+03  0.7818608E-02  0.1093470E+00
          1   -1    0    0  502    0  0.00000000000E+00  0.00000000000E+00  0.13219381167E+03  0.13219381167E+03  0.00000000000E+00 0.  1.
         13   -1    0    0    0    0 -0.00000000000E+00 -0.00000000000E+00 -0.10000000000E+04  0.10000000000E+04  0.00000000000E+00 0.  1.
    9000005    2    1    2  501    0 -0.11799746878E+02  0.15304954034E+02 -0.87133309884E+03  0.11125490988E+04  0.69149884493E+03 0.  0.
         13    1    3    3    0    0  0.65309991952E+02 -0.21558192700E+03 -0.83692202911E+03  0.86670608923E+03  0.00000000000E+00 0.  1.
          3    1    3    3  501    0 -0.77109738830E+02  0.23088688103E+03 -0.34411069731E+02  0.24584300961E+03  0.00000000000E+00 0.  1.
         21    1    1    2  502  501  0.11799746878E+02 -0.15304954034E+02  0.35269105130E+01  0.19644712829E+02  0.00000000000E+00 0.  1.
<mgrwt>
<rscale>  1 0.30000000E+03</rscale>
<asrwt>0</asrwt>
<pdfrwt beam="1">  1        1 0.48070578E+00 0.30000000E+03</pdfrwt>
<pdfrwt beam="2">0</pdfrwt>
<totfact> 0.31569149E-01</totfact>
</mgrwt>
</event>
<event>
 6    1  0.5260809E-006  0.3000000E+03  0.7818608E-02  0.1093470E+00
          1   -1    0    0  502    0  0.00000000000E+00  0.00000000000E+00  0.11957561571E+03  0.11957561571E+03  0.00000000000E+00 0.  1.
         13   -1    0    0    0    0 -0.00000000000E+00 -0.00000000000E+00 -0.10000000000E+04  0.10000000000E+04  0.00000000000E+00 0.  1.
    9000005    2    1    2  501    0 -0.10384588948E+02 -0.20311178199E+01 -0.89108561436E+03  0.11045547318E+04  0.65260678687E+03 0.  0.
         13    1    3    3    0    0 -0.87199038114E+02  0.19112995715E+03 -0.22318179302E+02  0.21126389634E+03  0.00000000000E+00 0.  1.
          1    1    3    3  501    0  0.76814449166E+02 -0.19316107497E+03 -0.86876743506E+03  0.89329083545E+03  0.00000000000E+00 0.  1.
         21    1    1    2  502  501  0.10384588948E+02  0.20311178199E+01  0.10661230075E+02  0.15020883926E+02  0.00000000000E+00 0.  1.
<mgrwt>
<rscale>  1 0.30000000E+03</rscale>
<asrwt>0</asrwt>
<pdfrwt beam="1">  1        1 0.43482134E+00 0.30000000E+03</pdfrwt>
<pdfrwt beam="2">0</pdfrwt>
<totfact> 0.64735775E-01</totfact>
</mgrwt>
</event>
<event>
 6    1  0.5260809E-006  0.3000000E+03  0.7818608E-02  0.1093470E+00
          1   -1    0    0  502    0  0.00000000000E+00  0.00000000000E+00  0.12740035002E+03  0.12740035002E+03  0.00000000000E+00 0.  1.
         13   -1    0    0    0    0 -0.00000000000E+00 -0.00000000000E+00 -0.10000000000E+04  0.10000000000E+04  0.00000000000E+00 0.  1.
    9000005    2    1    2  501    0  0.26277973233E-01 -0.19205210778E+02 -0.88993395405E+03  0.11015291516E+04  0.64885683197E+03 0.  0.
         13    1    3    3    0    0 -0.28206465749E+03 -0.13040511059E+03 -0.62867404698E+03  0.70128241188E+03  0.00000000000E+00 0.  1.
          1    1    3    3  501    0  0.28209093546E+03  0.11119989982E+03 -0.26125990707E+03  0.40024673969E+03  0.00000000000E+00 0.  1.
         21    1    1    2  502  501 -0.26277973233E-01  0.19205210778E+02  0.17334304061E+02  0.25871198442E+02  0.00000000000E+00 0. -1.
<mgrwt>
<rscale>  1 0.30000000E+03</rscale>
<asrwt>0</asrwt>
<pdfrwt beam="1">  1        1 0.46327498E+00 0.30000000E+03</pdfrwt>
<pdfrwt beam="2">0</pdfrwt>
<totfact> 0.41865269E-01</totfact>
</mgrwt>
</event>
<event>
 6    1  0.5260809E-006  0.3000000E+03  0.7818608E-02  0.1093470E+00
          1   -1    0    0  502    0  0.00000000000E+00  0.00000000000E+00  0.12309941471E+03  0.12309941471E+03  0.00000000000E+00 0.  1.
         13   -1    0    0    0    0 -0.00000000000E+00 -0.00000000000E+00 -0.10000000000E+04  0.10000000000E+04  0.00000000000E+00 0.  1.
    9000005    2    1    2  501    0 -0.20641525819E+02  0.67018047742E+01 -0.88517165249E+03  0.10998744857E+04  0.65247531993E+03 0.  0.
         13    1    3    3    0    0 -0.32045002097E+03  0.60818383185E+02 -0.31515691774E+03  0.45355371729E+03  0.00000000000E+00 0.  1.
          1    1    3    3  501    0  0.29980849515E+03 -0.54116578411E+02 -0.57001473476E+03  0.64632076840E+03  0.00000000000E+00 0.  1.
         21    1    1    2  502  501  0.20641525819E+02 -0.67018047742E+01  0.82710672064E+01  0.23224929023E+02  0.00000000000E+00 0. -1.
<mgrwt>
<rscale>  1 0.30000000E+03</rscale>
<asrwt>0</asrwt>
<pdfrwt beam="1">  1        1 0.44763518E+00 0.30000000E+03</pdfrwt>
<pdfrwt beam="2">0</pdfrwt>
<totfact> 0.53368541E-01</totfact>
</mgrwt>
</event>
<event>
 6    1  0.5260809E-006  0.3000000E+03  0.7818608E-02  0.1093470E+00
          1   -1    0    0  502    0  0.00000000000E+00  0.00000000000E+00  0.11060423644E+03  0.11060423644E+03  0.00000000000E+00 0.  1.
         13   -1    0    0    0    0 -0.00000000000E+00 -0.00000000000E+00 -0.10000000000E+04  0.10000000000E+04  0.00000000000E+00 0.  1.
    9000005    2    1    2  501    0 -0.39132443669E+01  0.15892672449E+02 -0.88315637410E+03  0.10930879440E+04  0.64390075457E+03 0.  0.
         13    1    3    3    0    0 -0.46326592866E+02  0.32149106989E+03 -0.35306181629E+03  0.47974504411E+03  0.00000000000E+00 0.  1.
          3    1    3    3  501    0  0.42413348499E+02 -0.30559839744E+03 -0.53009455780E+03  0.61334289991E+03  0.00000000000E+00 0.  1.
         21    1    1    2  502  501  0.39132443669E+01 -0.15892672449E+02 -0.62393894663E+01  0.17516292415E+02  0.00000000000E+00 0.  1.
<mgrwt>
<rscale>  1 0.30000000E+03</rscale>
<asrwt>0</asrwt>
<pdfrwt beam="1">  1        1 0.40219807E+00 0.30000000E+03</pdfrwt>
<pdfrwt beam="2">0</pdfrwt>
<totfact> 0.10231042E+00</totfact>
</mgrwt>
</event>
<event>
 6    1  0.5260809E-006  0.3000000E+03  0.7818608E-02  0.1093470E+00
          1   -1    0    0  502    0  0.00000000000E+00  0.00000000000E+00  0.10103768774E+03  0.10103768774E+03  0.00000000000E+00 0.  1.
         13   -1    0    0    0    0 -0.00000000000E+00 -0.00000000000E+00 -0.10000000000E+04  0.10000000000E+04  0.00000000000E+00 0.  1.
    9000005    2    1    2  501    0  0.29005259787E+00  0.96871653201E+01 -0.89437436077E+03  0.10903150667E+04  0.62352828504E+03 0.  0.
         13    1    3    3    0    0  0.55618391803E+02 -0.27551604727E+03 -0.22304435797E+03  0.35881929078E+03  0.00000000000E+00 0.  1.
          1    1    3    3  501    0 -0.55328339205E+02  0.28520321259E+03 -0.67133000279E+03  0.73149577596E+03  0.00000000000E+00 0.  1.
         21    1    1    2  502  501 -0.29005259787E+00 -0.96871653201E+01 -0.45879514913E+01  0.10722621010E+02  0.00000000000E+00 0.  1.
<mgrwt>
<rscale>  1 0.30000000E+03</rscale>
<asrwt>0</asrwt>
<pdfrwt beam="1">  1        1 0.36741055E+00 0.30000000E+03</pdfrwt>
<pdfrwt beam="2">0</pdfrwt>
<totfact> 0.15939066E+00</totfact>
</mgrwt>
</event>
<event>
 6    1  0.5260809E-006  0.3000000E+03  0.7818608E-02  0.1093470E+00
          1   -1    0    0  502    0  0.00000000000E+00  0.00000000000E+00  0.12093740973E+03  0.12093740973E+03  0.00000000000E+00 0.  1.
         13   -1    0    0    0    0 -0.00000000000E+00 -0.00000000000E+00 -0.10000000000E+04  0.10000000000E+04  0.00000000000E+00 0.  1.
    9000005    2    1    2  501    0  0.25803708601E+02  0.29779224802E+02 -0.86058020203E+03  0.10774146308E+04  0.64704819683E+03 0.  0.
         13    1    3    3    0    0  0.17316358715E+03  0.31685873225E+02  0.26635626787E+02  0.17804235196E+03  0.00000000000E+00 0.  1.
          1    1    3    3  501    0 -0.14735987855E+03 -0.19066484232E+01 -0.88721582881E+03  0.89937227888E+03  0.00000000000E+00 0.  1.
         21    1    1    2  502  501 -0.25803708601E+02 -0.29779224802E+02 -0.18482388241E+02  0.43522778892E+02  0.00000000000E+00 0.  1.
<mgrwt>
<rscale>  1 0.30000000E+03</rscale>
<asrwt>0</asrwt>
<pdfrwt beam="1">  1        1 0.43977333E+00 0.30000000E+03</pdfrwt>
<pdfrwt beam="2">0</pdfrwt>
<totfact> 0.60148177E-01</totfact>
</mgrwt>
</event>
<event>
 6    1  0.5260809E-006  0.3000000E+03  0.7818608E-02  0.1093470E+00
          1   -1    0    0  502    0  0.00000000000E+00  0.00000000000E+00  0.10892747704E+03  0.10892747704E+03  0.00000000000E+00 0.  1.
         13   -1    0    0    0    0 -0.00000000000E+00 -0.00000000000E+00 -0.10000000000E+04  0.10000000000E+04  0.00000000000E+00 0.  1.
    9000005    2    1    2  501    0  0.65391072820E+01 -0.66202551091E+01 -0.88578582020E+03  0.10982252844E+04  0.64914995822E+03 0.  0.
         13    1    3    3    0    0  0.71628347233E+02 -0.28663892035E+03 -0.20608277384E+03  0.36022576318E+03  0.00000000000E+00 0.  1.
          3    1    3    3  501    0 -0.65089239951E+02  0.28001866524E+03 -0.67970304636E+03  0.73799952119E+03  0.00000000000E+00 0.  1.
         21    1    1    2  502  501 -0.65391072820E+01  0.66202551091E+01 -0.52867027641E+01  0.10702192666E+02  0.00000000000E+00 0.  1.
<mgrwt>
<rscale>  1 0.30000000E+03</rscale>
<asrwt>0</asrwt>
<pdfrwt beam="1">  1        1 0.39610075E+00 0.30000000E+03</pdfrwt>
<pdfrwt beam="2">0</pdfrwt>
<totfact> 0.11081824E+00</totfact>
</mgrwt>
</event>
<event>
 6    1  0.5260809E-006  0.3000000E+03  0.7818608E-02  0.1093470E+00
          1   -1    0    0  502    0  0.00000000000E+00  0.00000000000E+00  0.72466920573E+02  0.72466920573E+02  0.00000000000E+00 0.  1.
         13   -1    0    0    0    0 -0.00000000000E+00 -0.00000000000E+00 -0.10000000000E+04  0.10000000000E+04  0.00000000000E+00 0.  1.
    9000005    2    1    2  501    0  0.35255967223E+00 -0.92493589559E+01 -0.91435863969E+03  0.10563659640E+04  0.52893445060E+03 0.  0.
         13    1    3    3    0    0  0.97456217002E+02 -0.21313086129E+03 -0.20309326737E+03  0.31011184033E+03  0.00000000000E+00 0.  1.
          3    1    3    3  501    0 -0.97103657330E+02  0.20388150233E+03 -0.71126537233E+03  0.74625412370E+03  0.00000000000E+00 0.  1.
         21    1    1    2  502  501 -0.35255967223E+00  0.92493589559E+01 -0.13174439732E+02  0.16100956545E+02  0.00000000000E+00 0.  1.
<mgrwt>
<rscale>  1 0.30000000E+03</rscale>
<asrwt>0</asrwt>
<pdfrwt beam="1">  1        1 0.26351663E+00 0.30000000E+03</pdfrwt>
<pdfrwt beam="2">0</pdfrwt>
<totfact> 0.51580248E+00</totfact>
</mgrwt>
</event>
<event>
 6    1  0.5260809E-006  0.3000000E+03  0.7818608E-02  0.1093470E+00
          1   -1    0    0  502    0  0.00000000000E+00  0.00000000000E+00  0.90746012748E+02  0.90746012748E+02  0.00000000000E+00 0.  1.
         13   -1    0    0    0    0 -0.00000000000E+00 -0.00000000000E+00 -0.10000000000E+04  0.10000000000E+04  0.00000000000E+00 0.  1.
    9000005    2    1    2  501    0 -0.33316931486E+02 -0.24977647245E+02 -0.88025090999E+03  0.10400007738E+04  0.55229162964E+03 0.  0.
         13    1    3    3    0    0  0.16300776570E+03 -0.21860269950E+03 -0.36509644880E+03  0.45569078204E+03  0.00000000000E+00 0.  1.
          1    1    3    3  501    0 -0.19632469719E+03  0.19362505225E+03 -0.51515446119E+03  0.58430999176E+03  0.00000000000E+00 0.  1.
         21    1    1    2  502  501  0.33316931486E+02  0.24977647245E+02 -0.29003077259E+02  0.50745238949E+02  0.00000000000E+00 0.  1.
<mgrwt>
<rscale>  1 0.30000000E+03</rscale>
<asrwt>0</asrwt>
<pdfrwt beam="1">  1        1 0.32998620E+00 0.30000000E+03</pdfrwt>
<pdfrwt beam="2">0</pdfrwt>
<totfact> 0.24866858E+00</totfact>
</mgrwt>
</event>
<event>
 6    1  0.5260809E-006  0.3000000E+03  0.7818608E-02  0.1093470E+00
          1   -1    0    0  502    0  0.00000000000E+00  0.00000000000E+00  0.10635145837E+03  0.10635145837E+03  0.00000000000E+00 0.  1.
         13   -1    0    0    0    0 -0.00000000000E+00 -0.00000000000E+00 -0.10000000000E+04  0.10000000000E+04  0.00000000000E+00 0.  1.
    9000005    2    1    2  501    0  0.11047390312E+02 -0.96777743608E+01 -0.89485522990E+03  0.10916151004E+04  0.62501355251E+03 0.  0.
         13    1    3    3    0    0  0.29722808374E+03 -0.11689654597E+03 -0.44381121222E+03  0.54678855906E+03  0.00000000000E+00 0.  1.
          1    1    3    3  501    0 -0.28618069343E+03  0.10721877161E+03 -0.45104401768E+03  0.54482654136E+03  0.00000000000E+00 0.  1.
         21    1    1    2  502  501 -0.11047390312E+02  0.96777743608E+01  0.12066882781E+01  0.14736357959E+02  0.00000000000E+00 0. -1.
<mgrwt>
<rscale>  1 0.30000000E+03</rscale>
<asrwt>0</asrwt>
<pdfrwt beam="1">  1        1 0.38673339E+00 0.30000000E+03</pdfrwt>
<pdfrwt beam="2">0</pdfrwt>
<totfact> 0.12505833E+00</totfact>
</mgrwt>
</event>
<event>
 6    1  0.5260809E-006  0.3000000E+03  0.7818608E-02  0.1093470E+00
          1   -1    0    0  502    0  0.00000000000E+00  0.00000000000E+00  0.11508971586E+03  0.11508971586E+03  0.00000000000E+00 0.  1.
         13   -1    0    0    0    0 -0.00000000000E+00 -0.00000000000E+00 -0.10000000000E+04  0.10000000000E+04  0.00000000000E+00 0.  1.
    9000005    2    1    2  501    0 -0.10526273786E+02 -0.72440411763E+00 -0.89791916182E+03  0.10983398472E+04  0.63243993519E+03 0.  0.
         13    1    3    3    0    0 -0.26103864278E+03 -0.17497671063E+03 -0.56652029205E+03  0.64784509228E+03  0.00000000000E+00 0.  1.
          3    1    3    3  501    0  0.25051236899E+03  0.17425230651E+03 -0.33139886977E+03  0.45049475494E+03  0.00000000000E+00 0.  1.
         21    1    1    2  502  501  0.10526273786E+02  0.72440411763E+00  0.13008877676E+02  0.16749868642E+02  0.00000000000E+00 0. -1.
<mgrwt>
<rscale>  1 0.30000000E+03</rscale>
<asrwt>0</asrwt>
<pdfrwt beam="1">  1        1 0.41850894E+00 0.30000000E+03</pdfrwt>
<pdfrwt beam="2">0</pdfrwt>
<totfact> 0.81908496E-01</totfact>
</mgrwt>
</event>
<event>
 6    1  0.5260809E-006  0.3000000E+03  0.7818608E-02  0.1093470E+00
          1   -1    0    0  502    0  0.00000000000E+00  0.00000000000E+00  0.11321999743E+03  0.11321999743E+03  0.00000000000E+00 0.  1.
         13   -1    0    0    0    0 -0.00000000000E+00 -0.00000000000E+00 -0.10000000000E+04  0.10000000000E+04  0.00000000000E+00 0.  1.
    9000005    2    1    2  501    0  0.16893956744E+02 -0.59419006472E+01 -0.87881398645E+03  0.10936197584E+04  0.65066845721E+03 0.  0.
         13    1    3    3    0    0 -0.13961874360E+03  0.14082770829E+03 -0.85504900119E+03  0.87774405804E+03  0.00000000000E+00 0.  1.
          1    1    3    3  501    0  0.15651270035E+03 -0.14676960894E+03 -0.23764985262E+02  0.21587570035E+03  0.00000000000E+00 0.  1.
         21    1    1    2  502  501 -0.16893956744E+02  0.59419006472E+01 -0.79660161169E+01  0.19600239043E+02  0.00000000000E+00 0.  1.
<mgrwt>
<rscale>  1 0.30000000E+03</rscale>
<asrwt>0</asrwt>
<pdfrwt beam="1">  1        1 0.41170995E+00 0.30000000E+03</pdfrwt>
<pdfrwt beam="2">0</pdfrwt>
<totfact> 0.90008670E-01</totfact>
</mgrwt>
</event>
<event>
 6    1  0.5260809E-006  0.3000000E+03  0.7818608E-02  0.1093470E+00
          1   -1    0    0  502    0  0.00000000000E+00  0.00000000000E+00  0.13762638945E+03  0.13762638945E+03  0.00000000000E+00 0.  1.
         13   -1    0    0    0    0 -0.00000000000E+00 -0.00000000000E+00 -0.10000000000E+04  0.10000000000E+04  0.00000000000E+00 0.  1.
    9000005    2    1    2  501    0  0.72808128916E+02  0.23535999109E+02 -0.81223582098E+03  0.10461454361E+04  0.65485744831E+03 0.  0.
         13    1    3    3    0    0 -0.25377435505E+03  0.16237303375E+03 -0.42432041607E+03  0.52039815609E+03  0.00000000000E+00 0.  1.
          1    1    3    3  501    0  0.32658248397E+03 -0.13883703465E+03 -0.38791540491E+03  0.52574727997E+03  0.00000000000E+00 0.  1.
         21    1    1    2  502  501 -0.72808128916E+02 -0.23535999109E+02 -0.50137789566E+02  0.91480953388E+02  0.00000000000E+00 0. -1.
<mgrwt>
<rscale>  1 0.30000000E+03</rscale>
<asrwt>0</asrwt>
<pdfrwt beam="1">  1        1 0.50046065E+00 0.30000000E+03</pdfrwt>
<pdfrwt beam="2">0</pdfrwt>
<totfact> 0.22660957E-01</totfact>
</mgrwt>
</event>
<event>
 6    1  0.5260809E-006  0.3000000E+03  0.7818608E-02  0.1093470E+00
          1   -1    0    0  502    0  0.00000000000E+00  0.00000000000E+00  0.14669256833E+03  0.14669256833E+03  0.00000000000E+00 0.  1.
         13   -1    0    0    0    0 -0.00000000000E+00 -0.00000000000E+00 -0.10000000000E+04  0.10000000000E+04  0.00000000000E+00 0.  1.
    9000005    2    1    2  501    0 -0.84701391931E+01 -0.99143434793E+01 -0.89153602634E+03  0.11063011965E+04  0.65490137710E+03 0.  0.
         13    1    3    3    0    0  0.29949941008E+03 -0.69067384784E+02 -0.61781298213E+03  0.69004570948E+03  0.00000000000E+00 0.  1.
          1    1    3    3  501    0 -0.30796954927E+03  0.59153041305E+02 -0.27372304421E+03  0.41625548706E+03  0.00000000000E+00 0.  1.
         21    1    1    2  502  501  0.84701391931E+01  0.99143434793E+01  0.38228594671E+02  0.40391371790E+02  0.00000000000E+00 0. -1.
<mgrwt>
<rscale>  1 0.30000000E+03</rscale>
<asrwt>0</asrwt>
<pdfrwt beam="1">  1        1 0.53342865E+00 0.30000000E+03</pdfrwt>
<pdfrwt beam="2">0</pdfrwt>
<totfact> 0.12856779E-01</totfact>
</mgrwt>
</event>
<event>
 6    1  0.5260809E-006  0.3000000E+03  0.7818608E-02  0.1093470E+00
          1   -1    0    0  502    0  0.00000000000E+00  0.00000000000E+00  0.12181579506E+03  0.12181579506E+03  0.00000000000E+00 0.  1.
         13   -1    0    0    0    0 -0.00000000000E+00 -0.00000000000E+00 -0.10000000000E+04  0.10000000000E+04  0.00000000000E+00 0.  1.
    9000005    2    1    2  501    0 -0.40399996132E+02  0.21268986568E+01 -0.85808779527E+03  0.10766433580E+04  0.64900660444E+03 0.  0.
         13    1    3    3    0    0  0.19002358847E+03  0.20418143484E+03 -0.64686674255E+03  0.70443992300E+03  0.00000000000E+00 0.  1.
          3    1    3    3  501    0 -0.23042358460E+03 -0.20205453618E+03 -0.21122105272E+03  0.37220343502E+03  0.00000000000E+00 0.  1.
         21    1    1    2  502  501  0.40399996132E+02 -0.21268986568E+01 -0.20096409678E+02  0.45172437031E+02  0.00000000000E+00 0. -1.
<mgrwt>
<rscale>  1 0.30000000E+03</rscale>
<asrwt>0</asrwt>
<pdfrwt beam="1">  1        1 0.44296746E+00 0.30000000E+03</pdfrwt>
<pdfrwt beam="2">0</pdfrwt>
<totfact> 0.57320711E-01</totfact>
</mgrwt>
</event>
<event>
 6    1  0.5260809E-006  0.3000000E+03  0.7818608E-02  0.1093470E+00
          1   -1    0    0  502    0  0.00000000000E+00  0.00000000000E+00  0.11221629116E+03  0.11221629116E+03  0.00000000000E+00 0.  1.
         13   -1    0    0    0    0 -0.00000000000E+00 -0.00000000000E+00 -0.10000000000E+04  0.10000000000E+04  0.00000000000E+00 0.  1.
    9000005    2    1    2  501    0 -0.53148633326E+00 -0.14202152512E+02 -0.87895858530E+03  0.10954870826E+04  0.65369853132E+03 0.  0.
         13    1    3    3    0    0  0.10674780183E+03  0.17440485326E+03 -0.15370629374E+02  0.20505707080E+03  0.00000000000E+00 0.  1.
          1    1    3    3  501    0 -0.10727928816E+03 -0.18860700577E+03 -0.86358795593E+03  0.89043001181E+03  0.00000000000E+00 0.  1.
         21    1    1    2  502  501  0.53148633326E+00  0.14202152512E+02 -0.88251235335E+01  0.16729208561E+02  0.00000000000E+00 0. -1.
<mgrwt>
<rscale>  1 0.30000000E+03</rscale>
<asrwt>0</asrwt>
<pdfrwt beam="1">  1        1 0.40806010E+00 0.30000000E+03</pdfrwt>
<pdfrwt beam="2">0</pdfrwt>
<totfact> 0.94592264E-01</totfact>
</mgrwt>
</event>
<event>
 6    1  0.5260809E-006  0.3000000E+03  0.7818608E-02  0.1093470E+00
          1   -1    0    0  502    0  0.00000000000E+00  0.00000000000E+00  0.11704473062E+03  0.11704473062E+03  0.00000000000E+00 0.  1.
         13   -1    0    0    0    0 -0.00000000000E+00 -0.00000000000E+00 -0.10000000000E+04  0.10000000000E+04  0.00000000000E+00 0.  1.
    9000005    2    1    2  501    0 -0.21322267026E+02  0.13787864455E+01 -0.88401900043E+03  0.10956514689E+04  0.64692040318E+03 0.  0.
         13    1    3    3    0    0  0.84078952168E+02 -0.30841061247E+03 -0.45556659574E+03  0.55653148988E+03  0.00000000000E+00 0.  1.
          3    1    3    3  501    0 -0.10540121919E+03  0.30978939891E+03 -0.42845240469E+03  0.53911997901E+03  0.00000000000E+00 0.  1.
         21    1    1    2  502  501  0.21322267026E+02 -0.13787864455E+01  0.10637310454E+01  0.21393261718E+02  0.00000000000E+00 0.  1.
<mgrwt>
<rscale>  1 0.30000000E+03</rscale>
<asrwt>0</asrwt>
<pdfrwt beam="1">  1        1 0.42561810E+00 0.30000000E+03</pdfrwt>
<pdfrwt beam="2">0</pdfrwt>
<totfact> 0.74013019E-01</totfact>
</mgrwt>
</event>
<event>
 6    1  0.5260809E-006  0.3000000E+03  0.7818608E-02  0.1093470E+00
          1   -1    0    0  502    0  0.00000000000E+00  0.00000000000E+00  0.85778169410E+02  0.85778169410E+02  0.00000000000E+00 0.  1.
         13   -1    0    0    0    0 -0.00000000000E+00 -0.00000000000E+00 -0.10000000000E+04  0.10000000000E+04  0.00000000000E+00 0.  1.
    9000005    2    1    2  501    0 -0.13146777990E+02 -0.40316113413E+01 -0.93156112189E+03  0.10636480387E+04  0.51317826806E+03 0.  0.
         13    1    3    3    0    0 -0.10088259887E+03  0.25800564991E+02  0.21304684888E+02  0.10628667606E+03  0.00000000000E+00 0.  1.
          1    1    3    3  501    0  0.87735820881E+02 -0.29832176332E+02 -0.95286580677E+03  0.95736136267E+03  0.00000000000E+00 0.  1.
         21    1    1    2  502  501  0.13146777990E+02  0.40316113413E+01  0.17339291297E+02  0.22130130686E+02  0.00000000000E+00 0.  1.
<mgrwt>
<rscale>  1 0.30000000E+03</rscale>
<asrwt>0</asrwt>
<pdfrwt beam="1">  1        1 0.31192127E+00 0.30000000E+03</pdfrwt>
<pdfrwt beam="2">0</pdfrwt>
<totfact> 0.30472827E+00</totfact>
</mgrwt>
</event>
<event>
 6    1  0.5260809E-006  0.3000000E+03  0.7818608E-02  0.1093470E+00
          1   -1    0    0  502    0  0.00000000000E+00  0.00000000000E+00  0.12702254633E+03  0.12702254633E+03  0.00000000000E+00 0.  1.
         13   -1    0    0    0    0 -0.00000000000E+00 -0.00000000000E+00 -0.10000000000E+04  0.10000000000E+04  0.00000000000E+00 0.  1.
    9000005    2    1    2  501    0  0.64977031472E+01  0.11855177002E+02 -0.89471874646E+03  0.11014208046E+04  0.64220198392E+03 0.  0.
         13    1    3    3    0    0 -0.16872550368E+03  0.22046649393E+03 -0.73484528574E+03  0.78553890070E+03  0.00000000000E+00 0.  1.
          1    1    3    3  501    0  0.17522320683E+03 -0.20861131693E+03 -0.15987346072E+03  0.31588190389E+03  0.00000000000E+00 0.  1.
         21    1    1    2  502  501 -0.64977031472E+01 -0.11855177002E+02  0.21741292786E+02  0.25601741737E+02  0.00000000000E+00 0.  1.
<mgrwt>
<rscale>  1 0.30000000E+03</rscale>
<asrwt>0</asrwt>
<pdfrwt beam="1">  1        1 0.46190114E+00 0.30000000E+03</pdfrwt>
<pdfrwt beam="2">0</pdfrwt>
<totfact> 0.42778999E-01</totfact>
</mgrwt>
</event>
<event>
 6    1  0.5260809E-006  0.3000000E+03  0.7818608E-02  0.1093470E+00
          1   -1    0    0  502    0  0.00000000000E+00  0.00000000000E+00  0.11546489136E+03  0.11546489136E+03  0.00000000000E+00 0.  1.
         13   -1    0    0    0    0 -0.00000000000E+00 -0.00000000000E+00 -0.10000000000E+04  0.10000000000E+04  0.00000000000E+00 0.  1.
    9000005    2    1    2  501    0 -0.17010317813E+02  0.10058408806E+02 -0.87222949898E+03  0.10921850604E+04  0.65703377752E+03 0.  0.
         13    1    3    3    0    0 -0.23475855269E+02 -0.27790694237E+03 -0.15453793134E+03  0.31885005351E+03  0.00000000000E+00 0.  1.
          3    1    3    3  501    0  0.64655374563E+01  0.28796535118E+03 -0.71769156764E+03  0.77333500691E+03  0.00000000000E+00 0.  1.
         21    1    1    2  502  501  0.17010317813E+02 -0.10058408806E+02 -0.12305609662E+02  0.23279830948E+02  0.00000000000E+00 0.  1.
<mgrwt>
<rscale>  1 0.30000000E+03</rscale>
<asrwt>0</asrwt>
<pdfrwt beam="1">  1        1 0.41987322E+00 0.30000000E+03</pdfrwt>
<pdfrwt beam="2">0</pdfrwt>
<totfact> 0.80346723E-01</totfact>
</mgrwt>
</event>
<event>
 6    1  0.5260809E-006  0.3000000E+03  0.7818608E-02  0.1093470E+00
          1   -1    0    0  502    0  0.00000000000E+00  0.00000000000E+00  0.19318531128E+03  0.19318531128E+03  0.00000000000E+00 0.  1.
         13   -1    0    0    0    0 -0.00000000000E+00 -0.00000000000E+00 -0.10000000000E+04  0.10000000000E+04  0.00000000000E+00 0.  1.
    9000005    2    1    2  501    0 -0.62122122428E+02 -0.21698214228E+01 -0.87876306973E+03  0.10981041052E+04  0.65554879826E+03 0.  0.
         13    1    3    3    0    0 -0.17033170057E+03  0.28694874121E+03 -0.33510758538E+03  0.47291602011E+03  0.00000000000E+00 0.  1.
          3    1    3    3  501    0  0.10820957814E+03 -0.28911856263E+03 -0.54365548436E+03  0.62518808508E+03  0.00000000000E+00 0.  1.
         21    1    1    2  502  501  0.62122122428E+02  0.21698214228E+01  0.71948381013E+02  0.95081206084E+02  0.00000000000E+00 0.  1.
<mgrwt>
<rscale>  1 0.30000000E+03</rscale>
<asrwt>0</asrwt>
<pdfrwt beam="1">  1        1 0.70249352E+00 0.30000000E+03</pdfrwt>
<pdfrwt beam="2">0</pdfrwt>
<totfact> 0.23916628E-02</totfact>
</mgrwt>
</event>
<event>
 6    1  0.5260809E-006  0.3000000E+03  0.7818608E-02  0.1093470E+00
          1   -1    0    0  502    0  0.00000000000E+00  0.00000000000E+00  0.11051279818E+03  0.11051279818E+03  0.00000000000E+00 0.  1.
         13   -1    0    0    0    0 -0.00000000000E+00 -0.00000000000E+00 -0.10000000000E+04  0.10000000000E+04  0.00000000000E+00 0.  1.
    9000005    2    1    2  501    0  0.19473064870E+02 -0.17147884900E+02 -0.85951369016E+03  0.10708686105E+04  0.63821825990E+03 0.  0.
         13    1    3    3    0    0  0.14147081388E+03  0.27032271006E+03 -0.56237036399E+03  0.63980370822E+03  0.00000000000E+00 0.  1.
          3    1    3    3  501    0 -0.12199774901E+03 -0.28747059496E+03 -0.29714332617E+03  0.43106490233E+03  0.00000000000E+00 0.  1.
         21    1    1    2  502  501 -0.19473064870E+02  0.17147884900E+02 -0.29973511662E+02  0.39644187636E+02  0.00000000000E+00 0.  1.
<mgrwt>
<rscale>  1 0.30000000E+03</rscale>
<asrwt>0</asrwt>
<pdfrwt beam="1">  1        1 0.40186557E+00 0.30000000E+03</pdfrwt>
<pdfrwt beam="2">0</pdfrwt>
<totfact> 0.10276118E+00</totfact>
</mgrwt>
</event>
<event>
 6    1  0.5260809E-006  0.3000000E+03  0.7818608E-02  0.1093470E+00
          1   -1    0    0  502    0  0.00000000000E+00  0.00000000000E+00  0.11822697262E+03  0.11822697262E+03  0.00000000000E+00 0.  1.
         13   -1    0    0    0    0 -0.00000000000E+00 -0.00000000000E+00 -0.10000000000E+04  0.10000000000E+04  0.00000000000E+00 0.  1.
    9000005    2    1    2  501    0  0.28825072605E+02  0.18085289260E+01 -0.86201205995E+03  0.10832319527E+04  0.65535678541E+03 0.  0.
         13    1    3    3    0    0 -0.21226085400E+03 -0.23372233363E+03 -0.47070710448E+03  0.56678565400E+03  0.00000000000E+00 0.  1.
          3    1    3    3  501    0  0.24108592661E+03  0.23553086255E+03 -0.39130495547E+03  0.51644629866E+03  0.00000000000E+00 0.  1.
         21    1    1    2  502  501 -0.28825072605E+02 -0.18085289260E+01 -0.19760967433E+02  0.34995019952E+02  0.00000000000E+00 0.  1.
<mgrwt>
<rscale>  1 0.30000000E+03</rscale>
<asrwt>0</asrwt>
<pdfrwt beam="1">  1        1 0.42991717E+00 0.30000000E+03</pdfrwt>
<pdfrwt beam="2">0</pdfrwt>
<totfact> 0.69549295E-01</totfact>
</mgrwt>
</event>
<event>
 6    1  0.5260809E-006  0.3000000E+03  0.7818608E-02  0.1093470E+00
          1   -1    0    0  502    0  0.00000000000E+00  0.00000000000E+00  0.98929085573E+02  0.98929085573E+02  0.00000000000E+00 0.  1.
         13   -1    0    0    0    0 -0.00000000000E+00 -0.00000000000E+00 -0.10000000000E+04  0.10000000000E+04  0.00000000000E+00 0.  1.
    9000005    2    1    2  501    0 -0.16447217983E+01 -0.28326422453E+02 -0.90720894741E+03  0.10698986400E+04  0.56643616973E+03 0.  0.
         13    1    3    3    0    0  0.15544349527E+03 -0.11123347029E+03 -0.86694746137E+03  0.88776881332E+03  0.00000000000E+00 0.  1.
          1    1    3    3  501    0 -0.15708821707E+03  0.82907047834E+02 -0.40261486044E+02  0.18212982672E+03  0.00000000000E+00 0.  1.
         21    1    1    2  502  501  0.16447217983E+01  0.28326422453E+02  0.61380329850E+01  0.29030445531E+02  0.00000000000E+00 0.  1.
<mgrwt>
<rscale>  1 0.30000000E+03</rscale>
<asrwt>0</asrwt>
<pdfrwt beam="1">  1        1 0.35974289E+00 0.30000000E+03</pdfrwt>
<pdfrwt beam="2">0</pdfrwt>
<totfact> 0.17517708E+00</totfact>
</mgrwt>
</event>
<event>
 6    1  0.5260809E-006  0.3000000E+03  0.7818608E-02  0.1093470E+00
          1   -1    0    0  502    0  0.00000000000E+00  0.00000000000E+00  0.12115716436E+03  0.12115716436E+03  0.00000000000E+00 0.  1.
         13   -1    0    0    0    0 -0.00000000000E+00 -0.00000000000E+00 -0.10000000000E+04  0.10000000000E+04  0.00000000000E+00 0.  1.
    9000005    2    1    2  501    0  0.33976827228E+01  0.10559164154E+02 -0.89515134134E+03  0.11014338899E+04  0.64166786566E+03 0.  0.
         13    1    3    3    0    0  0.16169672719E+03  0.16303178790E+03 -0.59278223885E+02  0.23714785109E+03  0.00000000000E+00 0.  1.
          1    1    3    3  501    0 -0.15829904447E+03 -0.15247262374E+03 -0.83587311745E+03  0.86428603885E+03  0.00000000000E+00 0.  1.
         21    1    1    2  502  501 -0.33976827228E+01 -0.10559164154E+02  0.16308505699E+02  0.19723274415E+02  0.00000000000E+00 0.  1.
<mgrwt>
<rscale>  1 0.30000000E+03</rscale>
<asrwt>0</asrwt>
<pdfrwt beam="1">  1        1 0.44057244E+00 0.30000000E+03</pdfrwt>
<pdfrwt beam="2">0</pdfrwt>
<totfact> 0.59431847E-01</totfact>
</mgrwt>
</event>
<event>
 6    1  0.5260809E-006  0.3000000E+03  0.7818608E-02  0.1093470E+00
          1   -1    0    0  502    0  0.00000000000E+00  0.00000000000E+00  0.10839520352E+03  0.10839520352E+03  0.00000000000E+00 0.  1.
         13   -1    0    0    0    0 -0.00000000000E+00 -0.00000000000E+00 -0.10000000000E+04  0.10000000000E+04  0.00000000000E+00 0.  1.
    9000005    2    1    2  501    0 -0.15444220396E+01  0.88117407216E+01 -0.88617314967E+03  0.10979293160E+04  0.64812491062E+03 0.  0.
         13    1    3    3    0    0 -0.29976340459E+03  0.10858719299E+02 -0.23275639842E+03  0.37967295337E+03  0.00000000000E+00 0.  1.
          3    1    3    3  501    0  0.29821898255E+03 -0.20469785773E+01 -0.65341675125E+03  0.71825636265E+03  0.00000000000E+00 0.  1.
         21    1    1    2  502  501  0.15444220396E+01 -0.88117407216E+01 -0.54316468091E+01  0.10465887494E+02  0.00000000000E+00 0.  1.
<mgrwt>
<rscale>  1 0.30000000E+03</rscale>
<asrwt>0</asrwt>
<pdfrwt beam="1">  1        1 0.39416521E+00 0.30000000E+03</pdfrwt>
<pdfrwt beam="2">0</pdfrwt>
<totfact> 0.11363652E+00</totfact>
</mgrwt>
</event>
<event>
 6    1  0.5260809E-006  0.3000000E+03  0.7818608E-02  0.1093470E+00
          1   -1    0    0  502    0  0.00000000000E+00  0.00000000000E+00  0.12249031503E+03  0.12249031503E+03  0.00000000000E+00 0.  1.
         13   -1    0    0    0    0 -0.00000000000E+00 -0.00000000000E+00 -0.10000000000E+04  0.10000000000E+04  0.00000000000E+00 0.  1.
    9000005    2    1    2  501    0  0.67366748030E+01  0.16512757519E+02 -0.87681661343E+03  0.11046427859E+04  0.67164742007E+03 0.  0.
         13    1    3    3    0    0 -0.14983485311E+03  0.14119134432E+03 -0.88071332007E+03  0.90445642851E+03  0.00000000000E+00 0.  1.
          1    1    3    3  501    0  0.15657152791E+03 -0.12467858680E+03  0.38967066417E+01  0.20018635739E+03  0.00000000000E+00 0.  1.
         21    1    1    2  502  501 -0.67366748030E+01 -0.16512757519E+02 -0.69307153614E+00  0.17847529141E+02  0.00000000000E+00 0.  1.
<mgrwt>
<rscale>  1 0.30000000E+03</rscale>
<asrwt>0</asrwt>
<pdfrwt beam="1">  1        1 0.44542027E+00 0.30000000E+03</pdfrwt>
<pdfrwt beam="2">0</pdfrwt>
<totfact> 0.55215926E-01</totfact>
</mgrwt>
</event>
<event>
 6    1  0.5260809E-006  0.3000000E+03  0.7818608E-02  0.1093470E+00
          1   -1    0    0  502    0  0.00000000000E+00  0.00000000000E+00  0.11175313785E+03  0.11175313785E+03  0.00000000000E+00 0.  1.
         13   -1    0    0    0    0 -0.00000000000E+00 -0.00000000000E+00 -0.10000000000E+04  0.10000000000E+04  0.00000000000E+00 0.  1.
    9000005    2    1    2  501    0  0.91462653438E+00 -0.18616890577E+02 -0.86935290359E+03  0.10852124742E+04  0.64927976870E+03 0.  0.
         13    1    3    3    0    0 -0.65304838785E+02 -0.20098692754E+03 -0.18072209270E+02  0.21210156001E+03  0.00000000000E+00 0.  1.
          1    1    3    3  501    0  0.66219465319E+02  0.18237003696E+03 -0.85128069432E+03  0.87311091420E+03  0.00000000000E+00 0.  1.
         21    1    1    2  502  501 -0.91462653438E+00  0.18616890577E+02 -0.18893958560E+02  0.26540663641E+02  0.00000000000E+00 0. -1.
<mgrwt>
<rscale>  1 0.30000000E+03</rscale>
<asrwt>0</asrwt>
<pdfrwt beam="1">  1        1 0.40637590E+00 0.30000000E+03</pdfrwt>
<pdfrwt beam="2">0</pdfrwt>
<totfact> 0.96764585E-01</totfact>
</mgrwt>
</event>
<event>
 6    1  0.5260809E-006  0.3000000E+03  0.7818608E-02  0.1093470E+00
          1   -1    0    0  502    0  0.00000000000E+00  0.00000000000E+00  0.12020988561E+03  0.12020988561E+03  0.00000000000E+00 0.  1.
         13   -1    0    0    0    0 -0.00000000000E+00 -0.00000000000E+00 -0.10000000000E+04  0.10000000000E+04  0.00000000000E+00 0.  1.
    9000005    2    1    2  501    0 -0.20115756927E+02  0.42162237128E+01 -0.88208057289E+03  0.10995297884E+04  0.65610761188E+03 0.  0.
         13    1    3    3    0    0 -0.32166745826E+03  0.16707647236E+02 -0.62480518485E+03  0.70294424971E+03  0.00000000000E+00 0.  1.
          3    1    3    3  501    0  0.30155170133E+03 -0.12491423523E+02 -0.25727538804E+03  0.39658553873E+03  0.00000000000E+00 0.  1.
         21    1    1    2  502  501  0.20115756927E+02 -0.42162237128E+01  0.22904585046E+01  0.20680097178E+02  0.00000000000E+00 0. -1.
<mgrwt>
<rscale>  1 0.30000000E+03</rscale>
<asrwt>0</asrwt>
<pdfrwt beam="1">  1        1 0.43712778E+00 0.30000000E+03</pdfrwt>
<pdfrwt beam="2">0</pdfrwt>
<totfact> 0.62566503E-01</totfact>
</mgrwt>
</event>
<event>
 6    1  0.5260809E-006  0.3000000E+03  0.7818608E-02  0.1093470E+00
          1   -1    0    0  502    0  0.00000000000E+00  0.00000000000E+00  0.11155272380E+03  0.11155272380E+03  0.00000000000E+00 0.  1.
         13   -1    0    0    0    0 -0.00000000000E+00 -0.00000000000E+00 -0.10000000000E+04  0.10000000000E+04  0.00000000000E+00 0.  1.
    9000005    2    1    2  501    0  0.11088359553E+02 -0.52394221699E+01 -0.87914394612E+03  0.10961593742E+04  0.65461507187E+03 0.  0.
         13    1    3    3    0    0 -0.21683173828E+03 -0.12513109852E+03 -0.78170150137E+03  0.82081120349E+03  0.00000000000E+00 0.  1.
          1    1    3    3  501    0  0.22792009783E+03  0.11989167635E+03 -0.97442444752E+02  0.27534817067E+03  0.00000000000E+00 0.  1.
         21    1    1    2  502  501 -0.11088359553E+02  0.52394221699E+01 -0.93033300838E+01  0.15393349632E+02  0.00000000000E+00 0.  1.
<mgrwt>
<rscale>  1 0.30000000E+03</rscale>
<asrwt>0</asrwt>
<pdfrwt beam="1">  1        1 0.40564712E+00 0.30000000E+03</pdfrwt>
<pdfrwt beam="2">0</pdfrwt>
<totfact> 0.97715925E-01</totfact>
</mgrwt>
</event>
<event>
 6    1  0.5260809E-006  0.3000000E+03  0.7818608E-02  0.1093470E+00
          1   -1    0    0  502    0  0.00000000000E+00  0.00000000000E+00  0.10904256033E+03  0.10904256033E+03  0.00000000000E+00 0.  1.
         13   -1    0    0    0    0 -0.00000000000E+00 -0.00000000000E+00 -0.10000000000E+04  0.10000000000E+04  0.00000000000E+00 0.  1.
    9000005    2    1    2  501    0  0.16537082949E+02 -0.14584540823E+02 -0.87932622728E+03  0.10841132795E+04  0.63371981567E+03 0.  0.
         13    1    3    3    0    0  0.24532274805E+02 -0.32378867715E+03 -0.44178680371E+03  0.54828507173E+03  0.00000000000E+00 0.  1.
          3    1    3    3  501    0 -0.79951918565E+01  0.30920413632E+03 -0.43753942357E+03  0.53582820772E+03  0.00000000000E+00 0.  1.
         21    1    1    2  502  501 -0.16537082949E+02  0.14584540823E+02 -0.11631212390E+02  0.24929280879E+02  0.00000000000E+00 0. -1.
<mgrwt>
<rscale>  1 0.30000000E+03</rscale>
<asrwt>0</asrwt>
<pdfrwt beam="1">  1        1 0.39651924E+00 0.30000000E+03</pdfrwt>
<pdfrwt beam="2">0</pdfrwt>
<totfact> 0.11021686E+00</totfact>
</mgrwt>
</event>
<event>
 6    1  0.5260809E-006  0.3000000E+03  0.7818608E-02  0.1093470E+00
          1   -1    0    0  502    0  0.00000000000E+00  0.00000000000E+00  0.13418216989E+03  0.13418216989E+03  0.00000000000E+00 0.  1.
         13   -1    0    0    0    0 -0.00000000000E+00 -0.00000000000E+00 -0.10000000000E+04  0.10000000000E+04  0.00000000000E+00 0.  1.
    9000005    2    1    2  501    0 -0.76603836594E+01  0.13132582260E+02 -0.89168444406E+03  0.11041783716E+04  0.65105881634E+03 0.  0.
         13    1    3    3    0    0 -0.19836944358E+03  0.53090394164E+01 -0.89148996212E+03  0.91330880572E+03  0.00000000000E+00 0.  1.
          3    1    3    3  501    0  0.19070905992E+03  0.78235428440E+01 -0.19448194088E+00  0.19086956588E+03  0.00000000000E+00 0.  1.
         21    1    1    2  502  501  0.76603836594E+01 -0.13132582260E+02  0.25866613954E+02  0.30003798294E+02  0.00000000000E+00 0.  1.
<mgrwt>
<rscale>  1 0.30000000E+03</rscale>
<asrwt>0</asrwt>
<pdfrwt beam="1">  1        1 0.48793619E+00 0.30000000E+03</pdfrwt>
<pdfrwt beam="2">0</pdfrwt>
<totfact> 0.27986811E-01</totfact>
</mgrwt>
</event>
<event>
 6    1  0.5260809E-006  0.3000000E+03  0.7818608E-02  0.1093470E+00
          1   -1    0    0  502    0  0.00000000000E+00  0.00000000000E+00  0.15389224984E+03  0.15389224984E+03  0.00000000000E+00 0.  1.
         13   -1    0    0    0    0 -0.00000000000E+00 -0.00000000000E+00 -0.10000000000E+04  0.10000000000E+04  0.00000000000E+00 0.  1.
    9000005    2    1    2  501    0 -0.12667360251E+02  0.42625483672E+01 -0.89919860599E+03  0.10991449183E+04  0.63196739404E+03 0.  0.
         13    1    3    3    0    0  0.19097951136E+03 -0.22643624760E+03 -0.27958960399E+03  0.40732897594E+03  0.00000000000E+00 0.  1.
          3    1    3    3  501    0 -0.20364687161E+03  0.23069879596E+03 -0.61960900201E+03  0.69181594239E+03  0.00000000000E+00 0.  1.
         21    1    1    2  502  501  0.12667360251E+02 -0.42625483672E+01  0.53090855834E+02  0.54747331510E+02  0.00000000000E+00 0.  1.
<mgrwt>
<rscale>  1 0.30000000E+03</rscale>
<asrwt>0</asrwt>
<pdfrwt beam="1">  1        1 0.55960936E+00 0.30000000E+03</pdfrwt>
<pdfrwt beam="2">0</pdfrwt>
<totfact> 0.86555408E-02</totfact>
</mgrwt>
</event>
<event>
 6    1  0.5260809E-006  0.3000000E+03  0.7818608E-02  0.1093470E+00
          1   -1    0    0  502    0  0.00000000000E+00  0.00000000000E+00  0.12044865461E+03  0.12044865461E+03  0.00000000000E+00 0.  1.
         13   -1    0    0    0    0 -0.00000000000E+00 -0.00000000000E+00 -0.10000000000E+04  0.10000000000E+04  0.00000000000E+00 0.  1.
    9000005    2    1    2  501    0  0.13045007604E+02 -0.12022054685E+02 -0.89119269929E+03  0.10992301923E+04  0.64324791983E+03 0.  0.
         13    1    3    3    0    0 -0.34403090789E+02  0.22883657326E+03 -0.80728782265E+03  0.83979960616E+03  0.00000000000E+00 0.  1.
          1    1    3    3  501    0  0.47448098393E+02 -0.24085862795E+03 -0.83904876646E+02  0.25943058613E+03  0.00000000000E+00 0.  1.
         21    1    1    2  502  501 -0.13045007604E+02  0.12022054685E+02  0.11641353904E+02  0.21218462313E+02  0.00000000000E+00 0.  1.
<mgrwt>
<rscale>  1 0.30000000E+03</rscale>
<asrwt>0</asrwt>
<pdfrwt beam="1">  1        1 0.43799603E+00 0.30000000E+03</pdfrwt>
<pdfrwt beam="2">0</pdfrwt>
<totfact> 0.61764760E-01</totfact>
</mgrwt>
</event>
<event>
 6    1  0.5260809E-006  0.3000000E+03  0.7818608E-02  0.1093470E+00
          1   -1    0    0  502    0  0.00000000000E+00  0.00000000000E+00  0.89687931087E+02  0.89687931087E+02  0.00000000000E+00 0.  1.
         13   -1    0    0    0    0 -0.00000000000E+00 -0.00000000000E+00 -0.10000000000E+04  0.10000000000E+04  0.00000000000E+00 0.  1.
    9000005    2    1    2  501    0  0.16743543390E+02 -0.76868709141E+01 -0.91400058527E+03  0.10708985888E+04  0.55775199099E+03 0.  0.
         13    1    3    3    0    0 -0.25940984705E+03 -0.70483828212E+02 -0.52387137141E+03  0.58881461647E+03  0.00000000000E+00 0.  1.
          1    1    3    3  501    0  0.27615339044E+03  0.62796957298E+02 -0.39012921386E+03  0.48208397236E+03  0.00000000000E+00 0.  1.
         21    1    1    2  502  501 -0.16743543390E+02  0.76868709141E+01  0.36885163535E+01  0.18789342261E+02  0.00000000000E+00 0. -1.
<mgrwt>
<rscale>  1 0.30000000E+03</rscale>
<asrwt>0</asrwt>
<pdfrwt beam="1">  1        1 0.32613862E+00 0.30000000E+03</pdfrwt>
<pdfrwt beam="2">0</pdfrwt>
<totfact> 0.25981457E+00</totfact>
</mgrwt>
</event>
<event>
 6    1  0.5260809E-006  0.3000000E+03  0.7818608E-02  0.1093470E+00
          1   -1    0    0  502    0  0.00000000000E+00  0.00000000000E+00  0.11577922049E+03  0.11577922049E+03  0.00000000000E+00 0.  1.
         13   -1    0    0    0    0 -0.00000000000E+00 -0.00000000000E+00 -0.10000000000E+04  0.10000000000E+04  0.00000000000E+00 0.  1.
    9000005    2    1    2  501    0 -0.19475877384E+02  0.12929955221E+02 -0.88113916826E+03  0.10921997830E+04  0.64494002722E+03 0.  0.
         13    1    3    3    0    0  0.25586448514E+02 -0.29067266435E+03 -0.22721349851E+03  0.36982595643E+03  0.00000000000E+00 0.  1.
          1    1    3    3  501    0 -0.45062325899E+02  0.30360261957E+03 -0.65392566975E+03  0.72237382662E+03  0.00000000000E+00 0.  1.
         21    1    1    2  502  501  0.19475877384E+02 -0.12929955221E+02 -0.30816112581E+01  0.23579437438E+02  0.00000000000E+00 0. -1.
<mgrwt>
<rscale>  1 0.30000000E+03</rscale>
<asrwt>0</asrwt>
<pdfrwt beam="1">  1        1 0.42101624E+00 0.30000000E+03</pdfrwt>
<pdfrwt beam="2">0</pdfrwt>
<totfact> 0.79054688E-01</totfact>
</mgrwt>
</event>
<event>
 6    1  0.5260809E-006  0.3000000E+03  0.7818608E-02  0.1093470E+00
          1   -1    0    0  502    0  0.00000000000E+00  0.00000000000E+00  0.11280238014E+03  0.11280238014E+03  0.00000000000E+00 0.  1.
         13   -1    0    0    0    0 -0.00000000000E+00 -0.00000000000E+00 -0.10000000000E+04  0.10000000000E+04  0.00000000000E+00 0.  1.
    9000005    2    1    2  501    0  0.86847092880E+01 -0.13404141105E+02 -0.87589509702E+03  0.10932360264E+04  0.65400129462E+03 0.  0.
         13    1    3    3    0    0  0.10560255679E+03 -0.31756266476E+03 -0.43148192657E+03  0.54605365946E+03  0.00000000000E+00 0.  1.
          1    1    3    3  501    0 -0.96917847498E+02  0.30415852365E+03 -0.44441317044E+03  0.54718236698E+03  0.00000000000E+00 0.  1.
         21    1    1    2  502  501 -0.86847092880E+01  0.13404141105E+02 -0.11302522847E+02  0.19566353694E+02  0.00000000000E+00 0. -1.
<mgrwt>
<rscale>  1 0.30000000E+03</rscale>
<asrwt>0</asrwt>
<pdfrwt beam="1">  1        1 0.41019134E+00 0.30000000E+03</pdfrwt>
<pdfrwt beam="2">0</pdfrwt>
<totfact> 0.91895317E-01</totfact>
</mgrwt>
</event>
<event>
 6    1  0.5260809E-006  0.3000000E+03  0.7818608E-02  0.1093470E+00
          1   -1    0    0  502    0  0.00000000000E+00  0.00000000000E+00  0.11876253125E+03  0.11876253125E+03  0.00000000000E+00 0.  1.
         13   -1    0    0    0    0 -0.00000000000E+00 -0.00000000000E+00 -0.10000000000E+04  0.10000000000E+04  0.00000000000E+00 0.  1.
    9000005    2    1    2  501    0  0.25011772268E+02  0.21342782301E+01 -0.87362324681E+03  0.10925304846E+04  0.65557237475E+03 0.  0.
         13    1    3    3    0    0 -0.29863180380E+03 -0.10246221867E+03 -0.40687463930E+03  0.51500139088E+03  0.00000000000E+00 0.  1.
          3    1    3    3  501    0  0.32364357607E+03  0.10459649690E+03 -0.46674860751E+03  0.57752909373E+03  0.00000000000E+00 0.  1.
         21    1    1    2  502  501 -0.25011772268E+02 -0.21342782301E+01 -0.76142219358E+01  0.26232046646E+02  0.00000000000E+00 0. -1.
<mgrwt>
<rscale>  1 0.30000000E+03</rscale>
<asrwt>0</asrwt>
<pdfrwt beam="1">  1        1 0.43186466E+00 0.30000000E+03</pdfrwt>
<pdfrwt beam="2">0</pdfrwt>
<totfact> 0.67603957E-01</totfact>
</mgrwt>
</event>
<event>
 6    1  0.5260809E-006  0.3000000E+03  0.7818608E-02  0.1093470E+00
          1   -1    0    0  502    0  0.00000000000E+00  0.00000000000E+00  0.12822129002E+03  0.12822129002E+03  0.00000000000E+00 0.  1.
         13   -1    0    0    0    0 -0.00000000000E+00 -0.00000000000E+00 -0.10000000000E+04  0.10000000000E+04  0.00000000000E+00 0.  1.
    9000005    2    1    2  501    0 -0.55555142591E+01 -0.12691283649E+02 -0.88359171804E+03  0.11100147094E+04  0.67171898769E+03 0.  0.
         13    1    3    3    0    0 -0.16458161807E+03  0.14775974109E+03 -0.25452583636E+02  0.22263846053E+03  0.00000000000E+00 0.  1.
          3    1    3    3  501    0  0.15902610381E+03 -0.16045102474E+03 -0.85813913440E+03  0.88737624885E+03  0.00000000000E+00 0.  1.
         21    1    1    2  502  501  0.55555142591E+01  0.12691283649E+02  0.11813008058E+02  0.18206580643E+02  0.00000000000E+00 0. -1.
<mgrwt>
<rscale>  1 0.30000000E+03</rscale>
<asrwt>0</asrwt>
<pdfrwt beam="1">  1        1 0.46626022E+00 0.30000000E+03</pdfrwt>
<pdfrwt beam="2">0</pdfrwt>
<totfact> 0.39929532E-01</totfact>
</mgrwt>
</event>
<event>
 6    1  0.5260809E-006  0.3000000E+03  0.7818608E-02  0.1093470E+00
          1   -1    0    0  502    0  0.00000000000E+00  0.00000000000E+00  0.11772125228E+03  0.11772125228E+03  0.00000000000E+00 0.  1.
         13   -1    0    0    0    0 -0.00000000000E+00 -0.00000000000E+00 -0.10000000000E+04  0.10000000000E+04  0.00000000000E+00 0.  1.
    9000005    2    1    2  501    0  0.25294511850E+02 -0.75981610876E+01 -0.87665953160E+03  0.10907190307E+04  0.64841231109E+03 0.  0.
         13    1    3    3    0    0 -0.18835647292E+03 -0.87844198083E+02 -0.25379996351E+02  0.20937743012E+03  0.00000000000E+00 0.  1.
          3    1    3    3  501    0  0.21365098477E+03  0.80246036996E+02 -0.85127953524E+03  0.88134160056E+03  0.00000000000E+00 0.  1.
         21    1    1    2  502  501 -0.25294511850E+02  0.75981610876E+01 -0.56192161231E+01  0.27002221602E+02  0.00000000000E+00 0.  1.
<mgrwt>
<rscale>  1 0.30000000E+03</rscale>
<asrwt>0</asrwt>
<pdfrwt beam="1">  1        1 0.42807818E+00 0.30000000E+03</pdfrwt>
<pdfrwt beam="2">0</pdfrwt>
<totfact> 0.71429010E-01</totfact>
</mgrwt>
</event>
<event>
 6    1  0.5260809E-006  0.3000000E+03  0.7818608E-02  0.1093470E+00
          1   -1    0    0  502    0  0.00000000000E+00  0.00000000000E+00  0.10915821103E+03  0.10915821103E+03  0.00000000000E+00 0.  1.
         13   -1    0    0    0    0 -0.00000000000E+00 -0.00000000000E+00 -0.10000000000E+04  0.10000000000E+04  0.00000000000E+00 0.  1.
    9000005    2    1    2  501    0  0.77440904088E+01 -0.60990449523E+01 -0.88603521157E+03  0.10981913303E+04  0.64874388830E+03 0.  0.
         13    1    3    3    0    0 -0.11360051475E+03  0.75433154554E+02 -0.93433025057E+03  0.94422892081E+03  0.00000000000E+00 0.  1.
          3    1    3    3  501    0  0.12134460516E+03 -0.81532199506E+02  0.48295039003E+02  0.15396240953E+03  0.00000000000E+00 0.  1.
         21    1    1    2  502  501 -0.77440904088E+01  0.60990449523E+01 -0.48065774087E+01  0.10966880686E+02  0.00000000000E+00 0.  1.
<mgrwt>
<rscale>  1 0.30000000E+03</rscale>
<asrwt>0</asrwt>
<pdfrwt beam="1">  1        1 0.39693979E+00 0.30000000E+03</pdfrwt>
<pdfrwt beam="2">0</pdfrwt>
<totfact> 0.10961526E+00</totfact>
</mgrwt>
</event>
<event>
 6    1  0.5260809E-006  0.3000000E+03  0.7818608E-02  0.1093470E+00
          1   -1    0    0  502    0  0.00000000000E+00  0.00000000000E+00  0.11279487347E+03  0.11279487347E+03  0.00000000000E+00 0.  1.
         13   -1    0    0    0    0 -0.00000000000E+00 -0.00000000000E+00 -0.10000000000E+04  0.10000000000E+04  0.00000000000E+00 0.  1.
    9000005    2    1    2  501    0  0.19854728513E+02  0.54498581210E+01 -0.86845175659E+03  0.10849452759E+04  0.64997991282E+03 0.  0.
         13    1    3    3    0    0  0.32469747571E+03 -0.75529522866E+02 -0.48329069972E+03  0.58711417969E+03  0.00000000000E+00 0.  1.
          1    1    3    3  501    0 -0.30484274720E+03  0.80979380987E+02 -0.38516105687E+03  0.49783109625E+03  0.00000000000E+00 0.  1.
         21    1    1    2  502  501 -0.19854728513E+02 -0.54498581210E+01 -0.18753369944E+02  0.27849597522E+02  0.00000000000E+00 0.  1.
<mgrwt>
<rscale>  1 0.30000000E+03</rscale>
<asrwt>0</asrwt>
<pdfrwt beam="1">  1        1 0.41016404E+00 0.30000000E+03</pdfrwt>
<pdfrwt beam="2">0</pdfrwt>
<totfact> 0.91929495E-01</totfact>
</mgrwt>
</event>
<event>
 6    1  0.5260809E-006  0.3000000E+03  0.7818608E-02  0.1093470E+00
          1   -1    0    0  502    0  0.00000000000E+00  0.00000000000E+00  0.11642833580E+03  0.11642833580E+03  0.00000000000E+00 0.  1.
         13   -1    0    0    0    0 -0.00000000000E+00 -0.00000000000E+00 -0.10000000000E+04  0.10000000000E+04  0.00000000000E+00 0.  1.
    9000005    2    1    2  501    0 -0.10596079177E+02 -0.16783201496E+01 -0.88556813164E+03  0.11055159788E+04  0.66167935590E+03 0.  0.
         13    1    3    3    0    0  0.22615493384E+03 -0.58403836353E+02 -0.54944363848E+02  0.23994988085E+03  0.00000000000E+00 0.  1.
          3    1    3    3  501    0 -0.23675101302E+03  0.56725516204E+02 -0.83062376779E+03  0.86556609798E+03  0.00000000000E+00 0.  1.
         21    1    1    2  502  501  0.10596079177E+02  0.16783201496E+01  0.19964674357E+01  0.10912356971E+02  0.00000000000E+00 0. -1.
<mgrwt>
<rscale>  1 0.30000000E+03</rscale>
<asrwt>0</asrwt>
<pdfrwt beam="1">  1        1 0.42337666E+00 0.30000000E+03</pdfrwt>
<pdfrwt beam="2">0</pdfrwt>
<totfact> 0.76435826E-01</totfact>
</mgrwt>
</event>
<event>
 6    1  0.5260809E-006  0.3000000E+03  0.7818608E-02  0.1093470E+00
          1   -1    0    0  502    0  0.00000000000E+00  0.00000000000E+00  0.12220246158E+03  0.12220246158E+03  0.00000000000E+00 0.  1.
         13   -1    0    0    0    0 -0.00000000000E+00 -0.00000000000E+00 -0.10000000000E+04  0.10000000000E+04  0.00000000000E+00 0.  1.
    9000005    2    1    2  501    0 -0.22145181109E+02  0.59743864130E+01 -0.88242571928E+03  0.10988032651E+04  0.65434498771E+03 0.  0.
         13    1    3    3    0    0  0.18575745445E+03  0.18594418245E+03 -0.74778779958E+03  0.79263337305E+03  0.00000000000E+00 0.  1.
          3    1    3    3  501    0 -0.20790263556E+03 -0.17996979604E+03 -0.13463791971E+03  0.30616989202E+03  0.00000000000E+00 0.  1.
         21    1    1    2  502  501  0.22145181109E+02 -0.59743864130E+01  0.46281808632E+01  0.23399196513E+02  0.00000000000E+00 0.  1.
<mgrwt>
<rscale>  1 0.30000000E+03</rscale>
<asrwt>0</asrwt>
<pdfrwt beam="1">  1        1 0.44437352E+00 0.30000000E+03</pdfrwt>
<pdfrwt beam="2">0</pdfrwt>
<totfact> 0.56106789E-01</totfact>
</mgrwt>
</event>
<event>
 6    1  0.5260809E-006  0.3000000E+03  0.7818608E-02  0.1093470E+00
          1   -1    0    0  502    0  0.00000000000E+00  0.00000000000E+00  0.12443216496E+03  0.12443216496E+03  0.00000000000E+00 0.  1.
         13   -1    0    0    0    0 -0.00000000000E+00 -0.00000000000E+00 -0.10000000000E+04  0.10000000000E+04  0.00000000000E+00 0.  1.
    9000005    2    1    2  501    0  0.80400031100E+01 -0.10057833411E+02 -0.87411099902E+03  0.11114736143E+04  0.68639475167E+03 0.  0.
         13    1    3    3    0    0 -0.29108461367E+02  0.18405943781E+03 -0.89364826803E+03  0.91287042132E+03  0.00000000000E+00 0.  1.
          3    1    3    3  501    0  0.37148464477E+02 -0.19411727122E+03  0.19537269009E+02  0.19860319303E+03  0.00000000000E+00 0.  1.
         21    1    1    2  502  501 -0.80400031100E+01  0.10057833411E+02 -0.14568360229E+01  0.12958550618E+02  0.00000000000E+00 0.  1.
<mgrwt>
<rscale>  1 0.30000000E+03</rscale>
<asrwt>0</asrwt>
<pdfrwt beam="1">  1        1 0.45248155E+00 0.30000000E+03</pdfrwt>
<pdfrwt beam="2">0</pdfrwt>
<totfact> 0.49516877E-01</totfact>
</mgrwt>
</event>
<event>
 6    1  0.5260809E-006  0.3000000E+03  0.7818608E-02  0.1093470E+00
          1   -1    0    0  502    0  0.00000000000E+00  0.00000000000E+00  0.15159531800E+03  0.15159531800E+03  0.00000000000E+00 0.  1.
         13   -1    0    0    0    0 -0.00000000000E+00 -0.00000000000E+00 -0.10000000000E+04  0.10000000000E+04  0.00000000000E+00 0.  1.
    9000005    2    1    2  501    0  0.62269243634E+02  0.47648867802E+02 -0.70124598151E+03  0.98485133329E+03  0.68705047033E+03 0.  0.
         13    1    3    3    0    0 -0.15798893561E+03  0.18985030450E+03 -0.67807334523E+03  0.72165580674E+03  0.00000000000E+00 0.  1.
          1    1    3    3  501    0  0.22025817924E+03 -0.14220143670E+03 -0.23172636287E+02  0.26319552655E+03  0.00000000000E+00 0.  1.
         21    1    1    2  502  501 -0.62269243634E+02 -0.47648867802E+02 -0.14715870049E+03  0.16674398471E+03  0.00000000000E+00 0. -1.
<mgrwt>
<rscale>  1 0.30000000E+03</rscale>
<asrwt>0</asrwt>
<pdfrwt beam="1">  1        1 0.55125686E+00 0.30000000E+03</pdfrwt>
<pdfrwt beam="2">0</pdfrwt>
<totfact> 0.96725800E-02</totfact>
</mgrwt>
</event>
<event>
 6    1  0.5260809E-006  0.3000000E+03  0.7818608E-02  0.1093470E+00
          1   -1    0    0  502    0  0.00000000000E+00  0.00000000000E+00  0.11555657595E+03  0.11555657595E+03  0.00000000000E+00 0.  1.
         13   -1    0    0    0    0 -0.00000000000E+00 -0.00000000000E+00 -0.10000000000E+04  0.10000000000E+04  0.00000000000E+00 0.  1.
    9000005    2    1    2  501    0  0.24752159144E+01  0.14723685251E+02 -0.89169385589E+03  0.10989589146E+04  0.64216029907E+03 0.  0.
         13    1    3    3    0    0  0.21197438158E+03  0.21261538458E+03 -0.67383064549E+03  0.73768975796E+03  0.00000000000E+00 0.  1.
          1    1    3    3  501    0 -0.20949916566E+03 -0.19789169933E+03 -0.21786321040E+03  0.36126915662E+03  0.00000000000E+00 0.  1.
         21    1    1    2  502  501 -0.24752159144E+01 -0.14723685251E+02  0.72504318313E+01  0.16597661369E+02  0.00000000000E+00 0. -1.
<mgrwt>
<rscale>  1 0.30000000E+03</rscale>
<asrwt>0</asrwt>
<pdfrwt beam="1">  1        1 0.42020662E+00 0.30000000E+03</pdfrwt>
<pdfrwt beam="2">0</pdfrwt>
<totfact> 0.79968287E-01</totfact>
</mgrwt>
</event>
<event>
 6    1  0.5260809E-006  0.3000000E+03  0.7818608E-02  0.1093470E+00
          1   -1    0    0  502    0  0.00000000000E+00  0.00000000000E+00  0.96418107996E+02  0.96418107996E+02  0.00000000000E+00 0.  1.
         13   -1    0    0    0    0 -0.00000000000E+00 -0.00000000000E+00 -0.10000000000E+04  0.10000000000E+04  0.00000000000E+00 0.  1.
    9000005    2    1    2  501    0 -0.15742803570E+02 -0.15724681502E+01 -0.87550481304E+03  0.10641903112E+04  0.60476609724E+03 0.  0.
         13    1    3    3    0    0  0.27513770604E+02 -0.23034283171E+03 -0.96698564339E+02  0.25132735633E+03  0.00000000000E+00 0.  1.
          1    1    3    3  501    0 -0.43256574174E+02  0.22877036356E+03 -0.77880624870E+03  0.81286295492E+03  0.00000000000E+00 0.  1.
         21    1    1    2  502  501  0.15742803570E+02  0.15724681502E+01 -0.28077078960E+02  0.32227796748E+02  0.00000000000E+00 0. -1.
<mgrwt>
<rscale>  1 0.30000000E+03</rscale>
<asrwt>0</asrwt>
<pdfrwt beam="1">  1        1 0.35061204E+00 0.30000000E+03</pdfrwt>
<pdfrwt beam="2">0</pdfrwt>
<totfact> 0.19548516E+00</totfact>
</mgrwt>
</event>
<event>
 6    1  0.5260809E-006  0.3000000E+03  0.7818608E-02  0.1093470E+00
          1   -1    0    0  502    0  0.00000000000E+00  0.00000000000E+00  0.12167773406E+03  0.12167773406E+03  0.00000000000E+00 0.  1.
         13   -1    0    0    0    0 -0.00000000000E+00 -0.00000000000E+00 -0.10000000000E+04  0.10000000000E+04  0.00000000000E+00 0.  1.
    9000005    2    1    2  501    0  0.26137718740E+02 -0.31748134236E+01 -0.88182471537E+03  0.10951159771E+04  0.64882271452E+03 0.  0.
         13    1    3    3    0    0 -0.26546345636E+03  0.60089435199E+02 -0.16406114033E+03  0.31780126597E+03  0.00000000000E+00 0.  1.
          3    1    3    3  501    0  0.29160117510E+03 -0.63264248623E+02 -0.71776357504E+03  0.77731471112E+03  0.00000000000E+00 0.  1.
         21    1    1    2  502  501 -0.26137718740E+02  0.31748134236E+01  0.35024494292E+01  0.26561756968E+02  0.00000000000E+00 0.  1.
<mgrwt>
<rscale>  1 0.30000000E+03</rscale>
<asrwt>0</asrwt>
<pdfrwt beam="1">  1        1 0.44246542E+00 0.30000000E+03</pdfrwt>
<pdfrwt beam="2">0</pdfrwt>
<totfact> 0.57758803E-01</totfact>
</mgrwt>
</event>
<event>
 6    1  0.5260809E-006  0.3000000E+03  0.7818608E-02  0.1093470E+00
          1   -1    0    0  502    0  0.00000000000E+00  0.00000000000E+00  0.16047337321E+03  0.16047337321E+03  0.00000000000E+00 0.  1.
         13   -1    0    0    0    0 -0.00000000000E+00 -0.00000000000E+00 -0.10000000000E+04  0.10000000000E+04  0.00000000000E+00 0.  1.
    9000005    2    1    2  501    0  0.57619799057E+02  0.11118316350E+03 -0.76585284316E+03  0.10151820676E+04  0.65450921761E+03 0.  0.
         13    1    3    3    0    0 -0.24066040101E+03 -0.97023208289E+02 -0.50433484271E+03  0.56717242981E+03  0.00000000000E+00 0.  1.
          3    1    3    3  501    0  0.29828020007E+03  0.20820637179E+03 -0.26151800044E+03  0.44800963780E+03  0.00000000000E+00 0.  1.
         21    1    1    2  502  501 -0.57619799057E+02 -0.11118316350E+03 -0.73673783629E+02  0.14529130560E+03  0.00000000000E+00 0.  1.
<mgrwt>
<rscale>  1 0.30000000E+03</rscale>
<asrwt>0</asrwt>
<pdfrwt beam="1">  1        1 0.58354077E+00 0.30000000E+03</pdfrwt>
<pdfrwt beam="2">0</pdfrwt>
<totfact> 0.69721608E-02</totfact>
</mgrwt>
</event>
<event>
 6    1  0.5260809E-006  0.3000000E+03  0.7818608E-02  0.1093470E+00
          1   -1    0    0  502    0  0.00000000000E+00  0.00000000000E+00  0.15857027010E+03  0.15857027010E+03  0.00000000000E+00 0.  1.
         13   -1    0    0    0    0 -0.00000000000E+00 -0.00000000000E+00 -0.10000000000E+04  0.10000000000E+04  0.00000000000E+00 0.  1.
    9000005    2    1    2  501    0 -0.86019031682E+01 -0.61749356025E+01 -0.90296762279E+03  0.10961280181E+04  0.62131632990E+03 0.  0.
         13    1    3    3    0    0  0.27648555085E+03 -0.77943448572E+02 -0.25309202075E+03  0.38285116165E+03  0.00000000000E+00 0.  1.
          1    1    3    3  501    0 -0.28508745402E+03  0.71768512969E+02 -0.64987560204E+03  0.71327685650E+03  0.00000000000E+00 0.  1.
         21    1    1    2  502  501  0.86019031682E+01  0.61749356025E+01  0.61537892891E+02  0.62442251956E+02  0.00000000000E+00 0.  1.
<mgrwt>
<rscale>  1 0.30000000E+03</rscale>
<asrwt>0</asrwt>
<pdfrwt beam="1">  1        1 0.57662038E+00 0.30000000E+03</pdfrwt>
<pdfrwt beam="2">0</pdfrwt>
<totfact> 0.73887456E-02</totfact>
</mgrwt>
</event>
<event>
 6    1  0.5260809E-006  0.3000000E+03  0.7818608E-02  0.1093470E+00
          1   -1    0    0  502    0  0.00000000000E+00  0.00000000000E+00  0.11558473307E+03  0.11558473307E+03  0.00000000000E+00 0.  1.
         13   -1    0    0    0    0 -0.00000000000E+00 -0.00000000000E+00 -0.10000000000E+04  0.10000000000E+04  0.00000000000E+00 0.  1.
    9000005    2    1    2  501    0  0.16137662867E+02  0.10157095951E+02 -0.88265862921E+03  0.10964359332E+04  0.65017067690E+03 0.  0.
         13    1    3    3    0    0  0.18210566338E+03 -0.17539055344E+03 -0.94531974083E+02  0.26992705125E+03  0.00000000000E+00 0.  1.
          1    1    3    3  501    0 -0.16596800052E+03  0.18554764940E+03 -0.78812665513E+03  0.82650888193E+03  0.00000000000E+00 0.  1.
         21    1    1    2  502  501 -0.16137662867E+02 -0.10157095951E+02 -0.17566377211E+01  0.19148799885E+02  0.00000000000E+00 0. -1.
<mgrwt>
<rscale>  1 0.30000000E+03</rscale>
<asrwt>0</asrwt>
<pdfrwt beam="1">  1        1 0.42030901E+00 0.30000000E+03</pdfrwt>
<pdfrwt beam="2">0</pdfrwt>
<totfact> 0.79852324E-01</totfact>
</mgrwt>
</event>
<event>
 6    1  0.5260809E-006  0.3000000E+03  0.7818608E-02  0.1093470E+00
          1   -1    0    0  502    0  0.00000000000E+00  0.00000000000E+00  0.14978689013E+03  0.14978689013E+03  0.00000000000E+00 0.  1.
         13   -1    0    0    0    0 -0.00000000000E+00 -0.00000000000E+00 -0.10000000000E+04  0.10000000000E+04  0.00000000000E+00 0.  1.
    9000005    2    1    2  501    0  0.81945850746E+02 -0.36619541195E+02 -0.83470058989E+03  0.10587003844E+04  0.64503125187E+03 0.  0.
         13    1    3    3    0    0  0.14449516192E+03  0.28671498684E+03 -0.38503623832E+03  0.50133545687E+03  0.00000000000E+00 0.  1.
          1    1    3    3  501    0 -0.62549311179E+02 -0.32333452804E+03 -0.44966435158E+03  0.55736492752E+03  0.00000000000E+00 0.  1.
         21    1    1    2  502  501 -0.81945850746E+02  0.36619541195E+02 -0.15512519975E+02  0.91086505739E+02  0.00000000000E+00 0.  1.
<mgrwt>
<rscale>  1 0.30000000E+03</rscale>
<asrwt>0</asrwt>
<pdfrwt beam="1">  1        1 0.54468075E+00 0.30000000E+03</pdfrwt>
<pdfrwt beam="2">0</pdfrwt>
<totfact> 0.10672363E-01</totfact>
</mgrwt>
</event>
<event>
 6    1  0.5260809E-006  0.3000000E+03  0.7818608E-02  0.1093470E+00
          1   -1    0    0  502    0  0.00000000000E+00  0.00000000000E+00  0.12839278223E+03  0.12839278223E+03  0.00000000000E+00 0.  1.
         13   -1    0    0    0    0 -0.00000000000E+00 -0.00000000000E+00 -0.10000000000E+04  0.10000000000E+04  0.00000000000E+00 0.  1.
    9000005    2    1    2  501    0 -0.27116552474E+02  0.33036699471E+02 -0.86670397270E+03  0.10853721739E+04  0.65194343974E+03 0.  0.
         13    1    3    3    0    0  0.20374698170E+03 -0.22706200956E+03 -0.38404706751E+03  0.49047134350E+03  0.00000000000E+00 0.  1.
          3    1    3    3  501    0 -0.23086353418E+03  0.26009870903E+03 -0.48265690519E+03  0.59490083038E+03  0.00000000000E+00 0.  1.
         21    1    1    2  502  501  0.27116552474E+02 -0.33036699471E+02 -0.49032450727E+01  0.43020608344E+02  0.00000000000E+00 0.  1.
<mgrwt>
<rscale>  1 0.30000000E+03</rscale>
<asrwt>0</asrwt>
<pdfrwt beam="1">  1        1 0.46688383E+00 0.30000000E+03</pdfrwt>
<pdfrwt beam="2">0</pdfrwt>
<totfact> 0.39534051E-01</totfact>
</mgrwt>
</event>
<event>
 6    1  0.5260809E-006  0.3000000E+03  0.7818608E-02  0.1093470E+00
          1   -1    0    0  502    0  0.00000000000E+00  0.00000000000E+00  0.11641729233E+03  0.11641729233E+03  0.00000000000E+00 0.  1.
         13   -1    0    0    0    0 -0.00000000000E+00 -0.00000000000E+00 -0.10000000000E+04  0.10000000000E+04  0.00000000000E+00 0.  1.
    9000005    2    1    2  501    0  0.75668889517E+01  0.44292250117E+01 -0.87671810667E+03  0.11052818269E+04  0.67300549964E+03 0.  0.
         13    1    3    3    0    0  0.88014757560E+02  0.27514245703E+03 -0.73411385327E+03  0.78890628009E+03  0.00000000000E+00 0.  1.
          1    1    3    3  501    0 -0.80447868608E+02 -0.27071323202E+03 -0.14260425340E+03  0.31637554684E+03  0.00000000000E+00 0.  1.
         21    1    1    2  502  501 -0.75668889517E+01 -0.44292250117E+01 -0.68646010008E+01  0.11135465393E+02  0.00000000000E+00 0.  1.
<mgrwt>
<rscale>  1 0.30000000E+03</rscale>
<asrwt>0</asrwt>
<pdfrwt beam="1">  1        1 0.42333650E+00 0.30000000E+03</pdfrwt>
<pdfrwt beam="2">0</pdfrwt>
<totfact> 0.76479811E-01</totfact>
</mgrwt>
</event>
<event>
 6    1  0.5260809E-006  0.3000000E+03  0.7818608E-02  0.1093470E+00
          1   -1    0    0  502    0  0.00000000000E+00  0.00000000000E+00  0.13002282498E+03  0.13002282498E+03  0.00000000000E+00 0.  1.
         13   -1    0    0    0    0 -0.00000000000E+00 -0.00000000000E+00 -0.10000000000E+04  0.10000000000E+04  0.00000000000E+00 0.  1.
    9000005    2    1    2  501    0 -0.97220774146E+01  0.18946339988E+02 -0.88650546700E+03  0.11030660629E+04  0.65605587675E+03 0.  0.
         13    1    3    3    0    0  0.18390356748E+03  0.45961195419E+02  0.57465875335E+01  0.18964697964E+03  0.00000000000E+00 0.  1.
          3    1    3    3  501    0 -0.19362564490E+03 -0.27014855431E+02 -0.89225205453E+03  0.91341908322E+03  0.00000000000E+00 0.  1.
         21    1    1    2  502  501  0.97220774146E+01 -0.18946339988E+02  0.16528291978E+02  0.26956762119E+02  0.00000000000E+00 0. -1.
<mgrwt>
<rscale>  1 0.30000000E+03</rscale>
<asrwt>0</asrwt>
<pdfrwt beam="1">  1        1 0.47281127E+00 0.30000000E+03</pdfrwt>
<pdfrwt beam="2">0</pdfrwt>
<totfact> 0.35931738E-01</totfact>
</mgrwt>
</event>
<event>
 6    1  0.5260809E-006  0.3000000E+03  0.7818608E-02  0.1093470E+00
          1   -1    0    0  502    0  0.00000000000E+00  0.00000000000E+00  0.13492061099E+03  0.13492061099E+03  0.00000000000E+00 0.  1.
         13   -1    0    0    0    0 -0.00000000000E+00 -0.00000000000E+00 -0.10000000000E+04  0.10000000000E+04  0.00000000000E+00 0.  1.
    9000005    2    1    2  501    0 -0.26238283716E+02  0.16920790565E+01 -0.87997097533E+03  0.11047035627E+04  0.66733030306E+03 0.  0.
         13    1    3    3    0    0 -0.12342792379E+03  0.26461372680E+03 -0.16191300230E+03  0.33387227662E+03  0.00000000000E+00 0.  1.
          1    1    3    3  501    0  0.97189640076E+02 -0.26292164774E+03 -0.71805797303E+03  0.77083128609E+03  0.00000000000E+00 0.  1.
         21    1    1    2  502  501  0.26238283716E+02 -0.16920790565E+01  0.14891586321E+02  0.30217048285E+02  0.00000000000E+00 0. -1.
<mgrwt>
<rscale>  1 0.30000000E+03</rscale>
<asrwt>0</asrwt>
<pdfrwt beam="1">  1        1 0.49062144E+00 0.30000000E+03</pdfrwt>
<pdfrwt beam="2">0</pdfrwt>
<totfact> 0.26753881E-01</totfact>
</mgrwt>
</event>
<event>
 6    1  0.5260809E-006  0.3000000E+03  0.7818608E-02  0.1093470E+00
          1   -1    0    0  502    0  0.00000000000E+00  0.00000000000E+00  0.10905020857E+03  0.10905020857E+03  0.00000000000E+00 0.  1.
         13   -1    0    0    0    0 -0.00000000000E+00 -0.00000000000E+00 -0.10000000000E+04  0.10000000000E+04  0.00000000000E+00 0.  1.
    9000005    2    1    2  501    0 -0.10313067582E+02 -0.20539624918E-02 -0.88086701280E+03  0.10946272480E+04  0.64975053552E+03 0.  0.
         13    1    3    3    0    0  0.15341981161E+03 -0.76335110906E+02  0.22987433217E+02  0.17289624009E+03  0.00000000000E+00 0.  1.
          3    1    3    3  501    0 -0.16373287919E+03  0.76333056944E+02 -0.90385444602E+03  0.92173100789E+03  0.00000000000E+00 0.  1.
         21    1    1    2  502  501  0.10313067582E+02  0.20539624918E-02 -0.10082778631E+02  0.14422960587E+02  0.00000000000E+00 0.  1.
<mgrwt>
<rscale>  1 0.30000000E+03</rscale>
<asrwt>0</asrwt>
<pdfrwt beam="1">  1        1 0.39654705E+00 0.30000000E+03</pdfrwt>
<pdfrwt beam="2">0</pdfrwt>
<totfact> 0.11017699E+00</totfact>
</mgrwt>
</event>
<event>
 6    1  0.5260809E-006  0.3000000E+03  0.7818608E-02  0.1093470E+00
          1   -1    0    0  502    0  0.00000000000E+00  0.00000000000E+00  0.10659184758E+03  0.10659184758E+03  0.00000000000E+00 0.  1.
         13   -1    0    0    0    0 -0.00000000000E+00 -0.00000000000E+00 -0.10000000000E+04  0.10000000000E+04  0.00000000000E+00 0.  1.
    9000005    2    1    2  501    0 -0.16776456073E+02  0.13884737307E+02 -0.88333811781E+03  0.10825993278E+04  0.62550846419E+03 0.  0.
         13    1    3    3    0    0  0.27226829209E+03 -0.73615693343E+02 -0.62302857815E+03  0.68389611958E+03  0.00000000000E+00 0.  1.
          1    1    3    3  501    0 -0.28904474817E+03  0.87500430650E+02 -0.26030953966E+03  0.39870320822E+03  0.00000000000E+00 0.  1.
         21    1    1    2  502  501  0.16776456073E+02 -0.13884737307E+02 -0.10070034614E+02  0.23992519784E+02  0.00000000000E+00 0. -1.
<mgrwt>
<rscale>  1 0.30000000E+03</rscale>
<asrwt>0</asrwt>
<pdfrwt beam="1">  1        1 0.38760754E+00 0.30000000E+03</pdfrwt>
<pdfrwt beam="2">0</pdfrwt>
<totfact> 0.12366515E+00</totfact>
</mgrwt>
</event>
<event>
 6    1  0.5260809E-006  0.3000000E+03  0.7818608E-02  0.1093470E+00
          1   -1    0    0  502    0  0.00000000000E+00  0.00000000000E+00  0.11174337262E+03  0.11174337262E+03  0.00000000000E+00 0.  1.
         13   -1    0    0    0    0 -0.00000000000E+00 -0.00000000000E+00 -0.10000000000E+04  0.10000000000E+04  0.00000000000E+00 0.  1.
    9000005    2    1    2  501    0 -0.48696904135E+01 -0.14197169644E+02 -0.86712410643E+03  0.10858231691E+04  0.65336243006E+03 0.  0.
         13    1    3    3    0    0 -0.15306841500E+03 -0.20075621467E+03 -0.79912132519E+03  0.83805005207E+03  0.00000000000E+00 0.  1.
          3    1    3    3  501    0  0.14819872458E+03  0.18655904503E+03 -0.68002781241E+02  0.24777311700E+03  0.00000000000E+00 0.  1.
         21    1    1    2  502  501  0.48696904135E+01  0.14197169644E+02 -0.21132520951E+02  0.25920203555E+02  0.00000000000E+00 0. -1.
<mgrwt>
<rscale>  1 0.30000000E+03</rscale>
<asrwt>0</asrwt>
<pdfrwt beam="1">  1        1 0.40634039E+00 0.30000000E+03</pdfrwt>
<pdfrwt beam="2">0</pdfrwt>
<totfact> 0.96810780E-01</totfact>
</mgrwt>
</event>
<event>
 6    1  0.5260809E-006  0.3000000E+03  0.7818608E-02  0.1093470E+00
          1   -1    0    0  502    0  0.00000000000E+00  0.00000000000E+00  0.12257241980E+03  0.12257241980E+03  0.00000000000E+00 0.  1.
         13   -1    0    0    0    0 -0.00000000000E+00 -0.00000000000E+00 -0.10000000000E+04  0.10000000000E+04  0.00000000000E+00 0.  1.
    9000005    2    1    2  501    0  0.12930555482E+02 -0.26547442133E+02 -0.85271888370E+03  0.10840693598E+04  0.66873381567E+03 0.  0.
         13    1    3    3    0    0  0.24402663950E+03  0.13823757694E+03 -0.71611534544E+03  0.76907724998E+03  0.00000000000E+00 0.  1.
          1    1    3    3  501    0 -0.23109608402E+03 -0.16478501907E+03 -0.13660353826E+03  0.31499210978E+03  0.00000000000E+00 0.  1.
         21    1    1    2  502  501 -0.12930555482E+02  0.26547442133E+02 -0.24708696508E+02  0.38503060034E+02  0.00000000000E+00 0.  1.
<mgrwt>
<rscale>  1 0.30000000E+03</rscale>
<asrwt>0</asrwt>
<pdfrwt beam="1">  1        1 0.44571883E+00 0.30000000E+03</pdfrwt>
<pdfrwt beam="2">0</pdfrwt>
<totfact> 0.54963885E-01</totfact>
</mgrwt>
</event>
<event>
 6    1  0.5260809E-006  0.3000000E+03  0.7818608E-02  0.1093470E+00
          1   -1    0    0  502    0  0.00000000000E+00  0.00000000000E+00  0.11957639028E+03  0.11957639028E+03  0.00000000000E+00 0.  1.
         13   -1    0    0    0    0 -0.00000000000E+00 -0.00000000000E+00 -0.10000000000E+04  0.10000000000E+04  0.00000000000E+00 0.  1.
    9000005    2    1    2  501    0  0.72118647808E+01 -0.15792236566E+02 -0.89028833946E+03  0.10996084504E+04  0.64515425375E+03 0.  0.
         13    1    3    3    0    0  0.21489010964E+03 -0.23207393753E+03 -0.29236055728E+03  0.43070960885E+03  0.00000000000E+00 0.  1.
          3    1    3    3  501    0 -0.20767824486E+03  0.21628170096E+03 -0.59792778218E+03  0.66889884157E+03  0.00000000000E+00 0.  1.
         21    1    1    2  502  501 -0.72118647808E+01  0.15792236566E+02  0.98647297310E+01  0.19967939855E+02  0.00000000000E+00 0.  1.
<mgrwt>
<rscale>  1 0.30000000E+03</rscale>
<asrwt>0</asrwt>
<pdfrwt beam="1">  1        1 0.43482415E+00 0.30000000E+03</pdfrwt>
<pdfrwt beam="2">0</pdfrwt>
<totfact> 0.64733090E-01</totfact>
</mgrwt>
</event>
<event>
 6    1  0.5260809E-006  0.3000000E+03  0.7818608E-02  0.1093470E+00
          1   -1    0    0  502    0  0.00000000000E+00  0.00000000000E+00  0.12011365366E+03  0.12011365366E+03  0.00000000000E+00 0.  1.
         13   -1    0    0    0    0 -0.00000000000E+00 -0.00000000000E+00 -0.10000000000E+04  0.10000000000E+04  0.00000000000E+00 0.  1.
    9000005    2    1    2  501    0  0.24566891186E+02 -0.13414763854E+02 -0.87615405460E+03  0.10918750625E+04  0.65096984307E+03 0.  0.
         13    1    3    3    0    0 -0.88086364779E+02  0.27342115987E+03 -0.20364265649E+03  0.35212024916E+03  0.00000000000E+00 0.  1.
          3    1    3    3  501    0  0.11265325596E+03 -0.28683592372E+03 -0.67251139811E+03  0.73975481330E+03  0.00000000000E+00 0.  1.
         21    1    1    2  502  501 -0.24566891186E+02  0.13414763854E+02 -0.37322917328E+01  0.28238591207E+02  0.00000000000E+00 0.  1.
<mgrwt>
<rscale>  1 0.30000000E+03</rscale>
<asrwt>0</asrwt>
<pdfrwt beam="1">  1        1 0.43677784E+00 0.30000000E+03</pdfrwt>
<pdfrwt beam="2">0</pdfrwt>
<totfact> 0.62891904E-01</totfact>
</mgrwt>
</event>
<event>
 6    1  0.5260809E-006  0.3000000E+03  0.7818608E-02  0.1093470E+00
          1   -1    0    0  502    0  0.00000000000E+00  0.00000000000E+00  0.11148774744E+03  0.11148774744E+03  0.00000000000E+00 0.  1.
         13   -1    0    0    0    0 -0.00000000000E+00 -0.00000000000E+00 -0.10000000000E+04  0.10000000000E+04  0.00000000000E+00 0.  1.
    9000005    2    1    2  501    0  0.12260494900E+02  0.42438799761E+01 -0.88447206158E+03  0.10978990243E+04  0.65032538754E+03 0.  0.
         13    1    3    3    0    0 -0.22671906682E+03  0.28222729890E+02 -0.55885815973E+02  0.23520476646E+03  0.00000000000E+00 0.  1.
          3    1    3    3  501    0  0.23897956172E+03 -0.23978849914E+02 -0.82858624561E+03  0.86269425788E+03  0.00000000000E+00 0.  1.
         21    1    1    2  502  501 -0.12260494900E+02 -0.42438799761E+01 -0.40401909710E+01  0.13588723102E+02  0.00000000000E+00 0.  1.
<mgrwt>
<rscale>  1 0.30000000E+03</rscale>
<asrwt>0</asrwt>
<pdfrwt beam="1">  1        1 0.40541085E+00 0.30000000E+03</pdfrwt>
<pdfrwt beam="2">0</pdfrwt>
<totfact> 0.98025837E-01</totfact>
</mgrwt>
</event>
<event>
 6    1  0.5260809E-006  0.3000000E+03  0.7818608E-02  0.1093470E+00
          1   -1    0    0  502    0  0.00000000000E+00  0.00000000000E+00  0.66340049717E+02  0.66340049717E+02  0.00000000000E+00 0.  1.
         13   -1    0    0    0    0 -0.00000000000E+00 -0.00000000000E+00 -0.10000000000E+04  0.10000000000E+04  0.00000000000E+00 0.  1.
    9000005    2    1    2  501    0 -0.85498713058E+01 -0.13214114771E+02 -0.93454072772E+03  0.10505765191E+04  0.47968420611E+03 0.  0.
         13    1    3    3    0    0 -0.24483943897E+02 -0.45535007929E+02 -0.98622004786E+03  0.98757424189E+03  0.00000000000E+00 0.  1.
          1    1    3    3  501    0  0.15934072591E+02  0.32320893158E+02  0.51679320135E+02  0.63002277209E+02  0.00000000000E+00 0.  1.
         21    1    1    2  502  501  0.85498713058E+01  0.13214114771E+02  0.88077744016E+00  0.15763530614E+02  0.00000000000E+00 0.  1.
<mgrwt>
<rscale>  1 0.30000000E+03</rscale>
<asrwt>0</asrwt>
<pdfrwt beam="1">  1        1 0.24123705E+00 0.30000000E+03</pdfrwt>
<pdfrwt beam="2">0</pdfrwt>
<totfact> 0.65557198E+00</totfact>
</mgrwt>
</event>
<event>
 6    1  0.5260809E-006  0.3000000E+03  0.7818608E-02  0.1093470E+00
          1   -1    0    0  502    0  0.00000000000E+00  0.00000000000E+00  0.11763956663E+03  0.11763956663E+03  0.00000000000E+00 0.  1.
         13   -1    0    0    0    0 -0.00000000000E+00 -0.00000000000E+00 -0.10000000000E+04  0.10000000000E+04  0.00000000000E+00 0.  1.
    9000005    2    1    2  501    0 -0.22797996209E+02 -0.13683794811E+01 -0.87947628052E+03  0.10946191533E+04  0.65129942548E+03 0.  0.
         13    1    3    3    0    0  0.18578540154E+03 -0.50947087406E+02 -0.85776065994E+03  0.87912750547E+03  0.00000000000E+00 0.  1.
          3    1    3    3  501    0 -0.20858339775E+03  0.49578707925E+02 -0.21715620582E+02  0.21549164780E+03  0.00000000000E+00 0.  1.
         21    1    1    2  502  501  0.22797996209E+02  0.13683794811E+01 -0.28841528462E+01  0.23020413358E+02  0.00000000000E+00 0.  1.
<mgrwt>
<rscale>  1 0.30000000E+03</rscale>
<asrwt>0</asrwt>
<pdfrwt beam="1">  1        1 0.42778114E+00 0.30000000E+03</pdfrwt>
<pdfrwt beam="2">0</pdfrwt>
<totfact> 0.71736730E-01</totfact>
</mgrwt>
</event>
<event>
 6    1  0.5260809E-006  0.3000000E+03  0.7818608E-02  0.1093470E+00
          1   -1    0    0  502    0  0.00000000000E+00  0.00000000000E+00  0.13212828021E+03  0.13212828021E+03  0.00000000000E+00 0.  1.
         13   -1    0    0    0    0 -0.00000000000E+00 -0.00000000000E+00 -0.10000000000E+04  0.10000000000E+04  0.00000000000E+00 0.  1.
    9000005    2    1    2  501    0 -0.60457322828E+02 -0.13790964234E+02 -0.84006229346E+03  0.10641676830E+04  0.65030986621E+03 0.  0.
         13    1    3    3    0    0  0.58408041908E+02  0.87655681332E+01  0.10011470286E+03  0.11623806722E+03  0.00000000000E+00 0.  1.
          3    1    3    3  501    0 -0.11886536474E+03 -0.22556532368E+02 -0.94017699631E+03  0.94792961579E+03  0.00000000000E+00 0.  1.
         21    1    1    2  502  501  0.60457322828E+02  0.13790964234E+02 -0.27809426337E+02  0.67960597196E+02  0.00000000000E+00 0. -1.
<mgrwt>
<rscale>  1 0.30000000E+03</rscale>
<asrwt>0</asrwt>
<pdfrwt beam="1">  1        1 0.48046749E+00 0.30000000E+03</pdfrwt>
<pdfrwt beam="2">0</pdfrwt>
<totfact> 0.31693825E-01</totfact>
</mgrwt>
</event>
<event>
 6    1  0.5260809E-006  0.3000000E+03  0.7818608E-02  0.1093470E+00
          1   -1    0    0  502    0  0.00000000000E+00  0.00000000000E+00  0.10728728993E+03  0.10728728993E+03  0.00000000000E+00 0.  1.
         13   -1    0    0    0    0 -0.00000000000E+00 -0.00000000000E+00 -0.10000000000E+04  0.10000000000E+04  0.00000000000E+00 0.  1.
    9000005    2    1    2  501    0  0.10272667591E+02 -0.39003737106E+01 -0.88993142863E+03  0.10959525583E+04  0.63954149340E+03 0.  0.
         13    1    3    3    0    0 -0.17009558178E+03 -0.24679694023E+02  0.15427687259E+02  0.17256769041E+03  0.00000000000E+00 0.  1.
          3    1    3    3  501    0  0.18036824937E+03  0.20779320312E+02 -0.90535911589E+03  0.92338486790E+03  0.00000000000E+00 0.  1.
         21    1    1    2  502  501 -0.10272667591E+02  0.39003737106E+01 -0.27812814408E+01  0.11334731623E+02  0.00000000000E+00 0. -1.
<mgrwt>
<rscale>  1 0.30000000E+03</rscale>
<asrwt>0</asrwt>
<pdfrwt beam="1">  1        1 0.39013642E+00 0.30000000E+03</pdfrwt>
<pdfrwt beam="2">0</pdfrwt>
<totfact> 0.11970930E+00</totfact>
</mgrwt>
</event>
<event>
 6    1  0.5260809E-006  0.3000000E+03  0.7818608E-02  0.1093470E+00
          1   -1    0    0  502    0  0.00000000000E+00  0.00000000000E+00  0.12470192691E+03  0.12470192691E+03  0.00000000000E+00 0.  1.
         13   -1    0    0    0    0 -0.00000000000E+00 -0.00000000000E+00 -0.10000000000E+04  0.10000000000E+04  0.00000000000E+00 0.  1.
    9000005    2    1    2  501    0 -0.15061876520E+02 -0.37803772614E+02 -0.87962199095E+03  0.10837790529E+04  0.63181184168E+03 0.  0.
         13    1    3    3    0    0  0.20674253067E+03 -0.85292425890E+02 -0.81900028949E+03  0.84898689394E+03  0.00000000000E+00 0.  1.
          1    1    3    3  501    0 -0.22180440719E+03  0.47488653276E+02 -0.60621701462E+02  0.23479215900E+03  0.00000000000E+00 0.  1.
         21    1    1    2  502  501  0.15061876520E+02  0.37803772614E+02  0.43239178557E+01  0.40922873967E+02  0.00000000000E+00 0. -1.
<mgrwt>
<rscale>  1 0.30000000E+03</rscale>
<asrwt>0</asrwt>
<pdfrwt beam="1">  1        1 0.45346251E+00 0.30000000E+03</pdfrwt>
<pdfrwt beam="2">0</pdfrwt>
<totfact> 0.48770915E-01</totfact>
</mgrwt>
</event>
<event>
 6    1  0.5260809E-006  0.3000000E+03  0.7818608E-02  0.1093470E+00
          1   -1    0    0  502    0  0.00000000000E+00  0.00000000000E+00  0.11457736852E+03  0.11457736852E+03  0.00000000000E+00 0.  1.
         13   -1    0    0    0    0 -0.00000000000E+00 -0.00000000000E+00 -0.10000000000E+04  0.10000000000E+04  0.00000000000E+00 0.  1.
    9000005    2    1    2  501    0  0.13208735421E+02 -0.54438002067E+00 -0.88226715735E+03  0.11009860456E+04  0.65848323342E+03 0.  0.
         13    1    3    3    0    0  0.16514456041E+03  0.24133764912E+03 -0.18134818680E+03  0.34409846202E+03  0.00000000000E+00 0.  1.
          3    1    3    3  501    0 -0.15193582498E+03 -0.24188202914E+03 -0.70091897055E+03  0.75688758361E+03  0.00000000000E+00 0.  1.
         21    1    1    2  502  501 -0.13208735421E+02  0.54438002067E+00 -0.31554741266E+01  0.13591322894E+02  0.00000000000E+00 0. -1.
<mgrwt>
<rscale>  1 0.30000000E+03</rscale>
<asrwt>0</asrwt>
<pdfrwt beam="1">  1        1 0.41664586E+00 0.30000000E+03</pdfrwt>
<pdfrwt beam="2">0</pdfrwt>
<totfact> 0.84074542E-01</totfact>
</mgrwt>
</event>
<event>
 6    1  0.5260809E-006  0.3000000E+03  0.7818608E-02  0.1093470E+00
          1   -1    0    0  502    0  0.00000000000E+00  0.00000000000E+00  0.12007952436E+03  0.12007952436E+03  0.00000000000E+00 0.  1.
         13   -1    0    0    0    0 -0.00000000000E+00 -0.00000000000E+00 -0.10000000000E+04  0.10000000000E+04  0.00000000000E+00 0.  1.
    9000005    2    1    2  501    0  0.12761827460E+02  0.16879973125E+02 -0.82158238811E+03  0.10580220495E+04  0.66630716564E+03 0.  0.
         13    1    3    3    0    0  0.40959980227E+02  0.33986895840E+03 -0.43098478410E+03  0.55039668694E+03  0.00000000000E+00 0.  1.
          1    1    3    3  501    0 -0.28198152767E+02 -0.32298898528E+03 -0.39059760401E+03  0.50762536253E+03  0.00000000000E+00 0.  1.
         21    1    1    2  502  501 -0.12761827460E+02 -0.16879973125E+02 -0.58338087532E+02  0.62057474890E+02  0.00000000000E+00 0. -1.
<mgrwt>
<rscale>  1 0.30000000E+03</rscale>
<asrwt>0</asrwt>
<pdfrwt beam="1">  1        1 0.43665374E+00 0.30000000E+03</pdfrwt>
<pdfrwt beam="2">0</pdfrwt>
<totfact> 0.63007626E-01</totfact>
</mgrwt>
</event>
<event>
 6    1  0.5260809E-006  0.3000000E+03  0.7818608E-02  0.1093470E+00
          1   -1    0    0  502    0  0.00000000000E+00  0.00000000000E+00  0.97470745846E+02  0.97470745846E+02  0.00000000000E+00 0.  1.
         13   -1    0    0    0    0 -0.00000000000E+00 -0.00000000000E+00 -0.10000000000E+04  0.10000000000E+04  0.00000000000E+00 0.  1.
    9000005    2    1    2  501    0 -0.82839215075E+01 -0.19290450652E+02 -0.87687313489E+03  0.10643198590E+04  0.60285116137E+03 0.  0.
         13    1    3    3    0    0  0.17365395966E+03 -0.10348947074E+03 -0.83551369445E+03  0.85962137123E+03  0.00000000000E+00 0.  1.
          3    1    3    3  501    0 -0.18193788117E+03  0.84199020092E+02 -0.41359440438E+02  0.20469848779E+03  0.00000000000E+00 0.  1.
         21    1    1    2  502  501  0.82839215075E+01  0.19290450652E+02 -0.25656119261E+02  0.33150886827E+02  0.00000000000E+00 0. -1.
<mgrwt>
<rscale>  1 0.30000000E+03</rscale>
<asrwt>0</asrwt>
<pdfrwt beam="1">  1        1 0.35443982E+00 0.30000000E+03</pdfrwt>
<pdfrwt beam="2">0</pdfrwt>
<totfact> 0.18678853E+00</totfact>
</mgrwt>
</event>
<event>
 6    1  0.5260809E-006  0.3000000E+03  0.7818608E-02  0.1093470E+00
          1   -1    0    0  502    0  0.00000000000E+00  0.00000000000E+00  0.95022381238E+02  0.95022381238E+02  0.00000000000E+00 0.  1.
         13   -1    0    0    0    0 -0.00000000000E+00 -0.00000000000E+00 -0.10000000000E+04  0.10000000000E+04  0.00000000000E+00 0.  1.
    9000005    2    1    2  501    0 -0.18646836980E+02  0.14365991530E+02 -0.91783821286E+03  0.10681992360E+04  0.54595653350E+03 0.  0.
         13    1    3    3    0    0 -0.92512902861E+01  0.27098622074E+03 -0.60841175904E+03  0.66609607921E+03  0.00000000000E+00 0.  1.
          3    1    3    3  501    0 -0.93955466942E+01 -0.25662022921E+03 -0.30942645383E+03  0.40210315675E+03  0.00000000000E+00 0.  1.
         21    1    1    2  502  501  0.18646836980E+02 -0.14365991530E+02  0.12860594103E+02  0.26823145279E+02  0.00000000000E+00 0.  1.
<mgrwt>
<rscale>  1 0.30000000E+03</rscale>
<asrwt>0</asrwt>
<pdfrwt beam="1">  1        1 0.34553666E+00 0.30000000E+03</pdfrwt>
<pdfrwt beam="2">0</pdfrwt>
<totfact> 0.20751332E+00</totfact>
</mgrwt>
</event>
<event>
 6    1  0.5260809E-006  0.3000000E+03  0.7818608E-02  0.1093470E+00
          1   -1    0    0  502    0  0.00000000000E+00  0.00000000000E+00  0.10580984263E+03  0.10580984263E+03  0.00000000000E+00 0.  1.
         13   -1    0    0    0    0 -0.00000000000E+00 -0.00000000000E+00 -0.10000000000E+04  0.10000000000E+04  0.00000000000E+00 0.  1.
    9000005    2    1    2  501    0  0.78943678694E+01 -0.64654035140E+01 -0.87365491332E+03  0.10828791049E+04  0.63972660230E+03 0.  0.
         13    1    3    3    0    0 -0.25213182993E+03  0.17945957564E+03 -0.52845838958E+03  0.61240874297E+03  0.00000000000E+00 0.  1.
          1    1    3    3  501    0  0.26002619780E+03 -0.18592497915E+03 -0.34519652374E+03  0.47047036189E+03  0.00000000000E+00 0.  1.
         21    1    1    2  502  501 -0.78943678694E+01  0.64654035140E+01 -0.20535244051E+02  0.22930737775E+02  0.00000000000E+00 0.  1.
<mgrwt>
<rscale>  1 0.30000000E+03</rscale>
<asrwt>0</asrwt>
<pdfrwt beam="1">  1        1 0.38476388E+00 0.30000000E+03</pdfrwt>
<pdfrwt beam="2">0</pdfrwt>
<totfact> 0.12824606E+00</totfact>
</mgrwt>
</event>
<event>
 6    1  0.5260809E-006  0.3000000E+03  0.7818608E-02  0.1093470E+00
          1   -1    0    0  502    0  0.00000000000E+00  0.00000000000E+00  0.11734379791E+03  0.11734379791E+03  0.00000000000E+00 0.  1.
         13   -1    0    0    0    0 -0.00000000000E+00 -0.00000000000E+00 -0.10000000000E+04  0.10000000000E+04  0.00000000000E+00 0.  1.
    9000005    2    1    2  501    0 -0.12120746977E+02  0.51984341753E+01 -0.88847136929E+03  0.11029301795E+04  0.65337559691E+03 0.  0.
         13    1    3    3    0    0  0.17282007199E+02  0.14473807387E+03  0.49682169571E+02  0.15400031095E+03  0.00000000000E+00 0.  1.
          3    1    3    3  501    0 -0.29402754176E+02 -0.13953963969E+03 -0.93815353886E+03  0.94892986858E+03  0.00000000000E+00 0.  1.
         21    1    1    2  502  501  0.12120746977E+02 -0.51984341753E+01  0.58151671992E+01  0.14413618377E+02  0.00000000000E+00 0.  1.
<mgrwt>
<rscale>  1 0.30000000E+03</rscale>
<asrwt>0</asrwt>
<pdfrwt beam="1">  1        1 0.42670562E+00 0.30000000E+03</pdfrwt>
<pdfrwt beam="2">0</pdfrwt>
<totfact> 0.72860826E-01</totfact>
</mgrwt>
</event>
<event>
 6    1  0.5260809E-006  0.3000000E+03  0.7818608E-02  0.1093470E+00
          1   -1    0    0  502    0  0.00000000000E+00  0.00000000000E+00  0.11054552665E+03  0.11054552665E+03  0.00000000000E+00 0.  1.
         13   -1    0    0    0    0 -0.00000000000E+00 -0.00000000000E+00 -0.10000000000E+04  0.10000000000E+04  0.00000000000E+00 0.  1.
    9000005    2    1    2  501    0  0.16361319765E+02  0.18640959452E+02 -0.88564502241E+03  0.10854519006E+04  0.62707538985E+03 0.  0.
         13    1    3    3    0    0  0.28624271159E+03 -0.11800795242E+03 -0.32804783614E+03  0.45108330668E+03  0.00000000000E+00 0.  1.
          3    1    3    3  501    0 -0.26988139182E+03  0.13664891187E+03 -0.55759718627E+03  0.63436859388E+03  0.00000000000E+00 0.  1.
         21    1    1    2  502  501 -0.16361319765E+02 -0.18640959452E+02 -0.38094509425E+01  0.25093626088E+02  0.00000000000E+00 0. -1.
<mgrwt>
<rscale>  1 0.30000000E+03</rscale>
<asrwt>0</asrwt>
<pdfrwt beam="1">  1        1 0.40198458E+00 0.30000000E+03</pdfrwt>
<pdfrwt beam="2">0</pdfrwt>
<totfact> 0.10259968E+00</totfact>
</mgrwt>
</event>
<event>
 6    1  0.5260809E-006  0.3000000E+03  0.7818608E-02  0.1093470E+00
          1   -1    0    0  502    0  0.00000000000E+00  0.00000000000E+00  0.12727406089E+03  0.12727406089E+03  0.00000000000E+00 0.  1.
         13   -1    0    0    0    0 -0.00000000000E+00 -0.00000000000E+00 -0.10000000000E+04  0.10000000000E+04  0.00000000000E+00 0.  1.
    9000005    2    1    2  501    0  0.18786148996E+02 -0.71024340275E+01 -0.88828668964E+03  0.11018673507E+04  0.65165562354E+03 0.  0.
         13    1    3    3    0    0 -0.18279846082E+03  0.21318638028E+03 -0.68583826934E+03  0.74110582355E+03  0.00000000000E+00 0.  1.
          3    1    3    3  501    0  0.20158460982E+03 -0.22028881430E+03 -0.20244842030E+03  0.36076152720E+03  0.00000000000E+00 0.  1.
         21    1    1    2  502  501 -0.18786148996E+02  0.71024340275E+01  0.15560750531E+02  0.25406710144E+02  0.00000000000E+00 0. -1.
<mgrwt>
<rscale>  1 0.30000000E+03</rscale>
<asrwt>0</asrwt>
<pdfrwt beam="1">  1        1 0.46281574E+00 0.30000000E+03</pdfrwt>
<pdfrwt beam="2">0</pdfrwt>
<totfact> 0.42169044E-01</totfact>
</mgrwt>
</event>
<event>
 6    1  0.5260809E-006  0.3000000E+03  0.7818608E-02  0.1093470E+00
          1   -1    0    0  502    0  0.00000000000E+00  0.00000000000E+00  0.11196513650E+03  0.11196513650E+03  0.00000000000E+00 0.  1.
         13   -1    0    0    0    0 -0.00000000000E+00 -0.00000000000E+00 -0.10000000000E+04  0.10000000000E+04  0.00000000000E+00 0.  1.
    9000005    2    1    2  501    0  0.16867990015E+02  0.50765847658E+00 -0.88149606120E+03  0.10938669946E+04  0.64747579815E+03 0.  0.
         13    1    3    3    0    0  0.15068448616E+03 -0.26890965964E+03 -0.63154008305E+03  0.70275251399E+03  0.00000000000E+00 0.  1.
          3    1    3    3  501    0 -0.13381649615E+03  0.26941731811E+03 -0.24995597815E+03  0.39111448062E+03  0.00000000000E+00 0.  1.
         21    1    1    2  502  501 -0.16867990015E+02 -0.50765847658E+00 -0.65388023059E+01  0.18098141890E+02  0.00000000000E+00 0.  1.
<mgrwt>
<rscale>  1 0.30000000E+03</rscale>
<asrwt>0</asrwt>
<pdfrwt beam="1">  1        1 0.40714681E+00 0.30000000E+03</pdfrwt>
<pdfrwt beam="2">0</pdfrwt>
<totfact> 0.95765724E-01</totfact>
</mgrwt>
</event>
<event>
 6    1  0.5260809E-006  0.3000000E+03  0.7818608E-02  0.1093470E+00
          1   -1    0    0  502    0  0.00000000000E+00  0.00000000000E+00  0.10893024455E+03  0.10893024455E+03  0.00000000000E+00 0.  1.
         13   -1    0    0    0    0 -0.00000000000E+00 -0.00000000000E+00 -0.10000000000E+04  0.10000000000E+04  0.00000000000E+00 0.  1.
    9000005    2    1    2  501    0  0.55904070004E+01 -0.97927559924E+01 -0.88724832662E+03  0.10970241941E+04  0.64507777711E+03 0.  0.
         13    1    3    3    0    0 -0.14304517284E+03  0.25012956737E+03 -0.21002688121E+03  0.35656417764E+03  0.00000000000E+00 0.  1.
          1    1    3    3  501    0  0.14863557984E+03 -0.25992232336E+03 -0.67722144541E+03  0.74046001641E+03  0.00000000000E+00 0.  1.
         21    1    1    2  502  501 -0.55904070004E+01  0.97927559924E+01 -0.38214288226E+01  0.11906050504E+02  0.00000000000E+00 0.  1.
<mgrwt>
<rscale>  1 0.30000000E+03</rscale>
<asrwt>0</asrwt>
<pdfrwt beam="1">  1        1 0.39611082E+00 0.30000000E+03</pdfrwt>
<pdfrwt beam="2">0</pdfrwt>
<totfact> 0.11080375E+00</totfact>
</mgrwt>
</event>
<event>
 6    1  0.5260809E-006  0.3000000E+03  0.7818608E-02  0.1093470E+00
          1   -1    0    0  502    0  0.00000000000E+00  0.00000000000E+00  0.12461624935E+03  0.12461624935E+03  0.00000000000E+00 0.  1.
         13   -1    0    0    0    0 -0.00000000000E+00 -0.00000000000E+00 -0.10000000000E+04  0.10000000000E+04  0.00000000000E+00 0.  1.
    9000005    2    1    2  501    0  0.12745230847E+01 -0.16324216000E+02 -0.89485194360E+03  0.10991777947E+04  0.63809381677E+03 0.  0.
         13    1    3    3    0    0  0.24068234262E+03  0.31832814868E+02 -0.91366394127E+02  0.25940149600E+03  0.00000000000E+00 0.  1.
          3    1    3    3  501    0 -0.23940781953E+03 -0.48157030868E+02 -0.80348554948E+03  0.83977629872E+03  0.00000000000E+00 0.  1.
         21    1    1    2  502  501 -0.12745230847E+01  0.16324216000E+02  0.19468192957E+02  0.25438454634E+02  0.00000000000E+00 0.  1.
<mgrwt>
<rscale>  1 0.30000000E+03</rscale>
<asrwt>0</asrwt>
<pdfrwt beam="1">  1        1 0.45315095E+00 0.30000000E+03</pdfrwt>
<pdfrwt beam="2">0</pdfrwt>
<totfact> 0.49006585E-01</totfact>
</mgrwt>
</event>
<event>
 6    1  0.5260809E-006  0.3000000E+03  0.7818608E-02  0.1093470E+00
          1   -1    0    0  502    0  0.00000000000E+00  0.00000000000E+00  0.13002908961E+03  0.13002908961E+03  0.00000000000E+00 0.  1.
         13   -1    0    0    0    0 -0.00000000000E+00 -0.00000000000E+00 -0.10000000000E+04  0.10000000000E+04  0.00000000000E+00 0.  1.
    9000005    2    1    2  501    0  0.18899456445E+02 -0.48320588671E+02 -0.85853503241E+03  0.10768986083E+04  0.64802480033E+03 0.  0.
         13    1    3    3    0    0  0.16640059546E+03  0.25638459931E+03 -0.48015785125E+03  0.56918694912E+03  0.00000000000E+00 0.  1.
          3    1    3    3  501    0 -0.14750113901E+03 -0.30470518799E+03 -0.37837718116E+03  0.50771165913E+03  0.00000000000E+00 0.  1.
         21    1    1    2  502  501 -0.18899456445E+02  0.48320588671E+02 -0.11435877978E+02  0.53130481350E+02  0.00000000000E+00 0.  1.
<mgrwt>
<rscale>  1 0.30000000E+03</rscale>
<asrwt>0</asrwt>
<pdfrwt beam="1">  1        1 0.47283405E+00 0.30000000E+03</pdfrwt>
<pdfrwt beam="2">0</pdfrwt>
<totfact> 0.35918440E-01</totfact>
</mgrwt>
</event>
<event>
 6    1  0.5260809E-006  0.3000000E+03  0.7818608E-02  0.1093470E+00
          1   -1    0    0  502    0  0.00000000000E+00  0.00000000000E+00  0.10762246089E+03  0.10762246089E+03  0.00000000000E+00 0.  1.
         13   -1    0    0    0    0 -0.00000000000E+00 -0.00000000000E+00 -0.10000000000E+04  0.10000000000E+04  0.00000000000E+00 0.  1.
    9000005    2    1    2  501    0 -0.72921648102E+01 -0.87612577111E+01 -0.88792538272E+03  0.10953849366E+04  0.64134759587E+03 0.  0.
         13    1    3    3    0    0  0.18525854816E+03  0.41288760139E+02 -0.87572947773E+03  0.89606227995E+03  0.00000000000E+00 0.  1.
          1    1    3    3  501    0 -0.19255071297E+03 -0.50050017850E+02 -0.12195904991E+02  0.19932265664E+03  0.00000000000E+00 0.  1.
         21    1    1    2  502  501  0.72921648102E+01  0.87612577111E+01 -0.44521563946E+01  0.12237524295E+02  0.00000000000E+00 0.  1.
<mgrwt>
<rscale>  1 0.30000000E+03</rscale>
<asrwt>0</asrwt>
<pdfrwt beam="1">  1        1 0.39135523E+00 0.30000000E+03</pdfrwt>
<pdfrwt beam="2">0</pdfrwt>
<totfact> 0.11784217E+00</totfact>
</mgrwt>
</event>
<event>
 6    1  0.5260809E-006  0.3000000E+03  0.7818608E-02  0.1093470E+00
          1   -1    0    0  502    0  0.00000000000E+00  0.00000000000E+00  0.11457818916E+03  0.11457818916E+03  0.00000000000E+00 0.  1.
         13   -1    0    0    0    0 -0.00000000000E+00 -0.00000000000E+00 -0.10000000000E+04  0.10000000000E+04  0.00000000000E+00 0.  1.
    9000005    2    1    2  501    0 -0.44009728383E+01 -0.14018106607E+02 -0.88450720843E+03  0.10998570353E+04  0.65354159803E+03 0.  0.
         13    1    3    3    0    0  0.31410841469E+03  0.37554477996E+02 -0.55405469229E+03  0.63800551490E+03  0.00000000000E+00 0.  1.
          1    1    3    3  501    0 -0.31850938753E+03 -0.51572584603E+02 -0.33045251614E+03  0.46185152035E+03  0.00000000000E+00 0.  1.
         21    1    1    2  502  501  0.44009728383E+01  0.14018106607E+02 -0.91460241062E+00  0.14721153907E+02  0.00000000000E+00 0.  1.
<mgrwt>
<rscale>  1 0.30000000E+03</rscale>
<asrwt>0</asrwt>
<pdfrwt beam="1">  1        1 0.41664884E+00 0.30000000E+03</pdfrwt>
<pdfrwt beam="2">0</pdfrwt>
<totfact> 0.84071043E-01</totfact>
</mgrwt>
</event>
<event>
 6    1  0.5260809E-006  0.3000000E+03  0.7818608E-02  0.1093470E+00
          1   -1    0    0  502    0  0.00000000000E+00  0.00000000000E+00  0.12488705870E+03  0.12488705870E+03  0.00000000000E+00 0.  1.
         13   -1    0    0    0    0 -0.00000000000E+00 -0.00000000000E+00 -0.10000000000E+04  0.10000000000E+04  0.00000000000E+00 0.  1.
    9000005    2    1    2  501    0  0.25077739338E+01 -0.69154799636E+01 -0.86686602117E+03  0.11138360639E+04  0.69937112172E+03 0.  0.
         13    1    3    3    0    0 -0.48765905828E+01 -0.25552952137E+03 -0.50626309710E+02  0.26054201323E+03  0.00000000000E+00 0.  1.
          3    1    3    3  501    0  0.73843645166E+01  0.24861404140E+03 -0.81623971146E+03  0.85329405071E+03  0.00000000000E+00 0.  1.
         21    1    1    2  502  501 -0.25077739338E+01  0.69154799636E+01 -0.82469201370E+01  0.11050994751E+02  0.00000000000E+00 0.  1.
<mgrwt>
<rscale>  1 0.30000000E+03</rscale>
<asrwt>0</asrwt>
<pdfrwt beam="1">  1        1 0.45413572E+00 0.30000000E+03</pdfrwt>
<pdfrwt beam="2">0</pdfrwt>
<totfact> 0.48265576E-01</totfact>
</mgrwt>
</event>
<event>
 6    1  0.5260809E-006  0.3000000E+03  0.7818608E-02  0.1093470E+00
          1   -1    0    0  502    0  0.00000000000E+00  0.00000000000E+00  0.90885569435E+02  0.90885569435E+02  0.00000000000E+00 0.  1.
         13   -1    0    0    0    0 -0.00000000000E+00 -0.00000000000E+00 -0.10000000000E+04  0.10000000000E+04  0.00000000000E+00 0.  1.
    9000005    2    1    2  501    0  0.27384413161E+00 -0.11736740861E+02 -0.91798747384E+03  0.10761696946E+04  0.56151792782E+03 0.  0.
         13    1    3    3    0    0 -0.16554262759E+03  0.11339092784E+03 -0.82415559430E+03  0.84823010302E+03  0.00000000000E+00 0.  1.
          1    1    3    3  501    0  0.16581647172E+03 -0.12512766870E+03 -0.93831879542E+02  0.22793959153E+03  0.00000000000E+00 0.  1.
         21    1    1    2  502  501 -0.27384413161E+00  0.11736740861E+02  0.88730432754E+01  0.14715874885E+02  0.00000000000E+00 0. -1.
<mgrwt>
<rscale>  1 0.30000000E+03</rscale>
<asrwt>0</asrwt>
<pdfrwt beam="1">  1        1 0.33049368E+00 0.30000000E+03</pdfrwt>
<pdfrwt beam="2">0</pdfrwt>
<totfact> 0.24722802E+00</totfact>
</mgrwt>
</event>
<event>
 6    1  0.5260809E-006  0.3000000E+03  0.7818608E-02  0.1093470E+00
          1   -1    0    0  502    0  0.00000000000E+00  0.00000000000E+00  0.11185284615E+03  0.11185284615E+03  0.00000000000E+00 0.  1.
         13   -1    0    0    0    0 -0.00000000000E+00 -0.00000000000E+00 -0.10000000000E+04  0.10000000000E+04  0.00000000000E+00 0.  1.
    9000005    2    1    2  501    0 -0.12031003211E+02 -0.45036900428E+01 -0.88024519404E+03  0.10967707630E+04  0.65414790129E+03 0.  0.
         13    1    3    3    0    0 -0.77169476802E+02  0.49050300697E+01  0.93201332462E+02  0.12110192336E+03  0.00000000000E+00 0.  1.
          3    1    3    3  501    0  0.65138473592E+02 -0.94087201125E+01 -0.97344652650E+03  0.97566883967E+03  0.00000000000E+00 0.  1.
         21    1    1    2  502  501  0.12031003211E+02  0.45036900428E+01 -0.79019598121E+01  0.15082083116E+02  0.00000000000E+00 0.  1.
<mgrwt>
<rscale>  1 0.30000000E+03</rscale>
<asrwt>0</asrwt>
<pdfrwt beam="1">  1        1 0.40673848E+00 0.30000000E+03</pdfrwt>
<pdfrwt beam="2">0</pdfrwt>
<totfact> 0.96293841E-01</totfact>
</mgrwt>
</event>
<event>
 6    1  0.5260809E-006  0.3000000E+03  0.7818608E-02  0.1093470E+00
          1   -1    0    0  502    0  0.00000000000E+00  0.00000000000E+00  0.13002040056E+03  0.13002040056E+03  0.00000000000E+00 0.  1.
         13   -1    0    0    0    0 -0.00000000000E+00 -0.00000000000E+00 -0.10000000000E+04  0.10000000000E+04  0.00000000000E+00 0.  1.
    9000005    2    1    2  501    0  0.14372890720E+02  0.44107318286E+01 -0.89135047215E+03  0.11038909393E+04  0.65103264681E+03 0.  0.
         13    1    3    3    0    0 -0.18090424483E+03 -0.19522413477E+03 -0.73966309211E+03  0.78609178753E+03  0.00000000000E+00 0.  1.
          1    1    3    3  501    0  0.19527713555E+03  0.19963486660E+03 -0.15168738005E+03  0.31779915182E+03  0.00000000000E+00 0.  1.
         21    1    1    2  502  501 -0.14372890720E+02 -0.44107318286E+01  0.21370872710E+02  0.26129461213E+02  0.00000000000E+00 0.  1.
<mgrwt>
<rscale>  1 0.30000000E+03</rscale>
<asrwt>0</asrwt>
<pdfrwt beam="1">  1        1 0.47280245E+00 0.30000000E+03</pdfrwt>
<pdfrwt beam="2">0</pdfrwt>
<totfact> 0.35936886E-01</totfact>
</mgrwt>
</event>
<event>
 6    1  0.5260809E-006  0.3000000E+03  0.7818608E-02  0.1093470E+00
          1   -1    0    0  502    0  0.00000000000E+00  0.00000000000E+00  0.11900316874E+03  0.11900316874E+03  0.00000000000E+00 0.  1.
         13   -1    0    0    0    0 -0.00000000000E+00 -0.00000000000E+00 -0.10000000000E+04  0.10000000000E+04  0.00000000000E+00 0.  1.
    9000005    2    1    2  501    0  0.32210116282E+02  0.71245919356E+01 -0.85602593363E+03  0.10776292986E+04  0.65377079683E+03 0.  0.
         13    1    3    3    0    0 -0.20337882923E+03  0.11398847908E+03 -0.77075501369E+03  0.80524506374E+03  0.00000000000E+00 0.  1.
          3    1    3    3  501    0  0.23558894551E+03 -0.10686388715E+03 -0.85270919943E+02  0.27238423488E+03  0.00000000000E+00 0.  1.
         21    1    1    2  502  501 -0.32210116282E+02 -0.71245919356E+01 -0.24970897623E+02  0.41373870127E+02  0.00000000000E+00 0. -1.
<mgrwt>
<rscale>  1 0.30000000E+03</rscale>
<asrwt>0</asrwt>
<pdfrwt beam="1">  1        1 0.43273971E+00 0.30000000E+03</pdfrwt>
<pdfrwt beam="2">0</pdfrwt>
<totfact> 0.66744586E-01</totfact>
</mgrwt>
</event>
<event>
 6    1  0.5260809E-006  0.3000000E+03  0.7818608E-02  0.1093470E+00
          1   -1    0    0  502    0  0.00000000000E+00  0.00000000000E+00  0.10231472549E+03  0.10231472549E+03  0.00000000000E+00 0.  1.
         13   -1    0    0    0    0 -0.00000000000E+00 -0.00000000000E+00 -0.10000000000E+04  0.10000000000E+04  0.00000000000E+00 0.  1.
    9000005    2    1    2  501    0  0.10596203316E+02 -0.16970486429E+01 -0.88630407125E+03  0.10866721142E+04  0.62865429106E+03 0.  0.
         13    1    3    3    0    0  0.31742109589E+03  0.97732961549E+01 -0.51273005696E+03  0.60311174814E+03  0.00000000000E+00 0.  1.
          1    1    3    3  501    0 -0.30682489258E+03 -0.11470344798E+02 -0.37357401429E+03  0.48356036611E+03  0.00000000000E+00 0.  1.
         21    1    1    2  502  501 -0.10596203316E+02  0.16970486429E+01 -0.11381203258E+02  0.15642611240E+02  0.00000000000E+00 0. -1.
<mgrwt>
<rscale>  1 0.30000000E+03</rscale>
<asrwt>0</asrwt>
<pdfrwt beam="1">  1        1 0.37205433E+00 0.30000000E+03</pdfrwt>
<pdfrwt beam="2">0</pdfrwt>
<totfact> 0.15048194E+00</totfact>
</mgrwt>
</event>
<event>
 6    1  0.5260809E-006  0.3000000E+03  0.7818608E-02  0.1093470E+00
          1   -1    0    0  502    0  0.00000000000E+00  0.00000000000E+00  0.11632930357E+03  0.11632930357E+03  0.00000000000E+00 0.  1.
         13   -1    0    0    0    0 -0.00000000000E+00 -0.00000000000E+00 -0.10000000000E+04  0.10000000000E+04  0.00000000000E+00 0.  1.
    9000005    2    1    2  501    0  0.35237891436E+01 -0.22047132705E+02 -0.88035537460E+03  0.10937575400E+04  0.64867671273E+03 0.  0.
         13    1    3    3    0    0  0.15311146215E+03 -0.28611868156E+03 -0.31588060971E+03  0.45286596182E+03  0.00000000000E+00 0.  1.
          3    1    3    3  501    0 -0.14958767301E+03  0.26407154885E+03 -0.56447476489E+03  0.64089157822E+03  0.00000000000E+00 0.  1.
         21    1    1    2  502  501 -0.35237891436E+01  0.22047132705E+02 -0.33153218242E+01  0.22571763539E+02  0.00000000000E+00 0.  1.
<mgrwt>
<rscale>  1 0.30000000E+03</rscale>
<asrwt>0</asrwt>
<pdfrwt beam="1">  1        1 0.42301654E+00 0.30000000E+03</pdfrwt>
<pdfrwt beam="2">0</pdfrwt>
<totfact> 0.76830979E-01</totfact>
</mgrwt>
</event>
<event>
 6    1  0.5260809E-006  0.3000000E+03  0.7818608E-02  0.1093470E+00
          1   -1    0    0  502    0  0.00000000000E+00  0.00000000000E+00  0.12092505927E+03  0.12092505927E+03  0.00000000000E+00 0.  1.
         13   -1    0    0    0    0 -0.00000000000E+00 -0.00000000000E+00 -0.10000000000E+04  0.10000000000E+04  0.00000000000E+00 0.  1.
    9000005    2    1    2  501    0 -0.37860565108E+02 -0.15949463032E+02 -0.80892524113E+03  0.10396306061E+04  0.65175451180E+03 0.  0.
         13    1    3    3    0    0  0.34692514230E+02 -0.29244213020E+03 -0.17088155928E+03  0.34047977526E+03  0.00000000000E+00 0.  1.
          1    1    3    3  501    0 -0.72553079339E+02  0.27649266717E+03 -0.63804368185E+03  0.69915083084E+03  0.00000000000E+00 0.  1.
         21    1    1    2  502  501  0.37860565108E+02  0.15949463032E+02 -0.70149699603E+02  0.81294453167E+02  0.00000000000E+00 0. -1.
<mgrwt>
<rscale>  1 0.30000000E+03</rscale>
<asrwt>0</asrwt>
<pdfrwt beam="1">  1        1 0.43972842E+00 0.30000000E+03</pdfrwt>
<pdfrwt beam="2">0</pdfrwt>
<totfact> 0.60188627E-01</totfact>
</mgrwt>
</event>
<event>
 6    1  0.5260809E-006  0.3000000E+03  0.7818608E-02  0.1093470E+00
          1   -1    0    0  502    0  0.00000000000E+00  0.00000000000E+00  0.11122424885E+03  0.11122424885E+03  0.00000000000E+00 0.  1.
         13   -1    0    0    0    0 -0.00000000000E+00 -0.00000000000E+00 -0.10000000000E+04  0.10000000000E+04  0.00000000000E+00 0.  1.
    9000005    2    1    2  501    0  0.17986650702E+02 -0.91139649576E+01 -0.88957422540E+03  0.10910445184E+04  0.63137093267E+03 0.  0.
         13    1    3    3    0    0  0.16241448860E+03  0.23207973021E+03 -0.20112009471E+03  0.34740287820E+03  0.00000000000E+00 0.  1.
          3    1    3    3  501    0 -0.14442783790E+03 -0.24119369517E+03 -0.68845413068E+03  0.74364164018E+03  0.00000000000E+00 0.  1.
         21    1    1    2  502  501 -0.17986650702E+02  0.91139649576E+01  0.79847424551E+00  0.20179730470E+02  0.00000000000E+00 0. -1.
<mgrwt>
<rscale>  1 0.30000000E+03</rscale>
<asrwt>0</asrwt>
<pdfrwt beam="1">  1        1 0.40445267E+00 0.30000000E+03</pdfrwt>
<pdfrwt beam="2">0</pdfrwt>
<totfact> 0.99290070E-01</totfact>
</mgrwt>
</event>
<event>
 6    1  0.5260809E-006  0.3000000E+03  0.7818608E-02  0.1093470E+00
          1   -1    0    0  502    0  0.00000000000E+00  0.00000000000E+00  0.13188860964E+03  0.13188860964E+03  0.00000000000E+00 0.  1.
         13   -1    0    0    0    0 -0.00000000000E+00 -0.00000000000E+00 -0.10000000000E+04  0.10000000000E+04  0.00000000000E+00 0.  1.
    9000005    2    1    2  501    0  0.71403630414E+02 -0.43603047629E+01 -0.82195262285E+03  0.10467527035E+04  0.64417980209E+03 0.  0.
         13    1    3    3    0    0 -0.16858306503E+03 -0.79987543200E+02  0.57643767811E+00  0.18659739859E+03  0.00000000000E+00 0.  1.
          1    1    3    3  501    0  0.23998669544E+03  0.75627238437E+02 -0.82252906053E+03  0.86015530493E+03  0.00000000000E+00 0.  1.
         21    1    1    2  502  501 -0.71403630414E+02  0.43603047629E+01 -0.46158767508E+02  0.85135906125E+02  0.00000000000E+00 0.  1.
<mgrwt>
<rscale>  1 0.30000000E+03</rscale>
<asrwt>0</asrwt>
<pdfrwt beam="1">  1        1 0.47959596E+00 0.30000000E+03</pdfrwt>
<pdfrwt beam="2">0</pdfrwt>
<totfact> 0.32153441E-01</totfact>
</mgrwt>
</event>
<event>
 6    1  0.5260809E-006  0.3000000E+03  0.7818608E-02  0.1093470E+00
          1   -1    0    0  502    0  0.00000000000E+00  0.00000000000E+00  0.11340115095E+03  0.11340115095E+03  0.00000000000E+00 0.  1.
         13   -1    0    0    0    0 -0.00000000000E+00 -0.00000000000E+00 -0.10000000000E+04  0.10000000000E+04  0.00000000000E+00 0.  1.
    9000005    2    1    2  501    0  0.33974331511E+01  0.10082019747E+02 -0.88897216124E+03  0.11025005874E+04  0.65201445703E+03 0.  0.
         13    1    3    3    0    0  0.93755698355E+02 -0.12582530629E+03 -0.92261663093E+03  0.93586515393E+03  0.00000000000E+00 0.  1.
          3    1    3    3  501    0 -0.90358265204E+02  0.13590732603E+03  0.33644469687E+02  0.16663543351E+03  0.00000000000E+00 0.  1.
         21    1    1    2  502  501 -0.33974331511E+01 -0.10082019747E+02  0.23733121930E+01  0.10900563516E+02  0.00000000000E+00 0. -1.
<mgrwt>
<rscale>  1 0.30000000E+03</rscale>
<asrwt>0</asrwt>
<pdfrwt beam="1">  1        1 0.41236869E+00 0.30000000E+03</pdfrwt>
<pdfrwt beam="2">0</pdfrwt>
<totfact> 0.89199280E-01</totfact>
</mgrwt>
</event>
<event>
 6    1  0.5260809E-006  0.3000000E+03  0.7818608E-02  0.1093470E+00
          1   -1    0    0  502    0  0.00000000000E+00  0.00000000000E+00  0.12925158337E+03  0.12925158337E+03  0.00000000000E+00 0.  1.
         13   -1    0    0    0    0 -0.00000000000E+00 -0.00000000000E+00 -0.10000000000E+04  0.10000000000E+04  0.00000000000E+00 0.  1.
    9000005    2    1    2  501    0 -0.61986014518E+02  0.12638080481E+02 -0.82860123292E+03  0.10532359786E+04  0.64708889369E+03 0.  0.
         13    1    3    3    0    0 -0.64767655942E+02  0.22852311539E+02  0.10178500633E+03  0.12278951467E+03  0.00000000000E+00 0.  1.
          3    1    3    3  501    0  0.27816414239E+01 -0.10214231058E+02 -0.93038623925E+03  0.93044646393E+03  0.00000000000E+00 0.  1.
         21    1    1    2  502  501  0.61986014518E+02 -0.12638080481E+02 -0.42147183710E+02  0.76015604772E+02  0.00000000000E+00 0.  1.
<mgrwt>
<rscale>  1 0.30000000E+03</rscale>
<asrwt>0</asrwt>
<pdfrwt beam="1">  1        1 0.47000675E+00 0.30000000E+03</pdfrwt>
<pdfrwt beam="2">0</pdfrwt>
<totfact> 0.37600834E-01</totfact>
</mgrwt>
</event>
<event>
 6    1  0.5260809E-006  0.3000000E+03  0.7818608E-02  0.1093470E+00
          1   -1    0    0  502    0  0.00000000000E+00  0.00000000000E+00  0.11564153697E+03  0.11564153697E+03  0.00000000000E+00 0.  1.
         13   -1    0    0    0    0 -0.00000000000E+00 -0.00000000000E+00 -0.10000000000E+04  0.10000000000E+04  0.00000000000E+00 0.  1.
    9000005    2    1    2  501    0  0.72952041974E+02  0.49921001577E+02 -0.85061443490E+03  0.10210224783E+04  0.55778838060E+03 0.  0.
         13    1    3    3    0    0  0.65725209627E+02 -0.23484883596E+03 -0.21748958510E+03  0.32676520402E+03  0.00000000000E+00 0.  1.
          3    1    3    3  501    0  0.72268323477E+01  0.28476983753E+03 -0.63312484979E+03  0.69425727429E+03  0.00000000000E+00 0.  1.
         21    1    1    2  502  501 -0.72952041974E+02 -0.49921001577E+02 -0.33744028133E+02  0.94619058658E+02  0.00000000000E+00 0. -1.
<mgrwt>
<rscale>  1 0.30000000E+03</rscale>
<asrwt>0</asrwt>
<pdfrwt beam="1">  1        1 0.42051557E+00 0.30000000E+03</pdfrwt>
<pdfrwt beam="2">0</pdfrwt>
<totfact> 0.79618754E-01</totfact>
</mgrwt>
</event>
<event>
 6    1  0.5260809E-006  0.3000000E+03  0.7818608E-02  0.1093470E+00
          1   -1    0    0  502    0  0.00000000000E+00  0.00000000000E+00  0.11754372244E+03  0.11754372244E+03  0.00000000000E+00 0.  1.
         13   -1    0    0    0    0 -0.00000000000E+00 -0.00000000000E+00 -0.10000000000E+04  0.10000000000E+04  0.00000000000E+00 0.  1.
    9000005    2    1    2  501    0  0.16403305912E+02 -0.12700763830E+02 -0.87603768190E+03  0.10958279167E+04  0.65800184283E+03 0.  0.
         13    1    3    3    0    0  0.25103383879E+03  0.17953773364E+02 -0.81283782979E+03  0.85090872821E+03  0.00000000000E+00 0.  1.
          1    1    3    3  501    0 -0.23463053288E+03 -0.30654537194E+02 -0.63199852107E+02  0.24491918854E+03  0.00000000000E+00 0.  1.
         21    1    1    2  502  501 -0.16403305912E+02  0.12700763830E+02 -0.64185956566E+01  0.21715805693E+02  0.00000000000E+00 0.  1.
<mgrwt>
<rscale>  1 0.30000000E+03</rscale>
<asrwt>0</asrwt>
<pdfrwt beam="1">  1        1 0.42743262E+00 0.30000000E+03</pdfrwt>
<pdfrwt beam="2">0</pdfrwt>
<totfact> 0.72099301E-01</totfact>
</mgrwt>
</event>
<event>
 6    1  0.5260809E-006  0.3000000E+03  0.7818608E-02  0.1093470E+00
          1   -1    0    0  502    0  0.00000000000E+00  0.00000000000E+00  0.13855578303E+03  0.13855578303E+03  0.00000000000E+00 0.  1.
         13   -1    0    0    0    0 -0.00000000000E+00 -0.00000000000E+00 -0.10000000000E+04  0.10000000000E+04  0.00000000000E+00 0.  1.
    9000005    2    1    2  501    0  0.31996948397E+02  0.14761286034E+00 -0.88434067323E+03  0.10992102089E+04  0.65205891640E+03 0.  0.
         13    1    3    3    0    0 -0.22557415607E+03 -0.17556006549E+03 -0.20505590224E+03  0.35178538845E+03  0.00000000000E+00 0.  1.
          3    1    3    3  501    0  0.25757110446E+03  0.17570767835E+03 -0.67928477099E+03  0.74742482043E+03  0.00000000000E+00 0.  1.
         21    1    1    2  502  501 -0.31996948397E+02 -0.14761286034E+00  0.22896456259E+02  0.39345574153E+02  0.00000000000E+00 0.  1.
<mgrwt>
<rscale>  1 0.30000000E+03</rscale>
<asrwt>0</asrwt>
<pdfrwt beam="1">  1        1 0.50384027E+00 0.30000000E+03</pdfrwt>
<pdfrwt beam="2">0</pdfrwt>
<totfact> 0.21402234E-01</totfact>
</mgrwt>
</event>
<event>
 6    1  0.5260809E-006  0.3000000E+03  0.7818608E-02  0.1093470E+00
          1   -1    0    0  502    0  0.00000000000E+00  0.00000000000E+00  0.11560489552E+03  0.11560489552E+03  0.00000000000E+00 0.  1.
         13   -1    0    0    0    0 -0.00000000000E+00 -0.00000000000E+00 -0.10000000000E+04  0.10000000000E+04  0.00000000000E+00 0.  1.
    9000005    2    1    2  501    0  0.10919745857E+02  0.86892075625E+01 -0.88736826747E+03  0.11013366484E+04  0.65216963117E+03 0.  0.
         13    1    3    3    0    0  0.15812189595E+03 -0.33844264989E+02  0.35733591709E+02  0.16560452236E+03  0.00000000000E+00 0.  1.
          1    1    3    3  501    0 -0.14720215009E+03  0.42533472552E+02 -0.92310185918E+03  0.93573212604E+03  0.00000000000E+00 0.  1.
         21    1    1    2  502  501 -0.10919745857E+02 -0.86892075625E+01  0.29731629865E+01  0.14268247117E+02  0.00000000000E+00 0.  1.
<mgrwt>
<rscale>  1 0.30000000E+03</rscale>
<asrwt>0</asrwt>
<pdfrwt beam="1">  1        1 0.42038232E+00 0.30000000E+03</pdfrwt>
<pdfrwt beam="2">0</pdfrwt>
<totfact> 0.79769362E-01</totfact>
</mgrwt>
</event>
<event>
 6    1  0.5260809E-006  0.3000000E+03  0.7818608E-02  0.1093470E+00
          1   -1    0    0  502    0  0.00000000000E+00  0.00000000000E+00  0.14718562486E+03  0.14718562486E+03  0.00000000000E+00 0.  1.
         13   -1    0    0    0    0 -0.00000000000E+00 -0.00000000000E+00 -0.10000000000E+04  0.10000000000E+04  0.00000000000E+00 0.  1.
    9000005    2    1    2  501    0 -0.84095598861E+02 -0.29129393080E+02 -0.82848420058E+03  0.10549221506E+04  0.64695755805E+03 0.  0.
         13    1    3    3    0    0  0.40254970644E+02 -0.31772103609E+02 -0.90659892073E+03  0.90804819933E+03  0.00000000000E+00 0.  1.
          1    1    3    3  501    0 -0.12435056951E+03  0.26427105297E+01  0.78114720153E+02  0.14687395126E+03  0.00000000000E+00 0.  1.
         21    1    1    2  502  501  0.84095598861E+02  0.29129393080E+02 -0.24330174561E+02  0.92263474264E+02  0.00000000000E+00 0.  1.
<mgrwt>
<rscale>  1 0.30000000E+03</rscale>
<asrwt>0</asrwt>
<pdfrwt beam="1">  1        1 0.53522158E+00 0.30000000E+03</pdfrwt>
<pdfrwt beam="2">0</pdfrwt>
<totfact> 0.12462501E-01</totfact>
</mgrwt>
</event>
<event>
 6    1  0.5260809E-006  0.3000000E+03  0.7818608E-02  0.1093470E+00
          1   -1    0    0  502    0  0.00000000000E+00  0.00000000000E+00  0.80712071232E+02  0.80712071232E+02  0.00000000000E+00 0.  1.
         13   -1    0    0    0    0 -0.00000000000E+00 -0.00000000000E+00 -0.10000000000E+04  0.10000000000E+04  0.00000000000E+00 0.  1.
    9000005    2    1    2  501    0 -0.10042521294E+02 -0.60001194938E+01 -0.90224880567E+03  0.10600436077E+04  0.55632965881E+03 0.  0.
         13    1    3    3    0    0  0.16207377767E+03 -0.62338542789E+02 -0.38963457025E+02  0.17796672247E+03  0.00000000000E+00 0.  1.
          1    1    3    3  501    0 -0.17211629896E+03  0.56338423295E+02 -0.86328534864E+03  0.88207688525E+03  0.00000000000E+00 0.  1.
         21    1    1    2  502  501  0.10042521294E+02  0.60001194938E+01 -0.17039123103E+02  0.20668463513E+02  0.00000000000E+00 0. -1.
<mgrwt>
<rscale>  1 0.30000000E+03</rscale>
<asrwt>0</asrwt>
<pdfrwt beam="1">  1        1 0.29349906E+00 0.30000000E+03</pdfrwt>
<pdfrwt beam="2">0</pdfrwt>
<totfact> 0.37296657E+00</totfact>
</mgrwt>
</event>
<event>
 6    1  0.5260809E-006  0.3000000E+03  0.7818608E-02  0.1093470E+00
          1   -1    0    0  502    0  0.00000000000E+00  0.00000000000E+00  0.13077104356E+03  0.13077104356E+03  0.00000000000E+00 0.  1.
         13   -1    0    0    0    0 -0.00000000000E+00 -0.00000000000E+00 -0.10000000000E+04  0.10000000000E+04  0.00000000000E+00 0.  1.
    9000005    2    1    2  501    0 -0.75042701145E+01 -0.70513405319E+02 -0.77197780655E+03  0.10104122443E+04  0.64803913097E+03 0.  0.
         13    1    3    3    0    0 -0.32538207740E+03 -0.56161207625E+02 -0.44541518528E+03  0.55445672944E+03  0.00000000000E+00 0.  1.
          3    1    3    3  501    0  0.31787780729E+03 -0.14352197694E+02 -0.32656262127E+03  0.45595551488E+03  0.00000000000E+00 0.  1.
         21    1    1    2  502  501  0.75042701145E+01  0.70513405319E+02 -0.97251149889E+02  0.12035879924E+03  0.00000000000E+00 0. -1.
<mgrwt>
<rscale>  1 0.30000000E+03</rscale>
<asrwt>0</asrwt>
<pdfrwt beam="1">  1        1 0.47553207E+00 0.30000000E+03</pdfrwt>
<pdfrwt beam="2">0</pdfrwt>
<totfact> 0.34372864E-01</totfact>
</mgrwt>
</event>
<event>
 6    1  0.5260809E-006  0.3000000E+03  0.7818608E-02  0.1093470E+00
          1   -1    0    0  502    0  0.00000000000E+00  0.00000000000E+00  0.12626716563E+03  0.12626716563E+03  0.00000000000E+00 0.  1.
         13   -1    0    0    0    0 -0.00000000000E+00 -0.00000000000E+00 -0.10000000000E+04  0.10000000000E+04  0.00000000000E+00 0.  1.
    9000005    2    1    2  501    0  0.14102377608E+02 -0.12245745719E+02 -0.89102505312E+03  0.11008141467E+04  0.64615579002E+03 0.  0.
         13    1    3    3    0    0 -0.15431031541E+03 -0.28597630641E+03 -0.43911586723E+03  0.54627544895E+03  0.00000000000E+00 0.  1.
          3    1    3    3  501    0  0.16841269302E+03  0.27373056069E+03 -0.45190918589E+03  0.55453869777E+03  0.00000000000E+00 0.  1.
         21    1    1    2  502  501 -0.14102377608E+02  0.12245745719E+02  0.17292218752E+02  0.25453018913E+02  0.00000000000E+00 0.  1.
<mgrwt>
<rscale>  1 0.30000000E+03</rscale>
<asrwt>0</asrwt>
<pdfrwt beam="1">  1        1 0.45915430E+00 0.30000000E+03</pdfrwt>
<pdfrwt beam="2">0</pdfrwt>
<totfact> 0.44653343E-01</totfact>
</mgrwt>
</event>
<event>
 6    1  0.5260809E-006  0.3000000E+03  0.7818608E-02  0.1093470E+00
          1   -1    0    0  502    0  0.00000000000E+00  0.00000000000E+00  0.11448398858E+03  0.11448398858E+03  0.00000000000E+00 0.  1.
         13   -1    0    0    0    0 -0.00000000000E+00 -0.00000000000E+00 -0.10000000000E+04  0.10000000000E+04  0.00000000000E+00 0.  1.
    9000005    2    1    2  501    0  0.14425368491E+01 -0.10614371099E+02 -0.86915088656E+03  0.10949247683E+04  0.66582448049E+03 0.  0.
         13    1    3    3    0    0  0.98098834463E+02  0.18654633364E+03 -0.84860449544E+03  0.87438693129E+03  0.00000000000E+00 0.  1.
          1    1    3    3  501    0 -0.96656297614E+02 -0.19716070474E+03 -0.20546391117E+02  0.22053783700E+03  0.00000000000E+00 0.  1.
         21    1    1    2  502  501 -0.14425368491E+01  0.10614371099E+02 -0.16365124863E+02  0.19559220285E+02  0.00000000000E+00 0. -1.
<mgrwt>
<rscale>  1 0.30000000E+03</rscale>
<asrwt>0</asrwt>
<pdfrwt beam="1">  1        1 0.41630629E+00 0.30000000E+03</pdfrwt>
<pdfrwt beam="2">0</pdfrwt>
<totfact> 0.84473329E-01</totfact>
</mgrwt>
</event>
<event>
 6    1  0.5260809E-006  0.3000000E+03  0.7818608E-02  0.1093470E+00
          1   -1    0    0  502    0  0.00000000000E+00  0.00000000000E+00  0.11851327761E+03  0.11851327761E+03  0.00000000000E+00 0.  1.
         13   -1    0    0    0    0 -0.00000000000E+00 -0.00000000000E+00 -0.10000000000E+04  0.10000000000E+04  0.00000000000E+00 0.  1.
    9000005    2    1    2  501    0 -0.21609040813E+02  0.16998622356E+02 -0.85533429076E+03  0.10805678762E+04  0.65975319805E+03 0.  0.
         13    1    3    3    0    0  0.15324953958E+03  0.17432021050E+03 -0.44534551819E+02  0.23633933967E+03  0.00000000000E+00 0.  1.
          1    1    3    3  501    0 -0.17485858039E+03 -0.15732158815E+03 -0.81079973894E+03  0.84422853654E+03  0.00000000000E+00 0.  1.
         21    1    1    2  502  501  0.21609040813E+02 -0.16998622356E+02 -0.26152431634E+02  0.37945401397E+02  0.00000000000E+00 0. -1.
<mgrwt>
<rscale>  1 0.30000000E+03</rscale>
<asrwt>0</asrwt>
<pdfrwt beam="1">  1        1 0.43095828E+00 0.30000000E+03</pdfrwt>
<pdfrwt beam="2">0</pdfrwt>
<totfact> 0.68503650E-01</totfact>
</mgrwt>
</event>
<event>
 6    1  0.5260809E-006  0.3000000E+03  0.7818608E-02  0.1093470E+00
          1   -1    0    0  502    0  0.00000000000E+00  0.00000000000E+00  0.15247966522E+03  0.15247966522E+03  0.00000000000E+00 0.  1.
         13   -1    0    0    0    0 -0.00000000000E+00 -0.00000000000E+00 -0.10000000000E+04  0.10000000000E+04  0.00000000000E+00 0.  1.
    9000005    2    1    2  501    0  0.33958357041E+01  0.16919882487E+02 -0.88820084809E+03  0.11082900931E+04  0.66265252564E+03 0.  0.
         13    1    3    3    0    0  0.36038362336E+02  0.32682013958E+03 -0.31224159815E+03  0.45343685648E+03  0.00000000000E+00 0.  1.
          3    1    3    3  501    0 -0.32642526632E+02 -0.30990025710E+03 -0.57595924994E+03  0.65485323660E+03  0.00000000000E+00 0.  1.
         21    1    1    2  502  501 -0.33958357041E+01 -0.16919882487E+02  0.40680513305E+02  0.44189572143E+02  0.00000000000E+00 0. -1.
<mgrwt>
<rscale>  1 0.30000000E+03</rscale>
<asrwt>0</asrwt>
<pdfrwt beam="1">  1        1 0.55447268E+00 0.30000000E+03</pdfrwt>
<pdfrwt beam="2">0</pdfrwt>
<totfact> 0.92474363E-02</totfact>
</mgrwt>
</event>
<event>
 6    1  0.5260809E-006  0.3000000E+03  0.7818608E-02  0.1093470E+00
          1   -1    0    0  502    0  0.00000000000E+00  0.00000000000E+00  0.11794276279E+03  0.11794276279E+03  0.00000000000E+00 0.  1.
         13   -1    0    0    0    0 -0.00000000000E+00 -0.00000000000E+00 -0.10000000000E+04  0.10000000000E+04  0.00000000000E+00 0.  1.
    9000005    2    1    2  501    0 -0.21899970363E+02  0.20251994312E+02 -0.87678188809E+03  0.10876511586E+04  0.64292208824E+03 0.  0.
         13    1    3    3    0    0 -0.20621649536E+03 -0.96371764284E+02 -0.83513095895E+03  0.86559602501E+03  0.00000000000E+00 0.  1.
          3    1    3    3  501    0  0.18431652500E+03  0.11662375860E+03 -0.41650929141E+02  0.22205513359E+03  0.00000000000E+00 0.  1.
         21    1    1    2  502  501  0.21899970363E+02 -0.20251994312E+02 -0.52753491203E+01  0.30291604181E+02  0.00000000000E+00 0. -1.
<mgrwt>
<rscale>  1 0.30000000E+03</rscale>
<asrwt>0</asrwt>
<pdfrwt beam="1">  1        1 0.42888368E+00 0.30000000E+03</pdfrwt>
<pdfrwt beam="2">0</pdfrwt>
<totfact> 0.70600449E-01</totfact>
</mgrwt>
</event>
<event>
 6    1  0.5260809E-006  0.3000000E+03  0.7818608E-02  0.1093470E+00
          1   -1    0    0  502    0  0.00000000000E+00  0.00000000000E+00  0.13026413374E+03  0.13026413374E+03  0.00000000000E+00 0.  1.
         13   -1    0    0    0    0 -0.00000000000E+00 -0.00000000000E+00 -0.10000000000E+04  0.10000000000E+04  0.00000000000E+00 0.  1.
    9000005    2    1    2  501    0 -0.19105811726E+02  0.17200980746E+01 -0.89030698959E+03  0.11021365335E+04  0.64937694140E+03 0.  0.
         13    1    3    3    0    0  0.42967693356E+02 -0.31870888323E+03 -0.48150389020E+03  0.57902294531E+03  0.00000000000E+00 0.  1.
          1    1    3    3  501    0 -0.62073505082E+02  0.32042898130E+03 -0.40880309939E+03  0.52311358821E+03  0.00000000000E+00 0.  1.
         21    1    1    2  502  501  0.19105811726E+02 -0.17200980746E+01  0.20571123332E+02  0.28127600222E+02  0.00000000000E+00 0.  1.
<mgrwt>
<rscale>  1 0.30000000E+03</rscale>
<asrwt>0</asrwt>
<pdfrwt beam="1">  1        1 0.47368876E+00 0.30000000E+03</pdfrwt>
<pdfrwt beam="2">0</pdfrwt>
<totfact> 0.35422497E-01</totfact>
</mgrwt>
</event>
<event>
 6    1  0.5260809E-006  0.3000000E+03  0.7818608E-02  0.1093470E+00
          1   -1    0    0  502    0  0.00000000000E+00  0.00000000000E+00  0.11132140900E+03  0.11132140900E+03  0.00000000000E+00 0.  1.
         13   -1    0    0    0    0 -0.00000000000E+00 -0.00000000000E+00 -0.10000000000E+04  0.10000000000E+04  0.00000000000E+00 0.  1.
    9000005    2    1    2  501    0 -0.12437886210E+02  0.10898418550E+01 -0.88700521119E+03  0.10987242280E+04  0.64827524693E+03 0.  0.
         13    1    3    3    0    0 -0.61374069902E+02 -0.29872726289E+02  0.93912946451E+02  0.11609822455E+03  0.00000000000E+00 0.  1.
          1    1    3    3  501    0  0.48936183692E+02  0.30962568144E+02 -0.98091815764E+03  0.98262600347E+03  0.00000000000E+00 0.  1.
         21    1    1    2  502  501  0.12437886210E+02 -0.10898418550E+01 -0.16733798159E+01  0.12597180980E+02  0.00000000000E+00 0.  1.
<mgrwt>
<rscale>  1 0.30000000E+03</rscale>
<asrwt>0</asrwt>
<pdfrwt beam="1">  1        1 0.40480598E+00 0.30000000E+03</pdfrwt>
<pdfrwt beam="2">0</pdfrwt>
<totfact> 0.98822515E-01</totfact>
</mgrwt>
</event>
<event>
 6    1  0.5260809E-006  0.3000000E+03  0.7818608E-02  0.1093470E+00
          1   -1    0    0  502    0  0.00000000000E+00  0.00000000000E+00  0.11985420722E+03  0.11985420722E+03  0.00000000000E+00 0.  1.
         13   -1    0    0    0    0 -0.00000000000E+00 -0.00000000000E+00 -0.10000000000E+04  0.10000000000E+04  0.00000000000E+00 0.  1.
    9000005    2    1    2  501    0  0.16957756408E+02 -0.97578964550E+01 -0.88555699677E+03  0.10995548680E+04  0.65148056846E+03 0.  0.
         13    1    3    3    0    0  0.18551617264E+03  0.19192550359E+02  0.11000741293E+02  0.18683045954E+03  0.00000000000E+00 0.  1.
          3    1    3    3  501    0 -0.16855841624E+03 -0.28950446814E+02 -0.89655773806E+03  0.91272440842E+03  0.00000000000E+00 0.  1.
         21    1    1    2  502  501 -0.16957756408E+02  0.97578964550E+01  0.54112039855E+01  0.20299339255E+02  0.00000000000E+00 0.  1.
<mgrwt>
<rscale>  1 0.30000000E+03</rscale>
<asrwt>0</asrwt>
<pdfrwt beam="1">  1        1 0.43583440E+00 0.30000000E+03</pdfrwt>
<pdfrwt beam="2">0</pdfrwt>
<totfact> 0.63775794E-01</totfact>
</mgrwt>
</event>
<event>
 6    1  0.5260809E-006  0.3000000E+03  0.7818608E-02  0.1093470E+00
          1   -1    0    0  502    0  0.00000000000E+00  0.00000000000E+00  0.10967160830E+03  0.10967160830E+03  0.00000000000E+00 0.  1.
         13   -1    0    0    0    0 -0.00000000000E+00 -0.00000000000E+00 -0.10000000000E+04  0.10000000000E+04  0.00000000000E+00 0.  1.
    9000005    2    1    2  501    0 -0.15263189756E+02  0.15177962685E+00 -0.86638524299E+03  0.10812768488E+04  0.64676367122E+03 0.  0.
         13    1    3    3    0    0  0.47223570302E+02  0.35307130900E+02  0.97924166559E+02  0.11430573687E+03  0.00000000000E+00 0.  1.
          3    1    3    3  501    0 -0.62486760058E+02 -0.35155351273E+02 -0.96430940954E+03  0.96697111190E+03  0.00000000000E+00 0.  1.
         21    1    1    2  502  501  0.15263189756E+02 -0.15177962685E+00 -0.23943148717E+02  0.28394759535E+02  0.00000000000E+00 0.  1.
<mgrwt>
<rscale>  1 0.30000000E+03</rscale>
<asrwt>0</asrwt>
<pdfrwt beam="1">  1        1 0.39880669E+00 0.30000000E+03</pdfrwt>
<pdfrwt beam="2">0</pdfrwt>
<totfact> 0.10697699E+00</totfact>
</mgrwt>
</event>
<event>
 6    1  0.5260809E-006  0.3000000E+03  0.7818608E-02  0.1093470E+00
          1   -1    0    0  502    0  0.00000000000E+00  0.00000000000E+00  0.12020680683E+03  0.12020680683E+03  0.00000000000E+00 0.  1.
         13   -1    0    0    0    0 -0.00000000000E+00 -0.00000000000E+00 -0.10000000000E+04  0.10000000000E+04  0.00000000000E+00 0.  1.
    9000005    2    1    2  501    0 -0.15888161925E+02 -0.10517769559E+02 -0.88540576603E+03  0.11003433192E+04  0.65303062138E+03 0.  0.
         13    1    3    3    0    0  0.28030241426E+03 -0.85386230630E+02 -0.65544468931E+03  0.71796099655E+03  0.00000000000E+00 0.  1.
          1    1    3    3  501    0 -0.29619057618E+03  0.74868461071E+02 -0.22996107672E+03  0.38238232267E+03  0.00000000000E+00 0.  1.
         21    1    1    2  502  501  0.15888161925E+02  0.10517769559E+02  0.56125728597E+01  0.19863487609E+02  0.00000000000E+00 0. -1.
<mgrwt>
<rscale>  1 0.30000000E+03</rscale>
<asrwt>0</asrwt>
<pdfrwt beam="1">  1        1 0.43711658E+00 0.30000000E+03</pdfrwt>
<pdfrwt beam="2">0</pdfrwt>
<totfact> 0.62576894E-01</totfact>
</mgrwt>
</event>
<event>
 6    1  0.5260809E-006  0.3000000E+03  0.7818608E-02  0.1093470E+00
          1   -1    0    0  502    0  0.00000000000E+00  0.00000000000E+00  0.90235483929E+02  0.90235483929E+02  0.00000000000E+00 0.  1.
         13   -1    0    0    0    0 -0.00000000000E+00 -0.00000000000E+00 -0.10000000000E+04  0.10000000000E+04  0.00000000000E+00 0.  1.
    9000005    2    1    2  501    0  0.74602591715E+01  0.79486577007E+01 -0.92593690271E+03  0.10707320813E+04  0.53757716229E+03 0.  0.
         13    1    3    3    0    0  0.91542600170E+02 -0.63936847588E+02  0.24137482841E+02  0.11423916230E+03  0.00000000000E+00 0.  1.
          3    1    3    3  501    0 -0.84082340999E+02  0.71885505289E+02 -0.95007438555E+03  0.95649291896E+03  0.00000000000E+00 0.  1.
         21    1    1    2  502  501 -0.74602591715E+01 -0.79486577007E+01  0.16172386637E+02  0.19503402669E+02  0.00000000000E+00 0.  1.
<mgrwt>
<rscale>  1 0.30000000E+03</rscale>
<asrwt>0</asrwt>
<pdfrwt beam="1">  1        1 0.32812972E+00 0.30000000E+03</pdfrwt>
<pdfrwt beam="2">0</pdfrwt>
<totfact> 0.25399663E+00</totfact>
</mgrwt>
</event>
<event>
 6    1  0.5260809E-006  0.3000000E+03  0.7818608E-02  0.1093470E+00
          1   -1    0    0  502    0  0.00000000000E+00  0.00000000000E+00  0.11734957087E+03  0.11734957087E+03  0.00000000000E+00 0.  1.
         13   -1    0    0    0    0 -0.00000000000E+00 -0.00000000000E+00 -0.10000000000E+04  0.10000000000E+04  0.00000000000E+00 0.  1.
    9000005    2    1    2  501    0  0.51723851630E+02 -0.46342223440E+01 -0.82087235622E+03  0.10366441613E+04  0.63095392785E+03 0.  0.
         13    1    3    3    0    0 -0.44127046150E+02  0.78792395799E+02  0.83735594688E+02  0.12315473054E+03  0.00000000000E+00 0.  1.
          1    1    3    3  501    0  0.95850897781E+02 -0.83426618143E+02 -0.90460795091E+03  0.91348943074E+03  0.00000000000E+00 0.  1.
         21    1    1    2  502  501 -0.51723851630E+02  0.46342223440E+01 -0.61778072909E+02  0.80705409587E+02  0.00000000000E+00 0. -1.
<mgrwt>
<rscale>  1 0.30000000E+03</rscale>
<asrwt>0</asrwt>
<pdfrwt beam="1">  1        1 0.42672661E+00 0.30000000E+03</pdfrwt>
<pdfrwt beam="2">0</pdfrwt>
<totfact> 0.72838738E-01</totfact>
</mgrwt>
</event>
<event>
 6    1  0.5260809E-006  0.3000000E+03  0.7818608E-02  0.1093470E+00
          1   -1    0    0  502    0  0.00000000000E+00  0.00000000000E+00  0.11525684830E+03  0.11525684830E+03  0.00000000000E+00 0.  1.
         13   -1    0    0    0    0 -0.00000000000E+00 -0.00000000000E+00 -0.10000000000E+04  0.10000000000E+04  0.00000000000E+00 0.  1.
    9000005    2    1    2  501    0  0.30378612336E+02  0.68821021528E+01 -0.85647875435E+03  0.10731961829E+04  0.64592876300E+03 0.  0.
         13    1    3    3    0    0  0.68730003444E+02  0.30083970031E+03 -0.62516688745E+03  0.69718145114E+03  0.00000000000E+00 0.  1.
          1    1    3    3  501    0 -0.38351391108E+02 -0.29395759816E+03 -0.23131186690E+03  0.37601473173E+03  0.00000000000E+00 0.  1.
         21    1    1    2  502  501 -0.30378612336E+02 -0.68821021528E+01 -0.28264397357E+02  0.42060665419E+02  0.00000000000E+00 0. -1.
<mgrwt>
<rscale>  1 0.30000000E+03</rscale>
<asrwt>0</asrwt>
<pdfrwt beam="1">  1        1 0.41911670E+00 0.30000000E+03</pdfrwt>
<pdfrwt beam="2">0</pdfrwt>
<totfact> 0.81210162E-01</totfact>
</mgrwt>
</event>
<event>
 6    1  0.5260809E-006  0.3000000E+03  0.7818608E-02  0.1093470E+00
          1   -1    0    0  502    0  0.00000000000E+00  0.00000000000E+00  0.10236349022E+03  0.10236349022E+03  0.00000000000E+00 0.  1.
         13   -1    0    0    0    0 -0.00000000000E+00 -0.00000000000E+00 -0.10000000000E+04  0.10000000000E+04  0.00000000000E+00 0.  1.
    9000005    2    1    2  501    0  0.20348918998E+02 -0.14615210764E+02 -0.89407202090E+03  0.10770575923E+04  0.60005049423E+03 0.  0.
         13    1    3    3    0    0 -0.19210051844E+02  0.62399780090E+02 -0.96372687773E+03  0.96593594690E+03  0.00000000000E+00 0.  1.
          1    1    3    3  501    0  0.39558970842E+02 -0.77014990854E+02  0.69654856832E+02  0.11112164537E+03  0.00000000000E+00 0.  1.
         21    1    1    2  502  501 -0.20348918998E+02  0.14615210764E+02 -0.35644888739E+01  0.25305897949E+02  0.00000000000E+00 0.  1.
<mgrwt>
<rscale>  1 0.30000000E+03</rscale>
<asrwt>0</asrwt>
<pdfrwt beam="1">  1        1 0.37223166E+00 0.30000000E+03</pdfrwt>
<pdfrwt beam="2">0</pdfrwt>
<totfact> 0.15015072E+00</totfact>
</mgrwt>
</event>
<event>
 6    1  0.5260809E-006  0.3000000E+03  0.7818608E-02  0.1093470E+00
          1   -1    0    0  502    0  0.00000000000E+00  0.00000000000E+00  0.11344674406E+03  0.11344674406E+03  0.00000000000E+00 0.  1.
         13   -1    0    0    0    0 -0.00000000000E+00 -0.00000000000E+00 -0.10000000000E+04  0.10000000000E+04  0.00000000000E+00 0.  1.
    9000005    2    1    2  501    0  0.34301177404E+02  0.80031246111E+00 -0.87133519850E+03  0.10759127522E+04  0.63022695194E+03 0.  0.
         13    1    3    3    0    0 -0.11765994114E+03  0.24812683064E+03 -0.66587355240E+03  0.72027659522E+03  0.00000000000E+00 0.  1.
          1    1    3    3  501    0  0.15196111854E+03 -0.24732651818E+03 -0.20546164610E+03  0.35563615700E+03  0.00000000000E+00 0.  1.
         21    1    1    2  502  501 -0.34301177404E+02 -0.80031246111E+00 -0.15218057445E+02  0.37533991844E+02  0.00000000000E+00 0.  1.
<mgrwt>
<rscale>  1 0.30000000E+03</rscale>
<asrwt>0</asrwt>
<pdfrwt beam="1">  1        1 0.41253448E+00 0.30000000E+03</pdfrwt>
<pdfrwt beam="2">0</pdfrwt>
<totfact> 0.88996424E-01</totfact>
</mgrwt>
</event>
<event>
 6    1  0.5260809E-006  0.3000000E+03  0.7818608E-02  0.1093470E+00
          1   -1    0    0  502    0  0.00000000000E+00  0.00000000000E+00  0.11276107586E+03  0.11276107586E+03  0.00000000000E+00 0.  1.
         13   -1    0    0    0    0 -0.00000000000E+00 -0.00000000000E+00 -0.10000000000E+04  0.10000000000E+04  0.00000000000E+00 0.  1.
    9000005    2    1    2  501    0 -0.86270771021E+01 -0.53919848143E+01 -0.89012132628E+03  0.11021871361E+04  0.64992077022E+03 0.  0.
         13    1    3    3    0    0  0.36025825222E+02  0.16704445789E+03  0.22486776980E+02  0.17235824939E+03  0.00000000000E+00 0.  1.
          1    1    3    3  501    0 -0.44652902324E+02 -0.17243644270E+03 -0.91260810326E+03  0.92982888673E+03  0.00000000000E+00 0.  1.
         21    1    1    2  502  501  0.86270771021E+01  0.53919848143E+01  0.28824021461E+01  0.10573939743E+02  0.00000000000E+00 0. -1.
<mgrwt>
<rscale>  1 0.30000000E+03</rscale>
<asrwt>0</asrwt>
<pdfrwt beam="1">  1        1 0.41004114E+00 0.30000000E+03</pdfrwt>
<pdfrwt beam="2">0</pdfrwt>
<totfact> 0.92083494E-01</totfact>
</mgrwt>
</event>
<event>
 6    1  0.5260809E-006  0.3000000E+03  0.7818608E-02  0.1093470E+00
          1   -1    0    0  502    0  0.00000000000E+00  0.00000000000E+00  0.11442542882E+03  0.11442542882E+03  0.00000000000E+00 0.  1.
         13   -1    0    0    0    0 -0.00000000000E+00 -0.00000000000E+00 -0.10000000000E+04  0.10000000000E+04  0.00000000000E+00 0.  1.
    9000005    2    1    2  501    0 -0.97073105009E+01  0.13559272223E+01 -0.88774819107E+03  0.11043857556E+04  0.65686754822E+03 0.  0.
         13    1    3    3    0    0 -0.98306409279E+01  0.97100072284E+02  0.83492666908E+02  0.12843710899E+03  0.00000000000E+00 0.  1.
          3    1    3    3  501    0  0.12333042697E+00 -0.95744145062E+02 -0.97124085798E+03  0.97594864656E+03  0.00000000000E+00 0.  1.
         21    1    1    2  502  501  0.97073105009E+01 -0.13559272223E+01  0.21736198853E+01  0.10039673262E+02  0.00000000000E+00 0.  1.
<mgrwt>
<rscale>  1 0.30000000E+03</rscale>
<asrwt>0</asrwt>
<pdfrwt beam="1">  1        1 0.41609335E+00 0.30000000E+03</pdfrwt>
<pdfrwt beam="2">0</pdfrwt>
<totfact> 0.84724042E-01</totfact>
</mgrwt>
</event>
<event>
 6    1  0.5260809E-006  0.3000000E+03  0.7818608E-02  0.1093470E+00
          1   -1    0    0  502    0  0.00000000000E+00  0.00000000000E+00  0.10892088396E+03  0.10892088396E+03  0.00000000000E+00 0.  1.
         13   -1    0    0    0    0 -0.00000000000E+00 -0.00000000000E+00 -0.10000000000E+04  0.10000000000E+04  0.00000000000E+00 0.  1.
    9000005    2    1    2  501    0  0.85893857433E+01 -0.32641168517E+01 -0.88221574602E+03  0.10961540780E+04  0.65051111304E+03 0.  0.
         13    1    3    3    0    0  0.32299252808E+03 -0.52328609574E+02 -0.37824989707E+03  0.50013542287E+03  0.00000000000E+00 0.  1.
          3    1    3    3  501    0 -0.31440314234E+03  0.49064492722E+02 -0.50396584895E+03  0.59601865513E+03  0.00000000000E+00 0.  1.
         21    1    1    2  502  501 -0.85893857433E+01  0.32641168517E+01 -0.88633700213E+01  0.12766805959E+02  0.00000000000E+00 0.  1.
<mgrwt>
<rscale>  1 0.30000000E+03</rscale>
<asrwt>0</asrwt>
<pdfrwt beam="1">  1        1 0.39607678E+00 0.30000000E+03</pdfrwt>
<pdfrwt beam="2">0</pdfrwt>
<totfact> 0.11085278E+00</totfact>
</mgrwt>
</event>
<event>
 6    1  0.5260809E-006  0.3000000E+03  0.7818608E-02  0.1093470E+00
          1   -1    0    0  502    0  0.00000000000E+00  0.00000000000E+00  0.13478883802E+03  0.13478883802E+03  0.00000000000E+00 0.  1.
         13   -1    0    0    0    0 -0.00000000000E+00 -0.00000000000E+00 -0.10000000000E+04  0.10000000000E+04  0.00000000000E+00 0.  1.
    9000005    2    1    2  501    0 -0.20848495738E+02  0.30095980711E+02 -0.87919568918E+03  0.10955970681E+04  0.65269246043E+03 0.  0.
         13    1    3    3    0    0 -0.64948663416E+02 -0.29091590229E+03 -0.25483275449E+03  0.39216083926E+03  0.00000000000E+00 0.  1.
          1    1    3    3  501    0  0.44100167678E+02  0.32101188300E+03 -0.62436293469E+03  0.70343622883E+03  0.00000000000E+00 0.  1.
         21    1    1    2  502  501  0.20848495738E+02 -0.30095980711E+02  0.13984527200E+02  0.39191769933E+02  0.00000000000E+00 0. -1.
<mgrwt>
<rscale>  1 0.30000000E+03</rscale>
<asrwt>0</asrwt>
<pdfrwt beam="1">  1        1 0.49014226E+00 0.30000000E+03</pdfrwt>
<pdfrwt beam="2">0</pdfrwt>
<totfact> 0.26970095E-01</totfact>
</mgrwt>
</event>
<event>
 6    1  0.5260809E-006  0.3000000E+03  0.7818608E-02  0.1093470E+00
          1   -1    0    0  502    0  0.00000000000E+00  0.00000000000E+00  0.12450095616E+03  0.12450095616E+03  0.00000000000E+00 0.  1.
         13   -1    0    0    0    0 -0.00000000000E+00 -0.00000000000E+00 -0.10000000000E+04  0.10000000000E+04  0.00000000000E+00 0.  1.
    9000005    2    1    2  501    0 -0.35685584698E+02 -0.17264278943E+02 -0.86309248831E+03  0.10829625534E+04  0.65292245515E+03 0.  0.
         13    1    3    3    0    0 -0.21834012865E+03  0.16307756319E+03 -0.12182150240E+03  0.29850826093E+03  0.00000000000E+00 0.  1.
          3    1    3    3  501    0  0.18265454395E+03 -0.18034184213E+03 -0.74127098591E+03  0.78445429249E+03  0.00000000000E+00 0.  1.
         21    1    1    2  502  501  0.35685584698E+02  0.17264278943E+02 -0.12406555524E+02  0.41538402745E+02  0.00000000000E+00 0.  1.
<mgrwt>
<rscale>  1 0.30000000E+03</rscale>
<asrwt>0</asrwt>
<pdfrwt beam="1">  1        1 0.45273170E+00 0.30000000E+03</pdfrwt>
<pdfrwt beam="2">0</pdfrwt>
<totfact> 0.49325550E-01</totfact>
</mgrwt>
</event>
<event>
 6    1  0.5260809E-006  0.3000000E+03  0.7818608E-02  0.1093470E+00
          1   -1    0    0  502    0  0.00000000000E+00  0.00000000000E+00  0.79899114047E+02  0.79899114047E+02  0.00000000000E+00 0.  1.
         13   -1    0    0    0    0 -0.00000000000E+00 -0.00000000000E+00 -0.10000000000E+04  0.10000000000E+04  0.00000000000E+00 0.  1.
    9000005    2    1    2  501    0 -0.16165273667E+01  0.12062306742E+02 -0.91602983033E+03  0.10670661137E+04  0.54714836059E+03 0.  0.
         13    1    3    3    0    0  0.97096195391E+02  0.24834884562E+03 -0.62445041023E+03  0.67900157224E+03  0.00000000000E+00 0.  1.
          3    1    3    3  501    0 -0.98712722758E+02 -0.23628653887E+03 -0.29157942011E+03  0.38806454143E+03  0.00000000000E+00 0.  1.
         21    1    1    2  502  501  0.16165273667E+01 -0.12062306742E+02 -0.40710556192E+01  0.12833000371E+02  0.00000000000E+00 0.  1.
<mgrwt>
<rscale>  1 0.30000000E+03</rscale>
<asrwt>0</asrwt>
<pdfrwt beam="1">  1        1 0.29054285E+00 0.30000000E+03</pdfrwt>
<pdfrwt beam="2">0</pdfrwt>
<totfact> 0.38517530E+00</totfact>
</mgrwt>
</event>
<event>
 6    1  0.5260809E-006  0.3000000E+03  0.7818608E-02  0.1093470E+00
          1   -1    0    0  502    0  0.00000000000E+00  0.00000000000E+00  0.11997078414E+03  0.11997078414E+03  0.00000000000E+00 0.  1.
         13   -1    0    0    0    0 -0.00000000000E+00 -0.00000000000E+00 -0.10000000000E+04  0.10000000000E+04  0.00000000000E+00 0.  1.
    9000005    2    1    2  501    0  0.55067189530E+01 -0.15753400319E+02 -0.88221663079E+03  0.11031399090E+04  0.66206720318E+03 0.  0.
         13    1    3    3    0    0 -0.25448722380E+03 -0.19063267824E+03 -0.61074788996E+03  0.68856194361E+03  0.00000000000E+00 0.  1.
          3    1    3    3  501    0  0.25999394275E+03  0.17487927792E+03 -0.27146874083E+03  0.41457796536E+03  0.00000000000E+00 0.  1.
         21    1    1    2  502  501 -0.55067189530E+01  0.15753400319E+02  0.21874149348E+01  0.16830875180E+02  0.00000000000E+00 0. -1.
<mgrwt>
<rscale>  1 0.30000000E+03</rscale>
<asrwt>0</asrwt>
<pdfrwt beam="1">  1        1 0.43625832E+00 0.30000000E+03</pdfrwt>
<pdfrwt beam="2">0</pdfrwt>
<totfact> 0.63377440E-01</totfact>
</mgrwt>
</event>
<event>
 6    1  0.5260809E-006  0.3000000E+03  0.7818608E-02  0.1093470E+00
          1   -1    0    0  502    0  0.00000000000E+00  0.00000000000E+00  0.11275842919E+03  0.11275842919E+03  0.00000000000E+00 0.  1.
         13   -1    0    0    0    0 -0.00000000000E+00 -0.00000000000E+00 -0.10000000000E+04  0.10000000000E+04  0.00000000000E+00 0.  1.
    9000005    2    1    2  501    0  0.18547167433E+02 -0.86859289085E-01 -0.88698791675E+03  0.10942093240E+04  0.64047051080E+03 0.  0.
         13    1    3    3    0    0 -0.11266617975E+03 -0.23537607859E+03 -0.74562597564E+03  0.78997067159E+03  0.00000000000E+00 0.  1.
          1    1    3    3  501    0  0.13121334718E+03  0.23528921930E+03 -0.14136194112E+03  0.30423865237E+03  0.00000000000E+00 0.  1.
         21    1    1    2  502  501 -0.18547167433E+02  0.86859289085E-01 -0.25365406024E+00  0.18549105226E+02  0.00000000000E+00 0.  1.
<mgrwt>
<rscale>  1 0.30000000E+03</rscale>
<asrwt>0</asrwt>
<pdfrwt beam="1">  1        1 0.41003152E+00 0.30000000E+03</pdfrwt>
<pdfrwt beam="2">0</pdfrwt>
<totfact> 0.92095562E-01</totfact>
</mgrwt>
</event>
<event>
 6    1  0.5260809E-006  0.3000000E+03  0.7818608E-02  0.1093470E+00
          1   -1    0    0  502    0  0.00000000000E+00  0.00000000000E+00  0.10871011462E+03  0.10871011462E+03  0.00000000000E+00 0.  1.
         13   -1    0    0    0    0 -0.00000000000E+00 -0.00000000000E+00 -0.10000000000E+04  0.10000000000E+04  0.00000000000E+00 0.  1.
    9000005    2    1    2  501    0 -0.13532949281E+02  0.76828951718E+00 -0.88398688747E+03  0.10933132070E+04  0.64320853575E+03 0.  0.
         13    1    3    3    0    0 -0.26520177206E+03  0.15709928116E+03 -0.63675091797E+03  0.70743472885E+03  0.00000000000E+00 0.  1.
          3    1    3    3  501    0  0.25166882278E+03 -0.15633099165E+03 -0.24723596950E+03  0.38587847818E+03  0.00000000000E+00 0.  1.
         21    1    1    2  502  501  0.13532949281E+02 -0.76828951718E+00 -0.73029979028E+01  0.15396907592E+02  0.00000000000E+00 0.  1.
<mgrwt>
<rscale>  1 0.30000000E+03</rscale>
<asrwt>0</asrwt>
<pdfrwt beam="1">  1        1 0.39531034E+00 0.30000000E+03</pdfrwt>
<pdfrwt beam="2">0</pdfrwt>
<totfact> 0.11196172E+00</totfact>
</mgrwt>
</event>
<event>
 6    1  0.5260809E-006  0.3000000E+03  0.7818608E-02  0.1093470E+00
          1   -1    0    0  502    0  0.00000000000E+00  0.00000000000E+00  0.97807445566E+02  0.97807445566E+02  0.00000000000E+00 0.  1.
         13   -1    0    0    0    0 -0.00000000000E+00 -0.00000000000E+00 -0.10000000000E+04  0.10000000000E+04  0.00000000000E+00 0.  1.
    9000005    2    1    2  501    0 -0.11515663380E+02 -0.52078733120E+01 -0.90144329885E+03  0.10851467255E+04  0.60397322993E+03 0.  0.
         13    1    3    3    0    0 -0.19112552935E+02  0.12612163546E+03  0.40674255903E+02  0.13388932632E+03  0.00000000000E+00 0.  1.
          1    1    3    3  501    0  0.75968895553E+01 -0.13132950877E+03 -0.94211755475E+03  0.95125739922E+03  0.00000000000E+00 0.  1.
         21    1    1    2  502  501  0.11515663380E+02  0.52078733120E+01 -0.74925558702E+00  0.12660720021E+02  0.00000000000E+00 0.  1.
<mgrwt>
<rscale>  1 0.30000000E+03</rscale>
<asrwt>0</asrwt>
<pdfrwt beam="1">  1        1 0.35566419E+00 0.30000000E+03</pdfrwt>
<pdfrwt beam="2">0</pdfrwt>
<totfact> 0.18406486E+00</totfact>
</mgrwt>
</event>
<event>
 6    1  0.5260809E-006  0.3000000E+03  0.7818608E-02  0.1093470E+00
          1   -1    0    0  502    0  0.00000000000E+00  0.00000000000E+00  0.10645989630E+03  0.10645989630E+03  0.00000000000E+00 0.  1.
         13   -1    0    0    0    0 -0.00000000000E+00 -0.00000000000E+00 -0.10000000000E+04  0.10000000000E+04  0.00000000000E+00 0.  1.
    9000005    2    1    2  501    0 -0.98576079151E+01  0.36234600190E+01 -0.88261902332E+03  0.10913082662E+04  0.64173755521E+03 0.  0.
         13    1    3    3    0    0 -0.15588253837E+03 -0.25768919311E+03 -0.24988999516E+03  0.39134140555E+03  0.00000000000E+00 0.  1.
          3    1    3    3  501    0  0.14602493045E+03  0.26131265313E+03 -0.63272902816E+03  0.69996686070E+03  0.00000000000E+00 0.  1.
         21    1    1    2  502  501  0.98576079151E+01 -0.36234600190E+01 -0.10921080388E+02  0.15151630049E+02  0.00000000000E+00 0. -1.
<mgrwt>
<rscale>  1 0.30000000E+03</rscale>
<asrwt>0</asrwt>
<pdfrwt beam="1">  1        1 0.38712771E+00 0.30000000E+03</pdfrwt>
<pdfrwt beam="2">0</pdfrwt>
<totfact> 0.12442824E+00</totfact>
</mgrwt>
</event>
<event>
 6    1  0.5260809E-006  0.3000000E+03  0.7818608E-02  0.1093470E+00
          1   -1    0    0  502    0  0.00000000000E+00  0.00000000000E+00  0.74781394924E+02  0.74781394924E+02  0.00000000000E+00 0.  1.
         13   -1    0    0    0    0 -0.00000000000E+00 -0.00000000000E+00 -0.10000000000E+04  0.10000000000E+04  0.00000000000E+00 0.  1.
    9000005    2    1    2  501    0  0.17428740549E+02  0.16960248107E+02 -0.92579176040E+03  0.10504556982E+04  0.49575737947E+03 0.  0.
         13    1    3    3    0    0 -0.27973349257E+02 -0.20120474129E+03 -0.71650916388E+03  0.74474911085E+03  0.00000000000E+00 0.  1.
          3    1    3    3  501    0  0.45402089807E+02  0.21816498940E+03 -0.20928259651E+03  0.30570658737E+03  0.00000000000E+00 0.  1.
         21    1    1    2  502  501 -0.17428740549E+02 -0.16960248107E+02  0.57315532035E+00  0.24325696701E+02  0.00000000000E+00 0. -1.
<mgrwt>
<rscale>  1 0.30000000E+03</rscale>
<asrwt>0</asrwt>
<pdfrwt beam="1">  1        1 0.27193292E+00 0.30000000E+03</pdfrwt>
<pdfrwt beam="2">0</pdfrwt>
<totfact> 0.47090218E+00</totfact>
</mgrwt>
</event>
<event>
 6    1  0.5260809E-006  0.3000000E+03  0.7818608E-02  0.1093470E+00
          1   -1    0    0  502    0  0.00000000000E+00  0.00000000000E+00  0.95512101752E+02  0.95512101752E+02  0.00000000000E+00 0.  1.
         13   -1    0    0    0    0 -0.00000000000E+00 -0.00000000000E+00 -0.10000000000E+04  0.10000000000E+04  0.00000000000E+00 0.  1.
    9000005    2    1    2  501    0  0.49786687018E+00  0.17480969415E+02 -0.90239417430E+03  0.10778991564E+04  0.58927541392E+03 0.  0.
         13    1    3    3    0    0 -0.22829191796E+03  0.19036393682E+03 -0.53274421788E+03  0.61005903807E+03  0.00000000000E+00 0.  1.
          3    1    3    3  501    0  0.22878978483E+03 -0.17288296741E+03 -0.36964995641E+03  0.46784011835E+03  0.00000000000E+00 0.  1.
         21    1    1    2  502  501 -0.49786687018E+00 -0.17480969415E+02 -0.20937239499E+01  0.17612945327E+02  0.00000000000E+00 0.  1.
<mgrwt>
<rscale>  1 0.30000000E+03</rscale>
<asrwt>0</asrwt>
<pdfrwt beam="1">  1        1 0.34731747E+00 0.30000000E+03</pdfrwt>
<pdfrwt beam="2">0</pdfrwt>
<totfact> 0.20322147E+00</totfact>
</mgrwt>
</event>
<event>
 6    1  0.5260809E-006  0.3000000E+03  0.7818608E-02  0.1093470E+00
          1   -1    0    0  502    0  0.00000000000E+00  0.00000000000E+00  0.11028255481E+03  0.11028255481E+03  0.00000000000E+00 0.  1.
         13   -1    0    0    0    0 -0.00000000000E+00 -0.00000000000E+00 -0.10000000000E+04  0.10000000000E+04  0.00000000000E+00 0.  1.
    9000005    2    1    2  501    0  0.16352344358E+02  0.13668129000E+01 -0.88329365077E+03  0.10926606231E+04  0.64298545580E+03 0.  0.
         13    1    3    3    0    0 -0.19706515929E+03  0.24634762937E+03 -0.38410066369E+03  0.49704642776E+03  0.00000000000E+00 0.  1.
          1    1    3    3  501    0  0.21341750365E+03 -0.24498081647E+03 -0.49919298708E+03  0.59561419531E+03  0.00000000000E+00 0.  1.
         21    1    1    2  502  501 -0.16352344358E+02 -0.13668129000E+01 -0.64237944181E+01  0.17621931739E+02  0.00000000000E+00 0. -1.
<mgrwt>
<rscale>  1 0.30000000E+03</rscale>
<asrwt>0</asrwt>
<pdfrwt beam="1">  1        1 0.40102832E+00 0.30000000E+03</pdfrwt>
<pdfrwt beam="2">0</pdfrwt>
<totfact> 0.10390255E+00</totfact>
</mgrwt>
</event>
<event>
 6    1  0.5260809E-006  0.3000000E+03  0.7818608E-02  0.1093470E+00
          1   -1    0    0  502    0  0.00000000000E+00  0.00000000000E+00  0.11397555232E+03  0.11397555232E+03  0.00000000000E+00 0.  1.
         13   -1    0    0    0    0 -0.00000000000E+00 -0.00000000000E+00 -0.10000000000E+04  0.10000000000E+04  0.00000000000E+00 0.  1.
    9000005    2    1    2  501    0  0.51258763318E+01  0.27816336932E+02 -0.87130113660E+03  0.10820882649E+04  0.64105328891E+03 0.  0.
         13    1    3    3    0    0 -0.12339213290E+03 -0.23194812859E+03 -0.69465777298E+03  0.74268093713E+03  0.00000000000E+00 0.  1.
          1    1    3    3  501    0  0.12851800923E+03  0.25976446552E+03 -0.17664336362E+03  0.33940732779E+03  0.00000000000E+00 0.  1.
         21    1    1    2  502  501 -0.51258763318E+01 -0.27816336932E+02 -0.14723311082E+02  0.31887287399E+02  0.00000000000E+00 0.  1.
<mgrwt>
<rscale>  1 0.30000000E+03</rscale>
<asrwt>0</asrwt>
<pdfrwt beam="1">  1        1 0.41445743E+00 0.30000000E+03</pdfrwt>
<pdfrwt beam="2">0</pdfrwt>
<totfact> 0.86668557E-01</totfact>
</mgrwt>
</event>
<event>
 6    1  0.5260809E-006  0.3000000E+03  0.7818608E-02  0.1093470E+00
          1   -1    0    0  502    0  0.00000000000E+00  0.00000000000E+00  0.12354598440E+03  0.12354598440E+03  0.00000000000E+00 0.  1.
         13   -1    0    0    0    0 -0.00000000000E+00 -0.00000000000E+00 -0.10000000000E+04  0.10000000000E+04  0.00000000000E+00 0.  1.
    9000005    2    1    2  501    0  0.54730135432E+01 -0.35190226691E+02 -0.87377021885E+03  0.10878317198E+04  0.64702020780E+03 0.  0.
         13    1    3    3    0    0  0.21574921600E+03 -0.83166573279E+02 -0.50361716420E+02  0.23664468216E+03  0.00000000000E+00 0.  1.
          1    1    3    3  501    0 -0.21027620246E+03  0.47976346588E+02 -0.82340850243E+03  0.85118703762E+03  0.00000000000E+00 0.  1.
         21    1    1    2  502  501 -0.54730135432E+01  0.35190226691E+02 -0.26837967537E+01  0.35714264612E+02  0.00000000000E+00 0.  1.
<mgrwt>
<rscale>  1 0.30000000E+03</rscale>
<asrwt>0</asrwt>
<pdfrwt beam="1">  1        1 0.44925907E+00 0.30000000E+03</pdfrwt>
<pdfrwt beam="2">0</pdfrwt>
<totfact> 0.52047972E-01</totfact>
</mgrwt>
</event>
<event>
 6    1  0.5260809E-006  0.3000000E+03  0.7818608E-02  0.1093470E+00
          1   -1    0    0  502    0  0.00000000000E+00  0.00000000000E+00  0.13504119089E+03  0.13504119089E+03  0.00000000000E+00 0.  1.
         13   -1    0    0    0    0 -0.00000000000E+00 -0.00000000000E+00 -0.10000000000E+04  0.10000000000E+04  0.00000000000E+00 0.  1.
    9000005    2    1    2  501    0  0.60179758041E+02  0.68880938613E+02 -0.89487908580E+03  0.10388049714E+04  0.51955846970E+03 0.  0.
         13    1    3    3    0    0  0.12568897541E+03 -0.20398501580E+03 -0.49915310609E+03  0.55367989717E+03  0.00000000000E+00 0.  1.
          1    1    3    3  501    0 -0.65509217372E+02  0.27286595441E+03 -0.39572597972E+03  0.48512507424E+03  0.00000000000E+00 0.  1.
         21    1    1    2  502  501 -0.60179758041E+02 -0.68880938613E+02  0.29920276694E+02  0.96236219479E+02  0.00000000000E+00 0.  1.
<mgrwt>
<rscale>  1 0.30000000E+03</rscale>
<asrwt>0</asrwt>
<pdfrwt beam="1">  1        1 0.49105991E+00 0.30000000E+03</pdfrwt>
<pdfrwt beam="2">0</pdfrwt>
<totfact> 0.26557460E-01</totfact>
</mgrwt>
</event>
<event>
 6    1  0.5260809E-006  0.3000000E+03  0.7818608E-02  0.1093470E+00
          1   -1    0    0  502    0  0.00000000000E+00  0.00000000000E+00  0.11318189494E+03  0.11318189494E+03  0.00000000000E+00 0.  1.
         13   -1    0    0    0    0 -0.00000000000E+00 -0.00000000000E+00 -0.10000000000E+04  0.10000000000E+04  0.00000000000E+00 0.  1.
    9000005    2    1    2  501    0  0.16191634078E+02  0.45539348671E+01 -0.88284501474E+03  0.10958991642E+04  0.64907376361E+03 0.  0.
         13    1    3    3    0    0  0.18811965253E+03  0.21200402073E+03 -0.73678514076E+03  0.78942197342E+03  0.00000000000E+00 0.  1.
          1    1    3    3  501    0 -0.17192801845E+03 -0.20745008586E+03 -0.14605987398E+03  0.30647719073E+03  0.00000000000E+00 0.  1.
         21    1    1    2  502  501 -0.16191634078E+02 -0.45539348671E+01 -0.39730903212E+01  0.17282730791E+02  0.00000000000E+00 0.  1.
<mgrwt>
<rscale>  1 0.30000000E+03</rscale>
<asrwt>0</asrwt>
<pdfrwt beam="1">  1        1 0.41157139E+00 0.30000000E+03</pdfrwt>
<pdfrwt beam="2">0</pdfrwt>
<totfact> 0.90179603E-01</totfact>
</mgrwt>
</event>
<event>
 6    1  0.5260809E-006  0.3000000E+03  0.7818608E-02  0.1093470E+00
          1   -1    0    0  502    0  0.00000000000E+00  0.00000000000E+00  0.11738044781E+03  0.11738044781E+03  0.00000000000E+00 0.  1.
         13   -1    0    0    0    0 -0.00000000000E+00 -0.00000000000E+00 -0.10000000000E+04  0.10000000000E+04  0.00000000000E+00 0.  1.
    9000005    2    1    2  501    0 -0.24715346188E+02 -0.14604399019E+02 -0.86313448343E+03  0.10826845588E+04  0.65297823900E+03 0.  0.
         13    1    3    3    0    0 -0.28550396617E+03  0.15436313567E+03 -0.31324730680E+03  0.45107024682E+03  0.00000000000E+00 0.  1.
          1    1    3    3  501    0  0.26078861998E+03 -0.16896753469E+03 -0.54988717663E+03  0.63161431199E+03  0.00000000000E+00 0.  1.
         21    1    1    2  502  501  0.24715346188E+02  0.14604399019E+02 -0.19485068765E+02  0.34695888988E+02  0.00000000000E+00 0.  1.
<mgrwt>
<rscale>  1 0.30000000E+03</rscale>
<asrwt>0</asrwt>
<pdfrwt beam="1">  1        1 0.42683889E+00 0.30000000E+03</pdfrwt>
<pdfrwt beam="2">0</pdfrwt>
<totfact> 0.72720699E-01</totfact>
</mgrwt>
</event>
<event>
 6    1  0.5260809E-006  0.3000000E+03  0.7818608E-02  0.1093470E+00
          1   -1    0    0  502    0  0.00000000000E+00  0.00000000000E+00  0.14378533245E+03  0.14378533245E+03  0.00000000000E+00 0.  1.
         13   -1    0    0    0    0 -0.00000000000E+00 -0.00000000000E+00 -0.10000000000E+04  0.10000000000E+04  0.00000000000E+00 0.  1.
    9000005    2    1    2  501    0  0.12241580880E+02 -0.11616505740E+02 -0.89019105598E+03  0.11058486157E+04  0.65587822435E+03 0.  0.
         13    1    3    3    0    0  0.12058098588E+03  0.30143037080E+03 -0.45347870813E+03  0.55771227468E+03  0.00000000000E+00 0.  1.
          3    1    3    3  501    0 -0.10833940500E+03 -0.31304687654E+03 -0.43671234784E+03  0.54813634102E+03  0.00000000000E+00 0.  1.
         21    1    1    2  502  501 -0.12241580880E+02  0.11616505740E+02  0.33976388428E+02  0.37936716762E+02  0.00000000000E+00 0.  1.
<mgrwt>
<rscale>  1 0.30000000E+03</rscale>
<asrwt>0</asrwt>
<pdfrwt beam="1">  1        1 0.52285686E+00 0.30000000E+03</pdfrwt>
<pdfrwt beam="2">0</pdfrwt>
<totfact> 0.15470783E-01</totfact>
</mgrwt>
</event>
<event>
 6    1  0.5260809E-006  0.3000000E+03  0.7818608E-02  0.1093470E+00
          1   -1    0    0  502    0  0.00000000000E+00  0.00000000000E+00  0.12057523577E+03  0.12057523577E+03  0.00000000000E+00 0.  1.
         13   -1    0    0    0    0 -0.00000000000E+00 -0.00000000000E+00 -0.10000000000E+04  0.10000000000E+04  0.00000000000E+00 0.  1.
    9000005    2    1    2  501    0 -0.31078979752E+01 -0.18325231064E+02 -0.88701731210E+03  0.11004973896E+04  0.65111390666E+03 0.  0.
         13    1    3    3    0    0  0.19606077746E+03  0.18385593463E+03 -0.72609027722E+03  0.77424151519E+03  0.00000000000E+00 0.  1.
          3    1    3    3  501    0 -0.19916867544E+03 -0.20218116570E+03 -0.16092703488E+03  0.32625587442E+03  0.00000000000E+00 0.  1.
         21    1    1    2  502  501  0.31078979752E+01  0.18325231064E+02  0.75925478763E+01  0.20077846165E+02  0.00000000000E+00 0. -1.
<mgrwt>
<rscale>  1 0.30000000E+03</rscale>
<asrwt>0</asrwt>
<pdfrwt beam="1">  1        1 0.43845633E+00 0.30000000E+03</pdfrwt>
<pdfrwt beam="2">0</pdfrwt>
<totfact> 0.61342945E-01</totfact>
</mgrwt>
</event>
<event>
 6    1  0.5260809E-006  0.3000000E+03  0.7818608E-02  0.1093470E+00
          1   -1    0    0  502    0  0.00000000000E+00  0.00000000000E+00  0.11010383511E+03  0.11010383511E+03  0.00000000000E+00 0.  1.
         13   -1    0    0    0    0 -0.00000000000E+00 -0.00000000000E+00 -0.10000000000E+04  0.10000000000E+04  0.00000000000E+00 0.  1.
    9000005    2    1    2  501    0  0.58090088306E+01 -0.97267188576E+01 -0.89012884057E+03  0.10987721194E+04  0.64408265298E+03 0.  0.
         13    1    3    3    0    0 -0.23062632510E+03  0.73654517189E+02 -0.86736701232E+02  0.25717065360E+03  0.00000000000E+00 0.  1.
          1    1    3    3  501    0  0.23643533393E+03 -0.83381236047E+02 -0.80339213934E+03  0.84160146578E+03  0.00000000000E+00 0.  1.
         21    1    1    2  502  501 -0.58090088306E+01  0.97267188576E+01  0.23267567929E+00  0.11331715726E+02  0.00000000000E+00 0. -1.
<mgrwt>
<rscale>  1 0.30000000E+03</rscale>
<asrwt>0</asrwt>
<pdfrwt beam="1">  1        1 0.40037843E+00 0.30000000E+03</pdfrwt>
<pdfrwt beam="2">0</pdfrwt>
<totfact> 0.10479490E+00</totfact>
</mgrwt>
</event>
<event>
 6    1  0.5260809E-006  0.3000000E+03  0.7818608E-02  0.1093470E+00
          1   -1    0    0  502    0  0.00000000000E+00  0.00000000000E+00  0.11032938951E+03  0.11032938951E+03  0.00000000000E+00 0.  1.
         13   -1    0    0    0    0 -0.00000000000E+00 -0.00000000000E+00 -0.10000000000E+04  0.10000000000E+04  0.00000000000E+00 0.  1.
    9000005    2    1    2  501    0 -0.18786214567E+02 -0.19789502176E+02 -0.87077802989E+03  0.10771408997E+04  0.63343002314E+03 0.  0.
         13    1    3    3    0    0 -0.21243608642E+03  0.15535474589E+03 -0.13372592970E+03  0.29520638908E+03  0.00000000000E+00 0.  1.
          3    1    3    3  501    0  0.19364987185E+03 -0.17514424806E+03 -0.73705210019E+03  0.78193451062E+03  0.00000000000E+00 0.  1.
         21    1    1    2  502  501  0.18786214567E+02  0.19789502176E+02 -0.18892580599E+02  0.33188489810E+02  0.00000000000E+00 0.  1.
<mgrwt>
<rscale>  1 0.30000000E+03</rscale>
<asrwt>0</asrwt>
<pdfrwt beam="1">  1        1 0.40119863E+00 0.30000000E+03</pdfrwt>
<pdfrwt beam="2">0</pdfrwt>
<totfact> 0.10366964E+00</totfact>
</mgrwt>
</event>
<event>
 6    1  0.5260809E-006  0.3000000E+03  0.7818608E-02  0.1093470E+00
          1   -1    0    0  502    0  0.00000000000E+00  0.00000000000E+00  0.11620315122E+03  0.11620315122E+03  0.00000000000E+00 0.  1.
         13   -1    0    0    0    0 -0.00000000000E+00 -0.00000000000E+00 -0.10000000000E+04  0.10000000000E+04  0.00000000000E+00 0.  1.
    9000005    2    1    2  501    0 -0.16343428937E+02  0.14217689286E+02 -0.85787125740E+03  0.10824187370E+04  0.65971052555E+03 0.  0.
         13    1    3    3    0    0  0.15343258109E+03  0.29455338819E+03 -0.44540155512E+03  0.55559499704E+03  0.00000000000E+00 0.  1.
          1    1    3    3  501    0 -0.16977601003E+03 -0.28033569890E+03 -0.41246970228E+03  0.52682373993E+03  0.00000000000E+00 0.  1.
         21    1    1    2  502  501  0.16343428937E+02 -0.14217689286E+02 -0.25925591375E+02  0.33784414250E+02  0.00000000000E+00 0. -1.
<mgrwt>
<rscale>  1 0.30000000E+03</rscale>
<asrwt>0</asrwt>
<pdfrwt beam="1">  1        1 0.42255780E+00 0.30000000E+03</pdfrwt>
<pdfrwt beam="2">0</pdfrwt>
<totfact> 0.77336661E-01</totfact>
</mgrwt>
</event>
<event>
 6    1  0.5260809E-006  0.3000000E+03  0.7818608E-02  0.1093470E+00
          1   -1    0    0  502    0  0.00000000000E+00  0.00000000000E+00  0.11694926965E+03  0.11694926965E+03  0.00000000000E+00 0.  1.
         13   -1    0    0    0    0 -0.00000000000E+00 -0.00000000000E+00 -0.10000000000E+04  0.10000000000E+04  0.00000000000E+00 0.  1.
    9000005    2    1    2  501    0 -0.18312007232E+01  0.11062534067E+02 -0.90113721621E+03  0.10956689048E+04  0.62315032989E+03 0.  0.
         13    1    3    3    0    0 -0.31089490579E+03  0.21049359557E+02 -0.50050869696E+03  0.58958262671E+03  0.00000000000E+00 0.  1.
          3    1    3    3  501    0  0.30906370507E+03 -0.99868254906E+01 -0.40062851925E+03  0.50608627813E+03  0.00000000000E+00 0.  1.
         21    1    1    2  502  501  0.18312007232E+01 -0.11062534067E+02  0.18086485857E+02  0.21280364816E+02  0.00000000000E+00 0.  1.
<mgrwt>
<rscale>  1 0.30000000E+03</rscale>
<asrwt>0</asrwt>
<pdfrwt beam="1">  1        1 0.42527097E+00 0.30000000E+03</pdfrwt>
<pdfrwt beam="2">0</pdfrwt>
<totfact> 0.74384040E-01</totfact>
</mgrwt>
</event>
<event>
 6    1  0.5260809E-006  0.3000000E+03  0.7818608E-02  0.1093470E+00
          1   -1    0    0  502    0  0.00000000000E+00  0.00000000000E+00  0.11976084039E+03  0.11976084039E+03  0.00000000000E+00 0.  1.
         13   -1    0    0    0    0 -0.00000000000E+00 -0.00000000000E+00 -0.10000000000E+04  0.10000000000E+04  0.00000000000E+00 0.  1.
    9000005    2    1    2  501    0 -0.19065809783E+02  0.30113209712E+01 -0.88294950535E+03  0.11002693261E+04  0.65621657075E+03 0.  0.
         13    1    3    3    0    0 -0.21942450480E+03 -0.21587863831E+03 -0.23389636417E+03  0.38659825265E+03  0.00000000000E+00 0.  1.
          3    1    3    3  501    0  0.20035869502E+03  0.21888995928E+03 -0.64905314118E+03  0.71367107341E+03  0.00000000000E+00 0.  1.
         21    1    1    2  502  501  0.19065809783E+02 -0.30113209712E+01  0.27103457386E+01  0.19491514326E+02  0.00000000000E+00 0. -1.
<mgrwt>
<rscale>  1 0.30000000E+03</rscale>
<asrwt>0</asrwt>
<pdfrwt beam="1">  1        1 0.43549488E+00 0.30000000E+03</pdfrwt>
<pdfrwt beam="2">0</pdfrwt>
<totfact> 0.64096257E-01</totfact>
</mgrwt>
</event>
<event>
 6    1  0.5260809E-006  0.3000000E+03  0.7818608E-02  0.1093470E+00
          1   -1    0    0  502    0  0.00000000000E+00  0.00000000000E+00  0.12308475488E+03  0.12308475488E+03  0.00000000000E+00 0.  1.
         13   -1    0    0    0    0 -0.00000000000E+00 -0.00000000000E+00 -0.10000000000E+04  0.10000000000E+04  0.00000000000E+00 0.  1.
    9000005    2    1    2  501    0  0.87955256280E+01 -0.12706899221E+02 -0.88472038601E+03  0.11057715581E+04  0.66314534658E+03 0.  0.
         13    1    3    3    0    0 -0.40274339651E+02 -0.33440030765E+03 -0.48169060891E+03  0.58776817786E+03  0.00000000000E+00 0.  1.
          3    1    3    3  501    0  0.49069865279E+02  0.32169340842E+03 -0.40302977710E+03  0.51800338023E+03  0.00000000000E+00 0.  1.
         21    1    1    2  502  501 -0.87955256280E+01  0.12706899221E+02  0.78051408942E+01  0.17313196795E+02  0.00000000000E+00 0.  1.
<mgrwt>
<rscale>  1 0.30000000E+03</rscale>
<asrwt>0</asrwt>
<pdfrwt beam="1">  1        1 0.44758187E+00 0.30000000E+03</pdfrwt>
<pdfrwt beam="2">0</pdfrwt>
<totfact> 0.53412386E-01</totfact>
</mgrwt>
</event>
<event>
 6    1  0.5260809E-006  0.3000000E+03  0.7818608E-02  0.1093470E+00
          1   -1    0    0  502    0  0.00000000000E+00  0.00000000000E+00  0.12526512796E+03  0.12526512796E+03  0.00000000000E+00 0.  1.
         13   -1    0    0    0    0 -0.00000000000E+00 -0.00000000000E+00 -0.10000000000E+04  0.10000000000E+04  0.00000000000E+00 0.  1.
    9000005    2    1    2  501    0  0.22073051253E+02  0.18946420695E+02 -0.88303416645E+03  0.10950150910E+04  0.64688679377E+03 0.  0.
         13    1    3    3    0    0  0.37312464102E+02 -0.17595897994E+03 -0.88133984679E+03  0.89950748087E+03  0.00000000000E+00 0.  1.
          1    1    3    3  501    0 -0.15239412849E+02  0.19490540063E+03 -0.16943196581E+01  0.19550761013E+03  0.00000000000E+00 0.  1.
         21    1    1    2  502  501 -0.22073051253E+02 -0.18946420695E+02  0.82992944077E+01  0.30250036965E+02  0.00000000000E+00 0. -1.
<mgrwt>
<rscale>  1 0.30000000E+03</rscale>
<asrwt>0</asrwt>
<pdfrwt beam="1">  1        1 0.45551052E+00 0.30000000E+03</pdfrwt>
<pdfrwt beam="2">0</pdfrwt>
<totfact> 0.47249622E-01</totfact>
</mgrwt>
</event>
<event>
 6    1  0.5260809E-006  0.3000000E+03  0.7818608E-02  0.1093470E+00
          1   -1    0    0  502    0  0.00000000000E+00  0.00000000000E+00  0.10996105921E+03  0.10996105921E+03  0.00000000000E+00 0.  1.
         13   -1    0    0    0    0 -0.00000000000E+00 -0.00000000000E+00 -0.10000000000E+04  0.10000000000E+04  0.00000000000E+00 0.  1.
    9000005    2    1    2  501    0 -0.30867634325E+01  0.92257566217E+01 -0.88401800434E+03  0.10985201515E+04  0.65204604785E+03 0.  0.
         13    1    3    3    0    0 -0.73941684118E+02  0.23152820365E+03 -0.82188278042E+03  0.85706708401E+03  0.00000000000E+00 0.  1.
          1    1    3    3  501    0  0.70854920686E+02 -0.22230244703E+03 -0.62135223918E+02  0.24145306747E+03  0.00000000000E+00 0.  1.
         21    1    1    2  502  501  0.30867634325E+01 -0.92257566217E+01 -0.60209364541E+01  0.11440907723E+02  0.00000000000E+00 0.  1.
<mgrwt>
<rscale>  1 0.30000000E+03</rscale>
<asrwt>0</asrwt>
<pdfrwt beam="1">  1        1 0.39985924E+00 0.30000000E+03</pdfrwt>
<pdfrwt beam="2">0</pdfrwt>
<totfact> 0.10551189E+00</totfact>
</mgrwt>
</event>
<event>
 6    1  0.5260809E-006  0.3000000E+03  0.7818608E-02  0.1093470E+00
          1   -1    0    0  502    0  0.00000000000E+00  0.00000000000E+00  0.12392436831E+03  0.12392436831E+03  0.00000000000E+00 0.  1.
         13   -1    0    0    0    0 -0.00000000000E+00 -0.00000000000E+00 -0.10000000000E+04  0.10000000000E+04  0.00000000000E+00 0.  1.
    9000005    2    1    2  501    0 -0.84275207744E+01 -0.67385962239E+01 -0.87014205157E+03  0.11116101831E+04  0.69167447356E+03 0.  0.
         13    1    3    3    0    0  0.29819488987E+02  0.24883975120E+03 -0.55134712452E+02  0.25661305543E+03  0.00000000000E+00 0.  1.
          3    1    3    3  501    0 -0.38247009761E+02 -0.25557834743E+03 -0.81500733912E+03  0.85499712762E+03  0.00000000000E+00 0.  1.
         21    1    1    2  502  501  0.84275207744E+01  0.67385962239E+01 -0.59335801217E+01  0.12314185257E+02  0.00000000000E+00 0. -1.
<mgrwt>
<rscale>  1 0.30000000E+03</rscale>
<asrwt>0</asrwt>
<pdfrwt beam="1">  1        1 0.45063502E+00 0.30000000E+03</pdfrwt>
<pdfrwt beam="2">0</pdfrwt>
<totfact> 0.50952375E-01</totfact>
</mgrwt>
</event>
<event>
 6    1  0.5260809E-006  0.3000000E+03  0.7818608E-02  0.1093470E+00
          1   -1    0    0  502    0  0.00000000000E+00  0.00000000000E+00  0.17287298182E+03  0.17287298182E+03  0.00000000000E+00 0.  1.
         13   -1    0    0    0    0 -0.00000000000E+00 -0.00000000000E+00 -0.10000000000E+04  0.10000000000E+04  0.00000000000E+00 0.  1.
    9000005    2    1    2  501    0 -0.40608529082E+02  0.20620392532E+01 -0.88059593580E+03  0.11056998489E+04  0.66743512718E+03 0.  0.
         13    1    3    3    0    0  0.15265899309E+03  0.25210738894E+03 -0.20253482897E+03  0.35760769103E+03  0.00000000000E+00 0.  1.
          3    1    3    3  501    0 -0.19326752218E+03 -0.25004534969E+03 -0.67806110682E+03  0.74809215784E+03  0.00000000000E+00 0.  1.
         21    1    1    2  502  501  0.40608529082E+02 -0.20620392532E+01  0.53468917613E+02  0.67173132953E+02  0.00000000000E+00 0. -1.
<mgrwt>
<rscale>  1 0.30000000E+03</rscale>
<asrwt>0</asrwt>
<pdfrwt beam="1">  1        1 0.62863035E+00 0.30000000E+03</pdfrwt>
<pdfrwt beam="2">0</pdfrwt>
<totfact> 0.44035772E-02</totfact>
</mgrwt>
</event>
<event>
 6    1  0.5260809E-006  0.3000000E+03  0.7818608E-02  0.1093470E+00
          1   -1    0    0  502    0  0.00000000000E+00  0.00000000000E+00  0.11794584967E+03  0.11794584967E+03  0.00000000000E+00 0.  1.
         13   -1    0    0    0    0 -0.00000000000E+00 -0.00000000000E+00 -0.10000000000E+04  0.10000000000E+04  0.00000000000E+00 0.  1.
    9000005    2    1    2  501    0  0.21574327495E+02 -0.13696863406E+02 -0.86039448863E+03  0.10844466464E+04  0.65961564352E+03 0.  0.
         13    1    3    3    0    0  0.20924623714E+03  0.25345434542E+03 -0.36526831384E+03  0.49136954939E+03  0.00000000000E+00 0.  1.
          1    1    3    3  501    0 -0.18767190965E+03 -0.26715120883E+03 -0.49512617479E+03  0.59307709702E+03  0.00000000000E+00 0.  1.
         21    1    1    2  502  501 -0.21574327495E+02  0.13696863406E+02 -0.21659661702E+02  0.33499203260E+02  0.00000000000E+00 0.  1.
<mgrwt>
<rscale>  1 0.30000000E+03</rscale>
<asrwt>0</asrwt>
<pdfrwt beam="1">  1        1 0.42889490E+00 0.30000000E+03</pdfrwt>
<pdfrwt beam="2">0</pdfrwt>
<totfact> 0.70588960E-01</totfact>
</mgrwt>
</event>
<event>
 6    1  0.5260809E-006  0.3000000E+03  0.7818608E-02  0.1093470E+00
          1   -1    0    0  502    0  0.00000000000E+00  0.00000000000E+00  0.11623622420E+03  0.11623622420E+03  0.00000000000E+00 0.  1.
         13   -1    0    0    0    0 -0.00000000000E+00 -0.00000000000E+00 -0.10000000000E+04  0.10000000000E+04  0.00000000000E+00 0.  1.
    9000005    2    1    2  501    0 -0.12284686906E+02 -0.40551426941E+02 -0.83011150789E+03  0.10478703145E+04  0.63808443696E+03 0.  0.
         13    1    3    3    0    0 -0.23570019584E+03 -0.22680277160E+03 -0.57234712632E+03  0.65922326455E+03  0.00000000000E+00 0.  1.
          1    1    3    3  501    0  0.22341550893E+03  0.18625134466E+03 -0.25776438158E+03  0.38864704994E+03  0.00000000000E+00 0.  1.
         21    1    1    2  502  501  0.12284686906E+02  0.40551426941E+02 -0.53652267903E+02  0.68365909710E+02  0.00000000000E+00 0.  1.
<mgrwt>
<rscale>  1 0.30000000E+03</rscale>
<asrwt>0</asrwt>
<pdfrwt beam="1">  1        1 0.42267807E+00 0.30000000E+03</pdfrwt>
<pdfrwt beam="2">0</pdfrwt>
<totfact> 0.77203838E-01</totfact>
</mgrwt>
</event>
<event>
 6    1  0.5260809E-006  0.3000000E+03  0.7818608E-02  0.1093470E+00
          1   -1    0    0  502    0  0.00000000000E+00  0.00000000000E+00  0.11555595222E+03  0.11555595222E+03  0.00000000000E+00 0.  1.
         13   -1    0    0    0    0 -0.00000000000E+00 -0.00000000000E+00 -0.10000000000E+04  0.10000000000E+04  0.00000000000E+00 0.  1.
    9000005    2    1    2  501    0  0.85034180409E+01 -0.41552306507E+01 -0.88337985794E+03  0.11060319530E+04  0.66547511876E+03 0.  0.
         13    1    3    3    0    0 -0.62719461760E+02  0.30415393845E+03 -0.25252062123E+03  0.40026243054E+03  0.00000000000E+00 0.  1.
          3    1    3    3  501    0  0.71222879801E+02 -0.30830916910E+03 -0.63085923671E+03  0.70576952251E+03  0.00000000000E+00 0.  1.
         21    1    1    2  502  501 -0.85034180409E+01  0.41552306507E+01 -0.10641898441E+01  0.95239991686E+01  0.00000000000E+00 0. -1.
<mgrwt>
<rscale>  1 0.30000000E+03</rscale>
<asrwt>0</asrwt>
<pdfrwt beam="1">  1        1 0.42020435E+00 0.30000000E+03</pdfrwt>
<pdfrwt beam="2">0</pdfrwt>
<totfact> 0.79970857E-01</totfact>
</mgrwt>
</event>
<event>
 6    1  0.5260809E-006  0.3000000E+03  0.7818608E-02  0.1093470E+00
          1   -1    0    0  502    0  0.00000000000E+00  0.00000000000E+00  0.11702834186E+03  0.11702834186E+03  0.00000000000E+00 0.  1.
         13   -1    0    0    0    0 -0.00000000000E+00 -0.00000000000E+00 -0.10000000000E+04  0.10000000000E+04  0.00000000000E+00 0.  1.
    9000005    2    1    2  501    0  0.86454911178E+00  0.28624174160E+02 -0.87015478893E+03  0.10856537833E+04  0.64857897715E+03 0.  0.
         13    1    3    3    0    0  0.12950788883E+03 -0.11950034849E+03  0.17027338883E+02  0.17703829198E+03  0.00000000000E+00 0.  1.
          3    1    3    3  501    0 -0.12864333972E+03  0.14812452265E+03 -0.88718212782E+03  0.90861549127E+03  0.00000000000E+00 0.  1.
         21    1    1    2  502  501 -0.86454911178E+00 -0.28624174160E+02 -0.12816869208E+02  0.31374558607E+02  0.00000000000E+00 0.  1.
<mgrwt>
<rscale>  1 0.30000000E+03</rscale>
<asrwt>0</asrwt>
<pdfrwt beam="1">  1        1 0.42555850E+00 0.30000000E+03</pdfrwt>
<pdfrwt beam="2">0</pdfrwt>
<totfact> 0.74076605E-01</totfact>
</mgrwt>
</event>
<event>
 6    1  0.5260809E-006  0.3000000E+03  0.7818608E-02  0.1093470E+00
          1   -1    0    0  502    0  0.00000000000E+00  0.00000000000E+00  0.11835786848E+03  0.11835786848E+03  0.00000000000E+00 0.  1.
         13   -1    0    0    0    0 -0.00000000000E+00 -0.00000000000E+00 -0.10000000000E+04  0.10000000000E+04  0.00000000000E+00 0.  1.
    9000005    2    1    2  501    0  0.84464875514E+00  0.10236132466E+02 -0.89228652614E+03  0.11035661486E+04  0.64929000288E+03 0.  0.
         13    1    3    3    0    0  0.49200011558E+02 -0.68986946377E+02 -0.97534212171E+03  0.97901588051E+03  0.00000000000E+00 0.  1.
          1    1    3    3  501    0 -0.48355362803E+02  0.79223078843E+02  0.83055595573E+02  0.12455026812E+03  0.00000000000E+00 0.  1.
         21    1    1    2  502  501 -0.84464875514E+00 -0.10236132466E+02  0.10644394617E+02  0.14791719851E+02  0.00000000000E+00 0.  1.
<mgrwt>
<rscale>  1 0.30000000E+03</rscale>
<asrwt>0</asrwt>
<pdfrwt beam="1">  1        1 0.43039316E+00 0.30000000E+03</pdfrwt>
<pdfrwt beam="2">0</pdfrwt>
<totfact> 0.69069601E-01</totfact>
</mgrwt>
</event>
<event>
 6    1  0.5260809E-006  0.3000000E+03  0.7818608E-02  0.1093470E+00
          1   -1    0    0  502    0  0.00000000000E+00  0.00000000000E+00  0.11182960614E+03  0.11182960614E+03  0.00000000000E+00 0.  1.
         13   -1    0    0    0    0 -0.00000000000E+00 -0.00000000000E+00 -0.10000000000E+04  0.10000000000E+04  0.00000000000E+00 0.  1.
    9000005    2    1    2  501    0 -0.15893894939E+01 -0.37029343694E+02 -0.82890686672E+03  0.10419306498E+04  0.63020567021E+03 0.  0.
         13    1    3    3    0    0  0.27564527523E+03 -0.16972304349E+03 -0.41102856711E+03  0.52319280598E+03  0.00000000000E+00 0.  1.
          3    1    3    3  501    0 -0.27723466472E+03  0.13269369979E+03 -0.41787829961E+03  0.51873784378E+03  0.00000000000E+00 0.  1.
         21    1    1    2  502  501  0.15893894939E+01  0.37029343694E+02 -0.59263527144E+02  0.69898956379E+02  0.00000000000E+00 0.  1.
<mgrwt>
<rscale>  1 0.30000000E+03</rscale>
<asrwt>0</asrwt>
<pdfrwt beam="1">  1        1 0.40665397E+00 0.30000000E+03</pdfrwt>
<pdfrwt beam="2">0</pdfrwt>
<totfact> 0.96403411E-01</totfact>
</mgrwt>
</event>
<event>
 6    1  0.5260809E-006  0.3000000E+03  0.7818608E-02  0.1093470E+00
          1   -1    0    0  502    0  0.00000000000E+00  0.00000000000E+00  0.13388781186E+03  0.13388781186E+03  0.00000000000E+00 0.  1.
         13   -1    0    0    0    0 -0.00000000000E+00 -0.00000000000E+00 -0.10000000000E+04  0.10000000000E+04  0.00000000000E+00 0.  1.
    9000005    2    1    2  501    0 -0.58935497013E+01 -0.97371931240E+01 -0.87387699885E+03  0.11201095992E+04  0.70061041835E+03 0.  0.
         13    1    3    3    0    0 -0.27502637197E+03 -0.45238759610E+02 -0.93695623684E+02  0.29404918049E+03  0.00000000000E+00 0.  1.
          1    1    3    3  501    0  0.26913282227E+03  0.35501566486E+02 -0.78018137517E+03  0.82606041874E+03  0.00000000000E+00 0.  1.
         21    1    1    2  502  501  0.58935497013E+01  0.97371931240E+01  0.77648107085E+01  0.13778212633E+02  0.00000000000E+00 0.  1.
<mgrwt>
<rscale>  1 0.30000000E+03</rscale>
<asrwt>0</asrwt>
<pdfrwt beam="1">  1        1 0.48686580E+00 0.30000000E+03</pdfrwt>
<pdfrwt beam="2">0</pdfrwt>
<totfact> 0.28492864E-01</totfact>
</mgrwt>
</event>
<event>
 6    1  0.5260809E-006  0.3000000E+03  0.7818608E-02  0.1093470E+00
          1   -1    0    0  502    0  0.00000000000E+00  0.00000000000E+00  0.12509841712E+03  0.12509841712E+03  0.00000000000E+00 0.  1.
         13   -1    0    0    0    0 -0.00000000000E+00 -0.00000000000E+00 -0.10000000000E+04  0.10000000000E+04  0.00000000000E+00 0.  1.
    9000005    2    1    2  501    0  0.11062741389E+02  0.96954957424E+01 -0.89007105939E+03  0.11039678728E+04  0.65291820818E+03 0.  0.
         13    1    3    3    0    0 -0.21400000581E+03  0.14415404049E+03 -0.10905444113E+03  0.28012365306E+03  0.00000000000E+00 0.  1.
          3    1    3    3  501    0  0.22506274720E+03 -0.13445854475E+03 -0.78101661826E+03  0.82384421976E+03  0.00000000000E+00 0.  1.
         21    1    1    2  502  501 -0.11062741389E+02 -0.96954957424E+01  0.15169476506E+02  0.21130544295E+02  0.00000000000E+00 0.  1.
<mgrwt>
<rscale>  1 0.30000000E+03</rscale>
<asrwt>0</asrwt>
<pdfrwt beam="1">  1        1 0.45490429E+00 0.30000000E+03</pdfrwt>
<pdfrwt beam="2">0</pdfrwt>
<totfact> 0.47695008E-01</totfact>
</mgrwt>
</event>
<event>
 6    1  0.5260809E-006  0.3000000E+03  0.7818608E-02  0.1093470E+00
          1   -1    0    0  502    0  0.00000000000E+00  0.00000000000E+00  0.11674238976E+03  0.11674238976E+03  0.00000000000E+00 0.  1.
         13   -1    0    0    0    0 -0.00000000000E+00 -0.00000000000E+00 -0.10000000000E+04  0.10000000000E+04  0.00000000000E+00 0.  1.
    9000005    2    1    2  501    0 -0.16934200343E+02 -0.23011911460E+02 -0.86799055922E+03  0.10843479758E+04  0.64929700944E+03 0.  0.
         13    1    3    3    0    0 -0.11728109272E+03 -0.10298904233E+03  0.44956173680E+02  0.16242738409E+03  0.00000000000E+00 0.  1.
          3    1    3    3  501    0  0.10034689238E+03  0.79977130867E+02 -0.91294673290E+03  0.92192059169E+03  0.00000000000E+00 0.  1.
         21    1    1    2  502  501  0.16934200343E+02  0.23011911460E+02 -0.15267051026E+02  0.32394413984E+02  0.00000000000E+00 0. -1.
<mgrwt>
<rscale>  1 0.30000000E+03</rscale>
<asrwt>0</asrwt>
<pdfrwt beam="1">  1        1 0.42451868E+00 0.30000000E+03</pdfrwt>
<pdfrwt beam="2">0</pdfrwt>
<totfact> 0.75193423E-01</totfact>
</mgrwt>
</event>
<event>
 6    1  0.5260809E-006  0.3000000E+03  0.7818608E-02  0.1093470E+00
          1   -1    0    0  502    0  0.00000000000E+00  0.00000000000E+00  0.11437463015E+03  0.11437463015E+03  0.00000000000E+00 0.  1.
         13   -1    0    0    0    0 -0.00000000000E+00 -0.00000000000E+00 -0.10000000000E+04  0.10000000000E+04  0.00000000000E+00 0.  1.
    9000005    2    1    2  501    0  0.11106880450E+02  0.90028591662E+01 -0.88107486514E+03  0.10993705854E+04  0.65735709605E+03 0.  0.
         13    1    3    3    0    0 -0.32217146427E+02 -0.25337275818E+03 -0.76986040454E+03  0.81112313590E+03  0.00000000000E+00 0.  1.
          1    1    3    3  501    0  0.43324026877E+02  0.26237561734E+03 -0.11121446060E+03  0.28824744947E+03  0.00000000000E+00 0.  1.
         21    1    1    2  502  501 -0.11106880450E+02 -0.90028591662E+01 -0.45505047152E+01  0.15004044777E+02  0.00000000000E+00 0.  1.
<mgrwt>
<rscale>  1 0.30000000E+03</rscale>
<asrwt>0</asrwt>
<pdfrwt beam="1">  1        1 0.41590862E+00 0.30000000E+03</pdfrwt>
<pdfrwt beam="2">0</pdfrwt>
<totfact> 0.84941969E-01</totfact>
</mgrwt>
</event>
<event>
 6    1  0.5260809E-006  0.3000000E+03  0.7818608E-02  0.1093470E+00
          1   -1    0    0  502    0  0.00000000000E+00  0.00000000000E+00  0.11842666688E+03  0.11842666688E+03  0.00000000000E+00 0.  1.
         13   -1    0    0    0    0 -0.00000000000E+00 -0.00000000000E+00 -0.10000000000E+04  0.10000000000E+04  0.00000000000E+00 0.  1.
    9000005    2    1    2  501    0 -0.18873975450E+02 -0.81579965098E+01 -0.88309136947E+03  0.10978090945E+04  0.65185248429E+03 0.  0.
         13    1    3    3    0    0  0.11409992243E+03  0.54328437419E+02 -0.93385180570E+03  0.94236381850E+03  0.00000000000E+00 0.  1.
          3    1    3    3  501    0 -0.13297389788E+03 -0.62486433929E+02  0.50760436231E+02  0.15544527599E+03  0.00000000000E+00 0.  1.
         21    1    1    2  502  501  0.18873975450E+02  0.81579965098E+01  0.15180363480E+01  0.20617572376E+02  0.00000000000E+00 0.  1.
<mgrwt>
<rscale>  1 0.30000000E+03</rscale>
<asrwt>0</asrwt>
<pdfrwt beam="1">  1        1 0.43064333E+00 0.30000000E+03</pdfrwt>
<pdfrwt beam="2">0</pdfrwt>
<totfact> 0.68818582E-01</totfact>
</mgrwt>
</event>
<event>
 6    1  0.5260809E-006  0.3000000E+03  0.7818608E-02  0.1093470E+00
          1   -1    0    0  502    0  0.00000000000E+00  0.00000000000E+00  0.10696191094E+03  0.10696191094E+03  0.00000000000E+00 0.  1.
         13   -1    0    0    0    0 -0.00000000000E+00 -0.00000000000E+00 -0.10000000000E+04  0.10000000000E+04  0.00000000000E+00 0.  1.
    9000005    2    1    2  501    0 -0.14604472873E+02 -0.69857322659E+01 -0.87923052378E+03  0.10856842244E+04  0.63671173241E+03 0.  0.
         13    1    3    3    0    0 -0.75639082642E+02 -0.16652860589E+03  0.71035571425E+01  0.18303963486E+03  0.00000000000E+00 0.  1.
          3    1    3    3  501    0  0.61034609769E+02  0.15954287363E+03 -0.88633408092E+03  0.90264458959E+03  0.00000000000E+00 0.  1.
         21    1    1    2  502  501  0.14604472873E+02  0.69857322659E+01 -0.13807565287E+02  0.21277686490E+02  0.00000000000E+00 0.  1.
<mgrwt>
<rscale>  1 0.30000000E+03</rscale>
<asrwt>0</asrwt>
<pdfrwt beam="1">  1        1 0.38895322E+00 0.30000000E+03</pdfrwt>
<pdfrwt beam="2">0</pdfrwt>
<totfact> 0.12154636E+00</totfact>
</mgrwt>
</event>
<event>
 6    1  0.5260809E-006  0.3000000E+03  0.7818608E-02  0.1093470E+00
          1   -1    0    0  502    0  0.00000000000E+00  0.00000000000E+00  0.16459281900E+03  0.16459281900E+03  0.00000000000E+00 0.  1.
         13   -1    0    0    0    0 -0.00000000000E+00 -0.00000000000E+00 -0.10000000000E+04  0.10000000000E+04  0.00000000000E+00 0.  1.
    9000005    2    1    2  501    0  0.17602830667E+02  0.11348277175E+03 -0.80409190090E+03  0.10455598576E+04  0.65836420894E+03 0.  0.
         13    1    3    3    0    0 -0.18425523413E+03  0.26166117147E+03 -0.70868568459E+03  0.77759369821E+03  0.00000000000E+00 0.  1.
          1    1    3    3  501    0  0.20185806480E+03 -0.14817839972E+03 -0.95406216308E+02  0.26796615939E+03  0.00000000000E+00 0.  1.
         21    1    1    2  502  501 -0.17602830667E+02 -0.11348277175E+03 -0.31315280099E+02  0.11903296140E+03  0.00000000000E+00 0. -1.
<mgrwt>
<rscale>  1 0.30000000E+03</rscale>
<asrwt>0</asrwt>
<pdfrwt beam="1">  1        1 0.59852060E+00 0.30000000E+03</pdfrwt>
<pdfrwt beam="2">0</pdfrwt>
<totfact> 0.59475276E-02</totfact>
</mgrwt>
</event>
<event>
 6    1  0.5260809E-006  0.3000000E+03  0.7818608E-02  0.1093470E+00
          1   -1    0    0  502    0  0.00000000000E+00  0.00000000000E+00  0.12487957648E+03  0.12487957648E+03  0.00000000000E+00 0.  1.
         13   -1    0    0    0    0 -0.00000000000E+00 -0.00000000000E+00 -0.10000000000E+04  0.10000000000E+04  0.00000000000E+00 0.  1.
    9000005    2    1    2  501    0  0.14577023275E+02  0.57461330607E+01 -0.89305279627E+03  0.11010661843E+04  0.64386173804E+03 0.  0.
         13    1    3    3    0    0 -0.18899848397E+03  0.25681685717E+03 -0.40065905574E+03  0.51205761787E+03  0.00000000000E+00 0.  1.
          1    1    3    3  501    0  0.20357550725E+03 -0.25107072411E+03 -0.49239374053E+03  0.58900856646E+03  0.00000000000E+00 0.  1.
         21    1    1    2  502  501 -0.14577023275E+02 -0.57461330607E+01  0.17932372749E+02  0.23813392138E+02  0.00000000000E+00 0. -1.
<mgrwt>
<rscale>  1 0.30000000E+03</rscale>
<asrwt>0</asrwt>
<pdfrwt beam="1">  1        1 0.45410851E+00 0.30000000E+03</pdfrwt>
<pdfrwt beam="2">0</pdfrwt>
<totfact> 0.48285897E-01</totfact>
</mgrwt>
</event>
<event>
 6    1  0.5260809E-006  0.3000000E+03  0.7818608E-02  0.1093470E+00
          1   -1    0    0  502    0  0.00000000000E+00  0.00000000000E+00  0.13939930770E+03  0.13939930770E+03  0.00000000000E+00 0.  1.
         13   -1    0    0    0    0 -0.00000000000E+00 -0.00000000000E+00 -0.10000000000E+04  0.10000000000E+04  0.00000000000E+00 0.  1.
    9000005    2    1    2  501    0  0.21949250304E+02 -0.20591032502E+02 -0.88278702828E+03  0.11020095536E+04  0.65894336532E+03 0.  0.
         13    1    3    3    0    0  0.20083441615E+03 -0.14201910764E+03 -0.62615901503E+02  0.25382009528E+03  0.00000000000E+00 0.  1.
          1    1    3    3  501    0 -0.17888516585E+03  0.12142807514E+03 -0.82017112678E+03  0.84818945831E+03  0.00000000000E+00 0.  1.
         21    1    1    2  502  501 -0.21949250304E+02  0.20591032502E+02  0.22186335981E+02  0.37389754113E+02  0.00000000000E+00 0. -1.
<mgrwt>
<rscale>  1 0.30000000E+03</rscale>
<asrwt>0</asrwt>
<pdfrwt beam="1">  1        1 0.50690764E+00 0.30000000E+03</pdfrwt>
<pdfrwt beam="2">0</pdfrwt>
<totfact> 0.20324658E-01</totfact>
</mgrwt>
</event>
<event>
 6    1  0.5260809E-006  0.3000000E+03  0.7818608E-02  0.1093470E+00
          1   -1    0    0  502    0  0.00000000000E+00  0.00000000000E+00  0.12176567392E+03  0.12176567392E+03  0.00000000000E+00 0.  1.
         13   -1    0    0    0    0 -0.00000000000E+00 -0.00000000000E+00 -0.10000000000E+04  0.10000000000E+04  0.00000000000E+00 0.  1.
    9000005    2    1    2  501    0  0.12724007723E+02  0.20681836722E+02 -0.87862532285E+03  0.10974800481E+04  0.65718365720E+03 0.  0.
         13    1    3    3    0    0 -0.20044041748E+03  0.21721455908E+03 -0.69251069030E+03  0.75294726364E+03  0.00000000000E+00 0.  1.
          1    1    3    3  501    0  0.21316442520E+03 -0.19653272236E+03 -0.18611463255E+03  0.34453278447E+03  0.00000000000E+00 0.  1.
         21    1    1    2  502  501 -0.12724007723E+02 -0.20681836722E+02  0.39099677663E+00  0.24285625814E+02  0.00000000000E+00 0.  1.
<mgrwt>
<rscale>  1 0.30000000E+03</rscale>
<asrwt>0</asrwt>
<pdfrwt beam="1">  1        1 0.44278520E+00 0.30000000E+03</pdfrwt>
<pdfrwt beam="2">0</pdfrwt>
<totfact> 0.57479476E-01</totfact>
</mgrwt>
</event>
<event>
 6    1  0.5260809E-006  0.3000000E+03  0.7818608E-02  0.1093470E+00
          1   -1    0    0  502    0  0.00000000000E+00  0.00000000000E+00  0.10371763788E+03  0.10371763788E+03  0.00000000000E+00 0.  1.
         13   -1    0    0    0    0 -0.00000000000E+00 -0.00000000000E+00 -0.10000000000E+04  0.10000000000E+04  0.00000000000E+00 0.  1.
    9000005    2    1    2  501    0 -0.10963274161E+01 -0.11452364823E+02 -0.91446315009E+03  0.10822025352E+04  0.57860791184E+03 0.  0.
         13    1    3    3    0    0 -0.20037575947E+03 -0.17412128881E+03 -0.23086622772E+03  0.35180659928E+03  0.00000000000E+00 0.  1.
          3    1    3    3  501    0  0.19927943205E+03  0.16266892398E+03 -0.68359692237E+03  0.73039593588E+03  0.00000000000E+00 0.  1.
         21    1    1    2  502  501  0.10963274161E+01  0.11452364823E+02  0.18180787969E+02  0.21515102719E+02  0.00000000000E+00 0.  1.
<mgrwt>
<rscale>  1 0.30000000E+03</rscale>
<asrwt>0</asrwt>
<pdfrwt beam="1">  1        1 0.37715584E+00 0.30000000E+03</pdfrwt>
<pdfrwt beam="2">0</pdfrwt>
<totfact> 0.14120043E+00</totfact>
</mgrwt>
</event>
<event>
 6    1  0.5260809E-006  0.3000000E+03  0.7818608E-02  0.1093470E+00
          1   -1    0    0  502    0  0.00000000000E+00  0.00000000000E+00  0.10907745966E+03  0.10907745966E+03  0.00000000000E+00 0.  1.
         13   -1    0    0    0    0 -0.00000000000E+00 -0.00000000000E+00 -0.10000000000E+04  0.10000000000E+04  0.00000000000E+00 0.  1.
    9000005    2    1    2  501    0 -0.59102701088E+01 -0.87853518430E+01 -0.88270311154E+03  0.10956732547E+04  0.64901693686E+03 0.  0.
         13    1    3    3    0    0  0.11623562702E+03 -0.16939812596E+03 -0.86952044398E+03  0.89346082654E+03  0.00000000000E+00 0.  1.
          3    1    3    3  501    0 -0.12214589713E+03  0.16061277411E+03 -0.13182667556E+02  0.20221242820E+03  0.00000000000E+00 0.  1.
         21    1    1    2  502  501  0.59102701088E+01  0.87853518430E+01 -0.82194288032E+01  0.13404204923E+02  0.00000000000E+00 0. -1.
<mgrwt>
<rscale>  1 0.30000000E+03</rscale>
<asrwt>0</asrwt>
<pdfrwt beam="1">  1        1 0.39664614E+00 0.30000000E+03</pdfrwt>
<pdfrwt beam="2">0</pdfrwt>
<totfact> 0.11003503E+00</totfact>
</mgrwt>
</event>
<event>
 6    1  0.5260809E-006  0.3000000E+03  0.7818608E-02  0.1093470E+00
          1   -1    0    0  502    0  0.00000000000E+00  0.00000000000E+00  0.14379701457E+03  0.14379701457E+03  0.00000000000E+00 0.  1.
         13   -1    0    0    0    0 -0.00000000000E+00 -0.00000000000E+00 -0.10000000000E+04  0.10000000000E+04  0.00000000000E+00 0.  1.
    9000005    2    1    2  501    0 -0.17011535561E+02  0.80294920430E+02 -0.81738164760E+03  0.10530018448E+04  0.65875903081E+03 0.  0.
         13    1    3    3    0    0  0.11078579829E+03  0.17007109357E+03 -0.86597014623E+03  0.88943912896E+03  0.00000000000E+00 0.  1.
          3    1    3    3  501    0 -0.12779733385E+03 -0.89776173144E+02  0.48588498631E+02  0.16356271581E+03  0.00000000000E+00 0.  1.
         21    1    1    2  502  501  0.17011535561E+02 -0.80294920430E+02 -0.38821337831E+02  0.90795169805E+02  0.00000000000E+00 0.  1.
<mgrwt>
<rscale>  1 0.30000000E+03</rscale>
<asrwt>0</asrwt>
<pdfrwt beam="1">  1        1 0.52289934E+00 0.30000000E+03</pdfrwt>
<pdfrwt beam="2">0</pdfrwt>
<totfact> 0.15459391E-01</totfact>
</mgrwt>
</event>
<event>
 6    1  0.5260809E-006  0.3000000E+03  0.7818608E-02  0.1093470E+00
          1   -1    0    0  502    0  0.00000000000E+00  0.00000000000E+00  0.10016273192E+03  0.10016273192E+03  0.00000000000E+00 0.  1.
         13   -1    0    0    0    0 -0.00000000000E+00 -0.00000000000E+00 -0.10000000000E+04  0.10000000000E+04  0.00000000000E+00 0.  1.
    9000005    2    1    2  501    0  0.25573352777E+01  0.99184692569E+01 -0.89975901061E+03  0.10899195820E+04  0.61502317197E+03 0.  0.
         13    1    3    3    0    0  0.18311853973E+03  0.24200373639E+02 -0.88953068089E+03  0.90850585574E+03  0.00000000000E+00 0.  1.
          1    1    3    3  501    0 -0.18056120445E+03 -0.14281904382E+02 -0.10228329720E+02  0.18141372626E+03  0.00000000000E+00 0.  1.
         21    1    1    2  502  501 -0.25573352777E+01 -0.99184692569E+01 -0.78257468351E-01  0.10243149923E+02  0.00000000000E+00 0.  1.
<mgrwt>
<rscale>  1 0.30000000E+03</rscale>
<asrwt>0</asrwt>
<pdfrwt beam="1">  1        1 0.36422888E+00 0.30000000E+03</pdfrwt>
<pdfrwt beam="2">0</pdfrwt>
<totfact> 0.16577940E+00</totfact>
</mgrwt>
</event>
<event>
 6    1  0.5260809E-006  0.3000000E+03  0.7818608E-02  0.1093470E+00
          1   -1    0    0  502    0  0.00000000000E+00  0.00000000000E+00  0.13278112541E+03  0.13278112541E+03  0.00000000000E+00 0.  1.
         13   -1    0    0    0    0 -0.00000000000E+00 -0.00000000000E+00 -0.10000000000E+04  0.10000000000E+04  0.00000000000E+00 0.  1.
    9000005    2    1    2  501    0  0.14684047145E+00  0.11872783114E+02 -0.89333845207E+03  0.11040893693E+04  0.64870545005E+03 0.  0.
         13    1    3    3    0    0  0.21625671953E+02  0.10457273623E+03 -0.97370104816E+03  0.97953910491E+03  0.00000000000E+00 0.  1.
          3    1    3    3  501    0 -0.21478831482E+02 -0.92699953118E+02  0.80362596096E+02  0.12455026440E+03  0.00000000000E+00 0.  1.
         21    1    1    2  502  501 -0.14684047145E+00 -0.11872783114E+02  0.26119577474E+02  0.28691756105E+02  0.00000000000E+00 0.  1.
<mgrwt>
<rscale>  1 0.30000000E+03</rscale>
<asrwt>0</asrwt>
<pdfrwt beam="1">  1        1 0.48284147E+00 0.30000000E+03</pdfrwt>
<pdfrwt beam="2">0</pdfrwt>
<totfact> 0.30470725E-01</totfact>
</mgrwt>
</event>
<event>
 6    1  0.5260809E-006  0.3000000E+03  0.7818608E-02  0.1093470E+00
          1   -1    0    0  502    0  0.00000000000E+00  0.00000000000E+00  0.11801143423E+03  0.11801143423E+03  0.00000000000E+00 0.  1.
         13   -1    0    0    0    0 -0.00000000000E+00 -0.00000000000E+00 -0.10000000000E+04  0.10000000000E+04  0.00000000000E+00 0.  1.
    9000005    2    1    2  501    0  0.27858906628E+02  0.15833806400E+02 -0.87074196383E+03  0.10840509549E+04  0.64494036706E+03 0.  0.
         13    1    3    3    0    0  0.29191907984E+03 -0.14375962245E+03 -0.54962623375E+03  0.63872730883E+03  0.00000000000E+00 0.  1.
          1    1    3    3  501    0 -0.26406017321E+03  0.15959342885E+03 -0.32111573008E+03  0.44532364603E+03  0.00000000000E+00 0.  1.
         21    1    1    2  502  501 -0.27858906628E+02 -0.15833806400E+02 -0.11246601942E+02  0.33960479368E+02  0.00000000000E+00 0.  1.
<mgrwt>
<rscale>  1 0.30000000E+03</rscale>
<asrwt>0</asrwt>
<pdfrwt beam="1">  1        1 0.42913339E+00 0.30000000E+03</pdfrwt>
<pdfrwt beam="2">0</pdfrwt>
<totfact> 0.70345251E-01</totfact>
</mgrwt>
</event>
<event>
 6    1  0.5260809E-006  0.3000000E+03  0.7818608E-02  0.1093470E+00
          1   -1    0    0  502    0  0.00000000000E+00  0.00000000000E+00  0.12358442387E+03  0.12358442387E+03  0.00000000000E+00 0.  1.
         13   -1    0    0    0    0 -0.00000000000E+00 -0.00000000000E+00 -0.10000000000E+04  0.10000000000E+04  0.00000000000E+00 0.  1.
    9000005    2    1    2  501    0 -0.58928437148E+01  0.25239482685E+02 -0.87904949660E+03  0.10975326556E+04  0.65664157310E+03 0.  0.
         13    1    3    3    0    0 -0.21457882315E+03 -0.10280308610E+03 -0.80842789388E+03  0.84271478298E+03  0.00000000000E+00 0.  1.
          1    1    3    3  501    0  0.20868597943E+03  0.12804256878E+03 -0.70621602724E+02  0.25481787261E+03  0.00000000000E+00 0.  1.
         21    1    1    2  502  501  0.58928437148E+01 -0.25239482685E+02  0.26339204693E+01  0.26051768275E+02  0.00000000000E+00 0. -1.
<mgrwt>
<rscale>  1 0.30000000E+03</rscale>
<asrwt>0</asrwt>
<pdfrwt beam="1">  1        1 0.44939885E+00 0.30000000E+03</pdfrwt>
<pdfrwt beam="2">0</pdfrwt>
<totfact> 0.51935682E-01</totfact>
</mgrwt>
</event>
<event>
 6    1  0.5260809E-006  0.3000000E+03  0.7818608E-02  0.1093470E+00
          1   -1    0    0  502    0  0.00000000000E+00  0.00000000000E+00  0.11266028080E+03  0.11266028080E+03  0.00000000000E+00 0.  1.
         13   -1    0    0    0    0 -0.00000000000E+00 -0.00000000000E+00 -0.10000000000E+04  0.10000000000E+04  0.00000000000E+00 0.  1.
    9000005    2    1    2  501    0  0.17079983748E+02 -0.96688890100E+00 -0.85765063148E+03  0.10783950995E+04  0.65351260452E+03 0.  0.
         13    1    3    3    0    0  0.23628851358E+03 -0.15124184190E+03 -0.14086904167E+03  0.31392744909E+03  0.00000000000E+00 0.  1.
          3    1    3    3  501    0 -0.21920852984E+03  0.15027495300E+03 -0.71678158981E+03  0.76446765043E+03  0.00000000000E+00 0.  1.
         21    1    1    2  502  501 -0.17079983748E+02  0.96688890100E+00 -0.29689087717E+02  0.34265181284E+02  0.00000000000E+00 0. -1.
<mgrwt>
<rscale>  1 0.30000000E+03</rscale>
<asrwt>0</asrwt>
<pdfrwt beam="1">  1        1 0.40967461E+00 0.30000000E+03</pdfrwt>
<pdfrwt beam="2">0</pdfrwt>
<totfact> 0.92543903E-01</totfact>
</mgrwt>
</event>
<event>
 6    1  0.5260809E-006  0.3000000E+03  0.7818608E-02  0.1093470E+00
          1   -1    0    0  502    0  0.00000000000E+00  0.00000000000E+00  0.11612516748E+03  0.11612516748E+03  0.00000000000E+00 0.  1.
         13   -1    0    0    0    0 -0.00000000000E+00 -0.00000000000E+00 -0.10000000000E+04  0.10000000000E+04  0.00000000000E+00 0.  1.
    9000005    2    1    2  501    0 -0.17580352281E+02 -0.48981412804E+01 -0.88017249513E+03  0.10975034630E+04  0.65534507674E+03 0.  0.
         13    1    3    3    0    0 -0.30957631996E+03  0.18673274683E+02 -0.23558080334E+03  0.38946694849E+03  0.00000000000E+00 0.  1.
          3    1    3    3  501    0  0.29199596768E+03 -0.23571415963E+02 -0.64459169179E+03  0.70803651454E+03  0.00000000000E+00 0.  1.
         21    1    1    2  502  501  0.17580352281E+02  0.48981412804E+01 -0.37023373884E+01  0.18621704446E+02  0.00000000000E+00 0. -1.
<mgrwt>
<rscale>  1 0.30000000E+03</rscale>
<asrwt>0</asrwt>
<pdfrwt beam="1">  1        1 0.42227423E+00 0.30000000E+03</pdfrwt>
<pdfrwt beam="2">0</pdfrwt>
<totfact> 0.77650547E-01</totfact>
</mgrwt>
</event>
<event>
 6    1  0.5260809E-006  0.3000000E+03  0.7818608E-02  0.1093470E+00
          1   -1    0    0  502    0  0.00000000000E+00  0.00000000000E+00  0.12587920234E+03  0.12587920234E+03  0.00000000000E+00 0.  1.
         13   -1    0    0    0    0 -0.00000000000E+00 -0.00000000000E+00 -0.10000000000E+04  0.10000000000E+04  0.00000000000E+00 0.  1.
    9000005    2    1    2  501    0  0.91116709737E+01  0.10137709599E+02 -0.89385284564E+03  0.11018969293E+04  0.64421901353E+03 0.  0.
         13    1    3    3    0    0 -0.27675936049E+03 -0.91046588820E+02 -0.65157978666E+03  0.71375166784E+03  0.00000000000E+00 0.  1.
          1    1    3    3  501    0  0.28587103146E+03  0.10118429842E+03 -0.24227305897E+03  0.38814526144E+03  0.00000000000E+00 0.  1.
         21    1    1    2  502  501 -0.91116709737E+01 -0.10137709599E+02  0.19732047975E+02  0.23982273060E+02  0.00000000000E+00 0.  1.
<mgrwt>
<rscale>  1 0.30000000E+03</rscale>
<asrwt>0</asrwt>
<pdfrwt beam="1">  1        1 0.45774352E+00 0.30000000E+03</pdfrwt>
<pdfrwt beam="2">0</pdfrwt>
<totfact> 0.45642772E-01</totfact>
</mgrwt>
</event>
<event>
 6    1  0.5260809E-006  0.3000000E+03  0.7818608E-02  0.1093470E+00
          1   -1    0    0  502    0  0.00000000000E+00  0.00000000000E+00  0.11182701752E+03  0.11182701752E+03  0.00000000000E+00 0.  1.
         13   -1    0    0    0    0 -0.00000000000E+00 -0.00000000000E+00 -0.10000000000E+04  0.10000000000E+04  0.00000000000E+00 0.  1.
    9000005    2    1    2  501    0 -0.10602434343E+02  0.37174130328E+01 -0.88538585721E+03  0.11002512307E+04  0.65308377999E+03 0.  0.
         13    1    3    3    0    0 -0.10526876707E+03  0.31252463952E+03 -0.42777050138E+03  0.54013032268E+03  0.00000000000E+00 0.  1.
          1    1    3    3  501    0  0.94666332731E+02 -0.30880722649E+03 -0.45761535583E+03  0.56012090800E+03  0.00000000000E+00 0.  1.
         21    1    1    2  502  501  0.10602434343E+02 -0.37174130328E+01 -0.27871252667E+01  0.11575786838E+02  0.00000000000E+00 0.  1.
<mgrwt>
<rscale>  1 0.30000000E+03</rscale>
<asrwt>0</asrwt>
<pdfrwt beam="1">  1        1 0.40664456E+00 0.30000000E+03</pdfrwt>
<pdfrwt beam="2">0</pdfrwt>
<totfact> 0.96415621E-01</totfact>
</mgrwt>
</event>
<event>
 6    1  0.5260809E-006  0.3000000E+03  0.7818608E-02  0.1093470E+00
          1   -1    0    0  502    0  0.00000000000E+00  0.00000000000E+00  0.10628846737E+03  0.10628846737E+03  0.00000000000E+00 0.  1.
         13   -1    0    0    0    0 -0.00000000000E+00 -0.00000000000E+00 -0.10000000000E+04  0.10000000000E+04  0.00000000000E+00 0.  1.
    9000005    2    1    2  501    0 -0.59774599079E+00  0.12010848070E+02 -0.88994982292E+03  0.10936881407E+04  0.63560871932E+03 0.  0.
         13    1    3    3    0    0 -0.24143788018E+03 -0.18731651923E+03 -0.56764986187E+03  0.64467518492E+03  0.00000000000E+00 0.  1.
          1    1    3    3  501    0  0.24084013419E+03  0.19932736730E+03 -0.32229996105E+03  0.44901295581E+03  0.00000000000E+00 0.  1.
         21    1    1    2  502  501  0.59774599079E+00 -0.12010848070E+02 -0.37617097069E+01  0.12600326644E+02  0.00000000000E+00 0.  1.
<mgrwt>
<rscale>  1 0.30000000E+03</rscale>
<asrwt>0</asrwt>
<pdfrwt beam="1">  1        1 0.38650433E+00 0.30000000E+03</pdfrwt>
<pdfrwt beam="2">0</pdfrwt>
<totfact> 0.12542560E+00</totfact>
</mgrwt>
</event>
<event>
 6    1  0.5260809E-006  0.3000000E+03  0.7818608E-02  0.1093470E+00
          1   -1    0    0  502    0  0.00000000000E+00  0.00000000000E+00  0.13103165901E+03  0.13103165901E+03  0.00000000000E+00 0.  1.
         13   -1    0    0    0    0 -0.00000000000E+00 -0.00000000000E+00 -0.10000000000E+04  0.10000000000E+04  0.00000000000E+00 0.  1.
    9000005    2    1    2  501    0 -0.13197369131E+02 -0.47663877629E+02 -0.85693298070E+03  0.10801311121E+04  0.65566993987E+03 0.  0.
         13    1    3    3    0    0 -0.59179225140E+02  0.30050854121E+03 -0.39212220637E+03  0.49756144219E+03  0.00000000000E+00 0.  1.
          1    1    3    3  501    0  0.45981856009E+02 -0.34817241884E+03 -0.46481077434E+03  0.58256966988E+03  0.00000000000E+00 0.  1.
         21    1    1    2  502  501  0.13197369131E+02  0.47663877629E+02 -0.12035360285E+02  0.50900546950E+02  0.00000000000E+00 0.  1.
<mgrwt>
<rscale>  1 0.30000000E+03</rscale>
<asrwt>0</asrwt>
<pdfrwt beam="1">  1        1 0.47647976E+00 0.30000000E+03</pdfrwt>
<pdfrwt beam="2">0</pdfrwt>
<totfact> 0.33843810E-01</totfact>
</mgrwt>
</event>
<event>
 6    1  0.5260809E-006  0.3000000E+03  0.7818608E-02  0.1093470E+00
          1   -1    0    0  502    0  0.00000000000E+00  0.00000000000E+00  0.13356869425E+03  0.13356869425E+03  0.00000000000E+00 0.  1.
         13   -1    0    0    0    0 -0.00000000000E+00 -0.00000000000E+00 -0.10000000000E+04  0.10000000000E+04  0.00000000000E+00 0.  1.
    9000005    2    1    2  501    0  0.50838944410E+01  0.11639737393E+02 -0.89348648082E+03  0.11036803693E+04  0.64778926879E+03 0.  0.
         13    1    3    3    0    0 -0.20555010816E+03  0.25037156961E+03 -0.52297155987E+03  0.61517153889E+03  0.00000000000E+00 0.  1.
          3    1    3    3  501    0  0.21063400260E+03 -0.23873183221E+03 -0.37051492095E+03  0.48850883043E+03  0.00000000000E+00 0.  1.
         21    1    1    2  502  501 -0.50838944410E+01 -0.11639737393E+02  0.27055175067E+02  0.29888324931E+02  0.00000000000E+00 0.  1.
<mgrwt>
<rscale>  1 0.30000000E+03</rscale>
<asrwt>0</asrwt>
<pdfrwt beam="1">  1        1 0.48570537E+00 0.30000000E+03</pdfrwt>
<pdfrwt beam="2">0</pdfrwt>
<totfact> 0.29050949E-01</totfact>
</mgrwt>
</event>
<event>
 6    1  0.5260809E-006  0.3000000E+03  0.7818608E-02  0.1093470E+00
          1   -1    0    0  502    0  0.00000000000E+00  0.00000000000E+00  0.11427440515E+03  0.11427440515E+03  0.00000000000E+00 0.  1.
         13   -1    0    0    0    0 -0.00000000000E+00 -0.00000000000E+00 -0.10000000000E+04  0.10000000000E+04  0.00000000000E+00 0.  1.
    9000005    2    1    2  501    0 -0.15079152422E+02 -0.88218066763E+01 -0.88643886793E+03  0.10967897299E+04  0.64565365319E+03 0.  0.
         13    1    3    3    0    0  0.19930823480E+03  0.23751002465E+03 -0.33948975107E+03  0.45976958941E+03  0.00000000000E+00 0.  1.
          1    1    3    3  501    0 -0.21438738723E+03 -0.24633183132E+03 -0.54694911687E+03  0.63702014047E+03  0.00000000000E+00 0.  1.
         21    1    1    2  502  501  0.15079152422E+02  0.88218066763E+01  0.71327308060E+00  0.17484675270E+02  0.00000000000E+00 0.  1.
<mgrwt>
<rscale>  1 0.30000000E+03</rscale>
<asrwt>0</asrwt>
<pdfrwt beam="1">  1        1 0.41554417E+00 0.30000000E+03</pdfrwt>
<pdfrwt beam="2">0</pdfrwt>
<totfact> 0.85373160E-01</totfact>
</mgrwt>
</event>
<event>
 6    1  0.5260809E-006  0.3000000E+03  0.7818608E-02  0.1093470E+00
          1   -1    0    0  502    0  0.00000000000E+00  0.00000000000E+00  0.12366588766E+03  0.12366588766E+03  0.00000000000E+00 0.  1.
         13   -1    0    0    0    0 -0.00000000000E+00 -0.00000000000E+00 -0.10000000000E+04  0.10000000000E+04  0.00000000000E+00 0.  1.
    9000005    2    1    2  501    0 -0.10737013441E+02 -0.42848112658E+01 -0.89601029651E+03  0.11008449480E+04  0.63944624866E+03 0.  0.
         13    1    3    3    0    0  0.24242310565E+03 -0.12237514922E+03 -0.16374988200E+03  0.31710985976E+03  0.00000000000E+00 0.  1.
          1    1    3    3  501    0 -0.25316011909E+03  0.11809033795E+03 -0.73226041451E+03  0.78373508820E+03  0.00000000000E+00 0.  1.
         21    1    1    2  502  501  0.10737013441E+02  0.42848112658E+01  0.19676184170E+02  0.22820939698E+02  0.00000000000E+00 0. -1.
<mgrwt>
<rscale>  1 0.30000000E+03</rscale>
<asrwt>0</asrwt>
<pdfrwt beam="1">  1        1 0.44969509E+00 0.30000000E+03</pdfrwt>
<pdfrwt beam="2">0</pdfrwt>
<totfact> 0.51698444E-01</totfact>
</mgrwt>
</event>
<event>
 6    1  0.5260809E-006  0.3000000E+03  0.7818608E-02  0.1093470E+00
          1   -1    0    0  502    0  0.00000000000E+00  0.00000000000E+00  0.12477472655E+03  0.12477472655E+03  0.00000000000E+00 0.  1.
         13   -1    0    0    0    0 -0.00000000000E+00 -0.00000000000E+00 -0.10000000000E+04  0.10000000000E+04  0.00000000000E+00 0.  1.
    9000005    2    1    2  501    0  0.81660240308E+01  0.13525782903E+01 -0.86728873011E+03  0.11133072884E+04  0.69799345534E+03 0.  0.
         13    1    3    3    0    0  0.19206847437E+03 -0.28317201670E+03 -0.55812758730E+03  0.65466257996E+03  0.00000000000E+00 0.  1.
          3    1    3    3  501    0 -0.18390245034E+03  0.28452459499E+03 -0.30916114281E+03  0.45864470848E+03  0.00000000000E+00 0.  1.
         21    1    1    2  502  501 -0.81660240308E+01 -0.13525782903E+01 -0.79365433387E+01  0.11467438104E+02  0.00000000000E+00 0. -1.
<mgrwt>
<rscale>  1 0.30000000E+03</rscale>
<asrwt>0</asrwt>
<pdfrwt beam="1">  1        1 0.45372724E+00 0.30000000E+03</pdfrwt>
<pdfrwt beam="2">0</pdfrwt>
<totfact> 0.48571569E-01</totfact>
</mgrwt>
</event>
<event>
 6    1  0.5260809E-006  0.3000000E+03  0.7818608E-02  0.1093470E+00
          1   -1    0    0  502    0  0.00000000000E+00  0.00000000000E+00  0.12519908016E+03  0.12519908016E+03  0.00000000000E+00 0.  1.
         13   -1    0    0    0    0 -0.00000000000E+00 -0.00000000000E+00 -0.10000000000E+04  0.10000000000E+04  0.00000000000E+00 0.  1.
    9000005    2    1    2  501    0  0.45268921132E+02 -0.25202514382E+02 -0.84668081910E+03  0.10662484057E+04  0.64601301173E+03 0.  0.
         13    1    3    3    0    0  0.17306945051E+03 -0.12952970514E+03 -0.87284003407E+03  0.89921115668E+03  0.00000000000E+00 0.  1.
          1    1    3    3  501    0 -0.12780052938E+03  0.10432719076E+03  0.26159214972E+02  0.16703724905E+03  0.00000000000E+00 0.  1.
         21    1    1    2  502  501 -0.45268921132E+02  0.25202514382E+02 -0.28120100737E+02  0.58950674441E+02  0.00000000000E+00 0.  1.
<mgrwt>
<rscale>  1 0.30000000E+03</rscale>
<asrwt>0</asrwt>
<pdfrwt beam="1">  1        1 0.45527034E+00 0.30000000E+03</pdfrwt>
<pdfrwt beam="2">0</pdfrwt>
<totfact> 0.47425592E-01</totfact>
</mgrwt>
</event>
<event>
 6    1  0.5260809E-006  0.3000000E+03  0.7818608E-02  0.1093470E+00
          1   -1    0    0  502    0  0.00000000000E+00  0.00000000000E+00  0.11837520248E+03  0.11837520248E+03  0.00000000000E+00 0.  1.
         13   -1    0    0    0    0 -0.00000000000E+00 -0.00000000000E+00 -0.10000000000E+04  0.10000000000E+04  0.00000000000E+00 0.  1.
    9000005    2    1    2  501    0  0.48092349570E+02 -0.49655065662E+00 -0.82226786438E+03  0.10419790890E+04  0.63818716719E+03 0.  0.
         13    1    3    3    0    0  0.32731763638E+03  0.38699374753E+02 -0.59352166092E+03  0.67889795895E+03  0.00000000000E+00 0.  1.
          1    1    3    3  501    0 -0.27922528681E+03 -0.39195925409E+02 -0.22874620346E+03  0.36308113000E+03  0.00000000000E+00 0.  1.
         21    1    1    2  502  501 -0.48092349570E+02  0.49655065662E+00 -0.59356933144E+02  0.76396113527E+02  0.00000000000E+00 0.  1.
<mgrwt>
<rscale>  1 0.30000000E+03</rscale>
<asrwt>0</asrwt>
<pdfrwt beam="1">  1        1 0.43045619E+00 0.30000000E+03</pdfrwt>
<pdfrwt beam="2">0</pdfrwt>
<totfact> 0.69006284E-01</totfact>
</mgrwt>
</event>
<event>
 6    1  0.5260809E-006  0.3000000E+03  0.7818608E-02  0.1093470E+00
          1   -1    0    0  502    0  0.00000000000E+00  0.00000000000E+00  0.11642775055E+03  0.11642775055E+03  0.00000000000E+00 0.  1.
         13   -1    0    0    0    0 -0.00000000000E+00 -0.00000000000E+00 -0.10000000000E+04  0.10000000000E+04  0.00000000000E+00 0.  1.
    9000005    2    1    2  501    0  0.21725601247E+02  0.47383809415E+01 -0.88754901575E+03  0.10938386232E+04  0.63894070483E+03 0.  0.
         13    1    3    3    0    0 -0.22765877673E+03 -0.21036430218E+03 -0.43484943353E+03  0.53401843422E+03  0.00000000000E+00 0.  1.
          3    1    3    3  501    0  0.24938437797E+03  0.21510268312E+03 -0.45269958222E+03  0.55982018899E+03  0.00000000000E+00 0.  1.
         21    1    1    2  502  501 -0.21725601247E+02 -0.47383809415E+01  0.39767662959E+01  0.22589127333E+02  0.00000000000E+00 0.  1.
<mgrwt>
<rscale>  1 0.30000000E+03</rscale>
<asrwt>0</asrwt>
<pdfrwt beam="1">  1        1 0.42337453E+00 0.30000000E+03</pdfrwt>
<pdfrwt beam="2">0</pdfrwt>
<totfact> 0.76438156E-01</totfact>
</mgrwt>
</event>
<event>
 6    1  0.5260809E-006  0.3000000E+03  0.7818608E-02  0.1093470E+00
          1   -1    0    0  502    0  0.00000000000E+00  0.00000000000E+00  0.11007453012E+03  0.11007453012E+03  0.00000000000E+00 0.  1.
         13   -1    0    0    0    0 -0.00000000000E+00 -0.00000000000E+00 -0.10000000000E+04  0.10000000000E+04  0.00000000000E+00 0.  1.
    9000005    2    1    2  501    0 -0.10716445293E+02 -0.76668308212E+01 -0.88707376059E+03  0.10965928855E+04  0.64454827391E+03 0.  0.
         13    1    3    3    0    0  0.15255229528E+03 -0.26536351519E+03 -0.61872828211E+03  0.69030043102E+03  0.00000000000E+00 0.  1.
          1    1    3    3  501    0 -0.16326874057E+03  0.25769668437E+03 -0.26834547848E+03  0.40629245452E+03  0.00000000000E+00 0.  1.
         21    1    1    2  502  501  0.10716445293E+02  0.76668308212E+01 -0.28517092915E+01  0.13481644575E+02  0.00000000000E+00 0.  1.
<mgrwt>
<rscale>  1 0.30000000E+03</rscale>
<asrwt>0</asrwt>
<pdfrwt beam="1">  1        1 0.40027186E+00 0.30000000E+03</pdfrwt>
<pdfrwt beam="2">0</pdfrwt>
<totfact> 0.10494176E+00</totfact>
</mgrwt>
</event>
<event>
 6    1  0.5260809E-006  0.3000000E+03  0.7818608E-02  0.1093470E+00
          1   -1    0    0  502    0  0.00000000000E+00  0.00000000000E+00  0.89085910221E+02  0.89085910221E+02  0.00000000000E+00 0.  1.
         13   -1    0    0    0    0 -0.00000000000E+00 -0.00000000000E+00 -0.10000000000E+04  0.10000000000E+04  0.00000000000E+00 0.  1.
    9000005    2    1    2  501    0 -0.31690895472E+01  0.97213844782E+01 -0.92042027374E+03  0.10751246790E+04  0.55553131915E+03 0.  0.
         13    1    3    3    0    0  0.68148811930E+02 -0.18961974795E+03 -0.81323186216E+03  0.83782215954E+03  0.00000000000E+00 0.  1.
          1    1    3    3  501    0 -0.71317901477E+02  0.19934113242E+03 -0.10718841158E+03  0.23730251942E+03  0.00000000000E+00 0.  1.
         21    1    1    2  502  501  0.31690895472E+01 -0.97213844782E+01  0.95061839631E+01  0.13961231259E+02  0.00000000000E+00 0.  1.
<mgrwt>
<rscale>  1 0.30000000E+03</rscale>
<asrwt>0</asrwt>
<pdfrwt beam="1">  1        1 0.32394945E+00 0.30000000E+03</pdfrwt>
<pdfrwt beam="2">0</pdfrwt>
<totfact> 0.26633824E+00</totfact>
</mgrwt>
</event>
<event>
 6    1  0.5260809E-006  0.3000000E+03  0.7818608E-02  0.1093470E+00
          1   -1    0    0  502    0  0.00000000000E+00  0.00000000000E+00  0.11130040487E+03  0.11130040487E+03  0.00000000000E+00 0.  1.
         13   -1    0    0    0    0 -0.00000000000E+00 -0.00000000000E+00 -0.10000000000E+04  0.10000000000E+04  0.00000000000E+00 0.  1.
    9000005    2    1    2  501    0  0.10875978621E+02 -0.80650420934E+00 -0.88195775186E+03  0.10984789459E+04  0.65474237766E+03 0.  0.
         13    1    3    3    0    0  0.17570716678E+03 -0.43041732988E+02  0.18720871575E+02  0.18186827724E+03  0.00000000000E+00 0.  1.
          1    1    3    3  501    0 -0.16483118815E+03  0.42235228779E+02 -0.90067862343E+03  0.91661066863E+03  0.00000000000E+00 0.  1.
         21    1    1    2  502  501 -0.10875978621E+02  0.80650420934E+00 -0.67418432739E+01  0.12821458994E+02  0.00000000000E+00 0. -1.
<mgrwt>
<rscale>  1 0.30000000E+03</rscale>
<asrwt>0</asrwt>
<pdfrwt beam="1">  1        1 0.40472960E+00 0.30000000E+03</pdfrwt>
<pdfrwt beam="2">0</pdfrwt>
<totfact> 0.98923454E-01</totfact>
</mgrwt>
</event>
<event>
 6    1  0.5260809E-006  0.3000000E+03  0.7818608E-02  0.1093470E+00
          1   -1    0    0  502    0  0.00000000000E+00  0.00000000000E+00  0.11751800713E+03  0.11751800713E+03  0.00000000000E+00 0.  1.
         13   -1    0    0    0    0 -0.00000000000E+00 -0.00000000000E+00 -0.10000000000E+04  0.10000000000E+04  0.00000000000E+00 0.  1.
    9000005    2    1    2  501    0  0.15654346501E+02 -0.25344698567E+02 -0.87304221304E+03  0.10862686591E+04  0.64566979305E+03 0.  0.
         13    1    3    3    0    0 -0.13196234618E+03 -0.18780947795E+02  0.56705294868E+02  0.14485259844E+03  0.00000000000E+00 0.  1.
          3    1    3    3  501    0  0.14761669268E+03 -0.65637507722E+01 -0.92974750790E+03  0.94141606064E+03  0.00000000000E+00 0.  1.
         21    1    1    2  502  501 -0.15654346501E+02  0.25344698567E+02 -0.94397798362E+01  0.31249348044E+02  0.00000000000E+00 0.  1.
<mgrwt>
<rscale>  1 0.30000000E+03</rscale>
<asrwt>0</asrwt>
<pdfrwt beam="1">  1        1 0.42733911E+00 0.30000000E+03</pdfrwt>
<pdfrwt beam="2">0</pdfrwt>
<totfact> 0.72196857E-01</totfact>
</mgrwt>
</event>
<event>
 6    1  0.5260809E-006  0.3000000E+03  0.7818608E-02  0.1093470E+00
          1   -1    0    0  502    0  0.00000000000E+00  0.00000000000E+00  0.11114317375E+03  0.11114317375E+03  0.00000000000E+00 0.  1.
         13   -1    0    0    0    0 -0.00000000000E+00 -0.00000000000E+00 -0.10000000000E+04  0.10000000000E+04  0.00000000000E+00 0.  1.
    9000005    2    1    2  501    0 -0.10233863444E+01 -0.17320362490E+02 -0.86636040364E+03  0.10827331173E+04  0.64917610251E+03 0.  0.
         13    1    3    3    0    0 -0.25205376509E+03  0.49678089987E+02 -0.10372062554E+03  0.27705050312E+03  0.00000000000E+00 0.  1.
          1    1    3    3  501    0  0.25103037874E+03 -0.66998452477E+02 -0.76263977810E+03  0.80568261420E+03  0.00000000000E+00 0.  1.
         21    1    1    2  502  501  0.10233863444E+01  0.17320362490E+02 -0.22496422604E+02  0.28410056430E+02  0.00000000000E+00 0. -1.
<mgrwt>
<rscale>  1 0.30000000E+03</rscale>
<asrwt>0</asrwt>
<pdfrwt beam="1">  1        1 0.40415785E+00 0.30000000E+03</pdfrwt>
<pdfrwt beam="2">0</pdfrwt>
<totfact> 0.99681469E-01</totfact>
</mgrwt>
</event>
<event>
 6    1  0.5260809E-006  0.3000000E+03  0.7818608E-02  0.1093470E+00
          1   -1    0    0  502    0  0.00000000000E+00  0.00000000000E+00  0.12882205957E+03  0.12882205957E+03  0.00000000000E+00 0.  1.
         13   -1    0    0    0    0 -0.00000000000E+00 -0.00000000000E+00 -0.10000000000E+04  0.10000000000E+04  0.00000000000E+00 0.  1.
    9000005    2    1    2  501    0  0.26586082886E+02  0.60140208120E+02 -0.78248125229E+03  0.10184102535E+04  0.64850510389E+03 0.  0.
         13    1    3    3    0    0  0.20867343517E+03  0.97094539527E+02 -0.79937084401E+03  0.83184475619E+03  0.00000000000E+00 0.  1.
          1    1    3    3  501    0 -0.18208735228E+03 -0.36954331408E+02  0.16889591719E+02  0.18656549729E+03  0.00000000000E+00 0.  1.
         21    1    1    2  502  501 -0.26586082886E+02 -0.60140208120E+02 -0.88696688142E+02  0.11041180609E+03  0.00000000000E+00 0. -1.
<mgrwt>
<rscale>  1 0.30000000E+03</rscale>
<asrwt>0</asrwt>
<pdfrwt beam="1">  1        1 0.46844484E+00 0.30000000E+03</pdfrwt>
<pdfrwt beam="2">0</pdfrwt>
<totfact> 0.38557875E-01</totfact>
</mgrwt>
</event>
<event>
 6    1  0.5260809E-006  0.3000000E+03  0.7818608E-02  0.1093470E+00
          1   -1    0    0  502    0  0.00000000000E+00  0.00000000000E+00  0.13226982925E+03  0.13226982925E+03  0.00000000000E+00 0.  1.
         13   -1    0    0    0    0 -0.00000000000E+00 -0.00000000000E+00 -0.10000000000E+04  0.10000000000E+04  0.00000000000E+00 0.  1.
    9000005    2    1    2  501    0  0.13962118956E+02 -0.20588344517E+02 -0.87159782213E+03  0.11070948531E+04  0.68217111459E+03 0.  0.
         13    1    3    3    0    0 -0.14951396210E+03 -0.26936399946E+03 -0.18652738695E+03  0.36014421438E+03  0.00000000000E+00 0.  1.
          1    1    3    3  501    0  0.16347608106E+03  0.24877565494E+03 -0.68507043517E+03  0.74695063874E+03  0.00000000000E+00 0.  1.
         21    1    1    2  502  501 -0.13962118956E+02  0.20588344517E+02  0.38676513775E+01  0.25174976124E+02  0.00000000000E+00 0.  1.
<mgrwt>
<rscale>  1 0.30000000E+03</rscale>
<asrwt>0</asrwt>
<pdfrwt beam="1">  1        1 0.48098221E+00 0.30000000E+03</pdfrwt>
<pdfrwt beam="2">0</pdfrwt>
<totfact> 0.31425056E-01</totfact>
</mgrwt>
</event>
<event>
 6    1  0.5260809E-006  0.3000000E+03  0.7818608E-02  0.1093470E+00
          1   -1    0    0  502    0  0.00000000000E+00  0.00000000000E+00  0.12822710936E+03  0.12822710936E+03  0.00000000000E+00 0.  1.
         13   -1    0    0    0    0 -0.00000000000E+00 -0.00000000000E+00 -0.10000000000E+04  0.10000000000E+04  0.00000000000E+00 0.  1.
    9000005    2    1    2  501    0 -0.14062409465E+02 -0.12609884106E+02 -0.88653075855E+03  0.11042572282E+04  0.65809610214E+03 0.  0.
         13    1    3    3    0    0 -0.45253944464E+02 -0.18995867623E+03  0.43868133346E+01  0.19532399314E+03  0.00000000000E+00 0.  1.
          3    1    3    3  501    0  0.31191534999E+02  0.17734879212E+03 -0.89091757188E+03  0.90893323507E+03  0.00000000000E+00 0.  1.
         21    1    1    2  502  501  0.14062409465E+02  0.12609884106E+02  0.14757867905E+02  0.23969881147E+02  0.00000000000E+00 0.  1.
<mgrwt>
<rscale>  1 0.30000000E+03</rscale>
<asrwt>0</asrwt>
<pdfrwt beam="1">  1        1 0.46628138E+00 0.30000000E+03</pdfrwt>
<pdfrwt beam="2">0</pdfrwt>
<totfact> 0.39916061E-01</totfact>
</mgrwt>
</event>
<event>
 6    1  0.5260809E-006  0.3000000E+03  0.7818608E-02  0.1093470E+00
          1   -1    0    0  502    0  0.00000000000E+00  0.00000000000E+00  0.11935959062E+03  0.11935959062E+03  0.00000000000E+00 0.  1.
         13   -1    0    0    0    0 -0.00000000000E+00 -0.00000000000E+00 -0.10000000000E+04  0.10000000000E+04  0.00000000000E+00 0.  1.
    9000005    2    1    2  501    0  0.70372440667E+01 -0.12137359576E+02 -0.88413138119E+03  0.11049018873E+04  0.66251267386E+03 0.  0.
         13    1    3    3    0    0  0.29927777177E+03 -0.11337967713E+03 -0.62189771950E+03  0.69941326079E+03  0.00000000000E+00 0.  1.
          1    1    3    3  501    0 -0.29224052770E+03  0.10124231755E+03 -0.26223366169E+03  0.40548862650E+03  0.00000000000E+00 0.  1.
         21    1    1    2  502  501 -0.70372440667E+01  0.12137359576E+02  0.34909718118E+01  0.14457703335E+02  0.00000000000E+00 0.  1.
<mgrwt>
<rscale>  1 0.30000000E+03</rscale>
<asrwt>0</asrwt>
<pdfrwt beam="1">  1        1 0.43403579E+00 0.30000000E+03</pdfrwt>
<pdfrwt beam="2">0</pdfrwt>
<totfact> 0.65488047E-01</totfact>
</mgrwt>
</event>
<event>
 6    1  0.5260809E-006  0.3000000E+03  0.7818608E-02  0.1093470E+00
          1   -1    0    0  502    0  0.00000000000E+00  0.00000000000E+00  0.12398378500E+03  0.12398378500E+03  0.00000000000E+00 0.  1.
         13   -1    0    0    0    0 -0.00000000000E+00 -0.00000000000E+00 -0.10000000000E+04  0.10000000000E+04  0.00000000000E+00 0.  1.
    9000005    2    1    2  501    0 -0.74822554761E+01 -0.68895751329E+01 -0.88853614566E+03  0.11078530982E+04  0.66161813357E+03 0.  0.
         13    1    3    3    0    0  0.12103408682E+03  0.23014866768E+03 -0.77107891656E+03  0.81374464973E+03  0.00000000000E+00 0.  1.
          1    1    3    3  501    0 -0.12851634230E+03 -0.23703824282E+03 -0.11745722911E+03  0.29410844848E+03  0.00000000000E+00 0.  1.
         21    1    1    2  502  501  0.74822554761E+01  0.68895751329E+01  0.12519930662E+02  0.16130686790E+02  0.00000000000E+00 0. -1.
<mgrwt>
<rscale>  1 0.30000000E+03</rscale>
<asrwt>0</asrwt>
<pdfrwt beam="1">  1        1 0.45085108E+00 0.30000000E+03</pdfrwt>
<pdfrwt beam="2">0</pdfrwt>
<totfact> 0.50782326E-01</totfact>
</mgrwt>
</event>
<event>
 6    1  0.5260809E-006  0.3000000E+03  0.7818608E-02  0.1093470E+00
          1   -1    0    0  502    0  0.00000000000E+00  0.00000000000E+00  0.10969555229E+03  0.10969555229E+03  0.00000000000E+00 0.  1.
         13   -1    0    0    0    0 -0.00000000000E+00 -0.00000000000E+00 -0.10000000000E+04  0.10000000000E+04  0.00000000000E+00 0.  1.
    9000005    2    1    2  501    0  0.70729966570E+01  0.93525801735E+01 -0.87442030592E+03  0.10899520977E+04  0.65057451988E+03 0.  0.
         13    1    3    3    0    0 -0.29889241663E+03  0.15758383633E+02 -0.23314603431E+03  0.37939699088E+03  0.00000000000E+00 0.  1.
          1    1    3    3  501    0  0.30596541329E+03 -0.64058034596E+01 -0.64127427161E+03  0.71055510685E+03  0.00000000000E+00 0.  1.
         21    1    1    2  502  501 -0.70729966570E+01 -0.93525801735E+01 -0.15884141791E+02  0.19743454562E+02  0.00000000000E+00 0.  1.
<mgrwt>
<rscale>  1 0.30000000E+03</rscale>
<asrwt>0</asrwt>
<pdfrwt beam="1">  1        1 0.39889376E+00 0.30000000E+03</pdfrwt>
<pdfrwt beam="2">0</pdfrwt>
<totfact> 0.10685520E+00</totfact>
</mgrwt>
</event>
<event>
 6    1  0.5260809E-006  0.3000000E+03  0.7818608E-02  0.1093470E+00
          1   -1    0    0  502    0  0.00000000000E+00  0.00000000000E+00  0.12626362378E+03  0.12626362378E+03  0.00000000000E+00 0.  1.
         13   -1    0    0    0    0 -0.00000000000E+00 -0.00000000000E+00 -0.10000000000E+04  0.10000000000E+04  0.00000000000E+00 0.  1.
    9000005    2    1    2  501    0  0.49602775308E+01  0.18396556012E+02 -0.89004533688E+03  0.11011833562E+04  0.64812116502E+03 0.  0.
         13    1    3    3    0    0 -0.17663968767E+03  0.27652146444E+03 -0.38759647238E+03  0.50783533252E+03  0.00000000000E+00 0.  1.
          1    1    3    3  501    0  0.18159996520E+03 -0.25812490843E+03 -0.50244886450E+03  0.59334802363E+03  0.00000000000E+00 0.  1.
         21    1    1    2  502  501 -0.49602775308E+01 -0.18396556012E+02  0.16308960654E+02  0.25080267620E+02  0.00000000000E+00 0.  1.
<mgrwt>
<rscale>  1 0.30000000E+03</rscale>
<asrwt>0</asrwt>
<pdfrwt beam="1">  1        1 0.45914142E+00 0.30000000E+03</pdfrwt>
<pdfrwt beam="2">0</pdfrwt>
<totfact> 0.44662290E-01</totfact>
</mgrwt>
</event>
<event>
 6    1  0.5260809E-006  0.3000000E+03  0.7818608E-02  0.1093470E+00
          1   -1    0    0  502    0  0.00000000000E+00  0.00000000000E+00  0.11967233273E+03  0.11967233273E+03  0.00000000000E+00 0.  1.
         13   -1    0    0    0    0 -0.00000000000E+00 -0.00000000000E+00 -0.10000000000E+04  0.10000000000E+04  0.00000000000E+00 0.  1.
    9000005    2    1    2  501    0 -0.14876894382E+02  0.28298574281E+01 -0.88573160616E+03  0.11035933827E+04  0.65815541177E+03 0.  0.
         13    1    3    3    0    0 -0.22067297943E+02 -0.12536305865E+03 -0.95105593033E+03  0.95953647390E+03  0.00000000000E+00 0.  1.
          1    1    3    3  501    0  0.71904035617E+01  0.12819291608E+03  0.65324324171E+02  0.14405690877E+03  0.00000000000E+00 0.  1.
         21    1    1    2  502  501  0.14876894382E+02 -0.28298574281E+01  0.54039388935E+01  0.16078950061E+02  0.00000000000E+00 0. -1.
<mgrwt>
<rscale>  1 0.30000000E+03</rscale>
<asrwt>0</asrwt>
<pdfrwt beam="1">  1        1 0.43517304E+00 0.30000000E+03</pdfrwt>
<pdfrwt beam="2">0</pdfrwt>
<totfact> 0.64401215E-01</totfact>
</mgrwt>
</event>
<event>
 6    1  0.5260809E-006  0.3000000E+03  0.7818608E-02  0.1093470E+00
          1   -1    0    0  502    0  0.00000000000E+00  0.00000000000E+00  0.10955041892E+03  0.10955041892E+03  0.00000000000E+00 0.  1.
         13   -1    0    0    0    0 -0.00000000000E+00 -0.00000000000E+00 -0.10000000000E+04  0.10000000000E+04  0.00000000000E+00 0.  1.
    9000005    2    1    2  501    0 -0.22765889919E+01 -0.82859476478E+01 -0.88155562972E+03  0.10971834404E+04  0.65314419074E+03 0.  0.
         13    1    3    3    0    0 -0.39732031301E+02  0.85014947711E+02 -0.96314422386E+03  0.96770500236E+03  0.00000000000E+00 0.  1.
          1    1    3    3  501    0  0.37455442309E+02 -0.93300895359E+02  0.81588594136E+02  0.12947843808E+03  0.00000000000E+00 0.  1.
         21    1    1    2  502  501  0.22765889919E+01  0.82859476478E+01 -0.88939513630E+01  0.12366978479E+02  0.00000000000E+00 0.  1.
<mgrwt>
<rscale>  1 0.30000000E+03</rscale>
<asrwt>0</asrwt>
<pdfrwt beam="1">  1        1 0.39836600E+00 0.30000000E+03</pdfrwt>
<pdfrwt beam="2">0</pdfrwt>
<totfact> 0.10759511E+00</totfact>
</mgrwt>
</event>
<event>
 6    1  0.5260809E-006  0.3000000E+03  0.7818608E-02  0.1093470E+00
          1   -1    0    0  502    0  0.00000000000E+00  0.00000000000E+00  0.11709332366E+03  0.11709332366E+03  0.00000000000E+00 0.  1.
         13   -1    0    0    0    0 -0.00000000000E+00 -0.00000000000E+00 -0.10000000000E+04  0.10000000000E+04  0.00000000000E+00 0.  1.
    9000005    2    1    2  501    0  0.22141263565E+01  0.10162108722E+02 -0.88962466237E+03  0.11047117993E+04  0.65486483247E+03 0.  0.
         13    1    3    3    0    0 -0.27358615511E+03 -0.49401483375E+02 -0.15620471753E+03  0.31888838895E+03  0.00000000000E+00 0.  1.
          1    1    3    3  501    0  0.27580028147E+03  0.59563592097E+02 -0.73341994484E+03  0.78582341035E+03  0.00000000000E+00 0.  1.
         21    1    1    2  502  501 -0.22141263565E+01 -0.10162108722E+02  0.67179860214E+01  0.12381524356E+02  0.00000000000E+00 0. -1.
<mgrwt>
<rscale>  1 0.30000000E+03</rscale>
<asrwt>0</asrwt>
<pdfrwt beam="1">  1        1 0.42579480E+00 0.30000000E+03</pdfrwt>
<pdfrwt beam="2">0</pdfrwt>
<totfact> 0.73824756E-01</totfact>
</mgrwt>
</event>
<event>
 6    1  0.5260809E-006  0.3000000E+03  0.7818608E-02  0.1093470E+00
          1   -1    0    0  502    0  0.00000000000E+00  0.00000000000E+00  0.16885195344E+03  0.16885195344E+03  0.00000000000E+00 0.  1.
         13   -1    0    0    0    0 -0.00000000000E+00 -0.00000000000E+00 -0.10000000000E+04  0.10000000000E+04  0.00000000000E+00 0.  1.
    9000005    2    1    2  501    0 -0.15490782741E+02  0.21440769622E+00 -0.89377423149E+03  0.11043380064E+04  0.64845203772E+03 0.  0.
         13    1    3    3    0    0 -0.26094349970E+03  0.19819845224E+03 -0.52775197811E+03  0.62120551101E+03  0.00000000000E+00 0.  1.
          1    1    3    3  501    0  0.24545271696E+03 -0.19798404454E+03 -0.36602225338E+03  0.48313249542E+03  0.00000000000E+00 0.  1.
         21    1    1    2  502  501  0.15490782741E+02 -0.21440769622E+00  0.62626184931E+02  0.64513947017E+02  0.00000000000E+00 0.  1.
<mgrwt>
<rscale>  1 0.30000000E+03</rscale>
<asrwt>0</asrwt>
<pdfrwt beam="1">  1        1 0.61400840E+00 0.30000000E+03</pdfrwt>
<pdfrwt beam="2">0</pdfrwt>
<totfact> 0.50426681E-02</totfact>
</mgrwt>
</event>
<event>
 6    1  0.5260809E-006  0.3000000E+03  0.7818608E-02  0.1093470E+00
          1   -1    0    0  502    0  0.00000000000E+00  0.00000000000E+00  0.11523396422E+03  0.11523396422E+03  0.00000000000E+00 0.  1.
         13   -1    0    0    0    0 -0.00000000000E+00 -0.00000000000E+00 -0.10000000000E+04  0.10000000000E+04  0.00000000000E+00 0.  1.
    9000005    2    1    2  501    0  0.16285962346E+02  0.28277795185E+01 -0.88399625333E+03  0.10986864124E+04  0.65221869642E+03 0.  0.
         13    1    3    3    0    0  0.19556884610E+03  0.37463068314E+02 -0.89390997996E+03  0.91581969149E+03  0.00000000000E+00 0.  1.
          1    1    3    3  501    0 -0.17928288375E+03 -0.34635288795E+02  0.99137266277E+01  0.18286672090E+03  0.00000000000E+00 0.  1.
         21    1    1    2  502  501 -0.16285962346E+02 -0.28277795185E+01 -0.76978244644E+00  0.16547551830E+02  0.00000000000E+00 0. -1.
<mgrwt>
<rscale>  1 0.30000000E+03</rscale>
<asrwt>0</asrwt>
<pdfrwt beam="1">  1        1 0.41903348E+00 0.30000000E+03</pdfrwt>
<pdfrwt beam="2">0</pdfrwt>
<totfact> 0.81305535E-01</totfact>
</mgrwt>
</event>
<event>
 6    1  0.5260809E-006  0.3000000E+03  0.7818608E-02  0.1093470E+00
          1   -1    0    0  502    0  0.00000000000E+00  0.00000000000E+00  0.20248935665E+03  0.20248935665E+03  0.00000000000E+00 0.  1.
         13   -1    0    0    0    0 -0.00000000000E+00 -0.00000000000E+00 -0.10000000000E+04  0.10000000000E+04  0.00000000000E+00 0.  1.
    9000005    2    1    2  501    0 -0.54263942807E+01  0.15858421516E+02 -0.89052450152E+03  0.11079773833E+04  0.65901370160E+03 0.  0.
         13    1    3    3    0    0 -0.16501343411E+03  0.24377879443E+03 -0.72914493406E+03  0.78632682067E+03  0.00000000000E+00 0.  1.
          1    1    3    3  501    0  0.15958703983E+03 -0.22792037291E+03 -0.16137956746E+03  0.32165056267E+03  0.00000000000E+00 0.  1.
         21    1    1    2  502  501  0.54263942807E+01 -0.15858421516E+02  0.93013858172E+02  0.94511973315E+02  0.00000000000E+00 0.  1.
<mgrwt>
<rscale>  1 0.30000000E+03</rscale>
<asrwt>0</asrwt>
<pdfrwt beam="1">  1        1 0.73632649E+00 0.30000000E+03</pdfrwt>
<pdfrwt beam="2">0</pdfrwt>
<totfact> 0.17331156E-02</totfact>
</mgrwt>
</event>
<event>
 6    1  0.5260809E-006  0.3000000E+03  0.7818608E-02  0.1093470E+00
          1   -1    0    0  502    0  0.00000000000E+00  0.00000000000E+00  0.11156439753E+03  0.11156439753E+03  0.00000000000E+00 0.  1.
         13   -1    0    0    0    0 -0.00000000000E+00 -0.00000000000E+00 -0.10000000000E+04  0.10000000000E+04  0.00000000000E+00 0.  1.
    9000005    2    1    2  501    0 -0.77870604808E+01 -0.13968963217E+02 -0.88044635299E+03  0.10936870837E+04  0.64862152771E+03 0.  0.
         13    1    3    3    0    0  0.45974956629E+02  0.29869073497E+03 -0.26787923645E+03  0.40384296096E+03  0.00000000000E+00 0.  1.
          3    1    3    3  501    0 -0.53762017110E+02 -0.31265969818E+03 -0.61256711654E+03  0.68984412270E+03  0.00000000000E+00 0.  1.
         21    1    1    2  502  501  0.77870604808E+01  0.13968963217E+02 -0.79892494751E+01  0.17877313877E+02  0.00000000000E+00 0. -1.
<mgrwt>
<rscale>  1 0.30000000E+03</rscale>
<asrwt>0</asrwt>
<pdfrwt beam="1">  1        1 0.40568957E+00 0.30000000E+03</pdfrwt>
<pdfrwt beam="2">0</pdfrwt>
<totfact> 0.97660322E-01</totfact>
</mgrwt>
</event>
<event>
 6    1  0.5260809E-006  0.3000000E+03  0.7818608E-02  0.1093470E+00
          1   -1    0    0  502    0  0.00000000000E+00  0.00000000000E+00  0.11079852417E+03  0.11079852417E+03  0.00000000000E+00 0.  1.
         13   -1    0    0    0    0 -0.00000000000E+00 -0.00000000000E+00 -0.10000000000E+04  0.10000000000E+04  0.00000000000E+00 0.  1.
    9000005    2    1    2  501    0 -0.82345690305E+01  0.58120884308E+01 -0.87194813767E+03  0.10908168782E+04  0.65535205685E+03 0.  0.
         13    1    3    3    0    0  0.14609962117E+03  0.20143245805E+03 -0.81217545250E+02  0.26175642135E+03  0.00000000000E+00 0.  1.
          3    1    3    3  501    0 -0.15433419020E+03 -0.19562036962E+03 -0.79073059242E+03  0.82906045682E+03  0.00000000000E+00 0.  1.
         21    1    1    2  502  501  0.82345690305E+01 -0.58120884308E+01 -0.17253338163E+02  0.19981645998E+02  0.00000000000E+00 0.  1.
<mgrwt>
<rscale>  1 0.30000000E+03</rscale>
<asrwt>0</asrwt>
<pdfrwt beam="1">  1        1 0.40290457E+00 0.30000000E+03</pdfrwt>
<pdfrwt beam="2">0</pdfrwt>
<totfact> 0.10135725E+00</totfact>
</mgrwt>
</event>
<event>
 6    1  0.5260809E-006  0.3000000E+03  0.7818608E-02  0.1093470E+00
          1   -1    0    0  502    0  0.00000000000E+00  0.00000000000E+00  0.12148852231E+03  0.12148852231E+03  0.00000000000E+00 0.  1.
         13   -1    0    0    0    0 -0.00000000000E+00 -0.00000000000E+00 -0.10000000000E+04  0.10000000000E+04  0.00000000000E+00 0.  1.
    9000005    2    1    2  501    0 -0.90804959000E+01  0.90900988145E+01 -0.88842219052E+03  0.11052617688E+04  0.65737698740E+03 0.  0.
         13    1    3    3    0    0 -0.19905472155E+03 -0.25048808401E+03 -0.32233632059E+03  0.45416711239E+03  0.00000000000E+00 0.  1.
          1    1    3    3  501    0  0.18997422565E+03  0.25957818283E+03 -0.56608586992E+03  0.65109465636E+03  0.00000000000E+00 0.  1.
         21    1    1    2  502  501  0.90804959000E+01 -0.90900988145E+01  0.99107128243E+01  0.16226753555E+02  0.00000000000E+00 0.  1.
<mgrwt>
<rscale>  1 0.30000000E+03</rscale>
<asrwt>0</asrwt>
<pdfrwt beam="1">  1        1 0.44177738E+00 0.30000000E+03</pdfrwt>
<pdfrwt beam="2">0</pdfrwt>
<totfact> 0.58363081E-01</totfact>
</mgrwt>
</event>
<event>
 6    1  0.5260809E-006  0.3000000E+03  0.7818608E-02  0.1093470E+00
          1   -1    0    0  502    0  0.00000000000E+00  0.00000000000E+00  0.11172945473E+03  0.11172945473E+03  0.00000000000E+00 0.  1.
         13   -1    0    0    0    0 -0.00000000000E+00 -0.00000000000E+00 -0.10000000000E+04  0.10000000000E+04  0.00000000000E+00 0.  1.
    9000005    2    1    2  501    0 -0.62381208311E+01 -0.24827068317E+02 -0.86377059584E+03  0.10762957844E+04  0.64160554531E+03 0.  0.
         13    1    3    3    0    0 -0.28016256570E+03 -0.91010729730E+02 -0.67673859744E+03  0.73807123329E+03  0.00000000000E+00 0.  1.
          3    1    3    3  501    0  0.27392444487E+03  0.66183661413E+02 -0.18703199841E+03  0.33822455110E+03  0.00000000000E+00 0.  1.
         21    1    1    2  502  501  0.62381208311E+01  0.24827068317E+02 -0.24499949423E+02  0.35433670350E+02  0.00000000000E+00 0.  1.
<mgrwt>
<rscale>  1 0.30000000E+03</rscale>
<asrwt>0</asrwt>
<pdfrwt beam="1">  1        1 0.40628978E+00 0.30000000E+03</pdfrwt>
<pdfrwt beam="2">0</pdfrwt>
<totfact> 0.96876648E-01</totfact>
</mgrwt>
</event>
<event>
 6    1  0.5260809E-006  0.3000000E+03  0.7818608E-02  0.1093470E+00
          1   -1    0    0  502    0  0.00000000000E+00  0.00000000000E+00  0.10368223875E+03  0.10368223875E+03  0.00000000000E+00 0.  1.
         13   -1    0    0    0    0 -0.00000000000E+00 -0.00000000000E+00 -0.10000000000E+04  0.10000000000E+04  0.00000000000E+00 0.  1.
    9000005    2    1    2  501    0  0.83944559988E+01 -0.35587354349E+01 -0.88721356852E+03  0.10907974487E+04  0.63451400806E+03 0.  0.
         13    1    3    3    0    0  0.24839979597E+03  0.13883222107E+03 -0.69760423260E+03  0.75341124865E+03  0.00000000000E+00 0.  1.
          1    1    3    3  501    0 -0.24000533998E+03 -0.14239095651E+03 -0.18960933592E+03  0.33738620004E+03  0.00000000000E+00 0.  1.
         21    1    1    2  502  501 -0.83944559988E+01  0.35587354349E+01 -0.91041927328E+01  0.12884790054E+02  0.00000000000E+00 0.  1.
<mgrwt>
<rscale>  1 0.30000000E+03</rscale>
<asrwt>0</asrwt>
<pdfrwt beam="1">  1        1 0.37702712E+00 0.30000000E+03</pdfrwt>
<pdfrwt beam="2">0</pdfrwt>
<totfact> 0.14142851E+00</totfact>
</mgrwt>
</event>
<event>
 6    1  0.5260809E-006  0.3000000E+03  0.7818608E-02  0.1093470E+00
          1   -1    0    0  502    0  0.00000000000E+00  0.00000000000E+00  0.13621660434E+03  0.13621660434E+03  0.00000000000E+00 0.  1.
         13   -1    0    0    0    0 -0.00000000000E+00 -0.00000000000E+00 -0.10000000000E+04  0.10000000000E+04  0.00000000000E+00 0.  1.
    9000005    2    1    2  501    0  0.10670766711E+02 -0.13752222627E+01 -0.88150907860E+03  0.11154812159E+04  0.68346494485E+03 0.  0.
         13    1    3    3    0    0  0.26714577826E+02 -0.34173424770E+03 -0.43635942050E+03  0.55489233963E+03  0.00000000000E+00 0.  1.
          1    1    3    3  501    0 -0.16043811115E+02  0.34035902544E+03 -0.44514965811E+03  0.56058887626E+03  0.00000000000E+00 0.  1.
         21    1    1    2  502  501 -0.10670766711E+02  0.13752222627E+01  0.17725682940E+02  0.20735388450E+02  0.00000000000E+00 0. -1.
<mgrwt>
<rscale>  1 0.30000000E+03</rscale>
<asrwt>0</asrwt>
<pdfrwt beam="1">  1        1 0.49533415E+00 0.30000000E+03</pdfrwt>
<pdfrwt beam="2">0</pdfrwt>
<totfact> 0.24712726E-01</totfact>
</mgrwt>
</event>
<event>
 6    1  0.5260809E-006  0.3000000E+03  0.7818608E-02  0.1093470E+00
          1   -1    0    0  502    0  0.00000000000E+00  0.00000000000E+00  0.11095387414E+03  0.11095387414E+03  0.00000000000E+00 0.  1.
         13   -1    0    0    0    0 -0.00000000000E+00 -0.00000000000E+00 -0.10000000000E+04  0.10000000000E+04  0.00000000000E+00 0.  1.
    9000005    2    1    2  501    0  0.29237935644E+01  0.11535787653E+02 -0.88933424327E+03  0.10990498422E+04  0.64564195678E+03 0.  0.
         13    1    3    3    0    0 -0.25955637155E+03  0.18885775472E+03 -0.53374695157E+03  0.62283430368E+03  0.00000000000E+00 0.  1.
          1    1    3    3  501    0  0.26248016511E+03 -0.17732196707E+03 -0.35558729170E+03  0.47621553849E+03  0.00000000000E+00 0.  1.
         21    1    1    2  502  501 -0.29237935644E+01 -0.11535787653E+02  0.28811741456E+00  0.11904031973E+02  0.00000000000E+00 0.  1.
<mgrwt>
<rscale>  1 0.30000000E+03</rscale>
<asrwt>0</asrwt>
<pdfrwt beam="1">  1        1 0.40346948E+00 0.30000000E+03</pdfrwt>
<pdfrwt beam="2">0</pdfrwt>
<totfact> 0.10059955E+00</totfact>
</mgrwt>
</event>
<event>
 6    1  0.5260809E-006  0.3000000E+03  0.7818608E-02  0.1093470E+00
          1   -1    0    0  502    0  0.00000000000E+00  0.00000000000E+00  0.11828607178E+03  0.11828607178E+03  0.00000000000E+00 0.  1.
         13   -1    0    0    0    0 -0.00000000000E+00 -0.00000000000E+00 -0.10000000000E+04  0.10000000000E+04  0.00000000000E+00 0.  1.
    9000005    2    1    2  501    0  0.11845722502E+01 -0.29937429599E+02 -0.87115839691E+03  0.10865201759E+04  0.64862276180E+03 0.  0.
         13    1    3    3    0    0  0.22255193906E+03 -0.84025437863E+02 -0.81886329284E+03  0.85271726390E+03  0.00000000000E+00 0.  1.
          3    1    3    3  501    0 -0.22136736681E+03  0.54088008264E+02 -0.52295104067E+02  0.23380291195E+03  0.00000000000E+00 0.  1.
         21    1    1    2  502  501 -0.11845722502E+01  0.29937429599E+02 -0.10555531315E+02  0.31765895922E+02  0.00000000000E+00 0.  1.
<mgrwt>
<rscale>  1 0.30000000E+03</rscale>
<asrwt>0</asrwt>
<pdfrwt beam="1">  1        1 0.43013208E+00 0.30000000E+03</pdfrwt>
<pdfrwt beam="2">0</pdfrwt>
<totfact> 0.69332371E-01</totfact>
</mgrwt>
</event>
<event>
 6    1  0.5260809E-006  0.3000000E+03  0.7818608E-02  0.1093470E+00
          1   -1    0    0  502    0  0.00000000000E+00  0.00000000000E+00  0.11082157928E+03  0.11082157928E+03  0.00000000000E+00 0.  1.
         13   -1    0    0    0    0 -0.00000000000E+00 -0.00000000000E+00 -0.10000000000E+04  0.10000000000E+04  0.00000000000E+00 0.  1.
    9000005    2    1    2  501    0 -0.13725155376E+02  0.21730862462E+02 -0.87248237348E+03  0.10801724640E+04  0.63630688328E+03 0.  0.
         13    1    3    3    0    0  0.43561564944E+02  0.32356688717E+03 -0.39603825648E+03  0.51326352005E+03  0.00000000000E+00 0.  1.
          3    1    3    3  501    0 -0.57286720320E+02 -0.30183602470E+03 -0.47644411699E+03  0.56690894397E+03  0.00000000000E+00 0.  1.
         21    1    1    2  502  501  0.13725155376E+02 -0.21730862462E+02 -0.16696047237E+02  0.30649115269E+02  0.00000000000E+00 0.  1.
<mgrwt>
<rscale>  1 0.30000000E+03</rscale>
<asrwt>0</asrwt>
<pdfrwt beam="1">  1        1 0.40298841E+00 0.30000000E+03</pdfrwt>
<pdfrwt beam="2">0</pdfrwt>
<totfact> 0.10124456E+00</totfact>
</mgrwt>
</event>
<event>
 6    1  0.5260809E-006  0.3000000E+03  0.7818608E-02  0.1093470E+00
          1   -1    0    0  502    0  0.00000000000E+00  0.00000000000E+00  0.12701292742E+03  0.12701292742E+03  0.00000000000E+00 0.  1.
         13   -1    0    0    0    0 -0.00000000000E+00 -0.00000000000E+00 -0.10000000000E+04  0.10000000000E+04  0.00000000000E+00 0.  1.
    9000005    2    1    2  501    0  0.32010233969E+02 -0.18809637992E+02 -0.87197315026E+03  0.10898715004E+04  0.65276661612E+03 0.  0.
         13    1    3    3    0    0 -0.28803574511E+03 -0.12792931480E+03 -0.44234256010E+03  0.54313666836E+03  0.00000000000E+00 0.  1.
          1    1    3    3  501    0  0.32004597908E+03  0.10911967681E+03 -0.42963059016E+03  0.54673483207E+03  0.00000000000E+00 0.  1.
         21    1    1    2  502  501 -0.32010233969E+02  0.18809637992E+02 -0.10139223235E+01  0.37141426987E+02  0.00000000000E+00 0. -1.
<mgrwt>
<rscale>  1 0.30000000E+03</rscale>
<asrwt>0</asrwt>
<pdfrwt beam="1">  1        1 0.46186616E+00 0.30000000E+03</pdfrwt>
<pdfrwt beam="2">0</pdfrwt>
<totfact> 0.42802460E-01</totfact>
</mgrwt>
</event>
<event>
 6    1  0.5260809E-006  0.3000000E+03  0.7818608E-02  0.1093470E+00
          1   -1    0    0  502    0  0.00000000000E+00  0.00000000000E+00  0.12894093915E+03  0.12894093915E+03  0.00000000000E+00 0.  1.
         13   -1    0    0    0    0 -0.00000000000E+00 -0.00000000000E+00 -0.10000000000E+04  0.10000000000E+04  0.00000000000E+00 0.  1.
    9000005    2    1    2  501    0 -0.47003318538E+02  0.25521855210E+02 -0.83618383182E+03  0.10650898730E+04  0.65753506366E+03 0.  0.
         13    1    3    3    0    0 -0.17611381886E+03  0.25108173833E+03 -0.71566075388E+03  0.77860672432E+03  0.00000000000E+00 0.  1.
          1    1    3    3  501    0  0.12911050032E+03 -0.22555988312E+03 -0.12052307794E+03  0.28648314869E+03  0.00000000000E+00 0.  1.
         21    1    1    2  502  501  0.47003318538E+02 -0.25521855210E+02 -0.34875229036E+02  0.63851066140E+02  0.00000000000E+00 0.  1.
<mgrwt>
<rscale>  1 0.30000000E+03</rscale>
<asrwt>0</asrwt>
<pdfrwt beam="1">  1        1 0.46887713E+00 0.30000000E+03</pdfrwt>
<pdfrwt beam="2">0</pdfrwt>
<totfact> 0.38291023E-01</totfact>
</mgrwt>
</event>
<event>
 6    1  0.5260809E-006  0.3000000E+03  0.7818608E-02  0.1093470E+00
          1   -1    0    0  502    0  0.00000000000E+00  0.00000000000E+00  0.13675466976E+03  0.13675466976E+03  0.00000000000E+00 0.  1.
         13   -1    0    0    0    0 -0.00000000000E+00 -0.00000000000E+00 -0.10000000000E+04  0.10000000000E+04  0.00000000000E+00 0.  1.
    9000005    2    1    2  501    0  0.71434258899E+02  0.37540288531E+02 -0.77189430628E+03  0.10148648171E+04  0.65392480476E+03 0.  0.
         13    1    3    3    0    0 -0.83653033037E+02 -0.17515704216E+03 -0.72110819292E+03  0.74677630202E+03  0.00000000000E+00 0.  1.
          3    1    3    3  501    0  0.15508729194E+03  0.21269733069E+03 -0.50786113360E+02  0.26808851507E+03  0.00000000000E+00 0.  1.
         21    1    1    2  502  501 -0.71434258899E+02 -0.37540288531E+02 -0.91351023955E+02  0.12188985267E+03  0.00000000000E+00 0.  1.
<mgrwt>
<rscale>  1 0.30000000E+03</rscale>
<asrwt>0</asrwt>
<pdfrwt beam="1">  1        1 0.49729076E+00 0.30000000E+03</pdfrwt>
<pdfrwt beam="2">0</pdfrwt>
<totfact> 0.23909472E-01</totfact>
</mgrwt>
</event>
<event>
 6    1  0.5260809E-006  0.3000000E+03  0.7818608E-02  0.1093470E+00
          1   -1    0    0  502    0  0.00000000000E+00  0.00000000000E+00  0.10828185320E+03  0.10828185320E+03  0.00000000000E+00 0.  1.
         13   -1    0    0    0    0 -0.00000000000E+00 -0.00000000000E+00 -0.10000000000E+04  0.10000000000E+04  0.00000000000E+00 0.  1.
    9000005    2    1    2  501    0  0.38036933692E+01 -0.11182546014E+02 -0.88937806729E+03  0.10962405331E+04  0.64078892183E+03 0.  0.
         13    1    3    3    0    0 -0.20382130143E+03  0.58778076100E+01 -0.23036089124E+02  0.20520315042E+03  0.00000000000E+00 0.  1.
          1    1    3    3  501    0  0.20762499480E+03 -0.17060353624E+02 -0.86634197817E+03  0.89103738264E+03  0.00000000000E+00 0.  1.
         21    1    1    2  502  501 -0.38036933692E+01  0.11182546014E+02 -0.23400795037E+01  0.12041320139E+02  0.00000000000E+00 0.  1.
<mgrwt>
<rscale>  1 0.30000000E+03</rscale>
<asrwt>0</asrwt>
<pdfrwt beam="1">  1        1 0.39375302E+00 0.30000000E+03</pdfrwt>
<pdfrwt beam="2">0</pdfrwt>
<totfact> 0.11424476E+00</totfact>
</mgrwt>
</event>
<event>
 6    1  0.5260809E-006  0.3000000E+03  0.7818608E-02  0.1093470E+00
          1   -1    0    0  502    0  0.00000000000E+00  0.00000000000E+00  0.12167119338E+03  0.12167119338E+03  0.00000000000E+00 0.  1.
         13   -1    0    0    0    0 -0.00000000000E+00 -0.00000000000E+00 -0.10000000000E+04  0.10000000000E+04  0.00000000000E+00 0.  1.
    9000005    2    1    2  501    0 -0.75204214144E+01  0.12451203665E+02 -0.88427697402E+03  0.11059559172E+04  0.66406410438E+03 0.  0.
         13    1    3    3    0    0 -0.12944521716E+03  0.19121251373E+03 -0.39943880444E+02  0.23433694382E+03  0.00000000000E+00 0.  1.
          3    1    3    3  501    0  0.12192479575E+03 -0.17876131007E+03 -0.84433309358E+03  0.87161897335E+03  0.00000000000E+00 0.  1.
         21    1    1    2  502  501  0.75204214144E+01 -0.12451203665E+02  0.59481674026E+01  0.15715276212E+02  0.00000000000E+00 0.  1.
<mgrwt>
<rscale>  1 0.30000000E+03</rscale>
<asrwt>0</asrwt>
<pdfrwt beam="1">  1        1 0.44244164E+00 0.30000000E+03</pdfrwt>
<pdfrwt beam="2">0</pdfrwt>
<totfact> 0.57779617E-01</totfact>
</mgrwt>
</event>
<event>
 6    1  0.5260809E-006  0.3000000E+03  0.7818608E-02  0.1093470E+00
          1   -1    0    0  502    0  0.00000000000E+00  0.00000000000E+00  0.10174755072E+03  0.10174755072E+03  0.00000000000E+00 0.  1.
         13   -1    0    0    0    0 -0.00000000000E+00 -0.00000000000E+00 -0.10000000000E+04  0.10000000000E+04  0.00000000000E+00 0.  1.
    9000005    2    1    2  501    0  0.13562480858E+02 -0.11977350933E+02 -0.89344569630E+03  0.10830258335E+04  0.61185974367E+03 0.  0.
         13    1    3    3    0    0  0.41987067074E+02  0.14675973890E+03 -0.90834044307E+03  0.92107746432E+03  0.00000000000E+00 0.  1.
          3    1    3    3  501    0 -0.28424586216E+02 -0.15873708984E+03  0.14894746773E+02  0.16194836916E+03  0.00000000000E+00 0.  1.
         21    1    1    2  502  501 -0.13562480858E+02  0.11977350933E+02 -0.48067529776E+01  0.18721717245E+02  0.00000000000E+00 0.  1.
<mgrwt>
<rscale>  1 0.30000000E+03</rscale>
<asrwt>0</asrwt>
<pdfrwt beam="1">  1        1 0.36999187E+00 0.30000000E+03</pdfrwt>
<pdfrwt beam="2">0</pdfrwt>
<totfact> 0.15438196E+00</totfact>
</mgrwt>
</event>
<event>
 6    1  0.5260809E-006  0.3000000E+03  0.7818608E-02  0.1093470E+00
          1   -1    0    0  502    0  0.00000000000E+00  0.00000000000E+00  0.13375996054E+03  0.13375996054E+03  0.00000000000E+00 0.  1.
         13   -1    0    0    0    0 -0.00000000000E+00 -0.00000000000E+00 -0.10000000000E+04  0.10000000000E+04  0.00000000000E+00 0.  1.
    9000005    2    1    2  501    0  0.20628481916E+02  0.10016460676E+02 -0.88837903849E+03  0.11018852209E+04  0.65146593172E+03 0.  0.
         13    1    3    3    0    0  0.12334998529E+02  0.84881276601E+02  0.87835969385E+02  0.12276864756E+03  0.00000000000E+00 0.  1.
          3    1    3    3  501    0  0.82934833870E+01 -0.74864815925E+02 -0.97621500788E+03  0.97911657331E+03  0.00000000000E+00 0.  1.
         21    1    1    2  502  501 -0.20628481916E+02 -0.10016460676E+02  0.22138999029E+02  0.31874739664E+02  0.00000000000E+00 0.  1.
<mgrwt>
<rscale>  1 0.30000000E+03</rscale>
<asrwt>0</asrwt>
<pdfrwt beam="1">  1        1 0.48640088E+00 0.30000000E+03</pdfrwt>
<pdfrwt beam="2">0</pdfrwt>
<totfact> 0.28715270E-01</totfact>
</mgrwt>
</event>
<event>
 6    1  0.5260809E-006  0.3000000E+03  0.7818608E-02  0.1093470E+00
          1   -1    0    0  502    0  0.00000000000E+00  0.00000000000E+00  0.10596691220E+03  0.10596691220E+03  0.00000000000E+00 0.  1.
         13   -1    0    0    0    0 -0.00000000000E+00 -0.00000000000E+00 -0.10000000000E+04  0.10000000000E+04  0.00000000000E+00 0.  1.
    9000005    2    1    2  501    0  0.80120199097E+01 -0.12935538235E+02 -0.87756500301E+03  0.10835455289E+04  0.63538890303E+03 0.  0.
         13    1    3    3    0    0  0.13974095479E+03  0.28011893456E+03 -0.39938739735E+03  0.50744895813E+03  0.00000000000E+00 0.  1.
          1    1    3    3  501    0 -0.13172893488E+03 -0.29305447279E+03 -0.47817760565E+03  0.57609657077E+03  0.00000000000E+00 0.  1.
         21    1    1    2  502  501 -0.80120199097E+01  0.12935538235E+02 -0.16468084788E+02  0.22421383300E+02  0.00000000000E+00 0.  1.
<mgrwt>
<rscale>  1 0.30000000E+03</rscale>
<asrwt>0</asrwt>
<pdfrwt beam="1">  1        1 0.38533504E+00 0.30000000E+03</pdfrwt>
<pdfrwt beam="2">0</pdfrwt>
<totfact> 0.12731464E+00</totfact>
</mgrwt>
</event>
<event>
 6    1  0.5260809E-006  0.3000000E+03  0.7818608E-02  0.1093470E+00
          1   -1    0    0  502    0  0.00000000000E+00  0.00000000000E+00  0.11679726569E+03  0.11679726569E+03  0.00000000000E+00 0.  1.
         13   -1    0    0    0    0 -0.00000000000E+00 -0.00000000000E+00 -0.10000000000E+04  0.10000000000E+04  0.00000000000E+00 0.  1.
    9000005    2    1    2  501    0 -0.11848856509E+02 -0.30563017846E+01 -0.88983384176E+03  0.11028793647E+04  0.65145137257E+03 0.  0.
         13    1    3    3    0    0 -0.77562578177E+02 -0.10849170840E+03 -0.95384347454E+03  0.96312189168E+03  0.00000000000E+00 0.  1.
          1    1    3    3  501    0  0.65713721668E+02  0.10543540661E+03  0.64009632778E+02  0.13975747304E+03  0.00000000000E+00 0.  1.
         21    1    1    2  502  501  0.11848856509E+02  0.30563017846E+01  0.66311074467E+01  0.13917900960E+02  0.00000000000E+00 0. -1.
<mgrwt>
<rscale>  1 0.30000000E+03</rscale>
<asrwt>0</asrwt>
<pdfrwt beam="1">  1        1 0.42471823E+00 0.30000000E+03</pdfrwt>
<pdfrwt beam="2">0</pdfrwt>
<totfact> 0.74978025E-01</totfact>
</mgrwt>
</event>
<event>
 6    1  0.5260809E-006  0.3000000E+03  0.7818608E-02  0.1093470E+00
          1   -1    0    0  502    0  0.00000000000E+00  0.00000000000E+00  0.13700024386E+03  0.13700024386E+03  0.00000000000E+00 0.  1.
         13   -1    0    0    0    0 -0.00000000000E+00 -0.00000000000E+00 -0.10000000000E+04  0.10000000000E+04  0.00000000000E+00 0.  1.
    9000005    2    1    2  501    0 -0.19677628462E+02 -0.71497623258E+01 -0.89109023117E+03  0.11019659328E+04  0.64795739738E+03 0.  0.
         13    1    3    3    0    0 -0.28478706022E+03 -0.58619115364E+02 -0.73411692978E+03  0.78959960546E+03  0.00000000000E+00 0.  1.
          3    1    3    3  501    0  0.26510943176E+03  0.51469353038E+02 -0.15697330139E+03  0.31236632735E+03  0.00000000000E+00 0.  1.
         21    1    1    2  502  501  0.19677628462E+02  0.71497623258E+01  0.28090475037E+02  0.35034311053E+02  0.00000000000E+00 0. -1.
<mgrwt>
<rscale>  1 0.30000000E+03</rscale>
<asrwt>0</asrwt>
<pdfrwt beam="1">  1        1 0.49818376E+00 0.30000000E+03</pdfrwt>
<pdfrwt beam="2">0</pdfrwt>
<totfact> 0.23551217E-01</totfact>
</mgrwt>
</event>
<event>
 6    1  0.5260809E-006  0.3000000E+03  0.7818608E-02  0.1093470E+00
          1   -1    0    0  502    0  0.00000000000E+00  0.00000000000E+00  0.12828805222E+03  0.12828805222E+03  0.00000000000E+00 0.  1.
         13   -1    0    0    0    0 -0.00000000000E+00 -0.00000000000E+00 -0.10000000000E+04  0.10000000000E+04  0.00000000000E+00 0.  1.
    9000005    2    1    2  501    0 -0.40809716793E+01 -0.25082880679E+02 -0.87692056654E+03  0.11023470626E+04  0.66748300441E+03 0.  0.
         13    1    3    3    0    0 -0.17219294432E+03  0.22580485270E+03 -0.69256228577E+03  0.74851904534E+03  0.00000000000E+00 0.  1.
          1    1    3    3  501    0  0.16811197265E+03 -0.25088773338E+03 -0.18435828077E+03  0.35382801726E+03  0.00000000000E+00 0.  1.
         21    1    1    2  502  501  0.40809716793E+01  0.25082880679E+02  0.52086187527E+01  0.25940989617E+02  0.00000000000E+00 0.  1.
<mgrwt>
<rscale>  1 0.30000000E+03</rscale>
<asrwt>0</asrwt>
<pdfrwt beam="1">  1        1 0.46650299E+00 0.30000000E+03</pdfrwt>
<pdfrwt beam="2">0</pdfrwt>
<totfact> 0.39775197E-01</totfact>
</mgrwt>
</event>
<event>
 6    1  0.5260809E-006  0.3000000E+03  0.7818608E-02  0.1093470E+00
          1   -1    0    0  502    0  0.00000000000E+00  0.00000000000E+00  0.10653502031E+03  0.10653502031E+03  0.00000000000E+00 0.  1.
         13   -1    0    0    0    0 -0.00000000000E+00 -0.00000000000E+00 -0.10000000000E+04  0.10000000000E+04  0.00000000000E+00 0.  1.
    9000005    2    1    2  501    0 -0.95648230825E+01 -0.25105780500E+01 -0.88580219787E+03  0.10940247418E+04  0.64198661442E+03 0.  0.
         13    1    3    3    0    0  0.30125601770E+03  0.88898871910E+02 -0.49693217728E+03  0.58787735664E+03  0.00000000000E+00 0.  1.
          1    1    3    3  501    0 -0.31082084078E+03 -0.91409449960E+02 -0.38887002058E+03  0.50614738517E+03  0.00000000000E+00 0.  1.
         21    1    1    2  502  501  0.95648230825E+01  0.25105780500E+01 -0.76627818274E+01  0.12510278497E+02  0.00000000000E+00 0. -1.
<mgrwt>
<rscale>  1 0.30000000E+03</rscale>
<asrwt>0</asrwt>
<pdfrwt beam="1">  1        1 0.38740089E+00 0.30000000E+03</pdfrwt>
<pdfrwt beam="2">0</pdfrwt>
<totfact> 0.12399330E+00</totfact>
</mgrwt>
</event>
<event>
 6    1  0.5260809E-006  0.3000000E+03  0.7818608E-02  0.1093470E+00
          1   -1    0    0  502    0  0.00000000000E+00  0.00000000000E+00  0.12070139106E+03  0.12070139106E+03  0.00000000000E+00 0.  1.
         13   -1    0    0    0    0 -0.00000000000E+00 -0.00000000000E+00 -0.10000000000E+04  0.10000000000E+04  0.00000000000E+00 0.  1.
    9000005    2    1    2  501    0  0.20696942946E+01 -0.11799272670E+02 -0.89556395877E+03  0.11005006961E+04  0.63947124369E+03 0.  0.
         13    1    3    3    0    0  0.16453721026E+03 -0.27488927887E+03 -0.35855457929E+03  0.48083052682E+03  0.00000000000E+00 0.  1.
          3    1    3    3  501    0 -0.16246751596E+03  0.26309000620E+03 -0.53700937948E+03  0.61967016933E+03  0.00000000000E+00 0.  1.
         21    1    1    2  502  501 -0.20696942946E+01  0.11799272670E+02  0.16265349830E+02  0.20200694916E+02  0.00000000000E+00 0. -1.
<mgrwt>
<rscale>  1 0.30000000E+03</rscale>
<asrwt>0</asrwt>
<pdfrwt beam="1">  1        1 0.43891507E+00 0.30000000E+03</pdfrwt>
<pdfrwt beam="2">0</pdfrwt>
<totfact> 0.60924747E-01</totfact>
</mgrwt>
</event>
<event>
 6    1  0.5260809E-006  0.3000000E+03  0.7818608E-02  0.1093470E+00
          1   -1    0    0  502    0  0.00000000000E+00  0.00000000000E+00  0.11016413871E+03  0.11016413871E+03  0.00000000000E+00 0.  1.
         13   -1    0    0    0    0 -0.00000000000E+00 -0.00000000000E+00 -0.10000000000E+04  0.10000000000E+04  0.00000000000E+00 0.  1.
    9000005    2    1    2  501    0  0.61078501191E+00  0.12096688039E+02 -0.87381958792E+03  0.10900837022E+04  0.65159427757E+03 0.  0.
         13    1    3    3    0    0 -0.16873390192E+03 -0.20920037963E+03 -0.72704997163E+03  0.77513714253E+03  0.00000000000E+00 0.  1.
          3    1    3    3  501    0  0.16934468693E+03  0.22129706767E+03 -0.14676961629E+03  0.31494655962E+03  0.00000000000E+00 0.  1.
         21    1    1    2  502  501 -0.61078501191E+00 -0.12096688039E+02 -0.16016273369E+02  0.20080436561E+02  0.00000000000E+00 0. -1.
<mgrwt>
<rscale>  1 0.30000000E+03</rscale>
<asrwt>0</asrwt>
<pdfrwt beam="1">  1        1 0.40059771E+00 0.30000000E+03</pdfrwt>
<pdfrwt beam="2">0</pdfrwt>
<totfact> 0.10449317E+00</totfact>
</mgrwt>
</event>
<event>
 6    1  0.5260809E-006  0.3000000E+03  0.7818608E-02  0.1093470E+00
          1   -1    0    0  502    0  0.00000000000E+00  0.00000000000E+00  0.15883042529E+03  0.15883042529E+03  0.00000000000E+00 0.  1.
         13   -1    0    0    0    0 -0.00000000000E+00 -0.00000000000E+00 -0.10000000000E+04  0.10000000000E+04  0.00000000000E+00 0.  1.
    9000005    2    1    2  501    0  0.84702887411E+01 -0.20833702117E+02 -0.89439395582E+03  0.11010496008E+04  0.64176622399E+03 0.  0.
         13    1    3    3    0    0 -0.19480783568E+03  0.19097392447E+03 -0.17512378629E+03  0.32417506566E+03  0.00000000000E+00 0.  1.
          3    1    3    3  501    0  0.20327812443E+03 -0.21180762659E+03 -0.71927016953E+03  0.77687453513E+03  0.00000000000E+00 0.  1.
         21    1    1    2  502  501 -0.84702887411E+01  0.20833702117E+02  0.53224381111E+02  0.57780824500E+02  0.00000000000E+00 0.  1.
<mgrwt>
<rscale>  1 0.30000000E+03</rscale>
<asrwt>0</asrwt>
<pdfrwt beam="1">  1        1 0.57756640E+00 0.30000000E+03</pdfrwt>
<pdfrwt beam="2">0</pdfrwt>
<totfact> 0.73305909E-02</totfact>
</mgrwt>
</event>
<event>
 6    1  0.5260809E-006  0.3000000E+03  0.7818608E-02  0.1093470E+00
          1   -1    0    0  502    0  0.00000000000E+00  0.00000000000E+00  0.11126033001E+03  0.11126033001E+03  0.00000000000E+00 0.  1.
         13   -1    0    0    0    0 -0.00000000000E+00 -0.00000000000E+00 -0.10000000000E+04  0.10000000000E+04  0.00000000000E+00 0.  1.
    9000005    2    1    2  501    0  0.11072953440E+02  0.34460687278E+01 -0.89223615729E+03  0.10991478938E+04  0.64179922591E+03 0.  0.
         13    1    3    3    0    0  0.23705077324E+03 -0.14996574374E+03 -0.72864278102E+03  0.78077083431E+03  0.00000000000E+00 0.  1.
          1    1    3    3  501    0 -0.22597781980E+03  0.15341181247E+03 -0.16359337627E+03  0.31837705948E+03  0.00000000000E+00 0.  1.
         21    1    1    2  502  501 -0.11072953440E+02 -0.34460687278E+01  0.34964872938E+01  0.12112436210E+02  0.00000000000E+00 0. -1.
<mgrwt>
<rscale>  1 0.30000000E+03</rscale>
<asrwt>0</asrwt>
<pdfrwt beam="1">  1        1 0.40458387E+00 0.30000000E+03</pdfrwt>
<pdfrwt beam="2">0</pdfrwt>
<totfact> 0.99116250E-01</totfact>
</mgrwt>
</event>
<event>
 6    1  0.5260809E-006  0.3000000E+03  0.7818608E-02  0.1093470E+00
          1   -1    0    0  502    0  0.00000000000E+00  0.00000000000E+00  0.12315880053E+03  0.12315880053E+03  0.00000000000E+00 0.  1.
         13   -1    0    0    0    0 -0.00000000000E+00 -0.00000000000E+00 -0.10000000000E+04  0.10000000000E+04  0.00000000000E+00 0.  1.
    9000005    2    1    2  501    0 -0.27506187980E+01 -0.16548691373E+02 -0.87873819129E+03  0.11062761565E+04  0.67185169542E+03 0.  0.
         13    1    3    3    0    0  0.27601172467E+03 -0.10364553958E+03 -0.71047487407E+03  0.76922000540E+03  0.00000000000E+00 0.  1.
          1    1    3    3  501    0 -0.27876234347E+03  0.87096848203E+02 -0.16826331722E+03  0.33705615115E+03  0.00000000000E+00 0.  1.
         21    1    1    2  502  501  0.27506187980E+01  0.16548691373E+02  0.18969918195E+01  0.16882643984E+02  0.00000000000E+00 0.  1.
<mgrwt>
<rscale>  1 0.30000000E+03</rscale>
<asrwt>0</asrwt>
<pdfrwt beam="1">  1        1 0.44785113E+00 0.30000000E+03</pdfrwt>
<pdfrwt beam="2">0</pdfrwt>
<totfact> 0.53191245E-01</totfact>
</mgrwt>
</event>
<event>
 6    1  0.5260809E-006  0.3000000E+03  0.7818608E-02  0.1093470E+00
          1   -1    0    0  502    0  0.00000000000E+00  0.00000000000E+00  0.12285577118E+03  0.12285577118E+03  0.00000000000E+00 0.  1.
         13   -1    0    0    0    0 -0.00000000000E+00 -0.00000000000E+00 -0.10000000000E+04  0.10000000000E+04  0.00000000000E+00 0.  1.
    9000005    2    1    2  501    0  0.23144853799E+02 -0.44260463168E+01 -0.88312288857E+03  0.10985448988E+04  0.65294684640E+03 0.  0.
         13    1    3    3    0    0 -0.13153725278E+03 -0.28793030733E+03 -0.54986233556E+03  0.63447182665E+03  0.00000000000E+00 0.  1.
          3    1    3    3  501    0  0.15468210658E+03  0.28350426101E+03 -0.33326055301E+03  0.46407307215E+03  0.00000000000E+00 0.  1.
         21    1    1    2  502  501 -0.23144853799E+02  0.44260463168E+01  0.59786597453E+01  0.24310872377E+02  0.00000000000E+00 0. -1.
<mgrwt>
<rscale>  1 0.30000000E+03</rscale>
<asrwt>0</asrwt>
<pdfrwt beam="1">  1        1 0.44674920E+00 0.30000000E+03</pdfrwt>
<pdfrwt beam="2">0</pdfrwt>
<totfact> 0.54101238E-01</totfact>
</mgrwt>
</event>
<event>
 6    1  0.5260809E-006  0.3000000E+03  0.7818608E-02  0.1093470E+00
          1   -1    0    0  502    0  0.00000000000E+00  0.00000000000E+00  0.69681802898E+02  0.69681802898E+02  0.00000000000E+00 0.  1.
         13   -1    0    0    0    0 -0.00000000000E+00 -0.00000000000E+00 -0.10000000000E+04  0.10000000000E+04  0.00000000000E+00 0.  1.
    9000005    2    1    2  501    0 -0.24337132891E+02  0.16963889773E+02 -0.90836150649E+03  0.10327742717E+04  0.49053236417E+03 0.  0.
         13    1    3    3    0    0 -0.13269888294E+03  0.98508815323E+02 -0.63417926137E+02  0.17701642180E+03  0.00000000000E+00 0.  1.
          3    1    3    3  501    0  0.10836175005E+03 -0.81544925551E+02 -0.84494358035E+03  0.85575784994E+03  0.00000000000E+00 0.  1.
         21    1    1    2  502  501  0.24337132891E+02 -0.16963889773E+02 -0.21956690611E+02  0.36907531158E+02  0.00000000000E+00 0. -1.
<mgrwt>
<rscale>  1 0.30000000E+03</rscale>
<asrwt>0</asrwt>
<pdfrwt beam="1">  1        1 0.25338891E+00 0.30000000E+03</pdfrwt>
<pdfrwt beam="2">0</pdfrwt>
<totfact> 0.57532091E+00</totfact>
</mgrwt>
</event>
<event>
 6    1  0.5260809E-006  0.3000000E+03  0.7818608E-02  0.1093470E+00
          1   -1    0    0  502    0  0.00000000000E+00  0.00000000000E+00  0.11267792333E+03  0.11267792333E+03  0.00000000000E+00 0.  1.
         13   -1    0    0    0    0 -0.00000000000E+00 -0.00000000000E+00 -0.10000000000E+04  0.10000000000E+04  0.00000000000E+00 0.  1.
    9000005    2    1    2  501    0  0.99517156542E+01 -0.11484793625E+02 -0.87407103549E+03  0.10925154031E+04  0.65525475490E+03 0.  0.
         13    1    3    3    0    0 -0.13882500577E+03  0.18140384314E+03 -0.50865249437E+02  0.23402352474E+03  0.00000000000E+00 0.  1.
          3    1    3    3  501    0  0.14877672143E+03 -0.19288863676E+03 -0.82320578605E+03  0.85849187837E+03  0.00000000000E+00 0.  1.
         21    1    1    2  502  501 -0.99517156542E+01  0.11484793625E+02 -0.13251041184E+02  0.20162520218E+02  0.00000000000E+00 0.  1.
<mgrwt>
<rscale>  1 0.30000000E+03</rscale>
<asrwt>0</asrwt>
<pdfrwt beam="1">  1        1 0.40973877E+00 0.30000000E+03</pdfrwt>
<pdfrwt beam="2">0</pdfrwt>
<totfact> 0.92463193E-01</totfact>
</mgrwt>
</event>
<event>
 6    1  0.5260809E-006  0.3000000E+03  0.7818608E-02  0.1093470E+00
          1   -1    0    0  502    0  0.00000000000E+00  0.00000000000E+00  0.11209429523E+03  0.11209429523E+03  0.00000000000E+00 0.  1.
         13   -1    0    0    0    0 -0.00000000000E+00 -0.00000000000E+00 -0.10000000000E+04  0.10000000000E+04  0.00000000000E+00 0.  1.
    9000005    2    1    2  501    0  0.26642851962E+02  0.18443208433E+01 -0.87230071327E+03  0.10811627767E+04  0.63819367924E+03 0.  0.
         13    1    3    3    0    0 -0.97491930680E+02 -0.23611174879E+03 -0.11963014100E+03  0.28207234019E+03  0.00000000000E+00 0.  1.
          3    1    3    3  501    0  0.12413478264E+03  0.23795606963E+03 -0.75267057226E+03  0.79909043649E+03  0.00000000000E+00 0.  1.
         21    1    1    2  502  501 -0.26642851962E+02 -0.18443208433E+01 -0.15604991505E+02  0.30931518552E+02  0.00000000000E+00 0. -1.
<mgrwt>
<rscale>  1 0.30000000E+03</rscale>
<asrwt>0</asrwt>
<pdfrwt beam="1">  1        1 0.40761648E+00 0.30000000E+03</pdfrwt>
<pdfrwt beam="2">0</pdfrwt>
<totfact> 0.95160924E-01</totfact>
</mgrwt>
</event>
<event>
 6    1  0.5260809E-006  0.3000000E+03  0.7818608E-02  0.1093470E+00
          1   -1    0    0  502    0  0.00000000000E+00  0.00000000000E+00  0.83017939446E+02  0.83017939446E+02  0.00000000000E+00 0.  1.
         13   -1    0    0    0    0 -0.00000000000E+00 -0.00000000000E+00 -0.10000000000E+04  0.10000000000E+04  0.00000000000E+00 0.  1.
    9000005    2    1    2  501    0 -0.18244463274E+02 -0.16645976336E+00 -0.91417341211E+03  0.10645578025E+04  0.54519482698E+03 0.  0.
         13    1    3    3    0    0 -0.43639838327E+01 -0.25561169529E+03 -0.64200561126E+03  0.69103370975E+03  0.00000000000E+00 0.  1.
          1    1    3    3  501    0 -0.13880479441E+02  0.25544523553E+03 -0.27216780085E+03  0.37352409277E+03  0.00000000000E+00 0.  1.
         21    1    1    2  502  501  0.18244463274E+02  0.16645976336E+00 -0.28086484435E+01  0.18460136919E+02  0.00000000000E+00 0. -1.
<mgrwt>
<rscale>  1 0.30000000E+03</rscale>
<asrwt>0</asrwt>
<pdfrwt beam="1">  1        1 0.30188405E+00 0.30000000E+03</pdfrwt>
<pdfrwt beam="2">0</pdfrwt>
<totfact> 0.34035577E+00</totfact>
</mgrwt>
</event>
<event>
 6    1  0.5260809E-006  0.3000000E+03  0.7818608E-02  0.1093470E+00
          1   -1    0    0  502    0  0.00000000000E+00  0.00000000000E+00  0.13947380360E+03  0.13947380360E+03  0.00000000000E+00 0.  1.
         13   -1    0    0    0    0 -0.00000000000E+00 -0.00000000000E+00 -0.10000000000E+04  0.10000000000E+04  0.00000000000E+00 0.  1.
    9000005    2    1    2  501    0  0.40930164398E+02 -0.19012630703E+02 -0.87815129804E+03  0.10910238016E+04  0.64586877535E+03 0.  0.
         13    1    3    3    0    0 -0.14056329303E+03 -0.28928966354E+03 -0.45163565985E+03  0.55445587564E+03  0.00000000000E+00 0.  1.
          1    1    3    3  501    0  0.18149345743E+03  0.27027703284E+03 -0.42651563819E+03  0.53656792598E+03  0.00000000000E+00 0.  1.
         21    1    1    2  502  501 -0.40930164398E+02  0.19012630703E+02  0.17625101634E+02  0.48450001977E+02  0.00000000000E+00 0. -1.
<mgrwt>
<rscale>  1 0.30000000E+03</rscale>
<asrwt>0</asrwt>
<pdfrwt beam="1">  1        1 0.50717854E+00 0.30000000E+03</pdfrwt>
<pdfrwt beam="2">0</pdfrwt>
<totfact> 0.20232168E-01</totfact>
</mgrwt>
</event>
<event>
 6    1  0.5260809E-006  0.3000000E+03  0.7818608E-02  0.1093470E+00
          1   -1    0    0  502    0  0.00000000000E+00  0.00000000000E+00  0.12262659823E+03  0.12262659823E+03  0.00000000000E+00 0.  1.
         13   -1    0    0    0    0 -0.00000000000E+00 -0.00000000000E+00 -0.10000000000E+04  0.10000000000E+04  0.00000000000E+00 0.  1.
    9000005    2    1    2  501    0 -0.63825453864E+01 -0.32499132534E+02 -0.88926382424E+03  0.10874369315E+04  0.62500560021E+03 0.  0.
         13    1    3    3    0    0  0.21224923318E+03 -0.86561935684E+02 -0.82055828961E+03  0.85197336364E+03  0.00000000000E+00 0.  1.
          1    1    3    3  501    0 -0.21863177856E+03  0.54062803150E+02 -0.68705534628E+02  0.23546356782E+03  0.00000000000E+00 0.  1.
         21    1    1    2  502  501  0.63825453864E+01  0.32499132534E+02  0.11890422467E+02  0.35189666772E+02  0.00000000000E+00 0. -1.
<mgrwt>
<rscale>  1 0.30000000E+03</rscale>
<asrwt>0</asrwt>
<pdfrwt beam="1">  1        1 0.44591584E+00 0.30000000E+03</pdfrwt>
<pdfrwt beam="2">0</pdfrwt>
<totfact> 0.54798078E-01</totfact>
</mgrwt>
</event>
<event>
 6    1  0.5260809E-006  0.3000000E+03  0.7818608E-02  0.1093470E+00
          1   -1    0    0  502    0  0.00000000000E+00  0.00000000000E+00  0.11474155109E+03  0.11474155109E+03  0.00000000000E+00 0.  1.
         13   -1    0    0    0    0 -0.00000000000E+00 -0.00000000000E+00 -0.10000000000E+04  0.10000000000E+04  0.00000000000E+00 0.  1.
    9000005    2    1    2  501    0  0.16307772945E+02 -0.63250300545E+01 -0.87492633627E+03  0.10944264824E+04  0.65724217914E+03 0.  0.
         13    1    3    3    0    0  0.83212956396E+02  0.12632427534E+02 -0.97165626283E+03  0.97529475926E+03  0.00000000000E+00 0.  1.
          1    1    3    3  501    0 -0.66905183450E+02 -0.18957457588E+02  0.96729926555E+02  0.11913172316E+03  0.00000000000E+00 0.  1.
         21    1    1    2  502  501 -0.16307772945E+02  0.63250300545E+01 -0.10332112640E+02  0.20315068674E+02  0.00000000000E+00 0.  1.
<mgrwt>
<rscale>  1 0.30000000E+03</rscale>
<asrwt>0</asrwt>
<pdfrwt beam="1">  1        1 0.41724288E+00 0.30000000E+03</pdfrwt>
<pdfrwt beam="2">0</pdfrwt>
<totfact> 0.83376346E-01</totfact>
</mgrwt>
</event>
<event>
 6    1  0.5260809E-006  0.3000000E+03  0.7818608E-02  0.1093470E+00
          1   -1    0    0  502    0  0.00000000000E+00  0.00000000000E+00  0.12639507134E+03  0.12639507134E+03  0.00000000000E+00 0.  1.
         13   -1    0    0    0    0 -0.00000000000E+00 -0.00000000000E+00 -0.10000000000E+04  0.10000000000E+04  0.00000000000E+00 0.  1.
    9000005    2    1    2  501    0 -0.68621435693E+01  0.92006375271E+01 -0.88943526923E+03  0.11068415441E+04  0.65868912609E+03 0.  0.
         13    1    3    3    0    0  0.15041600610E+03 -0.49175170222E+02 -0.92239553680E+03  0.93587215931E+03  0.00000000000E+00 0.  1.
          3    1    3    3  501    0 -0.15727814967E+03  0.58375807749E+02  0.32960267573E+02  0.17096938478E+03  0.00000000000E+00 0.  1.
         21    1    1    2  502  501  0.68621435693E+01 -0.92006375271E+01  0.15830340568E+02  0.19553527246E+02  0.00000000000E+00 0. -1.
<mgrwt>
<rscale>  1 0.30000000E+03</rscale>
<asrwt>0</asrwt>
<pdfrwt beam="1">  1        1 0.45961941E+00 0.30000000E+03</pdfrwt>
<pdfrwt beam="2">0</pdfrwt>
<totfact> 0.44331261E-01</totfact>
</mgrwt>
</event>
<event>
 6    1  0.5260809E-006  0.3000000E+03  0.7818608E-02  0.1093470E+00
          1   -1    0    0  502    0  0.00000000000E+00  0.00000000000E+00  0.12450210858E+03  0.12450210858E+03  0.00000000000E+00 0.  1.
         13   -1    0    0    0    0 -0.00000000000E+00 -0.00000000000E+00 -0.10000000000E+04  0.10000000000E+04  0.00000000000E+00 0.  1.
    9000005    2    1    2  501    0  0.16454099985E+02  0.24116015440E+02 -0.88504000642E+03  0.10937877542E+04  0.64204635241E+03 0.  0.
         13    1    3    3    0    0 -0.16664592060E+03 -0.13045086949E+02  0.21194939211E+02  0.16849410255E+03  0.00000000000E+00 0.  1.
          3    1    3    3  501    0  0.18310002059E+03  0.37161102389E+02 -0.90623494563E+03  0.92529365163E+03  0.00000000000E+00 0.  1.
         21    1    1    2  502  501 -0.16454099985E+02 -0.24116015440E+02  0.95421149992E+01  0.30714354391E+02  0.00000000000E+00 0.  1.
<mgrwt>
<rscale>  1 0.30000000E+03</rscale>
<asrwt>0</asrwt>
<pdfrwt beam="1">  1        1 0.45273589E+00 0.30000000E+03</pdfrwt>
<pdfrwt beam="2">0</pdfrwt>
<totfact> 0.49322351E-01</totfact>
</mgrwt>
</event>
<event>
 6    1  0.5260809E-006  0.3000000E+03  0.7818608E-02  0.1093470E+00
          1   -1    0    0  502    0  0.00000000000E+00  0.00000000000E+00  0.10167110392E+03  0.10167110392E+03  0.00000000000E+00 0.  1.
         13   -1    0    0    0    0 -0.00000000000E+00 -0.00000000000E+00 -0.10000000000E+04  0.10000000000E+04  0.00000000000E+00 0.  1.
    9000005    2    1    2  501    0 -0.13859768189E+02  0.13504042526E+02 -0.88379615686E+03  0.10774708385E+04  0.61601404897E+03 0.  0.
         13    1    3    3    0    0  0.19816848690E+03  0.99490308876E+02 -0.70613351852E+02  0.23271294811E+03  0.00000000000E+00 0.  1.
          3    1    3    3  501    0 -0.21202825509E+03 -0.85986266350E+02 -0.81318280501E+03  0.84475789036E+03  0.00000000000E+00 0.  1.
         21    1    1    2  502  501  0.13859768189E+02 -0.13504042526E+02 -0.14532739213E+02  0.24200265450E+02  0.00000000000E+00 0.  1.
<mgrwt>
<rscale>  1 0.30000000E+03</rscale>
<asrwt>0</asrwt>
<pdfrwt beam="1">  1        1 0.36971388E+00 0.30000000E+03</pdfrwt>
<pdfrwt beam="2">0</pdfrwt>
<totfact> 0.15491445E+00</totfact>
</mgrwt>
</event>
<event>
 6    1  0.5260809E-006  0.3000000E+03  0.7818608E-02  0.1093470E+00
          1   -1    0    0  502    0  0.00000000000E+00  0.00000000000E+00  0.15937710899E+03  0.15937710899E+03  0.00000000000E+00 0.  1.
         13   -1    0    0    0    0 -0.00000000000E+00 -0.00000000000E+00 -0.10000000000E+04  0.10000000000E+04  0.00000000000E+00 0.  1.
    9000005    2    1    2  501    0  0.38145900722E+01  0.12061425453E+02 -0.89547471768E+03  0.11030854402E+04  0.64402056597E+03 0.  0.
         13    1    3    3    0    0  0.15152141442E+03  0.29008525015E+03 -0.50028280579E+03  0.59782194435E+03  0.00000000000E+00 0.  1.
          3    1    3    3  501    0 -0.14770682435E+03 -0.27802382469E+03 -0.39519191189E+03  0.50526349589E+03  0.00000000000E+00 0.  1.
         21    1    1    2  502  501 -0.38145900722E+01 -0.12061425453E+02  0.54851826666E+02  0.56291668744E+02  0.00000000000E+00 0. -1.
<mgrwt>
<rscale>  1 0.30000000E+03</rscale>
<asrwt>0</asrwt>
<pdfrwt beam="1">  1        1 0.57955435E+00 0.30000000E+03</pdfrwt>
<pdfrwt beam="2">0</pdfrwt>
<totfact> 0.72110307E-02</totfact>
</mgrwt>
</event>
<event>
 6    1  0.5260809E-006  0.3000000E+03  0.7818608E-02  0.1093470E+00
          1   -1    0    0  502    0  0.00000000000E+00  0.00000000000E+00  0.93672927344E+02  0.93672927344E+02  0.00000000000E+00 0.  1.
         13   -1    0    0    0    0 -0.00000000000E+00 -0.00000000000E+00 -0.10000000000E+04  0.10000000000E+04  0.00000000000E+00 0.  1.
    9000005    2    1    2  501    0  0.13357490199E+02 -0.99964977183E+01 -0.90818243061E+03  0.10768861807E+04  0.57845498210E+03 0.  0.
         13    1    3    3    0    0 -0.21117626670E+03  0.13917234706E+03 -0.21088870174E+03  0.32929986688E+03  0.00000000000E+00 0.  1.
          1    1    3    3  501    0  0.22453375690E+03 -0.14916884478E+03 -0.69729372887E+03  0.74758631378E+03  0.00000000000E+00 0.  1.
         21    1    1    2  502  501 -0.13357490199E+02  0.99964977183E+01  0.18553579571E+01  0.16786746683E+02  0.00000000000E+00 0. -1.
<mgrwt>
<rscale>  1 0.30000000E+03</rscale>
<asrwt>0</asrwt>
<pdfrwt beam="1">  1        1 0.34062954E+00 0.30000000E+03</pdfrwt>
<pdfrwt beam="2">0</pdfrwt>
<totfact> 0.21979440E+00</totfact>
</mgrwt>
</event>
<event>
 6    1  0.5260809E-006  0.3000000E+03  0.7818608E-02  0.1093470E+00
          1   -1    0    0  502    0  0.00000000000E+00  0.00000000000E+00  0.14235677439E+03  0.14235677439E+03  0.00000000000E+00 0.  1.
         13   -1    0    0    0    0 -0.00000000000E+00 -0.00000000000E+00 -0.10000000000E+04  0.10000000000E+04  0.00000000000E+00 0.  1.
    9000005    2    1    2  501    0 -0.29470836724E+02  0.26829528465E+02 -0.87842071580E+03  0.10974117200E+04  0.65658295397E+03 0.  0.
         13    1    3    3    0    0  0.26645231252E+03  0.93894410881E+02 -0.67600856999E+03  0.73266676050E+03  0.00000000000E+00 0.  1.
          3    1    3    3  501    0 -0.29592314925E+03 -0.67064882416E+02 -0.20241214581E+03  0.36474495950E+03  0.00000000000E+00 0.  1.
         21    1    1    2  502  501  0.29470836724E+02 -0.26829528465E+02  0.20777490189E+02  0.44945054382E+02  0.00000000000E+00 0. -1.
<mgrwt>
<rscale>  1 0.30000000E+03</rscale>
<asrwt>0</asrwt>
<pdfrwt beam="1">  1        1 0.51766209E+00 0.30000000E+03</pdfrwt>
<pdfrwt beam="2">0</pdfrwt>
<totfact> 0.16924063E-01</totfact>
</mgrwt>
</event>
<event>
 6    1  0.5260809E-006  0.3000000E+03  0.7818608E-02  0.1093470E+00
          1   -1    0    0  502    0  0.00000000000E+00  0.00000000000E+00  0.12651397701E+03  0.12651397701E+03  0.00000000000E+00 0.  1.
         13   -1    0    0    0    0 -0.00000000000E+00 -0.00000000000E+00 -0.10000000000E+04  0.10000000000E+04  0.00000000000E+00 0.  1.
    9000005    2    1    2  501    0 -0.44801013304E+02 -0.22483737325E+02 -0.76235787246E+03  0.10046037023E+04  0.65232386416E+03 0.  0.
         13    1    3    3    0    0 -0.22614618004E+02  0.26512165485E+03 -0.10375138388E+03  0.28559632783E+03  0.00000000000E+00 0.  1.
          3    1    3    3  501    0 -0.22186395299E+02 -0.28760539217E+03 -0.65860648858E+03  0.71900737447E+03  0.00000000000E+00 0.  1.
         21    1    1    2  502  501  0.44801013304E+02  0.22483737325E+02 -0.11112815053E+03  0.12191027470E+03  0.00000000000E+00 0.  1.
<mgrwt>
<rscale>  1 0.30000000E+03</rscale>
<asrwt>0</asrwt>
<pdfrwt beam="1">  1        1 0.46005180E+00 0.30000000E+03</pdfrwt>
<pdfrwt beam="2">0</pdfrwt>
<totfact> 0.44033612E-01</totfact>
</mgrwt>
</event>
<event>
 6    1  0.5260809E-006  0.3000000E+03  0.7818608E-02  0.1093470E+00
          1   -1    0    0  502    0  0.00000000000E+00  0.00000000000E+00  0.14101867981E+03  0.14101867981E+03  0.00000000000E+00 0.  1.
         13   -1    0    0    0    0 -0.00000000000E+00 -0.00000000000E+00 -0.10000000000E+04  0.10000000000E+04  0.00000000000E+00 0.  1.
    9000005    2    1    2  501    0 -0.34502367607E+01 -0.11406240506E+02 -0.89698093281E+03  0.11011943529E+04  0.63868004706E+03 0.  0.
         13    1    3    3    0    0 -0.46243786555E+02 -0.19816075424E+03 -0.21069151009E+02  0.20457292451E+03  0.00000000000E+00 0.  1.
          1    1    3    3  501    0  0.42793549794E+02  0.18675451374E+03 -0.87591178180E+03  0.89662142837E+03  0.00000000000E+00 0.  1.
         21    1    1    2  502  501  0.34502367607E+01  0.11406240506E+02  0.37999612620E+02  0.39824326930E+02  0.00000000000E+00 0. -1.
<mgrwt>
<rscale>  1 0.30000000E+03</rscale>
<asrwt>0</asrwt>
<pdfrwt beam="1">  1        1 0.51279628E+00 0.30000000E+03</pdfrwt>
<pdfrwt beam="2">0</pdfrwt>
<totfact> 0.18397724E-01</totfact>
</mgrwt>
</event>
<event>
 6    1  0.5260809E-006  0.3000000E+03  0.7818608E-02  0.1093470E+00
          1   -1    0    0  502    0  0.00000000000E+00  0.00000000000E+00  0.11129918443E+03  0.11129918443E+03  0.00000000000E+00 0.  1.
         13   -1    0    0    0    0 -0.00000000000E+00 -0.00000000000E+00 -0.10000000000E+04  0.10000000000E+04  0.00000000000E+00 0.  1.
    9000005    2    1    2  501    0  0.93843757650E+01 -0.26372078297E+01 -0.88391514190E+03  0.11004399006E+04  0.65541359103E+03 0.  0.
         13    1    3    3    0    0 -0.28968788146E+03  0.12510685747E+03 -0.31962821826E+03  0.44914696076E+03  0.00000000000E+00 0.  1.
          3    1    3    3  501    0  0.29907225722E+03 -0.12774406529E+03 -0.56428692364E+03  0.65129293981E+03  0.00000000000E+00 0.  1.
         21    1    1    2  502  501 -0.93843757650E+01  0.26372078297E+01 -0.47856736678E+01  0.10859283866E+02  0.00000000000E+00 0. -1.
<mgrwt>
<rscale>  1 0.30000000E+03</rscale>
<asrwt>0</asrwt>
<pdfrwt beam="1">  1        1 0.40472516E+00 0.30000000E+03</pdfrwt>
<pdfrwt beam="2">0</pdfrwt>
<totfact> 0.98929321E-01</totfact>
</mgrwt>
</event>
<event>
 6    1  0.5260809E-006  0.3000000E+03  0.7818608E-02  0.1093470E+00
          1   -1    0    0  502    0  0.00000000000E+00  0.00000000000E+00  0.11503879774E+03  0.11503879774E+03  0.00000000000E+00 0.  1.
         13   -1    0    0    0    0 -0.00000000000E+00 -0.00000000000E+00 -0.10000000000E+04  0.10000000000E+04  0.00000000000E+00 0.  1.
    9000005    2    1    2  501    0  0.16371580843E+02  0.55359919292E+01 -0.86701020657E+03  0.10901206495E+04  0.66057373267E+03 0.  0.
         13    1    3    3    0    0 -0.41868521029E+02 -0.27756124685E+03 -0.15268817843E+03  0.31954170094E+03  0.00000000000E+00 0.  1.
          3    1    3    3  501    0  0.58240101872E+02  0.28309723878E+03 -0.71432202814E+03  0.77057894855E+03  0.00000000000E+00 0.  1.
         21    1    1    2  502  501 -0.16371580843E+02 -0.55359919292E+01 -0.17950995687E+02  0.24918148248E+02  0.00000000000E+00 0.  1.
<mgrwt>
<rscale>  1 0.30000000E+03</rscale>
<asrwt>0</asrwt>
<pdfrwt beam="1">  1        1 0.41832378E+00 0.30000000E+03</pdfrwt>
<pdfrwt beam="2">0</pdfrwt>
<totfact> 0.82122067E-01</totfact>
</mgrwt>
</event>
<event>
 6    1  0.5260809E-006  0.3000000E+03  0.7818608E-02  0.1093470E+00
          1   -1    0    0  502    0  0.00000000000E+00  0.00000000000E+00  0.11239619619E+03  0.11239619619E+03  0.00000000000E+00 0.  1.
         13   -1    0    0    0    0 -0.00000000000E+00 -0.00000000000E+00 -0.10000000000E+04  0.10000000000E+04  0.00000000000E+00 0.  1.
    9000005    2    1    2  501    0 -0.65217358114E+01  0.18341337094E+02 -0.88162594199E+03  0.10920326868E+04  0.64412122281E+03 0.  0.
         13    1    3    3    0    0  0.16327113346E+03  0.43573623124E+02 -0.90333760695E+03  0.91900759289E+03  0.00000000000E+00 0.  1.
          1    1    3    3  501    0 -0.16979286927E+03 -0.25232286031E+02  0.21711664963E+02  0.17302509387E+03  0.00000000000E+00 0.  1.
         21    1    1    2  502  501  0.65217358114E+01 -0.18341337094E+02 -0.59778618230E+01  0.20363509431E+02  0.00000000000E+00 0. -1.
<mgrwt>
<rscale>  1 0.30000000E+03</rscale>
<asrwt>0</asrwt>
<pdfrwt beam="1">  1        1 0.40871430E+00 0.30000000E+03</pdfrwt>
<pdfrwt beam="2">0</pdfrwt>
<totfact> 0.93758265E-01</totfact>
</mgrwt>
</event>
<event>
 6    1  0.5260809E-006  0.3000000E+03  0.7818608E-02  0.1093470E+00
          1   -1    0    0  502    0  0.00000000000E+00  0.00000000000E+00  0.11015782793E+03  0.11015782793E+03  0.00000000000E+00 0.  1.
         13   -1    0    0    0    0 -0.00000000000E+00 -0.00000000000E+00 -0.10000000000E+04  0.10000000000E+04  0.00000000000E+00 0.  1.
    9000005    2    1    2  501    0 -0.31872894254E+01  0.12668793899E+02 -0.87734430821E+03  0.10920787308E+04  0.65017863847E+03 0.  0.
         13    1    3    3    0    0  0.27701897214E+03 -0.75729335064E+02 -0.67994819702E+03  0.73810838889E+03  0.00000000000E+00 0.  1.
          3    1    3    3  501    0 -0.28020626157E+03  0.88398128962E+02 -0.19739611120E+03  0.35397034190E+03  0.00000000000E+00 0.  1.
         21    1    1    2  502  501  0.31872894254E+01 -0.12668793899E+02 -0.12497863855E+02  0.18079097148E+02  0.00000000000E+00 0.  1.
<mgrwt>
<rscale>  1 0.30000000E+03</rscale>
<asrwt>0</asrwt>
<pdfrwt beam="1">  1        1 0.40057476E+00 0.30000000E+03</pdfrwt>
<pdfrwt beam="2">0</pdfrwt>
<totfact> 0.10452472E+00</totfact>
</mgrwt>
</event>
<event>
 6    1  0.5260809E-006  0.3000000E+03  0.7818608E-02  0.1093470E+00
          1   -1    0    0  502    0  0.00000000000E+00  0.00000000000E+00  0.11033106478E+03  0.11033106478E+03  0.00000000000E+00 0.  1.
         13   -1    0    0    0    0 -0.00000000000E+00 -0.00000000000E+00 -0.10000000000E+04  0.10000000000E+04  0.00000000000E+00 0.  1.
    9000005    2    1    2  501    0  0.64526291354E+01  0.54093529270E+01 -0.88119268497E+03  0.10983834985E+04  0.65564843033E+03 0.  0.
         13    1    3    3    0    0 -0.12086706582E+03  0.23407793316E+03 -0.77035910028E+03  0.81415874974E+03  0.00000000000E+00 0.  1.
          3    1    3    3  501    0  0.12731969495E+03 -0.22866858023E+03 -0.11083358469E+03  0.28422474875E+03  0.00000000000E+00 0.  1.
         21    1    1    2  502  501 -0.64526291354E+01 -0.54093529270E+01 -0.84762502558E+01  0.11947566290E+02  0.00000000000E+00 0. -1.
<mgrwt>
<rscale>  1 0.30000000E+03</rscale>
<asrwt>0</asrwt>
<pdfrwt beam="1">  1        1 0.40120472E+00 0.30000000E+03</pdfrwt>
<pdfrwt beam="2">0</pdfrwt>
<totfact> 0.10366132E+00</totfact>
</mgrwt>
</event>
<event>
 6    1  0.5260809E-006  0.3000000E+03  0.7818608E-02  0.1093470E+00
          1   -1    0    0  502    0  0.00000000000E+00  0.00000000000E+00  0.13321299957E+03  0.13321299957E+03  0.00000000000E+00 0.  1.
         13   -1    0    0    0    0 -0.00000000000E+00 -0.00000000000E+00 -0.10000000000E+04  0.10000000000E+04  0.00000000000E+00 0.  1.
    9000005    2    1    2  501    0  0.11449151610E+02 -0.22706144993E+02 -0.88942378960E+03  0.10991677897E+04  0.64532821125E+03 0.  0.
         13    1    3    3    0    0 -0.21539277714E+03  0.11892925753E+03 -0.99849070458E+02  0.26553352634E+03  0.00000000000E+00 0.  1.
          3    1    3    3  501    0  0.22684192875E+03 -0.14163540252E+03 -0.78957471915E+03  0.83363426333E+03  0.00000000000E+00 0.  1.
         21    1    1    2  502  501 -0.11449151610E+02  0.22706144993E+02  0.22636789174E+02  0.34045209900E+02  0.00000000000E+00 0.  1.
<mgrwt>
<rscale>  1 0.30000000E+03</rscale>
<asrwt>0</asrwt>
<pdfrwt beam="1">  1        1 0.48441193E+00 0.30000000E+03</pdfrwt>
<pdfrwt beam="2">0</pdfrwt>
<totfact> 0.29684665E-01</totfact>
</mgrwt>
</event>
<event>
 6    1  0.5260809E-006  0.3000000E+03  0.7818608E-02  0.1093470E+00
          1   -1    0    0  502    0  0.00000000000E+00  0.00000000000E+00  0.15767937625E+03  0.15767937625E+03  0.00000000000E+00 0.  1.
         13   -1    0    0    0    0 -0.00000000000E+00 -0.00000000000E+00 -0.10000000000E+04  0.10000000000E+04  0.00000000000E+00 0.  1.
    9000005    2    1    2  501    0 -0.28167757478E+02  0.11104423481E+03 -0.79703148905E+03  0.10344911042E+04  0.64945238896E+03 0.  0.
         13    1    3    3    0    0  0.64498503750E+02 -0.23965124172E+03 -0.14252908868E+03  0.28619454181E+03  0.00000000000E+00 0.  1.
          1    1    3    3  501    0 -0.92666261228E+02  0.35069547652E+03 -0.65450240036E+03  0.74829656241E+03  0.00000000000E+00 0.  1.
         21    1    1    2  502  501  0.28167757478E+02 -0.11104423481E+03 -0.45289134699E+02  0.12318827203E+03  0.00000000000E+00 0. -1.
<mgrwt>
<rscale>  1 0.30000000E+03</rscale>
<asrwt>0</asrwt>
<pdfrwt beam="1">  1        1 0.57338076E+00 0.30000000E+03</pdfrwt>
<pdfrwt beam="2">0</pdfrwt>
<totfact> 0.75974169E-02</totfact>
</mgrwt>
</event>
<event>
 6    1  0.5260809E-006  0.3000000E+03  0.7818608E-02  0.1093470E+00
          1   -1    0    0  502    0  0.00000000000E+00  0.00000000000E+00  0.10843872537E+03  0.10843872537E+03  0.00000000000E+00 0.  1.
         13   -1    0    0    0    0 -0.00000000000E+00 -0.00000000000E+00 -0.10000000000E+04  0.10000000000E+04  0.00000000000E+00 0.  1.
    9000005    2    1    2  501    0  0.97630340856E+01  0.59125458315E+01 -0.88474899971E+03  0.10951465426E+04  0.64531765998E+03 0.  0.
         13    1    3    3    0    0  0.53789650581E+02  0.41951879177E+02 -0.98098272513E+03  0.98335161243E+03  0.00000000000E+00 0.  1.
          3    1    3    3  501    0 -0.44026616496E+02 -0.36039333346E+02  0.96233725414E+02  0.11179493018E+03  0.00000000000E+00 0.  1.
         21    1    1    2  502  501 -0.97630340856E+01 -0.59125458315E+01 -0.68122749157E+01  0.13292182751E+02  0.00000000000E+00 0.  1.
<mgrwt>
<rscale>  1 0.30000000E+03</rscale>
<asrwt>0</asrwt>
<pdfrwt beam="1">  1        1 0.39432347E+00 0.30000000E+03</pdfrwt>
<pdfrwt beam="2">0</pdfrwt>
<totfact> 0.11340375E+00</totfact>
</mgrwt>
</event>
<event>
 6    1  0.5260809E-006  0.3000000E+03  0.7818608E-02  0.1093470E+00
          1   -1    0    0  502    0  0.00000000000E+00  0.00000000000E+00  0.13428242629E+03  0.13428242629E+03  0.00000000000E+00 0.  1.
         13   -1    0    0    0    0 -0.00000000000E+00 -0.00000000000E+00 -0.10000000000E+04  0.10000000000E+04  0.00000000000E+00 0.  1.
    9000005    2    1    2  501    0 -0.65333022313E+02  0.24582760578E+02 -0.83417671906E+03  0.10576825475E+04  0.64650510957E+03 0.  0.
         13    1    3    3    0    0  0.21880459486E+02  0.21618496036E+03 -0.21693786949E+02  0.21836966819E+03  0.00000000000E+00 0.  1.
          3    1    3    3  501    0 -0.87213481798E+02 -0.19160219978E+03 -0.81248293211E+03  0.83931287929E+03  0.00000000000E+00 0.  1.
         21    1    1    2  502  501  0.65333022313E+02 -0.24582760578E+02 -0.31540854642E+02  0.76599878810E+02  0.00000000000E+00 0. -1.
<mgrwt>
<rscale>  1 0.30000000E+03</rscale>
<asrwt>0</asrwt>
<pdfrwt beam="1">  1        1 0.48830076E+00 0.30000000E+03</pdfrwt>
<pdfrwt beam="2">0</pdfrwt>
<totfact> 0.27816359E-01</totfact>
</mgrwt>
</event>
<event>
 6    1  0.5260809E-006  0.3000000E+03  0.7818608E-02  0.1093470E+00
          1   -1    0    0  502    0  0.00000000000E+00  0.00000000000E+00  0.11828053345E+03  0.11828053345E+03  0.00000000000E+00 0.  1.
         13   -1    0    0    0    0 -0.00000000000E+00 -0.00000000000E+00 -0.10000000000E+04  0.10000000000E+04  0.00000000000E+00 0.  1.
    9000005    2    1    2  501    0 -0.44923394832E+02 -0.91713777565E+00 -0.86910983349E+03  0.10716119638E+04  0.62528501164E+03 0.  0.
         13    1    3    3    0    0 -0.79973345182E+02  0.29686670101E+03 -0.30671692814E+03  0.43428199147E+03  0.00000000000E+00 0.  1.
          1    1    3    3  501    0  0.35049950350E+02 -0.29778383879E+03 -0.56239290535E+03  0.63732997235E+03  0.00000000000E+00 0.  1.
         21    1    1    2  502  501  0.44923394832E+02  0.91713777565E+00 -0.12609633061E+02  0.46668569626E+02  0.00000000000E+00 0.  1.
<mgrwt>
<rscale>  1 0.30000000E+03</rscale>
<asrwt>0</asrwt>
<pdfrwt beam="1">  1        1 0.43011194E+00 0.30000000E+03</pdfrwt>
<pdfrwt beam="2">0</pdfrwt>
<totfact> 0.69352675E-01</totfact>
</mgrwt>
</event>
<event>
 6    1  0.5260809E-006  0.3000000E+03  0.7818608E-02  0.1093470E+00
          1   -1    0    0  502    0  0.00000000000E+00  0.00000000000E+00  0.13933439752E+03  0.13933439752E+03  0.00000000000E+00 0.  1.
         13   -1    0    0    0    0 -0.00000000000E+00 -0.00000000000E+00 -0.10000000000E+04  0.10000000000E+04  0.00000000000E+00 0.  1.
    9000005    2    1    2  501    0  0.62886759196E+02  0.16119617427E+01 -0.85598847595E+03  0.10762533511E+04  0.64934402432E+03 0.  0.
         13    1    3    3    0    0  0.35421729036E+03 -0.39729559762E+02 -0.43008080272E+03  0.55858555619E+03  0.00000000000E+00 0.  1.
          3    1    3    3  501    0 -0.29133053117E+03  0.41341521505E+02 -0.42590767323E+03  0.51766779492E+03  0.00000000000E+00 0.  1.
         21    1    1    2  502  501 -0.62886759196E+02 -0.16119617427E+01 -0.46771265362E+01  0.63081046404E+02  0.00000000000E+00 0. -1.
<mgrwt>
<rscale>  1 0.30000000E+03</rscale>
<asrwt>0</asrwt>
<pdfrwt beam="1">  1        1 0.50667160E+00 0.30000000E+03</pdfrwt>
<pdfrwt beam="2">0</pdfrwt>
<totfact> 0.20405584E-01</totfact>
</mgrwt>
</event>
<event>
 6    1  0.5260809E-006  0.3000000E+03  0.7818608E-02  0.1093470E+00
          1   -1    0    0  502    0  0.00000000000E+00  0.00000000000E+00  0.14192951416E+03  0.14192951416E+03  0.00000000000E+00 0.  1.
         13   -1    0    0    0    0 -0.00000000000E+00 -0.00000000000E+00 -0.10000000000E+04  0.10000000000E+04  0.00000000000E+00 0.  1.
    9000005    2    1    2  501    0 -0.89825147281E+02  0.40192920694E+02 -0.80355243496E+03  0.10294295327E+04  0.63588097871E+03 0.  0.
         13    1    3    3    0    0 -0.51414813812E+02 -0.54159001879E+02  0.97401633608E+02  0.12273450531E+03  0.00000000000E+00 0.  1.
          1    1    3    3  501    0 -0.38410333470E+02  0.94351922572E+02 -0.90095406857E+03  0.90669502738E+03  0.00000000000E+00 0.  1.
         21    1    1    2  502  501  0.89825147281E+02 -0.40192920694E+02 -0.54518050884E+02  0.11249998147E+03  0.00000000000E+00 0.  1.
<mgrwt>
<rscale>  1 0.30000000E+03</rscale>
<asrwt>0</asrwt>
<pdfrwt beam="1">  1        1 0.51610841E+00 0.30000000E+03</pdfrwt>
<pdfrwt beam="2">0</pdfrwt>
<totfact> 0.17382528E-01</totfact>
</mgrwt>
</event>
<event>
 6    1  0.5260809E-006  0.3000000E+03  0.7818608E-02  0.1093470E+00
          1   -1    0    0  502    0  0.00000000000E+00  0.00000000000E+00  0.11066544475E+03  0.11066544475E+03  0.00000000000E+00 0.  1.
         13   -1    0    0    0    0 -0.00000000000E+00 -0.00000000000E+00 -0.10000000000E+04  0.10000000000E+04  0.00000000000E+00 0.  1.
    9000005    2    1    2  501    0 -0.79697066293E+01  0.37424833305E+00 -0.87967583844E+03  0.10981375919E+04  0.65727690802E+03 0.  0.
         13    1    3    3    0    0 -0.28037582630E+03  0.11978768258E+03 -0.66426727381E+03  0.73089719108E+03  0.00000000000E+00 0.  1.
          3    1    3    3  501    0  0.27240611967E+03 -0.11941343424E+03 -0.21540856463E+03  0.36724040086E+03  0.00000000000E+00 0.  1.
         21    1    1    2  502  501  0.79697066293E+01 -0.37424833305E+00 -0.96587168113E+01  0.12527852809E+02  0.00000000000E+00 0. -1.
<mgrwt>
<rscale>  1 0.30000000E+03</rscale>
<asrwt>0</asrwt>
<pdfrwt beam="1">  1        1 0.40242065E+00 0.30000000E+03</pdfrwt>
<pdfrwt beam="2">0</pdfrwt>
<totfact> 0.10200946E+00</totfact>
</mgrwt>
</event>
<event>
 6    1  0.5260809E-006  0.3000000E+03  0.7818608E-02  0.1093470E+00
          1   -1    0    0  502    0  0.00000000000E+00  0.00000000000E+00  0.14074188535E+03  0.14074188535E+03  0.00000000000E+00 0.  1.
         13   -1    0    0    0    0 -0.00000000000E+00 -0.00000000000E+00 -0.10000000000E+04  0.10000000000E+04  0.00000000000E+00 0.  1.
    9000005    2    1    2  501    0  0.87619659890E+02 -0.30473058297E+02 -0.74283125791E+03  0.99187608991E+03  0.65070276465E+03 0.  0.
         13    1    3    3    0    0  0.51888519165E+02 -0.88275044365E+01  0.11843147545E+03  0.12960076247E+03  0.00000000000E+00 0.  1.
          1    1    3    3  501    0  0.35731140725E+02 -0.21645553861E+02 -0.86126273336E+03  0.86227532743E+03  0.00000000000E+00 0.  1.
         21    1    1    2  502  501 -0.87619659890E+02  0.30473058297E+02 -0.11642685674E+03  0.14886579544E+03  0.00000000000E+00 0.  1.
<mgrwt>
<rscale>  1 0.30000000E+03</rscale>
<asrwt>0</asrwt>
<pdfrwt beam="1">  1        1 0.51178975E+00 0.30000000E+03</pdfrwt>
<pdfrwt beam="2">0</pdfrwt>
<totfact> 0.18715726E-01</totfact>
</mgrwt>
</event>
<event>
 6    1  0.5260809E-006  0.3000000E+03  0.7818608E-02  0.1093470E+00
          1   -1    0    0  502    0  0.00000000000E+00  0.00000000000E+00  0.13828662930E+03  0.13828662930E+03  0.00000000000E+00 0.  1.
         13   -1    0    0    0    0 -0.00000000000E+00 -0.00000000000E+00 -0.10000000000E+04  0.10000000000E+04  0.00000000000E+00 0.  1.
    9000005    2    1    2  501    0 -0.40659088379E+02  0.34030791591E+02 -0.88237175880E+03  0.10813829805E+04  0.62289483352E+03 0.  0.
         13    1    3    3    0    0  0.25320422886E+02  0.29604894475E+03 -0.68533076548E+03  0.74697011963E+03  0.00000000000E+00 0.  1.
          3    1    3    3  501    0 -0.65979511264E+02 -0.26201815316E+03 -0.19704099331E+03  0.33441286090E+03  0.00000000000E+00 0.  1.
         21    1    1    2  502  501  0.40659088379E+02 -0.34030791591E+02  0.20658388102E+02  0.56903648767E+02  0.00000000000E+00 0.  1.
<mgrwt>
<rscale>  1 0.30000000E+03</rscale>
<asrwt>0</asrwt>
<pdfrwt beam="1">  1        1 0.50286153E+00 0.30000000E+03</pdfrwt>
<pdfrwt beam="2">0</pdfrwt>
<totfact> 0.21758649E-01</totfact>
</mgrwt>
</event>
<event>
 6    1  0.5260809E-006  0.3000000E+03  0.7818608E-02  0.1093470E+00
          1   -1    0    0  502    0  0.00000000000E+00  0.00000000000E+00  0.12350002019E+03  0.12350002019E+03  0.00000000000E+00 0.  1.
         13   -1    0    0    0    0 -0.00000000000E+00 -0.00000000000E+00 -0.10000000000E+04  0.10000000000E+04  0.00000000000E+00 0.  1.
    9000005    2    1    2  501    0 -0.12106839039E+02  0.32961520761E+02 -0.86739755488E+03  0.10872248008E+04  0.65455802788E+03 0.  0.
         13    1    3    3    0    0 -0.19750189437E+03  0.25848716666E+03 -0.27174186665E+03  0.42387056480E+03  0.00000000000E+00 0.  1.
          3    1    3    3  501    0  0.18539505533E+03 -0.22552564590E+03 -0.59565568823E+03  0.66335423600E+03  0.00000000000E+00 0.  1.
         21    1    1    2  502  501  0.12106839039E+02 -0.32961520761E+02 -0.91024249327E+01  0.36275219394E+02  0.00000000000E+00 0.  1.
<mgrwt>
<rscale>  1 0.30000000E+03</rscale>
<asrwt>0</asrwt>
<pdfrwt beam="1">  1        1 0.44909193E+00 0.30000000E+03</pdfrwt>
<pdfrwt beam="2">0</pdfrwt>
<totfact> 0.52182533E-01</totfact>
</mgrwt>
</event>
<event>
 6    1  0.5260809E-006  0.3000000E+03  0.7818608E-02  0.1093470E+00
          1   -1    0    0  502    0  0.00000000000E+00  0.00000000000E+00  0.19531048181E+03  0.19531048181E+03  0.00000000000E+00 0.  1.
         13   -1    0    0    0    0 -0.00000000000E+00 -0.00000000000E+00 -0.10000000000E+04  0.10000000000E+04  0.00000000000E+00 0.  1.
    9000005    2    1    2  501    0  0.48466489088E+02 -0.88120771217E+02 -0.86546004447E+03  0.10778058957E+04  0.63445266917E+03 0.  0.
         13    1    3    3    0    0  0.27244904319E+03 -0.24274740228E+03 -0.56303149500E+03  0.67093907832E+03  0.00000000000E+00 0.  1.
          3    1    3    3  501    0 -0.22398255410E+03  0.15462663107E+03 -0.30242854947E+03  0.40686681741E+03  0.00000000000E+00 0.  1.
         21    1    1    2  502  501 -0.48466489088E+02  0.88120771217E+02  0.60770526279E+02  0.11750458607E+03  0.00000000000E+00 0. -1.
<mgrwt>
<rscale>  1 0.30000000E+03</rscale>
<asrwt>0</asrwt>
<pdfrwt beam="1">  1        1 0.71022143E+00 0.30000000E+03</pdfrwt>
<pdfrwt beam="2">0</pdfrwt>
<totfact> 0.22017718E-02</totfact>
</mgrwt>
</event>
<event>
 6    1  0.5260809E-006  0.3000000E+03  0.7818608E-02  0.1093470E+00
          1   -1    0    0  502    0  0.00000000000E+00  0.00000000000E+00  0.12397981952E+03  0.12397981952E+03  0.00000000000E+00 0.  1.
         13   -1    0    0    0    0 -0.00000000000E+00 -0.00000000000E+00 -0.10000000000E+04  0.10000000000E+04  0.00000000000E+00 0.  1.
    9000005    2    1    2  501    0 -0.15013147632E+02  0.35531790244E+02 -0.85031241077E+03  0.10776247535E+04  0.66087518548E+03 0.  0.
         13    1    3    3    0    0 -0.70849625986E+02  0.34123835167E+03 -0.49801769688E+03  0.60785270301E+03  0.00000000000E+00 0.  1.
          3    1    3    3  501    0  0.55836478354E+02 -0.30570656142E+03 -0.35229471388E+03  0.46977205051E+03  0.00000000000E+00 0.  1.
         21    1    1    2  502  501  0.15013147632E+02 -0.35531790244E+02 -0.25707769716E+02  0.46355065996E+02  0.00000000000E+00 0.  1.
<mgrwt>
<rscale>  1 0.30000000E+03</rscale>
<asrwt>0</asrwt>
<pdfrwt beam="1">  1        1 0.45083666E+00 0.30000000E+03</pdfrwt>
<pdfrwt beam="2">0</pdfrwt>
<totfact> 0.50793658E-01</totfact>
</mgrwt>
</event>
<event>
 6    1  0.5260809E-006  0.3000000E+03  0.7818608E-02  0.1093470E+00
          1   -1    0    0  502    0  0.00000000000E+00  0.00000000000E+00  0.11881474746E+03  0.11881474746E+03  0.00000000000E+00 0.  1.
         13   -1    0    0    0    0 -0.00000000000E+00 -0.00000000000E+00 -0.10000000000E+04  0.10000000000E+04  0.00000000000E+00 0.  1.
    9000005    2    1    2  501    0  0.10812687714E+02 -0.35043427118E+02 -0.85374480699E+03  0.10730115374E+04  0.64894422558E+03 0.  0.
         13    1    3    3    0    0 -0.22478572392E+03 -0.40684634858E+01 -0.79782198501E+03  0.82889389782E+03  0.00000000000E+00 0.  1.
          1    1    3    3  501    0  0.23559841163E+03 -0.30974963632E+02 -0.55922821980E+02  0.24411763958E+03  0.00000000000E+00 0.  1.
         21    1    1    2  502  501 -0.10812687714E+02  0.35043427118E+02 -0.27440445555E+02  0.45803210062E+02  0.00000000000E+00 0.  1.
<mgrwt>
<rscale>  1 0.30000000E+03</rscale>
<asrwt>0</asrwt>
<pdfrwt beam="1">  1        1 0.43205454E+00 0.30000000E+03</pdfrwt>
<pdfrwt beam="2">0</pdfrwt>
<totfact> 0.67416717E-01</totfact>
</mgrwt>
</event>
<event>
 6    1  0.5260809E-006  0.3000000E+03  0.7818608E-02  0.1093470E+00
          1   -1    0    0  502    0  0.00000000000E+00  0.00000000000E+00  0.10943163864E+03  0.10943163864E+03  0.00000000000E+00 0.  1.
         13   -1    0    0    0    0 -0.00000000000E+00 -0.00000000000E+00 -0.10000000000E+04  0.10000000000E+04  0.00000000000E+00 0.  1.
    9000005    2    1    2  501    0  0.90061047354E+01 -0.86419929683E+01 -0.88789831282E+03  0.10966675043E+04  0.64355295603E+03 0.  0.
         13    1    3    3    0    0  0.28592567645E+03  0.14777367843E+03 -0.50588352900E+03  0.59959044139E+03  0.00000000000E+00 0.  1.
          1    1    3    3  501    0 -0.27691957172E+03 -0.15641567140E+03 -0.38201478381E+03  0.49707706295E+03  0.00000000000E+00 0.  1.
         21    1    1    2  502  501 -0.90061047354E+01  0.86419929683E+01 -0.26700485475E+01  0.12764134292E+02  0.00000000000E+00 0. -1.
<mgrwt>
<rscale>  1 0.30000000E+03</rscale>
<asrwt>0</asrwt>
<pdfrwt beam="1">  1        1 0.39793407E+00 0.30000000E+03</pdfrwt>
<pdfrwt beam="2">0</pdfrwt>
<totfact> 0.10820370E+00</totfact>
</mgrwt>
</event>
<event>
 6    1  0.5260809E-006  0.3000000E+03  0.7818608E-02  0.1093470E+00
          1   -1    0    0  502    0  0.00000000000E+00  0.00000000000E+00  0.12183957310E+03  0.12183957310E+03  0.00000000000E+00 0.  1.
         13   -1    0    0    0    0 -0.00000000000E+00 -0.00000000000E+00 -0.10000000000E+04  0.10000000000E+04  0.00000000000E+00 0.  1.
    9000005    2    1    2  501    0 -0.34047898807E+01 -0.31458622494E+02 -0.86536264944E+03  0.10877071745E+04  0.65821967836E+03 0.  0.
         13    1    3    3    0    0  0.31071461470E+03 -0.11917583177E+03 -0.44419690742E+03  0.55502913727E+03  0.00000000000E+00 0.  1.
          3    1    3    3  501    0 -0.31411940458E+03  0.87717209271E+02 -0.42116574202E+03  0.53267803727E+03  0.00000000000E+00 0.  1.
         21    1    1    2  502  501  0.34047898807E+01  0.31458622494E+02 -0.12797777463E+02  0.34132398558E+02  0.00000000000E+00 0. -1.
<mgrwt>
<rscale>  1 0.30000000E+03</rscale>
<asrwt>0</asrwt>
<pdfrwt beam="1">  1        1 0.44305393E+00 0.30000000E+03</pdfrwt>
<pdfrwt beam="2">0</pdfrwt>
<totfact> 0.57245503E-01</totfact>
</mgrwt>
</event>
<event>
 6    1  0.5260809E-006  0.3000000E+03  0.7818608E-02  0.1093470E+00
          1   -1    0    0  502    0  0.00000000000E+00  0.00000000000E+00  0.70402130832E+02  0.70402130832E+02  0.00000000000E+00 0.  1.
         13   -1    0    0    0    0 -0.00000000000E+00 -0.00000000000E+00 -0.10000000000E+04  0.10000000000E+04  0.00000000000E+00 0.  1.
    9000005    2    1    2  501    0  0.12050565610E+02 -0.10776690780E+02 -0.94244252113E+03  0.10497541702E+04  0.46208717680E+03 0.  0.
         13    1    3    3    0    0  0.19557453069E+03  0.12387614162E+03 -0.41311271001E+03  0.47355760651E+03  0.00000000000E+00 0.  1.
          3    1    3    3  501    0 -0.18352396508E+03 -0.13465283240E+03 -0.52932981112E+03  0.57619656366E+03  0.00000000000E+00 0.  1.
         21    1    1    2  502  501 -0.12050565610E+02  0.10776690780E+02  0.12844651957E+02  0.20647960664E+02  0.00000000000E+00 0. -1.
<mgrwt>
<rscale>  1 0.30000000E+03</rscale>
<asrwt>0</asrwt>
<pdfrwt beam="1">  1        1 0.25600829E+00 0.30000000E+03</pdfrwt>
<pdfrwt beam="2">0</pdfrwt>
<totfact> 0.55937300E+00</totfact>
</mgrwt>
</event>
<event>
 6    1  0.5260809E-006  0.3000000E+03  0.7818608E-02  0.1093470E+00
          1   -1    0    0  502    0  0.00000000000E+00  0.00000000000E+00  0.11682350382E+03  0.11682350382E+03  0.00000000000E+00 0.  1.
         13   -1    0    0    0    0 -0.00000000000E+00 -0.00000000000E+00 -0.10000000000E+04  0.10000000000E+04  0.00000000000E+00 0.  1.
    9000005    2    1    2  501    0 -0.57324342861E+01  0.22087324254E+02 -0.88476677132E+03  0.10939490711E+04  0.64295537940E+03 0.  0.
         13    1    3    3    0    0 -0.64873515758E+02 -0.27993510283E+03 -0.22168574131E+03  0.36292809583E+03  0.00000000000E+00 0.  1.
          3    1    3    3  501    0  0.59141081472E+02  0.30202242708E+03 -0.66308103001E+03  0.73102097531E+03  0.00000000000E+00 0.  1.
         21    1    1    2  502  501  0.57324342861E+01 -0.22087324254E+02  0.15902751413E+01  0.22874432683E+02  0.00000000000E+00 0. -1.
<mgrwt>
<rscale>  1 0.30000000E+03</rscale>
<asrwt>0</asrwt>
<pdfrwt beam="1">  1        1 0.42481364E+00 0.30000000E+03</pdfrwt>
<pdfrwt beam="2">0</pdfrwt>
<totfact> 0.74875215E-01</totfact>
</mgrwt>
</event>
<event>
 6    1  0.5260809E-006  0.3000000E+03  0.7818608E-02  0.1093470E+00
          1   -1    0    0  502    0  0.00000000000E+00  0.00000000000E+00  0.10592997700E+03  0.10592997700E+03  0.00000000000E+00 0.  1.
         13   -1    0    0    0    0 -0.00000000000E+00 -0.00000000000E+00 -0.10000000000E+04  0.10000000000E+04  0.00000000000E+00 0.  1.
    9000005    2    1    2  501    0  0.78590232246E+01 -0.91499306032E-01 -0.88045049369E+03  0.10902053404E+04  0.64287855755E+03 0.  0.
         13    1    3    3    0    0 -0.42313015884E+01  0.12596372458E+03  0.61179187927E+02  0.14009873967E+03  0.00000000000E+00 0.  1.
          3    1    3    3  501    0  0.12090324813E+02 -0.12605522388E+03 -0.94162968162E+03  0.95010660072E+03  0.00000000000E+00 0.  1.
         21    1    1    2  502  501 -0.78590232246E+01  0.91499306032E-01 -0.13619529305E+02  0.15724636615E+02  0.00000000000E+00 0.  1.
<mgrwt>
<rscale>  1 0.30000000E+03</rscale>
<asrwt>0</asrwt>
<pdfrwt beam="1">  1        1 0.38520073E+00 0.30000000E+03</pdfrwt>
<pdfrwt beam="2">0</pdfrwt>
<totfact> 0.12753316E+00</totfact>
</mgrwt>
</event>
<event>
 6    1  0.5260809E-006  0.3000000E+03  0.7818608E-02  0.1093470E+00
          1   -1    0    0  502    0  0.00000000000E+00  0.00000000000E+00  0.11299379601E+03  0.11299379601E+03  0.00000000000E+00 0.  1.
         13   -1    0    0    0    0 -0.00000000000E+00 -0.00000000000E+00 -0.10000000000E+04  0.10000000000E+04  0.00000000000E+00 0.  1.
    9000005    2    1    2  501    0 -0.18979581071E+02 -0.64365160789E+01 -0.86388687011E+03  0.10823971159E+04  0.65182922521E+03 0.  0.
         13    1    3    3    0    0  0.89101840694E+02 -0.10565632385E+03 -0.91624956676E+03  0.92661516573E+03  0.00000000000E+00 0.  1.
          1    1    3    3  501    0 -0.10808142176E+03  0.99219807767E+02  0.52362696650E+02  0.15578195012E+03  0.00000000000E+00 0.  1.
         21    1    1    2  502  501  0.18979581071E+02  0.64365160789E+01 -0.23119333885E+02  0.30596680149E+02  0.00000000000E+00 0. -1.
<mgrwt>
<rscale>  1 0.30000000E+03</rscale>
<asrwt>0</asrwt>
<pdfrwt beam="1">  1        1 0.41088740E+00 0.30000000E+03</pdfrwt>
<pdfrwt beam="2">0</pdfrwt>
<totfact> 0.91026966E-01</totfact>
</mgrwt>
</event>
<event>
 6    1  0.5260809E-006  0.3000000E+03  0.7818608E-02  0.1093470E+00
          1   -1    0    0  502    0  0.00000000000E+00  0.00000000000E+00  0.11285470132E+03  0.11285470132E+03  0.00000000000E+00 0.  1.
         13   -1    0    0    0    0 -0.00000000000E+00 -0.00000000000E+00 -0.10000000000E+04  0.10000000000E+04  0.00000000000E+00 0.  1.
    9000005    2    1    2  501    0 -0.10939308626E+02  0.19112382971E+01 -0.88382169503E+03  0.11012629954E+04  0.65689883171E+03 0.  0.
         13    1    3    3    0    0  0.15678376972E+03  0.66261884919E+02 -0.90455156306E+03  0.92042670435E+03  0.00000000000E+00 0.  1.
          1    1    3    3  501    0 -0.16772307834E+03 -0.64350646622E+02  0.20729868031E+02  0.18083629104E+03  0.00000000000E+00 0.  1.
         21    1    1    2  502  501  0.10939308626E+02 -0.19112382971E+01 -0.33236036511E+01  0.11591705926E+02  0.00000000000E+00 0.  1.
<mgrwt>
<rscale>  1 0.30000000E+03</rscale>
<asrwt>0</asrwt>
<pdfrwt beam="1">  1        1 0.41038160E+00 0.30000000E+03</pdfrwt>
<pdfrwt beam="2">0</pdfrwt>
<totfact> 0.91657357E-01</totfact>
</mgrwt>
</event>
<event>
 6    1  0.5260809E-006  0.3000000E+03  0.7818608E-02  0.1093470E+00
          1   -1    0    0  502    0  0.00000000000E+00  0.00000000000E+00  0.11591970771E+03  0.11591970771E+03  0.00000000000E+00 0.  1.
         13   -1    0    0    0    0 -0.00000000000E+00 -0.00000000000E+00 -0.10000000000E+04  0.10000000000E+04  0.00000000000E+00 0.  1.
    9000005    2    1    2  501    0 -0.93609039580E+01  0.58018337043E+01 -0.89739055047E+03  0.10986439799E+04  0.63370932357E+03 0.  0.
         13    1    3    3    0    0  0.28600894873E+03 -0.41360450720E+02 -0.23723944125E+03  0.37389083717E+03  0.00000000000E+00 0.  1.
          1    1    3    3  501    0 -0.29536985268E+03  0.47162284425E+02 -0.66015110922E+03  0.72475314277E+03  0.00000000000E+00 0.  1.
         21    1    1    2  502  501  0.93609039580E+01 -0.58018337043E+01  0.13310258181E+02  0.17275727773E+02  0.00000000000E+00 0.  1.
<mgrwt>
<rscale>  1 0.30000000E+03</rscale>
<asrwt>0</asrwt>
<pdfrwt beam="1">  1        1 0.42152710E+00 0.30000000E+03</pdfrwt>
<pdfrwt beam="2">0</pdfrwt>
<totfact> 0.78482189E-01</totfact>
</mgrwt>
</event>
<event>
 6    1  0.5260809E-006  0.3000000E+03  0.7818608E-02  0.1093470E+00
          1   -1    0    0  502    0  0.00000000000E+00  0.00000000000E+00  0.17520650827E+03  0.17520650827E+03  0.00000000000E+00 0.  1.
         13   -1    0    0    0    0 -0.00000000000E+00 -0.00000000000E+00 -0.10000000000E+04  0.10000000000E+04  0.00000000000E+00 0.  1.
    9000005    2    1    2  501    0 -0.40140674341E+02 -0.38443779374E+02 -0.88886206742E+03  0.10903891734E+04  0.62911332572E+03 0.  0.
         13    1    3    3    0    0  0.21155680411E+03 -0.16382947424E+03 -0.70588868019E+03  0.75490079270E+03  0.00000000000E+00 0.  1.
          3    1    3    3  501    0 -0.25169747845E+03  0.12538569487E+03 -0.18297338723E+03  0.33548838067E+03  0.00000000000E+00 0.  1.
         21    1    1    2  502  501  0.40140674341E+02  0.38443779374E+02  0.64068575684E+02  0.84817334898E+02  0.00000000000E+00 0.  1.
<mgrwt>
<rscale>  1 0.30000000E+03</rscale>
<asrwt>0</asrwt>
<pdfrwt beam="1">  1        1 0.63711592E+00 0.30000000E+03</pdfrwt>
<pdfrwt beam="2">0</pdfrwt>
<totfact> 0.41098778E-02</totfact>
</mgrwt>
</event>
<event>
 6    1  0.5260809E-006  0.3000000E+03  0.7818608E-02  0.1093470E+00
          1   -1    0    0  502    0  0.00000000000E+00  0.00000000000E+00  0.16235760408E+03  0.16235760408E+03  0.00000000000E+00 0.  1.
         13   -1    0    0    0    0 -0.00000000000E+00 -0.00000000000E+00 -0.10000000000E+04  0.10000000000E+04  0.00000000000E+00 0.  1.
    9000005    2    1    2  501    0  0.58312528829E+02 -0.26390109226E+02 -0.87810411683E+03  0.10866348219E+04  0.63687644584E+03 0.  0.
         13    1    3    3    0    0  0.30754143138E+03 -0.13560275473E+03 -0.64921603169E+03  0.73106175861E+03  0.00000000000E+00 0.  1.
          3    1    3    3  501    0 -0.24922890255E+03  0.10921264551E+03 -0.22888808514E+03  0.35557306328E+03  0.00000000000E+00 0.  1.
         21    1    1    2  502  501 -0.58312528829E+02  0.26390109226E+02  0.40461720909E+02  0.75722782188E+02  0.00000000000E+00 0. -1.
<mgrwt>
<rscale>  1 0.30000000E+03</rscale>
<asrwt>0</asrwt>
<pdfrwt beam="1">  1        1 0.59039253E+00 0.30000000E+03</pdfrwt>
<pdfrwt beam="2">0</pdfrwt>
<totfact> 0.65162303E-02</totfact>
</mgrwt>
</event>
<event>
 6    1  0.5260809E-006  0.3000000E+03  0.7818608E-02  0.1093470E+00
          1   -1    0    0  502    0  0.00000000000E+00  0.00000000000E+00  0.15750557954E+03  0.15750557954E+03  0.00000000000E+00 0.  1.
         13   -1    0    0    0    0 -0.00000000000E+00 -0.00000000000E+00 -0.10000000000E+04  0.10000000000E+04  0.00000000000E+00 0.  1.
    9000005    2    1    2  501    0  0.23861194782E+02 -0.20924488427E+01 -0.82851679401E+03  0.11297727651E+04  0.76770612069E+03 0.  0.
         13    1    3    3    0    0  0.11811612713E+03 -0.36991255201E+03 -0.41170090718E+03  0.56593670370E+03  0.00000000000E+00 0.  1.
          3    1    3    3  501    0 -0.94254932349E+02  0.36782010317E+03 -0.41681588684E+03  0.56383606136E+03  0.00000000000E+00 0.  1.
         21    1    1    2  502  501 -0.23861194782E+02  0.20924488427E+01 -0.13977626442E+02  0.27732814490E+02  0.00000000000E+00 0.  1.
<mgrwt>
<rscale>  1 0.30000000E+03</rscale>
<asrwt>0</asrwt>
<pdfrwt beam="1">  1        1 0.57274877E+00 0.30000000E+03</pdfrwt>
<pdfrwt beam="2">0</pdfrwt>
<totfact> 0.76380130E-02</totfact>
</mgrwt>
</event>
<event>
 6    1  0.5260809E-006  0.3000000E+03  0.7818608E-02  0.1093470E+00
          1   -1    0    0  502    0  0.00000000000E+00  0.00000000000E+00  0.11244977618E+03  0.11244977618E+03  0.00000000000E+00 0.  1.
         13   -1    0    0    0    0 -0.00000000000E+00 -0.00000000000E+00 -0.10000000000E+04  0.10000000000E+04  0.00000000000E+00 0.  1.
    9000005    2    1    2  501    0 -0.23875571872E+02  0.25304609632E+02 -0.85392261679E+03  0.10640640122E+04  0.63390694932E+03 0.  0.
         13    1    3    3    0    0 -0.12596606517E+03  0.24015707278E+03 -0.12746016902E+03  0.29964806668E+03  0.00000000000E+00 0.  1.
          3    1    3    3  501    0  0.10209049330E+03 -0.21485246315E+03 -0.72646244777E+03  0.76441594552E+03  0.00000000000E+00 0.  1.
         21    1    1    2  502  501  0.23875571872E+02 -0.25304609632E+02 -0.33627607034E+02  0.48385763977E+02  0.00000000000E+00 0. -1.
<mgrwt>
<rscale>  1 0.30000000E+03</rscale>
<asrwt>0</asrwt>
<pdfrwt beam="1">  1        1 0.40890914E+00 0.30000000E+03</pdfrwt>
<pdfrwt beam="2">0</pdfrwt>
<totfact> 0.93510935E-01</totfact>
</mgrwt>
</event>
<event>
 6    1  0.5260809E-006  0.3000000E+03  0.7818608E-02  0.1093470E+00
          1   -1    0    0  502    0  0.00000000000E+00  0.00000000000E+00  0.10420434207E+03  0.10420434207E+03  0.00000000000E+00 0.  1.
         13   -1    0    0    0    0 -0.00000000000E+00 -0.00000000000E+00 -0.10000000000E+04  0.10000000000E+04  0.00000000000E+00 0.  1.
    9000005    2    1    2  501    0 -0.19958830836E+01 -0.47856782945E+02 -0.88628301931E+03  0.10553704858E+04  0.57097724717E+03 0.  0.
         13    1    3    3    0    0 -0.16958026404E+02 -0.25154801843E+03 -0.79060326007E+03  0.82982979885E+03  0.00000000000E+00 0.  1.
          3    1    3    3  501    0  0.14962143320E+02  0.20369123548E+03 -0.95679759245E+02  0.22554068696E+03  0.00000000000E+00 0.  1.
         21    1    1    2  502  501  0.19958830836E+01  0.47856782945E+02 -0.95126386186E+01  0.48833856254E+02  0.00000000000E+00 0.  1.
<mgrwt>
<rscale>  1 0.30000000E+03</rscale>
<asrwt>0</asrwt>
<pdfrwt beam="1">  1        1 0.37892568E+00 0.30000000E+03</pdfrwt>
<pdfrwt beam="2">0</pdfrwt>
<totfact> 0.13809522E+00</totfact>
</mgrwt>
</event>
<event>
 6    1  0.5260809E-006  0.3000000E+03  0.7818608E-02  0.1093470E+00
          1   -1    0    0  502    0  0.00000000000E+00  0.00000000000E+00  0.12935902268E+03  0.12935902268E+03  0.00000000000E+00 0.  1.
         13   -1    0    0    0    0 -0.00000000000E+00 -0.00000000000E+00 -0.10000000000E+04  0.10000000000E+04  0.00000000000E+00 0.  1.
    9000005    2    1    2  501    0  0.25594851209E+02  0.49318845239E+02 -0.86152910273E+03  0.10730520856E+04  0.63727618712E+03 0.  0.
         13    1    3    3    0    0  0.30093580282E+03 -0.10716619073E+03 -0.48900097767E+03  0.58409665811E+03  0.00000000000E+00 0.  1.
          1    1    3    3  501    0 -0.27534095161E+03  0.15648503597E+03 -0.37252812507E+03  0.48895542750E+03  0.00000000000E+00 0.  1.
         21    1    1    2  502  501 -0.25594851209E+02 -0.49318845239E+02 -0.91118745846E+01  0.56306937073E+02  0.00000000000E+00 0. -1.
<mgrwt>
<rscale>  1 0.30000000E+03</rscale>
<asrwt>0</asrwt>
<pdfrwt beam="1">  1        1 0.47039744E+00 0.30000000E+03</pdfrwt>
<pdfrwt beam="2">0</pdfrwt>
<totfact> 0.37364520E-01</totfact>
</mgrwt>
</event>
<event>
 6    1  0.5260809E-006  0.3000000E+03  0.7818608E-02  0.1093470E+00
          1   -1    0    0  502    0  0.00000000000E+00  0.00000000000E+00  0.13088150793E+03  0.13088150793E+03  0.00000000000E+00 0.  1.
         13   -1    0    0    0    0 -0.00000000000E+00 -0.00000000000E+00 -0.10000000000E+04  0.10000000000E+04  0.00000000000E+00 0.  1.
    9000005    2    1    2  501    0  0.27046212288E+02 -0.61123290916E+02 -0.81451565272E+03  0.10445737774E+04  0.65056212118E+03 0.  0.
         13    1    3    3    0    0  0.57766121680E+02 -0.35412958679E+03 -0.42561351236E+03  0.55667903765E+03  0.00000000000E+00 0.  1.
          1    1    3    3  501    0 -0.30719909393E+02  0.29300629587E+03 -0.38890214035E+03  0.48789473970E+03  0.00000000000E+00 0.  1.
         21    1    1    2  502  501 -0.27046212288E+02  0.61123290916E+02 -0.54602839355E+02  0.86307730576E+02  0.00000000000E+00 0.  1.
<mgrwt>
<rscale>  1 0.30000000E+03</rscale>
<asrwt>0</asrwt>
<pdfrwt beam="1">  1        1 0.47593376E+00 0.30000000E+03</pdfrwt>
<pdfrwt beam="2">0</pdfrwt>
<totfact> 0.34147742E-01</totfact>
</mgrwt>
</event>
<event>
 6    1  0.5260809E-006  0.3000000E+03  0.7818608E-02  0.1093470E+00
          1   -1    0    0  502    0  0.00000000000E+00  0.00000000000E+00  0.12853837179E+03  0.12853837179E+03  0.00000000000E+00 0.  1.
         13   -1    0    0    0    0 -0.00000000000E+00 -0.00000000000E+00 -0.10000000000E+04  0.10000000000E+04  0.00000000000E+00 0.  1.
    9000005    2    1    2  501    0 -0.45329181525E+01  0.26233692087E+02 -0.88092054274E+03  0.11002854956E+04  0.65870965934E+03 0.  0.
         13    1    3    3    0    0 -0.31069398274E+03  0.53263125584E+02 -0.62633795917E+03  0.70118966803E+03  0.00000000000E+00 0.  1.
          1    1    3    3  501    0  0.30616106459E+03 -0.27029433498E+02 -0.25458258358E+03  0.39909582760E+03  0.00000000000E+00 0.  1.
         21    1    1    2  502  501  0.45329181525E+01 -0.26233692087E+02  0.94589145280E+01  0.28252876164E+02  0.00000000000E+00 0. -1.
<mgrwt>
<rscale>  1 0.30000000E+03</rscale>
<asrwt>0</asrwt>
<pdfrwt beam="1">  1        1 0.46741325E+00 0.30000000E+03</pdfrwt>
<pdfrwt beam="2">0</pdfrwt>
<totfact> 0.39200773E-01</totfact>
</mgrwt>
</event>
<event>
 6    1  0.5260809E-006  0.3000000E+03  0.7818608E-02  0.1093470E+00
          1   -1    0    0  502    0  0.00000000000E+00  0.00000000000E+00  0.11812096714E+03  0.11812096714E+03  0.00000000000E+00 0.  1.
         13   -1    0    0    0    0 -0.00000000000E+00 -0.00000000000E+00 -0.10000000000E+04  0.10000000000E+04  0.00000000000E+00 0.  1.
    9000005    2    1    2  501    0 -0.14100707713E+01  0.10520013286E+02 -0.89331363793E+03  0.11025193912E+04  0.64608597976E+03 0.  0.
         13    1    3    3    0    0  0.15659956390E+03 -0.19507807365E+02 -0.92519096484E+03  0.93855330130E+03  0.00000000000E+00 0.  1.
          1    1    3    3  501    0 -0.15800963467E+03  0.30027820652E+02  0.31877326908E+02  0.16396608989E+03  0.00000000000E+00 0.  1.
         21    1    1    2  502  501  0.14100707713E+01 -0.10520013286E+02  0.11434605069E+02  0.15601575953E+02  0.00000000000E+00 0. -1.
<mgrwt>
<rscale>  1 0.30000000E+03</rscale>
<asrwt>0</asrwt>
<pdfrwt beam="1">  1        1 0.42953170E+00 0.30000000E+03</pdfrwt>
<pdfrwt beam="2">0</pdfrwt>
<totfact> 0.69939810E-01</totfact>
</mgrwt>
</event>
<event>
 6    1  0.5260809E-006  0.3000000E+03  0.7818608E-02  0.1093470E+00
          1   -1    0    0  502    0  0.00000000000E+00  0.00000000000E+00  0.11879508152E+03  0.11879508152E+03  0.00000000000E+00 0.  1.
         13   -1    0    0    0    0 -0.00000000000E+00 -0.00000000000E+00 -0.10000000000E+04  0.10000000000E+04  0.00000000000E+00 0.  1.
    9000005    2    1    2  501    0  0.99502384363E+01 -0.79431060239E+01 -0.89144932744E+03  0.11024534753E+04  0.64850571446E+03 0.  0.
         13    1    3    3    0    0 -0.27728238848E+03  0.15445755381E+03 -0.47152907577E+03  0.56840331472E+03  0.00000000000E+00 0.  1.
          3    1    3    3  501    0  0.28723262692E+03 -0.16240065983E+03 -0.41992025167E+03  0.53405016060E+03  0.00000000000E+00 0.  1.
         21    1    1    2  502  501 -0.99502384363E+01  0.79431060239E+01  0.10244408958E+02  0.16341606199E+02  0.00000000000E+00 0. -1.
<mgrwt>
<rscale>  1 0.30000000E+03</rscale>
<asrwt>0</asrwt>
<pdfrwt beam="1">  1        1 0.43198303E+00 0.30000000E+03</pdfrwt>
<pdfrwt beam="2">0</pdfrwt>
<totfact> 0.67487186E-01</totfact>
</mgrwt>
</event>
<event>
 6    1  0.5260809E-006  0.3000000E+03  0.7818608E-02  0.1093470E+00
          1   -1    0    0  502    0  0.00000000000E+00  0.00000000000E+00  0.11164877625E+03  0.11164877625E+03  0.00000000000E+00 0.  1.
         13   -1    0    0    0    0 -0.00000000000E+00 -0.00000000000E+00 -0.10000000000E+04  0.10000000000E+04  0.00000000000E+00 0.  1.
    9000005    2    1    2  501    0  0.17795838219E+02  0.81578772177E+01 -0.89782705611E+03  0.10898994264E+04  0.61757922101E+03 0.  0.
         13    1    3    3    0    0  0.71938051841E+02 -0.41275929677E+01 -0.98441103706E+03  0.98704468502E+03  0.00000000000E+00 0.  1.
          1    1    3    3  501    0 -0.54142213622E+02  0.12285470185E+02  0.86583980952E+02  0.10285474141E+03  0.00000000000E+00 0.  1.
         21    1    1    2  502  501 -0.17795838219E+02 -0.81578772177E+01  0.94758323580E+01  0.21749349818E+02  0.00000000000E+00 0. -1.
<mgrwt>
<rscale>  1 0.30000000E+03</rscale>
<asrwt>0</asrwt>
<pdfrwt beam="1">  1        1 0.40599641E+00 0.30000000E+03</pdfrwt>
<pdfrwt beam="2">0</pdfrwt>
<totfact> 0.97259118E-01</totfact>
</mgrwt>
</event>
<event>
 6    1  0.5260809E-006  0.3000000E+03  0.7818608E-02  0.1093470E+00
          1   -1    0    0  502    0  0.00000000000E+00  0.00000000000E+00  0.12268306389E+03  0.12268306389E+03  0.00000000000E+00 0.  1.
         13   -1    0    0    0    0 -0.00000000000E+00 -0.00000000000E+00 -0.10000000000E+04  0.10000000000E+04  0.00000000000E+00 0.  1.
    9000005    2    1    2  501    0  0.12633495332E+02  0.14762875617E+02 -0.85415677872E+03  0.10924516135E+04  0.68080039479E+03 0.  0.
         13    1    3    3    0    0 -0.27952799967E+02 -0.30179746854E+03 -0.19584988970E+03  0.36086043055E+03  0.00000000000E+00 0.  1.
          3    1    3    3  501    0  0.40586295299E+02  0.31656034416E+03 -0.65830688902E+03  0.73159118296E+03  0.00000000000E+00 0.  1.
         21    1    1    2  502  501 -0.12633495332E+02 -0.14762875617E+02 -0.23160157395E+02  0.30231450368E+02  0.00000000000E+00 0.  1.
<mgrwt>
<rscale>  1 0.30000000E+03</rscale>
<asrwt>0</asrwt>
<pdfrwt beam="1">  1        1 0.44612117E+00 0.30000000E+03</pdfrwt>
<pdfrwt beam="2">0</pdfrwt>
<totfact> 0.54625704E-01</totfact>
</mgrwt>
</event>
<event>
 6    1  0.5260809E-006  0.3000000E+03  0.7818608E-02  0.1093470E+00
          1   -1    0    0  502    0  0.00000000000E+00  0.00000000000E+00  0.12253919446E+03  0.12253919446E+03  0.00000000000E+00 0.  1.
         13   -1    0    0    0    0 -0.00000000000E+00 -0.00000000000E+00 -0.10000000000E+04  0.10000000000E+04  0.00000000000E+00 0.  1.
    9000005    2    1    2  501    0 -0.35817503254E+01  0.14266614752E+02 -0.89015583730E+03  0.11031090873E+04  0.65134927546E+03 0.  0.
         13    1    3    3    0    0 -0.10112986700E+03  0.28991604757E+03 -0.23828378154E+03  0.38866145317E+03  0.00000000000E+00 0.  1.
          3    1    3    3  501    0  0.97548116679E+02 -0.27564943281E+03 -0.65187205575E+03  0.71444763415E+03  0.00000000000E+00 0.  1.
         21    1    1    2  502  501  0.35817503254E+01 -0.14266614752E+02  0.12695031758E+02  0.19430107134E+02  0.00000000000E+00 0. -1.
<mgrwt>
<rscale>  1 0.30000000E+03</rscale>
<asrwt>0</asrwt>
<pdfrwt beam="1">  1        1 0.44559801E+00 0.30000000E+03</pdfrwt>
<pdfrwt beam="2">0</pdfrwt>
<totfact> 0.55065767E-01</totfact>
</mgrwt>
</event>
<event>
 6    1  0.5260809E-006  0.3000000E+03  0.7818608E-02  0.1093470E+00
          1   -1    0    0  502    0  0.00000000000E+00  0.00000000000E+00  0.11196423548E+03  0.11196423548E+03  0.00000000000E+00 0.  1.
         13   -1    0    0    0    0 -0.00000000000E+00 -0.00000000000E+00 -0.10000000000E+04  0.10000000000E+04  0.00000000000E+00 0.  1.
    9000005    2    1    2  501    0  0.10267874963E+01 -0.20225910996E+02 -0.86040298239E+03  0.10777047490E+04  0.64864789529E+03 0.  0.
         13    1    3    3    0    0 -0.57162302940E+02  0.13512562503E+03 -0.89608665165E+03  0.90801858499E+03  0.00000000000E+00 0.  1.
          1    1    3    3  501    0  0.58189090436E+02 -0.15535153603E+03  0.35683669260E+02  0.16968616397E+03  0.00000000000E+00 0.  1.
         21    1    1    2  502  501 -0.10267874963E+01  0.20225910996E+02 -0.27632782126E+02  0.34259486514E+02  0.00000000000E+00 0. -1.
<mgrwt>
<rscale>  1 0.30000000E+03</rscale>
<asrwt>0</asrwt>
<pdfrwt beam="1">  1        1 0.40714353E+00 0.30000000E+03</pdfrwt>
<pdfrwt beam="2">0</pdfrwt>
<totfact> 0.95769953E-01</totfact>
</mgrwt>
</event>
<event>
 6    1  0.5260809E-006  0.3000000E+03  0.7818608E-02  0.1093470E+00
          1   -1    0    0  502    0  0.00000000000E+00  0.00000000000E+00  0.10456351869E+03  0.10456351869E+03  0.00000000000E+00 0.  1.
         13   -1    0    0    0    0 -0.00000000000E+00 -0.00000000000E+00 -0.10000000000E+04  0.10000000000E+04  0.00000000000E+00 0.  1.
    9000005    2    1    2  501    0 -0.50405272858E+01 -0.53565716661E+01 -0.88457626722E+03  0.10914469633E+04  0.63931776246E+03 0.  0.
         13    1    3    3    0    0 -0.11160968382E+03  0.25579497954E+03 -0.17893121808E+03  0.33151798425E+03  0.00000000000E+00 0.  1.
          3    1    3    3  501    0  0.10656915654E+03 -0.26115155121E+03 -0.70564504915E+03  0.75992897906E+03  0.00000000000E+00 0.  1.
         21    1    1    2  502  501  0.50405272858E+01  0.53565716661E+01 -0.10860214081E+02  0.13116555387E+02  0.00000000000E+00 0.  1.
<mgrwt>
<rscale>  1 0.30000000E+03</rscale>
<asrwt>0</asrwt>
<pdfrwt beam="1">  1        1 0.38023178E+00 0.30000000E+03</pdfrwt>
<pdfrwt beam="2">0</pdfrwt>
<totfact> 0.13583962E+00</totfact>
</mgrwt>
</event>
<event>
 6    1  0.5260809E-006  0.3000000E+03  0.7818608E-02  0.1093470E+00
          1   -1    0    0  502    0  0.00000000000E+00  0.00000000000E+00  0.11724089428E+03  0.11724089428E+03  0.00000000000E+00 0.  1.
         13   -1    0    0    0    0 -0.00000000000E+00 -0.00000000000E+00 -0.10000000000E+04  0.10000000000E+04  0.00000000000E+00 0.  1.
    9000005    2    1    2  501    0  0.14770819337E+02  0.97724094665E+01 -0.87098881649E+03  0.10959755046E+04  0.66500158728E+03 0.  0.
         13    1    3    3    0    0 -0.30467372581E+03 -0.37609512873E+02 -0.60171795515E+03  0.67550355455E+03  0.00000000000E+00 0.  1.
          3    1    3    3  501    0  0.31944454515E+03  0.47381922339E+02 -0.26927086135E+03  0.42047195003E+03  0.00000000000E+00 0.  1.
         21    1    1    2  502  501 -0.14770819337E+02 -0.97724094665E+01 -0.11770289230E+02  0.21265389704E+02  0.00000000000E+00 0. -1.
<mgrwt>
<rscale>  1 0.30000000E+03</rscale>
<asrwt>0</asrwt>
<pdfrwt beam="1">  1        1 0.42633142E+00 0.30000000E+03</pdfrwt>
<pdfrwt beam="2">0</pdfrwt>
<totfact> 0.73255524E-01</totfact>
</mgrwt>
</event>
<event>
 6    1  0.5260809E-006  0.3000000E+03  0.7818608E-02  0.1093470E+00
          1   -1    0    0  502    0  0.00000000000E+00  0.00000000000E+00  0.12488927876E+03  0.12488927876E+03  0.00000000000E+00 0.  1.
         13   -1    0    0    0    0 -0.00000000000E+00 -0.00000000000E+00 -0.10000000000E+04  0.10000000000E+04  0.00000000000E+00 0.  1.
    9000005    2    1    2  501    0 -0.63156275267E+01  0.27720658051E+02 -0.87728415297E+03  0.10963753201E+04  0.65696501839E+03 0.  0.
         13    1    3    3    0    0 -0.10460906413E+03  0.24887650870E+03 -0.10946248524E+03  0.29131530779E+03  0.00000000000E+00 0.  1.
          1    1    3    3  501    0  0.98293436601E+02 -0.22115585065E+03 -0.76782166773E+03  0.80506001229E+03  0.00000000000E+00 0.  1.
         21    1    1    2  502  501  0.63156275267E+01 -0.27720658051E+02  0.21734317330E+01  0.28513958676E+02  0.00000000000E+00 0. -1.
<mgrwt>
<rscale>  1 0.30000000E+03</rscale>
<asrwt>0</asrwt>
<pdfrwt beam="1">  1        1 0.45414379E+00 0.30000000E+03</pdfrwt>
<pdfrwt beam="2">0</pdfrwt>
<totfact> 0.48259547E-01</totfact>
</mgrwt>
</event>
<event>
 6    1  0.5260809E-006  0.3000000E+03  0.7818608E-02  0.1093470E+00
          1   -1    0    0  502    0  0.00000000000E+00  0.00000000000E+00  0.11874560985E+03  0.11874560985E+03  0.00000000000E+00 0.  1.
         13   -1    0    0    0    0 -0.00000000000E+00 -0.00000000000E+00 -0.10000000000E+04  0.10000000000E+04  0.00000000000E+00 0.  1.
    9000005    2    1    2  501    0  0.58802536643E+01  0.24472226891E+02 -0.88163858028E+03  0.10935739020E+04  0.64651668634E+03 0.  0.
         13    1    3    3    0    0  0.30186760786E+03  0.11028197036E+03 -0.32346881219E+03  0.45598052384E+03  0.00000000000E+00 0.  1.
          1    1    3    3  501    0 -0.29598735420E+03 -0.85809743466E+02 -0.55816976809E+03  0.63759337820E+03  0.00000000000E+00 0.  1.
         21    1    1    2  502  501 -0.58802536643E+01 -0.24472226891E+02  0.38419013244E+00  0.25171707813E+02  0.00000000000E+00 0. -1.
<mgrwt>
<rscale>  1 0.30000000E+03</rscale>
<asrwt>0</asrwt>
<pdfrwt beam="1">  1        1 0.43180313E+00 0.30000000E+03</pdfrwt>
<pdfrwt beam="2">0</pdfrwt>
<totfact> 0.67664726E-01</totfact>
</mgrwt>
</event>
<event>
 6    1  0.5260809E-006  0.3000000E+03  0.7818608E-02  0.1093470E+00
          1   -1    0    0  502    0  0.00000000000E+00  0.00000000000E+00  0.11108820518E+03  0.11108820518E+03  0.00000000000E+00 0.  1.
         13   -1    0    0    0    0 -0.00000000000E+00 -0.00000000000E+00 -0.10000000000E+04  0.10000000000E+04  0.00000000000E+00 0.  1.
    9000005    2    1    2  501    0  0.93115066887E+01  0.14299204747E+02 -0.87222595592E+03  0.10872221491E+04  0.64883180556E+03 0.  0.
         13    1    3    3    0    0  0.30695114159E+03  0.49665392084E+02 -0.62733215383E+03  0.70016518459E+03  0.00000000000E+00 0.  1.
          3    1    3    3  501    0 -0.29763963490E+03 -0.35366187337E+02 -0.24489380209E+03  0.38705696451E+03  0.00000000000E+00 0.  1.
         21    1    1    2  502  501 -0.93115066887E+01 -0.14299204747E+02 -0.16685838898E+02  0.23866056083E+02  0.00000000000E+00 0. -1.
<mgrwt>
<rscale>  1 0.30000000E+03</rscale>
<asrwt>0</asrwt>
<pdfrwt beam="1">  1        1 0.40395796E+00 0.30000000E+03</pdfrwt>
<pdfrwt beam="2">0</pdfrwt>
<totfact> 0.99947477E-01</totfact>
</mgrwt>
</event>
<event>
 6    1  0.5260809E-006  0.3000000E+03  0.7818608E-02  0.1093470E+00
          1   -1    0    0  502    0  0.00000000000E+00  0.00000000000E+00  0.10093746515E+03  0.10093746515E+03  0.00000000000E+00 0.  1.
         13   -1    0    0    0    0 -0.00000000000E+00 -0.00000000000E+00 -0.10000000000E+04  0.10000000000E+04  0.00000000000E+00 0.  1.
    9000005    2    1    2  501    0  0.11742668365E+02 -0.10122251877E+02 -0.89754317565E+03  0.10853599591E+04  0.61006732281E+03 0.  0.
         13    1    3    3    0    0  0.15747142025E+03 -0.17664970528E+03 -0.98652148842E+02  0.25638762264E+03  0.00000000000E+00 0.  1.
          1    1    3    3  501    0 -0.14572875188E+03  0.16652745340E+03 -0.79889102680E+03  0.82897233643E+03  0.00000000000E+00 0.  1.
         21    1    1    2  502  501 -0.11742668365E+02  0.10122251877E+02 -0.15193592013E+01  0.15577506083E+02  0.00000000000E+00 0. -1.
<mgrwt>
<rscale>  1 0.30000000E+03</rscale>
<asrwt>0</asrwt>
<pdfrwt beam="1">  1        1 0.36704610E+00 0.30000000E+03</pdfrwt>
<pdfrwt beam="2">0</pdfrwt>
<totfact> 0.16010995E+00</totfact>
</mgrwt>
</event>
<event>
 6    1  0.5260809E-006  0.3000000E+03  0.7818608E-02  0.1093470E+00
          1   -1    0    0  502    0  0.00000000000E+00  0.00000000000E+00  0.11607852256E+03  0.11607852256E+03  0.00000000000E+00 0.  1.
         13   -1    0    0    0    0 -0.00000000000E+00 -0.00000000000E+00 -0.10000000000E+04  0.10000000000E+04  0.00000000000E+00 0.  1.
    9000005    2    1    2  501    0 -0.94274095875E+01  0.67305771949E+00 -0.87501071199E+03  0.11030888806E+04  0.67161894201E+03 0.  0.
         13    1    3    3    0    0 -0.37872091805E+02 -0.19399973921E+03  0.85919201509E+01  0.19784846535E+03  0.00000000000E+00 0.  1.
          3    1    3    3  501    0  0.28444682217E+02  0.19467279692E+03 -0.88360263214E+03  0.90524041521E+03  0.00000000000E+00 0.  1.
         21    1    1    2  502  501  0.94274095875E+01 -0.67305771949E+00 -0.89107654529E+01  0.12989641996E+02  0.00000000000E+00 0.  1.
<mgrwt>
<rscale>  1 0.30000000E+03</rscale>
<asrwt>0</asrwt>
<pdfrwt beam="1">  1        1 0.42210461E+00 0.30000000E+03</pdfrwt>
<pdfrwt beam="2">0</pdfrwt>
<totfact> 0.77838761E-01</totfact>
</mgrwt>
</event>
<event>
 6    1  0.5260809E-006  0.3000000E+03  0.7818608E-02  0.1093470E+00
          1   -1    0    0  502    0  0.00000000000E+00  0.00000000000E+00  0.12821193615E+03  0.12821193615E+03  0.00000000000E+00 0.  1.
         13   -1    0    0    0    0 -0.00000000000E+00 -0.00000000000E+00 -0.10000000000E+04  0.10000000000E+04  0.00000000000E+00 0.  1.
    9000005    2    1    2  501    0 -0.65583654230E+01 -0.14195178552E+02 -0.89809505460E+03  0.10976084557E+04  0.63081303076E+03 0.  0.
         13    1    3    3    0    0 -0.28077254555E+02  0.30130578098E+03 -0.33233645796E+03  0.44946749289E+03  0.00000000000E+00 0.  1.
          1    1    3    3  501    0  0.21518889132E+02 -0.31550095953E+03 -0.56575859663E+03  0.64814096285E+03  0.00000000000E+00 0.  1.
         21    1    1    2  502  501  0.65583654230E+01  0.14195178552E+02  0.26306990746E+02  0.30603480411E+02  0.00000000000E+00 0. -1.
<mgrwt>
<rscale>  1 0.30000000E+03</rscale>
<asrwt>0</asrwt>
<pdfrwt beam="1">  1        1 0.46622621E+00 0.30000000E+03</pdfrwt>
<pdfrwt beam="2">0</pdfrwt>
<totfact> 0.39951194E-01</totfact>
</mgrwt>
</event>
<event>
 6    1  0.5260809E-006  0.3000000E+03  0.7818608E-02  0.1093470E+00
          1   -1    0    0  502    0  0.00000000000E+00  0.00000000000E+00  0.13627594859E+03  0.13627594859E+03  0.00000000000E+00 0.  1.
         13   -1    0    0    0    0 -0.00000000000E+00 -0.00000000000E+00 -0.10000000000E+04  0.10000000000E+04  0.00000000000E+00 0.  1.
    9000005    2    1    2  501    0  0.29520950088E+02 -0.35573941702E+02 -0.90445041502E+03  0.10746672762E+04  0.57856910517E+03 0.  0.
         13    1    3    3    0    0  0.12946628748E+03  0.10828580879E+03 -0.88207004844E+03  0.89807288475E+03  0.00000000000E+00 0.  1.
          3    1    3    3  501    0 -0.99945337395E+02 -0.14385975049E+03 -0.22380366585E+02  0.17659439144E+03  0.00000000000E+00 0.  1.
         21    1    1    2  502  501 -0.29520950088E+02  0.35573941702E+02  0.40726363614E+02  0.61608672405E+02  0.00000000000E+00 0.  1.
<mgrwt>
<rscale>  1 0.30000000E+03</rscale>
<asrwt>0</asrwt>
<pdfrwt beam="1">  1        1 0.49554995E+00 0.30000000E+03</pdfrwt>
<pdfrwt beam="2">0</pdfrwt>
<totfact> 0.24622887E-01</totfact>
</mgrwt>
</event>
<event>
 6    1  0.5260809E-006  0.3000000E+03  0.7818608E-02  0.1093470E+00
          1   -1    0    0  502    0  0.00000000000E+00  0.00000000000E+00  0.11886938565E+03  0.11886938565E+03  0.00000000000E+00 0.  1.
         13   -1    0    0    0    0 -0.00000000000E+00 -0.00000000000E+00 -0.10000000000E+04  0.10000000000E+04  0.00000000000E+00 0.  1.
    9000005    2    1    2  501    0  0.11337495837E+02  0.68534808419E+01 -0.89020197668E+03  0.11028132770E+04  0.65081645306E+03 0.  0.
         13    1    3    3    0    0 -0.13575445288E+03  0.25051790517E+02 -0.93721120733E+03  0.94732344573E+03  0.00000000000E+00 0.  1.
          1    1    3    3  501    0  0.14709194872E+03 -0.18198309675E+02  0.47009230654E+02  0.15548983124E+03  0.00000000000E+00 0.  1.
         21    1    1    2  502  501 -0.11337495837E+02 -0.68534808419E+01  0.90713623281E+01  0.16056108681E+02  0.00000000000E+00 0.  1.
<mgrwt>
<rscale>  1 0.30000000E+03</rscale>
<asrwt>0</asrwt>
<pdfrwt beam="1">  1        1 0.43225322E+00 0.30000000E+03</pdfrwt>
<pdfrwt beam="2">0</pdfrwt>
<totfact> 0.67221247E-01</totfact>
</mgrwt>
</event>
<event>
 6    1  0.5260809E-006  0.3000000E+03  0.7818608E-02  0.1093470E+00
          1   -1    0    0  502    0  0.00000000000E+00  0.00000000000E+00  0.11156480042E+03  0.11156480042E+03  0.00000000000E+00 0.  1.
         13   -1    0    0    0    0 -0.00000000000E+00 -0.00000000000E+00 -0.10000000000E+04  0.10000000000E+04  0.00000000000E+00 0.  1.
    9000005    2    1    2  501    0  0.74111486488E+01 -0.54472134524E+01 -0.87859104475E+03  0.10980924345E+04  0.65863508378E+03 0.  0.
         13    1    3    3    0    0 -0.17407579240E+03 -0.54976631642E+02  0.16640957121E+02  0.18330775483E+03  0.00000000000E+00 0.  1.
          3    1    3    3  501    0  0.18148694105E+03  0.49529418189E+02 -0.89523200187E+03  0.91478467970E+03  0.00000000000E+00 0.  1.
         21    1    1    2  502  501 -0.74111486488E+01  0.54472134524E+01 -0.98441548223E+01  0.13472365897E+02  0.00000000000E+00 0. -1.
<mgrwt>
<rscale>  1 0.30000000E+03</rscale>
<asrwt>0</asrwt>
<pdfrwt beam="1">  1        1 0.40569104E+00 0.30000000E+03</pdfrwt>
<pdfrwt beam="2">0</pdfrwt>
<totfact> 0.97658404E-01</totfact>
</mgrwt>
</event>
<event>
 6    1  0.5260809E-006  0.3000000E+03  0.7818608E-02  0.1093470E+00
          1   -1    0    0  502    0  0.00000000000E+00  0.00000000000E+00  0.11629599832E+03  0.11629599832E+03  0.00000000000E+00 0.  1.
         13   -1    0    0    0    0 -0.00000000000E+00 -0.00000000000E+00 -0.10000000000E+04  0.10000000000E+04  0.00000000000E+00 0.  1.
    9000005    2    1    2  501    0 -0.10848848476E+02  0.83004566965E+01 -0.88584479090E+03  0.11024692824E+04  0.65614855785E+03 0.  0.
         13    1    3    3    0    0 -0.11055189644E+03  0.89204038089E+02 -0.94886482134E+03  0.95943917545E+03  0.00000000000E+00 0.  1.
          1    1    3    3  501    0  0.99703047960E+02 -0.80903581393E+02  0.63020030445E+02  0.14303010694E+03  0.00000000000E+00 0.  1.
         21    1    1    2  502  501  0.10848848476E+02 -0.83004566965E+01  0.21407892127E+01  0.13826715918E+02  0.00000000000E+00 0.  1.
<mgrwt>
<rscale>  1 0.30000000E+03</rscale>
<asrwt>0</asrwt>
<pdfrwt beam="1">  1        1 0.42289543E+00 0.30000000E+03</pdfrwt>
<pdfrwt beam="2">0</pdfrwt>
<totfact> 0.76964232E-01</totfact>
</mgrwt>
</event>
<event>
 6    1  0.5260809E-006  0.3000000E+03  0.7818608E-02  0.1093470E+00
          1   -1    0    0  502    0  0.00000000000E+00  0.00000000000E+00  0.13227197211E+03  0.13227197211E+03  0.00000000000E+00 0.  1.
         13   -1    0    0    0    0 -0.00000000000E+00 -0.00000000000E+00 -0.10000000000E+04  0.10000000000E+04  0.00000000000E+00 0.  1.
    9000005    2    1    2  501    0  0.28500100122E+02 -0.48013853507E+02 -0.85718773087E+03  0.10754504648E+04  0.64707442413E+03 0.  0.
         13    1    3    3    0    0 -0.18745807299E+03 -0.78726750083E+02 -0.13218316931E+02  0.20374777106E+03  0.00000000000E+00 0.  1.
          3    1    3    3  501    0  0.21595817311E+03  0.30712896576E+02 -0.84396941394E+03  0.87170269370E+03  0.00000000000E+00 0.  1.
         21    1    1    2  502  501 -0.28500100122E+02  0.48013853507E+02 -0.10540297026E+02  0.56821507346E+02  0.00000000000E+00 0.  1.
<mgrwt>
<rscale>  1 0.30000000E+03</rscale>
<asrwt>0</asrwt>
<pdfrwt beam="1">  1        1 0.48099000E+00 0.30000000E+03</pdfrwt>
<pdfrwt beam="2">0</pdfrwt>
<totfact> 0.31421002E-01</totfact>
</mgrwt>
</event>
<event>
 6    1  0.5260809E-006  0.3000000E+03  0.7818608E-02  0.1093470E+00
          1   -1    0    0  502    0  0.00000000000E+00  0.00000000000E+00  0.13206614152E+03  0.13206614152E+03  0.00000000000E+00 0.  1.
         13   -1    0    0    0    0 -0.00000000000E+00 -0.00000000000E+00 -0.10000000000E+04  0.10000000000E+04  0.00000000000E+00 0.  1.
    9000005    2    1    2  501    0  0.56645302288E+01  0.17502326421E+02 -0.89249899335E+03  0.11013763357E+04  0.64508678585E+03 0.  0.
         13    1    3    3    0    0 -0.21024137248E+02 -0.30546342838E+03 -0.31580566175E+03  0.43986718043E+03  0.00000000000E+00 0.  1.
          3    1    3    3  501    0  0.26688667476E+02  0.32296575480E+03 -0.57669333159E+03  0.66150915523E+03  0.00000000000E+00 0.  1.
         21    1    1    2  502  501 -0.56645302288E+01 -0.17502326421E+02  0.24565134867E+02  0.30689805863E+02  0.00000000000E+00 0. -1.
<mgrwt>
<rscale>  1 0.30000000E+03</rscale>
<asrwt>0</asrwt>
<pdfrwt beam="1">  1        1 0.48024153E+00 0.30000000E+03</pdfrwt>
<pdfrwt beam="2">0</pdfrwt>
<totfact> 0.31812440E-01</totfact>
</mgrwt>
</event>
<event>
 6    1  0.5260809E-006  0.3000000E+03  0.7818608E-02  0.1093470E+00
          1   -1    0    0  502    0  0.00000000000E+00  0.00000000000E+00  0.12823400517E+03  0.12823400517E+03  0.00000000000E+00 0.  1.
         13   -1    0    0    0    0 -0.00000000000E+00 -0.00000000000E+00 -0.10000000000E+04  0.10000000000E+04  0.00000000000E+00 0.  1.
    9000005    2    1    2  501    0  0.20706441175E+02 -0.12896070718E+02 -0.90460588181E+03  0.10873252833E+04  0.60280129810E+03 0.  0.
         13    1    3    3    0    0  0.41430007274E+02 -0.23983319348E+03 -0.80069943631E+03  0.83687274630E+03  0.00000000000E+00 0.  1.
          1    1    3    3  501    0 -0.20723566099E+02  0.22693712277E+03 -0.10390644550E+03  0.25045253702E+03  0.00000000000E+00 0.  1.
         21    1    1    2  502  501 -0.20706441175E+02  0.12896070718E+02  0.32839886978E+02  0.40908721843E+02  0.00000000000E+00 0.  1.
<mgrwt>
<rscale>  1 0.30000000E+03</rscale>
<asrwt>0</asrwt>
<pdfrwt beam="1">  1        1 0.46630646E+00 0.30000000E+03</pdfrwt>
<pdfrwt beam="2">0</pdfrwt>
<totfact> 0.39900102E-01</totfact>
</mgrwt>
</event>
<event>
 6    1  0.5260809E-006  0.3000000E+03  0.7818608E-02  0.1093470E+00
          1   -1    0    0  502    0  0.00000000000E+00  0.00000000000E+00  0.11015011740E+03  0.11015011740E+03  0.00000000000E+00 0.  1.
         13   -1    0    0    0    0 -0.00000000000E+00 -0.00000000000E+00 -0.10000000000E+04  0.10000000000E+04  0.00000000000E+00 0.  1.
    9000005    2    1    2  501    0 -0.31976628464E+01  0.99652191760E+01 -0.88419390378E+03  0.10982538685E+04  0.65134719591E+03 0.  0.
         13    1    3    3    0    0 -0.26171991250E+03  0.81841199308E+02 -0.74935318242E+03  0.79795080457E+03  0.00000000000E+00 0.  1.
          3    1    3    3  501    0  0.25852224966E+03 -0.71875980132E+02 -0.13484072135E+03  0.30030306396E+03  0.00000000000E+00 0.  1.
         21    1    1    2  502  501  0.31976628464E+01 -0.99652191760E+01 -0.56559788186E+01  0.11896248875E+02  0.00000000000E+00 0. -1.
<mgrwt>
<rscale>  1 0.30000000E+03</rscale>
<asrwt>0</asrwt>
<pdfrwt beam="1">  1        1 0.40054673E+00 0.30000000E+03</pdfrwt>
<pdfrwt beam="2">0</pdfrwt>
<totfact> 0.10456327E+00</totfact>
</mgrwt>
</event>
<event>
 6    1  0.5260809E-006  0.3000000E+03  0.7818608E-02  0.1093470E+00
          1   -1    0    0  502    0  0.00000000000E+00  0.00000000000E+00  0.10954056274E+03  0.10954056274E+03  0.00000000000E+00 0.  1.
         13   -1    0    0    0    0 -0.00000000000E+00 -0.00000000000E+00 -0.10000000000E+04  0.10000000000E+04  0.00000000000E+00 0.  1.
    9000005    2    1    2  501    0  0.10669737962E+02  0.32000108742E+01 -0.87963958624E+03  0.10940114754E+04  0.65036237838E+03 0.  0.
         13    1    3    3    0    0  0.32765759806E+03  0.39015576672E+02 -0.41033647128E+03  0.52655269105E+03  0.00000000000E+00 0.  1.
          1    1    3    3  501    0 -0.31698786010E+03 -0.35815565798E+02 -0.46930311496E+03  0.56745878433E+03  0.00000000000E+00 0.  1.
         21    1    1    2  502  501 -0.10669737962E+02 -0.32000108742E+01 -0.10819851029E+02  0.15529087355E+02  0.00000000000E+00 0.  1.
<mgrwt>
<rscale>  1 0.30000000E+03</rscale>
<asrwt>0</asrwt>
<pdfrwt beam="1">  1        1 0.39833016E+00 0.30000000E+03</pdfrwt>
<pdfrwt beam="2">0</pdfrwt>
<totfact> 0.10764551E+00</totfact>
</mgrwt>
</event>
<event>
 6    1  0.5260809E-006  0.3000000E+03  0.7818608E-02  0.1093470E+00
          1   -1    0    0  502    0  0.00000000000E+00  0.00000000000E+00  0.12182755765E+03  0.12182755765E+03  0.00000000000E+00 0.  1.
         13   -1    0    0    0    0 -0.00000000000E+00 -0.00000000000E+00 -0.10000000000E+04  0.10000000000E+04  0.00000000000E+00 0.  1.
    9000005    2    1    2  501    0  0.41379517724E+02 -0.15536231355E+02 -0.79862566829E+03  0.10308257542E+04  0.65026543691E+03 0.  0.
         13    1    3    3    0    0 -0.29704162149E+03 -0.57517402451E+02 -0.29473032004E+03  0.42238363845E+03  0.00000000000E+00 0.  1.
          1    1    3    3  501    0  0.33842113921E+03  0.41981171096E+02 -0.50389534825E+03  0.60844211572E+03  0.00000000000E+00 0.  1.
         21    1    1    2  502  501 -0.41379517724E+02  0.15536231355E+02 -0.79546774060E+02  0.91001803472E+02  0.00000000000E+00 0.  1.
<mgrwt>
<rscale>  1 0.30000000E+03</rscale>
<asrwt>0</asrwt>
<pdfrwt beam="1">  1        1 0.44301023E+00 0.30000000E+03</pdfrwt>
<pdfrwt beam="2">0</pdfrwt>
<totfact> 0.57283498E-01</totfact>
</mgrwt>
</event>
<event>
 6    1  0.5260809E-006  0.3000000E+03  0.7818608E-02  0.1093470E+00
          1   -1    0    0  502    0  0.00000000000E+00  0.00000000000E+00  0.10997247565E+03  0.10997247565E+03  0.00000000000E+00 0.  1.
         13   -1    0    0    0    0 -0.00000000000E+00 -0.00000000000E+00 -0.10000000000E+04  0.10000000000E+04  0.00000000000E+00 0.  1.
    9000005    2    1    2  501    0  0.59663067007E+01  0.76013007615E+01 -0.88803384261E+03  0.11001057966E+04  0.64925748473E+03 0.  0.
         13    1    3    3    0    0  0.30778503434E+03 -0.54563016713E+02 -0.60833360875E+03  0.68394336731E+03  0.00000000000E+00 0.  1.
          1    1    3    3  501    0 -0.30181872764E+03  0.62164317475E+02 -0.27970023387E+03  0.41616242928E+03  0.00000000000E+00 0.  1.
         21    1    1    2  502  501 -0.59663067007E+01 -0.76013007615E+01 -0.19936817307E+01  0.98666790643E+01  0.00000000000E+00 0.  1.
<mgrwt>
<rscale>  1 0.30000000E+03</rscale>
<asrwt>0</asrwt>
<pdfrwt beam="1">  1        1 0.39990075E+00 0.30000000E+03</pdfrwt>
<pdfrwt beam="2">0</pdfrwt>
<totfact> 0.10545443E+00</totfact>
</mgrwt>
</event>
<event>
 6    1  0.5260809E-006  0.3000000E+03  0.7818608E-02  0.1093470E+00
          1   -1    0    0  502    0  0.00000000000E+00  0.00000000000E+00  0.13972552228E+03  0.13972552228E+03  0.00000000000E+00 0.  1.
         13   -1    0    0    0    0 -0.00000000000E+00 -0.00000000000E+00 -0.10000000000E+04  0.10000000000E+04  0.00000000000E+00 0.  1.
    9000005    2    1    2  501    0 -0.12004704731E+01  0.18733493694E+02 -0.89123699455E+03  0.11035169271E+04  0.65045664195E+03 0.  0.
         13    1    3    3    0    0 -0.89808941753E+01  0.53107447022E+02 -0.99370176615E+03  0.99516041794E+03  0.00000000000E+00 0.  1.
          3    1    3    3  501    0  0.77804237022E+01 -0.34373953328E+02  0.10246477160E+03  0.10835650917E+03  0.00000000000E+00 0.  1.
         21    1    1    2  502  501  0.12004704731E+01 -0.18733493694E+02  0.30962516826E+02  0.36208595161E+02  0.00000000000E+00 0.  1.
<mgrwt>
<rscale>  1 0.30000000E+03</rscale>
<asrwt>0</asrwt>
<pdfrwt beam="1">  1        1 0.50809388E+00 0.30000000E+03</pdfrwt>
<pdfrwt beam="2">0</pdfrwt>
<totfact> 0.19922632E-01</totfact>
</mgrwt>
</event>
<event>
 6    1  0.5260809E-006  0.3000000E+03  0.7818608E-02  0.1093470E+00
          1   -1    0    0  502    0  0.00000000000E+00  0.00000000000E+00  0.12049457203E+03  0.12049457203E+03  0.00000000000E+00 0.  1.
         13   -1    0    0    0    0 -0.00000000000E+00 -0.00000000000E+00 -0.10000000000E+04  0.10000000000E+04  0.00000000000E+00 0.  1.
    9000005    2    1    2  501    0 -0.12606216904E+02  0.86695689659E+01 -0.88817031236E+03  0.11029116726E+04  0.65370756129E+03 0.  0.
         13    1    3    3    0    0  0.21729274840E+03  0.14006712032E+02 -0.36550389759E+02  0.22079007560E+03  0.00000000000E+00 0.  1.
          3    1    3    3  501    0 -0.22989896531E+03 -0.53371430666E+01 -0.85161992260E+03  0.88212159701E+03  0.00000000000E+00 0.  1.
         21    1    1    2  502  501  0.12606216904E+02 -0.86695689659E+01  0.86648843904E+01  0.17582899425E+02  0.00000000000E+00 0.  1.
<mgrwt>
<rscale>  1 0.30000000E+03</rscale>
<asrwt>0</asrwt>
<pdfrwt beam="1">  1        1 0.43816300E+00 0.30000000E+03</pdfrwt>
<pdfrwt beam="2">0</pdfrwt>
<totfact> 0.61611490E-01</totfact>
</mgrwt>
</event>
<event>
 6    1  0.5260809E-006  0.3000000E+03  0.7818608E-02  0.1093470E+00
          1   -1    0    0  502    0  0.00000000000E+00  0.00000000000E+00  0.12651161408E+03  0.12651161408E+03  0.00000000000E+00 0.  1.
         13   -1    0    0    0    0 -0.00000000000E+00 -0.00000000000E+00 -0.10000000000E+04  0.10000000000E+04  0.00000000000E+00 0.  1.
    9000005    2    1    2  501    0 -0.31722935187E+01  0.24473091039E+02 -0.88156526845E+03  0.11005456428E+04  0.65835734507E+03 0.  0.
         13    1    3    3    0    0 -0.32169301668E+03  0.29436513124E+01 -0.56966093602E+03  0.65422369576E+03  0.00000000000E+00 0.  1.
          1    1    3    3  501    0  0.31852072316E+03  0.21529439727E+02 -0.31190433243E+03  0.44632194708E+03  0.00000000000E+00 0.  1.
         21    1    1    2  502  501  0.31722935187E+01 -0.24473091039E+02  0.80768825337E+01  0.25965971244E+02  0.00000000000E+00 0.  1.
<mgrwt>
<rscale>  1 0.30000000E+03</rscale>
<asrwt>0</asrwt>
<pdfrwt beam="1">  1        1 0.46004320E+00 0.30000000E+03</pdfrwt>
<pdfrwt beam="2">0</pdfrwt>
<totfact> 0.44039511E-01</totfact>
</mgrwt>
</event>
<event>
 6    1  0.5260809E-006  0.3000000E+03  0.7818608E-02  0.1093470E+00
          1   -1    0    0  502    0  0.00000000000E+00  0.00000000000E+00  0.12179973819E+03  0.12179973819E+03  0.00000000000E+00 0.  1.
         13   -1    0    0    0    0 -0.00000000000E+00 -0.00000000000E+00 -0.10000000000E+04  0.10000000000E+04  0.00000000000E+00 0.  1.
    9000005    2    1    2  501    0  0.66656255859E+01  0.98026746513E+01 -0.88945771476E+03  0.11054518563E+04  0.65631414528E+03 0.  0.
         13    1    3    3    0    0  0.25034848827E+03  0.17322098616E+03 -0.67974710395E+03  0.74480601565E+03  0.00000000000E+00 0.  1.
          1    1    3    3  501    0 -0.24368286268E+03 -0.16341831151E+03 -0.20971061081E+03  0.36064584066E+03  0.00000000000E+00 0.  1.
         21    1    1    2  502  501 -0.66656255859E+01 -0.98026746513E+01  0.11257452946E+02  0.16347881869E+02  0.00000000000E+00 0. -1.
<mgrwt>
<rscale>  1 0.30000000E+03</rscale>
<asrwt>0</asrwt>
<pdfrwt beam="1">  1        1 0.44290907E+00 0.30000000E+03</pdfrwt>
<pdfrwt beam="2">0</pdfrwt>
<totfact> 0.57371538E-01</totfact>
</mgrwt>
</event>
<event>
 6    1  0.5260809E-006  0.3000000E+03  0.7818608E-02  0.1093470E+00
          1   -1    0    0  502    0  0.00000000000E+00  0.00000000000E+00  0.14078229187E+03  0.14078229187E+03  0.00000000000E+00 0.  1.
         13   -1    0    0    0    0 -0.00000000000E+00 -0.00000000000E+00 -0.10000000000E+04  0.10000000000E+04  0.00000000000E+00 0.  1.
    9000005    2    1    2  501    0 -0.43410671370E+02  0.33720458813E+02 -0.85697879135E+03  0.10857680348E+04  0.66442307370E+03 0.  0.
         13    1    3    3    0    0 -0.16783989489E+03  0.31295030606E+03 -0.38824484609E+03  0.52615794672E+03  0.00000000000E+00 0.  1.
          1    1    3    3  501    0  0.12442922352E+03 -0.27922984725E+03 -0.46873394526E+03  0.55961008809E+03  0.00000000000E+00 0.  1.
         21    1    1    2  502  501  0.43410671370E+02 -0.33720458813E+02 -0.22389167729E+01  0.55014257058E+02  0.00000000000E+00 0. -1.
<mgrwt>
<rscale>  1 0.30000000E+03</rscale>
<asrwt>0</asrwt>
<pdfrwt beam="1">  1        1 0.51193669E+00 0.30000000E+03</pdfrwt>
<pdfrwt beam="2">0</pdfrwt>
<totfact> 0.18669041E-01</totfact>
</mgrwt>
</event>
<event>
 6    1  0.5260809E-006  0.3000000E+03  0.7818608E-02  0.1093470E+00
          1   -1    0    0  502    0  0.00000000000E+00  0.00000000000E+00  0.12201905298E+03  0.12201905298E+03  0.00000000000E+00 0.  1.
         13   -1    0    0    0    0 -0.00000000000E+00 -0.00000000000E+00 -0.10000000000E+04  0.10000000000E+04  0.00000000000E+00 0.  1.
    9000005    2    1    2  501    0  0.24772170190E+02  0.10956504951E+02 -0.86175795879E+03  0.10904454760E+04  0.66761579607E+03 0.  0.
         13    1    3    3    0    0 -0.22300303534E+03 -0.66692381859E+02 -0.78632667216E+03  0.82005357320E+03  0.00000000000E+00 0.  1.
          3    1    3    3  501    0  0.24777520553E+03  0.77648886810E+02 -0.75431286638E+02  0.27039190280E+03  0.00000000000E+00 0.  1.
         21    1    1    2  502  501 -0.24772170190E+02 -0.10956504951E+02 -0.16222988222E+02  0.31573576983E+02  0.00000000000E+00 0. -1.
<mgrwt>
<rscale>  1 0.30000000E+03</rscale>
<asrwt>0</asrwt>
<pdfrwt beam="1">  1        1 0.44370658E+00 0.30000000E+03</pdfrwt>
<pdfrwt beam="2">0</pdfrwt>
<totfact> 0.56680167E-01</totfact>
</mgrwt>
</event>
<event>
 6    1  0.5260809E-006  0.3000000E+03  0.7818608E-02  0.1093470E+00
          1   -1    0    0  502    0  0.00000000000E+00  0.00000000000E+00  0.12116128935E+03  0.12116128935E+03  0.00000000000E+00 0.  1.
         13   -1    0    0    0    0 -0.00000000000E+00 -0.00000000000E+00 -0.10000000000E+04  0.10000000000E+04  0.00000000000E+00 0.  1.
    9000005    2    1    2  501    0 -0.19088360632E+02 -0.25646992776E+01 -0.85149716757E+03  0.10877172589E+04  0.67654302579E+03 0.  0.
         13    1    3    3    0    0 -0.18634562081E+03  0.15076930373E+03 -0.37412854949E+02  0.24260213325E+03  0.00000000000E+00 0.  1.
          3    1    3    3  501    0  0.16725726018E+03 -0.15333400300E+03 -0.81408431262E+03  0.84511512565E+03  0.00000000000E+00 0.  1.
         21    1    1    2  502  501  0.19088360632E+02  0.25646992776E+01 -0.27341543087E+02  0.33444030444E+02  0.00000000000E+00 0.  1.
<mgrwt>
<rscale>  1 0.30000000E+03</rscale>
<asrwt>0</asrwt>
<pdfrwt beam="1">  1        1 0.44058744E+00 0.30000000E+03</pdfrwt>
<pdfrwt beam="2">0</pdfrwt>
<totfact> 0.59418462E-01</totfact>
</mgrwt>
</event>
<event>
 6    1  0.5260809E-006  0.3000000E+03  0.7818608E-02  0.1093470E+00
          1   -1    0    0  502    0  0.00000000000E+00  0.00000000000E+00  0.14320050336E+03  0.14320050336E+03  0.00000000000E+00 0.  1.
         13   -1    0    0    0    0 -0.00000000000E+00 -0.00000000000E+00 -0.10000000000E+04  0.10000000000E+04  0.00000000000E+00 0.  1.
    9000005    2    1    2  501    0 -0.31435706255E+02  0.62047125486E+00 -0.88540334968E+03  0.11006943977E+04  0.65314659672E+03 0.  0.
         13    1    3    3    0    0 -0.52190558420E+02  0.90168111935E+02  0.79731729199E+02  0.13119181163E+03  0.00000000000E+00 0.  1.
          3    1    3    3  501    0  0.20754852164E+02 -0.89547640680E+02 -0.96513507888E+03  0.96950258603E+03  0.00000000000E+00 0.  1.
         21    1    1    2  502  501  0.31435706255E+02 -0.62047125486E+00  0.28603853041E+02  0.42506105693E+02  0.00000000000E+00 0. -1.
<mgrwt>
<rscale>  1 0.30000000E+03</rscale>
<asrwt>0</asrwt>
<pdfrwt beam="1">  1        1 0.52073020E+00 0.30000000E+03</pdfrwt>
<pdfrwt beam="2">0</pdfrwt>
<totfact> 0.16051186E-01</totfact>
</mgrwt>
</event>
<event>
 6    1  0.5260809E-006  0.3000000E+03  0.7818608E-02  0.1093470E+00
          1   -1    0    0  502    0  0.00000000000E+00  0.00000000000E+00  0.84656417149E+02  0.84656417149E+02  0.00000000000E+00 0.  1.
         13   -1    0    0    0    0 -0.00000000000E+00 -0.00000000000E+00 -0.10000000000E+04  0.10000000000E+04  0.00000000000E+00 0.  1.
    9000005    2    1    2  501    0 -0.81756216861E+01 -0.73562271982E+01 -0.90883686257E+03  0.10718778305E+04  0.56816959249E+03 0.  0.
         13    1    3    3    0    0  0.27347921164E+03  0.28402063570E+02 -0.35025157611E+03  0.44527937633E+03  0.00000000000E+00 0.  1.
          3    1    3    3  501    0 -0.28165483333E+03 -0.35758290768E+02 -0.55858528646E+03  0.62659845415E+03  0.00000000000E+00 0.  1.
         21    1    1    2  502  501  0.81756216861E+01  0.73562271982E+01 -0.65067202822E+01  0.12778586674E+02  0.00000000000E+00 0.  1.
<mgrwt>
<rscale>  1 0.30000000E+03</rscale>
<asrwt>0</asrwt>
<pdfrwt beam="1">  1        1 0.30784217E+00 0.30000000E+03</pdfrwt>
<pdfrwt beam="2">0</pdfrwt>
<totfact> 0.31879348E+00</totfact>
</mgrwt>
</event>
<event>
 6    1  0.5260809E-006  0.3000000E+03  0.7818608E-02  0.1093470E+00
          1   -1    0    0  502    0  0.00000000000E+00  0.00000000000E+00  0.95852096326E+02  0.95852096326E+02  0.00000000000E+00 0.  1.
         13   -1    0    0    0    0 -0.00000000000E+00 -0.00000000000E+00 -0.10000000000E+04  0.10000000000E+04  0.00000000000E+00 0.  1.
    9000005    2    1    2  501    0 -0.13025097634E+02 -0.14454177399E+02 -0.89959570481E+03  0.10758696308E+04  0.58978339586E+03 0.  0.
         13    1    3    3    0    0  0.10789516576E+03  0.23775569079E+03 -0.65196803394E+03  0.70230438741E+03  0.00000000000E+00 0.  1.
          3    1    3    3  501    0 -0.12092026339E+03 -0.25220986819E+03 -0.24762767087E+03  0.37356524342E+03  0.00000000000E+00 0.  1.
         21    1    1    2  502  501  0.13025097634E+02  0.14454177399E+02 -0.45521988678E+01  0.19982465493E+02  0.00000000000E+00 0. -1.
<mgrwt>
<rscale>  1 0.30000000E+03</rscale>
<asrwt>0</asrwt>
<pdfrwt beam="1">  1        1 0.34855381E+00 0.30000000E+03</pdfrwt>
<pdfrwt beam="2">0</pdfrwt>
<totfact> 0.20028860E+00</totfact>
</mgrwt>
</event>
<event>
 6    1  0.5260809E-006  0.3000000E+03  0.7818608E-02  0.1093470E+00
          1   -1    0    0  502    0  0.00000000000E+00  0.00000000000E+00  0.12065932919E+03  0.12065932919E+03  0.00000000000E+00 0.  1.
         13   -1    0    0    0    0 -0.00000000000E+00 -0.00000000000E+00 -0.10000000000E+04  0.10000000000E+04  0.00000000000E+00 0.  1.
    9000005    2    1    2  501    0  0.76232337739E+01  0.14283430969E+02 -0.88225183708E+03  0.11042092537E+04  0.66381295702E+03 0.  0.
         13    1    3    3    0    0  0.23495178345E+03  0.24314612174E+02 -0.50039927291E+02  0.24144882529E+03  0.00000000000E+00 0.  1.
          1    1    3    3  501    0 -0.22732854968E+03 -0.10031181205E+02 -0.83221190979E+03  0.86276042844E+03  0.00000000000E+00 0.  1.
         21    1    1    2  502  501 -0.76232337739E+01 -0.14283430969E+02  0.29111662711E+01  0.16450075455E+02  0.00000000000E+00 0.  1.
<mgrwt>
<rscale>  1 0.30000000E+03</rscale>
<asrwt>0</asrwt>
<pdfrwt beam="1">  1        1 0.43876212E+00 0.30000000E+03</pdfrwt>
<pdfrwt beam="2">0</pdfrwt>
<totfact> 0.61063937E-01</totfact>
</mgrwt>
</event>
<event>
 6    1  0.5260809E-006  0.3000000E+03  0.7818608E-02  0.1093470E+00
          1   -1    0    0  502    0  0.00000000000E+00  0.00000000000E+00  0.11453669319E+03  0.11453669319E+03  0.00000000000E+00 0.  1.
         13   -1    0    0    0    0 -0.00000000000E+00 -0.00000000000E+00 -0.10000000000E+04  0.10000000000E+04  0.00000000000E+00 0.  1.
    9000005    2    1    2  501    0 -0.23196551413E+02  0.98335552852E+01 -0.86758904834E+03  0.10836454659E+04  0.64880040087E+03 0.  0.
         13    1    3    3    0    0 -0.25779483277E+03 -0.13409968315E+03 -0.17704804328E+03  0.34027475730E+03  0.00000000000E+00 0.  1.
          3    1    3    3  501    0  0.23459828136E+03  0.14393323843E+03 -0.69054100506E+03  0.74337070860E+03  0.00000000000E+00 0.  1.
         21    1    1    2  502  501  0.23196551413E+02 -0.98335552852E+01 -0.17874258477E+02  0.30891227284E+02  0.00000000000E+00 0.  1.
<mgrwt>
<rscale>  1 0.30000000E+03</rscale>
<asrwt>0</asrwt>
<pdfrwt beam="1">  1        1 0.41649794E+00 0.30000000E+03</pdfrwt>
<pdfrwt beam="2">0</pdfrwt>
<totfact> 0.84248100E-01</totfact>
</mgrwt>
</event>
<event>
 6    1  0.5260809E-006  0.3000000E+03  0.7818608E-02  0.1093470E+00
          1   -1    0    0  502    0  0.00000000000E+00  0.00000000000E+00  0.11186323671E+03  0.11186323671E+03  0.00000000000E+00 0.  1.
         13   -1    0    0    0    0 -0.00000000000E+00 -0.00000000000E+00 -0.10000000000E+04  0.10000000000E+04  0.00000000000E+00 0.  1.
    9000005    2    1    2  501    0 -0.10049060402E+02 -0.35474748429E+01 -0.88206311052E+03  0.10995971269E+04  0.65647920171E+03 0.  0.
         13    1    3    3    0    0 -0.23592898092E+03 -0.96784560472E+02 -0.89567233605E+02  0.27028138027E+03  0.00000000000E+00 0.  1.
          3    1    3    3  501    0  0.22587992052E+03  0.93237085629E+02 -0.79249587692E+03  0.82931574660E+03  0.00000000000E+00 0.  1.
         21    1    1    2  502  501  0.10049060402E+02  0.35474748429E+01 -0.60736527679E+01  0.12266109842E+02  0.00000000000E+00 0. -1.
<mgrwt>
<rscale>  1 0.30000000E+03</rscale>
<asrwt>0</asrwt>
<pdfrwt beam="1">  1        1 0.40677626E+00 0.30000000E+03</pdfrwt>
<pdfrwt beam="2">0</pdfrwt>
<totfact> 0.96244883E-01</totfact>
</mgrwt>
</event>
<event>
 6    1  0.5260809E-006  0.3000000E+03  0.7818608E-02  0.1093470E+00
          1   -1    0    0  502    0  0.00000000000E+00  0.00000000000E+00  0.14419357624E+03  0.14419357624E+03  0.00000000000E+00 0.  1.
         13   -1    0    0    0    0 -0.00000000000E+00 -0.00000000000E+00 -0.10000000000E+04  0.10000000000E+04  0.00000000000E+00 0.  1.
    9000005    2    1    2  501    0 -0.12391833198E+02  0.10375052438E+02 -0.89120382054E+03  0.11052811754E+04  0.65356027085E+03 0.  0.
         13    1    3    3    0    0 -0.84088443917E+02 -0.63614518023E+02 -0.96991323059E+03  0.97562766883E+03  0.00000000000E+00 0.  1.
          3    1    3    3  501    0  0.71696610719E+02  0.73989570461E+02  0.78709410057E+02  0.12965350654E+03  0.00000000000E+00 0.  1.
         21    1    1    2  502  501  0.12391833198E+02 -0.10375052438E+02  0.35397396782E+02  0.38912400877E+02  0.00000000000E+00 0.  1.
<mgrwt>
<rscale>  1 0.30000000E+03</rscale>
<asrwt>0</asrwt>
<pdfrwt beam="1">  1        1 0.52434138E+00 0.30000000E+03</pdfrwt>
<pdfrwt beam="2">0</pdfrwt>
<totfact> 0.15077268E-01</totfact>
</mgrwt>
</event>
<event>
 6    1  0.5260809E-006  0.3000000E+03  0.7818608E-02  0.1093470E+00
          1   -1    0    0  502    0  0.00000000000E+00  0.00000000000E+00  0.11091932326E+03  0.11091932326E+03  0.00000000000E+00 0.  1.
         13   -1    0    0    0    0 -0.00000000000E+00 -0.00000000000E+00 -0.10000000000E+04  0.10000000000E+04  0.00000000000E+00 0.  1.
    9000005    2    1    2  501    0  0.12002051568E+02  0.11035443070E+02 -0.87950723962E+03  0.10920121568E+04  0.64706393486E+03 0.  0.
         13    1    3    3    0    0 -0.69009852142E+02  0.26581586518E+03 -0.14541206954E+03  0.31074926201E+03  0.00000000000E+00 0.  1.
          1    1    3    3  501    0  0.81011903711E+02 -0.25478042211E+03 -0.73409517007E+03  0.78126289478E+03  0.00000000000E+00 0.  1.
         21    1    1    2  502  501 -0.12002051568E+02 -0.11035443070E+02 -0.95734371213E+01  0.18907166470E+02  0.00000000000E+00 0.  1.
<mgrwt>
<rscale>  1 0.30000000E+03</rscale>
<asrwt>0</asrwt>
<pdfrwt beam="1">  1        1 0.40334384E+00 0.30000000E+03</pdfrwt>
<pdfrwt beam="2">0</pdfrwt>
<totfact> 0.10076774E+00</totfact>
</mgrwt>
</event>
<event>
 6    1  0.5260809E-006  0.3000000E+03  0.7818608E-02  0.1093470E+00
          1   -1    0    0  502    0  0.00000000000E+00  0.00000000000E+00  0.11245698595E+03  0.11245698595E+03  0.00000000000E+00 0.  1.
         13   -1    0    0    0    0 -0.00000000000E+00 -0.00000000000E+00 -0.10000000000E+04  0.10000000000E+04  0.00000000000E+00 0.  1.
    9000005    2    1    2  501    0  0.70042952161E+01 -0.29356174907E+02 -0.87214994440E+03  0.10785779106E+04  0.63385640209E+03 0.  0.
         13    1    3    3    0    0  0.30500762081E+03 -0.27954742136E+02 -0.60608382490E+03  0.67907931729E+03  0.00000000000E+00 0.  1.
          3    1    3    3  501    0 -0.29800332559E+03 -0.14014327711E+01 -0.26606611950E+03  0.39949859327E+03  0.00000000000E+00 0.  1.
         21    1    1    2  502  501 -0.70042952161E+01  0.29356174907E+02 -0.15393069643E+02  0.33879075396E+02  0.00000000000E+00 0.  1.
<mgrwt>
<rscale>  1 0.30000000E+03</rscale>
<asrwt>0</asrwt>
<pdfrwt beam="1">  1        1 0.40893536E+00 0.30000000E+03</pdfrwt>
<pdfrwt beam="2">0</pdfrwt>
<totfact> 0.93477691E-01</totfact>
</mgrwt>
</event>
<event>
 6    1  0.5260809E-006  0.3000000E+03  0.7818608E-02  0.1093470E+00
          1   -1    0    0  502    0  0.00000000000E+00  0.00000000000E+00  0.11523117915E+03  0.11523117915E+03  0.00000000000E+00 0.  1.
         13   -1    0    0    0    0 -0.00000000000E+00 -0.00000000000E+00 -0.10000000000E+04  0.10000000000E+04  0.00000000000E+00 0.  1.
    9000005    2    1    2  501    0  0.28317933842E+01  0.20806489571E+02 -0.88084645153E+03  0.10938696707E+04  0.64824336189E+03 0.  0.
         13    1    3    3    0    0 -0.19586804420E+03  0.23726981709E+03 -0.24460775496E+03  0.39305751568E+03  0.00000000000E+00 0.  1.
          3    1    3    3  501    0  0.19869983759E+03 -0.21646332752E+03 -0.63623869657E+03  0.70081215502E+03  0.00000000000E+00 0.  1.
         21    1    1    2  502  501 -0.28317933842E+01 -0.20806489571E+02 -0.39223693217E+01  0.21361508448E+02  0.00000000000E+00 0. -1.
<mgrwt>
<rscale>  1 0.30000000E+03</rscale>
<asrwt>0</asrwt>
<pdfrwt beam="1">  1        1 0.41902335E+00 0.30000000E+03</pdfrwt>
<pdfrwt beam="2">0</pdfrwt>
<totfact> 0.81317147E-01</totfact>
</mgrwt>
</event>
<event>
 6    1  0.5260809E-006  0.3000000E+03  0.7818608E-02  0.1093470E+00
          1   -1    0    0  502    0  0.00000000000E+00  0.00000000000E+00  0.12151562335E+03  0.12151562335E+03  0.00000000000E+00 0.  1.
         13   -1    0    0    0    0 -0.00000000000E+00 -0.00000000000E+00 -0.10000000000E+04  0.10000000000E+04  0.00000000000E+00 0.  1.
    9000005    2    1    2  501    0 -0.16736514502E+02  0.34593177539E+02 -0.85589499645E+03  0.10769389596E+04  0.65250630570E+03 0.  0.
         13    1    3    3    0    0  0.87404293341E+02 -0.10616777299E+03  0.55928526496E+02  0.14845573951E+03  0.00000000000E+00 0.  1.
          1    1    3    3  501    0 -0.10414080784E+03  0.14076095053E+03 -0.91182352295E+03  0.92848322013E+03  0.00000000000E+00 0.  1.
         21    1    1    2  502  501  0.16736514502E+02 -0.34593177539E+02 -0.22589380199E+02  0.44576663712E+02  0.00000000000E+00 0.  1.
<mgrwt>
<rscale>  1 0.30000000E+03</rscale>
<asrwt>0</asrwt>
<pdfrwt beam="1">  1        1 0.44187593E+00 0.30000000E+03</pdfrwt>
<pdfrwt beam="2">0</pdfrwt>
<totfact> 0.58276258E-01</totfact>
</mgrwt>
</event>
<event>
 6    1  0.5260809E-006  0.3000000E+03  0.7818608E-02  0.1093470E+00
          1   -1    0    0  502    0  0.00000000000E+00  0.00000000000E+00  0.13096575756E+03  0.13096575756E+03  0.00000000000E+00 0.  1.
         13   -1    0    0    0    0 -0.00000000000E+00 -0.00000000000E+00 -0.10000000000E+04  0.10000000000E+04  0.00000000000E+00 0.  1.
    9000005    2    1    2  501    0 -0.69228141112E-01  0.99830628809E+01 -0.89208281681E+03  0.11058479727E+04  0.65344343311E+03 0.  0.
         13    1    3    3    0    0  0.24765001135E+03 -0.19108665334E+03 -0.30072819623E+03  0.43391483636E+03  0.00000000000E+00 0.  1.
          3    1    3    3  501    0 -0.24771923949E+03  0.20106971622E+03 -0.59135462058E+03  0.67193313632E+03  0.00000000000E+00 0.  1.
         21    1    1    2  502  501  0.69228141112E-01 -0.99830628809E+01  0.23048574373E+02  0.25117784887E+02  0.00000000000E+00 0.  1.
<mgrwt>
<rscale>  1 0.30000000E+03</rscale>
<asrwt>0</asrwt>
<pdfrwt beam="1">  1        1 0.47624012E+00 0.30000000E+03</pdfrwt>
<pdfrwt beam="2">0</pdfrwt>
<totfact> 0.33976913E-01</totfact>
</mgrwt>
</event>
<event>
 6    1  0.5260809E-006  0.3000000E+03  0.7818608E-02  0.1093470E+00
          1   -1    0    0  502    0  0.00000000000E+00  0.00000000000E+00  0.13907018565E+03  0.13907018565E+03  0.00000000000E+00 0.  1.
         13   -1    0    0    0    0 -0.00000000000E+00 -0.00000000000E+00 -0.10000000000E+04  0.10000000000E+04  0.00000000000E+00 0.  1.
    9000005    2    1    2  501    0 -0.30011135619E+02  0.40431277898E+01 -0.87910595151E+03  0.11037518178E+04  0.66672617035E+03 0.  0.
         13    1    3    3    0    0  0.67008181223E+02 -0.27194543814E+03 -0.14906476292E+03  0.31727704175E+03  0.00000000000E+00 0.  1.
          1    1    3    3  501    0 -0.97019316842E+02  0.27598856593E+03 -0.73004118860E+03  0.78647477608E+03  0.00000000000E+00 0.  1.
         21    1    1    2  502  501  0.30011135619E+02 -0.40431277898E+01  0.18176137169E+02  0.35318367826E+02  0.00000000000E+00 0.  1.
<mgrwt>
<rscale>  1 0.30000000E+03</rscale>
<asrwt>0</asrwt>
<pdfrwt beam="1">  1        1 0.50571083E+00 0.30000000E+03</pdfrwt>
<pdfrwt beam="2">0</pdfrwt>
<totfact> 0.20738313E-01</totfact>
</mgrwt>
</event>
<event>
 6    1  0.5260809E-006  0.3000000E+03  0.7818608E-02  0.1093470E+00
          1   -1    0    0  502    0  0.00000000000E+00  0.00000000000E+00  0.10882282951E+03  0.10882282951E+03  0.00000000000E+00 0.  1.
         13   -1    0    0    0    0 -0.00000000000E+00 -0.00000000000E+00 -0.10000000000E+04  0.10000000000E+04  0.00000000000E+00 0.  1.
    9000005    2    1    2  501    0  0.15466483849E+01  0.99910053070E+01 -0.88451506790E+03  0.10967151493E+04  0.64831705293E+03 0.  0.
         13    1    3    3    0    0  0.11978566761E+02 -0.90113858580E+02 -0.96411753231E+03  0.96839382984E+03  0.00000000000E+00 0.  1.
          1    1    3    3  501    0 -0.10431918377E+02  0.10010486389E+03  0.79602464411E+02  0.12832131949E+03  0.00000000000E+00 0.  1.
         21    1    1    2  502  501 -0.15466483849E+01 -0.99910053070E+01 -0.66621025958E+01  0.12107680177E+02  0.00000000000E+00 0. -1.
<mgrwt>
<rscale>  1 0.30000000E+03</rscale>
<asrwt>0</asrwt>
<pdfrwt beam="1">  1        1 0.39572021E+00 0.30000000E+03</pdfrwt>
<pdfrwt beam="2">0</pdfrwt>
<totfact> 0.11136751E+00</totfact>
</mgrwt>
</event>
<event>
 6    1  0.5260809E-006  0.3000000E+03  0.7818608E-02  0.1093470E+00
          1   -1    0    0  502    0  0.00000000000E+00  0.00000000000E+00  0.10756082638E+03  0.10756082638E+03  0.00000000000E+00 0.  1.
         13   -1    0    0    0    0 -0.00000000000E+00 -0.00000000000E+00 -0.10000000000E+04  0.10000000000E+04  0.00000000000E+00 0.  1.
    9000005    2    1    2  501    0 -0.33649434457E+01 -0.13191261452E+02 -0.89588179897E+03  0.10935186082E+04  0.62689186983E+03 0.  0.
         13    1    3    3    0    0  0.14918558654E+03 -0.27972365002E+03 -0.40230947552E+03  0.51220559711E+03  0.00000000000E+00 0.  1.
          1    1    3    3  501    0 -0.15255052999E+03  0.26653238857E+03 -0.49357232344E+03  0.58131301106E+03  0.00000000000E+00 0.  1.
         21    1    1    2  502  501  0.33649434457E+01  0.13191261452E+02  0.34426253461E+01  0.14042218214E+02  0.00000000000E+00 0. -1.
<mgrwt>
<rscale>  1 0.30000000E+03</rscale>
<asrwt>0</asrwt>
<pdfrwt beam="1">  1        1 0.39113110E+00 0.30000000E+03</pdfrwt>
<pdfrwt beam="2">0</pdfrwt>
<totfact> 0.11818360E+00</totfact>
</mgrwt>
</event>
<event>
 6    1  0.5260809E-006  0.3000000E+03  0.7818608E-02  0.1093470E+00
          1   -1    0    0  502    0  0.00000000000E+00  0.00000000000E+00  0.10738140641E+03  0.10738140641E+03  0.00000000000E+00 0.  1.
         13   -1    0    0    0    0 -0.00000000000E+00 -0.00000000000E+00 -0.10000000000E+04  0.10000000000E+04  0.00000000000E+00 0.  1.
    9000005    2    1    2  501    0  0.87228766604E+01 -0.71350917604E+01 -0.89072701983E+03  0.10959544137E+04  0.63843124524E+03 0.  0.
         13    1    3    3    0    0 -0.39656641361E+02 -0.27876846598E+03 -0.71599304809E+03  0.76937023061E+03  0.00000000000E+00 0.  1.
          3    1    3    3  501    0  0.48379518021E+02  0.27163337422E+03 -0.17473397173E+03  0.32658418307E+03  0.00000000000E+00 0.  1.
         21    1    1    2  502  501 -0.87228766604E+01  0.71350917604E+01 -0.18915737609E+01  0.11426992735E+02  0.00000000000E+00 0.  1.
<mgrwt>
<rscale>  1 0.30000000E+03</rscale>
<asrwt>0</asrwt>
<pdfrwt beam="1">  1        1 0.39047866E+00 0.30000000E+03</pdfrwt>
<pdfrwt beam="2">0</pdfrwt>
<totfact> 0.11918242E+00</totfact>
</mgrwt>
</event>
<event>
 6    1  0.5260809E-006  0.3000000E+03  0.7818608E-02  0.1093470E+00
          1   -1    0    0  502    0  0.00000000000E+00  0.00000000000E+00  0.11598256706E+03  0.11598256706E+03  0.00000000000E+00 0.  1.
         13   -1    0    0    0    0 -0.00000000000E+00 -0.00000000000E+00 -0.10000000000E+04  0.10000000000E+04  0.00000000000E+00 0.  1.
    9000005    2    1    2  501    0 -0.63430738966E+01  0.20666534501E+02 -0.88263246698E+03  0.10943201949E+04  0.64655183634E+03 0.  0.
         13    1    3    3    0    0  0.74695668662E+02  0.11723142663E+03 -0.94395341462E+03  0.95413348086E+03  0.00000000000E+00 0.  1.
          1    1    3    3  501    0 -0.81038742558E+02 -0.96564892133E+02  0.61320947647E+02  0.14018671409E+03  0.00000000000E+00 0.  1.
         21    1    1    2  502  501  0.63430738966E+01 -0.20666534501E+02 -0.13849659626E+01  0.21662372110E+02  0.00000000000E+00 0.  1.
<mgrwt>
<rscale>  1 0.30000000E+03</rscale>
<asrwt>0</asrwt>
<pdfrwt beam="1">  1        1 0.42175568E+00 0.30000000E+03</pdfrwt>
<pdfrwt beam="2">0</pdfrwt>
<totfact> 0.78227039E-01</totfact>
</mgrwt>
</event>
<event>
 6    1  0.5260809E-006  0.3000000E+03  0.7818608E-02  0.1093470E+00
          1   -1    0    0  502    0  0.00000000000E+00  0.00000000000E+00  0.98164376054E+02  0.98164376054E+02  0.00000000000E+00 0.  1.
         13   -1    0    0    0    0 -0.00000000000E+00 -0.00000000000E+00 -0.10000000000E+04  0.10000000000E+04  0.00000000000E+00 0.  1.
    9000005    2    1    2  501    0  0.17402383709E+02  0.40872021397E+01 -0.88788801244E+03  0.10754909545E+04  0.60664332380E+03 0.  0.
         13    1    3    3    0    0  0.16182731749E+03  0.62968848948E+02  0.36693577183E+00  0.17364703068E+03  0.00000000000E+00 0.  1.
          3    1    3    3  501    0 -0.14442493378E+03 -0.58881646808E+02 -0.88825494821E+03  0.90184392378E+03  0.00000000000E+00 0.  1.
         21    1    1    2  502  501 -0.17402383709E+02 -0.40872021397E+01 -0.13947611504E+02  0.22673421594E+02  0.00000000000E+00 0. -1.
<mgrwt>
<rscale>  1 0.30000000E+03</rscale>
<asrwt>0</asrwt>
<pdfrwt beam="1">  1        1 0.35696212E+00 0.30000000E+03</pdfrwt>
<pdfrwt beam="2">0</pdfrwt>
<totfact> 0.18120475E+00</totfact>
</mgrwt>
</event>
<event>
 6    1  0.5260809E-006  0.3000000E+03  0.7818608E-02  0.1093470E+00
          1   -1    0    0  502    0  0.00000000000E+00  0.00000000000E+00  0.11402775297E+03  0.11402775297E+03  0.00000000000E+00 0.  1.
         13   -1    0    0    0    0 -0.00000000000E+00 -0.00000000000E+00 -0.10000000000E+04  0.10000000000E+04  0.00000000000E+00 0.  1.
    9000005    2    1    2  501    0 -0.95045642938E+01 -0.89567848168E+01 -0.87794280732E+03  0.10986969787E+04  0.66043994232E+03 0.  0.
         13    1    3    3    0    0  0.82810415717E+02 -0.32263921732E+03 -0.42192481631E+03  0.53756318709E+03  0.00000000000E+00 0.  1.
          1    1    3    3  501    0 -0.92314980011E+02  0.31368243250E+03 -0.45601799101E+03  0.56113379164E+03  0.00000000000E+00 0.  1.
         21    1    1    2  502  501  0.95045642938E+01  0.89567848168E+01 -0.80294397151E+01  0.15330774240E+02  0.00000000000E+00 0. -1.
<mgrwt>
<rscale>  1 0.30000000E+03</rscale>
<asrwt>0</asrwt>
<pdfrwt beam="1">  1        1 0.41464725E+00 0.30000000E+03</pdfrwt>
<pdfrwt beam="2">0</pdfrwt>
<totfact> 0.86441244E-01</totfact>
</mgrwt>
</event>
<event>
 6    1  0.5260809E-006  0.3000000E+03  0.7818608E-02  0.1093470E+00
          1   -1    0    0  502    0  0.00000000000E+00  0.00000000000E+00  0.72885495721E+02  0.72885495721E+02  0.00000000000E+00 0.  1.
         13   -1    0    0    0    0 -0.00000000000E+00 -0.00000000000E+00 -0.10000000000E+04  0.10000000000E+04  0.00000000000E+00 0.  1.
    9000005    2    1    2  501    0 -0.61199581630E+01  0.78199101667E+01 -0.92787206381E+03  0.10629266414E+04  0.51842827210E+03 0.  0.
         13    1    3    3    0    0  0.71615982207E+02  0.24995402417E+03 -0.53654610066E+03  0.59622779308E+03  0.00000000000E+00 0.  1.
          1    1    3    3  501    0 -0.77735940370E+02 -0.24213411400E+03 -0.39132596315E+03  0.46669884832E+03  0.00000000000E+00 0.  1.
         21    1    1    2  502  501  0.61199581630E+01 -0.78199101667E+01  0.75755953351E+00  0.99588543206E+01  0.00000000000E+00 0. -1.
<mgrwt>
<rscale>  1 0.30000000E+03</rscale>
<asrwt>0</asrwt>
<pdfrwt beam="1">  1        1 0.26503873E+00 0.30000000E+03</pdfrwt>
<pdfrwt beam="2">0</pdfrwt>
<totfact> 0.50735385E+00</totfact>
</mgrwt>
</event>
<event>
 6    1  0.5260809E-006  0.3000000E+03  0.7818608E-02  0.1093470E+00
          1   -1    0    0  502    0  0.00000000000E+00  0.00000000000E+00  0.18404791017E+03  0.18404791017E+03  0.00000000000E+00 0.  1.
         13   -1    0    0    0    0 -0.00000000000E+00 -0.00000000000E+00 -0.10000000000E+04  0.10000000000E+04  0.00000000000E+00 0.  1.
    9000005    2    1    2  501    0 -0.56372106006E+01 -0.18874081097E+03 -0.67158916370E+03  0.94636003435E+03  0.63946105272E+03 0.  0.
         13    1    3    3    0    0  0.81499223985E+02  0.15174905469E+03 -0.54698100353E+03  0.57346152210E+03  0.00000000000E+00 0.  1.
          1    1    3    3  501    0 -0.87136434585E+02 -0.34048986567E+03 -0.12460816017E+03  0.37289851224E+03  0.00000000000E+00 0.  1.
         21    1    1    2  502  501  0.56372106006E+01  0.18874081097E+03 -0.14436292614E+03  0.23768787582E+03  0.00000000000E+00 0. -1.
<mgrwt>
<rscale>  1 0.30000000E+03</rscale>
<asrwt>0</asrwt>
<pdfrwt beam="1">  1        1 0.66926654E+00 0.30000000E+03</pdfrwt>
<pdfrwt beam="2">0</pdfrwt>
<totfact> 0.31198363E-02</totfact>
</mgrwt>
</event>
<event>
 6    1  0.5260809E-006  0.3000000E+03  0.7818608E-02  0.1093470E+00
          1   -1    0    0  502    0  0.00000000000E+00  0.00000000000E+00  0.11040740486E+03  0.11040740486E+03  0.00000000000E+00 0.  1.
         13   -1    0    0    0    0 -0.00000000000E+00 -0.00000000000E+00 -0.10000000000E+04  0.10000000000E+04  0.00000000000E+00 0.  1.
    9000005    2    1    2  501    0  0.86432572198E+01 -0.57348068605E+01 -0.89209771971E+03  0.10997364370E+04  0.64301966964E+03 0.  0.
         13    1    3    3    0    0  0.13783966534E+03  0.68478139958E+02  0.37385010038E+02  0.15838771407E+03  0.00000000000E+00 0.  1.
          3    1    3    3  501    0 -0.12919640812E+03 -0.74212946819E+02 -0.92948272974E+03  0.94134872297E+03  0.00000000000E+00 0.  1.
         21    1    1    2  502  501 -0.86432572198E+01  0.57348068605E+01  0.25051245620E+01  0.10670967818E+02  0.00000000000E+00 0.  1.
<mgrwt>
<rscale>  1 0.30000000E+03</rscale>
<asrwt>0</asrwt>
<pdfrwt beam="1">  1        1 0.40148232E+00 0.30000000E+03</pdfrwt>
<pdfrwt beam="2">0</pdfrwt>
<totfact> 0.10328251E+00</totfact>
</mgrwt>
</event>
<event>
 6    1  0.5260809E-006  0.3000000E+03  0.7818608E-02  0.1093470E+00
          1   -1    0    0  502    0  0.00000000000E+00  0.00000000000E+00  0.11460844337E+03  0.11460844337E+03  0.00000000000E+00 0.  1.
         13   -1    0    0    0    0 -0.00000000000E+00 -0.00000000000E+00 -0.10000000000E+04  0.10000000000E+04  0.00000000000E+00 0.  1.
    9000005    2    1    2  501    0  0.13761726781E+01  0.10583552157E+02 -0.87358784497E+03  0.10986951459E+04  0.66622923631E+03 0.  0.
         13    1    3    3    0    0 -0.20329542630E+03  0.64522136511E+02 -0.86060077745E+03  0.88663737492E+03  0.00000000000E+00 0.  1.
          1    1    3    3  501    0  0.20467159898E+03 -0.53938584354E+02 -0.12987067528E+02  0.21205777099E+03  0.00000000000E+00 0.  1.
         21    1    1    2  502  501 -0.13761726781E+01 -0.10583552157E+02 -0.11803711655E+02  0.15913297469E+02  0.00000000000E+00 0. -1.
<mgrwt>
<rscale>  1 0.30000000E+03</rscale>
<asrwt>0</asrwt>
<pdfrwt beam="1">  1        1 0.41675885E+00 0.30000000E+03</pdfrwt>
<pdfrwt beam="2">0</pdfrwt>
<totfact> 0.83942104E-01</totfact>
</mgrwt>
</event>
<event>
 6    1  0.5260809E-006  0.3000000E+03  0.7818608E-02  0.1093470E+00
          1   -1    0    0  502    0  0.00000000000E+00  0.00000000000E+00  0.12899119073E+03  0.12899119073E+03  0.00000000000E+00 0.  1.
         13   -1    0    0    0    0 -0.00000000000E+00 -0.00000000000E+00 -0.10000000000E+04  0.10000000000E+04  0.00000000000E+00 0.  1.
    9000005    2    1    2  501    0 -0.18679351811E+02  0.94753253953E+01 -0.88860928324E+03  0.11016328893E+04  0.65079172126E+03 0.  0.
         13    1    3    3    0    0 -0.50526170562E+02 -0.21531560661E+03 -0.84108472146E+03  0.86967649907E+03  0.00000000000E+00 0.  1.
          3    1    3    3  501    0  0.31846818750E+02  0.22479093201E+03 -0.47524561786E+02  0.23195639019E+03  0.00000000000E+00 0.  1.
         21    1    1    2  502  501  0.18679351811E+02 -0.94753253953E+01  0.17600473969E+02  0.27358301471E+02  0.00000000000E+00 0.  1.
<mgrwt>
<rscale>  1 0.30000000E+03</rscale>
<asrwt>0</asrwt>
<pdfrwt beam="1">  1        1 0.46905986E+00 0.30000000E+03</pdfrwt>
<pdfrwt beam="2">0</pdfrwt>
<totfact> 0.38178676E-01</totfact>
</mgrwt>
</event>
<event>
 6    1  0.5260809E-006  0.3000000E+03  0.7818608E-02  0.1093470E+00
          1   -1    0    0  502    0  0.00000000000E+00  0.00000000000E+00  0.11703005312E+03  0.11703005312E+03  0.00000000000E+00 0.  1.
         13   -1    0    0    0    0 -0.00000000000E+00 -0.00000000000E+00 -0.10000000000E+04  0.10000000000E+04  0.00000000000E+00 0.  1.
    9000005    2    1    2  501    0 -0.20490580268E+01  0.16697148146E+02 -0.88634725511E+03  0.10998719761E+04  0.65101759873E+03 0.  0.
         13    1    3    3    0    0 -0.32236233143E+03 -0.18623510839E+02 -0.51858137305E+03  0.61089356549E+03  0.00000000000E+00 0.  1.
          1    1    3    3  501    0  0.32031327340E+03  0.35320658985E+02 -0.36776588205E+03  0.48897841064E+03  0.00000000000E+00 0.  1.
         21    1    1    2  502  501  0.20490580268E+01 -0.16697148146E+02  0.33773082281E+01  0.17158076986E+02  0.00000000000E+00 0. -1.
<mgrwt>
<rscale>  1 0.30000000E+03</rscale>
<asrwt>0</asrwt>
<pdfrwt beam="1">  1        1 0.42556473E+00 0.30000000E+03</pdfrwt>
<pdfrwt beam="2">0</pdfrwt>
<totfact> 0.74069963E-01</totfact>
</mgrwt>
</event>
<event>
 6    1  0.5260809E-006  0.3000000E+03  0.7818608E-02  0.1093470E+00
          1   -1    0    0  502    0  0.00000000000E+00  0.00000000000E+00  0.11591317064E+03  0.11591317064E+03  0.00000000000E+00 0.  1.
         13   -1    0    0    0    0 -0.00000000000E+00 -0.00000000000E+00 -0.10000000000E+04  0.10000000000E+04  0.00000000000E+00 0.  1.
    9000005    2    1    2  501    0  0.18668414811E+02 -0.14422463891E+02 -0.87570029690E+03  0.10908761760E+04  0.65007945984E+03 0.  0.
         13    1    3    3    0    0 -0.14440936295E+03  0.25767595032E+03 -0.24065278847E+03  0.38100488721E+03  0.00000000000E+00 0.  1.
          1    1    3    3  501    0  0.16307777776E+03 -0.27209841422E+03 -0.63504750843E+03  0.70987128874E+03  0.00000000000E+00 0.  1.
         21    1    1    2  502  501 -0.18668414811E+02  0.14422463891E+02 -0.83865324612E+01  0.25036994688E+02  0.00000000000E+00 0.  1.
<mgrwt>
<rscale>  1 0.30000000E+03</rscale>
<asrwt>0</asrwt>
<pdfrwt beam="1">  1        1 0.42150333E+00 0.30000000E+03</pdfrwt>
<pdfrwt beam="2">0</pdfrwt>
<totfact> 0.78508759E-01</totfact>
</mgrwt>
</event>
<event>
 6    1  0.5260809E-006  0.3000000E+03  0.7818608E-02  0.1093470E+00
          1   -1    0    0  502    0  0.00000000000E+00  0.00000000000E+00  0.12815616004E+03  0.12815616004E+03  0.00000000000E+00 0.  1.
         13   -1    0    0    0    0 -0.00000000000E+00 -0.00000000000E+00 -0.10000000000E+04  0.10000000000E+04  0.00000000000E+00 0.  1.
    9000005    2    1    2  501    0 -0.86595300326E+01  0.20305610156E+02 -0.90026923342E+03  0.10921657689E+04  0.61794341873E+03 0.  0.
         13    1    3    3    0    0 -0.19180934083E+03 -0.19387425506E+03 -0.20263636575E+03  0.33976395737E+03  0.00000000000E+00 0.  1.
          1    1    3    3  501    0  0.18314981080E+03  0.21417986522E+03 -0.69763286768E+03  0.75240181148E+03  0.00000000000E+00 0.  1.
         21    1    1    2  502  501  0.86595300326E+01 -0.20305610156E+02  0.28425393467E+02  0.35990391189E+02  0.00000000000E+00 0.  1.
<mgrwt>
<rscale>  1 0.30000000E+03</rscale>
<asrwt>0</asrwt>
<pdfrwt beam="1">  1        1 0.46602338E+00 0.30000000E+03</pdfrwt>
<pdfrwt beam="2">0</pdfrwt>
<totfact> 0.40080554E-01</totfact>
</mgrwt>
</event>
<event>
 6    1  0.5260809E-006  0.3000000E+03  0.7818608E-02  0.1093470E+00
          1   -1    0    0  502    0  0.00000000000E+00  0.00000000000E+00  0.10610330352E+03  0.10610330352E+03  0.00000000000E+00 0.  1.
         13   -1    0    0    0    0 -0.00000000000E+00 -0.00000000000E+00 -0.10000000000E+04  0.10000000000E+04  0.00000000000E+00 0.  1.
    9000005    2    1    2  501    0 -0.26620135998E+01  0.12262628212E+02 -0.87585530732E+03  0.10841271781E+04  0.63878929272E+03 0.  0.
         13    1    3    3    0    0  0.73092875398E+02  0.12033707202E+03 -0.93063816412E+03  0.94122843766E+03  0.00000000000E+00 0.  1.
          3    1    3    3  501    0 -0.75754888998E+02 -0.10807444380E+03  0.54782856801E+02  0.14289874041E+03  0.00000000000E+00 0.  1.
         21    1    1    2  502  501  0.26620135998E+01 -0.12262628212E+02 -0.18041389160E+02  0.21976125452E+02  0.00000000000E+00 0.  1.
<mgrwt>
<rscale>  1 0.30000000E+03</rscale>
<asrwt>0</asrwt>
<pdfrwt beam="1">  1        1 0.38583101E+00 0.30000000E+03</pdfrwt>
<pdfrwt beam="2">0</pdfrwt>
<totfact> 0.12651047E+00</totfact>
</mgrwt>
</event>
<event>
 6    1  0.5260809E-006  0.3000000E+03  0.7818608E-02  0.1093470E+00
          1   -1    0    0  502    0  0.00000000000E+00  0.00000000000E+00  0.12909529958E+03  0.12909529958E+03  0.00000000000E+00 0.  1.
         13   -1    0    0    0    0 -0.00000000000E+00 -0.00000000000E+00 -0.10000000000E+04  0.10000000000E+04  0.00000000000E+00 0.  1.
    9000005    2    1    2  501    0  0.19755175931E+02 -0.31740776325E+02 -0.87203144920E+03  0.10916919118E+04  0.65570926327E+03 0.  0.
         13    1    3    3    0    0  0.14123509426E+03 -0.29116728262E+03 -0.25709943069E+03  0.41331084619E+03  0.00000000000E+00 0.  1.
          3    1    3    3  501    0 -0.12147991833E+03  0.25942650630E+03 -0.61493201851E+03  0.67838106556E+03  0.00000000000E+00 0.  1.
         21    1    1    2  502  501 -0.19755175931E+02  0.31740776325E+02  0.11267487791E+01  0.37403387822E+02  0.00000000000E+00 0.  1.
<mgrwt>
<rscale>  1 0.30000000E+03</rscale>
<asrwt>0</asrwt>
<pdfrwt beam="1">  1        1 0.46943844E+00 0.30000000E+03</pdfrwt>
<pdfrwt beam="2">0</pdfrwt>
<totfact> 0.37946778E-01</totfact>
</mgrwt>
</event>
<event>
 6    1  0.5260809E-006  0.3000000E+03  0.7818608E-02  0.1093470E+00
          1   -1    0    0  502    0  0.00000000000E+00  0.00000000000E+00  0.10359189619E+03  0.10359189619E+03  0.00000000000E+00 0.  1.
         13   -1    0    0    0    0 -0.00000000000E+00 -0.00000000000E+00 -0.10000000000E+04  0.10000000000E+04  0.00000000000E+00 0.  1.
    9000005    2    1    2  501    0 -0.90621491622E+01  0.11240211813E+00 -0.89247038650E+03  0.10937105603E+04  0.63215288001E+03 0.  0.
         13    1    3    3    0    0  0.11903259398E+03  0.25465942194E+03 -0.20027063145E+03  0.34514997528E+03  0.00000000000E+00 0.  1.
          3    1    3    3  501    0 -0.12809474314E+03 -0.25454701983E+03 -0.69219975505E+03  0.74856058500E+03  0.00000000000E+00 0.  1.
         21    1    1    2  502  501  0.90621491622E+01 -0.11240211813E+00 -0.39377173110E+01  0.98813359064E+01  0.00000000000E+00 0.  1.
<mgrwt>
<rscale>  1 0.30000000E+03</rscale>
<asrwt>0</asrwt>
<pdfrwt beam="1">  1        1 0.37669860E+00 0.30000000E+03</pdfrwt>
<pdfrwt beam="2">0</pdfrwt>
<totfact> 0.14201199E+00</totfact>
</mgrwt>
</event>
<event>
 6    1  0.5260809E-006  0.3000000E+03  0.7818608E-02  0.1093470E+00
          1   -1    0    0  502    0  0.00000000000E+00  0.00000000000E+00  0.12087315102E+03  0.12087315102E+03  0.00000000000E+00 0.  1.
         13   -1    0    0    0    0 -0.00000000000E+00 -0.00000000000E+00 -0.10000000000E+04  0.10000000000E+04  0.00000000000E+00 0.  1.
    9000005    2    1    2  501    0 -0.67582268642E+01 -0.10023775707E+02 -0.89398800951E+03  0.11017158077E+04  0.64375228943E+03 0.  0.
         13    1    3    3    0    0 -0.28677202872E+02 -0.74576903188E+02 -0.98487038366E+03  0.98810615273E+03  0.00000000000E+00 0.  1.
          1    1    3    3  501    0  0.21918976008E+02  0.64553127481E+02  0.90882374152E+02  0.11360965500E+03  0.00000000000E+00 0.  1.
         21    1    1    2  502  501  0.67582268642E+01  0.10023775707E+02  0.14861160529E+02  0.19157343293E+02  0.00000000000E+00 0.  1.
<mgrwt>
<rscale>  1 0.30000000E+03</rscale>
<asrwt>0</asrwt>
<pdfrwt beam="1">  1        1 0.43953966E+00 0.30000000E+03</pdfrwt>
<pdfrwt beam="2">0</pdfrwt>
<totfact> 0.60358860E-01</totfact>
</mgrwt>
</event>
<event>
 6    1  0.5260809E-006  0.3000000E+03  0.7818608E-02  0.1093470E+00
          1   -1    0    0  502    0  0.00000000000E+00  0.00000000000E+00  0.11155005393E+03  0.11155005393E+03  0.00000000000E+00 0.  1.
         13   -1    0    0    0    0 -0.00000000000E+00 -0.00000000000E+00 -0.10000000000E+04  0.10000000000E+04  0.00000000000E+00 0.  1.
    9000005    2    1    2  501    0  0.12419839151E+02 -0.39907195726E+01 -0.87057008702E+03  0.10894171010E+04  0.65480314996E+03 0.  0.
         13    1    3    3    0    0 -0.21132227869E+03  0.67339247039E+02 -0.38836617581E+02  0.22516652177E+03  0.00000000000E+00 0.  1.
          3    1    3    3  501    0  0.22374211784E+03 -0.71329966611E+02 -0.83173346944E+03  0.86425057918E+03  0.00000000000E+00 0.  1.
         21    1    1    2  502  501 -0.12419839151E+02  0.39907195726E+01 -0.17879859057E+02  0.22132952969E+02  0.00000000000E+00 0.  1.
<mgrwt>
<rscale>  1 0.30000000E+03</rscale>
<asrwt>0</asrwt>
<pdfrwt beam="1">  1        1 0.40563742E+00 0.30000000E+03</pdfrwt>
<pdfrwt beam="2">0</pdfrwt>
<totfact> 0.97728645E-01</totfact>
</mgrwt>
</event>
<event>
 6    1  0.5260809E-006  0.3000000E+03  0.7818608E-02  0.1093470E+00
          1   -1    0    0  502    0  0.00000000000E+00  0.00000000000E+00  0.17879730872E+03  0.17879730872E+03  0.00000000000E+00 0.  1.
         13   -1    0    0    0    0 -0.00000000000E+00 -0.00000000000E+00 -0.10000000000E+04  0.10000000000E+04  0.00000000000E+00 0.  1.
    9000005    2    1    2  501    0 -0.13399904802E+03 -0.16375788889E+02 -0.79896986479E+03  0.10419827996E+04  0.65509648029E+03 0.  0.
         13    1    3    3    0    0  0.18898933558E+03  0.18167092113E+03 -0.18620383904E+03  0.32154807140E+03  0.00000000000E+00 0.  1.
          1    1    3    3  501    0 -0.32298838359E+03 -0.19804671002E+03 -0.61276602575E+03  0.72043472821E+03  0.00000000000E+00 0.  1.
         21    1    1    2  502  501  0.13399904802E+03  0.16375788889E+02 -0.22232826487E+02  0.13681450912E+03  0.00000000000E+00 0. -1.
<mgrwt>
<rscale>  1 0.30000000E+03</rscale>
<asrwt>0</asrwt>
<pdfrwt beam="1">  1        1 0.65017340E+00 0.30000000E+03</pdfrwt>
<pdfrwt beam="2">0</pdfrwt>
<totfact> 0.36032581E-02</totfact>
</mgrwt>
</event>
<event>
 6    1  0.5260809E-006  0.3000000E+03  0.7818608E-02  0.1093470E+00
          1   -1    0    0  502    0  0.00000000000E+00  0.00000000000E+00  0.12720108947E+03  0.12720108947E+03  0.00000000000E+00 0.  1.
         13   -1    0    0    0    0 -0.00000000000E+00 -0.00000000000E+00 -0.10000000000E+04  0.10000000000E+04  0.00000000000E+00 0.  1.
    9000005    2    1    2  501    0 -0.26053600331E+02 -0.73189601653E+01 -0.87932332960E+03  0.10993636091E+04  0.65928633370E+03 0.  0.
         13    1    3    3    0    0 -0.34280274218E+03 -0.10567526005E+02 -0.44708140425E+03  0.56347774994E+03  0.00000000000E+00 0.  1.
          3    1    3    3  501    0  0.31674914185E+03  0.32485658399E+01 -0.43224192535E+03  0.53588585918E+03  0.00000000000E+00 0.  1.
         21    1    1    2  502  501  0.26053600331E+02  0.73189601653E+01  0.65244190687E+01  0.27837480351E+02  0.00000000000E+00 0.  1.
<mgrwt>
<rscale>  1 0.30000000E+03</rscale>
<asrwt>0</asrwt>
<pdfrwt beam="1">  1        1 0.46255039E+00 0.30000000E+03</pdfrwt>
<pdfrwt beam="2">0</pdfrwt>
<totfact> 0.42345320E-01</totfact>
</mgrwt>
</event>
<event>
 6    1  0.5260809E-006  0.3000000E+03  0.7818608E-02  0.1093470E+00
          1   -1    0    0  502    0  0.00000000000E+00  0.00000000000E+00  0.13007612409E+03  0.13007612409E+03  0.00000000000E+00 0.  1.
         13   -1    0    0    0    0 -0.00000000000E+00 -0.00000000000E+00 -0.10000000000E+04  0.10000000000E+04  0.00000000000E+00 0.  1.
    9000005    2    1    2  501    0  0.11962096948E+02 -0.13174383426E+02 -0.89208774704E+03  0.11016526597E+04  0.64614346563E+03 0.  0.
         13    1    3    3    0    0  0.13229426600E+03 -0.21604534987E+03 -0.81505682471E+03  0.85351918170E+03  0.00000000000E+00 0.  1.
          1    1    3    3  501    0 -0.12033216905E+03  0.20287096644E+03 -0.77030922322E+02  0.24813347805E+03  0.00000000000E+00 0.  1.
         21    1    1    2  502  501 -0.11962096948E+02  0.13174383426E+02  0.22163871121E+02  0.28423464341E+02  0.00000000000E+00 0.  1.
<mgrwt>
<rscale>  1 0.30000000E+03</rscale>
<asrwt>0</asrwt>
<pdfrwt beam="1">  1        1 0.47300509E+00 0.30000000E+03</pdfrwt>
<pdfrwt beam="2">0</pdfrwt>
<totfact> 0.35818728E-01</totfact>
</mgrwt>
</event>
<event>
 6    1  0.5260809E-006  0.3000000E+03  0.7818608E-02  0.1093470E+00
          1   -1    0    0  502    0  0.00000000000E+00  0.00000000000E+00  0.81671113322E+02  0.81671113322E+02  0.00000000000E+00 0.  1.
         13   -1    0    0    0    0 -0.00000000000E+00 -0.00000000000E+00 -0.10000000000E+04  0.10000000000E+04  0.00000000000E+00 0.  1.
    9000005    2    1    2  501    0 -0.62390974061E+01  0.14959041992E+02 -0.91526534313E+03  0.10651761270E+04  0.54463458758E+03 0.  0.
         13    1    3    3    0    0  0.90299217461E+02 -0.16199743326E+03 -0.73311896312E+02  0.19942856164E+03  0.00000000000E+00 0.  1.
          1    1    3    3  501    0 -0.96538314867E+02  0.17695647525E+03 -0.84195344681E+03  0.86574756539E+03  0.00000000000E+00 0.  1.
         21    1    1    2  502  501  0.62390974061E+01 -0.14959041992E+02 -0.30635435527E+01  0.16494986295E+02  0.00000000000E+00 0. -1.
<mgrwt>
<rscale>  1 0.30000000E+03</rscale>
<asrwt>0</asrwt>
<pdfrwt beam="1">  1        1 0.29698649E+00 0.30000000E+03</pdfrwt>
<pdfrwt beam="2">0</pdfrwt>
<totfact> 0.35905600E+00</totfact>
</mgrwt>
</event>
<event>
 6    1  0.5260809E-006  0.3000000E+03  0.7818608E-02  0.1093470E+00
          1   -1    0    0  502    0  0.00000000000E+00  0.00000000000E+00  0.11372083929E+03  0.11372083929E+03  0.00000000000E+00 0.  1.
         13   -1    0    0    0    0 -0.00000000000E+00 -0.00000000000E+00 -0.10000000000E+04  0.10000000000E+04  0.00000000000E+00 0.  1.
    9000005    2    1    2  501    0 -0.12509310617E+01 -0.99561552372E+01 -0.89248897825E+03  0.11019203440E+04  0.64621295122E+03 0.  0.
         13    1    3    3    0    0 -0.75782476791E+02  0.32161494189E+02 -0.97768378199E+03  0.98114368115E+03  0.00000000000E+00 0.  1.
          1    1    3    3  501    0  0.74531545729E+02 -0.42117649426E+02  0.85194803734E+02  0.12077666283E+03  0.00000000000E+00 0.  1.
         21    1    1    2  502  501  0.12509310617E+01  0.99561552372E+01  0.62098175399E+01  0.11800495308E+02  0.00000000000E+00 0. -1.
<mgrwt>
<rscale>  1 0.30000000E+03</rscale>
<asrwt>0</asrwt>
<pdfrwt beam="1">  1        1 0.41353120E+00 0.30000000E+03</pdfrwt>
<pdfrwt beam="2">0</pdfrwt>
<totfact> 0.87784110E-01</totfact>
</mgrwt>
</event>
<event>
 6    1  0.5260809E-006  0.3000000E+03  0.7818608E-02  0.1093470E+00
          1   -1    0    0  502    0  0.00000000000E+00  0.00000000000E+00  0.11994107262E+03  0.11994107262E+03  0.00000000000E+00 0.  1.
         13   -1    0    0    0    0 -0.00000000000E+00 -0.00000000000E+00 -0.10000000000E+04  0.10000000000E+04  0.00000000000E+00 0.  1.
    9000005    2    1    2  501    0 -0.15825575407E+02 -0.11117762104E+02 -0.87944390474E+03  0.11005908343E+04  0.66144126681E+03 0.  0.
         13    1    3    3    0    0  0.20592482016E+03  0.84211670761E+02 -0.82322406812E+03  0.85275700137E+03  0.00000000000E+00 0.  1.
          1    1    3    3  501    0 -0.22175039557E+03 -0.95329432865E+02 -0.56219836625E+02  0.24783383291E+03  0.00000000000E+00 0.  1.
         21    1    1    2  502  501  0.15825575407E+02  0.11117762104E+02 -0.61502263645E+00  0.19350238345E+02  0.00000000000E+00 0.  1.
<mgrwt>
<rscale>  1 0.30000000E+03</rscale>
<asrwt>0</asrwt>
<pdfrwt beam="1">  1        1 0.43615027E+00 0.30000000E+03</pdfrwt>
<pdfrwt beam="2">0</pdfrwt>
<totfact> 0.63478781E-01</totfact>
</mgrwt>
</event>
<event>
 6    1  0.5260809E-006  0.3000000E+03  0.7818608E-02  0.1093470E+00
          1   -1    0    0  502    0  0.00000000000E+00  0.00000000000E+00  0.11738274149E+03  0.11738274149E+03  0.00000000000E+00 0.  1.
         13   -1    0    0    0    0 -0.00000000000E+00 -0.00000000000E+00 -0.10000000000E+04  0.10000000000E+04  0.00000000000E+00 0.  1.
    9000005    2    1    2  501    0  0.83981885880E+01  0.14338215010E+02 -0.87887001491E+03  0.11003487808E+04  0.66187523174E+03 0.  0.
         13    1    3    3    0    0 -0.21588591908E+03  0.16962616184E+03 -0.13085510252E+03  0.30414276696E+03  0.00000000000E+00 0.  1.
          3    1    3    3  501    0  0.22428410767E+03 -0.15528794683E+03 -0.74801491238E+03  0.79620601387E+03  0.00000000000E+00 0.  1.
         21    1    1    2  502  501 -0.83981885880E+01 -0.14338215010E+02 -0.37472436029E+01  0.17033960662E+02  0.00000000000E+00 0.  1.
<mgrwt>
<rscale>  1 0.30000000E+03</rscale>
<asrwt>0</asrwt>
<pdfrwt beam="1">  1        1 0.42684723E+00 0.30000000E+03</pdfrwt>
<pdfrwt beam="2">0</pdfrwt>
<totfact> 0.72711937E-01</totfact>
</mgrwt>
</event>
<event>
 6    1  0.5260809E-006  0.3000000E+03  0.7818608E-02  0.1093470E+00
          1   -1    0    0  502    0  0.00000000000E+00  0.00000000000E+00  0.10018628724E+03  0.10018628724E+03  0.00000000000E+00 0.  1.
         13   -1    0    0    0    0 -0.00000000000E+00 -0.00000000000E+00 -0.10000000000E+04  0.10000000000E+04  0.00000000000E+00 0.  1.
    9000005    2    1    2  501    0 -0.13946506697E+02 -0.70652106577E+01 -0.91568778793E+03  0.10779060603E+04  0.56846541458E+03 0.  0.
         13    1    3    3    0    0 -0.20028059779E+03 -0.45498574166E+02 -0.79314886646E+02  0.22016650369E+03  0.00000000000E+00 0.  1.
          1    1    3    3  501    0  0.18633409110E+03  0.38433363508E+02 -0.83637290129E+03  0.85773955659E+03  0.00000000000E+00 0.  1.
         21    1    1    2  502  501  0.13946506697E+02  0.70652106577E+01  0.15874075178E+02  0.22280226961E+02  0.00000000000E+00 0.  1.
<mgrwt>
<rscale>  1 0.30000000E+03</rscale>
<asrwt>0</asrwt>
<pdfrwt beam="1">  1        1 0.36431454E+00 0.30000000E+03</pdfrwt>
<pdfrwt beam="2">0</pdfrwt>
<totfact> 0.16560426E+00</totfact>
</mgrwt>
</event>
<event>
 6    1  0.5260809E-006  0.3000000E+03  0.7818608E-02  0.1093470E+00
          1   -1    0    0  502    0  0.00000000000E+00  0.00000000000E+00  0.11458846662E+03  0.11458846662E+03  0.00000000000E+00 0.  1.
         13   -1    0    0    0    0 -0.00000000000E+00 -0.00000000000E+00 -0.10000000000E+04  0.10000000000E+04  0.00000000000E+00 0.  1.
    9000005    2    1    2  501    0  0.16034303509E+02  0.67225720288E+01 -0.88297504933E+03  0.10970320342E+04  0.65079340387E+03 0.  0.
         13    1    3    3    0    0  0.29992350734E+03 -0.14031465248E+03 -0.43580105377E+03  0.54732519623E+03  0.00000000000E+00 0.  1.
          1    1    3    3  501    0 -0.28388920383E+03  0.14703722451E+03 -0.44717399555E+03  0.54970683800E+03  0.00000000000E+00 0.  1.
         21    1    1    2  502  501 -0.16034303509E+02 -0.67225720288E+01 -0.24364840576E+01  0.17556432390E+02  0.00000000000E+00 0.  1.
<mgrwt>
<rscale>  1 0.30000000E+03</rscale>
<asrwt>0</asrwt>
<pdfrwt beam="1">  1        1 0.41668621E+00 0.30000000E+03</pdfrwt>
<pdfrwt beam="2">0</pdfrwt>
<totfact> 0.84027227E-01</totfact>
</mgrwt>
</event>
<event>
 6    1  0.5260809E-006  0.3000000E+03  0.7818608E-02  0.1093470E+00
          1   -1    0    0  502    0  0.00000000000E+00  0.00000000000E+00  0.20517904966E+03  0.20517904966E+03  0.00000000000E+00 0.  1.
         13   -1    0    0    0    0 -0.00000000000E+00 -0.00000000000E+00 -0.10000000000E+04  0.10000000000E+04  0.00000000000E+00 0.  1.
    9000005    2    1    2  501    0 -0.34221263484E+02  0.22326844496E+02 -0.87789501373E+03  0.11125999869E+04  0.68228256082E+03 0.  0.
         13    1    3    3    0    0  0.10797780239E+03  0.32828634319E+03 -0.42236413000E+03  0.54573124086E+03  0.00000000000E+00 0.  1.
          3    1    3    3  501    0 -0.14219906587E+03 -0.30595949870E+03 -0.45553088372E+03  0.56686874601E+03  0.00000000000E+00 0.  1.
         21    1    1    2  502  501  0.34221263484E+02 -0.22326844496E+02  0.83074063388E+02  0.92579062792E+02  0.00000000000E+00 0.  1.
<mgrwt>
<rscale>  1 0.30000000E+03</rscale>
<asrwt>0</asrwt>
<pdfrwt beam="1">  1        1 0.74610721E+00 0.30000000E+03</pdfrwt>
<pdfrwt beam="2">0</pdfrwt>
<totfact> 0.15692079E-02</totfact>
</mgrwt>
</event>
<event>
 6    1  0.5260809E-006  0.3000000E+03  0.7818608E-02  0.1093470E+00
          1   -1    0    0  502    0  0.00000000000E+00  0.00000000000E+00  0.13845875087E+03  0.13845875087E+03  0.00000000000E+00 0.  1.
         13   -1    0    0    0    0 -0.00000000000E+00 -0.00000000000E+00 -0.10000000000E+04  0.10000000000E+04  0.00000000000E+00 0.  1.
    9000005    2    1    2  501    0 -0.95265822599E+01  0.15703291969E+02 -0.89076596246E+03  0.11039416100E+04  0.65183259289E+03 0.  0.
         13    1    3    3    0    0  0.20963527718E+03 -0.23537709432E+03 -0.37506580347E+03  0.48992211922E+03  0.00000000000E+00 0.  1.
          1    1    3    3  501    0 -0.21916185944E+03  0.25108038629E+03 -0.51570015899E+03  0.61401949073E+03  0.00000000000E+00 0.  1.
         21    1    1    2  502  501  0.95265822599E+01 -0.15703291969E+02  0.29224713332E+02  0.34517140924E+02  0.00000000000E+00 0. -1.
<mgrwt>
<rscale>  1 0.30000000E+03</rscale>
<asrwt>0</asrwt>
<pdfrwt beam="1">  1        1 0.50348743E+00 0.30000000E+03</pdfrwt>
<pdfrwt beam="2">0</pdfrwt>
<totfact> 0.21529984E-01</totfact>
</mgrwt>
</event>
<event>
 6    1  0.5260809E-006  0.3000000E+03  0.7818608E-02  0.1093470E+00
          1   -1    0    0  502    0  0.00000000000E+00  0.00000000000E+00  0.12535224693E+03  0.12535224693E+03  0.00000000000E+00 0.  1.
         13   -1    0    0    0    0 -0.00000000000E+00 -0.00000000000E+00 -0.10000000000E+04  0.10000000000E+04  0.00000000000E+00 0.  1.
    9000005    2    1    2  501    0  0.31520618812E+02 -0.45069844557E+02 -0.79831373851E+03  0.10312686560E+04  0.65052699829E+03 0.  0.
         13    1    3    3    0    0 -0.16940154653E+02 -0.21308590047E+03  0.27577215532E+00  0.21375838199E+03  0.00000000000E+00 0.  1.
          3    1    3    3  501    0  0.48460773465E+02  0.16801605591E+03 -0.79858951066E+03  0.81751027403E+03  0.00000000000E+00 0.  1.
         21    1    1    2  502  501 -0.31520618812E+02  0.45069844557E+02 -0.76334014567E+02  0.94083590910E+02  0.00000000000E+00 0. -1.
<mgrwt>
<rscale>  1 0.30000000E+03</rscale>
<asrwt>0</asrwt>
<pdfrwt beam="1">  1        1 0.45582731E+00 0.30000000E+03</pdfrwt>
<pdfrwt beam="2">0</pdfrwt>
<totfact> 0.47018471E-01</totfact>
</mgrwt>
</event>
<event>
 6    1  0.5260809E-006  0.3000000E+03  0.7818608E-02  0.1093470E+00
          1   -1    0    0  502    0  0.00000000000E+00  0.00000000000E+00  0.91014346681E+02  0.91014346681E+02  0.00000000000E+00 0.  1.
         13   -1    0    0    0    0 -0.00000000000E+00 -0.00000000000E+00 -0.10000000000E+04  0.10000000000E+04  0.00000000000E+00 0.  1.
    9000005    2    1    2  501    0 -0.25144805001E+02 -0.17969153578E+01 -0.92170410279E+03  0.10627787472E+04  0.52851179949E+03 0.  0.
         13    1    3    3    0    0  0.20234209508E+03  0.12835067524E+03 -0.61096000426E+03  0.65626850151E+03  0.00000000000E+00 0.  1.
          1    1    3    3  501    0 -0.22748690008E+03 -0.13014759060E+03 -0.31074409853E+03  0.40651024565E+03  0.00000000000E+00 0.  1.
         21    1    1    2  502  501  0.25144805001E+02  0.17969153578E+01  0.12718449468E+02  0.28235599519E+02  0.00000000000E+00 0. -1.
<mgrwt>
<rscale>  1 0.30000000E+03</rscale>
<asrwt>0</asrwt>
<pdfrwt beam="1">  1        1 0.33096196E+00 0.30000000E+03</pdfrwt>
<pdfrwt beam="2">0</pdfrwt>
<totfact> 0.24590470E+00</totfact>
</mgrwt>
</event>
<event>
 6    1  0.5260809E-006  0.3000000E+03  0.7818608E-02  0.1093470E+00
          1   -1    0    0  502    0  0.00000000000E+00  0.00000000000E+00  0.11645085417E+03  0.11645085417E+03  0.00000000000E+00 0.  1.
         13   -1    0    0    0    0 -0.00000000000E+00 -0.00000000000E+00 -0.10000000000E+04  0.10000000000E+04  0.00000000000E+00 0.  1.
    9000005    2    1    2  501    0  0.71264901416E+01 -0.23029197911E+02 -0.88298048243E+03  0.10923374928E+04  0.64262394525E+03 0.  0.
         13    1    3    3    0    0  0.21321486266E+01 -0.32140783542E+03 -0.60211696480E+03  0.68253379552E+03  0.00000000000E+00 0.  1.
          3    1    3    3  501    0  0.49943415151E+01  0.29837863751E+03 -0.28086351763E+03  0.40980369728E+03  0.00000000000E+00 0.  1.
         21    1    1    2  502  501 -0.71264901416E+01  0.23029197911E+02 -0.56866340017E+00  0.24113361364E+02  0.00000000000E+00 0.  1.
<mgrwt>
<rscale>  1 0.30000000E+03</rscale>
<asrwt>0</asrwt>
<pdfrwt beam="1">  1        1 0.42345854E+00 0.30000000E+03</pdfrwt>
<pdfrwt beam="2">0</pdfrwt>
<totfact> 0.76346199E-01</totfact>
</mgrwt>
</event>
<event>
 6    1  0.5260809E-006  0.3000000E+03  0.7818608E-02  0.1093470E+00
          1   -1    0    0  502    0  0.00000000000E+00  0.00000000000E+00  0.11865563171E+03  0.11865563171E+03  0.00000000000E+00 0.  1.
         13   -1    0    0    0    0 -0.00000000000E+00 -0.00000000000E+00 -0.10000000000E+04  0.10000000000E+04  0.00000000000E+00 0.  1.
    9000005    2    1    2  501    0  0.31721712255E+02  0.26931433859E+01 -0.82754711357E+03  0.10561443154E+04  0.65543349760E+03 0.  0.
         13    1    3    3    0    0 -0.28904325895E+03  0.11811337926E+03 -0.34487842505E+03  0.46522887267E+03  0.00000000000E+00 0.  1.
          1    1    3    3  501    0  0.32076497120E+03 -0.11542023587E+03 -0.48266868853E+03  0.59091544275E+03  0.00000000000E+00 0.  1.
         21    1    1    2  502  501 -0.31721712255E+02 -0.26931433859E+01 -0.53797254712E+02  0.62511316290E+02  0.00000000000E+00 0.  1.
<mgrwt>
<rscale>  1 0.30000000E+03</rscale>
<asrwt>0</asrwt>
<pdfrwt beam="1">  1        1 0.43147593E+00 0.30000000E+03</pdfrwt>
<pdfrwt beam="2">0</pdfrwt>
<totfact> 0.67988616E-01</totfact>
</mgrwt>
</event>
<event>
 6    1  0.5260809E-006  0.3000000E+03  0.7818608E-02  0.1093470E+00
          1   -1    0    0  502    0  0.00000000000E+00  0.00000000000E+00  0.11723330429E+03  0.11723330429E+03  0.00000000000E+00 0.  1.
         13   -1    0    0    0    0 -0.00000000000E+00 -0.00000000000E+00 -0.10000000000E+04  0.10000000000E+04  0.00000000000E+00 0.  1.
    9000005    2    1    2  501    0  0.82884550541E+01  0.22079378901E+02 -0.87030755035E+03  0.10905607011E+04  0.65675810847E+03 0.  0.
         13    1    3    3    0    0  0.14498822369E+03  0.21208161754E+02 -0.92994292303E+03  0.94141659813E+03  0.00000000000E+00 0.  1.
          1    1    3    3  501    0 -0.13669976864E+03  0.87121714673E+00  0.59635372684E+02  0.14914410293E+03  0.00000000000E+00 0.  1.
         21    1    1    2  502  501 -0.82884550541E+01 -0.22079378901E+02 -0.12459145361E+02  0.26672603228E+02  0.00000000000E+00 0.  1.
<mgrwt>
<rscale>  1 0.30000000E+03</rscale>
<asrwt>0</asrwt>
<pdfrwt beam="1">  1        1 0.42630382E+00 0.30000000E+03</pdfrwt>
<pdfrwt beam="2">0</pdfrwt>
<totfact> 0.73284709E-01</totfact>
</mgrwt>
</event>
<event>
 6    1  0.5260809E-006  0.3000000E+03  0.7818608E-02  0.1093470E+00
          1   -1    0    0  502    0  0.00000000000E+00  0.00000000000E+00  0.76716965304E+02  0.76716965304E+02  0.00000000000E+00 0.  1.
         13   -1    0    0    0    0 -0.00000000000E+00 -0.00000000000E+00 -0.10000000000E+04  0.10000000000E+04  0.00000000000E+00 0.  1.
    9000005    2    1    2  501    0 -0.51379705159E+01 -0.18453852236E+02 -0.91355084150E+03  0.10552307142E+04  0.52779709806E+03 0.  0.
         13    1    3    3    0    0 -0.25693655547E+03  0.53567055516E+02 -0.52033458119E+03  0.58278117622E+03  0.00000000000E+00 0.  1.
          3    1    3    3  501    0  0.25179858495E+03 -0.72020907752E+02 -0.39321626032E+03  0.47244953796E+03  0.00000000000E+00 0.  1.
         21    1    1    2  502  501  0.51379705159E+01  0.18453852236E+02 -0.97321931944E+01  0.21486251133E+02  0.00000000000E+00 0.  1.
<mgrwt>
<rscale>  1 0.30000000E+03</rscale>
<asrwt>0</asrwt>
<pdfrwt beam="1">  1        1 0.27897137E+00 0.30000000E+03</pdfrwt>
<pdfrwt beam="2">0</pdfrwt>
<totfact> 0.43660526E+00</totfact>
</mgrwt>
</event>
<event>
 6    1  0.5260809E-006  0.3000000E+03  0.7818608E-02  0.1093470E+00
          1   -1    0    0  502    0  0.00000000000E+00  0.00000000000E+00  0.11224343541E+03  0.11224343541E+03  0.00000000000E+00 0.  1.
         13   -1    0    0    0    0 -0.00000000000E+00 -0.00000000000E+00 -0.10000000000E+04  0.10000000000E+04  0.00000000000E+00 0.  1.
    9000005    2    1    2  501    0  0.16727850087E+02  0.47841902473E+01 -0.87759629138E+03  0.10920954679E+04  0.64976499662E+03 0.  0.
         13    1    3    3    0    0  0.58828998119E+01 -0.47142933567E+02  0.10123467798E+03  0.11182810345E+03  0.00000000000E+00 0.  1.
          3    1    3    3  501    0  0.10844950275E+02  0.51927123814E+02 -0.97883096937E+03  0.98026736441E+03  0.00000000000E+00 0.  1.
         21    1    1    2  502  501 -0.16727850087E+02 -0.47841902473E+01 -0.10160273204E+02  0.20147967551E+02  0.00000000000E+00 0.  1.
<mgrwt>
<rscale>  1 0.30000000E+03</rscale>
<asrwt>0</asrwt>
<pdfrwt beam="1">  1        1 0.40815881E+00 0.30000000E+03</pdfrwt>
<pdfrwt beam="2">0</pdfrwt>
<totfact> 0.94466079E-01</totfact>
</mgrwt>
</event>
<event>
 6    1  0.5260809E-006  0.3000000E+03  0.7818608E-02  0.1093470E+00
          1   -1    0    0  502    0  0.00000000000E+00  0.00000000000E+00  0.12475119554E+03  0.12475119554E+03  0.00000000000E+00 0.  1.
         13   -1    0    0    0    0 -0.00000000000E+00 -0.00000000000E+00 -0.10000000000E+04  0.10000000000E+04  0.00000000000E+00 0.  1.
    9000005    2    1    2  501    0  0.98694443754E+01 -0.68592155385E+01 -0.89530401058E+03  0.11013703046E+04  0.64132894966E+03 0.  0.
         13    1    3    3    0    0 -0.14804984614E+03 -0.14635758032E+03 -0.86354115232E+03  0.88828071014E+03  0.00000000000E+00 0.  1.
          3    1    3    3  501    0  0.15791929052E+03  0.13949836478E+03 -0.31762858259E+02  0.21308959444E+03  0.00000000000E+00 0.  1.
         21    1    1    2  502  501 -0.98694443754E+01  0.68592155385E+01  0.20055206120E+02  0.23380890971E+02  0.00000000000E+00 0. -1.
<mgrwt>
<rscale>  1 0.30000000E+03</rscale>
<asrwt>0</asrwt>
<pdfrwt beam="1">  1        1 0.45364167E+00 0.30000000E+03</pdfrwt>
<pdfrwt beam="2">0</pdfrwt>
<totfact> 0.48635914E-01</totfact>
</mgrwt>
</event>
<event>
 6    1  0.5260809E-006  0.3000000E+03  0.7818608E-02  0.1093470E+00
          1   -1    0    0  502    0  0.00000000000E+00  0.00000000000E+00  0.11000796249E+03  0.11000796249E+03  0.00000000000E+00 0.  1.
         13   -1    0    0    0    0 -0.00000000000E+00 -0.00000000000E+00 -0.10000000000E+04  0.10000000000E+04  0.00000000000E+00 0.  1.
    9000005    2    1    2  501    0  0.10629467478E+02  0.72795777859E+01 -0.88957730259E+03  0.10971180503E+04  0.64199241518E+03 0.  0.
         13    1    3    3    0    0  0.17503531565E+03  0.24941710186E+03 -0.65367760302E+03  0.72120777943E+03  0.00000000000E+00 0.  1.
          1    1    3    3  501    0 -0.16440584817E+03 -0.24213752407E+03 -0.23589969957E+03  0.37591027085E+03  0.00000000000E+00 0.  1.
         21    1    1    2  502  501 -0.10629467478E+02 -0.72795777859E+01 -0.41473492334E+00  0.12889912206E+02  0.00000000000E+00 0.  1.
<mgrwt>
<rscale>  1 0.30000000E+03</rscale>
<asrwt>0</asrwt>
<pdfrwt beam="1">  1        1 0.40002980E+00 0.30000000E+03</pdfrwt>
<pdfrwt beam="2">0</pdfrwt>
<totfact> 0.10527595E+00</totfact>
</mgrwt>
</event>
<event>
 6    1  0.5260809E-006  0.3000000E+03  0.7818608E-02  0.1093470E+00
          1   -1    0    0  502    0  0.00000000000E+00  0.00000000000E+00  0.11268422598E+03  0.11268422598E+03  0.00000000000E+00 0.  1.
         13   -1    0    0    0    0 -0.00000000000E+00 -0.00000000000E+00 -0.10000000000E+04  0.10000000000E+04  0.00000000000E+00 0.  1.
    9000005    2    1    2  501    0  0.17609230575E+02 -0.12984042811E+02 -0.86918205523E+03  0.10842676441E+04  0.64782729837E+03 0.  0.
         13    1    3    3    0    0  0.11097248279E+03  0.20482677833E+03 -0.59242534903E+02  0.24037175166E+03  0.00000000000E+00 0.  1.
          3    1    3    3  501    0 -0.93363252211E+02 -0.21781082114E+03 -0.80993952033E+03  0.84389589243E+03  0.00000000000E+00 0.  1.
         21    1    1    2  502  501 -0.17609230575E+02  0.12984042811E+02 -0.18133718791E+02  0.28416581891E+02  0.00000000000E+00 0. -1.
<mgrwt>
<rscale>  1 0.30000000E+03</rscale>
<asrwt>0</asrwt>
<pdfrwt beam="1">  1        1 0.40976169E+00 0.30000000E+03</pdfrwt>
<pdfrwt beam="2">0</pdfrwt>
<totfact> 0.92434373E-01</totfact>
</mgrwt>
</event>
<event>
 6    1  0.5260809E-006  0.3000000E+03  0.7818608E-02  0.1093470E+00
          1   -1    0    0  502    0  0.00000000000E+00  0.00000000000E+00  0.15493246178E+03  0.15493246178E+03  0.00000000000E+00 0.  1.
         13   -1    0    0    0    0 -0.00000000000E+00 -0.00000000000E+00 -0.10000000000E+04  0.10000000000E+04  0.00000000000E+00 0.  1.
    9000005    2    1    2  501    0 -0.30983348790E+02 -0.75165056606E+02 -0.80459050972E+03  0.10641131716E+04  0.69163660975E+03 0.  0.
         13    1    3    3    0    0 -0.36426161172E+02 -0.30042088770E+03 -0.91320237729E+02  0.31609960582E+03  0.00000000000E+00 0.  1.
          3    1    3    3  501    0  0.54428123818E+01  0.22525583109E+03 -0.71327027199E+03  0.74801356575E+03  0.00000000000E+00 0.  1.
         21    1    1    2  502  501  0.30983348790E+02  0.75165056606E+02 -0.40477028506E+02  0.90819290206E+02  0.00000000000E+00 0.  1.
<mgrwt>
<rscale>  1 0.30000000E+03</rscale>
<asrwt>0</asrwt>
<pdfrwt beam="1">  1        1 0.56339196E+00 0.30000000E+03</pdfrwt>
<pdfrwt beam="2">0</pdfrwt>
<totfact> 0.82902724E-02</totfact>
</mgrwt>
</event>
<event>
 6    1  0.5260809E-006  0.3000000E+03  0.7818608E-02  0.1093470E+00
          1   -1    0    0  502    0  0.00000000000E+00  0.00000000000E+00  0.13289695161E+03  0.13289695161E+03  0.00000000000E+00 0.  1.
         13   -1    0    0    0    0 -0.00000000000E+00 -0.00000000000E+00 -0.10000000000E+04  0.10000000000E+04  0.00000000000E+00 0.  1.
    9000005    2    1    2  501    0  0.31749671145E+02  0.95660229892E+01 -0.88033660171E+03  0.10971943278E+04  0.65402087905E+03 0.  0.
         13    1    3    3    0    0  0.23797236281E+03  0.41998670992E+02 -0.57645796628E+02  0.24843061747E+03  0.00000000000E+00 0.  1.
          1    1    3    3  501    0 -0.20622269167E+03 -0.32432648003E+02 -0.82269080508E+03  0.84876371033E+03  0.00000000000E+00 0.  1.
         21    1    1    2  502  501 -0.31749671145E+02 -0.95660229892E+01  0.13233553318E+02  0.35702623812E+02  0.00000000000E+00 0. -1.
<mgrwt>
<rscale>  1 0.30000000E+03</rscale>
<asrwt>0</asrwt>
<pdfrwt beam="1">  1        1 0.48326266E+00 0.30000000E+03</pdfrwt>
<pdfrwt beam="2">0</pdfrwt>
<totfact> 0.30258113E-01</totfact>
</mgrwt>
</event>
<event>
 6    1  0.5260809E-006  0.3000000E+03  0.7818608E-02  0.1093470E+00
          1   -1    0    0  502    0  0.00000000000E+00  0.00000000000E+00  0.11445253069E+03  0.11445253069E+03  0.00000000000E+00 0.  1.
         13   -1    0    0    0    0 -0.00000000000E+00 -0.00000000000E+00 -0.10000000000E+04  0.10000000000E+04  0.00000000000E+00 0.  1.
    9000005    2    1    2  501    0  0.50502630921E+01 -0.21881195206E+02 -0.86588813250E+03  0.10846065697E+04  0.65276708040E+03 0.  0.
         13    1    3    3    0    0  0.14745619898E+03 -0.27758508970E+03 -0.64638949069E+03  0.71876017302E+03  0.00000000000E+00 0.  1.
          1    1    3    3  501    0 -0.14240593589E+03  0.25570389450E+03 -0.21949864181E+03  0.36584639672E+03  0.00000000000E+00 0.  1.
         21    1    1    2  502  501 -0.50502630921E+01  0.21881195206E+02 -0.19659336810E+02  0.29845960945E+02  0.00000000000E+00 0.  1.
<mgrwt>
<rscale>  1 0.30000000E+03</rscale>
<asrwt>0</asrwt>
<pdfrwt beam="1">  1        1 0.41619190E+00 0.30000000E+03</pdfrwt>
<pdfrwt beam="2">0</pdfrwt>
<totfact> 0.84607945E-01</totfact>
</mgrwt>
</event>
<event>
 6    1  0.5260809E-006  0.3000000E+03  0.7818608E-02  0.1093470E+00
          1   -1    0    0  502    0  0.00000000000E+00  0.00000000000E+00  0.12582593335E+03  0.12582593335E+03  0.00000000000E+00 0.  1.
         13   -1    0    0    0    0 -0.00000000000E+00 -0.00000000000E+00 -0.10000000000E+04  0.10000000000E+04  0.00000000000E+00 0.  1.
    9000005    2    1    2  501    0 -0.10393869992E+02  0.95384339093E+01 -0.89159030844E+03  0.11034129966E+04  0.64991380101E+03 0.  0.
         13    1    3    3    0    0 -0.83351130504E+02  0.16092767558E+03 -0.91585863008E+03  0.93361777940E+03  0.00000000000E+00 0.  1.
          3    1    3    3  501    0  0.72957260513E+02 -0.15138924167E+03  0.24268321639E+02  0.16979521722E+03  0.00000000000E+00 0.  1.
         21    1    1    2  502  501  0.10393869992E+02 -0.95384339093E+01  0.17416241795E+02  0.22412936735E+02  0.00000000000E+00 0. -1.
<mgrwt>
<rscale>  1 0.30000000E+03</rscale>
<asrwt>0</asrwt>
<pdfrwt beam="1">  1        1 0.45754981E+00 0.30000000E+03</pdfrwt>
<pdfrwt beam="2">0</pdfrwt>
<totfact> 0.45780137E-01</totfact>
</mgrwt>
</event>
<event>
 6    1  0.5260809E-006  0.3000000E+03  0.7818608E-02  0.1093470E+00
          1   -1    0    0  502    0  0.00000000000E+00  0.00000000000E+00  0.59684605484E+02  0.59684605484E+02  0.00000000000E+00 0.  1.
         13   -1    0    0    0    0 -0.00000000000E+00 -0.00000000000E+00 -0.10000000000E+04  0.10000000000E+04  0.00000000000E+00 0.  1.
    9000005    2    1    2  501    0 -0.53881723531E+01  0.66673836556E+01 -0.93067442506E+03  0.10467836482E+04  0.47909042396E+03 0.  0.
         13    1    3    3    0    0  0.17652071015E+03  0.13472928345E+03 -0.66036000319E+03  0.69669711837E+03  0.00000000000E+00 0.  1.
          3    1    3    3  501    0 -0.18190888251E+03 -0.12806189980E+03 -0.27031442187E+03  0.35008652986E+03  0.00000000000E+00 0.  1.
         21    1    1    2  502  501  0.53881723531E+01 -0.66673836556E+01 -0.96409694545E+01  0.12900957257E+02  0.00000000000E+00 0. -1.
<mgrwt>
<rscale>  1 0.30000000E+03</rscale>
<asrwt>0</asrwt>
<pdfrwt beam="1">  1        1 0.21703539E+00 0.30000000E+03</pdfrwt>
<pdfrwt beam="2">0</pdfrwt>
<totfact> 0.85115171E+00</totfact>
</mgrwt>
</event>
<event>
 6    1  0.5260809E-006  0.3000000E+03  0.7818608E-02  0.1093470E+00
          1   -1    0    0  502    0  0.00000000000E+00  0.00000000000E+00  0.11353728573E+03  0.11353728573E+03  0.00000000000E+00 0.  1.
         13   -1    0    0    0    0 -0.00000000000E+00 -0.00000000000E+00 -0.10000000000E+04  0.10000000000E+04  0.00000000000E+00 0.  1.
    9000005    2    1    2  501    0 -0.10295363888E+02 -0.14034162424E+01 -0.88758315872E+03  0.11030864728E+04  0.65489536475E+03 0.  0.
         13    1    3    3    0    0  0.17109667861E+03 -0.27661305129E+03 -0.45116417205E+03  0.55618159239E+03  0.00000000000E+00 0.  1.
          1    1    3    3  501    0 -0.18139204250E+03  0.27520963504E+03 -0.43641898667E+03  0.54690488042E+03  0.00000000000E+00 0.  1.
         21    1    1    2  502  501  0.10295363888E+02  0.14034162424E+01  0.11204444485E+01  0.10450812911E+02  0.00000000000E+00 0. -1.
<mgrwt>
<rscale>  1 0.30000000E+03</rscale>
<asrwt>0</asrwt>
<pdfrwt beam="1">  1        1 0.41286373E+00 0.30000000E+03</pdfrwt>
<pdfrwt beam="2">0</pdfrwt>
<totfact> 0.88594595E-01</totfact>
</mgrwt>
</event>
<event>
 6    1  0.5260809E-006  0.3000000E+03  0.7818608E-02  0.1093470E+00
          1   -1    0    0  502    0  0.00000000000E+00  0.00000000000E+00  0.13015210692E+03  0.13015210692E+03  0.00000000000E+00 0.  1.
         13   -1    0    0    0    0 -0.00000000000E+00 -0.00000000000E+00 -0.10000000000E+04  0.10000000000E+04  0.00000000000E+00 0.  1.
    9000005    2    1    2  501    0  0.20951482168E+02 -0.44001074026E+02 -0.85841301806E+03  0.10800939858E+04  0.65372398575E+03 0.  0.
         13    1    3    3    0    0  0.21955309574E+03 -0.17181463041E+03 -0.11765939454E+03  0.30260132551E+03  0.00000000000E+00 0.  1.
          1    1    3    3  501    0 -0.19860161357E+03  0.12781355639E+03 -0.74075362351E+03  0.77749266033E+03  0.00000000000E+00 0.  1.
         21    1    1    2  502  501 -0.20951482168E+02  0.44001074026E+02 -0.11434875018E+02  0.50058121091E+02  0.00000000000E+00 0.  1.
<mgrwt>
<rscale>  1 0.30000000E+03</rscale>
<asrwt>0</asrwt>
<pdfrwt beam="1">  1        1 0.47328139E+00 0.30000000E+03</pdfrwt>
<pdfrwt beam="2">0</pdfrwt>
<totfact> 0.35658142E-01</totfact>
</mgrwt>
</event>
<event>
 6    1  0.5260809E-006  0.3000000E+03  0.7818608E-02  0.1093470E+00
          1   -1    0    0  502    0  0.00000000000E+00  0.00000000000E+00  0.12636679232E+03  0.12636679232E+03  0.00000000000E+00 0.  1.
         13   -1    0    0    0    0 -0.00000000000E+00 -0.00000000000E+00 -0.10000000000E+04  0.10000000000E+04  0.00000000000E+00 0.  1.
    9000005    2    1    2  501    0 -0.30358832159E+00 -0.17372589672E+02 -0.89068591909E+03  0.11020214847E+04  0.64871260754E+03 0.  0.
         13    1    3    3    0    0  0.26030896604E+03  0.17052092156E+03 -0.56194185646E+03  0.64235254537E+03  0.00000000000E+00 0.  1.
          3    1    3    3  501    0 -0.26061255436E+03 -0.18789351124E+03 -0.32874406263E+03  0.45966893931E+03  0.00000000000E+00 0.  1.
         21    1    1    2  502  501  0.30358832159E+00  0.17372589672E+02  0.17052711408E+02  0.24345307641E+02  0.00000000000E+00 0.  1.
<mgrwt>
<rscale>  1 0.30000000E+03</rscale>
<asrwt>0</asrwt>
<pdfrwt beam="1">  1        1 0.45951658E+00 0.30000000E+03</pdfrwt>
<pdfrwt beam="2">0</pdfrwt>
<totfact> 0.44402300E-01</totfact>
</mgrwt>
</event>
<event>
 6    1  0.5260809E-006  0.3000000E+03  0.7818608E-02  0.1093470E+00
          1   -1    0    0  502    0  0.00000000000E+00  0.00000000000E+00  0.19947137755E+03  0.19947137755E+03  0.00000000000E+00 0.  1.
         13   -1    0    0    0    0 -0.00000000000E+00 -0.00000000000E+00 -0.10000000000E+04  0.10000000000E+04  0.00000000000E+00 0.  1.
    9000005    2    1    2  501    0 -0.10436483173E+03  0.52789668135E+02 -0.84325782450E+03  0.10749541022E+04  0.65632598304E+03 0.  0.
         13    1    3    3    0    0 -0.29818786451E+03  0.57036022669E+02 -0.82634356430E+03  0.88034811108E+03  0.00000000000E+00 0.  1.
          1    1    3    3  501    0  0.19382303279E+03 -0.42463545338E+01 -0.16914260191E+02  0.19460599108E+03  0.00000000000E+00 0.  1.
         21    1    1    2  502  501  0.10436483173E+03 -0.52789668135E+02  0.42729202045E+02  0.12451727539E+03  0.00000000000E+00 0.  1.
<mgrwt>
<rscale>  1 0.30000000E+03</rscale>
<asrwt>0</asrwt>
<pdfrwt beam="1">  1        1 0.72535199E+00 0.30000000E+03</pdfrwt>
<pdfrwt beam="2">0</pdfrwt>
<totfact> 0.19120967E-02</totfact>
</mgrwt>
</event>
<event>
 6    1  0.5260809E-006  0.3000000E+03  0.7818608E-02  0.1093470E+00
          1   -1    0    0  502    0  0.00000000000E+00  0.00000000000E+00  0.13993885485E+03  0.13993885485E+03  0.00000000000E+00 0.  1.
         13   -1    0    0    0    0 -0.00000000000E+00 -0.00000000000E+00 -0.10000000000E+04  0.10000000000E+04  0.00000000000E+00 0.  1.
    9000005    2    1    2  501    0 -0.97440142171E+01 -0.60890618370E+01 -0.88916811351E+03  0.11086460746E+04  0.66207564690E+03 0.  0.
         13    1    3    3    0    0 -0.17340228617E+03  0.15997573808E+03 -0.83714888759E+03  0.86975792587E+03  0.00000000000E+00 0.  1.
          3    1    3    3  501    0  0.16365827196E+03 -0.16606479992E+03 -0.52019225922E+02  0.23888814876E+03  0.00000000000E+00 0.  1.
         21    1    1    2  502  501  0.97440142171E+01  0.60890618370E+01  0.29106968356E+02  0.31292780221E+02  0.00000000000E+00 0.  1.
<mgrwt>
<rscale>  1 0.30000000E+03</rscale>
<asrwt>0</asrwt>
<pdfrwt beam="1">  1        1 0.50886964E+00 0.30000000E+03</pdfrwt>
<pdfrwt beam="2">0</pdfrwt>
<totfact> 0.19663782E-01</totfact>
</mgrwt>
</event>
<event>
 6    1  0.5260809E-006  0.3000000E+03  0.7818608E-02  0.1093470E+00
          1   -1    0    0  502    0  0.00000000000E+00  0.00000000000E+00  0.11166481685E+03  0.11166481685E+03  0.00000000000E+00 0.  1.
         13   -1    0    0    0    0 -0.00000000000E+00 -0.00000000000E+00 -0.10000000000E+04  0.10000000000E+04  0.00000000000E+00 0.  1.
    9000005    2    1    2  501    0 -0.80908078260E+01  0.15537937581E+02 -0.87336198483E+03  0.10886195279E+04  0.64963407489E+03 0.  0.
         13    1    3    3    0    0  0.29362446615E+03  0.12340542142E+03 -0.33592036231E+03  0.46291113075E+03  0.00000000000E+00 0.  1.
          3    1    3    3  501    0 -0.30171527398E+03 -0.10786748384E+03 -0.53744162252E+03  0.62570839713E+03  0.00000000000E+00 0.  1.
         21    1    1    2  502  501  0.80908078260E+01 -0.15537937581E+02 -0.14973198323E+02  0.23045288967E+02  0.00000000000E+00 0.  1.
<mgrwt>
<rscale>  1 0.30000000E+03</rscale>
<asrwt>0</asrwt>
<pdfrwt beam="1">  1        1 0.40605474E+00 0.30000000E+03</pdfrwt>
<pdfrwt beam="2">0</pdfrwt>
<totfact> 0.97182986E-01</totfact>
</mgrwt>
</event>
<event>
 6    1  0.5260809E-006  0.3000000E+03  0.7818608E-02  0.1093470E+00
          1   -1    0    0  502    0  0.00000000000E+00  0.00000000000E+00  0.12097070574E+03  0.12097070574E+03  0.00000000000E+00 0.  1.
         13   -1    0    0    0    0 -0.00000000000E+00 -0.00000000000E+00 -0.10000000000E+04  0.10000000000E+04  0.00000000000E+00 0.  1.
    9000005    2    1    2  501    0 -0.10761885277E+02  0.24244932861E+02 -0.85603710184E+03  0.10858669188E+04  0.66753562506E+03 0.  0.
         13    1    3    3    0    0 -0.23182084307E+03  0.25579199133E+03 -0.49297809733E+03  0.60182875518E+03  0.00000000000E+00 0.  1.
          3    1    3    3  501    0  0.22105895780E+03 -0.23154705847E+03 -0.36305900451E+03  0.48403816365E+03  0.00000000000E+00 0.  1.
         21    1    1    2  502  501  0.10761885277E+02 -0.24244932861E+02 -0.22992192417E+02  0.35103786923E+02  0.00000000000E+00 0. -1.
<mgrwt>
<rscale>  1 0.30000000E+03</rscale>
<asrwt>0</asrwt>
<pdfrwt beam="1">  1        1 0.43989440E+00 0.30000000E+03</pdfrwt>
<pdfrwt beam="2">0</pdfrwt>
<totfact> 0.60039228E-01</totfact>
</mgrwt>
</event>
<event>
 6    1  0.5260809E-006  0.3000000E+03  0.7818608E-02  0.1093470E+00
          1   -1    0    0  502    0  0.00000000000E+00  0.00000000000E+00  0.12896258529E+03  0.12896258529E+03  0.00000000000E+00 0.  1.
         13   -1    0    0    0    0 -0.00000000000E+00 -0.00000000000E+00 -0.10000000000E+04  0.10000000000E+04  0.00000000000E+00 0.  1.
    9000005    2    1    2  501    0 -0.44462960112E+02  0.12366983590E+02 -0.83635145597E+03  0.10712303340E+04  0.66777299547E+03 0.  0.
         13    1    3    3    0    0 -0.32795150704E+03  0.12687264080E+03 -0.34565834285E+03  0.49308067083E+03  0.00000000000E+00 0.  1.
          3    1    3    3  501    0  0.28348854693E+03 -0.11450565721E+03 -0.49069311312E+03  0.57814966318E+03  0.00000000000E+00 0.  1.
         21    1    1    2  502  501  0.44462960112E+02 -0.12366983590E+02 -0.34685958734E+02  0.57732251285E+02  0.00000000000E+00 0.  1.
<mgrwt>
<rscale>  1 0.30000000E+03</rscale>
<asrwt>0</asrwt>
<pdfrwt beam="1">  1        1 0.46895584E+00 0.30000000E+03</pdfrwt>
<pdfrwt beam="2">0</pdfrwt>
<totfact> 0.38242596E-01</totfact>
</mgrwt>
</event>
<event>
 6    1  0.5260809E-006  0.3000000E+03  0.7818608E-02  0.1093470E+00
          1   -1    0    0  502    0  0.00000000000E+00  0.00000000000E+00  0.10510909658E+03  0.10510909658E+03  0.00000000000E+00 0.  1.
         13   -1    0    0    0    0 -0.00000000000E+00 -0.00000000000E+00 -0.10000000000E+04  0.10000000000E+04  0.00000000000E+00 0.  1.
    9000005    2    1    2  501    0  0.34920222227E+02  0.41735532318E+01 -0.91157372455E+03  0.10661840791E+04  0.55185595468E+03 0.  0.
         13    1    3    3    0    0  0.29238787515E+03  0.47792526753E+01 -0.42836511276E+03  0.51866191360E+03  0.00000000000E+00 0.  1.
          3    1    3    3  501    0 -0.25746765293E+03 -0.60569944358E+00 -0.48320861179E+03  0.54752216547E+03  0.00000000000E+00 0.  1.
         21    1    1    2  502  501 -0.34920222227E+02 -0.41735532318E+01  0.16682821133E+02  0.38925017507E+02  0.00000000000E+00 0. -1.
<mgrwt>
<rscale>  1 0.30000000E+03</rscale>
<asrwt>0</asrwt>
<pdfrwt beam="1">  1        1 0.38221570E+00 0.30000000E+03</pdfrwt>
<pdfrwt beam="2">0</pdfrwt>
<totfact> 0.13247108E+00</totfact>
</mgrwt>
</event>
<event>
 6    1  0.5260809E-006  0.3000000E+03  0.7818608E-02  0.1093470E+00
          1   -1    0    0  502    0  0.00000000000E+00  0.00000000000E+00  0.12173616671E+03  0.12173616671E+03  0.00000000000E+00 0.  1.
         13   -1    0    0    0    0 -0.00000000000E+00 -0.00000000000E+00 -0.10000000000E+04  0.10000000000E+04  0.00000000000E+00 0.  1.
    9000005    2    1    2  501    0 -0.77204365040E+00 -0.38355727412E+02 -0.86803719705E+03  0.10820329935E+04  0.64485274723E+03 0.  0.
         13    1    3    3    0    0  0.30794481702E+03 -0.42134921446E+02 -0.58854881856E+03  0.66557875099E+03  0.00000000000E+00 0.  1.
          3    1    3    3  501    0 -0.30871686067E+03  0.37791940341E+01 -0.27948837849E+03  0.41645424248E+03  0.00000000000E+00 0.  1.
         21    1    1    2  502  501  0.77204365040E+00  0.38355727412E+02 -0.10226636242E+02  0.39703173243E+02  0.00000000000E+00 0. -1.
<mgrwt>
<rscale>  1 0.30000000E+03</rscale>
<asrwt>0</asrwt>
<pdfrwt beam="1">  1        1 0.44267790E+00 0.30000000E+03</pdfrwt>
<pdfrwt beam="2">0</pdfrwt>
<totfact> 0.57573092E-01</totfact>
</mgrwt>
</event>
<event>
 6    1  0.5260809E-006  0.3000000E+03  0.7818608E-02  0.1093470E+00
          1   -1    0    0  502    0  0.00000000000E+00  0.00000000000E+00  0.12678284075E+03  0.12678284075E+03  0.00000000000E+00 0.  1.
         13   -1    0    0    0    0 -0.00000000000E+00 -0.00000000000E+00 -0.10000000000E+04  0.10000000000E+04  0.00000000000E+00 0.  1.
    9000005    2    1    2  501    0  0.44172780274E+02  0.95897372277E+01 -0.85721042485E+03  0.10788306445E+04  0.65346970051E+03 0.  0.
         13    1    3    3    0    0  0.33416331703E+03 -0.71098407150E+02 -0.35051122329E+03  0.48946728552E+03  0.00000000000E+00 0.  1.
          3    1    3    3  501    0 -0.28999053676E+03  0.80688144378E+02 -0.50669920157E+03  0.58936335899E+03  0.00000000000E+00 0.  1.
         21    1    1    2  502  501 -0.44172780274E+02 -0.95897372277E+01 -0.16006734399E+02  0.47952196231E+02  0.00000000000E+00 0.  1.
<mgrwt>
<rscale>  1 0.30000000E+03</rscale>
<asrwt>0</asrwt>
<pdfrwt beam="1">  1        1 0.46102948E+00 0.30000000E+03</pdfrwt>
<pdfrwt beam="2">0</pdfrwt>
<totfact> 0.43366693E-01</totfact>
</mgrwt>
</event>
<event>
 6    1  0.5260809E-006  0.3000000E+03  0.7818608E-02  0.1093470E+00
          1   -1    0    0  502    0  0.00000000000E+00  0.00000000000E+00  0.13072259095E+03  0.13072259095E+03  0.00000000000E+00 0.  1.
         13   -1    0    0    0    0 -0.00000000000E+00 -0.00000000000E+00 -0.10000000000E+04  0.10000000000E+04  0.00000000000E+00 0.  1.
    9000005    2    1    2  501    0  0.13893110749E+02  0.12397236560E+01 -0.89349382448E+03  0.11027763887E+04  0.64621203467E+03 0.  0.
         13    1    3    3    0    0  0.23586164105E+03  0.22677953532E+03 -0.40365572654E+03  0.51961294915E+03  0.00000000000E+00 0.  1.
          3    1    3    3  501    0 -0.22196853030E+03 -0.22553981166E+03 -0.48983809794E+03  0.58316343960E+03  0.00000000000E+00 0.  1.
         21    1    1    2  502  501 -0.13893110749E+02 -0.12397236560E+01  0.24216415433E+02  0.27946202201E+02  0.00000000000E+00 0. -1.
<mgrwt>
<rscale>  1 0.30000000E+03</rscale>
<asrwt>0</asrwt>
<pdfrwt beam="1">  1        1 0.47535588E+00 0.30000000E+03</pdfrwt>
<pdfrwt beam="2">0</pdfrwt>
<totfact> 0.34472016E-01</totfact>
</mgrwt>
</event>
<event>
 6    1  0.5260809E-006  0.3000000E+03  0.7818608E-02  0.1093470E+00
          1   -1    0    0  502    0  0.00000000000E+00  0.00000000000E+00  0.11685526184E+03  0.11685526184E+03  0.00000000000E+00 0.  1.
         13   -1    0    0    0    0 -0.00000000000E+00 -0.00000000000E+00 -0.10000000000E+04  0.10000000000E+04  0.00000000000E+00 0.  1.
    9000005    2    1    2  501    0 -0.56163061269E+00 -0.14496631631E+02 -0.89323721722E+03  0.10991825175E+04  0.64040535045E+03 0.  0.
         13    1    3    3    0    0  0.24156487289E+03 -0.52633394913E+02 -0.96169412031E+02  0.26527800114E+03  0.00000000000E+00 0.  1.
          1    1    3    3  501    0 -0.24212650351E+03  0.38136763282E+02 -0.79706780519E+03  0.83390451640E+03  0.00000000000E+00 0.  1.
         21    1    1    2  502  501  0.56163061269E+00  0.14496631631E+02  0.10092479057E+02  0.17672744300E+02  0.00000000000E+00 0. -1.
<mgrwt>
<rscale>  1 0.30000000E+03</rscale>
<asrwt>0</asrwt>
<pdfrwt beam="1">  1        1 0.42492912E+00 0.30000000E+03</pdfrwt>
<pdfrwt beam="2">0</pdfrwt>
<totfact> 0.74750931E-01</totfact>
</mgrwt>
</event>
<event>
 6    1  0.5260809E-006  0.3000000E+03  0.7818608E-02  0.1093470E+00
          1   -1    0    0  502    0  0.00000000000E+00  0.00000000000E+00  0.11391184685E+03  0.11391184685E+03  0.00000000000E+00 0.  1.
         13   -1    0    0    0    0 -0.00000000000E+00 -0.00000000000E+00 -0.10000000000E+04  0.10000000000E+04  0.00000000000E+00 0.  1.
    9000005    2    1    2  501    0  0.24369737272E+01  0.10996485483E+02 -0.89053204393E+03  0.11018035976E+04  0.64868866565E+03 0.  0.
         13    1    3    3    0    0 -0.20491635395E+03  0.23363051677E+03 -0.62495677522E+03  0.69795766446E+03  0.00000000000E+00 0.  1.
          1    1    3    3  501    0  0.20735332768E+03 -0.22263403129E+03 -0.26557526871E+03  0.40384593317E+03  0.00000000000E+00 0.  1.
         21    1    1    2  502  501 -0.24369737272E+01 -0.10996485483E+02  0.44438907819E+01  0.12108249222E+02  0.00000000000E+00 0.  1.
<mgrwt>
<rscale>  1 0.30000000E+03</rscale>
<asrwt>0</asrwt>
<pdfrwt beam="1">  1        1 0.41422577E+00 0.30000000E+03</pdfrwt>
<pdfrwt beam="2">0</pdfrwt>
<totfact> 0.86946571E-01</totfact>
</mgrwt>
</event>
<event>
 6    1  0.5260809E-006  0.3000000E+03  0.7818608E-02  0.1093470E+00
          1   -1    0    0  502    0  0.00000000000E+00  0.00000000000E+00  0.12488003232E+03  0.12488003232E+03  0.00000000000E+00 0.  1.
         13   -1    0    0    0    0 -0.00000000000E+00 -0.00000000000E+00 -0.10000000000E+04  0.10000000000E+04  0.00000000000E+00 0.  1.
    9000005    2    1    2  501    0 -0.30747677414E+02 -0.74764094140E+01 -0.87768688892E+03  0.10931325057E+04  0.65084797272E+03 0.  0.
         13    1    3    3    0    0 -0.46741798205E+02  0.50581548687E+02  0.95688255732E+02  0.11789627243E+03  0.00000000000E+00 0.  1.
          3    1    3    3  501    0  0.15994120791E+02 -0.58057958101E+02 -0.97337514465E+03  0.97523623324E+03  0.00000000000E+00 0.  1.
         21    1    1    2  502  501  0.30747677414E+02  0.74764094140E+01  0.25669212402E+01  0.31747526655E+02  0.00000000000E+00 0. -1.
<mgrwt>
<rscale>  1 0.30000000E+03</rscale>
<asrwt>0</asrwt>
<pdfrwt beam="1">  1        1 0.45411017E+00 0.30000000E+03</pdfrwt>
<pdfrwt beam="2">0</pdfrwt>
<totfact> 0.48284659E-01</totfact>
</mgrwt>
</event>
<event>
 6    1  0.5260809E-006  0.3000000E+03  0.7818608E-02  0.1093470E+00
          1   -1    0    0  502    0  0.00000000000E+00  0.00000000000E+00  0.11802023527E+03  0.11802023527E+03  0.00000000000E+00 0.  1.
         13   -1    0    0    0    0 -0.00000000000E+00 -0.00000000000E+00 -0.10000000000E+04  0.10000000000E+04  0.00000000000E+00 0.  1.
    9000005    2    1    2  501    0  0.11802469098E+02  0.18738653341E+02 -0.87802230629E+03  0.10955236381E+04  0.65479648437E+03 0.  0.
         13    1    3    3    0    0 -0.14252855667E+03 -0.54556552995E+02 -0.90914099767E+03  0.92186124801E+03  0.00000000000E+00 0.  1.
          3    1    3    3  501    0  0.15433102577E+03  0.73295206336E+02  0.31118691382E+02  0.17366239011E+03  0.00000000000E+00 0.  1.
         21    1    1    2  502  501 -0.11802469098E+02 -0.18738653341E+02 -0.39574584386E+01  0.22496597146E+02  0.00000000000E+00 0. -1.
<mgrwt>
<rscale>  1 0.30000000E+03</rscale>
<asrwt>0</asrwt>
<pdfrwt beam="1">  1        1 0.42916540E+00 0.30000000E+03</pdfrwt>
<pdfrwt beam="2">0</pdfrwt>
<totfact> 0.70312601E-01</totfact>
</mgrwt>
</event>
<event>
 6    1  0.5260809E-006  0.3000000E+03  0.7818608E-02  0.1093470E+00
          1   -1    0    0  502    0  0.00000000000E+00  0.00000000000E+00  0.13865452321E+03  0.13865452321E+03  0.00000000000E+00 0.  1.
         13   -1    0    0    0    0 -0.00000000000E+00 -0.00000000000E+00 -0.10000000000E+04  0.10000000000E+04  0.00000000000E+00 0.  1.
    9000005    2    1    2  501    0  0.48773739879E+02  0.78650991794E-01 -0.86955504606E+03  0.10891946312E+04  0.65409485755E+03 0.  0.
         13    1    3    3    0    0  0.11063449805E+03  0.17707675964E+03 -0.87703681459E+03  0.90154852621E+03  0.00000000000E+00 0.  1.
          3    1    3    3  501    0 -0.61860758167E+02 -0.17699810865E+03  0.74817685310E+01  0.18764610502E+03  0.00000000000E+00 0.  1.
         21    1    1    2  502  501 -0.48773739879E+02 -0.78650991794E-01  0.82095692746E+01  0.49459891987E+02  0.00000000000E+00 0. -1.
<mgrwt>
<rscale>  1 0.30000000E+03</rscale>
<asrwt>0</asrwt>
<pdfrwt beam="1">  1        1 0.50419933E+00 0.30000000E+03</pdfrwt>
<pdfrwt beam="2">0</pdfrwt>
<totfact> 0.21273074E-01</totfact>
</mgrwt>
</event>
<event>
 6    1  0.5260809E-006  0.3000000E+03  0.7818608E-02  0.1093470E+00
          1   -1    0    0  502    0  0.00000000000E+00  0.00000000000E+00  0.18841712493E+03  0.18841712493E+03  0.00000000000E+00 0.  1.
         13   -1    0    0    0    0 -0.00000000000E+00 -0.00000000000E+00 -0.10000000000E+04  0.10000000000E+04  0.00000000000E+00 0.  1.
    9000005    2    1    2  501    0  0.71740757794E+01  0.10287963723E+02 -0.89367305479E+03  0.11053743217E+04  0.65041798303E+03 0.  0.
         13    1    3    3    0    0 -0.83803999406E+01  0.41909899015E+01 -0.99884235899E+03  0.99888630665E+03  0.00000000000E+00 0.  1.
          1    1    3    3  501    0  0.15554475720E+02  0.60969738210E+01  0.10516930420E+03  0.10648801505E+03  0.00000000000E+00 0.  1.
         21    1    1    2  502  501 -0.71740757794E+01 -0.10287963723E+02  0.82090179727E+02  0.83042803231E+02  0.00000000000E+00 0.  1.
<mgrwt>
<rscale>  1 0.30000000E+03</rscale>
<asrwt>0</asrwt>
<pdfrwt beam="1">  1        1 0.68515463E+00 0.30000000E+03</pdfrwt>
<pdfrwt beam="2">0</pdfrwt>
<totfact> 0.28520527E-02</totfact>
</mgrwt>
</event>
<event>
 6    1  0.5260809E-006  0.3000000E+03  0.7818608E-02  0.1093470E+00
          1   -1    0    0  502    0  0.00000000000E+00  0.00000000000E+00  0.13868401677E+03  0.13868401677E+03  0.00000000000E+00 0.  1.
         13   -1    0    0    0    0 -0.00000000000E+00 -0.00000000000E+00 -0.10000000000E+04  0.10000000000E+04  0.00000000000E+00 0.  1.
    9000005    2    1    2  501    0  0.13366357340E+02  0.46455418116E+00 -0.89743820432E+03  0.11001653177E+04  0.63623071323E+03 0.  0.
         13    1    3    3    0    0  0.20778023439E+03  0.22919392975E+03 -0.61291752423E+03  0.68656418109E+03  0.00000000000E+00 0.  1.
          3    1    3    3  501    0 -0.19441387705E+03 -0.22872937557E+03 -0.28452068009E+03  0.41360113665E+03  0.00000000000E+00 0.  1.
         21    1    1    2  502  501 -0.13366357340E+02 -0.46455418116E+00  0.36122221085E+02  0.38518699034E+02  0.00000000000E+00 0.  1.
<mgrwt>
<rscale>  1 0.30000000E+03</rscale>
<asrwt>0</asrwt>
<pdfrwt beam="1">  1        1 0.50430658E+00 0.30000000E+03</pdfrwt>
<pdfrwt beam="2">0</pdfrwt>
<totfact> 0.21234656E-01</totfact>
</mgrwt>
</event>
<event>
 6    1  0.5260809E-006  0.3000000E+03  0.7818608E-02  0.1093470E+00
          1   -1    0    0  502    0  0.00000000000E+00  0.00000000000E+00  0.11101684062E+03  0.11101684062E+03  0.00000000000E+00 0.  1.
         13   -1    0    0    0    0 -0.00000000000E+00 -0.00000000000E+00 -0.10000000000E+04  0.10000000000E+04  0.00000000000E+00 0.  1.
    9000005    2    1    2  501    0 -0.21590845567E+02 -0.14717257477E+01 -0.89267763616E+03  0.10890628035E+04  0.62347100750E+03 0.  0.
         13    1    3    3    0    0 -0.13617835900E+02 -0.15292534254E+02  0.97060019483E+02  0.99196544499E+02  0.00000000000E+00 0.  1.
          1    1    3    3  501    0 -0.79730096663E+01  0.13820808506E+02 -0.98973765564E+03  0.98986625896E+03  0.00000000000E+00 0.  1.
         21    1    1    2  502  501  0.21590845567E+02  0.14717257477E+01  0.36944767722E+01  0.21954037159E+02  0.00000000000E+00 0. -1.
<mgrwt>
<rscale>  1 0.30000000E+03</rscale>
<asrwt>0</asrwt>
<pdfrwt beam="1">  1        1 0.40369845E+00 0.30000000E+03</pdfrwt>
<pdfrwt beam="2">0</pdfrwt>
<totfact> 0.10029354E+00</totfact>
</mgrwt>
</event>
<event>
 6    1  0.5260809E-006  0.3000000E+03  0.7818608E-02  0.1093470E+00
          1   -1    0    0  502    0  0.00000000000E+00  0.00000000000E+00  0.69249280458E+02  0.69249280458E+02  0.00000000000E+00 0.  1.
         13   -1    0    0    0    0 -0.00000000000E+00 -0.00000000000E+00 -0.10000000000E+04  0.10000000000E+04  0.00000000000E+00 0.  1.
    9000005    2    1    2  501    0  0.10012005951E+02 -0.12498698573E+02 -0.92029018115E+03  0.10501212750E+04  0.50553359628E+03 0.  0.
         13    1    3    3    0    0  0.14417793768E+03 -0.19152372148E+03 -0.26329376928E+03  0.35607895550E+03  0.00000000000E+00 0.  1.
          1    1    3    3  501    0 -0.13416593173E+03  0.17902502291E+03 -0.65699641187E+03  0.69404231951E+03  0.00000000000E+00 0.  1.
         21    1    1    2  502  501 -0.10012005951E+02  0.12498698573E+02 -0.10460538395E+02  0.19128005455E+02  0.00000000000E+00 0.  1.
<mgrwt>
<rscale>  1 0.30000000E+03</rscale>
<asrwt>0</asrwt>
<pdfrwt beam="1">  1        1 0.25181610E+00 0.30000000E+03</pdfrwt>
<pdfrwt beam="2">0</pdfrwt>
<totfact> 0.58510468E+00</totfact>
</mgrwt>
</event>
<event>
 6    1  0.5260809E-006  0.3000000E+03  0.7818608E-02  0.1093470E+00
          1   -1    0    0  502    0  0.00000000000E+00  0.00000000000E+00  0.11756949183E+03  0.11756949183E+03  0.00000000000E+00 0.  1.
         13   -1    0    0    0    0 -0.00000000000E+00 -0.00000000000E+00 -0.10000000000E+04  0.10000000000E+04  0.00000000000E+00 0.  1.
    9000005    2    1    2  501    0  0.10371761580E+02 -0.63287567998E+01 -0.88606506653E+03  0.11048873542E+04  0.65993722178E+03 0.  0.
         13    1    3    3    0    0 -0.15720712229E+03 -0.26661006713E+03 -0.63462041510E+03  0.70607228982E+03  0.00000000000E+00 0.  1.
          3    1    3    3  501    0  0.16757888387E+03  0.26028131033E+03 -0.25144465143E+03  0.39881506435E+03  0.00000000000E+00 0.  1.
         21    1    1    2  502  501 -0.10371761580E+02  0.63287567998E+01  0.36345583628E+01  0.12682137651E+02  0.00000000000E+00 0.  1.
<mgrwt>
<rscale>  1 0.30000000E+03</rscale>
<asrwt>0</asrwt>
<pdfrwt beam="1">  1        1 0.42752633E+00 0.30000000E+03</pdfrwt>
<pdfrwt beam="2">0</pdfrwt>
<totfact> 0.72001657E-01</totfact>
</mgrwt>
</event>
<event>
 6    1  0.5260809E-006  0.3000000E+03  0.7818608E-02  0.1093470E+00
          1   -1    0    0  502    0  0.00000000000E+00  0.00000000000E+00  0.12656273771E+03  0.12656273771E+03  0.00000000000E+00 0.  1.
         13   -1    0    0    0    0 -0.00000000000E+00 -0.00000000000E+00 -0.10000000000E+04  0.10000000000E+04  0.00000000000E+00 0.  1.
    9000005    2    1    2  501    0  0.22016334672E+02  0.17179993852E+02 -0.84517993691E+03  0.10868343144E+04  0.68271504307E+03 0.  0.
         13    1    3    3    0    0  0.34278180881E+03 -0.62242869977E+02 -0.49548596319E+03  0.60570610286E+03  0.00000000000E+00 0.  1.
          1    1    3    3  501    0 -0.32076547414E+03  0.79422863829E+02 -0.34969397371E+03  0.48112821155E+03  0.00000000000E+00 0.  1.
         21    1    1    2  502  501 -0.22016334672E+02 -0.17179993852E+02 -0.28257325380E+02  0.39728423311E+02  0.00000000000E+00 0. -1.
<mgrwt>
<rscale>  1 0.30000000E+03</rscale>
<asrwt>0</asrwt>
<pdfrwt beam="1">  1        1 0.46022911E+00 0.30000000E+03</pdfrwt>
<pdfrwt beam="2">0</pdfrwt>
<totfact> 0.43912037E-01</totfact>
</mgrwt>
</event>
<event>
 6    1  0.5260809E-006  0.3000000E+03  0.7818608E-02  0.1093470E+00
          1   -1    0    0  502    0  0.00000000000E+00  0.00000000000E+00  0.11179067088E+03  0.11179067088E+03  0.00000000000E+00 0.  1.
         13   -1    0    0    0    0 -0.00000000000E+00 -0.00000000000E+00 -0.10000000000E+04  0.10000000000E+04  0.00000000000E+00 0.  1.
    9000005    2    1    2  501    0 -0.10176767710E+02  0.16372960057E+01 -0.89131480855E+03  0.11010253868E+04  0.64630377304E+03 0.  0.
         13    1    3    3    0    0 -0.15774191170E+03 -0.62794226925E+02  0.24165851583E+02  0.17149231477E+03  0.00000000000E+00 0.  1.
          1    1    3    3  501    0  0.14756514399E+03  0.64431522930E+02 -0.91548066014E+03  0.92953307201E+03  0.00000000000E+00 0.  1.
         21    1    1    2  502  501  0.10176767710E+02 -0.16372960057E+01  0.31054794297E+01  0.10765284099E+02  0.00000000000E+00 0.  1.
<mgrwt>
<rscale>  1 0.30000000E+03</rscale>
<asrwt>0</asrwt>
<pdfrwt beam="1">  1        1 0.40651239E+00 0.30000000E+03</pdfrwt>
<pdfrwt beam="2">0</pdfrwt>
<totfact> 0.96587185E-01</totfact>
</mgrwt>
</event>
<event>
 6    1  0.5260809E-006  0.3000000E+03  0.7818608E-02  0.1093470E+00
          1   -1    0    0  502    0  0.00000000000E+00  0.00000000000E+00  0.13870459500E+03  0.13870459500E+03  0.00000000000E+00 0.  1.
         13   -1    0    0    0    0 -0.00000000000E+00 -0.00000000000E+00 -0.10000000000E+04  0.10000000000E+04  0.00000000000E+00 0.  1.
    9000005    2    1    2  501    0  0.15012460237E+02 -0.67293798503E+02 -0.83677044558E+03  0.10655246598E+04  0.65605197415E+03 0.  0.
         13    1    3    3    0    0 -0.30082102607E+03 -0.75317317720E+02 -0.58278961300E+03  0.66015886050E+03  0.00000000000E+00 0.  1.
          3    1    3    3  501    0  0.31583348631E+03  0.80235192171E+01 -0.25398083259E+03  0.40536579932E+03  0.00000000000E+00 0.  1.
         21    1    1    2  502  501 -0.15012460237E+02  0.67293798503E+02 -0.24524959419E+02  0.73179935186E+02  0.00000000000E+00 0.  1.
<mgrwt>
<rscale>  1 0.30000000E+03</rscale>
<asrwt>0</asrwt>
<pdfrwt beam="1">  1        1 0.50438141E+00 0.30000000E+03</pdfrwt>
<pdfrwt beam="2">0</pdfrwt>
<totfact> 0.21207895E-01</totfact>
</mgrwt>
</event>
<event>
 6    1  0.5260809E-006  0.3000000E+03  0.7818608E-02  0.1093470E+00
          1   -1    0    0  502    0  0.00000000000E+00  0.00000000000E+00  0.10709251518E+03  0.10709251518E+03  0.00000000000E+00 0.  1.
         13   -1    0    0    0    0 -0.00000000000E+00 -0.00000000000E+00 -0.10000000000E+04  0.10000000000E+04  0.00000000000E+00 0.  1.
    9000005    2    1    2  501    0  0.37141306955E+01  0.15748544697E+02 -0.88856983986E+03  0.10903406021E+04  0.63168382671E+03 0.  0.
         13    1    3    3    0    0  0.13455533120E+03 -0.27555593794E+03 -0.36114904313E+03  0.47377720866E+03  0.00000000000E+00 0.  1.
          1    1    3    3  501    0 -0.13084120051E+03  0.29130448263E+03 -0.52742079673E+03  0.61656339347E+03  0.00000000000E+00 0.  1.
         21    1    1    2  502  501 -0.37141306955E+01 -0.15748544697E+02 -0.43376449610E+01  0.16751913046E+02  0.00000000000E+00 0.  1.
<mgrwt>
<rscale>  1 0.30000000E+03</rscale>
<asrwt>0</asrwt>
<pdfrwt beam="1">  1        1 0.38942815E+00 0.30000000E+03</pdfrwt>
<pdfrwt beam="2">0</pdfrwt>
<totfact> 0.12080608E+00</totfact>
</mgrwt>
</event>
<event>
 6    1  0.5260809E-006  0.3000000E+03  0.7818608E-02  0.1093470E+00
          1   -1    0    0  502    0  0.00000000000E+00  0.00000000000E+00  0.13629332874E+03  0.13629332874E+03  0.00000000000E+00 0.  1.
         13   -1    0    0    0    0 -0.00000000000E+00 -0.00000000000E+00 -0.10000000000E+04  0.10000000000E+04  0.00000000000E+00 0.  1.
    9000005    2    1    2  501    0  0.15708434773E+02  0.17113208271E+02 -0.88265662463E+03  0.11063147105E+04  0.66656575430E+03 0.  0.
         13    1    3    3    0    0 -0.41586214632E+02  0.33420957442E+03 -0.53599031721E+03  0.63301743501E+03  0.00000000000E+00 0.  1.
          1    1    3    3  501    0  0.57294649405E+02 -0.31709636614E+03 -0.34666630741E+03  0.47329727547E+03  0.00000000000E+00 0.  1.
         21    1    1    2  502  501 -0.15708434773E+02 -0.17113208271E+02  0.18949953370E+02  0.29978618265E+02  0.00000000000E+00 0.  1.
<mgrwt>
<rscale>  1 0.30000000E+03</rscale>
<asrwt>0</asrwt>
<pdfrwt beam="1">  1        1 0.49561315E+00 0.30000000E+03</pdfrwt>
<pdfrwt beam="2">0</pdfrwt>
<totfact> 0.24596635E-01</totfact>
</mgrwt>
</event>
<event>
 6    1  0.5260809E-006  0.3000000E+03  0.7818608E-02  0.1093470E+00
          1   -1    0    0  502    0  0.00000000000E+00  0.00000000000E+00  0.10781044212E+03  0.10781044212E+03  0.00000000000E+00 0.  1.
         13   -1    0    0    0    0 -0.00000000000E+00 -0.00000000000E+00 -0.10000000000E+04  0.10000000000E+04  0.00000000000E+00 0.  1.
    9000005    2    1    2  501    0 -0.85373476138E+01  0.12666250035E+02 -0.88622998441E+03  0.10914142014E+04  0.63682654901E+03 0.  0.
         13    1    3    3    0    0 -0.10422389938E+02 -0.26446386392E+03 -0.72267190443E+03  0.76961317750E+03  0.00000000000E+00 0.  1.
          3    1    3    3  501    0  0.18850423240E+01  0.27713011396E+03 -0.16355807999E+03  0.32180102389E+03  0.00000000000E+00 0.  1.
         21    1    1    2  502  501  0.85373476138E+01 -0.12666250035E+02 -0.59595734707E+01  0.16396240733E+02  0.00000000000E+00 0. -1.
<mgrwt>
<rscale>  1 0.30000000E+03</rscale>
<asrwt>0</asrwt>
<pdfrwt beam="1">  1        1 0.39203880E+00 0.30000000E+03</pdfrwt>
<pdfrwt beam="2">0</pdfrwt>
<totfact> 0.11680618E+00</totfact>
</mgrwt>
</event>
<event>
 6    1  0.5260809E-006  0.3000000E+03  0.7818608E-02  0.1093470E+00
          1   -1    0    0  502    0  0.00000000000E+00  0.00000000000E+00  0.11500361432E+03  0.11500361432E+03  0.00000000000E+00 0.  1.
         13   -1    0    0    0    0 -0.00000000000E+00 -0.00000000000E+00 -0.10000000000E+04  0.10000000000E+04  0.00000000000E+00 0.  1.
    9000005    2    1    2  501    0  0.40875968134E+01 -0.97356437201E+01 -0.87681833044E+03  0.11016480240E+04  0.66686317405E+03 0.  0.
         13    1    3    3    0    0 -0.30006675666E+02 -0.13427946166E+03 -0.94545434484E+03  0.95541367616E+03  0.00000000000E+00 0.  1.
          1    1    3    3  501    0  0.34094272479E+02  0.12454381794E+03  0.68636014409E+02  0.14623434780E+03  0.00000000000E+00 0.  1.
         21    1    1    2  502  501 -0.40875968134E+01  0.97356437201E+01 -0.81780552439E+01  0.13355590362E+02  0.00000000000E+00 0. -1.
<mgrwt>
<rscale>  1 0.30000000E+03</rscale>
<asrwt>0</asrwt>
<pdfrwt beam="1">  1        1 0.41819584E+00 0.30000000E+03</pdfrwt>
<pdfrwt beam="2">0</pdfrwt>
<totfact> 0.82269862E-01</totfact>
</mgrwt>
</event>
<event>
 6    1  0.5260809E-006  0.3000000E+03  0.7818608E-02  0.1093470E+00
          1   -1    0    0  502    0  0.00000000000E+00  0.00000000000E+00  0.12063175676E+03  0.12063175676E+03  0.00000000000E+00 0.  1.
         13   -1    0    0    0    0 -0.00000000000E+00 -0.00000000000E+00 -0.10000000000E+04  0.10000000000E+04  0.00000000000E+00 0.  1.
    9000005    2    1    2  501    0 -0.13008231012E+02  0.18584224322E+01 -0.88264788344E+03  0.11070883507E+04  0.66813521258E+03 0.  0.
         13    1    3    3    0    0  0.29292480083E+02 -0.32956823927E+03 -0.38439904382E+03  0.50718428467E+03  0.00000000000E+00 0.  1.
          3    1    3    3  501    0 -0.42300711095E+02  0.33142666170E+03 -0.49824883962E+03  0.59990406602E+03  0.00000000000E+00 0.  1.
         21    1    1    2  502  501  0.13008231012E+02 -0.18584224322E+01  0.32796402008E+01  0.13543406065E+02  0.00000000000E+00 0.  1.
<mgrwt>
<rscale>  1 0.30000000E+03</rscale>
<asrwt>0</asrwt>
<pdfrwt beam="1">  1        1 0.43866186E+00 0.30000000E+03</pdfrwt>
<pdfrwt beam="2">0</pdfrwt>
<totfact> 0.61155311E-01</totfact>
</mgrwt>
</event>
<event>
 6    1  0.5260809E-006  0.3000000E+03  0.7818608E-02  0.1093470E+00
          1   -1    0    0  502    0  0.00000000000E+00  0.00000000000E+00  0.98426114927E+02  0.98426114927E+02  0.00000000000E+00 0.  1.
         13   -1    0    0    0    0 -0.00000000000E+00 -0.00000000000E+00 -0.10000000000E+04  0.10000000000E+04  0.00000000000E+00 0.  1.
    9000005    2    1    2  501    0 -0.97587079840E+01  0.76036409700E+00 -0.89374282353E+03  0.10858907226E+04  0.61667383304E+03 0.  0.
         13    1    3    3    0    0 -0.92451940434E+02  0.10909381961E+03  0.34984626140E+02  0.14721666629E+03  0.00000000000E+00 0.  1.
          3    1    3    3  501    0  0.82693232450E+02 -0.10833345552E+03 -0.92872744967E+03  0.93867405634E+03  0.00000000000E+00 0.  1.
         21    1    1    2  502  501  0.97587079840E+01 -0.76036409700E+00 -0.78310615429E+01  0.12535392294E+02  0.00000000000E+00 0.  1.
<mgrwt>
<rscale>  1 0.30000000E+03</rscale>
<asrwt>0</asrwt>
<pdfrwt beam="1">  1        1 0.35791390E+00 0.30000000E+03</pdfrwt>
<pdfrwt beam="2">0</pdfrwt>
<totfact> 0.17912572E+00</totfact>
</mgrwt>
</event>
<event>
 6    1  0.5260809E-006  0.3000000E+03  0.7818608E-02  0.1093470E+00
          1   -1    0    0  502    0  0.00000000000E+00  0.00000000000E+00  0.10457640143E+03  0.10457640143E+03  0.00000000000E+00 0.  1.
         13   -1    0    0    0    0 -0.00000000000E+00 -0.00000000000E+00 -0.10000000000E+04  0.10000000000E+04  0.00000000000E+00 0.  1.
    9000005    2    1    2  501    0 -0.93897601393E+01  0.61551965877E+01 -0.88446561981E+03  0.10888878279E+04  0.63503638882E+03 0.  0.
         13    1    3    3    0    0 -0.26878035511E+03 -0.10766018259E+03 -0.68138071786E+03  0.74034672747E+03  0.00000000000E+00 0.  1.
          1    1    3    3  501    0  0.25939059498E+03  0.11381537918E+03 -0.20308490195E+03  0.34854110045E+03  0.00000000000E+00 0.  1.
         21    1    1    2  502  501  0.93897601393E+01 -0.61551965877E+01 -0.10957978755E+02  0.15688573514E+02  0.00000000000E+00 0. -1.
<mgrwt>
<rscale>  1 0.30000000E+03</rscale>
<asrwt>0</asrwt>
<pdfrwt beam="1">  1        1 0.38027863E+00 0.30000000E+03</pdfrwt>
<pdfrwt beam="2">0</pdfrwt>
<totfact> 0.13575928E+00</totfact>
</mgrwt>
</event>
<event>
 6    1  0.5260809E-006  0.3000000E+03  0.7818608E-02  0.1093470E+00
          1   -1    0    0  502    0  0.00000000000E+00  0.00000000000E+00  0.11338621843E+03  0.11338621843E+03  0.00000000000E+00 0.  1.
         13   -1    0    0    0    0 -0.00000000000E+00 -0.00000000000E+00 -0.10000000000E+04  0.10000000000E+04  0.00000000000E+00 0.  1.
    9000005    2    1    2  501    0 -0.14532999674E+01 -0.10225688073E+02 -0.88193610324E+03  0.11020479006E+04  0.66075079127E+03 0.  0.
         13    1    3    3    0    0  0.12425770383E+03  0.21666388290E+03 -0.78724519255E+03  0.82591658677E+03  0.00000000000E+00 0.  1.
          1    1    3    3  501    0 -0.12571100380E+03 -0.22688957097E+03 -0.94690910691E+02  0.27613131380E+03  0.00000000000E+00 0.  1.
         21    1    1    2  502  501  0.14532999674E+01  0.10225688073E+02 -0.46776783307E+01  0.11338317861E+02  0.00000000000E+00 0. -1.
<mgrwt>
<rscale>  1 0.30000000E+03</rscale>
<asrwt>0</asrwt>
<pdfrwt beam="1">  1        1 0.41231439E+00 0.30000000E+03</pdfrwt>
<pdfrwt beam="2">0</pdfrwt>
<totfact> 0.89265793E-01</totfact>
</mgrwt>
</event>
<event>
 6    1  0.5260809E-006  0.3000000E+03  0.7818608E-02  0.1093470E+00
          1   -1    0    0  502    0  0.00000000000E+00  0.00000000000E+00  0.10809946764E+03  0.10809946764E+03  0.00000000000E+00 0.  1.
         13   -1    0    0    0    0 -0.00000000000E+00 -0.00000000000E+00 -0.10000000000E+04  0.10000000000E+04  0.00000000000E+00 0.  1.
    9000005    2    1    2  501    0  0.68486067931E+01  0.23696616113E+01 -0.88185049897E+03  0.10957090729E+04  0.65028113238E+03 0.  0.
         13    1    3    3    0    0 -0.85896683289E+02  0.65000151068E+02 -0.95561941354E+03  0.96167131774E+03  0.00000000000E+00 0.  1.
          3    1    3    3  501    0  0.92745290083E+02 -0.62630489457E+02  0.73768914573E+02  0.13403775513E+03  0.00000000000E+00 0.  1.
         21    1    1    2  502  501 -0.68486067931E+01 -0.23696616113E+01 -0.10050033398E+02  0.12390394766E+02  0.00000000000E+00 0. -1.
<mgrwt>
<rscale>  1 0.30000000E+03</rscale>
<asrwt>0</asrwt>
<pdfrwt beam="1">  1        1 0.39308980E+00 0.30000000E+03</pdfrwt>
<pdfrwt beam="2">0</pdfrwt>
<totfact> 0.11522959E+00</totfact>
</mgrwt>
</event>
<event>
 6    1  0.5260809E-006  0.3000000E+03  0.7818608E-02  0.1093470E+00
          1   -1    0    0  502    0  0.00000000000E+00  0.00000000000E+00  0.11664737915E+03  0.11664737915E+03  0.00000000000E+00 0.  1.
         13   -1    0    0    0    0 -0.00000000000E+00 -0.00000000000E+00 -0.10000000000E+04  0.10000000000E+04  0.00000000000E+00 0.  1.
    9000005    2    1    2  501    0  0.76253714912E+01  0.13637917903E+02 -0.88711767000E+03  0.11005752079E+04  0.65118652369E+03 0.  0.
         13    1    3    3    0    0  0.21458329829E+03  0.33726502882E+02 -0.30819292286E+02  0.21939302103E+03  0.00000000000E+00 0.  1.
          1    1    3    3  501    0 -0.20695792679E+03 -0.20088584979E+02 -0.85629837771E+03  0.88118218683E+03  0.00000000000E+00 0.  1.
         21    1    1    2  502  501 -0.76253714912E+01 -0.13637917903E+02  0.37650491496E+01  0.16072171297E+02  0.00000000000E+00 0. -1.
<mgrwt>
<rscale>  1 0.30000000E+03</rscale>
<asrwt>0</asrwt>
<pdfrwt beam="1">  1        1 0.42417318E+00 0.30000000E+03</pdfrwt>
<pdfrwt beam="2">0</pdfrwt>
<totfact> 0.75567554E-01</totfact>
</mgrwt>
</event>
<event>
 6    1  0.5260809E-006  0.3000000E+03  0.7818608E-02  0.1093470E+00
          1   -1    0    0  502    0  0.00000000000E+00  0.00000000000E+00  0.11765248433E+03  0.11765248433E+03  0.00000000000E+00 0.  1.
         13   -1    0    0    0    0 -0.00000000000E+00 -0.00000000000E+00 -0.10000000000E+04  0.10000000000E+04  0.00000000000E+00 0.  1.
    9000005    2    1    2  501    0  0.10165171703E+02 -0.14355185488E+02 -0.88456364038E+03  0.10999236018E+04  0.65350569539E+03 0.  0.
         13    1    3    3    0    0 -0.16300012119E+02 -0.10013624132E+03 -0.97041802405E+03  0.97570697375E+03  0.00000000000E+00 0.  1.
          1    1    3    3  501    0  0.26465183823E+02  0.85781055836E+02  0.85854383671E+02  0.12421662808E+03  0.00000000000E+00 0.  1.
         21    1    1    2  502  501 -0.10165171703E+02  0.14355185488E+02  0.22161247150E+01  0.17728882506E+02  0.00000000000E+00 0. -1.
<mgrwt>
<rscale>  1 0.30000000E+03</rscale>
<asrwt>0</asrwt>
<pdfrwt beam="1">  1        1 0.42782812E+00 0.30000000E+03</pdfrwt>
<pdfrwt beam="2">0</pdfrwt>
<totfact> 0.71687988E-01</totfact>
</mgrwt>
</event>
<event>
 6    1  0.5260809E-006  0.3000000E+03  0.7818608E-02  0.1093470E+00
          1   -1    0    0  502    0  0.00000000000E+00  0.00000000000E+00  0.11586698828E+03  0.11586698828E+03  0.00000000000E+00 0.  1.
         13   -1    0    0    0    0 -0.00000000000E+00 -0.00000000000E+00 -0.10000000000E+04  0.10000000000E+04  0.00000000000E+00 0.  1.
    9000005    2    1    2  501    0 -0.24339035784E+02 -0.32140705671E+01 -0.87420465000E+03  0.10893850835E+04  0.64955628796E+03 0.  0.
         13    1    3    3    0    0  0.23372979390E+03 -0.92488980266E+02 -0.10368785808E+03  0.27190991144E+03  0.00000000000E+00 0.  1.
          3    1    3    3  501    0 -0.25806882968E+03  0.89274909699E+02 -0.77051679192E+03  0.81747517209E+03  0.00000000000E+00 0.  1.
         21    1    1    2  502  501  0.24339035784E+02  0.32140705671E+01 -0.99283617279E+01  0.26481904749E+02  0.00000000000E+00 0.  1.
<mgrwt>
<rscale>  1 0.30000000E+03</rscale>
<asrwt>0</asrwt>
<pdfrwt beam="1">  1        1 0.42133539E+00 0.30000000E+03</pdfrwt>
<pdfrwt beam="2">0</pdfrwt>
<totfact> 0.78696662E-01</totfact>
</mgrwt>
</event>
<event>
 6    1  0.5260809E-006  0.3000000E+03  0.7818608E-02  0.1093470E+00
          1   -1    0    0  502    0  0.00000000000E+00  0.00000000000E+00  0.13026424250E+03  0.13026424250E+03  0.00000000000E+00 0.  1.
         13   -1    0    0    0    0 -0.00000000000E+00 -0.00000000000E+00 -0.10000000000E+04  0.10000000000E+04  0.00000000000E+00 0.  1.
    9000005    2    1    2  501    0  0.14747908821E+02  0.90812820486E+01 -0.90216571948E+03  0.10934991377E+04  0.61768714429E+03 0.  0.
         13    1    3    3    0    0 -0.16559722240E+02  0.98762244110E+02  0.66485248030E+02  0.12020188629E+03  0.00000000000E+00 0.  1.
          3    1    3    3  501    0  0.31307631061E+02 -0.89680962062E+02 -0.96865096751E+03  0.97329725139E+03  0.00000000000E+00 0.  1.
         21    1    1    2  502  501 -0.14747908821E+02 -0.90812820486E+01  0.32429961975E+02  0.36765104813E+02  0.00000000000E+00 0.  1.
<mgrwt>
<rscale>  1 0.30000000E+03</rscale>
<asrwt>0</asrwt>
<pdfrwt beam="1">  1        1 0.47368915E+00 0.30000000E+03</pdfrwt>
<pdfrwt beam="2">0</pdfrwt>
<totfact> 0.35422269E-01</totfact>
</mgrwt>
</event>
<event>
 6    1  0.5260809E-006  0.3000000E+03  0.7818608E-02  0.1093470E+00
          1   -1    0    0  502    0  0.00000000000E+00  0.00000000000E+00  0.15123076388E+03  0.15123076388E+03  0.00000000000E+00 0.  1.
         13   -1    0    0    0    0 -0.00000000000E+00 -0.00000000000E+00 -0.10000000000E+04  0.10000000000E+04  0.00000000000E+00 0.  1.
    9000005    2    1    2  501    0 -0.11433625089E+02  0.82910076145E+00 -0.85082892278E+03  0.11395835539E+04  0.75802995015E+03 0.  0.
         13    1    3    3    0    0  0.34667039216E+03 -0.13195895939E+03 -0.35235528583E+03  0.51161291541E+03  0.00000000000E+00 0.  1.
          1    1    3    3  501    0 -0.35810401725E+03  0.13278806015E+03 -0.49847363695E+03  0.62797063851E+03  0.00000000000E+00 0.  1.
         21    1    1    2  502  501  0.11433625089E+02 -0.82910076145E+00  0.20596866662E+01  0.11647209963E+02  0.00000000000E+00 0.  1.
<mgrwt>
<rscale>  1 0.30000000E+03</rscale>
<asrwt>0</asrwt>
<pdfrwt beam="1">  1        1 0.54993121E+00 0.30000000E+03</pdfrwt>
<pdfrwt beam="2">0</pdfrwt>
<totfact> 0.98600498E-02</totfact>
</mgrwt>
</event>
<event>
 6    1  0.5260809E-006  0.3000000E+03  0.7818608E-02  0.1093470E+00
          1   -1    0    0  502    0  0.00000000000E+00  0.00000000000E+00  0.19596737407E+03  0.19596737407E+03  0.00000000000E+00 0.  1.
         13   -1    0    0    0    0 -0.00000000000E+00 -0.00000000000E+00 -0.10000000000E+04  0.10000000000E+04  0.00000000000E+00 0.  1.
    9000005    2    1    2  501    0 -0.48366769313E+02 -0.25343169459E+02 -0.88215502631E+03  0.11006535238E+04  0.65594136048E+03 0.  0.
         13    1    3    3    0    0  0.29473449596E+03  0.68303275559E+02 -0.40203760851E+03  0.50315802609E+03  0.00000000000E+00 0.  1.
          3    1    3    3  501    0 -0.34310126528E+03 -0.93646445018E+02 -0.48011741780E+03  0.59749549770E+03  0.00000000000E+00 0.  1.
         21    1    1    2  502  501  0.48366769313E+02  0.25343169459E+02  0.78122400385E+02  0.95313850273E+02  0.00000000000E+00 0. -1.
<mgrwt>
<rscale>  1 0.30000000E+03</rscale>
<asrwt>0</asrwt>
<pdfrwt beam="1">  1        1 0.71261014E+00 0.30000000E+03</pdfrwt>
<pdfrwt beam="2">0</pdfrwt>
<totfact> 0.21504100E-02</totfact>
</mgrwt>
</event>
<event>
 6    1  0.5260809E-006  0.3000000E+03  0.7818608E-02  0.1093470E+00
          1   -1    0    0  502    0  0.00000000000E+00  0.00000000000E+00  0.11197114126E+03  0.11197114126E+03  0.00000000000E+00 0.  1.
         13   -1    0    0    0    0 -0.00000000000E+00 -0.00000000000E+00 -0.10000000000E+04  0.10000000000E+04  0.00000000000E+00 0.  1.
    9000005    2    1    2  501    0  0.30114589392E+01  0.15805726360E+02 -0.87564751702E+03  0.10916687401E+04  0.65170789020E+03 0.  0.
         13    1    3    3    0    0 -0.86473212373E+01 -0.31469653600E+03 -0.50342969057E+03  0.59375932774E+03  0.00000000000E+00 0.  1.
          1    1    3    3  501    0  0.11658780176E+02  0.33050226235E+03 -0.37221782645E+03  0.49790941235E+03  0.00000000000E+00 0.  1.
         21    1    1    2  502  501 -0.30114589392E+01 -0.15805726360E+02 -0.12381341713E+02  0.20302401171E+02  0.00000000000E+00 0. -1.
<mgrwt>
<rscale>  1 0.30000000E+03</rscale>
<asrwt>0</asrwt>
<pdfrwt beam="1">  1        1 0.40716865E+00 0.30000000E+03</pdfrwt>
<pdfrwt beam="2">0</pdfrwt>
<totfact> 0.95737543E-01</totfact>
</mgrwt>
</event>
<event>
 6    1  0.5260809E-006  0.3000000E+03  0.7818608E-02  0.1093470E+00
          1   -1    0    0  502    0  0.00000000000E+00  0.00000000000E+00  0.11917199080E+03  0.11917199080E+03  0.00000000000E+00 0.  1.
         13   -1    0    0    0    0 -0.00000000000E+00 -0.00000000000E+00 -0.10000000000E+04  0.10000000000E+04  0.00000000000E+00 0.  1.
    9000005    2    1    2  501    0  0.36483596910E+02 -0.69457030058E+01 -0.79564392000E+03  0.10262439289E+04  0.64710745519E+03 0.  0.
         13    1    3    3    0    0  0.68826466910E+02  0.16728536454E+03  0.28624823787E+02  0.18314162900E+03  0.00000000000E+00 0.  1.
          3    1    3    3  501    0 -0.32342870000E+02 -0.17423106754E+03 -0.82426874379E+03  0.84310229992E+03  0.00000000000E+00 0.  1.
         21    1    1    2  502  501 -0.36483596910E+02  0.69457030058E+01 -0.85184089196E+02  0.92928061886E+02  0.00000000000E+00 0. -1.
<mgrwt>
<rscale>  1 0.30000000E+03</rscale>
<asrwt>0</asrwt>
<pdfrwt beam="1">  1        1 0.43335361E+00 0.30000000E+03</pdfrwt>
<pdfrwt beam="2">0</pdfrwt>
<totfact> 0.66147010E-01</totfact>
</mgrwt>
</event>
<event>
 6    1  0.5260809E-006  0.3000000E+03  0.7818608E-02  0.1093470E+00
          1   -1    0    0  502    0  0.00000000000E+00  0.00000000000E+00  0.12560728367E+03  0.12560728367E+03  0.00000000000E+00 0.  1.
         13   -1    0    0    0    0 -0.00000000000E+00 -0.00000000000E+00 -0.10000000000E+04  0.10000000000E+04  0.00000000000E+00 0.  1.
    9000005    2    1    2  501    0  0.30082535917E+01  0.92328036023E+01 -0.87299908184E+03  0.11157972649E+04  0.69482504641E+03 0.  0.
         13    1    3    3    0    0 -0.15988565300E+03 -0.58652308895E+02  0.48879332253E+02  0.17717986481E+03  0.00000000000E+00 0.  1.
          3    1    3    3  501    0  0.16289390659E+03  0.67885112497E+02 -0.92187841410E+03  0.93861740005E+03  0.00000000000E+00 0.  1.
         21    1    1    2  502  501 -0.30082535917E+01 -0.92328036023E+01 -0.13936344837E+01  0.98100188127E+01  0.00000000000E+00 0.  1.
<mgrwt>
<rscale>  1 0.30000000E+03</rscale>
<asrwt>0</asrwt>
<pdfrwt beam="1">  1        1 0.45675472E+00 0.30000000E+03</pdfrwt>
<pdfrwt beam="2">0</pdfrwt>
<totfact> 0.46347927E-01</totfact>
</mgrwt>
</event>
<event>
 6    1  0.5260809E-006  0.3000000E+03  0.7818608E-02  0.1093470E+00
          1   -1    0    0  502    0  0.00000000000E+00  0.00000000000E+00  0.12777735767E+03  0.12777735767E+03  0.00000000000E+00 0.  1.
         13   -1    0    0    0    0 -0.00000000000E+00 -0.00000000000E+00 -0.10000000000E+04  0.10000000000E+04  0.00000000000E+00 0.  1.
    9000005    2    1    2  501    0 -0.36000329120E+01  0.47008690303E+02 -0.86222388888E+03  0.10795824174E+04  0.64795477012E+03 0.  0.
         13    1    3    3    0    0 -0.29969176377E+03  0.68834971411E+02 -0.23969677503E+03  0.38988196999E+03  0.00000000000E+00 0.  1.
          1    1    3    3  501    0  0.29609173086E+03 -0.21826281109E+02 -0.62252711385E+03  0.68970044737E+03  0.00000000000E+00 0.  1.
         21    1    1    2  502  501  0.36000329120E+01 -0.47008690303E+02 -0.99987534516E+01  0.48194940310E+02  0.00000000000E+00 0. -1.
<mgrwt>
<rscale>  1 0.30000000E+03</rscale>
<asrwt>0</asrwt>
<pdfrwt beam="1">  1        1 0.46464592E+00 0.30000000E+03</pdfrwt>
<pdfrwt beam="2">0</pdfrwt>
<totfact> 0.40967889E-01</totfact>
</mgrwt>
</event>
<event>
 6    1  0.5260809E-006  0.3000000E+03  0.7818608E-02  0.1093470E+00
          1   -1    0    0  502    0  0.00000000000E+00  0.00000000000E+00  0.15194647096E+03  0.15194647096E+03  0.00000000000E+00 0.  1.
         13   -1    0    0    0    0 -0.00000000000E+00 -0.00000000000E+00 -0.10000000000E+04  0.10000000000E+04  0.00000000000E+00 0.  1.
    9000005    2    1    2  501    0  0.59559426957E+02  0.74222652312E+02 -0.81958565252E+03  0.10526149682E+04  0.65362168104E+03 0.  0.
         13    1    3    3    0    0 -0.26083113632E+03 -0.11791318634E+03 -0.37936364920E+03  0.47524012827E+03  0.00000000000E+00 0.  1.
          3    1    3    3  501    0  0.32039056328E+03  0.19213583865E+03 -0.44022200332E+03  0.57737483989E+03  0.00000000000E+00 0.  1.
         21    1    1    2  502  501 -0.59559426957E+02 -0.74222652312E+02 -0.28467876523E+02  0.99331502805E+02  0.00000000000E+00 0. -1.
<mgrwt>
<rscale>  1 0.30000000E+03</rscale>
<asrwt>0</asrwt>
<pdfrwt beam="1">  1        1 0.55253379E+00 0.30000000E+03</pdfrwt>
<pdfrwt beam="2">0</pdfrwt>
<totfact> 0.94987400E-02</totfact>
</mgrwt>
</event>
<event>
 6    1  0.5260809E-006  0.3000000E+03  0.7818608E-02  0.1093470E+00
          1   -1    0    0  502    0  0.00000000000E+00  0.00000000000E+00  0.73308304834E+02  0.73308304834E+02  0.00000000000E+00 0.  1.
         13   -1    0    0    0    0 -0.00000000000E+00 -0.00000000000E+00 -0.10000000000E+04  0.10000000000E+04  0.00000000000E+00 0.  1.
    9000005    2    1    2  501    0  0.15704462971E+01  0.11772138770E+02 -0.92422479952E+03  0.10611783779E+04  0.52131278535E+03 0.  0.
         13    1    3    3    0    0 -0.63712960081E+02 -0.10886068539E+03 -0.91505476820E+03  0.92370732319E+03  0.00000000000E+00 0.  1.
          1    1    3    3  501    0  0.65283406378E+02  0.12063282416E+03 -0.91700313136E+01  0.13747105473E+03  0.00000000000E+00 0.  1.
         21    1    1    2  502  501 -0.15704462971E+01 -0.11772138770E+02 -0.24668956507E+01  0.12129926914E+02  0.00000000000E+00 0. -1.
<mgrwt>
<rscale>  1 0.30000000E+03</rscale>
<asrwt>0</asrwt>
<pdfrwt beam="1">  1        1 0.26657622E+00 0.30000000E+03</pdfrwt>
<pdfrwt beam="2">0</pdfrwt>
<totfact> 0.49896232E+00</totfact>
</mgrwt>
</event>
<event>
 6    1  0.5260809E-006  0.3000000E+03  0.7818608E-02  0.1093470E+00
          1   -1    0    0  502    0  0.00000000000E+00  0.00000000000E+00  0.13196451069E+03  0.13196451069E+03  0.00000000000E+00 0.  1.
         13   -1    0    0    0    0 -0.00000000000E+00 -0.00000000000E+00 -0.10000000000E+04  0.10000000000E+04  0.00000000000E+00 0.  1.
    9000005    2    1    2  501    0 -0.31606480806E+02  0.11348744289E+02 -0.88234416808E+03  0.10954610600E+04  0.64836404847E+03 0.  0.
         13    1    3    3    0    0 -0.32813866111E+03  0.68959595991E+02 -0.56737570949E+03  0.65904901374E+03  0.00000000000E+00 0.  1.
          1    1    3    3  501    0  0.29653218031E+03 -0.57610851702E+02 -0.31496845859E+03  0.43641204624E+03  0.00000000000E+00 0.  1.
         21    1    1    2  502  501  0.31606480806E+02 -0.11348744289E+02  0.14308678769E+02  0.36503450713E+02  0.00000000000E+00 0. -1.
<mgrwt>
<rscale>  1 0.30000000E+03</rscale>
<asrwt>0</asrwt>
<pdfrwt beam="1">  1        1 0.47987196E+00 0.30000000E+03</pdfrwt>
<pdfrwt beam="2">0</pdfrwt>
<totfact> 0.32007267E-01</totfact>
</mgrwt>
</event>
<event>
 6    1  0.5260809E-006  0.3000000E+03  0.7818608E-02  0.1093470E+00
          1   -1    0    0  502    0  0.00000000000E+00  0.00000000000E+00  0.96989073701E+02  0.96989073701E+02  0.00000000000E+00 0.  1.
         13   -1    0    0    0    0 -0.00000000000E+00 -0.00000000000E+00 -0.10000000000E+04  0.10000000000E+04  0.00000000000E+00 0.  1.
    9000005    2    1    2  501    0  0.10232511030E+02  0.99377960055E+01 -0.89875772658E+03  0.10821043910E+04  0.60247904349E+03 0.  0.
         13    1    3    3    0    0 -0.25758559127E+03  0.12055479556E+03 -0.28120315255E+03  0.39994875742E+03  0.00000000000E+00 0.  1.
          3    1    3    3  501    0  0.26781810230E+03 -0.11061699955E+03 -0.61755457403E+03  0.68215563357E+03  0.00000000000E+00 0.  1.
         21    1    1    2  502  501 -0.10232511030E+02 -0.99377960055E+01 -0.42531997188E+01  0.14884682707E+02  0.00000000000E+00 0.  1.
<mgrwt>
<rscale>  1 0.30000000E+03</rscale>
<asrwt>0</asrwt>
<pdfrwt beam="1">  1        1 0.35268828E+00 0.30000000E+03</pdfrwt>
<pdfrwt beam="2">0</pdfrwt>
<totfact> 0.19073219E+00</totfact>
</mgrwt>
</event>
<event>
 6    1  0.5260809E-006  0.3000000E+03  0.7818608E-02  0.1093470E+00
          1   -1    0    0  502    0  0.00000000000E+00  0.00000000000E+00  0.12281425010E+03  0.12281425010E+03  0.00000000000E+00 0.  1.
         13   -1    0    0    0    0 -0.00000000000E+00 -0.00000000000E+00 -0.10000000000E+04  0.10000000000E+04  0.00000000000E+00 0.  1.
    9000005    2    1    2  501    0  0.12694586329E+02 -0.71857338028E+01 -0.88584685622E+03  0.11058495204E+04  0.66178978666E+03 0.  0.
         13    1    3    3    0    0  0.12504915801E+03  0.30452612982E+03 -0.40546455270E+03  0.52227862216E+03  0.00000000000E+00 0.  1.
          1    1    3    3  501    0 -0.11235457168E+03 -0.31171186363E+03 -0.48038230352E+03  0.58357089821E+03  0.00000000000E+00 0.  1.
         21    1    1    2  502  501 -0.12694586329E+02  0.71857338028E+01  0.86611063252E+01  0.16964729739E+02  0.00000000000E+00 0.  1.
<mgrwt>
<rscale>  1 0.30000000E+03</rscale>
<asrwt>0</asrwt>
<pdfrwt beam="1">  1        1 0.44659821E+00 0.30000000E+03</pdfrwt>
<pdfrwt beam="2">0</pdfrwt>
<totfact> 0.54226944E-01</totfact>
</mgrwt>
</event>
<event>
 6    1  0.5260809E-006  0.3000000E+03  0.7818608E-02  0.1093470E+00
          1   -1    0    0  502    0  0.00000000000E+00  0.00000000000E+00  0.10782105821E+03  0.10782105821E+03  0.00000000000E+00 0.  1.
         13   -1    0    0    0    0 -0.00000000000E+00 -0.00000000000E+00 -0.10000000000E+04  0.10000000000E+04  0.00000000000E+00 0.  1.
    9000005    2    1    2  501    0 -0.66014355246E+01  0.85462726489E+01 -0.88763930666E+03  0.10961067074E+04  0.64298503684E+03 0.  0.
         13    1    3    3    0    0 -0.21137306922E+03  0.84501883361E+02 -0.53489084446E+02  0.23383803121E+03  0.00000000000E+00 0.  1.
          3    1    3    3  501    0  0.20477163370E+03 -0.75955610712E+02 -0.83415022222E+03  0.86226867622E+03  0.00000000000E+00 0.  1.
         21    1    1    2  502  501  0.66014355246E+01 -0.85462726489E+01 -0.45396351264E+01  0.11714350783E+02  0.00000000000E+00 0.  1.
<mgrwt>
<rscale>  1 0.30000000E+03</rscale>
<asrwt>0</asrwt>
<pdfrwt beam="1">  1        1 0.39207740E+00 0.30000000E+03</pdfrwt>
<pdfrwt beam="2">0</pdfrwt>
<totfact> 0.11674792E+00</totfact>
</mgrwt>
</event>
<event>
 6    1  0.5260809E-006  0.3000000E+03  0.7818608E-02  0.1093470E+00
          1   -1    0    0  502    0  0.00000000000E+00  0.00000000000E+00  0.10917764938E+03  0.10917764938E+03  0.00000000000E+00 0.  1.
         13   -1    0    0    0    0 -0.00000000000E+00 -0.00000000000E+00 -0.10000000000E+04  0.10000000000E+04  0.00000000000E+00 0.  1.
    9000005    2    1    2  501    0 -0.99489469470E+01  0.33851336140E+01 -0.88619788510E+03  0.10976960835E+04  0.64767241673E+03 0.  0.
         13    1    3    3    0    0  0.29742321585E+03 -0.10291885163E+03 -0.35111520158E+03  0.47152385319E+03  0.00000000000E+00 0.  1.
          3    1    3    3  501    0 -0.30737216280E+03  0.10630398524E+03 -0.53508268352E+03  0.62617223026E+03  0.00000000000E+00 0.  1.
         21    1    1    2  502  501  0.99489469470E+01 -0.33851336140E+01 -0.46244655121E+01  0.11481565930E+02  0.00000000000E+00 0. -1.
<mgrwt>
<rscale>  1 0.30000000E+03</rscale>
<asrwt>0</asrwt>
<pdfrwt beam="1">  1        1 0.39701047E+00 0.30000000E+03</pdfrwt>
<pdfrwt beam="2">0</pdfrwt>
<totfact> 0.10951442E+00</totfact>
</mgrwt>
</event>
<event>
 6    1  0.5260809E-006  0.3000000E+03  0.7818608E-02  0.1093470E+00
          1   -1    0    0  502    0  0.00000000000E+00  0.00000000000E+00  0.12945828045E+03  0.12945828045E+03  0.00000000000E+00 0.  1.
         13   -1    0    0    0    0 -0.00000000000E+00 -0.00000000000E+00 -0.10000000000E+04  0.10000000000E+04  0.00000000000E+00 0.  1.
    9000005    2    1    2  501    0 -0.24873412687E+02  0.11784908088E+02 -0.88480040054E+03  0.10984602047E+04  0.65037335568E+03 0.  0.
         13    1    3    3    0    0 -0.38769335327E+02  0.24596053385E+03 -0.82100097291E+02  0.26218327855E+03  0.00000000000E+00 0.  1.
          3    1    3    3  501    0  0.13895922640E+02 -0.23417562576E+03 -0.80270030325E+03  0.83627692614E+03  0.00000000000E+00 0.  1.
         21    1    1    2  502  501  0.24873412687E+02 -0.11784908088E+02  0.14258680984E+02  0.30998075759E+02  0.00000000000E+00 0. -1.
<mgrwt>
<rscale>  1 0.30000000E+03</rscale>
<asrwt>0</asrwt>
<pdfrwt beam="1">  1        1 0.47075838E+00 0.30000000E+03</pdfrwt>
<pdfrwt beam="2">0</pdfrwt>
<totfact> 0.37147295E-01</totfact>
</mgrwt>
</event>
<event>
 6    1  0.5260809E-006  0.3000000E+03  0.7818608E-02  0.1093470E+00
          1   -1    0    0  502    0  0.00000000000E+00  0.00000000000E+00  0.88989227175E+02  0.88989227175E+02  0.00000000000E+00 0.  1.
         13   -1    0    0    0    0 -0.00000000000E+00 -0.00000000000E+00 -0.10000000000E+04  0.10000000000E+04  0.00000000000E+00 0.  1.
    9000005    2    1    2  501    0 -0.40382027418E+02  0.20899865404E+02 -0.81101555872E+03  0.97914135347E+03  0.54672117307E+03 0.  0.
         13    1    3    3    0    0 -0.25917869623E+03 -0.10742841152E+03 -0.31359851527E+03  0.42078318522E+03  0.00000000000E+00 0.  1.
          1    1    3    3  501    0  0.21879666881E+03  0.12832827693E+03 -0.49741704345E+03  0.55835816826E+03  0.00000000000E+00 0.  1.
         21    1    1    2  502  501  0.40382027418E+02 -0.20899865404E+02 -0.99995214108E+02  0.10984787370E+03  0.00000000000E+00 0. -1.
<mgrwt>
<rscale>  1 0.30000000E+03</rscale>
<asrwt>0</asrwt>
<pdfrwt beam="1">  1        1 0.32359787E+00 0.30000000E+03</pdfrwt>
<pdfrwt beam="2">0</pdfrwt>
<totfact> 0.26739857E+00</totfact>
</mgrwt>
</event>
<event>
 6    1  0.5260809E-006  0.3000000E+03  0.7818608E-02  0.1093470E+00
          1   -1    0    0  502    0  0.00000000000E+00  0.00000000000E+00  0.12418516391E+03  0.12418516391E+03  0.00000000000E+00 0.  1.
         13   -1    0    0    0    0 -0.00000000000E+00 -0.00000000000E+00 -0.10000000000E+04  0.10000000000E+04  0.00000000000E+00 0.  1.
    9000005    2    1    2  501    0 -0.19059797702E+02 -0.42636386522E+02 -0.83729972003E+03  0.10636496247E+04  0.65429241596E+03 0.  0.
         13    1    3    3    0    0 -0.16700073002E+03 -0.30471947261E+03 -0.36790422694E+03  0.50605999745E+03  0.00000000000E+00 0.  1.
          1    1    3    3  501    0  0.14794093232E+03  0.26208308609E+03 -0.46939549309E+03  0.55758962723E+03  0.00000000000E+00 0.  1.
         21    1    1    2  502  501  0.19059797702E+02  0.42636386522E+02 -0.38515116066E+02  0.60535539228E+02  0.00000000000E+00 0. -1.
<mgrwt>
<rscale>  1 0.30000000E+03</rscale>
<asrwt>0</asrwt>
<pdfrwt beam="1">  1        1 0.45158337E+00 0.30000000E+03</pdfrwt>
<pdfrwt beam="2">0</pdfrwt>
<totfact> 0.50210067E-01</totfact>
</mgrwt>
</event>
<event>
 6    1  0.5260809E-006  0.3000000E+03  0.7818608E-02  0.1093470E+00
          1   -1    0    0  502    0  0.00000000000E+00  0.00000000000E+00  0.11808483098E+03  0.11808483098E+03  0.00000000000E+00 0.  1.
         13   -1    0    0    0    0 -0.00000000000E+00 -0.00000000000E+00 -0.10000000000E+04  0.10000000000E+04  0.00000000000E+00 0.  1.
    9000005    2    1    2  501    0 -0.83441992172E+01  0.72590832758E+01 -0.89550920407E+03  0.11005600560E+04  0.63966661805E+03 0.  0.
         13    1    3    3    0    0  0.27645883109E+03  0.26335299778E+02 -0.70408499315E+03  0.75687430323E+03  0.00000000000E+00 0.  1.
          3    1    3    3  501    0 -0.28480303030E+03 -0.19076216502E+02 -0.19142421092E+03  0.34368575273E+03  0.00000000000E+00 0.  1.
         21    1    1    2  502  501  0.83441992172E+01 -0.72590832758E+01  0.13594035055E+02  0.17524775025E+02  0.00000000000E+00 0. -1.
<mgrwt>
<rscale>  1 0.30000000E+03</rscale>
<asrwt>0</asrwt>
<pdfrwt beam="1">  1        1 0.42940029E+00 0.30000000E+03</pdfrwt>
<pdfrwt beam="2">0</pdfrwt>
<totfact> 0.70073352E-01</totfact>
</mgrwt>
</event>
<event>
 6    1  0.5260809E-006  0.3000000E+03  0.7818608E-02  0.1093470E+00
          1   -1    0    0  502    0  0.00000000000E+00  0.00000000000E+00  0.10902616279E+03  0.10902616279E+03  0.00000000000E+00 0.  1.
         13   -1    0    0    0    0 -0.00000000000E+00 -0.00000000000E+00 -0.10000000000E+04  0.10000000000E+04  0.00000000000E+00 0.  1.
    9000005    2    1    2  501    0 -0.94515460656E-02  0.11156749208E+02 -0.88359866783E+03  0.10956520735E+04  0.64775179439E+03 0.  0.
         13    1    3    3    0    0 -0.42732699415E+02 -0.31196814870E+03 -0.51481272183E+03  0.60347522564E+03  0.00000000000E+00 0.  1.
          3    1    3    3  501    0  0.42723247868E+02  0.32312489791E+03 -0.36878594600E+03  0.49217684782E+03  0.00000000000E+00 0.  1.
         21    1    1    2  502  501  0.94515460656E-02 -0.11156749208E+02 -0.73751693767E+01  0.13374089335E+02  0.00000000000E+00 0.  1.
<mgrwt>
<rscale>  1 0.30000000E+03</rscale>
<asrwt>0</asrwt>
<pdfrwt beam="1">  1        1 0.39645961E+00 0.30000000E+03</pdfrwt>
<pdfrwt beam="2">0</pdfrwt>
<totfact> 0.11030238E+00</totfact>
</mgrwt>
</event>
<event>
 6    1  0.5260809E-006  0.3000000E+03  0.7818608E-02  0.1093470E+00
          1   -1    0    0  502    0  0.00000000000E+00  0.00000000000E+00  0.88366559324E+02  0.88366559324E+02  0.00000000000E+00 0.  1.
         13   -1    0    0    0    0 -0.00000000000E+00 -0.00000000000E+00 -0.10000000000E+04  0.10000000000E+04  0.00000000000E+00 0.  1.
    9000005    2    1    2  501    0 -0.53203817772E+01  0.13472477660E+02 -0.91758858054E+03  0.10727052118E+04  0.55544383524E+03 0.  0.
         13    1    3    3    0    0 -0.69151264484E+02  0.92527853200E+02 -0.95683419624E+03  0.96378160394E+03  0.00000000000E+00 0.  1.
          1    1    3    3  501    0  0.63830882707E+02 -0.79055375540E+02  0.39245615708E+02  0.10892360782E+03  0.00000000000E+00 0.  1.
         21    1    1    2  502  501  0.53203817772E+01 -0.13472477660E+02  0.59551398606E+01  0.15661347558E+02  0.00000000000E+00 0. -1.
<mgrwt>
<rscale>  1 0.30000000E+03</rscale>
<asrwt>0</asrwt>
<pdfrwt beam="1">  1        1 0.32133362E+00 0.30000000E+03</pdfrwt>
<pdfrwt beam="2">0</pdfrwt>
<totfact> 0.27431313E+00</totfact>
</mgrwt>
</event>
<event>
 6    1  0.5260809E-006  0.3000000E+03  0.7818608E-02  0.1093470E+00
          1   -1    0    0  502    0  0.00000000000E+00  0.00000000000E+00  0.12180207425E+03  0.12180207425E+03  0.00000000000E+00 0.  1.
         13   -1    0    0    0    0 -0.00000000000E+00 -0.00000000000E+00 -0.10000000000E+04  0.10000000000E+04  0.00000000000E+00 0.  1.
    9000005    2    1    2  501    0 -0.73604684189E+01  0.11448075455E+02 -0.89044676429E+03  0.11034917227E+04  0.65162359317E+03 0.  0.
         13    1    3    3    0    0 -0.14810684345E+03 -0.21644385613E+03 -0.76309580546E+03  0.80690692663E+03  0.00000000000E+00 0.  1.
          3    1    3    3  501    0  0.14074637503E+03  0.22789193158E+03 -0.12735095883E+03  0.29658479610E+03  0.00000000000E+00 0.  1.
         21    1    1    2  502  501  0.73604684189E+01 -0.11448075455E+02  0.12248838545E+02  0.18310351517E+02  0.00000000000E+00 0.  1.
<mgrwt>
<rscale>  1 0.30000000E+03</rscale>
<asrwt>0</asrwt>
<pdfrwt beam="1">  1        1 0.44291757E+00 0.30000000E+03</pdfrwt>
<pdfrwt beam="2">0</pdfrwt>
<totfact> 0.57364142E-01</totfact>
</mgrwt>
</event>
<event>
 6    1  0.5260809E-006  0.3000000E+03  0.7818608E-02  0.1093470E+00
          1   -1    0    0  502    0  0.00000000000E+00  0.00000000000E+00  0.11302517383E+03  0.11302517383E+03  0.00000000000E+00 0.  1.
         13   -1    0    0    0    0 -0.00000000000E+00 -0.00000000000E+00 -0.10000000000E+04  0.10000000000E+04  0.00000000000E+00 0.  1.
    9000005    2    1    2  501    0  0.57506236298E+00 -0.10632613281E+02 -0.88875011259E+03  0.11022300451E+04  0.65185959117E+03 0.  0.
         13    1    3    3    0    0 -0.11771302762E+03  0.27882958502E+03 -0.61992595255E+03  0.68986265372E+03  0.00000000000E+00 0.  1.
          3    1    3    3  501    0  0.11828808998E+03 -0.28946219830E+03 -0.26882416003E+03  0.41236739140E+03  0.00000000000E+00 0.  1.
         21    1    1    2  502  501 -0.57506236298E+00  0.10632613281E+02  0.17752864201E+01  0.10795128706E+02  0.00000000000E+00 0. -1.
<mgrwt>
<rscale>  1 0.30000000E+03</rscale>
<asrwt>0</asrwt>
<pdfrwt beam="1">  1        1 0.41100150E+00 0.30000000E+03</pdfrwt>
<pdfrwt beam="2">0</pdfrwt>
<totfact> 0.90885204E-01</totfact>
</mgrwt>
</event>
<event>
 6    1  0.5260809E-006  0.3000000E+03  0.7818608E-02  0.1093470E+00
          1   -1    0    0  502    0  0.00000000000E+00  0.00000000000E+00  0.98346884039E+02  0.98346884039E+02  0.00000000000E+00 0.  1.
         13   -1    0    0    0    0 -0.00000000000E+00 -0.00000000000E+00 -0.10000000000E+04  0.10000000000E+04  0.00000000000E+00 0.  1.
    9000005    2    1    2  501    0  0.17031230985E+02 -0.11768776561E+01 -0.91089701587E+03  0.10789330345E+04  0.57798933509E+03 0.  0.
         13    1    3    3    0    0 -0.26883368045E+03 -0.72566710471E+02 -0.37105854729E+03  0.46392016633E+03  0.00000000000E+00 0.  1.
          3    1    3    3  501    0  0.28586491143E+03  0.71389832815E+02 -0.53983846857E+03  0.61501286813E+03  0.00000000000E+00 0.  1.
         21    1    1    2  502  501 -0.17031230985E+02  0.11768776561E+01  0.92438999051E+01  0.19413849575E+02  0.00000000000E+00 0.  1.
<mgrwt>
<rscale>  1 0.30000000E+03</rscale>
<asrwt>0</asrwt>
<pdfrwt beam="1">  1        1 0.35762579E+00 0.30000000E+03</pdfrwt>
<pdfrwt beam="2">0</pdfrwt>
<totfact> 0.17975337E+00</totfact>
</mgrwt>
</event>
<event>
 6    1  0.5260809E-006  0.3000000E+03  0.7818608E-02  0.1093470E+00
          1   -1    0    0  502    0  0.00000000000E+00  0.00000000000E+00  0.11853363684E+03  0.11853363684E+03  0.00000000000E+00 0.  1.
         13   -1    0    0    0    0 -0.00000000000E+00 -0.00000000000E+00 -0.10000000000E+04  0.10000000000E+04  0.00000000000E+00 0.  1.
    9000005    2    1    2  501    0  0.24543304107E+01  0.24223432188E+02 -0.87981011174E+03  0.10941299164E+04  0.64997049375E+03 0.  0.
         13    1    3    3    0    0  0.25624987431E+03  0.65393705424E+02 -0.77072009754E+03  0.81483115033E+03  0.00000000000E+00 0.  1.
          3    1    3    3  501    0 -0.25379554390E+03 -0.41170273236E+02 -0.10909001419E+03  0.27929876602E+03  0.00000000000E+00 0.  1.
         21    1    1    2  502  501 -0.24543304107E+01 -0.24223432188E+02 -0.16562514261E+01  0.24403720486E+02  0.00000000000E+00 0. -1.
<mgrwt>
<rscale>  1 0.30000000E+03</rscale>
<asrwt>0</asrwt>
<pdfrwt beam="1">  1        1 0.43103232E+00 0.30000000E+03</pdfrwt>
<pdfrwt beam="2">0</pdfrwt>
<totfact> 0.68429794E-01</totfact>
</mgrwt>
</event>
<event>
 6    1  0.5260809E-006  0.3000000E+03  0.7818608E-02  0.1093470E+00
          1   -1    0    0  502    0  0.00000000000E+00  0.00000000000E+00  0.10707137031E+03  0.10707137031E+03  0.00000000000E+00 0.  1.
         13   -1    0    0    0    0 -0.00000000000E+00 -0.00000000000E+00 -0.10000000000E+04  0.10000000000E+04  0.00000000000E+00 0.  1.
    9000005    2    1    2  501    0  0.65811415249E+01  0.17161851017E+02 -0.86885845836E+03  0.10767858341E+04  0.63577894851E+03 0.  0.
         13    1    3    3    0    0  0.31771019479E+03  0.19788216645E+01 -0.51730871006E+03  0.60708482530E+03  0.00000000000E+00 0.  1.
          1    1    3    3  501    0 -0.31112905327E+03  0.15183029353E+02 -0.35154974830E+03  0.46970100883E+03  0.00000000000E+00 0.  1.
         21    1    1    2  502  501 -0.65811415249E+01 -0.17161851017E+02 -0.24070171329E+02  0.30285536183E+02  0.00000000000E+00 0.  1.
<mgrwt>
<rscale>  1 0.30000000E+03</rscale>
<asrwt>0</asrwt>
<pdfrwt beam="1">  1        1 0.38935126E+00 0.30000000E+03</pdfrwt>
<pdfrwt beam="2">0</pdfrwt>
<totfact> 0.12092566E+00</totfact>
</mgrwt>
</event>
<event>
 6    1  0.5260809E-006  0.3000000E+03  0.7818608E-02  0.1093470E+00
          1   -1    0    0  502    0  0.00000000000E+00  0.00000000000E+00  0.11651708074E+03  0.11651708074E+03  0.00000000000E+00 0.  1.
         13   -1    0    0    0    0 -0.00000000000E+00 -0.00000000000E+00 -0.10000000000E+04  0.10000000000E+04  0.00000000000E+00 0.  1.
    9000005    2    1    2  501    0 -0.10580067441E+02  0.30284119906E+01 -0.87919838891E+03  0.11047074954E+04  0.66878078183E+03 0.  0.
         13    1    3    3    0    0 -0.16237956521E+03 -0.18571032825E+03 -0.64804642108E+02  0.25505899485E+03  0.00000000000E+00 0.  1.
          1    1    3    3  501    0  0.15179949777E+03  0.18873874024E+03 -0.81439374681E+03  0.84964850051E+03  0.00000000000E+00 0.  1.
         21    1    1    2  502  501  0.10580067441E+02 -0.30284119906E+01 -0.42845303508E+01  0.11809585368E+02  0.00000000000E+00 0. -1.
<mgrwt>
<rscale>  1 0.30000000E+03</rscale>
<asrwt>0</asrwt>
<pdfrwt beam="1">  1        1 0.42369937E+00 0.30000000E+03</pdfrwt>
<pdfrwt beam="2">0</pdfrwt>
<totfact> 0.76083090E-01</totfact>
</mgrwt>
</event>
<event>
 6    1  0.5260809E-006  0.3000000E+03  0.7818608E-02  0.1093470E+00
          1   -1    0    0  502    0  0.00000000000E+00  0.00000000000E+00  0.11299265729E+03  0.11299265729E+03  0.00000000000E+00 0.  1.
         13   -1    0    0    0    0 -0.00000000000E+00 -0.00000000000E+00 -0.10000000000E+04  0.10000000000E+04  0.00000000000E+00 0.  1.
    9000005    2    1    2  501    0  0.99037499651E+00 -0.11758866443E+02 -0.89717391806E+03  0.10974166810E+04  0.63187267763E+03 0.  0.
         13    1    3    3    0    0 -0.57838670851E+01 -0.30373096573E+03 -0.27356314319E+03  0.40880648964E+03  0.00000000000E+00 0.  1.
          1    1    3    3  501    0  0.67742420816E+01  0.29197209929E+03 -0.62361077488E+03  0.68861019137E+03  0.00000000000E+00 0.  1.
         21    1    1    2  502  501 -0.99037499651E+00  0.11758866443E+02  0.10166575353E+02  0.15575976280E+02  0.00000000000E+00 0.  1.
<mgrwt>
<rscale>  1 0.30000000E+03</rscale>
<asrwt>0</asrwt>
<pdfrwt beam="1">  1        1 0.41088326E+00 0.30000000E+03</pdfrwt>
<pdfrwt beam="2">0</pdfrwt>
<totfact> 0.91032114E-01</totfact>
</mgrwt>
</event>
<event>
 6    1  0.5260809E-006  0.3000000E+03  0.7818608E-02  0.1093470E+00
          1   -1    0    0  502    0  0.00000000000E+00  0.00000000000E+00  0.11723401696E+03  0.11723401696E+03  0.00000000000E+00 0.  1.
         13   -1    0    0    0    0 -0.00000000000E+00 -0.00000000000E+00 -0.10000000000E+04  0.10000000000E+04  0.00000000000E+00 0.  1.
    9000005    2    1    2  501    0  0.34075694640E+02 -0.39124655231E+01 -0.85157226929E+03  0.10708712288E+04  0.64839293520E+03 0.  0.
         13    1    3    3    0    0  0.37061714997E+01  0.11960099428E+03 -0.91910563228E+03  0.92686207001E+03  0.00000000000E+00 0.  1.
          1    1    3    3  501    0  0.30369523141E+02 -0.12351345980E+03  0.67533362987E+02  0.14400915875E+03  0.00000000000E+00 0.  1.
         21    1    1    2  502  501 -0.34075694640E+02  0.39124655231E+01 -0.31193713748E+02  0.46362788194E+02  0.00000000000E+00 0. -1.
<mgrwt>
<rscale>  1 0.30000000E+03</rscale>
<asrwt>0</asrwt>
<pdfrwt beam="1">  1        1 0.42630642E+00 0.30000000E+03</pdfrwt>
<pdfrwt beam="2">0</pdfrwt>
<totfact> 0.73281969E-01</totfact>
</mgrwt>
</event>
<event>
 6    1  0.5260809E-006  0.3000000E+03  0.7818608E-02  0.1093470E+00
          1   -1    0    0  502    0  0.00000000000E+00  0.00000000000E+00  0.85362201928E+02  0.85362201928E+02  0.00000000000E+00 0.  1.
         13   -1    0    0    0    0 -0.00000000000E+00 -0.00000000000E+00 -0.10000000000E+04  0.10000000000E+04  0.00000000000E+00 0.  1.
    9000005    2    1    2  501    0 -0.46610777922E+01  0.11445782470E+02 -0.90262764324E+03  0.10681292277E+04  0.57097342591E+03 0.  0.
         13    1    3    3    0    0 -0.78586658625E+02  0.17688813471E+02  0.61378668158E+02  0.10127239476E+03  0.00000000000E+00 0.  1.
          1    1    3    3  501    0  0.73925580833E+02 -0.62430310003E+01 -0.96400631140E+03  0.96685683291E+03  0.00000000000E+00 0.  1.
         21    1    1    2  502  501  0.46610777922E+01 -0.11445782470E+02 -0.12010154834E+02  0.17232974255E+02  0.00000000000E+00 0.  1.
<mgrwt>
<rscale>  1 0.30000000E+03</rscale>
<asrwt>0</asrwt>
<pdfrwt beam="1">  1        1 0.31040866E+00 0.30000000E+03</pdfrwt>
<pdfrwt beam="2">0</pdfrwt>
<totfact> 0.30987932E+00</totfact>
</mgrwt>
</event>
<event>
 6    1  0.5260809E-006  0.3000000E+03  0.7818608E-02  0.1093470E+00
          1   -1    0    0  502    0  0.00000000000E+00  0.00000000000E+00  0.14255508959E+03  0.14255508959E+03  0.00000000000E+00 0.  1.
         13   -1    0    0    0    0 -0.00000000000E+00 -0.00000000000E+00 -0.10000000000E+04  0.10000000000E+04  0.00000000000E+00 0.  1.
    9000005    2    1    2  501    0 -0.27506412337E+02 -0.23072410976E+02 -0.88460067150E+03  0.10975398230E+04  0.64868048848E+03 0.  0.
         13    1    3    3    0    0  0.12942939952E+02 -0.31846381233E+03 -0.28352910940E+03  0.42658583584E+03  0.00000000000E+00 0.  1.
          3    1    3    3  501    0 -0.40449352290E+02  0.29539140136E+03 -0.60107156210E+03  0.67095398714E+03  0.00000000000E+00 0.  1.
         21    1    1    2  502  501  0.27506412337E+02  0.23072410976E+02  0.27155761094E+02  0.45015266616E+02  0.00000000000E+00 0.  1.
<mgrwt>
<rscale>  1 0.30000000E+03</rscale>
<asrwt>0</asrwt>
<pdfrwt beam="1">  1        1 0.51838324E+00 0.30000000E+03</pdfrwt>
<pdfrwt beam="2">0</pdfrwt>
<totfact> 0.16715055E-01</totfact>
</mgrwt>
</event>
<event>
 6    1  0.5260809E-006  0.3000000E+03  0.7818608E-02  0.1093470E+00
          1   -1    0    0  502    0  0.00000000000E+00  0.00000000000E+00  0.10922463889E+03  0.10922463889E+03  0.00000000000E+00 0.  1.
         13   -1    0    0    0    0 -0.00000000000E+00 -0.00000000000E+00 -0.10000000000E+04  0.10000000000E+04  0.00000000000E+00 0.  1.
    9000005    2    1    2  501    0 -0.11630191337E+02  0.36338615428E+01 -0.87043285386E+03  0.10855121126E+04  0.64848648969E+03 0.  0.
         13    1    3    3    0    0  0.31724489831E+03  0.29238414587E+02 -0.41632399316E+03  0.52423742491E+03  0.00000000000E+00 0.  1.
          1    1    3    3  501    0 -0.32887508965E+03 -0.25604553045E+02 -0.45410886070E+03  0.56127468773E+03  0.00000000000E+00 0.  1.
         21    1    1    2  502  501  0.11630191337E+02 -0.36338615428E+01 -0.20342507247E+02  0.23712526254E+02  0.00000000000E+00 0.  1.
<mgrwt>
<rscale>  1 0.30000000E+03</rscale>
<asrwt>0</asrwt>
<pdfrwt beam="1">  1        1 0.39718134E+00 0.30000000E+03</pdfrwt>
<pdfrwt beam="2">0</pdfrwt>
<totfact> 0.10927095E+00</totfact>
</mgrwt>
</event>
<event>
 6    1  0.5260809E-006  0.3000000E+03  0.7818608E-02  0.1093470E+00
          1   -1    0    0  502    0  0.00000000000E+00  0.00000000000E+00  0.13839389898E+03  0.13839389898E+03  0.00000000000E+00 0.  1.
         13   -1    0    0    0    0 -0.00000000000E+00 -0.00000000000E+00 -0.10000000000E+04  0.10000000000E+04  0.00000000000E+00 0.  1.
    9000005    2    1    2  501    0 -0.57791227776E+02 -0.25858168148E+02 -0.84286095172E+03  0.10723647275E+04  0.65995685762E+03 0.  0.
         13    1    3    3    0    0  0.20859508253E+03 -0.17238771814E+03 -0.67010630013E+03  0.72268380866E+03  0.00000000000E+00 0.  1.
          1    1    3    3  501    0 -0.26638631030E+03  0.14652954999E+03 -0.17275465159E+03  0.34968091881E+03  0.00000000000E+00 0.  1.
         21    1    1    2  502  501  0.57791227776E+02  0.25858168148E+02 -0.18745149298E+02  0.66029171508E+02  0.00000000000E+00 0.  1.
<mgrwt>
<rscale>  1 0.30000000E+03</rscale>
<asrwt>0</asrwt>
<pdfrwt beam="1">  1        1 0.50325160E+00 0.30000000E+03</pdfrwt>
<pdfrwt beam="2">0</pdfrwt>
<totfact> 0.21615830E-01</totfact>
</mgrwt>
</event>
<event>
 6    1  0.5260809E-006  0.3000000E+03  0.7818608E-02  0.1093470E+00
          1   -1    0    0  502    0  0.00000000000E+00  0.00000000000E+00  0.11529051526E+03  0.11529051526E+03  0.00000000000E+00 0.  1.
         13   -1    0    0    0    0 -0.00000000000E+00 -0.00000000000E+00 -0.10000000000E+04  0.10000000000E+04  0.00000000000E+00 0.  1.
    9000005    2    1    2  501    0 -0.26017661661E+02  0.14130117281E+02 -0.87719690435E+03  0.10847451752E+04  0.63743321788E+03 0.  0.
         13    1    3    3    0    0 -0.33982627221E+02  0.27835952833E+03 -0.16568999034E+03  0.32571769812E+03  0.00000000000E+00 0.  1.
          1    1    3    3  501    0  0.79649655604E+01 -0.26422941105E+03 -0.71150691401E+03  0.75902747712E+03  0.00000000000E+00 0.  1.
         21    1    1    2  502  501  0.26017661661E+02 -0.14130117281E+02 -0.75125803888E+01  0.30545340018E+02  0.00000000000E+00 0. -1.
<mgrwt>
<rscale>  1 0.30000000E+03</rscale>
<asrwt>0</asrwt>
<pdfrwt beam="1">  1        1 0.41923912E+00 0.30000000E+03</pdfrwt>
<pdfrwt beam="2">0</pdfrwt>
<totfact> 0.81069993E-01</totfact>
</mgrwt>
</event>
<event>
 6    1  0.5260809E-006  0.3000000E+03  0.7818608E-02  0.1093470E+00
          1   -1    0    0  502    0  0.00000000000E+00  0.00000000000E+00  0.12145030547E+03  0.12145030547E+03  0.00000000000E+00 0.  1.
         13   -1    0    0    0    0 -0.00000000000E+00 -0.00000000000E+00 -0.10000000000E+04  0.10000000000E+04  0.00000000000E+00 0.  1.
    9000005    2    1    2  501    0  0.52902408078E+02 -0.82343330678E+01 -0.80042474507E+03  0.10267403443E+04  0.64081939189E+03 0.  0.
         13    1    3    3    0    0 -0.23359429388E+03 -0.19197007780E+03 -0.39336432506E+03  0.49613939284E+03  0.00000000000E+00 0.  1.
          1    1    3    3  501    0  0.28649670196E+03  0.18373574473E+03 -0.40706042001E+03  0.53060095144E+03  0.00000000000E+00 0.  1.
         21    1    1    2  502  501 -0.52902408078E+02  0.82343330678E+01 -0.78124949460E+02  0.94709961195E+02  0.00000000000E+00 0.  1.
<mgrwt>
<rscale>  1 0.30000000E+03</rscale>
<asrwt>0</asrwt>
<pdfrwt beam="1">  1        1 0.44163841E+00 0.30000000E+03</pdfrwt>
<pdfrwt beam="2">0</pdfrwt>
<totfact> 0.58485669E-01</totfact>
</mgrwt>
</event>
<event>
 6    1  0.5260809E-006  0.3000000E+03  0.7818608E-02  0.1093470E+00
          1   -1    0    0  502    0  0.00000000000E+00  0.00000000000E+00  0.73365056759E+02  0.73365056759E+02  0.00000000000E+00 0.  1.
         13   -1    0    0    0    0 -0.00000000000E+00 -0.00000000000E+00 -0.10000000000E+04  0.10000000000E+04  0.00000000000E+00 0.  1.
    9000005    2    1    2  501    0  0.11318113141E+02  0.32964382847E+01 -0.91082505521E+03  0.10536440337E+04  0.52955122735E+03 0.  0.
         13    1    3    3    0    0  0.15696438098E+03 -0.14996363021E+03 -0.76900029045E+03  0.79905466271E+03  0.00000000000E+00 0.  1.
          3    1    3    3  501    0 -0.14564626784E+03  0.15326006849E+03 -0.14182476476E+03  0.25458937101E+03  0.00000000000E+00 0.  1.
         21    1    1    2  502  501 -0.11318113141E+02 -0.32964382847E+01 -0.15809888028E+02  0.19721023044E+02  0.00000000000E+00 0.  1.
<mgrwt>
<rscale>  1 0.30000000E+03</rscale>
<asrwt>0</asrwt>
<pdfrwt beam="1">  1        1 0.26678259E+00 0.30000000E+03</pdfrwt>
<pdfrwt beam="2">0</pdfrwt>
<totfact> 0.49784713E+00</totfact>
</mgrwt>
</event>
<event>
 6    1  0.5260809E-006  0.3000000E+03  0.7818608E-02  0.1093470E+00
          1   -1    0    0  502    0  0.00000000000E+00  0.00000000000E+00  0.11724102052E+03  0.11724102052E+03  0.00000000000E+00 0.  1.
         13   -1    0    0    0    0 -0.00000000000E+00 -0.00000000000E+00 -0.10000000000E+04  0.10000000000E+04  0.00000000000E+00 0.  1.
    9000005    2    1    2  501    0  0.16078302043E+02 -0.39913448184E+01 -0.89031668822E+03  0.10990321877E+04  0.64415332159E+03 0.  0.
         13    1    3    3    0    0  0.30422423440E+03  0.38800711539E+02 -0.65965271876E+03  0.72746105696E+03  0.00000000000E+00 0.  1.
          3    1    3    3  501    0 -0.28814593236E+03 -0.42792056358E+02 -0.23066396946E+03  0.37157113078E+03  0.00000000000E+00 0.  1.
         21    1    1    2  502  501 -0.16078302043E+02  0.39913448184E+01  0.75577087457E+01  0.18208832789E+02  0.00000000000E+00 0. -1.
<mgrwt>
<rscale>  1 0.30000000E+03</rscale>
<asrwt>0</asrwt>
<pdfrwt beam="1">  1        1 0.42633188E+00 0.30000000E+03</pdfrwt>
<pdfrwt beam="2">0</pdfrwt>
<totfact> 0.73255039E-01</totfact>
</mgrwt>
</event>
<event>
 6    1  0.5260809E-006  0.3000000E+03  0.7818608E-02  0.1093470E+00
          1   -1    0    0  502    0  0.00000000000E+00  0.00000000000E+00  0.10384835620E+03  0.10384835620E+03  0.00000000000E+00 0.  1.
         13   -1    0    0    0    0 -0.00000000000E+00 -0.00000000000E+00 -0.10000000000E+04  0.10000000000E+04  0.00000000000E+00 0.  1.
    9000005    2    1    2  501    0  0.64813035927E+01 -0.12394842694E+02 -0.89789676533E+03  0.10897527941E+04  0.61737096762E+03 0.  0.
         13    1    3    3    0    0 -0.58511647107E+02 -0.29812162459E+03 -0.31667072891E+03  0.43883990981E+03  0.00000000000E+00 0.  1.
          1    1    3    3  501    0  0.64992950700E+02  0.28572678190E+03 -0.58122603642E+03  0.65091288430E+03  0.00000000000E+00 0.  1.
         21    1    1    2  502  501 -0.64813035927E+01  0.12394842694E+02  0.17451215312E+01  0.14095562097E+02  0.00000000000E+00 0.  1.
<mgrwt>
<rscale>  1 0.30000000E+03</rscale>
<asrwt>0</asrwt>
<pdfrwt beam="1">  1        1 0.37763118E+00 0.30000000E+03</pdfrwt>
<pdfrwt beam="2">0</pdfrwt>
<totfact> 0.14036083E+00</totfact>
</mgrwt>
</event>
<event>
 6    1  0.5260809E-006  0.3000000E+03  0.7818608E-02  0.1093470E+00
          1   -1    0    0  502    0  0.00000000000E+00  0.00000000000E+00  0.12308723629E+03  0.12308723629E+03  0.00000000000E+00 0.  1.
         13   -1    0    0    0    0 -0.00000000000E+00 -0.00000000000E+00 -0.10000000000E+04  0.10000000000E+04  0.00000000000E+00 0.  1.
    9000005    2    1    2  501    0 -0.22445999528E+02 -0.19882576212E+02 -0.87874030311E+03  0.10930459375E+04  0.64935796097E+03 0.  0.
         13    1    3    3    0    0  0.13609476567E+03  0.18632340475E+03 -0.78232908185E+03  0.81564513651E+03  0.00000000000E+00 0.  1.
          1    1    3    3  501    0 -0.15854076520E+03 -0.20620598096E+03 -0.96411221260E+02  0.27740080101E+03  0.00000000000E+00 0.  1.
         21    1    1    2  502  501  0.22445999528E+02  0.19882576212E+02  0.18275394025E+01  0.30041298772E+02  0.00000000000E+00 0.  1.
<mgrwt>
<rscale>  1 0.30000000E+03</rscale>
<asrwt>0</asrwt>
<pdfrwt beam="1">  1        1 0.44759089E+00 0.30000000E+03</pdfrwt>
<pdfrwt beam="2">0</pdfrwt>
<totfact> 0.53404962E-01</totfact>
</mgrwt>
</event>
<event>
 6    1  0.5260809E-006  0.3000000E+03  0.7818608E-02  0.1093470E+00
          1   -1    0    0  502    0  0.00000000000E+00  0.00000000000E+00  0.11723901378E+03  0.11723901378E+03  0.00000000000E+00 0.  1.
         13   -1    0    0    0    0 -0.00000000000E+00 -0.00000000000E+00 -0.10000000000E+04  0.10000000000E+04  0.00000000000E+00 0.  1.
    9000005    2    1    2  501    0  0.11830235049E+02 -0.14752594909E+01 -0.89706049368E+03  0.10986216357E+04  0.63412131200E+03 0.  0.
         13    1    3    3    0    0 -0.29158037186E+03 -0.10460961911E+03 -0.37947096087E+03  0.48985762810E+03  0.00000000000E+00 0.  1.
          3    1    3    3  501    0  0.30341060691E+03  0.10313435962E+03 -0.51758953281E+03  0.60876400763E+03  0.00000000000E+00 0.  1.
         21    1    1    2  502  501 -0.11830235049E+02  0.14752594909E+01  0.14299507461E+02  0.18617378052E+02  0.00000000000E+00 0. -1.
<mgrwt>
<rscale>  1 0.30000000E+03</rscale>
<asrwt>0</asrwt>
<pdfrwt beam="1">  1        1 0.42632459E+00 0.30000000E+03</pdfrwt>
<pdfrwt beam="2">0</pdfrwt>
<totfact> 0.73262754E-01</totfact>
</mgrwt>
</event>
<event>
 6    1  0.5260809E-006  0.3000000E+03  0.7818608E-02  0.1093470E+00
          1   -1    0    0  502    0  0.00000000000E+00  0.00000000000E+00  0.11806303278E+03  0.11806303278E+03  0.00000000000E+00 0.  1.
         13   -1    0    0    0    0 -0.00000000000E+00 -0.00000000000E+00 -0.10000000000E+04  0.10000000000E+04  0.00000000000E+00 0.  1.
    9000005    2    1    2  501    0  0.12793072082E+02 -0.67937369463E+01 -0.89240172079E+03  0.11001932644E+04  0.64329975143E+03 0.  0.
         13    1    3    3    0    0  0.76814132198E+02 -0.29818252155E+03 -0.63678299973E+03  0.70732299256E+03  0.00000000000E+00 0.  1.
          1    1    3    3  501    0 -0.64021060115E+02  0.29138878460E+03 -0.25561872106E+03  0.39287027183E+03  0.00000000000E+00 0.  1.
         21    1    1    2  502  501 -0.12793072082E+02  0.67937369463E+01  0.10464753569E+02  0.17869768389E+02  0.00000000000E+00 0. -1.
<mgrwt>
<rscale>  1 0.30000000E+03</rscale>
<asrwt>0</asrwt>
<pdfrwt beam="1">  1        1 0.42932102E+00 0.30000000E+03</pdfrwt>
<pdfrwt beam="2">0</pdfrwt>
<totfact> 0.70154011E-01</totfact>
</mgrwt>
</event>
<event>
 6    1  0.5260809E-006  0.3000000E+03  0.7818608E-02  0.1093470E+00
          1   -1    0    0  502    0  0.00000000000E+00  0.00000000000E+00  0.12243942730E+03  0.12243942730E+03  0.00000000000E+00 0.  1.
         13   -1    0    0    0    0 -0.00000000000E+00 -0.00000000000E+00 -0.10000000000E+04  0.10000000000E+04  0.00000000000E+00 0.  1.
    9000005    2    1    2  501    0  0.11860899220E+02 -0.54956977564E+01 -0.87021751425E+03  0.11074459577E+04  0.68482636006E+03 0.  0.
         13    1    3    3    0    0 -0.29058375651E+03 -0.12033610791E+03 -0.63118538220E+03  0.70520542051E+03  0.00000000000E+00 0.  1.
          3    1    3    3  501    0  0.30244465573E+03  0.11484041016E+03 -0.23903213205E+03  0.40224053716E+03  0.00000000000E+00 0.  1.
         21    1    1    2  502  501 -0.11860899220E+02  0.54956977564E+01 -0.73430584531E+01  0.14993469631E+02  0.00000000000E+00 0. -1.
<mgrwt>
<rscale>  1 0.30000000E+03</rscale>
<asrwt>0</asrwt>
<pdfrwt beam="1">  1        1 0.44523522E+00 0.30000000E+03</pdfrwt>
<pdfrwt beam="2">0</pdfrwt>
<totfact> 0.55372601E-01</totfact>
</mgrwt>
</event>
<event>
 6    1  0.5260809E-006  0.3000000E+03  0.7818608E-02  0.1093470E+00
          1   -1    0    0  502    0  0.00000000000E+00  0.00000000000E+00  0.14927508741E+03  0.14927508741E+03  0.00000000000E+00 0.  1.
         13   -1    0    0    0    0 -0.00000000000E+00 -0.00000000000E+00 -0.10000000000E+04  0.10000000000E+04  0.00000000000E+00 0.  1.
    9000005    2    1    2  501    0  0.33660591287E+02  0.92928408804E+02 -0.81640030373E+03  0.10446476372E+04  0.64421309004E+03 0.  0.
         13    1    3    3    0    0  0.17967783698E+03  0.26604838792E+03 -0.17760127124E+03  0.36688974006E+03  0.00000000000E+00 0.  1.
          1    1    3    3  501    0 -0.14601724569E+03 -0.17311997911E+03 -0.63879903249E+03  0.67775789712E+03  0.00000000000E+00 0.  1.
         21    1    1    2  502  501 -0.33660591287E+02 -0.92928408804E+02 -0.34324608857E+02  0.10462745023E+03  0.00000000000E+00 0.  1.
<mgrwt>
<rscale>  1 0.30000000E+03</rscale>
<asrwt>0</asrwt>
<pdfrwt beam="1">  1        1 0.54281964E+00 0.30000000E+03</pdfrwt>
<pdfrwt beam="2">0</pdfrwt>
<totfact> 0.10989028E-01</totfact>
</mgrwt>
</event>
<event>
 6    1  0.5260809E-006  0.3000000E+03  0.7818608E-02  0.1093470E+00
          1   -1    0    0  502    0  0.00000000000E+00  0.00000000000E+00  0.10785813726E+03  0.10785813726E+03  0.00000000000E+00 0.  1.
         13   -1    0    0    0    0 -0.00000000000E+00 -0.00000000000E+00 -0.10000000000E+04  0.10000000000E+04  0.00000000000E+00 0.  1.
    9000005    2    1    2  501    0 -0.10007358716E+02 -0.60993006034E+00 -0.89211484519E+03  0.10978321723E+04  0.63973905798E+03 0.  0.
         13    1    3    3    0    0 -0.25056433246E+03 -0.19483117912E+03 -0.34057414172E+03  0.46554529218E+03  0.00000000000E+00 0.  1.
          1    1    3    3  501    0  0.24055697375E+03  0.19422124906E+03 -0.55154070347E+03  0.63228688013E+03  0.00000000000E+00 0.  1.
         21    1    1    2  502  501  0.10007358716E+02  0.60993006034E+00 -0.27017554531E-01  0.10025964946E+02  0.00000000000E+00 0. -1.
<mgrwt>
<rscale>  1 0.30000000E+03</rscale>
<asrwt>0</asrwt>
<pdfrwt beam="1">  1        1 0.39221224E+00 0.30000000E+03</pdfrwt>
<pdfrwt beam="2">0</pdfrwt>
<totfact> 0.11654464E+00</totfact>
</mgrwt>
</event>
<event>
 6    1  0.5260809E-006  0.3000000E+03  0.7818608E-02  0.1093470E+00
          1   -1    0    0  502    0  0.00000000000E+00  0.00000000000E+00  0.11545086649E+03  0.11545086649E+03  0.00000000000E+00 0.  1.
         13   -1    0    0    0    0 -0.00000000000E+00 -0.00000000000E+00 -0.10000000000E+04  0.10000000000E+04  0.00000000000E+00 0.  1.
    9000005    2    1    2  501    0  0.17027132767E+02 -0.85664694566E+01 -0.88347466192E+03  0.10963599750E+04  0.64893328536E+03 0.  0.
         13    1    3    3    0    0 -0.25335851147E+03 -0.98194867260E+02 -0.71622461549E+03  0.76603555213E+03  0.00000000000E+00 0.  1.
          1    1    3    3  501    0  0.27038564424E+03  0.89628397804E+02 -0.16725004643E+03  0.33032442286E+03  0.00000000000E+00 0.  1.
         21    1    1    2  502  501 -0.17027132767E+02  0.85664694566E+01 -0.10744715847E+01  0.19090891504E+02  0.00000000000E+00 0. -1.
<mgrwt>
<rscale>  1 0.30000000E+03</rscale>
<asrwt>0</asrwt>
<pdfrwt beam="1">  1        1 0.41982222E+00 0.30000000E+03</pdfrwt>
<pdfrwt beam="2">0</pdfrwt>
<totfact> 0.80404724E-01</totfact>
</mgrwt>
</event>
<event>
 6    1  0.5260809E-006  0.3000000E+03  0.7818608E-02  0.1093470E+00
          1   -1    0    0  502    0  0.00000000000E+00  0.00000000000E+00  0.10894632561E+03  0.10894632561E+03  0.00000000000E+00 0.  1.
         13   -1    0    0    0    0 -0.00000000000E+00 -0.00000000000E+00 -0.10000000000E+04  0.10000000000E+04  0.00000000000E+00 0.  1.
    9000005    2    1    2  501    0 -0.30540060565E+01  0.14155964493E+02 -0.87601643573E+03  0.10880696202E+04  0.64519840700E+03 0.  0.
         13    1    3    3    0    0  0.17776610103E+03  0.92178008450E+02 -0.86818557103E+03  0.89097910058E+03  0.00000000000E+00 0.  1.
          3    1    3    3  501    0 -0.18082010709E+03 -0.78022043957E+02 -0.78308646932E+01  0.19709051959E+03  0.00000000000E+00 0.  1.
         21    1    1    2  502  501  0.30540060565E+01 -0.14155964493E+02 -0.15037238658E+02  0.20876705444E+02  0.00000000000E+00 0. -1.
<mgrwt>
<rscale>  1 0.30000000E+03</rscale>
<asrwt>0</asrwt>
<pdfrwt beam="1">  1        1 0.39616929E+00 0.30000000E+03</pdfrwt>
<pdfrwt beam="2">0</pdfrwt>
<totfact> 0.11071956E+00</totfact>
</mgrwt>
</event>
<event>
 6    1  0.5260809E-006  0.3000000E+03  0.7818608E-02  0.1093470E+00
          1   -1    0    0  502    0  0.00000000000E+00  0.00000000000E+00  0.11983967152E+03  0.11983967152E+03  0.00000000000E+00 0.  1.
         13   -1    0    0    0    0 -0.00000000000E+00 -0.00000000000E+00 -0.10000000000E+04  0.10000000000E+04  0.00000000000E+00 0.  1.
    9000005    2    1    2  501    0  0.16116710396E+02 -0.10804763036E+02 -0.90787271435E+03  0.10860096909E+04  0.59565736126E+03 0.  0.
         13    1    3    3    0    0 -0.98570573481E+02 -0.14191743987E+02 -0.95629982331E+03  0.96147122453E+03  0.00000000000E+00 0.  1.
          1    1    3    3  501    0  0.11468728388E+03  0.33869809506E+01  0.48427108958E+02  0.12453846637E+03  0.00000000000E+00 0.  1.
         21    1    1    2  502  501 -0.16116710396E+02  0.10804763036E+02  0.27712385870E+02  0.33829980622E+02  0.00000000000E+00 0.  1.
<mgrwt>
<rscale>  1 0.30000000E+03</rscale>
<asrwt>0</asrwt>
<pdfrwt beam="1">  1        1 0.43578154E+00 0.30000000E+03</pdfrwt>
<pdfrwt beam="2">0</pdfrwt>
<totfact> 0.63825601E-01</totfact>
</mgrwt>
</event>
<event>
 6    1  0.5260809E-006  0.3000000E+03  0.7818608E-02  0.1093470E+00
          1   -1    0    0  502    0  0.00000000000E+00  0.00000000000E+00  0.12643668246E+03  0.12643668246E+03  0.00000000000E+00 0.  1.
         13   -1    0    0    0    0 -0.00000000000E+00 -0.00000000000E+00 -0.10000000000E+04  0.10000000000E+04  0.00000000000E+00 0.  1.
    9000005    2    1    2  501    0  0.28422510671E+02  0.78350656935E+00 -0.88175050383E+03  0.10968481202E+04  0.65175409079E+03 0.  0.
         13    1    3    3    0    0 -0.39929751773E+02 -0.25350720646E+03 -0.76848609031E+03  0.81020439384E+03  0.00000000000E+00 0.  1.
          3    1    3    3  501    0  0.68352262444E+02  0.25429071302E+03 -0.11326441352E+03  0.28664372640E+03  0.00000000000E+00 0.  1.
         21    1    1    2  502  501 -0.28422510671E+02 -0.78350656935E+00  0.81871862879E+01  0.29588562228E+02  0.00000000000E+00 0.  1.
<mgrwt>
<rscale>  1 0.30000000E+03</rscale>
<asrwt>0</asrwt>
<pdfrwt beam="1">  1        1 0.45977072E+00 0.30000000E+03</pdfrwt>
<pdfrwt beam="2">0</pdfrwt>
<totfact> 0.44226907E-01</totfact>
</mgrwt>
</event>
<event>
 6    1  0.5260809E-006  0.3000000E+03  0.7818608E-02  0.1093470E+00
          1   -1    0    0  502    0  0.00000000000E+00  0.00000000000E+00  0.13145644279E+03  0.13145644279E+03  0.00000000000E+00 0.  1.
         13   -1    0    0    0    0 -0.00000000000E+00 -0.00000000000E+00 -0.10000000000E+04  0.10000000000E+04  0.00000000000E+00 0.  1.
    9000005    2    1    2  501    0  0.88866024527E+01 -0.36849252107E+02 -0.87332230259E+03  0.10932507431E+04  0.65655807353E+03 0.  0.
         13    1    3    3    0    0 -0.31091885262E+03  0.78784791549E+01 -0.28360206464E+03  0.42090703774E+03  0.00000000000E+00 0.  1.
          1    1    3    3  501    0  0.31980545508E+03 -0.44727731262E+02 -0.58972023795E+03  0.67234370532E+03  0.00000000000E+00 0.  1.
         21    1    1    2  502  501 -0.88866024527E+01  0.36849252107E+02  0.47787453859E+01  0.38205699725E+02  0.00000000000E+00 0. -1.
<mgrwt>
<rscale>  1 0.30000000E+03</rscale>
<asrwt>0</asrwt>
<pdfrwt beam="1">  1        1 0.47802444E+00 0.30000000E+03</pdfrwt>
<pdfrwt beam="2">0</pdfrwt>
<totfact> 0.32996680E-01</totfact>
</mgrwt>
</event>
<event>
 6    1  0.5260809E-006  0.3000000E+03  0.7818608E-02  0.1093470E+00
          1   -1    0    0  502    0  0.00000000000E+00  0.00000000000E+00  0.11875658110E+03  0.11875658110E+03  0.00000000000E+00 0.  1.
         13   -1    0    0    0    0 -0.00000000000E+00 -0.00000000000E+00 -0.10000000000E+04  0.10000000000E+04  0.00000000000E+00 0.  1.
    9000005    2    1    2  501    0  0.91937176145E+01  0.48416445612E+01 -0.89401132419E+03  0.11022949478E+04  0.64474020985E+03 0.  0.
         13    1    3    3    0    0  0.29606162495E+03  0.12949065411E+03 -0.36282801682E+03  0.48586467773E+03  0.00000000000E+00 0.  1.
          3    1    3    3  501    0 -0.28686790733E+03 -0.12464900955E+03 -0.53118330736E+03  0.61643027007E+03  0.00000000000E+00 0.  1.
         21    1    1    2  502  501 -0.91937176145E+01 -0.48416445612E+01  0.12767905283E+02  0.16461633301E+02  0.00000000000E+00 0.  1.
<mgrwt>
<rscale>  1 0.30000000E+03</rscale>
<asrwt>0</asrwt>
<pdfrwt beam="1">  1        1 0.43184302E+00 0.30000000E+03</pdfrwt>
<pdfrwt beam="2">0</pdfrwt>
<totfact> 0.67625320E-01</totfact>
</mgrwt>
</event>
<event>
 6    1  0.5260809E-006  0.3000000E+03  0.7818608E-02  0.1093470E+00
          1   -1    0    0  502    0  0.00000000000E+00  0.00000000000E+00  0.11263481655E+03  0.11263481655E+03  0.00000000000E+00 0.  1.
         13   -1    0    0    0    0 -0.00000000000E+00 -0.00000000000E+00 -0.10000000000E+04  0.10000000000E+04  0.00000000000E+00 0.  1.
    9000005    2    1    2  501    0 -0.16945745174E+02  0.46066143333E+01 -0.88280303961E+03  0.10944911584E+04  0.64673125010E+03 0.  0.
         13    1    3    3    0    0 -0.20319136923E+03 -0.22611426146E+03 -0.24251924047E+03  0.38888298210E+03  0.00000000000E+00 0.  1.
          3    1    3    3  501    0  0.18624562406E+03  0.23072087579E+03 -0.64028379914E+03  0.70560817629E+03  0.00000000000E+00 0.  1.
         21    1    1    2  502  501  0.16945745174E+02 -0.46066143333E+01 -0.45621438443E+01  0.18143658164E+02  0.00000000000E+00 0.  1.
<mgrwt>
<rscale>  1 0.30000000E+03</rscale>
<asrwt>0</asrwt>
<pdfrwt beam="1">  1        1 0.40958201E+00 0.30000000E+03</pdfrwt>
<pdfrwt beam="2">0</pdfrwt>
<totfact> 0.92660487E-01</totfact>
</mgrwt>
</event>
<event>
 6    1  0.5260809E-006  0.3000000E+03  0.7818608E-02  0.1093470E+00
          1   -1    0    0  502    0  0.00000000000E+00  0.00000000000E+00  0.11745158344E+03  0.11745158344E+03  0.00000000000E+00 0.  1.
         13   -1    0    0    0    0 -0.00000000000E+00 -0.00000000000E+00 -0.10000000000E+04  0.10000000000E+04  0.00000000000E+00 0.  1.
    9000005    2    1    2  501    0  0.39116815219E+01  0.17773733198E+02 -0.88307376628E+03  0.10992449133E+04  0.65436144137E+03 0.  0.
         13    1    3    3    0    0 -0.27862782193E+03  0.15416381757E+03 -0.30191362050E+03  0.43880722424E+03  0.00000000000E+00 0.  1.
          1    1    3    3  501    0  0.28253950346E+03 -0.13639008437E+03 -0.58116014577E+03  0.66043768909E+03  0.00000000000E+00 0.  1.
         21    1    1    2  502  501 -0.39116815219E+01 -0.17773733198E+02  0.52534971468E+00  0.18206670109E+02  0.00000000000E+00 0. -1.
<mgrwt>
<rscale>  1 0.30000000E+03</rscale>
<asrwt>0</asrwt>
<pdfrwt beam="1">  1        1 0.42709757E+00 0.30000000E+03</pdfrwt>
<pdfrwt beam="2">0</pdfrwt>
<totfact> 0.72449390E-01</totfact>
</mgrwt>
</event>
<event>
 6    1  0.5260809E-006  0.3000000E+03  0.7818608E-02  0.1093470E+00
          1   -1    0    0  502    0  0.00000000000E+00  0.00000000000E+00  0.11663986080E+03  0.11663986080E+03  0.00000000000E+00 0.  1.
         13   -1    0    0    0    0 -0.00000000000E+00 -0.00000000000E+00 -0.10000000000E+04  0.10000000000E+04  0.00000000000E+00 0.  1.
    9000005    2    1    2  501    0 -0.22737870727E+01  0.22967679626E+02 -0.88021195216E+03  0.10933461815E+04  0.64815129977E+03 0.  0.
         13    1    3    3    0    0 -0.50690140310E+02  0.19731861216E+03 -0.88913661560E+03  0.91217763963E+03  0.00000000000E+00 0.  1.
          1    1    3    3  501    0  0.48416353238E+02 -0.17435093253E+03  0.89246634423E+01  0.18116854184E+03  0.00000000000E+00 0.  1.
         21    1    1    2  502  501  0.22737870727E+01 -0.22967679626E+02 -0.31481870404E+01  0.23293679329E+02  0.00000000000E+00 0. -1.
<mgrwt>
<rscale>  1 0.30000000E+03</rscale>
<asrwt>0</asrwt>
<pdfrwt beam="1">  1        1 0.42414584E+00 0.30000000E+03</pdfrwt>
<pdfrwt beam="2">0</pdfrwt>
<totfact> 0.75597224E-01</totfact>
</mgrwt>
</event>
<event>
 6    1  0.5260809E-006  0.3000000E+03  0.7818608E-02  0.1093470E+00
          1   -1    0    0  502    0  0.00000000000E+00  0.00000000000E+00  0.11418668979E+03  0.11418668979E+03  0.00000000000E+00 0.  1.
         13   -1    0    0    0    0 -0.00000000000E+00 -0.00000000000E+00 -0.10000000000E+04  0.10000000000E+04  0.00000000000E+00 0.  1.
    9000005    2    1    2  501    0  0.27701295438E+02  0.18752929986E+02 -0.87212113766E+03  0.10780410159E+04  0.63281760331E+03 0.  0.
         13    1    3    3    0    0  0.28266025739E+03  0.82914028459E+02 -0.19924522312E+03  0.35562651217E+03  0.00000000000E+00 0.  1.
          3    1    3    3  501    0 -0.25495896195E+03 -0.64161098473E+02 -0.67287591453E+03  0.72241450373E+03  0.00000000000E+00 0.  1.
         21    1    1    2  502  501 -0.27701295438E+02 -0.18752929986E+02 -0.13692172552E+02  0.36145673893E+02  0.00000000000E+00 0.  1.
<mgrwt>
<rscale>  1 0.30000000E+03</rscale>
<asrwt>0</asrwt>
<pdfrwt beam="1">  1        1 0.41522520E+00 0.30000000E+03</pdfrwt>
<pdfrwt beam="2">0</pdfrwt>
<totfact> 0.85751865E-01</totfact>
</mgrwt>
</event>
<event>
 6    1  0.5260809E-006  0.3000000E+03  0.7818608E-02  0.1093470E+00
          1   -1    0    0  502    0  0.00000000000E+00  0.00000000000E+00  0.12729956945E+03  0.12729956945E+03  0.00000000000E+00 0.  1.
         13   -1    0    0    0    0 -0.00000000000E+00 -0.00000000000E+00 -0.10000000000E+04  0.10000000000E+04  0.00000000000E+00 0.  1.
    9000005    2    1    2  501    0  0.16090938505E+01  0.24799448800E+02 -0.89558329566E+03  0.10935175127E+04  0.62697169731E+03 0.  0.
         13    1    3    3    0    0 -0.16477855617E+03 -0.44866221193E+02  0.91063281493E+01  0.17102010288E+03  0.00000000000E+00 0.  1.
          3    1    3    3  501    0  0.16638765002E+03  0.69665669993E+02 -0.90468962381E+03  0.92249740980E+03  0.00000000000E+00 0.  1.
         21    1    1    2  502  501 -0.16090938505E+01 -0.24799448800E+02  0.22882865115E+02  0.33782056771E+02  0.00000000000E+00 0.  1.
<mgrwt>
<rscale>  1 0.30000000E+03</rscale>
<asrwt>0</asrwt>
<pdfrwt beam="1">  1        1 0.46290850E+00 0.30000000E+03</pdfrwt>
<pdfrwt beam="2">0</pdfrwt>
<totfact> 0.42107554E-01</totfact>
</mgrwt>
</event>
<event>
 6    1  0.5260809E-006  0.3000000E+03  0.7818608E-02  0.1093470E+00
          1   -1    0    0  502    0  0.00000000000E+00  0.00000000000E+00  0.12126402530E+03  0.12126402530E+03  0.00000000000E+00 0.  1.
         13   -1    0    0    0    0 -0.00000000000E+00 -0.00000000000E+00 -0.10000000000E+04  0.10000000000E+04  0.00000000000E+00 0.  1.
    9000005    2    1    2  501    0  0.51432789329E+01  0.36044919463E+02 -0.81758215218E+03  0.10500918429E+04  0.65797159016E+03 0.  0.
         13    1    3    3    0    0 -0.31980441118E+03 -0.30007096969E+02 -0.47411723865E+03  0.57268005315E+03  0.00000000000E+00 0.  1.
          3    1    3    3  501    0  0.32494769012E+03  0.66052016432E+02 -0.34346491352E+03  0.47741178977E+03  0.00000000000E+00 0.  1.
         21    1    1    2  502  501 -0.51432789329E+01 -0.36044919463E+02 -0.61153822519E+02  0.71172182389E+02  0.00000000000E+00 0.  1.
<mgrwt>
<rscale>  1 0.30000000E+03</rscale>
<asrwt>0</asrwt>
<pdfrwt beam="1">  1        1 0.44096102E+00 0.30000000E+03</pdfrwt>
<pdfrwt beam="2">0</pdfrwt>
<totfact> 0.59085737E-01</totfact>
</mgrwt>
</event>
<event>
 6    1  0.5260809E-006  0.3000000E+03  0.7818608E-02  0.1093470E+00
          1   -1    0    0  502    0  0.00000000000E+00  0.00000000000E+00  0.11242864824E+03  0.11242864824E+03  0.00000000000E+00 0.  1.
         13   -1    0    0    0    0 -0.00000000000E+00 -0.00000000000E+00 -0.10000000000E+04  0.10000000000E+04  0.00000000000E+00 0.  1.
    9000005    2    1    2  501    0 -0.98422740250E+01  0.49808623343E+01 -0.88076756679E+03  0.10994682919E+04  0.65799493823E+03 0.  0.
         13    1    3    3    0    0 -0.16806543913E+03  0.13002181218E+03 -0.17781390252E+02  0.21323189562E+03  0.00000000000E+00 0.  1.
          1    1    3    3  501    0  0.15822316510E+03 -0.12504094984E+03 -0.86298617654E+03  0.88623639623E+03  0.00000000000E+00 0.  1.
         21    1    1    2  502  501  0.98422740250E+01 -0.49808623343E+01 -0.68037849717E+01  0.12960356381E+02  0.00000000000E+00 0.  1.
<mgrwt>
<rscale>  1 0.30000000E+03</rscale>
<asrwt>0</asrwt>
<pdfrwt beam="1">  1        1 0.40883231E+00 0.30000000E+03</pdfrwt>
<pdfrwt beam="2">0</pdfrwt>
<totfact> 0.93608406E-01</totfact>
</mgrwt>
</event>
<event>
 6    1  0.5260809E-006  0.3000000E+03  0.7818608E-02  0.1093470E+00
          1   -1    0    0  502    0  0.00000000000E+00  0.00000000000E+00  0.10684499858E+03  0.10684499858E+03  0.00000000000E+00 0.  1.
         13   -1    0    0    0    0 -0.00000000000E+00 -0.00000000000E+00 -0.10000000000E+04  0.10000000000E+04  0.00000000000E+00 0.  1.
    9000005    2    1    2  501    0  0.98414904703E+01  0.83014925533E+01 -0.89511509861E+03  0.10938214931E+04  0.62852895664E+03 0.  0.
         13    1    3    3    0    0 -0.23048286255E+03  0.18896157829E+03 -0.61261664657E+03  0.68126939139E+03  0.00000000000E+00 0.  1.
          1    1    3    3  501    0  0.24032435302E+03 -0.18066008574E+03 -0.28249845205E+03  0.41255210173E+03  0.00000000000E+00 0.  1.
         21    1    1    2  502  501 -0.98414904703E+01 -0.83014925533E+01  0.19600971906E+01  0.13023505453E+02  0.00000000000E+00 0. -1.
<mgrwt>
<rscale>  1 0.30000000E+03</rscale>
<asrwt>0</asrwt>
<pdfrwt beam="1">  1        1 0.38852809E+00 0.30000000E+03</pdfrwt>
<pdfrwt beam="2">0</pdfrwt>
<totfact> 0.12221235E+00</totfact>
</mgrwt>
</event>
<event>
 6    1  0.5260809E-006  0.3000000E+03  0.7818608E-02  0.1093470E+00
          1   -1    0    0  502    0  0.00000000000E+00  0.00000000000E+00  0.11453641041E+03  0.11453641041E+03  0.00000000000E+00 0.  1.
         13   -1    0    0    0    0 -0.00000000000E+00 -0.00000000000E+00 -0.10000000000E+04  0.10000000000E+04  0.00000000000E+00 0.  1.
    9000005    2    1    2  501    0 -0.15431507763E+02  0.18465286488E+02 -0.87218628418E+03  0.10870521408E+04  0.64837824167E+03 0.  0.
         13    1    3    3    0    0  0.35870024838E+02  0.32760351505E+03 -0.51997153215E+03  0.61561442153E+03  0.00000000000E+00 0.  1.
          1    1    3    3  501    0 -0.51301532601E+02 -0.30913822856E+03 -0.35221475204E+03  0.47143771928E+03  0.00000000000E+00 0.  1.
         21    1    1    2  502  501  0.15431507763E+02 -0.18465286488E+02 -0.13277305407E+02  0.27484269606E+02  0.00000000000E+00 0.  1.
<mgrwt>
<rscale>  1 0.30000000E+03</rscale>
<asrwt>0</asrwt>
<pdfrwt beam="1">  1        1 0.41649692E+00 0.30000000E+03</pdfrwt>
<pdfrwt beam="2">0</pdfrwt>
<totfact> 0.84249308E-01</totfact>
</mgrwt>
</event>
<event>
 6    1  0.5260809E-006  0.3000000E+03  0.7818608E-02  0.1093470E+00
          1   -1    0    0  502    0  0.00000000000E+00  0.00000000000E+00  0.13356056843E+03  0.13356056843E+03  0.00000000000E+00 0.  1.
         13   -1    0    0    0    0 -0.00000000000E+00 -0.00000000000E+00 -0.10000000000E+04  0.10000000000E+04  0.00000000000E+00 0.  1.
    9000005    2    1    2  501    0 -0.68294445611E+01  0.11345019155E+02 -0.89208096240E+03  0.11047016205E+04  0.65144598862E+03 0.  0.
         13    1    3    3    0    0 -0.57662527414E+02  0.32618941723E+03 -0.49079725521E+03  0.59212029918E+03  0.00000000000E+00 0.  1.
          3    1    3    3  501    0  0.50833082853E+02 -0.31484439807E+03 -0.40128370719E+03  0.51258132132E+03  0.00000000000E+00 0.  1.
         21    1    1    2  502  501  0.68294445611E+01 -0.11345019155E+02  0.25641530826E+02  0.28858947932E+02  0.00000000000E+00 0. -1.
<mgrwt>
<rscale>  1 0.30000000E+03</rscale>
<asrwt>0</asrwt>
<pdfrwt beam="1">  1        1 0.48567582E+00 0.30000000E+03</pdfrwt>
<pdfrwt beam="2">0</pdfrwt>
<totfact> 0.29065289E-01</totfact>
</mgrwt>
</event>
<event>
 6    1  0.5260809E-006  0.3000000E+03  0.7818608E-02  0.1093470E+00
          1   -1    0    0  502    0  0.00000000000E+00  0.00000000000E+00  0.74044963829E+02  0.74044963829E+02  0.00000000000E+00 0.  1.
         13   -1    0    0    0    0 -0.00000000000E+00 -0.00000000000E+00 -0.10000000000E+04  0.10000000000E+04  0.00000000000E+00 0.  1.
    9000005    2    1    2  501    0  0.12205132942E+02 -0.25720017867E+01 -0.92860655808E+03  0.10612930608E+04  0.51368982923E+03 0.  0.
         13    1    3    3    0    0  0.16289586399E+03 -0.13759626061E+03 -0.16023181623E+03  0.26672463023E+03  0.00000000000E+00 0.  1.
          3    1    3    3  501    0 -0.15069073104E+03  0.13502425882E+03 -0.76837474185E+03  0.79456843054E+03  0.00000000000E+00 0.  1.
         21    1    1    2  502  501 -0.12205132942E+02  0.25720017867E+01  0.26515219118E+01  0.12751903065E+02  0.00000000000E+00 0. -1.
<mgrwt>
<rscale>  1 0.30000000E+03</rscale>
<asrwt>0</asrwt>
<pdfrwt beam="1">  1        1 0.26925498E+00 0.30000000E+03</pdfrwt>
<pdfrwt beam="2">0</pdfrwt>
<totfact> 0.48469775E+00</totfact>
</mgrwt>
</event>
<event>
 6    1  0.5260809E-006  0.3000000E+03  0.7818608E-02  0.1093470E+00
          1   -1    0    0  502    0  0.00000000000E+00  0.00000000000E+00  0.14065750720E+03  0.14065750720E+03  0.00000000000E+00 0.  1.
         13   -1    0    0    0    0 -0.00000000000E+00 -0.00000000000E+00 -0.10000000000E+04  0.10000000000E+04  0.00000000000E+00 0.  1.
    9000005    2    1    2  501    0  0.37246966520E+02 -0.58330340673E+02 -0.79982185197E+03  0.10493751330E+04  0.67578355239E+03 0.  0.
         13    1    3    3    0    0  0.12178880692E+02 -0.34815972336E+03 -0.25492104662E+03  0.43168073632E+03  0.00000000000E+00 0.  1.
          3    1    3    3  501    0  0.25068085828E+02  0.28982938269E+03 -0.54490080535E+03  0.61769439666E+03  0.00000000000E+00 0.  1.
         21    1    1    2  502  501 -0.37246966520E+02  0.58330340673E+02 -0.59520640831E+02  0.91282374218E+02  0.00000000000E+00 0.  1.
<mgrwt>
<rscale>  1 0.30000000E+03</rscale>
<asrwt>0</asrwt>
<pdfrwt beam="1">  1        1 0.51148292E+00 0.30000000E+03</pdfrwt>
<pdfrwt beam="2">0</pdfrwt>
<totfact> 0.18813513E-01</totfact>
</mgrwt>
</event>
<event>
 6    1  0.5260809E-006  0.3000000E+03  0.7818608E-02  0.1093470E+00
          1   -1    0    0  502    0  0.00000000000E+00  0.00000000000E+00  0.91015102141E+02  0.91015102141E+02  0.00000000000E+00 0.  1.
         13   -1    0    0    0    0 -0.00000000000E+00 -0.00000000000E+00 -0.10000000000E+04  0.10000000000E+04  0.00000000000E+00 0.  1.
    9000005    2    1    2  501    0  0.43457544604E+01 -0.91114907299E+01 -0.92650367425E+03  0.10707959931E+04  0.53674304424E+03 0.  0.
         13    1    3    3    0    0  0.23729408621E+03  0.34832183238E+02 -0.71122859078E+03  0.75057835878E+03  0.00000000000E+00 0.  1.
          1    1    3    3  501    0 -0.23294833175E+03 -0.43943673968E+02 -0.21527508348E+03  0.32021763429E+03  0.00000000000E+00 0.  1.
         21    1    1    2  502  501 -0.43457544604E+01  0.91114907299E+01  0.17518776391E+02  0.20219109065E+02  0.00000000000E+00 0.  1.
<mgrwt>
<rscale>  1 0.30000000E+03</rscale>
<asrwt>0</asrwt>
<pdfrwt beam="1">  1        1 0.33096471E+00 0.30000000E+03</pdfrwt>
<pdfrwt beam="2">0</pdfrwt>
<totfact> 0.24589696E+00</totfact>
</mgrwt>
</event>
<event>
 6    1  0.5260809E-006  0.3000000E+03  0.7818608E-02  0.1093470E+00
          1   -1    0    0  502    0  0.00000000000E+00  0.00000000000E+00  0.80263617523E+02  0.80263617523E+02  0.00000000000E+00 0.  1.
         13   -1    0    0    0    0 -0.00000000000E+00 -0.00000000000E+00 -0.10000000000E+04  0.10000000000E+04  0.00000000000E+00 0.  1.
    9000005    2    1    2  501    0 -0.11135006977E+02  0.24256490265E+02 -0.93708958861E+03  0.10484281112E+04  0.46941691656E+03 0.  0.
         13    1    3    3    0    0  0.20803088134E+03  0.53385116360E+02 -0.65926545174E+03  0.69336696928E+03  0.00000000000E+00 0.  1.
          3    1    3    3  501    0 -0.21916588832E+03 -0.29128626095E+02 -0.27782413687E+03  0.35506114191E+03  0.00000000000E+00 0.  1.
         21    1    1    2  502  501  0.11135006977E+02 -0.24256490265E+02  0.17353206135E+02  0.31835506334E+02  0.00000000000E+00 0. -1.
<mgrwt>
<rscale>  1 0.30000000E+03</rscale>
<asrwt>0</asrwt>
<pdfrwt beam="1">  1        1 0.29186832E+00 0.30000000E+03</pdfrwt>
<pdfrwt beam="2">0</pdfrwt>
<totfact> 0.37965364E+00</totfact>
</mgrwt>
</event>
<event>
 6    1  0.5260809E-006  0.3000000E+03  0.7818608E-02  0.1093470E+00
          1   -1    0    0  502    0  0.00000000000E+00  0.00000000000E+00  0.78717541630E+02  0.78717541630E+02  0.00000000000E+00 0.  1.
         13   -1    0    0    0    0 -0.00000000000E+00 -0.00000000000E+00 -0.10000000000E+04  0.10000000000E+04  0.00000000000E+00 0.  1.
    9000005    2    1    2  501    0  0.30001770287E+02 -0.22360979890E+02 -0.90751406255E+03  0.10388466454E+04  0.50420279582E+03 0.  0.
         13    1    3    3    0    0  0.15154002329E+03 -0.28904622330E+02 -0.35401653086E+02  0.15828181478E+03  0.00000000000E+00 0.  1.
          3    1    3    3  501    0 -0.12153825300E+03  0.65436424398E+01 -0.87211240946E+03  0.88056483062E+03  0.00000000000E+00 0.  1.
         21    1    1    2  502  501 -0.30001770287E+02  0.22360979890E+02 -0.13768395824E+02  0.39870896222E+02  0.00000000000E+00 0.  1.
<mgrwt>
<rscale>  1 0.30000000E+03</rscale>
<asrwt>0</asrwt>
<pdfrwt beam="1">  1        1 0.28624621E+00 0.30000000E+03</pdfrwt>
<pdfrwt beam="2">0</pdfrwt>
<totfact> 0.40360225E+00</totfact>
</mgrwt>
</event>
<event>
 6    1  0.5260809E-006  0.3000000E+03  0.7818608E-02  0.1093470E+00
          1   -1    0    0  502    0  0.00000000000E+00  0.00000000000E+00  0.11027702223E+03  0.11027702223E+03  0.00000000000E+00 0.  1.
         13   -1    0    0    0    0 -0.00000000000E+00 -0.00000000000E+00 -0.10000000000E+04  0.10000000000E+04  0.00000000000E+00 0.  1.
    9000005    2    1    2  501    0  0.10896114898E+02  0.27507994779E+01 -0.88700851703E+03  0.10987158582E+04  0.64827936529E+03 0.  0.
         13    1    3    3    0    0  0.54736489326E+02  0.16134417461E+03  0.24807471925E+02  0.17217269414E+03  0.00000000000E+00 0.  1.
          3    1    3    3  501    0 -0.43840374428E+02 -0.15859337513E+03 -0.91181598895E+03  0.92654316401E+03  0.00000000000E+00 0.  1.
         21    1    1    2  502  501 -0.10896114898E+02 -0.27507994779E+01 -0.27144607433E+01  0.11561164075E+02  0.00000000000E+00 0. -1.
<mgrwt>
<rscale>  1 0.30000000E+03</rscale>
<asrwt>0</asrwt>
<pdfrwt beam="1">  1        1 0.40100820E+00 0.30000000E+03</pdfrwt>
<pdfrwt beam="2">0</pdfrwt>
<totfact> 0.10393009E+00</totfact>
</mgrwt>
</event>
<event>
 6    1  0.5260809E-006  0.3000000E+03  0.7818608E-02  0.1093470E+00
          1   -1    0    0  502    0  0.00000000000E+00  0.00000000000E+00  0.11973087058E+03  0.11973087058E+03  0.00000000000E+00 0.  1.
         13   -1    0    0    0    0 -0.00000000000E+00 -0.00000000000E+00 -0.10000000000E+04  0.10000000000E+04  0.00000000000E+00 0.  1.
    9000005    2    1    2  501    0  0.66507899991E+01  0.29008620383E+02 -0.87040524113E+03  0.10883775716E+04  0.65274399388E+03 0.  0.
         13    1    3    3    0    0  0.17231214753E+03  0.27775027455E+03 -0.29642351313E+03  0.44125229782E+03  0.00000000000E+00 0.  1.
          3    1    3    3  501    0 -0.16566135753E+03 -0.24874165417E+03 -0.57398172800E+03  0.64712527379E+03  0.00000000000E+00 0.  1.
         21    1    1    2  502  501 -0.66507899991E+01 -0.29008620383E+02 -0.98638882873E+01  0.31353298970E+02  0.00000000000E+00 0.  1.
<mgrwt>
<rscale>  1 0.30000000E+03</rscale>
<asrwt>0</asrwt>
<pdfrwt beam="1">  1        1 0.43538590E+00 0.30000000E+03</pdfrwt>
<pdfrwt beam="2">0</pdfrwt>
<totfact> 0.64199391E-01</totfact>
</mgrwt>
</event>
<event>
 6    1  0.5260809E-006  0.3000000E+03  0.7818608E-02  0.1093470E+00
          1   -1    0    0  502    0  0.00000000000E+00  0.00000000000E+00  0.88017957087E+02  0.88017957087E+02  0.00000000000E+00 0.  1.
         13   -1    0    0    0    0 -0.00000000000E+00 -0.00000000000E+00 -0.10000000000E+04  0.10000000000E+04  0.00000000000E+00 0.  1.
    9000005    2    1    2  501    0  0.75816492698E+01 -0.19917591508E+02 -0.91790010327E+03  0.10658997452E+04  0.54143095169E+03 0.  0.
         13    1    3    3    0    0  0.24262861119E+03  0.94993045864E+02 -0.60032070227E+03  0.65442896276E+03  0.00000000000E+00 0.  1.
          3    1    3    3  501    0 -0.23504696192E+03 -0.11491063737E+03 -0.31757940100E+03  0.41147078247E+03  0.00000000000E+00 0.  1.
         21    1    1    2  502  501 -0.75816492698E+01  0.19917591508E+02  0.59180603592E+01  0.22118211852E+02  0.00000000000E+00 0. -1.
<mgrwt>
<rscale>  1 0.30000000E+03</rscale>
<asrwt>0</asrwt>
<pdfrwt beam="1">  1        1 0.32006597E+00 0.30000000E+03</pdfrwt>
<pdfrwt beam="2">0</pdfrwt>
<totfact> 0.27825018E+00</totfact>
</mgrwt>
</event>
<event>
 6    1  0.5260809E-006  0.3000000E+03  0.7818608E-02  0.1093470E+00
          1   -1    0    0  502    0  0.00000000000E+00  0.00000000000E+00  0.11516914605E+03  0.11516914605E+03  0.00000000000E+00 0.  1.
         13   -1    0    0    0    0 -0.00000000000E+00 -0.00000000000E+00 -0.10000000000E+04  0.10000000000E+04  0.00000000000E+00 0.  1.
    9000005    2    1    2  501    0  0.20126833552E+02  0.72975113955E+01 -0.87699092496E+03  0.10923698569E+04  0.65092279004E+03 0.  0.
         13    1    3    3    0    0 -0.80929910944E+02  0.21838282435E+03 -0.81871263249E+03  0.85119391624E+03  0.00000000000E+00 0.  1.
          3    1    3    3  501    0  0.10105674450E+03 -0.21108531296E+03 -0.58278292475E+02  0.24117594061E+03  0.00000000000E+00 0.  1.
         21    1    1    2  502  501 -0.20126833552E+02 -0.72975113955E+01 -0.78399289872E+01  0.22799289198E+02  0.00000000000E+00 0. -1.
<mgrwt>
<rscale>  1 0.30000000E+03</rscale>
<asrwt>0</asrwt>
<pdfrwt beam="1">  1        1 0.41879778E+00 0.30000000E+03</pdfrwt>
<pdfrwt beam="2">0</pdfrwt>
<totfact> 0.81576095E-01</totfact>
</mgrwt>
</event>
<event>
 6    1  0.5260809E-006  0.3000000E+03  0.7818608E-02  0.1093470E+00
          1   -1    0    0  502    0  0.00000000000E+00  0.00000000000E+00  0.11508488904E+03  0.11508488904E+03  0.00000000000E+00 0.  1.
         13   -1    0    0    0    0 -0.00000000000E+00 -0.00000000000E+00 -0.10000000000E+04  0.10000000000E+04  0.00000000000E+00 0.  1.
    9000005    2    1    2  501    0  0.16879432770E+01 -0.13393751220E+02 -0.89738967920E+03  0.10967040137E+04  0.63029296019E+03 0.  0.
         13    1    3    3    0    0  0.11292130276E+03  0.11121995131E+03 -0.91510557371E+03  0.92872994419E+03  0.00000000000E+00 0.  1.
          1    1    3    3  501    0 -0.11123335948E+03 -0.12461370254E+03  0.17715894508E+02  0.16797406954E+03  0.00000000000E+00 0.  1.
         21    1    1    2  502  501 -0.16879432770E+01  0.13393751220E+02  0.12474568246E+02  0.18380875310E+02  0.00000000000E+00 0. -1.
<mgrwt>
<rscale>  1 0.30000000E+03</rscale>
<asrwt>0</asrwt>
<pdfrwt beam="1">  1        1 0.41849139E+00 0.30000000E+03</pdfrwt>
<pdfrwt beam="2">0</pdfrwt>
<totfact> 0.81928725E-01</totfact>
</mgrwt>
</event>
<event>
 6    1  0.5260809E-006  0.3000000E+03  0.7818608E-02  0.1093470E+00
          1   -1    0    0  502    0  0.00000000000E+00  0.00000000000E+00  0.11520502672E+03  0.11520502672E+03  0.00000000000E+00 0.  1.
         13   -1    0    0    0    0 -0.00000000000E+00 -0.00000000000E+00 -0.10000000000E+04  0.10000000000E+04  0.00000000000E+00 0.  1.
    9000005    2    1    2  501    0  0.56579944940E+01 -0.13680613170E+02 -0.87171232937E+03  0.10954483152E+04  0.66325368751E+03 0.  0.
         13    1    3    3    0    0 -0.32579433251E+03  0.37378989030E+02 -0.42033528939E+03  0.53312371118E+03  0.00000000000E+00 0.  1.
          3    1    3    3  501    0  0.33145232701E+03 -0.51059602200E+02 -0.45137703999E+03  0.56232460402E+03  0.00000000000E+00 0.  1.
         21    1    1    2  502  501 -0.56579944940E+01  0.13680613170E+02 -0.13082643911E+02  0.19756711520E+02  0.00000000000E+00 0. -1.
<mgrwt>
<rscale>  1 0.30000000E+03</rscale>
<asrwt>0</asrwt>
<pdfrwt beam="1">  1        1 0.41892825E+00 0.30000000E+03</pdfrwt>
<pdfrwt beam="2">0</pdfrwt>
<totfact> 0.81426247E-01</totfact>
</mgrwt>
</event>
<event>
 6    1  0.5260809E-006  0.3000000E+03  0.7818608E-02  0.1093470E+00
          1   -1    0    0  502    0  0.00000000000E+00  0.00000000000E+00  0.10554821995E+03  0.10554821995E+03  0.00000000000E+00 0.  1.
         13   -1    0    0    0    0 -0.00000000000E+00 -0.00000000000E+00 -0.10000000000E+04  0.10000000000E+04  0.00000000000E+00 0.  1.
    9000005    2    1    2  501    0 -0.12158775100E+01  0.10073371978E+02 -0.89198477823E+03  0.10951061283E+04  0.63523038054E+03 0.  0.
         13    1    3    3    0    0  0.26420135722E+03 -0.30248014300E+02 -0.14837670772E+03  0.30452084809E+03  0.00000000000E+00 0.  1.
          3    1    3    3  501    0 -0.26541723473E+03  0.40321386278E+02 -0.74360807051E+03  0.79058528016E+03  0.00000000000E+00 0.  1.
         21    1    1    2  502  501  0.12158775100E+01 -0.10073371978E+02 -0.24670018119E+01  0.10442091699E+02  0.00000000000E+00 0.  1.
<mgrwt>
<rscale>  1 0.30000000E+03</rscale>
<asrwt>0</asrwt>
<pdfrwt beam="1">  1        1 0.38381252E+00 0.30000000E+03</pdfrwt>
<pdfrwt beam="2">0</pdfrwt>
<totfact> 0.12981014E+00</totfact>
</mgrwt>
</event>
<event>
 6    1  0.5260809E-006  0.3000000E+03  0.7818608E-02  0.1093470E+00
          1   -1    0    0  502    0  0.00000000000E+00  0.00000000000E+00  0.11568645879E+03  0.11568645879E+03  0.00000000000E+00 0.  1.
         13   -1    0    0    0    0 -0.00000000000E+00 -0.00000000000E+00 -0.10000000000E+04  0.10000000000E+04  0.00000000000E+00 0.  1.
    9000005    2    1    2  501    0  0.73613393768E+01 -0.10422885345E+02 -0.88909386204E+03  0.11020601121E+04  0.65106510377E+03 0.  0.
         13    1    3    3    0    0  0.18831217549E+01  0.27219082375E+03 -0.72683791455E+03  0.77613448880E+03  0.00000000000E+00 0.  1.
          3    1    3    3  501    0  0.54782176219E+01 -0.28261370910E+03 -0.16225594749E+03  0.32592562332E+03  0.00000000000E+00 0.  1.
         21    1    1    2  502  501 -0.73613393768E+01  0.10422885345E+02  0.47803208278E+01  0.13626346669E+02  0.00000000000E+00 0.  1.
<mgrwt>
<rscale>  1 0.30000000E+03</rscale>
<asrwt>0</asrwt>
<pdfrwt beam="1">  1        1 0.42067892E+00 0.30000000E+03</pdfrwt>
<pdfrwt beam="2">0</pdfrwt>
<totfact> 0.79434393E-01</totfact>
</mgrwt>
</event>
<event>
 6    1  0.5260809E-006  0.3000000E+03  0.7818608E-02  0.1093470E+00
          1   -1    0    0  502    0  0.00000000000E+00  0.00000000000E+00  0.12058728204E+03  0.12058728204E+03  0.00000000000E+00 0.  1.
         13   -1    0    0    0    0 -0.00000000000E+00 -0.00000000000E+00 -0.10000000000E+04  0.10000000000E+04  0.00000000000E+00 0.  1.
    9000005    2    1    2  501    0 -0.13798210244E+02 -0.77004305308E+01 -0.88534731806E+03  0.11037081021E+04  0.65884900687E+03 0.  0.
         13    1    3    3    0    0 -0.11259607915E+03 -0.23497638010E+03 -0.80038198864E+03  0.84172626428E+03  0.00000000000E+00 0.  1.
          1    1    3    3  501    0  0.98797868904E+02  0.22727594957E+03 -0.84965329425E+02  0.26198183784E+03  0.00000000000E+00 0.  1.
         21    1    1    2  502  501  0.13798210244E+02  0.77004305308E+01  0.59346001004E+01  0.16879179916E+02  0.00000000000E+00 0.  1.
<mgrwt>
<rscale>  1 0.30000000E+03</rscale>
<asrwt>0</asrwt>
<pdfrwt beam="1">  1        1 0.43850013E+00 0.30000000E+03</pdfrwt>
<pdfrwt beam="2">0</pdfrwt>
<totfact> 0.61302918E-01</totfact>
</mgrwt>
</event>
<event>
 6    1  0.5260809E-006  0.3000000E+03  0.7818608E-02  0.1093470E+00
          1   -1    0    0  502    0  0.00000000000E+00  0.00000000000E+00  0.14353226425E+03  0.14353226425E+03  0.00000000000E+00 0.  1.
         13   -1    0    0    0    0 -0.00000000000E+00 -0.00000000000E+00 -0.10000000000E+04  0.10000000000E+04  0.00000000000E+00 0.  1.
    9000005    2    1    2  501    0  0.12852082450E+02  0.18030522800E+02 -0.89211302545E+03  0.11015696326E+04  0.64583258633E+03 0.  0.
         13    1    3    3    0    0 -0.67892300944E+02 -0.29884497396E+03 -0.54097751513E+03  0.62175103929E+03  0.00000000000E+00 0.  1.
          3    1    3    3  501    0  0.80744383393E+02  0.31687549676E+03 -0.35113551032E+03  0.47981859333E+03  0.00000000000E+00 0.  1.
         21    1    1    2  502  501 -0.12852082450E+02 -0.18030522800E+02  0.35645289694E+02  0.41962631628E+02  0.00000000000E+00 0.  1.
<mgrwt>
<rscale>  1 0.30000000E+03</rscale>
<asrwt>0</asrwt>
<pdfrwt beam="1">  1        1 0.52193661E+00 0.30000000E+03</pdfrwt>
<pdfrwt beam="2">0</pdfrwt>
<totfact> 0.15719502E-01</totfact>
</mgrwt>
</event>
<event>
 6    1  0.5260809E-006  0.3000000E+03  0.7818608E-02  0.1093470E+00
          1   -1    0    0  502    0  0.00000000000E+00  0.00000000000E+00  0.11419811983E+03  0.11419811983E+03  0.00000000000E+00 0.  1.
         13   -1    0    0    0    0 -0.00000000000E+00 -0.00000000000E+00 -0.10000000000E+04  0.10000000000E+04  0.00000000000E+00 0.  1.
    9000005    2    1    2  501    0 -0.45341966133E+01 -0.17859963491E+02 -0.86641689443E+03  0.10874527481E+04  0.65691377459E+03 0.  0.
         13    1    3    3    0    0 -0.22746703241E+03 -0.15987551335E+03 -0.13368282633E+03  0.30850045164E+03  0.00000000000E+00 0.  1.
          3    1    3    3  501    0  0.22293283580E+03  0.14201554986E+03 -0.73273406810E+03  0.77895229650E+03  0.00000000000E+00 0.  1.
         21    1    1    2  502  501  0.45341966133E+01  0.17859963491E+02 -0.19384985738E+02  0.26745371691E+02  0.00000000000E+00 0.  1.
<mgrwt>
<rscale>  1 0.30000000E+03</rscale>
<asrwt>0</asrwt>
<pdfrwt beam="1">  1        1 0.41526677E+00 0.30000000E+03</pdfrwt>
<pdfrwt beam="2">0</pdfrwt>
<totfact> 0.85702446E-01</totfact>
</mgrwt>
</event>
<event>
 6    1  0.5260809E-006  0.3000000E+03  0.7818608E-02  0.1093470E+00
          1   -1    0    0  502    0  0.00000000000E+00  0.00000000000E+00  0.12510940166E+03  0.12510940166E+03  0.00000000000E+00 0.  1.
         13   -1    0    0    0    0 -0.00000000000E+00 -0.00000000000E+00 -0.10000000000E+04  0.10000000000E+04  0.00000000000E+00 0.  1.
    9000005    2    1    2  501    0 -0.18030310849E+02 -0.49667318382E+02 -0.82851719278E+03  0.10548070022E+04  0.65068051959E+03 0.  0.
         13    1    3    3    0    0 -0.16763073334E+03  0.17364818988E+03 -0.71865504761E+02  0.25183011611E+03  0.00000000000E+00 0.  1.
          3    1    3    3  501    0  0.14960042249E+03 -0.22331550826E+03 -0.75665168802E+03  0.80297688611E+03  0.00000000000E+00 0.  1.
         21    1    1    2  502  501  0.18030310849E+02  0.49667318382E+02 -0.46373405553E+02  0.70302399441E+02  0.00000000000E+00 0. -1.
<mgrwt>
<rscale>  1 0.30000000E+03</rscale>
<asrwt>0</asrwt>
<pdfrwt beam="1">  1        1 0.45494424E+00 0.30000000E+03</pdfrwt>
<pdfrwt beam="2">0</pdfrwt>
<totfact> 0.47665536E-01</totfact>
</mgrwt>
</event>
<event>
 6    1  0.5260809E-006  0.3000000E+03  0.7818608E-02  0.1093470E+00
          1   -1    0    0  502    0  0.00000000000E+00  0.00000000000E+00  0.11710440369E+03  0.11710440369E+03  0.00000000000E+00 0.  1.
         13   -1    0    0    0    0 -0.00000000000E+00 -0.00000000000E+00 -0.10000000000E+04  0.10000000000E+04  0.00000000000E+00 0.  1.
    9000005    2    1    2  501    0  0.76920114650E+01 -0.29848749135E+02 -0.86683552409E+03  0.10823475226E+04  0.64739649283E+03 0.  0.
         13    1    3    3    0    0 -0.94097629640E+01 -0.22450387618E+03 -0.34441318635E+02  0.22732518225E+03  0.00000000000E+00 0.  1.
          3    1    3    3  501    0  0.17101774429E+02  0.19465512704E+03 -0.83239420545E+03  0.85502234032E+03  0.00000000000E+00 0.  1.
         21    1    1    2  502  501 -0.76920114650E+01  0.29848749135E+02 -0.16060072225E+02  0.34756881119E+02  0.00000000000E+00 0.  1.
<mgrwt>
<rscale>  1 0.30000000E+03</rscale>
<asrwt>0</asrwt>
<pdfrwt beam="1">  1        1 0.42583509E+00 0.30000000E+03</pdfrwt>
<pdfrwt beam="2">0</pdfrwt>
<totfact> 0.73781886E-01</totfact>
</mgrwt>
</event>
<event>
 6    1  0.5260809E-006  0.3000000E+03  0.7818608E-02  0.1093470E+00
          1   -1    0    0  502    0  0.00000000000E+00  0.00000000000E+00  0.11733395277E+03  0.11733395277E+03  0.00000000000E+00 0.  1.
         13   -1    0    0    0    0 -0.00000000000E+00 -0.00000000000E+00 -0.10000000000E+04  0.10000000000E+04  0.00000000000E+00 0.  1.
    9000005    2    1    2  501    0 -0.24570615716E+01  0.31577717720E+02 -0.88033631881E+03  0.10855752210E+04  0.63441180385E+03 0.  0.
         13    1    3    3    0    0  0.10778217049E+03  0.96633199894E+02  0.44872503273E+02  0.15155366425E+03  0.00000000000E+00 0.  1.
          3    1    3    3  501    0 -0.11023923206E+03 -0.65055482174E+02 -0.92520882209E+03  0.93402155677E+03  0.00000000000E+00 0.  1.
         21    1    1    2  502  501  0.24570615716E+01 -0.31577717720E+02 -0.23297284111E+01  0.31758731751E+02  0.00000000000E+00 0. -1.
<mgrwt>
<rscale>  1 0.30000000E+03</rscale>
<asrwt>0</asrwt>
<pdfrwt beam="1">  1        1 0.42666982E+00 0.30000000E+03</pdfrwt>
<pdfrwt beam="2">0</pdfrwt>
<totfact> 0.72898508E-01</totfact>
</mgrwt>
</event>
<event>
 6    1  0.5260809E-006  0.3000000E+03  0.7818608E-02  0.1093470E+00
          1   -1    0    0  502    0  0.00000000000E+00  0.00000000000E+00  0.12064847881E+03  0.12064847881E+03  0.00000000000E+00 0.  1.
         13   -1    0    0    0    0 -0.00000000000E+00 -0.00000000000E+00 -0.10000000000E+04  0.10000000000E+04  0.00000000000E+00 0.  1.
    9000005    2    1    2  501    0 -0.16745363011E+02  0.10416739016E+02 -0.88499811149E+03  0.11001350779E+04  0.65321253562E+03 0.  0.
         13    1    3    3    0    0  0.31499104222E+03 -0.34486421310E+02 -0.47204729108E+03  0.56853963358E+03  0.00000000000E+00 0.  1.
          1    1    3    3  501    0 -0.33173640523E+03  0.44903160326E+02 -0.41295082041E+03  0.53159544434E+03  0.00000000000E+00 0.  1.
         21    1    1    2  502  501  0.16745363011E+02 -0.10416739016E+02  0.56465903013E+01  0.20513400891E+02  0.00000000000E+00 0. -1.
<mgrwt>
<rscale>  1 0.30000000E+03</rscale>
<asrwt>0</asrwt>
<pdfrwt beam="1">  1        1 0.43872267E+00 0.30000000E+03</pdfrwt>
<pdfrwt beam="2">0</pdfrwt>
<totfact> 0.61099882E-01</totfact>
</mgrwt>
</event>
<event>
 6    1  0.5260809E-006  0.3000000E+03  0.7818608E-02  0.1093470E+00
          1   -1    0    0  502    0  0.00000000000E+00  0.00000000000E+00  0.10726796379E+03  0.10726796379E+03  0.00000000000E+00 0.  1.
         13   -1    0    0    0    0 -0.00000000000E+00 -0.00000000000E+00 -0.10000000000E+04  0.10000000000E+04  0.00000000000E+00 0.  1.
    9000005    2    1    2  501    0 -0.69203847154E+00 -0.48146707818E+02 -0.85417314732E+03  0.10455802640E+04  0.60108879419E+03 0.  0.
         13    1    3    3    0    0 -0.12826170028E+00 -0.30011873006E+03 -0.24871263794E+03  0.38978102167E+03  0.00000000000E+00 0.  1.
          3    1    3    3  501    0 -0.56377677126E+00  0.25197202224E+03 -0.60546050938E+03  0.65579924234E+03  0.00000000000E+00 0.  1.
         21    1    1    2  502  501  0.69203847154E+00  0.48146707818E+02 -0.38558888898E+02  0.61687699779E+02  0.00000000000E+00 0.  1.
<mgrwt>
<rscale>  1 0.30000000E+03</rscale>
<asrwt>0</asrwt>
<pdfrwt beam="1">  1        1 0.39006615E+00 0.30000000E+03</pdfrwt>
<pdfrwt beam="2">0</pdfrwt>
<totfact> 0.11981773E+00</totfact>
</mgrwt>
</event>
<event>
 6    1  0.5260809E-006  0.3000000E+03  0.7818608E-02  0.1093470E+00
          1   -1    0    0  502    0  0.00000000000E+00  0.00000000000E+00  0.10898591948E+03  0.10898591948E+03  0.00000000000E+00 0.  1.
         13   -1    0    0    0    0 -0.00000000000E+00 -0.00000000000E+00 -0.10000000000E+04  0.10000000000E+04  0.00000000000E+00 0.  1.
    9000005    2    1    2  501    0 -0.18665204092E+02  0.35441193954E+02 -0.86677568575E+03  0.10621674631E+04  0.61261338727E+03 0.  0.
         13    1    3    3    0    0  0.19159385285E+03  0.24865523542E+03 -0.46638876117E+03  0.56218867571E+03  0.00000000000E+00 0.  1.
          3    1    3    3  501    0 -0.21025905694E+03 -0.21321404147E+03 -0.40038692459E+03  0.49997878743E+03  0.00000000000E+00 0.  1.
         21    1    1    2  502  501  0.18665204092E+02 -0.35441193954E+02 -0.24238394768E+02  0.46818456335E+02  0.00000000000E+00 0.  1.
<mgrwt>
<rscale>  1 0.30000000E+03</rscale>
<asrwt>0</asrwt>
<pdfrwt beam="1">  1        1 0.39631327E+00 0.30000000E+03</pdfrwt>
<pdfrwt beam="2">0</pdfrwt>
<totfact> 0.11051250E+00</totfact>
</mgrwt>
</event>
<event>
 6    1  0.5260809E-006  0.3000000E+03  0.7818608E-02  0.1093470E+00
          1   -1    0    0  502    0  0.00000000000E+00  0.00000000000E+00  0.12462375927E+03  0.12462375927E+03  0.00000000000E+00 0.  1.
         13   -1    0    0    0    0 -0.00000000000E+00 -0.00000000000E+00 -0.10000000000E+04  0.10000000000E+04  0.00000000000E+00 0.  1.
    9000005    2    1    2  501    0  0.10812262117E+02 -0.26187121095E+02 -0.87997292914E+03  0.10959218453E+04  0.65260222538E+03 0.  0.
         13    1    3    3    0    0 -0.16855764474E+03  0.26286147882E+03 -0.44784930501E+03  0.54596413495E+03  0.00000000000E+00 0.  1.
          3    1    3    3  501    0  0.17936990685E+03 -0.28904859992E+03 -0.43212362413E+03  0.54995771031E+03  0.00000000000E+00 0.  1.
         21    1    1    2  502  501 -0.10812262117E+02  0.26187121095E+02  0.45966884093E+01  0.28701914007E+02  0.00000000000E+00 0.  1.
<mgrwt>
<rscale>  1 0.30000000E+03</rscale>
<asrwt>0</asrwt>
<pdfrwt beam="1">  1        1 0.45317826E+00 0.30000000E+03</pdfrwt>
<pdfrwt beam="2">0</pdfrwt>
<totfact> 0.48985881E-01</totfact>
</mgrwt>
</event>
<event>
 6    1  0.5260809E-006  0.3000000E+03  0.7818608E-02  0.1093470E+00
          1   -1    0    0  502    0  0.00000000000E+00  0.00000000000E+00  0.97253078032E+02  0.97253078032E+02  0.00000000000E+00 0.  1.
         13   -1    0    0    0    0 -0.00000000000E+00 -0.00000000000E+00 -0.10000000000E+04  0.10000000000E+04  0.00000000000E+00 0.  1.
    9000005    2    1    2  501    0  0.15267388498E+02 -0.14216803599E+02 -0.89394261930E+03  0.10746096154E+04  0.59600101357E+03 0.  0.
         13    1    3    3    0    0 -0.12460319967E+03 -0.17589989925E+03 -0.82083441487E+03  0.84866711293E+03  0.00000000000E+00 0.  1.
          3    1    3    3  501    0  0.13987058816E+03  0.16168309565E+03 -0.73108204430E+02  0.22594250244E+03  0.00000000000E+00 0.  1.
         21    1    1    2  502  501 -0.15267388498E+02  0.14216803599E+02 -0.88043026636E+01  0.22643462666E+02  0.00000000000E+00 0. -1.
<mgrwt>
<rscale>  1 0.30000000E+03</rscale>
<asrwt>0</asrwt>
<pdfrwt beam="1">  1        1 0.35364830E+00 0.30000000E+03</pdfrwt>
<pdfrwt beam="2">0</pdfrwt>
<totfact> 0.18856355E+00</totfact>
</mgrwt>
</event>
<event>
 6    1  0.5260809E-006  0.3000000E+03  0.7818608E-02  0.1093470E+00
          1   -1    0    0  502    0  0.00000000000E+00  0.00000000000E+00  0.13161482573E+03  0.13161482573E+03  0.00000000000E+00 0.  1.
         13   -1    0    0    0    0 -0.00000000000E+00 -0.00000000000E+00 -0.10000000000E+04  0.10000000000E+04  0.00000000000E+00 0.  1.
    9000005    2    1    2  501    0  0.63040249361E+01  0.11895537961E+02 -0.87564194560E+03  0.11163208634E+04  0.69227321817E+03 0.  0.
         13    1    3    3    0    0  0.36536370075E+02 -0.33007420962E+03 -0.55384973932E+03  0.64578125084E+03  0.00000000000E+00 0.  1.
          1    1    3    3  501    0 -0.30232345139E+02  0.34196974758E+03 -0.32179220629E+03  0.47053961255E+03  0.00000000000E+00 0.  1.
         21    1    1    2  502  501 -0.63040249361E+01 -0.11895537961E+02  0.72567713358E+01  0.15293962338E+02  0.00000000000E+00 0. -1.
<mgrwt>
<rscale>  1 0.30000000E+03</rscale>
<asrwt>0</asrwt>
<pdfrwt beam="1">  1        1 0.47860038E+00 0.30000000E+03</pdfrwt>
<pdfrwt beam="2">0</pdfrwt>
<totfact> 0.32685478E-01</totfact>
</mgrwt>
</event>
<event>
 6    1  0.5260809E-006  0.3000000E+03  0.7818608E-02  0.1093470E+00
          1   -1    0    0  502    0  0.00000000000E+00  0.00000000000E+00  0.10607595155E+03  0.10607595155E+03  0.00000000000E+00 0.  1.
         13   -1    0    0    0    0 -0.00000000000E+00 -0.00000000000E+00 -0.10000000000E+04  0.10000000000E+04  0.00000000000E+00 0.  1.
    9000005    2    1    2  501    0  0.10037252208E+01 -0.11143681676E+02 -0.88558846052E+03  0.10921234918E+04  0.63901612729E+03 0.  0.
         13    1    3    3    0    0 -0.10847184714E+03  0.45491862694E+02  0.64448578545E+02  0.13412408609E+03  0.00000000000E+00 0.  1.
          1    1    3    3  501    0  0.10947557236E+03 -0.56635544370E+02 -0.95003703906E+03  0.95799940575E+03  0.00000000000E+00 0.  1.
         21    1    1    2  502  501 -0.10037252208E+01  0.11143681676E+02 -0.83355879306E+01  0.13952459703E+02  0.00000000000E+00 0.  1.
<mgrwt>
<rscale>  1 0.30000000E+03</rscale>
<asrwt>0</asrwt>
<pdfrwt beam="1">  1        1 0.38573155E+00 0.30000000E+03</pdfrwt>
<pdfrwt beam="2">0</pdfrwt>
<totfact> 0.12667140E+00</totfact>
</mgrwt>
</event>
<event>
 6    1  0.5260809E-006  0.3000000E+03  0.7818608E-02  0.1093470E+00
          1   -1    0    0  502    0  0.00000000000E+00  0.00000000000E+00  0.11525426179E+03  0.11525426179E+03  0.00000000000E+00 0.  1.
         13   -1    0    0    0    0 -0.00000000000E+00 -0.00000000000E+00 -0.10000000000E+04  0.10000000000E+04  0.00000000000E+00 0.  1.
    9000005    2    1    2  501    0 -0.15630140687E+02 -0.55596298732E+01 -0.87537277715E+03  0.10962000449E+04  0.65962248952E+03 0.  0.
         13    1    3    3    0    0 -0.22116285657E+03 -0.23162832833E+03 -0.62067812361E+03  0.69843111668E+03  0.00000000000E+00 0.  1.
          3    1    3    3  501    0  0.20553271588E+03  0.22606869846E+03 -0.25469465354E+03  0.39776892823E+03  0.00000000000E+00 0.  1.
         21    1    1    2  502  501  0.15630140687E+02  0.55596298732E+01 -0.93729610539E+01  0.19054216886E+02  0.00000000000E+00 0. -1.
<mgrwt>
<rscale>  1 0.30000000E+03</rscale>
<asrwt>0</asrwt>
<pdfrwt beam="1">  1        1 0.41910729E+00 0.30000000E+03</pdfrwt>
<pdfrwt beam="2">0</pdfrwt>
<totfact> 0.81220938E-01</totfact>
</mgrwt>
</event>
<event>
 6    1  0.5260809E-006  0.3000000E+03  0.7818608E-02  0.1093470E+00
          1   -1    0    0  502    0  0.00000000000E+00  0.00000000000E+00  0.71965993130E+02  0.71965993130E+02  0.00000000000E+00 0.  1.
         13   -1    0    0    0    0 -0.00000000000E+00 -0.00000000000E+00 -0.10000000000E+04  0.10000000000E+04  0.00000000000E+00 0.  1.
    9000005    2    1    2  501    0 -0.97028624701E+01 -0.90136803000E+01 -0.91660465805E+03  0.10544725090E+04  0.52112645404E+03 0.  0.
         13    1    3    3    0    0  0.19117574072E+03  0.12408540966E+03 -0.67830120751E+03  0.71556822235E+03  0.00000000000E+00 0.  1.
          1    1    3    3  501    0 -0.20087860319E+03 -0.13309908996E+03 -0.23830345054E+03  0.33890428664E+03  0.00000000000E+00 0.  1.
         21    1    1    2  502  501  0.97028624701E+01  0.90136803000E+01 -0.11429348821E+02  0.17493484134E+02  0.00000000000E+00 0. -1.
<mgrwt>
<rscale>  1 0.30000000E+03</rscale>
<asrwt>0</asrwt>
<pdfrwt beam="1">  1        1 0.26169507E+00 0.30000000E+03</pdfrwt>
<pdfrwt beam="2">0</pdfrwt>
<totfact> 0.52609100E+00</totfact>
</mgrwt>
</event>
<event>
 6    1  0.5260809E-006  0.3000000E+03  0.7818608E-02  0.1093470E+00
          1   -1    0    0  502    0  0.00000000000E+00  0.00000000000E+00  0.11550733112E+03  0.11550733112E+03  0.00000000000E+00 0.  1.
         13   -1    0    0    0    0 -0.00000000000E+00 -0.00000000000E+00 -0.10000000000E+04  0.10000000000E+04  0.00000000000E+00 0.  1.
    9000005    2    1    2  501    0 -0.25904562741E+02 -0.13436978845E+02 -0.86025519053E+03  0.10775724642E+04  0.64828375270E+03 0.  0.
         13    1    3    3    0    0 -0.32445354029E+03  0.73324689537E+02 -0.37506604774E+03  0.50131940923E+03  0.00000000000E+00 0.  1.
          1    1    3    3  501    0  0.29854897754E+03 -0.86761668382E+02 -0.48518914279E+03  0.57625305498E+03  0.00000000000E+00 0.  1.
         21    1    1    2  502  501  0.25904562741E+02  0.13436978845E+02 -0.24237478345E+02  0.37934866915E+02  0.00000000000E+00 0.  1.
<mgrwt>
<rscale>  1 0.30000000E+03</rscale>
<asrwt>0</asrwt>
<pdfrwt beam="1">  1        1 0.42002754E+00 0.30000000E+03</pdfrwt>
<pdfrwt beam="2">0</pdfrwt>
<totfact> 0.80171390E-01</totfact>
</mgrwt>
</event>
<event>
 6    1  0.5260809E-006  0.3000000E+03  0.7818608E-02  0.1093470E+00
          1   -1    0    0  502    0  0.00000000000E+00  0.00000000000E+00  0.10653424156E+03  0.10653424156E+03  0.00000000000E+00 0.  1.
         13   -1    0    0    0    0 -0.00000000000E+00 -0.00000000000E+00 -0.10000000000E+04  0.10000000000E+04  0.00000000000E+00 0.  1.
    9000005    2    1    2  501    0 -0.90987880764E+01  0.31198055348E+01 -0.87910170850E+03  0.10892470480E+04  0.64307604258E+03 0.  0.
         13    1    3    3    0    0 -0.23071531901E+03  0.68531544566E+02 -0.74232842036E+02  0.25186632539E+03  0.00000000000E+00 0.  1.
          3    1    3    3  501    0  0.22161653093E+03 -0.65411739031E+02 -0.80486886646E+03  0.83738072260E+03  0.00000000000E+00 0.  1.
         21    1    1    2  502  501  0.90987880764E+01 -0.31198055348E+01 -0.14364049939E+02  0.17287193575E+02  0.00000000000E+00 0.  1.
<mgrwt>
<rscale>  1 0.30000000E+03</rscale>
<asrwt>0</asrwt>
<pdfrwt beam="1">  1        1 0.38739806E+00 0.30000000E+03</pdfrwt>
<pdfrwt beam="2">0</pdfrwt>
<totfact> 0.12399780E+00</totfact>
</mgrwt>
</event>
<event>
 6    1  0.5260809E-006  0.3000000E+03  0.7818608E-02  0.1093470E+00
          1   -1    0    0  502    0  0.00000000000E+00  0.00000000000E+00  0.12531308863E+03  0.12531308863E+03  0.00000000000E+00 0.  1.
         13   -1    0    0    0    0 -0.00000000000E+00 -0.00000000000E+00 -0.10000000000E+04  0.10000000000E+04  0.00000000000E+00 0.  1.
    9000005    2    1    2  501    0 -0.13007783534E+02 -0.36870465454E+02 -0.85315568278E+03  0.10806787133E+04  0.66216555987E+03 0.  0.
         13    1    3    3    0    0  0.84993493586E+02  0.17681514527E+03 -0.82014875103E+03  0.84328611003E+03  0.00000000000E+00 0.  1.
          3    1    3    3  501    0 -0.98001277120E+02 -0.21368561073E+03 -0.33006931751E+02  0.23739260328E+03  0.00000000000E+00 0.  1.
         21    1    1    2  502  501  0.13007783534E+02  0.36870465454E+02 -0.21531228592E+02  0.44634375317E+02  0.00000000000E+00 0. -1.
<mgrwt>
<rscale>  1 0.30000000E+03</rscale>
<asrwt>0</asrwt>
<pdfrwt beam="1">  1        1 0.45568492E+00 0.30000000E+03</pdfrwt>
<pdfrwt beam="2">0</pdfrwt>
<totfact> 0.47122235E-01</totfact>
</mgrwt>
</event>
<event>
 6    1  0.5260809E-006  0.3000000E+03  0.7818608E-02  0.1093470E+00
          1   -1    0    0  502    0  0.00000000000E+00  0.00000000000E+00  0.11649391330E+03  0.11649391330E+03  0.00000000000E+00 0.  1.
         13   -1    0    0    0    0 -0.00000000000E+00 -0.00000000000E+00 -0.10000000000E+04  0.10000000000E+04  0.00000000000E+00 0.  1.
    9000005    2    1    2  501    0  0.73904904838E+01 -0.88802477290E+01 -0.89696473621E+03  0.10987565686E+04  0.63449726631E+03 0.  0.
         13    1    3    3    0    0  0.31708876824E+03 -0.43408220238E+02 -0.50722060086E+03  0.59975186407E+03  0.00000000000E+00 0.  1.
          3    1    3    3  501    0 -0.30969827775E+03  0.34527972509E+02 -0.38974413535E+03  0.49900470456E+03  0.00000000000E+00 0.  1.
         21    1    1    2  502  501 -0.73904904838E+01  0.88802477290E+01  0.13458649503E+02  0.17737344665E+02  0.00000000000E+00 0.  1.
<mgrwt>
<rscale>  1 0.30000000E+03</rscale>
<asrwt>0</asrwt>
<pdfrwt beam="1">  1        1 0.42361512E+00 0.30000000E+03</pdfrwt>
<pdfrwt beam="2">0</pdfrwt>
<totfact> 0.76175049E-01</totfact>
</mgrwt>
</event>
<event>
 6    1  0.5260809E-006  0.3000000E+03  0.7818608E-02  0.1093470E+00
          1   -1    0    0  502    0  0.00000000000E+00  0.00000000000E+00  0.10640798064E+03  0.10640798064E+03  0.00000000000E+00 0.  1.
         13   -1    0    0    0    0 -0.00000000000E+00 -0.00000000000E+00 -0.10000000000E+04  0.10000000000E+04  0.00000000000E+00 0.  1.
    9000005    2    1    2  501    0 -0.60143997917E+01  0.14884082101E+02 -0.88553435815E+03  0.10884459426E+04  0.63268140615E+03 0.  0.
         13    1    3    3    0    0  0.71231895253E+02  0.14450425832E+03  0.27144543420E+02  0.16337775188E+03  0.00000000000E+00 0.  1.
          3    1    3    3  501    0 -0.77246295045E+02 -0.12962017622E+03 -0.91267890157E+03  0.92506819076E+03  0.00000000000E+00 0.  1.
         21    1    1    2  502  501  0.60143997917E+01 -0.14884082101E+02 -0.80576612090E+01  0.17962037997E+02  0.00000000000E+00 0. -1.
<mgrwt>
<rscale>  1 0.30000000E+03</rscale>
<asrwt>0</asrwt>
<pdfrwt beam="1">  1        1 0.38693893E+00 0.30000000E+03</pdfrwt>
<pdfrwt beam="2">0</pdfrwt>
<totfact> 0.12472956E+00</totfact>
</mgrwt>
</event>
<event>
 6    1  0.5260809E-006  0.3000000E+03  0.7818608E-02  0.1093470E+00
          1   -1    0    0  502    0  0.00000000000E+00  0.00000000000E+00  0.11871044110E+03  0.11871044110E+03  0.00000000000E+00 0.  1.
         13   -1    0    0    0    0 -0.00000000000E+00 -0.00000000000E+00 -0.10000000000E+04  0.10000000000E+04  0.00000000000E+00 0.  1.
    9000005    2    1    2  501    0  0.50499739435E+01  0.35736508789E+02 -0.88531819111E+03  0.10823947396E+04  0.62168116629E+03 0.  0.
         13    1    3    3    0    0 -0.14882431887E+03 -0.19647997211E+03 -0.13282189306E+03  0.27999055806E+03  0.00000000000E+00 0.  1.
          1    1    3    3  501    0  0.15387429281E+03  0.23221648090E+03 -0.75249629805E+03  0.80240418155E+03  0.00000000000E+00 0.  1.
         21    1    1    2  502  501 -0.50499739435E+01 -0.35736508789E+02  0.40286322071E+01  0.36315701490E+02  0.00000000000E+00 0.  1.
<mgrwt>
<rscale>  1 0.30000000E+03</rscale>
<asrwt>0</asrwt>
<pdfrwt beam="1">  1        1 0.43167524E+00 0.30000000E+03</pdfrwt>
<pdfrwt beam="2">0</pdfrwt>
<totfact> 0.67791170E-01</totfact>
</mgrwt>
</event>
<event>
 6    1  0.5260809E-006  0.3000000E+03  0.7818608E-02  0.1093470E+00
          1   -1    0    0  502    0  0.00000000000E+00  0.00000000000E+00  0.12173656932E+03  0.12173656932E+03  0.00000000000E+00 0.  1.
         13   -1    0    0    0    0 -0.00000000000E+00 -0.00000000000E+00 -0.10000000000E+04  0.10000000000E+04  0.00000000000E+00 0.  1.
    9000005    2    1    2  501    0  0.25852085783E-01  0.17110478100E+02 -0.88745598518E+03  0.11023130736E+04  0.65362314631E+03 0.  0.
         13    1    3    3    0    0  0.23793986351E+02  0.84103129710E+02  0.88140749450E+02  0.12413010081E+03  0.00000000000E+00 0.  1.
          1    1    3    3  501    0 -0.23768134265E+02 -0.66992651610E+02 -0.97559673463E+03  0.97818297276E+03  0.00000000000E+00 0.  1.
         21    1    1    2  502  501 -0.25852085783E-01 -0.17110478100E+02  0.91925544991E+01  0.19423495755E+02  0.00000000000E+00 0.  1.
<mgrwt>
<rscale>  1 0.30000000E+03</rscale>
<asrwt>0</asrwt>
<pdfrwt beam="1">  1        1 0.44267937E+00 0.30000000E+03</pdfrwt>
<pdfrwt beam="2">0</pdfrwt>
<totfact> 0.57571814E-01</totfact>
</mgrwt>
</event>
<event>
 6    1  0.5260809E-006  0.3000000E+03  0.7818608E-02  0.1093470E+00
          1   -1    0    0  502    0  0.00000000000E+00  0.00000000000E+00  0.10218996069E+03  0.10218996069E+03  0.00000000000E+00 0.  1.
         13   -1    0    0    0    0 -0.00000000000E+00 -0.00000000000E+00 -0.10000000000E+04  0.10000000000E+04  0.00000000000E+00 0.  1.
    9000005    2    1    2  501    0 -0.14119083215E+02 -0.79358273681E+01 -0.88083857935E+03  0.10787302864E+04  0.62251112598E+03 0.  0.
         13    1    3    3    0    0  0.26110496446E+03 -0.10829260827E+03 -0.63944592692E+03  0.69913817299E+03  0.00000000000E+00 0.  1.
          3    1    3    3  501    0 -0.27522404767E+03  0.10035678090E+03 -0.24139265243E+03  0.37959211337E+03  0.00000000000E+00 0.  1.
         21    1    1    2  502  501  0.14119083215E+02  0.79358273681E+01 -0.16971459952E+02  0.23459674332E+02  0.00000000000E+00 0. -1.
<mgrwt>
<rscale>  1 0.30000000E+03</rscale>
<asrwt>0</asrwt>
<pdfrwt beam="1">  1        1 0.37160064E+00 0.30000000E+03</pdfrwt>
<pdfrwt beam="2">0</pdfrwt>
<totfact> 0.15133229E+00</totfact>
</mgrwt>
</event>
<event>
 6    1  0.5260809E-006  0.3000000E+03  0.7818608E-02  0.1093470E+00
          1   -1    0    0  502    0  0.00000000000E+00  0.00000000000E+00  0.12646577604E+03  0.12646577604E+03  0.00000000000E+00 0.  1.
         13   -1    0    0    0    0 -0.00000000000E+00 -0.00000000000E+00 -0.10000000000E+04  0.10000000000E+04  0.00000000000E+00 0.  1.
    9000005    2    1    2  501    0  0.28624241061E+01 -0.95666517029E+01 -0.89028512075E+03  0.11069643187E+04  0.65777100289E+03 0.  0.
         13    1    3    3    0    0  0.31392430910E+03  0.89635080507E+02 -0.51240973543E+03  0.60757440406E+03  0.00000000000E+00 0.  1.
          1    1    3    3  501    0 -0.31106188500E+03 -0.99201732209E+02 -0.37787538532E+03  0.49938991460E+03  0.00000000000E+00 0.  1.
         21    1    1    2  502  501 -0.28624241061E+01  0.95666517029E+01  0.16750896795E+02  0.19501457381E+02  0.00000000000E+00 0.  1.
<mgrwt>
<rscale>  1 0.30000000E+03</rscale>
<asrwt>0</asrwt>
<pdfrwt beam="1">  1        1 0.45987652E+00 0.30000000E+03</pdfrwt>
<pdfrwt beam="2">0</pdfrwt>
<totfact> 0.44154067E-01</totfact>
</mgrwt>
</event>
<event>
 6    1  0.5260809E-006  0.3000000E+03  0.7818608E-02  0.1093470E+00
          1   -1    0    0  502    0  0.00000000000E+00  0.00000000000E+00  0.11278092025E+03  0.11278092025E+03  0.00000000000E+00 0.  1.
         13   -1    0    0    0    0 -0.00000000000E+00 -0.00000000000E+00 -0.10000000000E+04  0.10000000000E+04  0.00000000000E+00 0.  1.
    9000005    2    1    2  501    0  0.83608958745E+01  0.11232427091E+02 -0.88985467058E+03  0.10985324699E+04  0.64400014029E+03 0.  0.
         13    1    3    3    0    0 -0.29739758574E+03  0.10749247901E+03 -0.52483094870E+03  0.61273769409E+03  0.00000000000E+00 0.  1.
          3    1    3    3  501    0  0.30575848162E+03 -0.96260051915E+02 -0.36502372188E+03  0.48579477582E+03  0.00000000000E+00 0.  1.
         21    1    1    2  502  501 -0.83608958745E+01 -0.11232427091E+02  0.26355908260E+01  0.14248450343E+02  0.00000000000E+00 0.  1.
<mgrwt>
<rscale>  1 0.30000000E+03</rscale>
<asrwt>0</asrwt>
<pdfrwt beam="1">  1        1 0.41011330E+00 0.30000000E+03</pdfrwt>
<pdfrwt beam="2">0</pdfrwt>
<totfact> 0.91993050E-01</totfact>
</mgrwt>
</event>
<event>
 6    1  0.5260809E-006  0.3000000E+03  0.7818608E-02  0.1093470E+00
          1   -1    0    0  502    0  0.00000000000E+00  0.00000000000E+00  0.12402067135E+03  0.12402067135E+03  0.00000000000E+00 0.  1.
         13   -1    0    0    0    0 -0.00000000000E+00 -0.00000000000E+00 -0.10000000000E+04  0.10000000000E+04  0.00000000000E+00 0.  1.
    9000005    2    1    2  501    0 -0.82808253792E+01 -0.53303532112E+02 -0.85509331803E+03  0.10661754983E+04  0.63453587137E+03 0.  0.
         13    1    3    3    0    0  0.23439275261E+03 -0.14127359471E+03 -0.72944086920E+03  0.77909060622E+03  0.00000000000E+00 0.  1.
          1    1    3    3  501    0 -0.24267357799E+03  0.87970062602E+02 -0.12565244883E+03  0.28708489209E+03  0.00000000000E+00 0.  1.
         21    1    1    2  502  501  0.82808253792E+01  0.53303532112E+02 -0.20886010619E+02  0.57845173041E+02  0.00000000000E+00 0.  1.
<mgrwt>
<rscale>  1 0.30000000E+03</rscale>
<asrwt>0</asrwt>
<pdfrwt beam="1">  1        1 0.45098521E+00 0.30000000E+03</pdfrwt>
<pdfrwt beam="2">0</pdfrwt>
<totfact> 0.50677033E-01</totfact>
</mgrwt>
</event>
<event>
 6    1  0.5260809E-006  0.3000000E+03  0.7818608E-02  0.1093470E+00
          1   -1    0    0  502    0  0.00000000000E+00  0.00000000000E+00  0.11844105862E+03  0.11844105862E+03  0.00000000000E+00 0.  1.
         13   -1    0    0    0    0 -0.00000000000E+00 -0.00000000000E+00 -0.10000000000E+04  0.10000000000E+04  0.00000000000E+00 0.  1.
    9000005    2    1    2  501    0 -0.52471186911E+01  0.14082472796E+02 -0.89080716845E+03  0.11007951526E+04  0.64651891571E+03 0.  0.
         13    1    3    3    0    0  0.30400726119E+03  0.55864507925E+02 -0.59656749109E+03  0.67188840556E+03  0.00000000000E+00 0.  1.
          3    1    3    3  501    0 -0.30925437988E+03 -0.41782035129E+02 -0.29423967736E+03  0.42890674706E+03  0.00000000000E+00 0.  1.
         21    1    1    2  502  501  0.52471186911E+01 -0.14082472796E+02  0.92482270776E+01  0.17645906004E+02  0.00000000000E+00 0. -1.
<mgrwt>
<rscale>  1 0.30000000E+03</rscale>
<asrwt>0</asrwt>
<pdfrwt beam="1">  1        1 0.43069567E+00 0.30000000E+03</pdfrwt>
<pdfrwt beam="2">0</pdfrwt>
<totfact> 0.68766168E-01</totfact>
</mgrwt>
</event>
<event>
 6    1  0.5260809E-006  0.3000000E+03  0.7818608E-02  0.1093470E+00
          1   -1    0    0  502    0  0.00000000000E+00  0.00000000000E+00  0.10539643053E+03  0.10539643053E+03  0.00000000000E+00 0.  1.
         13   -1    0    0    0    0 -0.00000000000E+00 -0.00000000000E+00 -0.10000000000E+04  0.10000000000E+04  0.00000000000E+00 0.  1.
    9000005    2    1    2  501    0 -0.10444940855E+02  0.45009240830E+01 -0.88861389944E+03  0.10925421996E+04  0.63551903230E+03 0.  0.
         13    1    3    3    0    0  0.19952030708E+03 -0.19207822011E+03 -0.68859958369E+03  0.74220737146E+03  0.00000000000E+00 0.  1.
          1    1    3    3  501    0 -0.20996524794E+03  0.19657914420E+03 -0.20001431575E+03  0.35033482810E+03  0.00000000000E+00 0.  1.
         21    1    1    2  502  501  0.10444940855E+02 -0.45009240830E+01 -0.59896700228E+01  0.12854230978E+02  0.00000000000E+00 0. -1.
<mgrwt>
<rscale>  1 0.30000000E+03</rscale>
<asrwt>0</asrwt>
<pdfrwt beam="1">  1        1 0.38326056E+00 0.30000000E+03</pdfrwt>
<pdfrwt beam="2">0</pdfrwt>
<totfact> 0.13072487E+00</totfact>
</mgrwt>
</event>
<event>
 6    1  0.5260809E-006  0.3000000E+03  0.7818608E-02  0.1093470E+00
          1   -1    0    0  502    0  0.00000000000E+00  0.00000000000E+00  0.11780341683E+03  0.11780341683E+03  0.00000000000E+00 0.  1.
         13   -1    0    0    0    0 -0.00000000000E+00 -0.00000000000E+00 -0.10000000000E+04  0.10000000000E+04  0.00000000000E+00 0.  1.
    9000005    2    1    2  501    0 -0.53469292868E+00 -0.17821164236E+02 -0.83667862393E+03  0.10689182002E+04  0.66500911212E+03 0.  0.
         13    1    3    3    0    0  0.14608247985E+03  0.27293796244E+03 -0.56744488076E+03  0.64639687109E+03  0.00000000000E+00 0.  1.
          3    1    3    3  501    0 -0.14661717277E+03 -0.29075912667E+03 -0.26923374317E+03  0.42252132911E+03  0.00000000000E+00 0.  1.
         21    1    1    2  502  501  0.53469292868E+00  0.17821164236E+02 -0.45517959238E+02  0.48885216625E+02  0.00000000000E+00 0. -1.
<mgrwt>
<rscale>  1 0.30000000E+03</rscale>
<asrwt>0</asrwt>
<pdfrwt beam="1">  1        1 0.42837696E+00 0.30000000E+03</pdfrwt>
<pdfrwt beam="2">0</pdfrwt>
<totfact> 0.71120691E-01</totfact>
</mgrwt>
</event>
<event>
 6    1  0.5260809E-006  0.3000000E+03  0.7818608E-02  0.1093470E+00
          1   -1    0    0  502    0  0.00000000000E+00  0.00000000000E+00  0.12585069065E+03  0.12585069065E+03  0.00000000000E+00 0.  1.
         13   -1    0    0    0    0 -0.00000000000E+00 -0.00000000000E+00 -0.10000000000E+04  0.10000000000E+04  0.00000000000E+00 0.  1.
    9000005    2    1    2  501    0 -0.28081305703E+02  0.28901982959E+02 -0.74660908301E+03  0.99209571436E+03  0.65207737215E+03 0.  0.
         13    1    3    3    0    0 -0.15524727038E+03 -0.19554603022E+03 -0.57403890346E+02  0.25619362116E+03  0.00000000000E+00 0.  1.
          1    1    3    3  501    0  0.12716596467E+03  0.22444801318E+03 -0.68920519267E+03  0.73590209321E+03  0.00000000000E+00 0.  1.
         21    1    1    2  502  501  0.28081305703E+02 -0.28901982959E+02 -0.12754022633E+03  0.13375497629E+03  0.00000000000E+00 0.  1.
<mgrwt>
<rscale>  1 0.30000000E+03</rscale>
<asrwt>0</asrwt>
<pdfrwt beam="1">  1        1 0.45763984E+00 0.30000000E+03</pdfrwt>
<pdfrwt beam="2">0</pdfrwt>
<totfact> 0.45716249E-01</totfact>
</mgrwt>
</event>
<event>
 6    1  0.5260809E-006  0.3000000E+03  0.7818608E-02  0.1093470E+00
          1   -1    0    0  502    0  0.00000000000E+00  0.00000000000E+00  0.71897680084E+02  0.71897680084E+02  0.00000000000E+00 0.  1.
         13   -1    0    0    0    0 -0.00000000000E+00 -0.00000000000E+00 -0.10000000000E+04  0.10000000000E+04  0.00000000000E+00 0.  1.
    9000005    2    1    2  501    0  0.90931211887E+01  0.10782052486E+02 -0.93147708414E+03  0.10573950409E+04  0.50023572124E+03 0.  0.
         13    1    3    3    0    0 -0.71305538732E+02 -0.23284192493E+03 -0.47398029456E+03  0.53287630975E+03  0.00000000000E+00 0.  1.
          1    1    3    3  501    0  0.80398659920E+02  0.24362397742E+03 -0.45749678958E+03  0.52451873118E+03  0.00000000000E+00 0.  1.
         21    1    1    2  502  501 -0.90931211887E+01 -0.10782052486E+02  0.33747642234E+01  0.14502639151E+02  0.00000000000E+00 0.  1.
<mgrwt>
<rscale>  1 0.30000000E+03</rscale>
<asrwt>0</asrwt>
<pdfrwt beam="1">  1        1 0.26144666E+00 0.30000000E+03</pdfrwt>
<pdfrwt beam="2">0</pdfrwt>
<totfact> 0.52750862E+00</totfact>
</mgrwt>
</event>
<event>
 6    1  0.5260809E-006  0.3000000E+03  0.7818608E-02  0.1093470E+00
          1   -1    0    0  502    0  0.00000000000E+00  0.00000000000E+00  0.11565787774E+03  0.11565787774E+03  0.00000000000E+00 0.  1.
         13   -1    0    0    0    0 -0.00000000000E+00 -0.00000000000E+00 -0.10000000000E+04  0.10000000000E+04  0.00000000000E+00 0.  1.
    9000005    2    1    2  501    0 -0.75255252907E+01 -0.11086667856E+02 -0.89444844643E+03  0.10988743881E+04  0.63820635365E+03 0.  0.
         13    1    3    3    0    0  0.10645182417E+03 -0.14080627409E+03 -0.90862724691E+03  0.92561432115E+03  0.00000000000E+00 0.  1.
          3    1    3    3  501    0 -0.11397734946E+03  0.12971960623E+03  0.14178800475E+02  0.17326006699E+03  0.00000000000E+00 0.  1.
         21    1    1    2  502  501  0.75255252907E+01  0.11086667856E+02  0.10106324172E+02  0.16783489605E+02  0.00000000000E+00 0. -1.
<mgrwt>
<rscale>  1 0.30000000E+03</rscale>
<asrwt>0</asrwt>
<pdfrwt beam="1">  1        1 0.42057499E+00 0.30000000E+03</pdfrwt>
<pdfrwt beam="2">0</pdfrwt>
<totfact> 0.79551655E-01</totfact>
</mgrwt>
</event>
<event>
 6    1  0.5260809E-006  0.3000000E+03  0.7818608E-02  0.1093470E+00
          1   -1    0    0  502    0  0.00000000000E+00  0.00000000000E+00  0.10836074228E+03  0.10836074228E+03  0.00000000000E+00 0.  1.
         13   -1    0    0    0    0 -0.00000000000E+00 -0.00000000000E+00 -0.10000000000E+04  0.10000000000E+04  0.00000000000E+00 0.  1.
    9000005    2    1    2  501    0 -0.83501659105E+01  0.53441888424E+01 -0.87761646374E+03  0.10911873799E+04  0.64836791636E+03 0.  0.
         13    1    3    3    0    0  0.22385186084E+03  0.22581159053E+03 -0.34052420666E+03  0.46589404948E+03  0.00000000000E+00 0.  1.
          1    1    3    3  501    0 -0.23220202675E+03 -0.22046740169E+03 -0.53709225708E+03  0.62529333041E+03  0.00000000000E+00 0.  1.
         21    1    1    2  502  501  0.83501659105E+01 -0.53441888424E+01 -0.14022793981E+02  0.17173362400E+02  0.00000000000E+00 0. -1.
<mgrwt>
<rscale>  1 0.30000000E+03</rscale>
<asrwt>0</asrwt>
<pdfrwt beam="1">  1        1 0.39403989E+00 0.30000000E+03</pdfrwt>
<pdfrwt beam="2">0</pdfrwt>
<totfact> 0.11382113E+00</totfact>
</mgrwt>
</event>
<event>
 6    1  0.5260809E-006  0.3000000E+03  0.7818608E-02  0.1093470E+00
          1   -1    0    0  502    0  0.00000000000E+00  0.00000000000E+00  0.10272704987E+03  0.10272704987E+03  0.00000000000E+00 0.  1.
         13   -1    0    0    0    0 -0.00000000000E+00 -0.00000000000E+00 -0.10000000000E+04  0.10000000000E+04  0.00000000000E+00 0.  1.
    9000005    2    1    2  501    0 -0.14993869381E+02  0.24177227844E+02 -0.87450661050E+03  0.10662899714E+04  0.60942853304E+03 0.  0.
         13    1    3    3    0    0 -0.28832793060E+03 -0.65610545380E+02 -0.28677889806E+03  0.41192217178E+03  0.00000000000E+00 0.  1.
          1    1    3    3  501    0  0.27333406122E+03  0.89787773223E+02 -0.58772771244E+03  0.65436779964E+03  0.00000000000E+00 0.  1.
         21    1    1    2  502  501  0.14993869381E+02 -0.24177227844E+02 -0.22766339632E+02  0.36437078443E+02  0.00000000000E+00 0.  1.
<mgrwt>
<rscale>  1 0.30000000E+03</rscale>
<asrwt>0</asrwt>
<pdfrwt beam="1">  1        1 0.37355370E+00 0.30000000E+03</pdfrwt>
<pdfrwt beam="2">0</pdfrwt>
<totfact> 0.14770130E+00</totfact>
</mgrwt>
</event>
<event>
 6    1  0.5260809E-006  0.3000000E+03  0.7818608E-02  0.1093470E+00
          1   -1    0    0  502    0  0.00000000000E+00  0.00000000000E+00  0.12299208194E+03  0.12299208194E+03  0.00000000000E+00 0.  1.
         13   -1    0    0    0    0 -0.00000000000E+00 -0.00000000000E+00 -0.10000000000E+04  0.10000000000E+04  0.00000000000E+00 0.  1.
    9000005    2    1    2  501    0 -0.77448018225E+01  0.18390980094E+02 -0.90152828100E+03  0.10913778715E+04  0.61477980351E+03 0.  0.
         13    1    3    3    0    0  0.24621978872E+02  0.24563693602E+03 -0.11555831342E+03  0.27257562250E+03  0.00000000000E+00 0.  1.
          1    1    3    3  501    0 -0.32366780695E+02 -0.22724595593E+03 -0.78596996759E+03  0.81880224898E+03  0.00000000000E+00 0.  1.
         21    1    1    2  502  501  0.77448018225E+01 -0.18390980094E+02  0.24520362943E+02  0.31614210458E+02  0.00000000000E+00 0. -1.
<mgrwt>
<rscale>  1 0.30000000E+03</rscale>
<asrwt>0</asrwt>
<pdfrwt beam="1">  1        1 0.44724488E+00 0.30000000E+03</pdfrwt>
<pdfrwt beam="2">0</pdfrwt>
<totfact> 0.53690272E-01</totfact>
</mgrwt>
</event>
<event>
 6    1  0.5260809E-006  0.3000000E+03  0.7818608E-02  0.1093470E+00
          1   -1    0    0  502    0  0.00000000000E+00  0.00000000000E+00  0.11681830411E+03  0.11681830411E+03  0.00000000000E+00 0.  1.
         13   -1    0    0    0    0 -0.00000000000E+00 -0.00000000000E+00 -0.10000000000E+04  0.10000000000E+04  0.00000000000E+00 0.  1.
    9000005    2    1    2  501    0 -0.29556883578E+02 -0.77135581209E+01 -0.85470762368E+03  0.10750585013E+04  0.65137742579E+03 0.  0.
         13    1    3    3    0    0 -0.13066132548E+03  0.89190543417E+02 -0.91062379233E+03  0.92426350472E+03  0.00000000000E+00 0.  1.
          1    1    3    3  501    0  0.10110444190E+03 -0.96904101538E+02  0.55916168645E+02  0.15079499655E+03  0.00000000000E+00 0.  1.
         21    1    1    2  502  501  0.29556883578E+02  0.77135581209E+01 -0.28474072205E+02  0.41759802845E+02  0.00000000000E+00 0. -1.
<mgrwt>
<rscale>  1 0.30000000E+03</rscale>
<asrwt>0</asrwt>
<pdfrwt beam="1">  1        1 0.42479473E+00 0.30000000E+03</pdfrwt>
<pdfrwt beam="2">0</pdfrwt>
<totfact> 0.74895580E-01</totfact>
</mgrwt>
</event>
<event>
 6    1  0.5260809E-006  0.3000000E+03  0.7818608E-02  0.1093470E+00
          1   -1    0    0  502    0  0.00000000000E+00  0.00000000000E+00  0.11669900869E+03  0.11669900869E+03  0.00000000000E+00 0.  1.
         13   -1    0    0    0    0 -0.00000000000E+00 -0.00000000000E+00 -0.10000000000E+04  0.10000000000E+04  0.00000000000E+00 0.  1.
    9000005    2    1    2  501    0 -0.13666695774E+02 -0.12764231203E+01 -0.88457465166E+03  0.11029138703E+04  0.65860328206E+03 0.  0.
         13    1    3    3    0    0  0.25646593048E+03  0.35936212639E+02 -0.10931745176E+03  0.28109871956E+03  0.00000000000E+00 0.  1.
          3    1    3    3  501    0 -0.27013262625E+03 -0.37212635759E+02 -0.77525719990E+03  0.82181515076E+03  0.00000000000E+00 0.  1.
         21    1    1    2  502  501  0.13666695774E+02  0.12764231203E+01  0.12736603511E+01  0.13785138376E+02  0.00000000000E+00 0. -1.
<mgrwt>
<rscale>  1 0.30000000E+03</rscale>
<asrwt>0</asrwt>
<pdfrwt beam="1">  1        1 0.42436093E+00 0.30000000E+03</pdfrwt>
<pdfrwt beam="2">0</pdfrwt>
<totfact> 0.75364061E-01</totfact>
</mgrwt>
</event>
<event>
 6    1  0.5260809E-006  0.3000000E+03  0.7818608E-02  0.1093470E+00
          1   -1    0    0  502    0  0.00000000000E+00  0.00000000000E+00  0.11545162592E+03  0.11545162592E+03  0.00000000000E+00 0.  1.
         13   -1    0    0    0    0 -0.00000000000E+00 -0.00000000000E+00 -0.10000000000E+04  0.10000000000E+04  0.00000000000E+00 0.  1.
    9000005    2    1    2  501    0  0.16088002449E+02  0.19757103273E+01 -0.88486583077E+03  0.10992396540E+04  0.65197971691E+03 0.  0.
         13    1    3    3    0    0 -0.24889121962E+03  0.19303590680E+03 -0.53296555640E+03  0.61908156557E+03  0.00000000000E+00 0.  1.
          3    1    3    3  501    0  0.26497922207E+03 -0.19106019648E+03 -0.35190027437E+03  0.48015808845E+03  0.00000000000E+00 0.  1.
         21    1    1    2  502  501 -0.16088002449E+02 -0.19757103273E+01  0.31745669424E+00  0.16211971899E+02  0.00000000000E+00 0. -1.
<mgrwt>
<rscale>  1 0.30000000E+03</rscale>
<asrwt>0</asrwt>
<pdfrwt beam="1">  1        1 0.41982498E+00 0.30000000E+03</pdfrwt>
<pdfrwt beam="2">0</pdfrwt>
<totfact> 0.80401583E-01</totfact>
</mgrwt>
</event>
<event>
 6    1  0.5260809E-006  0.3000000E+03  0.7818608E-02  0.1093470E+00
          1   -1    0    0  502    0  0.00000000000E+00  0.00000000000E+00  0.11227792828E+03  0.11227792828E+03  0.00000000000E+00 0.  1.
         13   -1    0    0    0    0 -0.00000000000E+00 -0.00000000000E+00 -0.10000000000E+04  0.10000000000E+04  0.00000000000E+00 0.  1.
    9000005    2    1    2  501    0 -0.68769310809E+01  0.84157769670E+01 -0.88672687284E+03  0.11013642715E+04  0.65314668649E+03 0.  0.
         13    1    3    3    0    0 -0.82247699709E+02 -0.29620155214E+03 -0.60953697437E+03  0.68266783044E+03  0.00000000000E+00 0.  1.
          3    1    3    3  501    0  0.75370768628E+02  0.30461732910E+03 -0.27718989847E+03  0.41869644107E+03  0.00000000000E+00 0.  1.
         21    1    1    2  502  501  0.68769310809E+01 -0.84157769670E+01 -0.99519888549E+00  0.10913656760E+02  0.00000000000E+00 0.  1.
<mgrwt>
<rscale>  1 0.30000000E+03</rscale>
<asrwt>0</asrwt>
<pdfrwt beam="1">  1        1 0.40828424E+00 0.30000000E+03</pdfrwt>
<pdfrwt beam="2">0</pdfrwt>
<totfact> 0.94305913E-01</totfact>
</mgrwt>
</event>
<event>
 6    1  0.5260809E-006  0.3000000E+03  0.7818608E-02  0.1093470E+00
          1   -1    0    0  502    0  0.00000000000E+00  0.00000000000E+00  0.15263286977E+03  0.15263286977E+03  0.00000000000E+00 0.  1.
         13   -1    0    0    0    0 -0.00000000000E+00 -0.00000000000E+00 -0.10000000000E+04  0.10000000000E+04  0.00000000000E+00 0.  1.
    9000005    2    1    2  501    0  0.72368577940E+02  0.38049191038E+02 -0.84470875426E+03  0.10708281085E+04  0.65303522594E+03 0.  0.
         13    1    3    3    0    0  0.31361769138E+03  0.74903342418E+02 -0.73625934989E+03  0.80376887060E+03  0.00000000000E+00 0.  1.
          1    1    3    3  501    0 -0.24124911344E+03 -0.36854151380E+02 -0.10844940437E+03  0.26705923785E+03  0.00000000000E+00 0.  1.
         21    1    1    2  502  501 -0.72368577940E+02 -0.38049191038E+02 -0.26583759656E+01  0.81804761319E+02  0.00000000000E+00 0. -1.
<mgrwt>
<rscale>  1 0.30000000E+03</rscale>
<asrwt>0</asrwt>
<pdfrwt beam="1">  1        1 0.55502979E+00 0.30000000E+03</pdfrwt>
<pdfrwt beam="2">0</pdfrwt>
<totfact> 0.91780532E-02</totfact>
</mgrwt>
</event>
<event>
 6    1  0.5260809E-006  0.3000000E+03  0.7818608E-02  0.1093470E+00
          1   -1    0    0  502    0  0.00000000000E+00  0.00000000000E+00  0.11935281493E+03  0.11935281493E+03  0.00000000000E+00 0.  1.
         13   -1    0    0    0    0 -0.00000000000E+00 -0.00000000000E+00 -0.10000000000E+04  0.10000000000E+04  0.00000000000E+00 0.  1.
    9000005    2    1    2  501    0  0.22039896911E+02  0.16397804621E+02 -0.86060864377E+03  0.10853500476E+04  0.66074415846E+03 0.  0.
         13    1    3    3    0    0  0.15370073760E+03 -0.22244846550E+03 -0.11942974965E+03  0.29558535424E+03  0.00000000000E+00 0.  1.
          3    1    3    3  501    0 -0.13166084069E+03  0.23884627012E+03 -0.74117889412E+03  0.78976469332E+03  0.00000000000E+00 0.  1.
         21    1    1    2  502  501 -0.22039896911E+02 -0.16397804621E+02 -0.20038541292E+02  0.34002767377E+02  0.00000000000E+00 0.  1.
<mgrwt>
<rscale>  1 0.30000000E+03</rscale>
<asrwt>0</asrwt>
<pdfrwt beam="1">  1        1 0.43401115E+00 0.30000000E+03</pdfrwt>
<pdfrwt beam="2">0</pdfrwt>
<totfact> 0.65511755E-01</totfact>
</mgrwt>
</event>
<event>
 6    1  0.5260809E-006  0.3000000E+03  0.7818608E-02  0.1093470E+00
          1   -1    0    0  502    0  0.00000000000E+00  0.00000000000E+00  0.12473247797E+03  0.12473247797E+03  0.00000000000E+00 0.  1.
         13   -1    0    0    0    0 -0.00000000000E+00 -0.00000000000E+00 -0.10000000000E+04  0.10000000000E+04  0.00000000000E+00 0.  1.
    9000005    2    1    2  501    0  0.52632623535E+02 -0.87544582137E+01 -0.81034847104E+03  0.10407008364E+04  0.65080469638E+03 0.  0.
         13    1    3    3    0    0 -0.13939044063E+03  0.27322774590E+03 -0.44881897087E+03  0.54361895173E+03  0.00000000000E+00 0.  1.
          1    1    3    3  501    0  0.19202306416E+03 -0.28198220411E+03 -0.36152950017E+03  0.49708188470E+03  0.00000000000E+00 0.  1.
         21    1    1    2  502  501 -0.52632623535E+02  0.87544582137E+01 -0.64919050985E+02  0.84031641538E+02  0.00000000000E+00 0. -1.
<mgrwt>
<rscale>  1 0.30000000E+03</rscale>
<asrwt>0</asrwt>
<pdfrwt beam="1">  1        1 0.45357360E+00 0.30000000E+03</pdfrwt>
<pdfrwt beam="2">0</pdfrwt>
<totfact> 0.48687157E-01</totfact>
</mgrwt>
</event>
<event>
 6    1  0.5260809E-006  0.3000000E+03  0.7818608E-02  0.1093470E+00
          1   -1    0    0  502    0  0.00000000000E+00  0.00000000000E+00  0.13703060679E+03  0.13703060679E+03  0.00000000000E+00 0.  1.
         13   -1    0    0    0    0 -0.00000000000E+00 -0.00000000000E+00 -0.10000000000E+04  0.10000000000E+04  0.00000000000E+00 0.  1.
    9000005    2    1    2  501    0  0.10543718552E+02  0.51114179623E+02 -0.86355168486E+03  0.10848370399E+04  0.65454263526E+03 0.  0.
         13    1    3    3    0    0  0.10782714874E+03 -0.23233268976E+03 -0.11937553469E+03  0.28258749268E+03  0.00000000000E+00 0.  1.
          1    1    3    3  501    0 -0.97283430185E+02  0.28344686938E+03 -0.74417615017E+03  0.80224954723E+03  0.00000000000E+00 0.  1.
         21    1    1    2  502  501 -0.10543718552E+02 -0.51114179623E+02  0.58229165349E+00  0.52193566874E+02  0.00000000000E+00 0.  1.
<mgrwt>
<rscale>  1 0.30000000E+03</rscale>
<asrwt>0</asrwt>
<pdfrwt beam="1">  1        1 0.49829417E+00 0.30000000E+03</pdfrwt>
<pdfrwt beam="2">0</pdfrwt>
<totfact> 0.23507281E-01</totfact>
</mgrwt>
</event>
<event>
 6    1  0.5260809E-006  0.3000000E+03  0.7818608E-02  0.1093470E+00
          1   -1    0    0  502    0  0.00000000000E+00  0.00000000000E+00  0.10987344530E+03  0.10987344530E+03  0.00000000000E+00 0.  1.
         13   -1    0    0    0    0 -0.00000000000E+00 -0.00000000000E+00 -0.10000000000E+04  0.10000000000E+04  0.00000000000E+00 0.  1.
    9000005    2    1    2  501    0 -0.44707848544E+02 -0.83665169230E+01 -0.85621389517E+03  0.10531384578E+04  0.61149782235E+03 0.  0.
         13    1    3    3    0    0 -0.23950692326E+03  0.17593651321E+03 -0.65045326574E+03  0.71512703339E+03  0.00000000000E+00 0.  1.
          3    1    3    3  501    0  0.19479907472E+03 -0.18430303013E+03 -0.20576062943E+03  0.33801142444E+03  0.00000000000E+00 0.  1.
         21    1    1    2  502  501  0.44707848544E+02  0.83665169230E+01 -0.33912659528E+02  0.56734987469E+02  0.00000000000E+00 0.  1.
<mgrwt>
<rscale>  1 0.30000000E+03</rscale>
<asrwt>0</asrwt>
<pdfrwt beam="1">  1        1 0.39954064E+00 0.30000000E+03</pdfrwt>
<pdfrwt beam="2">0</pdfrwt>
<totfact> 0.10595372E+00</totfact>
</mgrwt>
</event>
<event>
 6    1  0.5260809E-006  0.3000000E+03  0.7818608E-02  0.1093470E+00
          1   -1    0    0  502    0  0.00000000000E+00  0.00000000000E+00  0.15400793403E+03  0.15400793403E+03  0.00000000000E+00 0.  1.
         13   -1    0    0    0    0 -0.00000000000E+00 -0.00000000000E+00 -0.10000000000E+04  0.10000000000E+04  0.00000000000E+00 0.  1.
    9000005    2    1    2  501    0 -0.31442948133E+01  0.14780979036E+02 -0.89531414516E+03  0.11024227479E+04  0.64305531074E+03 0.  0.
         13    1    3    3    0    0  0.30434892147E+03 -0.72907696229E+02 -0.34372514519E+03  0.46485564814E+03  0.00000000000E+00 0.  1.
          3    1    3    3  501    0 -0.30749321629E+03  0.87688675264E+02 -0.55158899996E+03  0.63756709977E+03  0.00000000000E+00 0.  1.
         21    1    1    2  502  501  0.31442948133E+01 -0.14780979036E+02  0.49322079186E+02  0.51585186113E+02  0.00000000000E+00 0. -1.
<mgrwt>
<rscale>  1 0.30000000E+03</rscale>
<asrwt>0</asrwt>
<pdfrwt beam="1">  1        1 0.56003003E+00 0.30000000E+03</pdfrwt>
<pdfrwt beam="2">0</pdfrwt>
<totfact> 0.86118232E-02</totfact>
</mgrwt>
</event>
<event>
 6    1  0.5260809E-006  0.3000000E+03  0.7818608E-02  0.1093470E+00
          1   -1    0    0  502    0  0.00000000000E+00  0.00000000000E+00  0.13795751550E+03  0.13795751550E+03  0.00000000000E+00 0.  1.
         13   -1    0    0    0    0 -0.00000000000E+00 -0.00000000000E+00 -0.10000000000E+04  0.10000000000E+04  0.00000000000E+00 0.  1.
    9000005    2    1    2  501    0  0.27702629911E+02  0.37292342775E+02 -0.83480893461E+03  0.10841075315E+04  0.69009059413E+03 0.  0.
         13    1    3    3    0    0  0.29014708414E+03 -0.46585306381E+02 -0.11889208121E+03  0.31700291509E+03  0.00000000000E+00 0.  1.
          1    1    3    3  501    0 -0.26244445423E+03  0.83877649156E+02 -0.71591685340E+03  0.76710461644E+03  0.00000000000E+00 0.  1.
         21    1    1    2  502  501 -0.27702629911E+02 -0.37292342775E+02 -0.27233549886E+02  0.53849983965E+02  0.00000000000E+00 0.  1.
<mgrwt>
<rscale>  1 0.30000000E+03</rscale>
<asrwt>0</asrwt>
<pdfrwt beam="1">  1        1 0.50166475E+00 0.30000000E+03</pdfrwt>
<pdfrwt beam="2">0</pdfrwt>
<totfact> 0.22203441E-01</totfact>
</mgrwt>
</event>
<event>
 6    1  0.5260809E-006  0.3000000E+03  0.7818608E-02  0.1093470E+00
          1   -1    0    0  502    0  0.00000000000E+00  0.00000000000E+00  0.11969693755E+03  0.11969693755E+03  0.00000000000E+00 0.  1.
         13   -1    0    0    0    0 -0.00000000000E+00 -0.00000000000E+00 -0.10000000000E+04  0.10000000000E+04  0.00000000000E+00 0.  1.
    9000005    2    1    2  501    0 -0.11545539853E+02  0.15938808838E+01 -0.88867703928E+03  0.11053455113E+04  0.65719554115E+03 0.  0.
         13    1    3    3    0    0  0.19143521558E+03  0.93608767695E+02 -0.26390342802E+02  0.21472422627E+03  0.00000000000E+00 0.  1.
          3    1    3    3  501    0 -0.20298075543E+03 -0.92014886811E+02 -0.86228669648E+03  0.89062128506E+03  0.00000000000E+00 0.  1.
         21    1    1    2  502  501  0.11545539853E+02 -0.15938808838E+01  0.83739768336E+01  0.14351426228E+02  0.00000000000E+00 0.  1.
<mgrwt>
<rscale>  1 0.30000000E+03</rscale>
<asrwt>0</asrwt>
<pdfrwt beam="1">  1        1 0.43526251E+00 0.30000000E+03</pdfrwt>
<pdfrwt beam="2">0</pdfrwt>
<totfact> 0.64316323E-01</totfact>
</mgrwt>
</event>
<event>
 6    1  0.5260809E-006  0.3000000E+03  0.7818608E-02  0.1093470E+00
          1   -1    0    0  502    0  0.00000000000E+00  0.00000000000E+00  0.13348701392E+03  0.13348701392E+03  0.00000000000E+00 0.  1.
         13   -1    0    0    0    0 -0.00000000000E+00 -0.00000000000E+00 -0.10000000000E+04  0.10000000000E+04  0.00000000000E+00 0.  1.
    9000005    2    1    2  501    0  0.16944589317E+02  0.35013094956E+02 -0.87326908158E+03  0.10940068828E+04  0.65782910766E+03 0.  0.
         13    1    3    3    0    0  0.14291238366E+03  0.26264731375E+03 -0.16955012244E+03  0.34373653406E+03  0.00000000000E+00 0.  1.
          1    1    3    3  501    0 -0.12596779434E+03 -0.22763421880E+03 -0.70371895913E+03  0.75027034876E+03  0.00000000000E+00 0.  1.
         21    1    1    2  502  501 -0.16944589317E+02 -0.35013094956E+02  0.67560954923E+01  0.39480131101E+02  0.00000000000E+00 0. -1.
<mgrwt>
<rscale>  1 0.30000000E+03</rscale>
<asrwt>0</asrwt>
<pdfrwt beam="1">  1        1 0.48540835E+00 0.30000000E+03</pdfrwt>
<pdfrwt beam="2">0</pdfrwt>
<totfact> 0.29195383E-01</totfact>
</mgrwt>
</event>
<event>
 6    1  0.5260809E-006  0.3000000E+03  0.7818608E-02  0.1093470E+00
          1   -1    0    0  502    0  0.00000000000E+00  0.00000000000E+00  0.10458118650E+03  0.10458118650E+03  0.00000000000E+00 0.  1.
         13   -1    0    0    0    0 -0.00000000000E+00 -0.00000000000E+00 -0.10000000000E+04  0.10000000000E+04  0.00000000000E+00 0.  1.
    9000005    2    1    2  501    0 -0.11091093249E+02 -0.46121731278E+01 -0.90397193032E+03  0.10898353295E+04  0.60863084888E+03 0.  0.
         13    1    3    3    0    0  0.51353373624E+02  0.26267532645E+03 -0.19962540586E+03  0.33389489180E+03  0.00000000000E+00 0.  1.
          1    1    3    3  501    0 -0.62444466873E+02 -0.26728749958E+03 -0.70434652446E+03  0.75594043773E+03  0.00000000000E+00 0.  1.
         21    1    1    2  502  501  0.11091093249E+02  0.46121731278E+01  0.85531168124E+01  0.14745856965E+02  0.00000000000E+00 0. -1.
<mgrwt>
<rscale>  1 0.30000000E+03</rscale>
<asrwt>0</asrwt>
<pdfrwt beam="1">  1        1 0.38029603E+00 0.30000000E+03</pdfrwt>
<pdfrwt beam="2">0</pdfrwt>
<totfact> 0.13572945E+00</totfact>
</mgrwt>
</event>
<event>
 6    1  0.5260809E-006  0.3000000E+03  0.7818608E-02  0.1093470E+00
          1   -1    0    0  502    0  0.00000000000E+00  0.00000000000E+00  0.12382395293E+03  0.12382395293E+03  0.00000000000E+00 0.  1.
         13   -1    0    0    0    0 -0.00000000000E+00 -0.00000000000E+00 -0.10000000000E+04  0.10000000000E+04  0.00000000000E+00 0.  1.
    9000005    2    1    2  501    0 -0.20491544696E+02 -0.15308530165E+02 -0.87991538382E+03  0.10979736698E+04  0.65623230821E+03 0.  0.
         13    1    3    3    0    0  0.70651434640E+01  0.31993194576E+03 -0.41109979584E+03  0.52096968080E+03  0.00000000000E+00 0.  1.
          3    1    3    3  501    0 -0.27556688160E+02 -0.33524047593E+03 -0.46881558798E+03  0.57700398897E+03  0.00000000000E+00 0.  1.
         21    1    1    2  502  501  0.20491544696E+02  0.15308530165E+02  0.37393367460E+01  0.25850283154E+02  0.00000000000E+00 0. -1.
<mgrwt>
<rscale>  1 0.30000000E+03</rscale>
<asrwt>0</asrwt>
<pdfrwt beam="1">  1        1 0.45026987E+00 0.30000000E+03</pdfrwt>
<pdfrwt beam="2">0</pdfrwt>
<totfact> 0.51240997E-01</totfact>
</mgrwt>
</event>
<event>
 6    1  0.5260809E-006  0.3000000E+03  0.7818608E-02  0.1093470E+00
          1   -1    0    0  502    0  0.00000000000E+00  0.00000000000E+00  0.11894992890E+03  0.11894992890E+03  0.00000000000E+00 0.  1.
         13   -1    0    0    0    0 -0.00000000000E+00 -0.00000000000E+00 -0.10000000000E+04  0.10000000000E+04  0.00000000000E+00 0.  1.
    9000005    2    1    2  501    0 -0.77883009109E+01  0.13681162933E+02 -0.88783243091E+03  0.11018083929E+04  0.65229401158E+03 0.  0.
         13    1    3    3    0    0 -0.25691138322E+03  0.14879181808E+02 -0.79555508947E+03  0.83614158446E+03  0.00000000000E+00 0.  1.
          1    1    3    3  501    0  0.24912308231E+03 -0.11980188749E+01 -0.92277341441E+02  0.26566680849E+03  0.00000000000E+00 0.  1.
         21    1    1    2  502  501  0.77883009109E+01 -0.13681162933E+02  0.67823598111E+01  0.17141535955E+02  0.00000000000E+00 0. -1.
<mgrwt>
<rscale>  1 0.30000000E+03</rscale>
<asrwt>0</asrwt>
<pdfrwt beam="1">  1        1 0.43254611E+00 0.30000000E+03</pdfrwt>
<pdfrwt beam="2">0</pdfrwt>
<totfact> 0.66933945E-01</totfact>
</mgrwt>
</event>
<event>
 6    1  0.5260809E-006  0.3000000E+03  0.7818608E-02  0.1093470E+00
          1   -1    0    0  502    0  0.00000000000E+00  0.00000000000E+00  0.87639629229E+02  0.87639629229E+02  0.00000000000E+00 0.  1.
         13   -1    0    0    0    0 -0.00000000000E+00 -0.00000000000E+00 -0.10000000000E+04  0.10000000000E+04  0.00000000000E+00 0.  1.
    9000005    2    1    2  501    0 -0.23749520028E+02  0.19448432212E+02 -0.89186699674E+03  0.10507308282E+04  0.55467670959E+03 0.  0.
         13    1    3    3    0    0  0.15281106281E+03 -0.75798230534E+01 -0.12613506741E+02  0.15351799629E+03  0.00000000000E+00 0.  1.
          3    1    3    3  501    0 -0.17656058284E+03  0.27028255265E+02 -0.87925348999E+03  0.89721283186E+03  0.00000000000E+00 0.  1.
         21    1    1    2  502  501  0.23749520028E+02 -0.19448432212E+02 -0.20493374036E+02  0.36908801070E+02  0.00000000000E+00 0.  1.
<mgrwt>
<rscale>  1 0.30000000E+03</rscale>
<asrwt>0</asrwt>
<pdfrwt beam="1">  1        1 0.31869023E+00 0.30000000E+03</pdfrwt>
<pdfrwt beam="2">0</pdfrwt>
<totfact> 0.28257770E+00</totfact>
</mgrwt>
</event>
<event>
 6    1  0.5260809E-006  0.3000000E+03  0.7818608E-02  0.1093470E+00
          1   -1    0    0  502    0  0.00000000000E+00  0.00000000000E+00  0.12255839879E+03  0.12255839879E+03  0.00000000000E+00 0.  1.
         13   -1    0    0    0    0 -0.00000000000E+00 -0.00000000000E+00 -0.10000000000E+04  0.10000000000E+04  0.00000000000E+00 0.  1.
    9000005    2    1    2  501    0  0.68462981141E+01  0.78113312118E+01 -0.89323077728E+03  0.11036590132E+04  0.64814667117E+03 0.  0.
         13    1    3    3    0    0 -0.22873650409E+03  0.78263774629E+02 -0.80803647080E+03  0.84342666834E+03  0.00000000000E+00 0.  1.
          1    1    3    3  501    0  0.23558280221E+03 -0.70452443417E+02 -0.85194306477E+02  0.26023234491E+03  0.00000000000E+00 0.  1.
         21    1    1    2  502  501 -0.68462981141E+01 -0.78113312118E+01  0.15789176067E+02  0.18899385546E+02  0.00000000000E+00 0. -1.
<mgrwt>
<rscale>  1 0.30000000E+03</rscale>
<asrwt>0</asrwt>
<pdfrwt beam="1">  1        1 0.44566784E+00 0.30000000E+03</pdfrwt>
<pdfrwt beam="2">0</pdfrwt>
<totfact> 0.55006860E-01</totfact>
</mgrwt>
</event>
<event>
 6    1  0.5260809E-006  0.3000000E+03  0.7818608E-02  0.1093470E+00
          1   -1    0    0  502    0  0.00000000000E+00  0.00000000000E+00  0.10722389941E+03  0.10722389941E+03  0.00000000000E+00 0.  1.
         13   -1    0    0    0    0 -0.00000000000E+00 -0.00000000000E+00 -0.10000000000E+04  0.10000000000E+04  0.00000000000E+00 0.  1.
    9000005    2    1    2  501    0 -0.93499333154E+01  0.92308600748E+01 -0.89652465474E+03  0.10935607486E+04  0.62605592751E+03 0.  0.
         13    1    3    3    0    0 -0.21858415597E+02  0.83347569329E+02  0.77949123006E+02  0.11619239830E+03  0.00000000000E+00 0.  1.
          3    1    3    3  501    0  0.12508482282E+02 -0.74116709254E+02 -0.97447377775E+03  0.97736835034E+03  0.00000000000E+00 0.  1.
         21    1    1    2  502  501  0.93499333154E+01 -0.92308600748E+01  0.37485541491E+01  0.13663150769E+02  0.00000000000E+00 0.  1.
<mgrwt>
<rscale>  1 0.30000000E+03</rscale>
<asrwt>0</asrwt>
<pdfrwt beam="1">  1        1 0.38990591E+00 0.30000000E+03</pdfrwt>
<pdfrwt beam="2">0</pdfrwt>
<totfact> 0.12006530E+00</totfact>
</mgrwt>
</event>
<event>
 6    1  0.5260809E-006  0.3000000E+03  0.7818608E-02  0.1093470E+00
          1   -1    0    0  502    0  0.00000000000E+00  0.00000000000E+00  0.13760309791E+03  0.13760309791E+03  0.00000000000E+00 0.  1.
         13   -1    0    0    0    0 -0.00000000000E+00 -0.00000000000E+00 -0.10000000000E+04  0.10000000000E+04  0.00000000000E+00 0.  1.
    9000005    2    1    2  501    0 -0.78682905780E+02 -0.71104732300E+01 -0.70467714305E+03  0.96120275526E+03  0.64892164573E+03 0.  0.
         13    1    3    3    0    0  0.71300424878E+01  0.28356931732E+02  0.12396895674E+03  0.12737054337E+03  0.00000000000E+00 0.  1.
          1    1    3    3  501    0 -0.85812948268E+02 -0.35467404962E+02 -0.82864609979E+03  0.83383221190E+03  0.00000000000E+00 0.  1.
         21    1    1    2  502  501  0.78682905780E+02  0.71104732300E+01 -0.15771975904E+03  0.17640034264E+03  0.00000000000E+00 0. -1.
<mgrwt>
<rscale>  1 0.30000000E+03</rscale>
<asrwt>0</asrwt>
<pdfrwt beam="1">  1        1 0.50037596E+00 0.30000000E+03</pdfrwt>
<pdfrwt beam="2">0</pdfrwt>
<totfact> 0.22693484E-01</totfact>
</mgrwt>
</event>
<event>
 6    1  0.5260809E-006  0.3000000E+03  0.7818608E-02  0.1093470E+00
          1   -1    0    0  502    0  0.00000000000E+00  0.00000000000E+00  0.14464458559E+03  0.14464458559E+03  0.00000000000E+00 0.  1.
         13   -1    0    0    0    0 -0.00000000000E+00 -0.00000000000E+00 -0.10000000000E+04  0.10000000000E+04  0.00000000000E+00 0.  1.
    9000005    2    1    2  501    0  0.24688877967E+02 -0.46192175114E+01 -0.88943609836E+03  0.11023081842E+04  0.65065803766E+03 0.  0.
         13    1    3    3    0    0 -0.16157910838E+03 -0.18465409083E+03 -0.89022134518E+02  0.26101701469E+03  0.00000000000E+00 0.  1.
          3    1    3    3  501    0  0.18626798634E+03  0.18003487332E+03 -0.80041396384E+03  0.84129116949E+03  0.00000000000E+00 0.  1.
         21    1    1    2  502  501 -0.24688877967E+02  0.46192175114E+01  0.34080683951E+02  0.42336401409E+02  0.00000000000E+00 0. -1.
<mgrwt>
<rscale>  1 0.30000000E+03</rscale>
<asrwt>0</asrwt>
<pdfrwt beam="1">  1        1 0.52598142E+00 0.30000000E+03</pdfrwt>
<pdfrwt beam="2">0</pdfrwt>
<totfact> 0.14653371E-01</totfact>
</mgrwt>
</event>
<event>
 6    1  0.5260809E-006  0.3000000E+03  0.7818608E-02  0.1093470E+00
          1   -1    0    0  502    0  0.00000000000E+00  0.00000000000E+00  0.13750646743E+03  0.13750646743E+03  0.00000000000E+00 0.  1.
         13   -1    0    0    0    0 -0.00000000000E+00 -0.00000000000E+00 -0.10000000000E+04  0.10000000000E+04  0.00000000000E+00 0.  1.
    9000005    2    1    2  501    0  0.42873108908E+02  0.18388528778E+02 -0.89348647609E+03  0.10814992893E+04  0.60757418335E+03 0.  0.
         13    1    3    3    0    0  0.30899475267E+03 -0.47453729130E+02 -0.32829263192E+03  0.45332732739E+03  0.00000000000E+00 0.  1.
          1    1    3    3  501    0 -0.26612164376E+03  0.65842257908E+02 -0.56519384417E+03  0.62817196187E+03  0.00000000000E+00 0.  1.
         21    1    1    2  502  501 -0.42873108908E+02 -0.18388528778E+02  0.30992943520E+02  0.56007178166E+02  0.00000000000E+00 0.  1.
<mgrwt>
<rscale>  1 0.30000000E+03</rscale>
<asrwt>0</asrwt>
<pdfrwt beam="1">  1        1 0.50002457E+00 0.30000000E+03</pdfrwt>
<pdfrwt beam="2">0</pdfrwt>
<totfact> 0.22828912E-01</totfact>
</mgrwt>
</event>
<event>
 6    1  0.5260809E-006  0.3000000E+03  0.7818608E-02  0.1093470E+00
          1   -1    0    0  502    0  0.00000000000E+00  0.00000000000E+00  0.11478306677E+03  0.11478306677E+03  0.00000000000E+00 0.  1.
         13   -1    0    0    0    0 -0.00000000000E+00 -0.00000000000E+00 -0.10000000000E+04  0.10000000000E+04  0.00000000000E+00 0.  1.
    9000005    2    1    2  501    0 -0.12991491006E+02  0.22288461365E+01 -0.88404135377E+03  0.11015494512E+04  0.65704515194E+03 0.  0.
         13    1    3    3    0    0  0.29267767453E+02  0.28206274278E+03 -0.72140517932E+03  0.77513961699E+03  0.00000000000E+00 0.  1.
          1    1    3    3  501    0 -0.42259258459E+02 -0.27983389664E+03 -0.16263617445E+03  0.32640983422E+03  0.00000000000E+00 0.  1.
         21    1    1    2  502  501  0.12991491006E+02 -0.22288461365E+01 -0.11755794577E+01  0.13233615557E+02  0.00000000000E+00 0.  1.
<mgrwt>
<rscale>  1 0.30000000E+03</rscale>
<asrwt>0</asrwt>
<pdfrwt beam="1">  1        1 0.41739385E+00 0.30000000E+03</pdfrwt>
<pdfrwt beam="2">0</pdfrwt>
<totfact> 0.83200402E-01</totfact>
</mgrwt>
</event>
<event>
 6    1  0.5260809E-006  0.3000000E+03  0.7818608E-02  0.1093470E+00
          1   -1    0    0  502    0  0.00000000000E+00  0.00000000000E+00  0.10864920105E+03  0.10864920105E+03  0.00000000000E+00 0.  1.
         13   -1    0    0    0    0 -0.00000000000E+00 -0.00000000000E+00 -0.10000000000E+04  0.10000000000E+04  0.00000000000E+00 0.  1.
    9000005    2    1    2  501    0 -0.21266685391E+01 -0.91874524047E+01 -0.88215230184E+03  0.10954755778E+04  0.64944986403E+03 0.  0.
         13    1    3    3    0    0 -0.59614862739E+02 -0.17220552728E+03  0.14032978003E+02  0.18277198899E+03  0.00000000000E+00 0.  1.
          3    1    3    3  501    0  0.57488194200E+02  0.16301807488E+03 -0.89618527984E+03  0.91270358880E+03  0.00000000000E+00 0.  1.
         21    1    1    2  502  501  0.21266685391E+01  0.91874524047E+01 -0.91984971136E+01  0.13173623264E+02  0.00000000000E+00 0. -1.
<mgrwt>
<rscale>  1 0.30000000E+03</rscale>
<asrwt>0</asrwt>
<pdfrwt beam="1">  1        1 0.39508884E+00 0.30000000E+03</pdfrwt>
<pdfrwt beam="2">0</pdfrwt>
<totfact> 0.11228398E+00</totfact>
</mgrwt>
</event>
<event>
 6    1  0.5260809E-006  0.3000000E+03  0.7818608E-02  0.1093470E+00
          1   -1    0    0  502    0  0.00000000000E+00  0.00000000000E+00  0.10511100274E+03  0.10511100274E+03  0.00000000000E+00 0.  1.
         13   -1    0    0    0    0 -0.00000000000E+00 -0.00000000000E+00 -0.10000000000E+04  0.10000000000E+04  0.00000000000E+00 0.  1.
    9000005    2    1    2  501    0  0.13946511093E+02  0.78000147216E+01 -0.90175604314E+03  0.10877184262E+04  0.60803952821E+03 0.  0.
         13    1    3    3    0    0 -0.18220542302E+03  0.93405775291E+02 -0.51760524375E+02  0.21119329279E+03  0.00000000000E+00 0.  1.
          3    1    3    3  501    0  0.19615193412E+03 -0.85605760570E+02 -0.84999551876E+03  0.87652513336E+03  0.00000000000E+00 0.  1.
         21    1    1    2  502  501 -0.13946511093E+02 -0.78000147216E+01  0.68670458805E+01  0.17392576590E+02  0.00000000000E+00 0. -1.
<mgrwt>
<rscale>  1 0.30000000E+03</rscale>
<asrwt>0</asrwt>
<pdfrwt beam="1">  1        1 0.38222263E+00 0.30000000E+03</pdfrwt>
<pdfrwt beam="2">0</pdfrwt>
<totfact> 0.13245944E+00</totfact>
</mgrwt>
</event>
<event>
 6    1  0.5260809E-006  0.3000000E+03  0.7818608E-02  0.1093470E+00
          1   -1    0    0  502    0  0.00000000000E+00  0.00000000000E+00  0.17590552453E+03  0.17590552453E+03  0.00000000000E+00 0.  1.
         13   -1    0    0    0    0 -0.00000000000E+00 -0.00000000000E+00 -0.10000000000E+04  0.10000000000E+04  0.00000000000E+00 0.  1.
    9000005    2    1    2  501    0 -0.12228297696E+03 -0.10815568628E+03 -0.72965507078E+03  0.98730653173E+03  0.64476886273E+03 0.  0.
         13    1    3    3    0    0  0.52143683077E+02 -0.35316523978E+03 -0.32233728635E+03  0.48098438275E+03  0.00000000000E+00 0.  1.
          3    1    3    3  501    0 -0.17442666004E+03  0.24500955350E+03 -0.40731778443E+03  0.50632214898E+03  0.00000000000E+00 0.  1.
         21    1    1    2  502  501  0.12228297696E+03  0.10815568628E+03 -0.94439404689E+02  0.18859899281E+03  0.00000000000E+00 0.  1.
<mgrwt>
<rscale>  1 0.30000000E+03</rscale>
<asrwt>0</asrwt>
<pdfrwt beam="1">  1        1 0.63965780E+00 0.30000000E+03</pdfrwt>
<pdfrwt beam="2">0</pdfrwt>
<totfact> 0.40077967E-02</totfact>
</mgrwt>
</event>
<event>
 6    1  0.5260809E-006  0.3000000E+03  0.7818608E-02  0.1093470E+00
          1   -1    0    0  502    0  0.00000000000E+00  0.00000000000E+00  0.11151599129E+03  0.11151599129E+03  0.00000000000E+00 0.  1.
         13   -1    0    0    0    0 -0.00000000000E+00 -0.00000000000E+00 -0.10000000000E+04  0.10000000000E+04  0.00000000000E+00 0.  1.
    9000005    2    1    2  501    0 -0.17426327526E+02 -0.37004662278E+02 -0.87542484155E+03  0.10685792498E+04  0.61140815991E+03 0.  0.
         13    1    3    3    0    0 -0.24221964171E+03  0.15554431304E+03 -0.59439296291E+03  0.66042969535E+03  0.00000000000E+00 0.  1.
          3    1    3    3  501    0  0.22479331418E+03 -0.19254897531E+03 -0.28103187864E+03  0.40814955446E+03  0.00000000000E+00 0.  1.
         21    1    1    2  502  501  0.17426327526E+02  0.37004662278E+02 -0.13059167169E+02  0.42936741475E+02  0.00000000000E+00 0.  1.
<mgrwt>
<rscale>  1 0.30000000E+03</rscale>
<asrwt>0</asrwt>
<pdfrwt beam="1">  1        1 0.40551355E+00 0.30000000E+03</pdfrwt>
<pdfrwt beam="2">0</pdfrwt>
<totfact> 0.97891035E-01</totfact>
</mgrwt>
</event>
<event>
 6    1  0.5260809E-006  0.3000000E+03  0.7818608E-02  0.1093470E+00
          1   -1    0    0  502    0  0.00000000000E+00  0.00000000000E+00  0.12147677838E+03  0.12147677838E+03  0.00000000000E+00 0.  1.
         13   -1    0    0    0    0 -0.00000000000E+00 -0.00000000000E+00 -0.10000000000E+04  0.10000000000E+04  0.00000000000E+00 0.  1.
    9000005    2    1    2  501    0 -0.12013475844E+02 -0.27670994510E+01 -0.89193385229E+03  0.11032607015E+04  0.64921968410E+03 0.  0.
         13    1    3    3    0    0 -0.30398303249E+03  0.85623402423E+02 -0.29150429475E+03  0.42978111282E+03  0.00000000000E+00 0.  1.
          1    1    3    3  501    0  0.29196955664E+03 -0.88390501874E+02 -0.60042955754E+03  0.67347958870E+03  0.00000000000E+00 0.  1.
         21    1    1    2  502  501  0.12013475844E+02  0.27670994510E+01  0.13410630672E+02  0.18216076862E+02  0.00000000000E+00 0. -1.
<mgrwt>
<rscale>  1 0.30000000E+03</rscale>
<asrwt>0</asrwt>
<pdfrwt beam="1">  1        1 0.44173467E+00 0.30000000E+03</pdfrwt>
<pdfrwt beam="2">0</pdfrwt>
<totfact> 0.58400733E-01</totfact>
</mgrwt>
</event>
<event>
 6    1  0.5260809E-006  0.3000000E+03  0.7818608E-02  0.1093470E+00
          1   -1    0    0  502    0  0.00000000000E+00  0.00000000000E+00  0.97354016812E+02  0.97354016812E+02  0.00000000000E+00 0.  1.
         13   -1    0    0    0    0 -0.00000000000E+00 -0.00000000000E+00 -0.10000000000E+04  0.10000000000E+04  0.00000000000E+00 0.  1.
    9000005    2    1    2  501    0 -0.54659531542E+01 -0.23737207134E+02 -0.89794299086E+03  0.10725457564E+04  0.58605413842E+03 0.  0.
         13    1    3    3    0    0  0.20807569571E+03 -0.19690714847E+03 -0.30210097667E+03  0.41633270394E+03  0.00000000000E+00 0.  1.
          1    1    3    3  501    0 -0.21354164887E+03  0.17316994134E+03 -0.59584201419E+03  0.65621305249E+03  0.00000000000E+00 0.  1.
         21    1    1    2  502  501  0.54659531542E+01  0.23737207134E+02 -0.47029923306E+01  0.24808260384E+02  0.00000000000E+00 0. -1.
<mgrwt>
<rscale>  1 0.30000000E+03</rscale>
<asrwt>0</asrwt>
<pdfrwt beam="1">  1        1 0.35401535E+00 0.30000000E+03</pdfrwt>
<pdfrwt beam="2">0</pdfrwt>
<totfact> 0.18773899E+00</totfact>
</mgrwt>
</event>
<event>
 6    1  0.5260809E-006  0.3000000E+03  0.7818608E-02  0.1093470E+00
          1   -1    0    0  502    0  0.00000000000E+00  0.00000000000E+00  0.12535383766E+03  0.12535383766E+03  0.00000000000E+00 0.  1.
         13   -1    0    0    0    0 -0.00000000000E+00 -0.00000000000E+00 -0.10000000000E+04  0.10000000000E+04  0.00000000000E+00 0.  1.
    9000005    2    1    2  501    0  0.32854287986E+00  0.13107176075E+02 -0.89668694316E+03  0.10997081358E+04  0.63650499127E+03 0.  0.
         13    1    3    3    0    0  0.14765042954E+03 -0.22366059249E+03 -0.16028558515E+03  0.31227580563E+03  0.00000000000E+00 0.  1.
          3    1    3    3  501    0 -0.14732188666E+03  0.23676776856E+03 -0.73640135801E+03  0.78743233017E+03  0.00000000000E+00 0.  1.
         21    1    1    2  502  501 -0.32854287986E+00 -0.13107176075E+02  0.22040780812E+02  0.25645701860E+02  0.00000000000E+00 0.  1.
<mgrwt>
<rscale>  1 0.30000000E+03</rscale>
<asrwt>0</asrwt>
<pdfrwt beam="1">  1        1 0.45583310E+00 0.30000000E+03</pdfrwt>
<pdfrwt beam="2">0</pdfrwt>
<totfact> 0.47014260E-01</totfact>
</mgrwt>
</event>
<event>
 6    1  0.5260809E-006  0.3000000E+03  0.7818608E-02  0.1093470E+00
          1   -1    0    0  502    0  0.00000000000E+00  0.00000000000E+00  0.16996728424E+03  0.16996728424E+03  0.00000000000E+00 0.  1.
         13   -1    0    0    0    0 -0.00000000000E+00 -0.00000000000E+00 -0.10000000000E+04  0.10000000000E+04  0.00000000000E+00 0.  1.
    9000005    2    1    2  501    0  0.45690447610E+02  0.81890332966E+02 -0.84061858629E+03  0.10755972451E+04  0.66443674070E+03 0.  0.
         13    1    3    3    0    0 -0.24110178571E+03 -0.14237061812E+02 -0.75797189247E+02  0.25313628523E+03  0.00000000000E+00 0.  1.
          1    1    3    3  501    0  0.28679223332E+03  0.96127394778E+02 -0.76482139704E+03  0.82246095986E+03  0.00000000000E+00 0.  1.
         21    1    1    2  502  501 -0.45690447610E+02 -0.81890332966E+02  0.10585870533E+02  0.94370039160E+02  0.00000000000E+00 0. -1.
<mgrwt>
<rscale>  1 0.30000000E+03</rscale>
<asrwt>0</asrwt>
<pdfrwt beam="1">  1        1 0.61806416E+00 0.30000000E+03</pdfrwt>
<pdfrwt beam="2">0</pdfrwt>
<totfact> 0.48340366E-02</totfact>
</mgrwt>
</event>
<event>
 6    1  0.5260809E-006  0.3000000E+03  0.7818608E-02  0.1093470E+00
          1   -1    0    0  502    0  0.00000000000E+00  0.00000000000E+00  0.13988884026E+03  0.13988884026E+03  0.00000000000E+00 0.  1.
         13   -1    0    0    0    0 -0.00000000000E+00 -0.00000000000E+00 -0.10000000000E+04  0.10000000000E+04  0.00000000000E+00 0.  1.
    9000005    2    1    2  501    0  0.67500818495E+01  0.16374911645E+02 -0.89159892416E+03  0.11037615563E+04  0.65040543534E+03 0.  0.
         13    1    3    3    0    0  0.75957932973E+02 -0.24089967147E+03 -0.10549185228E+03  0.27373489035E+03  0.00000000000E+00 0.  1.
          1    1    3    3  501    0 -0.69207851123E+02  0.25727458312E+03 -0.78610707188E+03  0.83002666598E+03  0.00000000000E+00 0.  1.
         21    1    1    2  502  501 -0.67500818495E+01 -0.16374911645E+02  0.31487764423E+02  0.36127283937E+02  0.00000000000E+00 0. -1.
<mgrwt>
<rscale>  1 0.30000000E+03</rscale>
<asrwt>0</asrwt>
<pdfrwt beam="1">  1        1 0.50868776E+00 0.30000000E+03</pdfrwt>
<pdfrwt beam="2">0</pdfrwt>
<totfact> 0.19724189E-01</totfact>
</mgrwt>
</event>
<event>
 6    1  0.5260809E-006  0.3000000E+03  0.7818608E-02  0.1093470E+00
          1   -1    0    0  502    0  0.00000000000E+00  0.00000000000E+00  0.11277597879E+03  0.11277597879E+03  0.00000000000E+00 0.  1.
         13   -1    0    0    0    0 -0.00000000000E+00 -0.00000000000E+00 -0.10000000000E+04  0.10000000000E+04  0.00000000000E+00 0.  1.
    9000005    2    1    2  501    0 -0.88524376946E+01 -0.46415287906E+01 -0.89764218422E+03  0.10983382656E+04  0.63283927286E+03 0.  0.
         13    1    3    3    0    0 -0.27889138169E+03 -0.11440573523E+03 -0.26337096867E+03  0.40029157145E+03  0.00000000000E+00 0.  1.
          3    1    3    3  501    0  0.27003894399E+03  0.10976420644E+03 -0.63427121555E+03  0.69804669412E+03  0.00000000000E+00 0.  1.
         21    1    1    2  502  501  0.88524376946E+01  0.46415287906E+01  0.10418163008E+02  0.14437713223E+02  0.00000000000E+00 0.  1.
<mgrwt>
<rscale>  1 0.30000000E+03</rscale>
<asrwt>0</asrwt>
<pdfrwt beam="1">  1        1 0.41009533E+00 0.30000000E+03</pdfrwt>
<pdfrwt beam="2">0</pdfrwt>
<totfact> 0.92015565E-01</totfact>
</mgrwt>
</event>
<event>
 6    1  0.5260809E-006  0.3000000E+03  0.7818608E-02  0.1093470E+00
          1   -1    0    0  502    0  0.00000000000E+00  0.00000000000E+00  0.10835219458E+03  0.10835219458E+03  0.00000000000E+00 0.  1.
         13   -1    0    0    0    0 -0.00000000000E+00 -0.00000000000E+00 -0.10000000000E+04  0.10000000000E+04  0.00000000000E+00 0.  1.
    9000005    2    1    2  501    0 -0.25321451156E+01  0.96389788532E+01 -0.88620657171E+03  0.10969975173E+04  0.64648444956E+03 0.  0.
         13    1    3    3    0    0 -0.23922594629E+02  0.10326940812E+03 -0.96620447106E+03  0.97200202730E+03  0.00000000000E+00 0.  1.
          1    1    3    3  501    0  0.21390449514E+02 -0.93630429270E+02  0.79997899351E+02  0.12499548998E+03  0.00000000000E+00 0.  1.
         21    1    1    2  502  501  0.25321451156E+01 -0.96389788532E+01 -0.54412337103E+01  0.11354677297E+02  0.00000000000E+00 0.  1.
<mgrwt>
<rscale>  1 0.30000000E+03</rscale>
<asrwt>0</asrwt>
<pdfrwt beam="1">  1        1 0.39400881E+00 0.30000000E+03</pdfrwt>
<pdfrwt beam="2">0</pdfrwt>
<totfact> 0.11386697E+00</totfact>
</mgrwt>
</event>
<event>
 6    1  0.5260809E-006  0.3000000E+03  0.7818608E-02  0.1093470E+00
          1   -1    0    0  502    0  0.00000000000E+00  0.00000000000E+00  0.97378030608E+02  0.97378030608E+02  0.00000000000E+00 0.  1.
         13   -1    0    0    0    0 -0.00000000000E+00 -0.00000000000E+00 -0.10000000000E+04  0.10000000000E+04  0.00000000000E+00 0.  1.
    9000005    2    1    2  501    0  0.70677383954E+01 -0.12572290433E+02 -0.86812598827E+03  0.10599883512E+04  0.60804979875E+03 0.  0.
         13    1    3    3    0    0 -0.81109711126E+02  0.19012084755E+03 -0.50182987985E+02  0.21270414711E+03  0.00000000000E+00 0.  1.
          3    1    3    3  501    0  0.88177449521E+02 -0.20269313799E+03 -0.81794300029E+03  0.84728420410E+03  0.00000000000E+00 0.  1.
         21    1    1    2  502  501 -0.70677383954E+01  0.12572290433E+02 -0.34495981117E+02  0.37389679404E+02  0.00000000000E+00 0. -1.
<mgrwt>
<rscale>  1 0.30000000E+03</rscale>
<asrwt>0</asrwt>
<pdfrwt beam="1">  1        1 0.35410268E+00 0.30000000E+03</pdfrwt>
<pdfrwt beam="2">0</pdfrwt>
<totfact> 0.18754319E+00</totfact>
</mgrwt>
</event>
<event>
 6    1  0.5260809E-006  0.3000000E+03  0.7818608E-02  0.1093470E+00
          1   -1    0    0  502    0  0.00000000000E+00  0.00000000000E+00  0.13531254880E+03  0.13531254880E+03  0.00000000000E+00 0.  1.
         13   -1    0    0    0    0 -0.00000000000E+00 -0.00000000000E+00 -0.10000000000E+04  0.10000000000E+04  0.00000000000E+00 0.  1.
    9000005    2    1    2  501    0 -0.37989649952E+02 -0.70432702696E+01 -0.87463983728E+03  0.10954142888E+04  0.65836524671E+03 0.  0.
         13    1    3    3    0    0 -0.23029725812E+02  0.29473614033E+03 -0.66472752927E+03  0.72750426037E+03  0.00000000000E+00 0.  1.
          3    1    3    3  501    0 -0.14959924140E+02 -0.30177941060E+03 -0.20991230801E+03  0.36791002847E+03  0.00000000000E+00 0.  1.
         21    1    1    2  502  501  0.37989649952E+02  0.70432702696E+01  0.99523860840E+01  0.39898259966E+02  0.00000000000E+00 0. -1.
<mgrwt>
<rscale>  1 0.30000000E+03</rscale>
<asrwt>0</asrwt>
<pdfrwt beam="1">  1        1 0.49204667E+00 0.30000000E+03</pdfrwt>
<pdfrwt beam="2">0</pdfrwt>
<totfact> 0.26120379E-01</totfact>
</mgrwt>
</event>
<event>
 6    1  0.5260809E-006  0.3000000E+03  0.7818608E-02  0.1093470E+00
          1   -1    0    0  502    0  0.00000000000E+00  0.00000000000E+00  0.10514215952E+03  0.10514215952E+03  0.00000000000E+00 0.  1.
         13   -1    0    0    0    0 -0.00000000000E+00 -0.00000000000E+00 -0.10000000000E+04  0.10000000000E+04  0.00000000000E+00 0.  1.
    9000005    2    1    2  501    0  0.96383155982E+01  0.19080161165E+02 -0.83417038403E+03  0.10407999724E+04  0.62206704077E+03 0.  0.
         13    1    3    3    0    0 -0.10843300245E+03  0.24232737247E+03 -0.13586014841E+03  0.29822516895E+03  0.00000000000E+00 0.  1.
          1    1    3    3  501    0  0.11807131805E+03 -0.22324721130E+03 -0.69831023562E+03  0.74257480342E+03  0.00000000000E+00 0.  1.
         21    1    1    2  502  501 -0.96383155982E+01 -0.19080161165E+02 -0.60687456451E+02  0.64342187157E+02  0.00000000000E+00 0.  1.
<mgrwt>
<rscale>  1 0.30000000E+03</rscale>
<asrwt>0</asrwt>
<pdfrwt beam="1">  1        1 0.38233593E+00 0.30000000E+03</pdfrwt>
<pdfrwt beam="2">0</pdfrwt>
<totfact> 0.13226917E+00</totfact>
</mgrwt>
</event>
<event>
 6    1  0.5260809E-006  0.3000000E+03  0.7818608E-02  0.1093470E+00
          1   -1    0    0  502    0  0.00000000000E+00  0.00000000000E+00  0.11948985591E+03  0.11948985591E+03  0.00000000000E+00 0.  1.
         13   -1    0    0    0    0 -0.00000000000E+00 -0.00000000000E+00 -0.10000000000E+04  0.10000000000E+04  0.00000000000E+00 0.  1.
    9000005    2    1    2  501    0  0.38560383747E+01 -0.24250614262E+02 -0.88020867941E+03  0.10949327346E+04  0.65077447151E+03 0.  0.
         13    1    3    3    0    0 -0.28096982667E+03  0.14838511690E+03 -0.44969937389E+03  0.55062847119E+03  0.00000000000E+00 0.  1.
          1    1    3    3  501    0  0.28482586505E+03 -0.17263573116E+03 -0.43050930552E+03  0.54430426345E+03  0.00000000000E+00 0.  1.
         21    1    1    2  502  501 -0.38560383747E+01  0.24250614262E+02 -0.30146468190E+00  0.24557121268E+02  0.00000000000E+00 0. -1.
<mgrwt>
<rscale>  1 0.30000000E+03</rscale>
<asrwt>0</asrwt>
<pdfrwt beam="1">  1        1 0.43450948E+00 0.30000000E+03</pdfrwt>
<pdfrwt beam="2">0</pdfrwt>
<totfact> 0.65033588E-01</totfact>
</mgrwt>
</event>
<event>
 6    1  0.5260809E-006  0.3000000E+03  0.7818608E-02  0.1093470E+00
          1   -1    0    0  502    0  0.00000000000E+00  0.00000000000E+00  0.11950884031E+03  0.11950884031E+03  0.00000000000E+00 0.  1.
         13   -1    0    0    0    0 -0.00000000000E+00 -0.00000000000E+00 -0.10000000000E+04  0.10000000000E+04  0.00000000000E+00 0.  1.
    9000005    2    1    2  501    0 -0.32810288293E+02 -0.12242908802E+02 -0.87567217137E+03  0.10841587840E+04  0.63825709031E+03 0.  0.
         13    1    3    3    0    0 -0.21687033104E+03 -0.22180818571E+03 -0.66768476148E+03  0.73622995894E+03  0.00000000000E+00 0.  1.
          3    1    3    3  501    0  0.18406004275E+03  0.20956527690E+03 -0.20798740990E+03  0.34792882504E+03  0.00000000000E+00 0.  1.
         21    1    1    2  502  501  0.32810288293E+02  0.12242908802E+02 -0.48189883164E+01  0.35350056325E+02  0.00000000000E+00 0.  1.
<mgrwt>
<rscale>  1 0.30000000E+03</rscale>
<asrwt>0</asrwt>
<pdfrwt beam="1">  1        1 0.43457852E+00 0.30000000E+03</pdfrwt>
<pdfrwt beam="2">0</pdfrwt>
<totfact> 0.64967568E-01</totfact>
</mgrwt>
</event>
<event>
 6    1  0.5260809E-006  0.3000000E+03  0.7818608E-02  0.1093470E+00
          1   -1    0    0  502    0  0.00000000000E+00  0.00000000000E+00  0.11453796351E+03  0.11453796351E+03  0.00000000000E+00 0.  1.
         13   -1    0    0    0    0 -0.00000000000E+00 -0.00000000000E+00 -0.10000000000E+04  0.10000000000E+04  0.00000000000E+00 0.  1.
    9000005    2    1    2  501    0 -0.68475441360E+01 -0.22179970473E+02 -0.85605613608E+03  0.10770740218E+04  0.65323617501E+03 0.  0.
         13    1    3    3    0    0 -0.12745864390E+03  0.16280707480E+03 -0.14775751291E+02  0.20729248017E+03  0.00000000000E+00 0.  1.
          3    1    3    3  501    0  0.12061109976E+03 -0.18498704527E+03 -0.84128038478E+03  0.86978154161E+03  0.00000000000E+00 0.  1.
         21    1    1    2  502  501  0.68475441360E+01  0.22179970473E+02 -0.29405900411E+02  0.37463941729E+02  0.00000000000E+00 0.  1.
<mgrwt>
<rscale>  1 0.30000000E+03</rscale>
<asrwt>0</asrwt>
<pdfrwt beam="1">  1        1 0.41650256E+00 0.30000000E+03</pdfrwt>
<pdfrwt beam="2">0</pdfrwt>
<totfact> 0.84242677E-01</totfact>
</mgrwt>
</event>
<event>
 6    1  0.5260809E-006  0.3000000E+03  0.7818608E-02  0.1093470E+00
          1   -1    0    0  502    0  0.00000000000E+00  0.00000000000E+00  0.12452813230E+03  0.12452813230E+03  0.00000000000E+00 0.  1.
         13   -1    0    0    0    0 -0.00000000000E+00 -0.00000000000E+00 -0.10000000000E+04  0.10000000000E+04  0.00000000000E+00 0.  1.
    9000005    2    1    2  501    0 -0.29383445762E+01 -0.11499476616E+02 -0.88935409106E+03  0.11062637419E+04  0.65782056485E+03 0.  0.
         13    1    3    3    0    0  0.10245544821E+03 -0.26392714708E+03 -0.15533423765E+03  0.32292937807E+03  0.00000000000E+00 0.  1.
          1    1    3    3  501    0 -0.10539379279E+03  0.25242767046E+03 -0.73401985340E+03  0.78333436383E+03  0.00000000000E+00 0.  1.
         21    1    1    2  502  501  0.29383445762E+01  0.11499476616E+02  0.13882223358E+02  0.18264390399E+02  0.00000000000E+00 0. -1.
<mgrwt>
<rscale>  1 0.30000000E+03</rscale>
<asrwt>0</asrwt>
<pdfrwt beam="1">  1        1 0.45283053E+00 0.30000000E+03</pdfrwt>
<pdfrwt beam="2">0</pdfrwt>
<totfact> 0.49250174E-01</totfact>
</mgrwt>
</event>
<event>
 6    1  0.5260809E-006  0.3000000E+03  0.7818608E-02  0.1093470E+00
          1   -1    0    0  502    0  0.00000000000E+00  0.00000000000E+00  0.11324976482E+03  0.11324976482E+03  0.00000000000E+00 0.  1.
         13   -1    0    0    0    0 -0.00000000000E+00 -0.00000000000E+00 -0.10000000000E+04  0.10000000000E+04  0.00000000000E+00 0.  1.
    9000005    2    1    2  501    0 -0.49686716744E+01  0.13908912205E+02 -0.87933913328E+03  0.10967249360E+04  0.65524814256E+03 0.  0.
         13    1    3    3    0    0 -0.11557984822E+03 -0.29791632984E+03 -0.49974380139E+03  0.59317510731E+03  0.00000000000E+00 0.  1.
          3    1    3    3  501    0  0.11061117655E+03  0.31182524205E+03 -0.37959533189E+03  0.50354982867E+03  0.00000000000E+00 0.  1.
         21    1    1    2  502  501  0.49686716744E+01 -0.13908912205E+02 -0.74111019017E+01  0.16524828844E+02  0.00000000000E+00 0. -1.
<mgrwt>
<rscale>  1 0.30000000E+03</rscale>
<asrwt>0</asrwt>
<pdfrwt beam="1">  1        1 0.41181820E+00 0.30000000E+03</pdfrwt>
<pdfrwt beam="2">0</pdfrwt>
<totfact> 0.89875298E-01</totfact>
</mgrwt>
</event>
<event>
 6    1  0.5260809E-006  0.3000000E+03  0.7818608E-02  0.1093470E+00
          1   -1    0    0  502    0  0.00000000000E+00  0.00000000000E+00  0.10264306567E+03  0.10264306567E+03  0.00000000000E+00 0.  1.
         13   -1    0    0    0    0 -0.00000000000E+00 -0.00000000000E+00 -0.10000000000E+04  0.10000000000E+04  0.00000000000E+00 0.  1.
    9000005    2    1    2  501    0  0.11216416412E+02  0.24300969766E+02 -0.87254226817E+03  0.10661449454E+04  0.61206101792E+03 0.  0.
         13    1    3    3    0    0  0.16292544516E+03  0.21535583962E+03 -0.16204700052E+03  0.31493184774E+03  0.00000000000E+00 0.  1.
          1    1    3    3  501    0 -0.15170902874E+03 -0.19105486986E+03 -0.71049526765E+03  0.75121309763E+03  0.00000000000E+00 0.  1.
         21    1    1    2  502  501 -0.11216416412E+02 -0.24300969766E+02 -0.24814666159E+02  0.36498120298E+02  0.00000000000E+00 0.  1.
<mgrwt>
<rscale>  1 0.30000000E+03</rscale>
<asrwt>0</asrwt>
<pdfrwt beam="1">  1        1 0.37324830E+00 0.30000000E+03</pdfrwt>
<pdfrwt beam="2">0</pdfrwt>
<totfact> 0.14826402E+00</totfact>
</mgrwt>
</event>
<event>
 6    1  0.5260809E-006  0.3000000E+03  0.7818608E-02  0.1093470E+00
          1   -1    0    0  502    0  0.00000000000E+00  0.00000000000E+00  0.11097230871E+03  0.11097230871E+03  0.00000000000E+00 0.  1.
         13   -1    0    0    0    0 -0.00000000000E+00 -0.00000000000E+00 -0.10000000000E+04  0.10000000000E+04  0.00000000000E+00 0.  1.
    9000005    2    1    2  501    0  0.45749425792E+01  0.92595346952E+01 -0.88000647847E+03  0.10972591266E+04  0.65533161049E+03 0.  0.
         13    1    3    3    0    0 -0.15253631268E+02 -0.88837183087E+02  0.86889237725E+02  0.12519767569E+03  0.00000000000E+00 0.  1.
          1    1    3    3  501    0  0.19828573847E+02  0.98096717782E+02 -0.96689571619E+03  0.97206145092E+03  0.00000000000E+00 0.  1.
         21    1    1    2  502  501 -0.45749425792E+01 -0.92595346952E+01 -0.90212128254E+01  0.13713182097E+02  0.00000000000E+00 0.  1.
<mgrwt>
<rscale>  1 0.30000000E+03</rscale>
<asrwt>0</asrwt>
<pdfrwt beam="1">  1        1 0.40353652E+00 0.30000000E+03</pdfrwt>
<pdfrwt beam="2">0</pdfrwt>
<totfact> 0.10050990E+00</totfact>
</mgrwt>
</event>
<event>
 6    1  0.5260809E-006  0.3000000E+03  0.7818608E-02  0.1093470E+00
          1   -1    0    0  502    0  0.00000000000E+00  0.00000000000E+00  0.11362384416E+03  0.11362384416E+03  0.00000000000E+00 0.  1.
         13   -1    0    0    0    0 -0.00000000000E+00 -0.00000000000E+00 -0.10000000000E+04  0.10000000000E+04  0.00000000000E+00 0.  1.
    9000005    2    1    2  501    0 -0.11154188207E+02  0.65032873557E+01 -0.88834427730E+03  0.11005631335E+04  0.64955134295E+03 0.  0.
         13    1    3    3    0    0 -0.20753217457E+03  0.25763641602E+03 -0.44522103902E+03  0.55467819493E+03  0.00000000000E+00 0.  1.
          1    1    3    3  501    0  0.19637798636E+03 -0.25113312867E+03 -0.44312323829E+03  0.54588493857E+03  0.00000000000E+00 0.  1.
         21    1    1    2  502  501  0.11154188207E+02 -0.65032873557E+01  0.19681214628E+01  0.13060710665E+02  0.00000000000E+00 0.  1.
<mgrwt>
<rscale>  1 0.30000000E+03</rscale>
<asrwt>0</asrwt>
<pdfrwt beam="1">  1        1 0.41317849E+00 0.30000000E+03</pdfrwt>
<pdfrwt beam="2">0</pdfrwt>
<totfact> 0.88211705E-01</totfact>
</mgrwt>
</event>
<event>
 6    1  0.5260809E-006  0.3000000E+03  0.7818608E-02  0.1093470E+00
          1   -1    0    0  502    0  0.00000000000E+00  0.00000000000E+00  0.10856773892E+03  0.10856773892E+03  0.00000000000E+00 0.  1.
         13   -1    0    0    0    0 -0.00000000000E+00 -0.00000000000E+00 -0.10000000000E+04  0.10000000000E+04  0.00000000000E+00 0.  1.
    9000005    2    1    2  501    0  0.58043366678E+01 -0.42621453771E+01 -0.88144961768E+03  0.10962588244E+04  0.65175004822E+03 0.  0.
         13    1    3    3    0    0  0.39679406714E+02  0.31368602611E+03 -0.55854155803E+03  0.64182711874E+03  0.00000000000E+00 0.  1.
          1    1    3    3  501    0 -0.33875070047E+02 -0.31794817149E+03 -0.32290805965E+03  0.45443170566E+03  0.00000000000E+00 0.  1.
         21    1    1    2  502  501 -0.58043366678E+01  0.42621453771E+01 -0.99826434005E+01  0.12308914519E+02  0.00000000000E+00 0.  1.
<mgrwt>
<rscale>  1 0.30000000E+03</rscale>
<asrwt>0</asrwt>
<pdfrwt beam="1">  1        1 0.39479261E+00 0.30000000E+03</pdfrwt>
<pdfrwt beam="2">0</pdfrwt>
<totfact> 0.11271622E+00</totfact>
</mgrwt>
</event>
<event>
 6    1  0.5260809E-006  0.3000000E+03  0.7818608E-02  0.1093470E+00
          1   -1    0    0  502    0  0.00000000000E+00  0.00000000000E+00  0.14968459489E+03  0.14968459489E+03  0.00000000000E+00 0.  1.
         13   -1    0    0    0    0 -0.00000000000E+00 -0.00000000000E+00 -0.10000000000E+04  0.10000000000E+04  0.00000000000E+00 0.  1.
    9000005    2    1    2  501    0  0.16133009469E+02  0.22961167226E+02 -0.88898566265E+03  0.11019051222E+04  0.65047052252E+03 0.  0.
         13    1    3    3    0    0  0.11402058219E+01  0.14164092738E+03 -0.95488352905E+03  0.96533207055E+03  0.00000000000E+00 0.  1.
          1    1    3    3  501    0  0.14992803647E+02 -0.11867976016E+03  0.65897866401E+02  0.13657305162E+03  0.00000000000E+00 0.  1.
         21    1    1    2  502  501 -0.16133009469E+02 -0.22961167226E+02  0.38670257548E+02  0.47779472723E+02  0.00000000000E+00 0. -1.
<mgrwt>
<rscale>  1 0.30000000E+03</rscale>
<asrwt>0</asrwt>
<pdfrwt beam="1">  1        1 0.54430877E+00 0.30000000E+03</pdfrwt>
<pdfrwt beam="2">0</pdfrwt>
<totfact> 0.10734388E-01</totfact>
</mgrwt>
</event>
<event>
 6    1  0.5260809E-006  0.3000000E+03  0.7818608E-02  0.1093470E+00
          1   -1    0    0  502    0  0.00000000000E+00  0.00000000000E+00  0.11450853787E+03  0.11450853787E+03  0.00000000000E+00 0.  1.
         13   -1    0    0    0    0 -0.00000000000E+00 -0.00000000000E+00 -0.10000000000E+04  0.10000000000E+04  0.00000000000E+00 0.  1.
    9000005    2    1    2  501    0  0.57067820705E+01  0.16783847405E+02 -0.88096889199E+03  0.10962132233E+04  0.65212190375E+03 0.  0.
         13    1    3    3    0    0  0.99859758891E+02  0.20711627481E+03 -0.85129786712E+03  0.88180336884E+03  0.00000000000E+00 0.  1.
          3    1    3    3  501    0 -0.94152976821E+02 -0.19033242741E+03 -0.29671024878E+02  0.21440985445E+03  0.00000000000E+00 0.  1.
         21    1    1    2  502  501 -0.57067820705E+01 -0.16783847405E+02 -0.45225701320E+01  0.18295314589E+02  0.00000000000E+00 0.  1.
<mgrwt>
<rscale>  1 0.30000000E+03</rscale>
<asrwt>0</asrwt>
<pdfrwt beam="1">  1        1 0.41639556E+00 0.30000000E+03</pdfrwt>
<pdfrwt beam="2">0</pdfrwt>
<totfact> 0.84368372E-01</totfact>
</mgrwt>
</event>
<event>
 6    1  0.5260809E-006  0.3000000E+03  0.7818608E-02  0.1093470E+00
          1   -1    0    0  502    0  0.00000000000E+00  0.00000000000E+00  0.12494163664E+03  0.12494163664E+03  0.00000000000E+00 0.  1.
         13   -1    0    0    0    0 -0.00000000000E+00 -0.00000000000E+00 -0.10000000000E+04  0.10000000000E+04  0.00000000000E+00 0.  1.
    9000005    2    1    2  501    0 -0.23989065899E+02  0.98485242818E+01 -0.87959368637E+03  0.10986160242E+04  0.65772307767E+03 0.  0.
         13    1    3    3    0    0 -0.30432501647E+03 -0.65777530561E+02 -0.67521033010E+03  0.74353842473E+03  0.00000000000E+00 0.  1.
          3    1    3    3  501    0  0.28033595057E+03  0.75626054843E+02 -0.20438335628E+03  0.35507759951E+03  0.00000000000E+00 0.  1.
         21    1    1    2  502  501  0.23989065899E+02 -0.98485242818E+01  0.45353230081E+01  0.26325612396E+02  0.00000000000E+00 0.  1.
<mgrwt>
<rscale>  1 0.30000000E+03</rscale>
<asrwt>0</asrwt>
<pdfrwt beam="1">  1        1 0.45433418E+00 0.30000000E+03</pdfrwt>
<pdfrwt beam="2">0</pdfrwt>
<totfact> 0.48117599E-01</totfact>
</mgrwt>
</event>
<event>
 6    1  0.5260809E-006  0.3000000E+03  0.7818608E-02  0.1093470E+00
          1   -1    0    0  502    0  0.00000000000E+00  0.00000000000E+00  0.14956514370E+03  0.14956514370E+03  0.00000000000E+00 0.  1.
         13   -1    0    0    0    0 -0.00000000000E+00 -0.00000000000E+00 -0.10000000000E+04  0.10000000000E+04  0.00000000000E+00 0.  1.
    9000005    2    1    2  501    0  0.18644709232E+02 -0.60766871297E+02 -0.88493417442E+03  0.10772433574E+04  0.61098651383E+03 0.  0.
         13    1    3    3    0    0 -0.99725650226E+02 -0.28082015883E+03 -0.71623536391E+03  0.77575657485E+03  0.00000000000E+00 0.  1.
          3    1    3    3  501    0  0.11837035946E+03  0.22005328754E+03 -0.16869881051E+03  0.30148678250E+03  0.00000000000E+00 0.  1.
         21    1    1    2  502  501 -0.18644709232E+02  0.60766871297E+02  0.34499318117E+02  0.72321786345E+02  0.00000000000E+00 0.  1.
<mgrwt>
<rscale>  1 0.30000000E+03</rscale>
<asrwt>0</asrwt>
<pdfrwt beam="1">  1        1 0.54387440E+00 0.30000000E+03</pdfrwt>
<pdfrwt beam="2">0</pdfrwt>
<totfact> 0.10807608E-01</totfact>
</mgrwt>
</event>
<event>
 6    1  0.5260809E-006  0.3000000E+03  0.7818608E-02  0.1093470E+00
          1   -1    0    0  502    0  0.00000000000E+00  0.00000000000E+00  0.11046158206E+03  0.11046158206E+03  0.00000000000E+00 0.  1.
         13   -1    0    0    0    0 -0.00000000000E+00 -0.00000000000E+00 -0.10000000000E+04  0.10000000000E+04  0.00000000000E+00 0.  1.
    9000005    2    1    2  501    0 -0.62794157400E+01 -0.81866382018E+01 -0.88943882261E+03  0.11001435383E+04  0.64738545988E+03 0.  0.
         13    1    3    3    0    0 -0.11145800844E+03  0.23133450777E+03 -0.77164486984E+03  0.81324925286E+03  0.00000000000E+00 0.  1.
          1    1    3    3  501    0  0.10517859270E+03 -0.23952114597E+03 -0.11779395277E+03  0.28689428547E+03  0.00000000000E+00 0.  1.
         21    1    1    2  502  501  0.62794157400E+01  0.81866382018E+01 -0.99595334822E-01  0.10318043725E+02  0.00000000000E+00 0. -1.
<mgrwt>
<rscale>  1 0.30000000E+03</rscale>
<asrwt>0</asrwt>
<pdfrwt beam="1">  1        1 0.40167933E+00 0.30000000E+03</pdfrwt>
<pdfrwt beam="2">0</pdfrwt>
<totfact> 0.10301429E+00</totfact>
</mgrwt>
</event>
<event>
 6    1  0.5260809E-006  0.3000000E+03  0.7818608E-02  0.1093470E+00
          1   -1    0    0  502    0  0.00000000000E+00  0.00000000000E+00  0.69697917070E+02  0.69697917070E+02  0.00000000000E+00 0.  1.
         13   -1    0    0    0    0 -0.00000000000E+00 -0.00000000000E+00 -0.10000000000E+04  0.10000000000E+04  0.00000000000E+00 0.  1.
    9000005    2    1    2  501    0 -0.97763472466E+01  0.45750279398E+01 -0.92398448704E+03  0.10571911244E+04  0.51360416011E+03 0.  0.
         13    1    3    3    0    0  0.18576788018E+03 -0.14657405010E+03 -0.63085533394E+03  0.67377452447E+03  0.00000000000E+00 0.  1.
          3    1    3    3  501    0 -0.19554422743E+03  0.15114907804E+03 -0.29312915310E+03  0.38341659988E+03  0.00000000000E+00 0.  1.
         21    1    1    2  502  501  0.97763472466E+01 -0.45750279398E+01 -0.63175958944E+01  0.12506792715E+02  0.00000000000E+00 0. -1.
<mgrwt>
<rscale>  1 0.30000000E+03</rscale>
<asrwt>0</asrwt>
<pdfrwt beam="1">  1        1 0.25344751E+00 0.30000000E+03</pdfrwt>
<pdfrwt beam="2">0</pdfrwt>
<totfact> 0.57495950E+00</totfact>
</mgrwt>
</event>
<event>
 6    1  0.5260809E-006  0.3000000E+03  0.7818608E-02  0.1093470E+00
          1   -1    0    0  502    0  0.00000000000E+00  0.00000000000E+00  0.12009598221E+03  0.12009598221E+03  0.00000000000E+00 0.  1.
         13   -1    0    0    0    0 -0.00000000000E+00 -0.00000000000E+00 -0.10000000000E+04  0.10000000000E+04  0.00000000000E+00 0.  1.
    9000005    2    1    2  501    0 -0.16706182022E+02  0.23287692300E+02 -0.86681413761E+03  0.10885879183E+04  0.65790234343E+03 0.  0.
         13    1    3    3    0    0 -0.15407915117E+03 -0.28256702153E+03 -0.45994545718E+03  0.56136826599E+03  0.00000000000E+00 0.  1.
          3    1    3    3  501    0  0.13737296915E+03  0.30585471383E+03 -0.40686868043E+03  0.52721965227E+03  0.00000000000E+00 0.  1.
         21    1    1    2  502  501  0.16706182022E+02 -0.23287692300E+02 -0.13089880183E+02  0.31508063946E+02  0.00000000000E+00 0.  1.
<mgrwt>
<rscale>  1 0.30000000E+03</rscale>
<asrwt>0</asrwt>
<pdfrwt beam="1">  1        1 0.43671358E+00 0.30000000E+03</pdfrwt>
<pdfrwt beam="2">0</pdfrwt>
<totfact> 0.62951802E-01</totfact>
</mgrwt>
</event>
<event>
 6    1  0.5260809E-006  0.3000000E+03  0.7818608E-02  0.1093470E+00
          1   -1    0    0  502    0  0.00000000000E+00  0.00000000000E+00  0.13563174775E+03  0.13563174775E+03  0.00000000000E+00 0.  1.
         13   -1    0    0    0    0 -0.00000000000E+00 -0.00000000000E+00 -0.10000000000E+04  0.10000000000E+04  0.00000000000E+00 0.  1.
    9000005    2    1    2  501    0  0.14353995829E+02 -0.30151833199E+02 -0.88137712576E+03  0.10981554617E+04  0.65422061256E+03 0.  0.
         13    1    3    3    0    0 -0.29719675356E+03 -0.12806212314E+03 -0.50564285926E+03  0.60033367291E+03  0.00000000000E+00 0.  1.
          1    1    3    3  501    0  0.31155074939E+03  0.97910289943E+02 -0.37573426650E+03  0.49782178874E+03  0.00000000000E+00 0.  1.
         21    1    1    2  502  501 -0.14353995829E+02  0.30151833199E+02  0.17008873512E+02  0.37476286098E+02  0.00000000000E+00 0.  1.
<mgrwt>
<rscale>  1 0.30000000E+03</rscale>
<asrwt>0</asrwt>
<pdfrwt beam="1">  1        1 0.49320740E+00 0.30000000E+03</pdfrwt>
<pdfrwt beam="2">0</pdfrwt>
<totfact> 0.25614923E-01</totfact>
</mgrwt>
</event>
<event>
 6    1  0.5260809E-006  0.3000000E+03  0.7818608E-02  0.1093470E+00
          1   -1    0    0  502    0  0.00000000000E+00  0.00000000000E+00  0.66034597525E+02  0.66034597525E+02  0.00000000000E+00 0.  1.
         13   -1    0    0    0    0 -0.00000000000E+00 -0.00000000000E+00 -0.10000000000E+04  0.10000000000E+04  0.00000000000E+00 0.  1.
    9000005    2    1    2  501    0  0.17769960296E+02  0.33428807804E+01 -0.91168509423E+03  0.10373403738E+04  0.49454867677E+03 0.  0.
         13    1    3    3    0    0 -0.23630752305E+03  0.30388299247E+02 -0.40523766411E+03  0.47008750100E+03  0.00000000000E+00 0.  1.
          3    1    3    3  501    0  0.25407748335E+03 -0.27045418467E+02 -0.50644743011E+03  0.56725287278E+03  0.00000000000E+00 0.  1.
         21    1    1    2  502  501 -0.17769960296E+02 -0.33428807804E+01 -0.22280308250E+02  0.28694223749E+02  0.00000000000E+00 0. -1.
<mgrwt>
<rscale>  1 0.30000000E+03</rscale>
<asrwt>0</asrwt>
<pdfrwt beam="1">  1        1 0.24012632E+00 0.30000000E+03</pdfrwt>
<pdfrwt beam="2">0</pdfrwt>
<totfact> 0.66347892E+00</totfact>
</mgrwt>
</event>
<event>
 6    1  0.5260809E-006  0.3000000E+03  0.7818608E-02  0.1093470E+00
          1   -1    0    0  502    0  0.00000000000E+00  0.00000000000E+00  0.11474910688E+03  0.11474910688E+03  0.00000000000E+00 0.  1.
         13   -1    0    0    0    0 -0.00000000000E+00 -0.00000000000E+00 -0.10000000000E+04  0.10000000000E+04  0.00000000000E+00 0.  1.
    9000005    2    1    2  501    0  0.12012719402E+02  0.11147867155E+01 -0.88898104863E+03  0.11021212711E+04  0.65133589121E+03 0.  0.
         13    1    3    3    0    0 -0.16647424382E+03 -0.10969674025E+03 -0.11343848031E+02  0.19968908725E+03  0.00000000000E+00 0.  1.
          3    1    3    3  501    0  0.17848696323E+03  0.11081152696E+03 -0.87763720060E+03  0.90243218384E+03  0.00000000000E+00 0.  1.
         21    1    1    2  502  501 -0.12012719402E+02 -0.11147867155E+01  0.37301555119E+01  0.12627835800E+02  0.00000000000E+00 0.  1.
<mgrwt>
<rscale>  1 0.30000000E+03</rscale>
<asrwt>0</asrwt>
<pdfrwt beam="1">  1        1 0.41727036E+00 0.30000000E+03</pdfrwt>
<pdfrwt beam="2">0</pdfrwt>
<totfact> 0.83344306E-01</totfact>
</mgrwt>
</event>
<event>
 6    1  0.5260809E-006  0.3000000E+03  0.7818608E-02  0.1093470E+00
          1   -1    0    0  502    0  0.00000000000E+00  0.00000000000E+00  0.10577207019E+03  0.10577207019E+03  0.00000000000E+00 0.  1.
         13   -1    0    0    0    0 -0.00000000000E+00 -0.00000000000E+00 -0.10000000000E+04  0.10000000000E+04  0.00000000000E+00 0.  1.
    9000005    2    1    2  501    0  0.72722707621E+01 -0.26049353884E+01 -0.88563746270E+03  0.10942192465E+04  0.64257479910E+03 0.  0.
         13    1    3    3    0    0  0.12054136607E+03 -0.50363544152E+02 -0.94759787591E+03  0.95656073615E+03  0.00000000000E+00 0.  1.
          1    1    3    3  501    0 -0.11326909531E+03  0.47758608764E+02  0.61960413209E+02  0.13765851034E+03  0.00000000000E+00 0.  1.
         21    1    1    2  502  501 -0.72722707621E+01  0.26049353884E+01 -0.85904671063E+01  0.11552823703E+02  0.00000000000E+00 0. -1.
<mgrwt>
<rscale>  1 0.30000000E+03</rscale>
<asrwt>0</asrwt>
<pdfrwt beam="1">  1        1 0.38462652E+00 0.30000000E+03</pdfrwt>
<pdfrwt beam="2">0</pdfrwt>
<totfact> 0.12847090E+00</totfact>
</mgrwt>
</event>
<event>
 6    1  0.5260809E-006  0.3000000E+03  0.7818608E-02  0.1093470E+00
          1   -1    0    0  502    0  0.00000000000E+00  0.00000000000E+00  0.11758372173E+03  0.11758372173E+03  0.00000000000E+00 0.  1.
         13   -1    0    0    0    0 -0.00000000000E+00 -0.00000000000E+00 -0.10000000000E+04  0.10000000000E+04  0.00000000000E+00 0.  1.
    9000005    2    1    2  501    0  0.13762906517E+01  0.13560868722E+02 -0.89123852430E+03  0.11013472393E+04  0.64689554258E+03 0.  0.
         13    1    3    3    0    0  0.18887935560E+03  0.93612890522E+02 -0.87136753802E+03  0.89650441748E+03  0.00000000000E+00 0.  1.
          3    1    3    3  501    0 -0.18750306495E+03 -0.80052021800E+02 -0.19870986280E+02  0.20484282183E+03  0.00000000000E+00 0.  1.
         21    1    1    2  502  501 -0.13762906517E+01 -0.13560868722E+02  0.88222460323E+01  0.16236482424E+02  0.00000000000E+00 0.  1.
<mgrwt>
<rscale>  1 0.30000000E+03</rscale>
<asrwt>0</asrwt>
<pdfrwt beam="1">  1        1 0.42757807E+00 0.30000000E+03</pdfrwt>
<pdfrwt beam="2">0</pdfrwt>
<totfact> 0.71947788E-01</totfact>
</mgrwt>
</event>
<event>
 6    1  0.5260809E-006  0.3000000E+03  0.7818608E-02  0.1093470E+00
          1   -1    0    0  502    0  0.00000000000E+00  0.00000000000E+00  0.11045636900E+03  0.11045636900E+03  0.00000000000E+00 0.  1.
         13   -1    0    0    0    0 -0.00000000000E+00 -0.00000000000E+00 -0.10000000000E+04  0.10000000000E+04  0.00000000000E+00 0.  1.
    9000005    2    1    2  501    0 -0.13073615142E+02  0.42787966845E+01 -0.87790556355E+03  0.10924377085E+04  0.65000980057E+03 0.  0.
         13    1    3    3    0    0  0.20479311314E+03  0.18506191290E+03 -0.71356524902E+03  0.76509051452E+03  0.00000000000E+00 0.  1.
          1    1    3    3  501    0 -0.21786672828E+03 -0.18078311622E+03 -0.16434031453E+03  0.32734719394E+03  0.00000000000E+00 0.  1.
         21    1    1    2  502  501  0.13073615142E+02 -0.42787966845E+01 -0.11638067448E+02  0.18018660545E+02  0.00000000000E+00 0.  1.
<mgrwt>
<rscale>  1 0.30000000E+03</rscale>
<asrwt>0</asrwt>
<pdfrwt beam="1">  1        1 0.40166037E+00 0.30000000E+03</pdfrwt>
<pdfrwt beam="2">0</pdfrwt>
<totfact> 0.10304007E+00</totfact>
</mgrwt>
</event>
<event>
 6    1  0.5260809E-006  0.3000000E+03  0.7818608E-02  0.1093470E+00
          1   -1    0    0  502    0  0.00000000000E+00  0.00000000000E+00  0.13165262333E+03  0.13165262333E+03  0.00000000000E+00 0.  1.
         13   -1    0    0    0    0 -0.00000000000E+00 -0.00000000000E+00 -0.10000000000E+04  0.10000000000E+04  0.00000000000E+00 0.  1.
    9000005    2    1    2  501    0  0.20997019017E+02  0.13861280324E+02 -0.88225482092E+03  0.11029049816E+04  0.66135680195E+03 0.  0.
         13    1    3    3    0    0  0.25596342432E+03  0.22794940059E+03 -0.49101007239E+03  0.59880639192E+03  0.00000000000E+00 0.  1.
          3    1    3    3  501    0 -0.23496640530E+03 -0.21408812026E+03 -0.39124474853E+03  0.50409858967E+03  0.00000000000E+00 0.  1.
         21    1    1    2  502  501 -0.20997019017E+02 -0.13861280324E+02  0.13907444247E+02  0.28747641735E+02  0.00000000000E+00 0.  1.
<mgrwt>
<rscale>  1 0.30000000E+03</rscale>
<asrwt>0</asrwt>
<pdfrwt beam="1">  1        1 0.47873782E+00 0.30000000E+03</pdfrwt>
<pdfrwt beam="2">0</pdfrwt>
<totfact> 0.32611582E-01</totfact>
</mgrwt>
</event>
<event>
 6    1  0.5260809E-006  0.3000000E+03  0.7818608E-02  0.1093470E+00
          1   -1    0    0  502    0  0.00000000000E+00  0.00000000000E+00  0.92940972631E+02  0.92940972631E+02  0.00000000000E+00 0.  1.
         13   -1    0    0    0    0 -0.00000000000E+00 -0.00000000000E+00 -0.10000000000E+04  0.10000000000E+04  0.00000000000E+00 0.  1.
    9000005    2    1    2  501    0  0.65377311219E+01 -0.15983735082E+02 -0.91002913278E+03  0.10754183232E+04  0.57277685511E+03 0.  0.
         13    1    3    3    0    0  0.14881451760E+03 -0.18548352905E+03 -0.78716504837E+03  0.82230086560E+03  0.00000000000E+00 0.  1.
          3    1    3    3  501    0 -0.14227678648E+03  0.16949979397E+03 -0.12286408441E+03  0.25311745764E+03  0.00000000000E+00 0.  1.
         21    1    1    2  502  501 -0.65377311219E+01  0.15983735082E+02  0.29701054062E+01  0.17522649386E+02  0.00000000000E+00 0. -1.
<mgrwt>
<rscale>  1 0.30000000E+03</rscale>
<asrwt>0</asrwt>
<pdfrwt beam="1">  1        1 0.33796789E+00 0.30000000E+03</pdfrwt>
<pdfrwt beam="2">0</pdfrwt>
<totfact> 0.22674117E+00</totfact>
</mgrwt>
</event>
<event>
 6    1  0.5260809E-006  0.3000000E+03  0.7818608E-02  0.1093470E+00
          1   -1    0    0  502    0  0.00000000000E+00  0.00000000000E+00  0.10853934752E+03  0.10853934752E+03  0.00000000000E+00 0.  1.
         13   -1    0    0    0    0 -0.00000000000E+00 -0.00000000000E+00 -0.10000000000E+04  0.10000000000E+04  0.00000000000E+00 0.  1.
    9000005    2    1    2  501    0 -0.27989286196E+01  0.11665061008E+02 -0.83801909601E+03  0.10537679352E+04  0.63875421589E+03 0.  0.
         13    1    3    3    0    0 -0.13502233864E+03 -0.27739521569E+03 -0.51665574839E+03  0.60175767545E+03  0.00000000000E+00 0.  1.
          3    1    3    3  501    0  0.13222341002E+03  0.28906027670E+03 -0.32136334763E+03  0.45201025975E+03  0.00000000000E+00 0.  1.
         21    1    1    2  502  501  0.27989286196E+01 -0.11665061008E+02 -0.53441556469E+02  0.54771412321E+02  0.00000000000E+00 0.  1.
<mgrwt>
<rscale>  1 0.30000000E+03</rscale>
<asrwt>0</asrwt>
<pdfrwt beam="1">  1        1 0.39468937E+00 0.30000000E+03</pdfrwt>
<pdfrwt beam="2">0</pdfrwt>
<totfact> 0.11286721E+00</totfact>
</mgrwt>
</event>
<event>
 6    1  0.5260809E-006  0.3000000E+03  0.7818608E-02  0.1093470E+00
          1   -1    0    0  502    0  0.00000000000E+00  0.00000000000E+00  0.11966159413E+03  0.11966159413E+03  0.00000000000E+00 0.  1.
         13   -1    0    0    0    0 -0.00000000000E+00 -0.00000000000E+00 -0.10000000000E+04  0.10000000000E+04  0.00000000000E+00 0.  1.
    9000005    2    1    2  501    0  0.14739111630E+02  0.20000605379E+02 -0.87893078733E+03  0.10947769198E+04  0.65222688503E+03 0.  0.
         13    1    3    3    0    0 -0.27357447304E+02  0.16675454641E+03  0.31276936883E+02  0.17185387820E+03  0.00000000000E+00 0.  1.
          1    1    3    3  501    0  0.42096558934E+02 -0.14675394103E+03 -0.91020772421E+03  0.92292304159E+03  0.00000000000E+00 0.  1.
         21    1    1    2  502  501 -0.14739111630E+02 -0.20000605379E+02 -0.14076185450E+01  0.24884674343E+02  0.00000000000E+00 0. -1.
<mgrwt>
<rscale>  1 0.30000000E+03</rscale>
<asrwt>0</asrwt>
<pdfrwt beam="1">  1        1 0.43513399E+00 0.30000000E+03</pdfrwt>
<pdfrwt beam="2">0</pdfrwt>
<totfact> 0.64438294E-01</totfact>
</mgrwt>
</event>
<event>
 6    1  0.5260809E-006  0.3000000E+03  0.7818608E-02  0.1093470E+00
          1   -1    0    0  502    0  0.00000000000E+00  0.00000000000E+00  0.11784336995E+03  0.11784336995E+03  0.00000000000E+00 0.  1.
         13   -1    0    0    0    0 -0.00000000000E+00 -0.00000000000E+00 -0.10000000000E+04  0.10000000000E+04  0.00000000000E+00 0.  1.
    9000005    2    1    2  501    0 -0.33918622445E+02 -0.21193895259E+02 -0.86526535050E+03  0.10744271349E+04  0.63569637972E+03 0.  0.
         13    1    3    3    0    0 -0.17851100721E+03  0.26222070953E+03 -0.39429656241E+03  0.50605894847E+03  0.00000000000E+00 0.  1.
          3    1    3    3  501    0  0.14459238477E+03 -0.28341460478E+03 -0.47096878810E+03  0.56836818639E+03  0.00000000000E+00 0.  1.
         21    1    1    2  502  501  0.33918622445E+02  0.21193895259E+02 -0.16891279545E+02  0.43416235091E+02  0.00000000000E+00 0.  1.
<mgrwt>
<rscale>  1 0.30000000E+03</rscale>
<asrwt>0</asrwt>
<pdfrwt beam="1">  1        1 0.42852225E+00 0.30000000E+03</pdfrwt>
<pdfrwt beam="2">0</pdfrwt>
<totfact> 0.70971197E-01</totfact>
</mgrwt>
</event>
<event>
 6    1  0.5260809E-006  0.3000000E+03  0.7818608E-02  0.1093470E+00
          1   -1    0    0  502    0  0.00000000000E+00  0.00000000000E+00  0.13306902246E+03  0.13306902246E+03  0.00000000000E+00 0.  1.
         13   -1    0    0    0    0 -0.00000000000E+00 -0.00000000000E+00 -0.10000000000E+04  0.10000000000E+04  0.00000000000E+00 0.  1.
    9000005    2    1    2  501    0  0.22702620395E+02 -0.16665989239E+02 -0.87638422436E+03  0.11033616489E+04  0.66974954672E+03 0.  0.
         13    1    3    3    0    0 -0.23106355508E+03  0.25759961898E+02 -0.49945480483E+02  0.23779927069E+03  0.00000000000E+00 0.  1.
          1    1    3    3  501    0  0.25376617547E+03 -0.42425951138E+02 -0.82643874387E+03  0.86556237818E+03  0.00000000000E+00 0.  1.
         21    1    1    2  502  501 -0.22702620395E+02  0.16665989239E+02  0.94532468155E+01  0.29707373588E+02  0.00000000000E+00 0. -1.
<mgrwt>
<rscale>  1 0.30000000E+03</rscale>
<asrwt>0</asrwt>
<pdfrwt beam="1">  1        1 0.48388837E+00 0.30000000E+03</pdfrwt>
<pdfrwt beam="2">0</pdfrwt>
<totfact> 0.29944689E-01</totfact>
</mgrwt>
</event>
<event>
 6    1  0.5260809E-006  0.3000000E+03  0.7818608E-02  0.1093470E+00
          1   -1    0    0  502    0  0.00000000000E+00  0.00000000000E+00  0.10403848791E+03  0.10403848791E+03  0.00000000000E+00 0.  1.
         13   -1    0    0    0    0 -0.00000000000E+00 -0.00000000000E+00 -0.10000000000E+04  0.10000000000E+04  0.00000000000E+00 0.  1.
    9000005    2    1    2  501    0 -0.30218685559E+02 -0.13412980092E+02 -0.91951719403E+03  0.10634435727E+04  0.53320473098E+03 0.  0.
         13    1    3    3    0    0  0.18528697912E+03 -0.17631095278E+03 -0.54099953350E+03  0.59841232604E+03  0.00000000000E+00 0.  1.
          1    1    3    3  501    0 -0.21550566468E+03  0.16289797269E+03 -0.37851766053E+03  0.46503124663E+03  0.00000000000E+00 0.  1.
         21    1    1    2  502  501  0.30218685559E+02  0.13412980092E+02  0.23555681937E+02  0.40594915240E+02  0.00000000000E+00 0. -1.
<mgrwt>
<rscale>  1 0.30000000E+03</rscale>
<asrwt>0</asrwt>
<pdfrwt beam="1">  1        1 0.37832257E+00 0.30000000E+03</pdfrwt>
<pdfrwt beam="2">0</pdfrwt>
<totfact> 0.13914700E+00</totfact>
</mgrwt>
</event>
<event>
 6    1  0.5260809E-006  0.3000000E+03  0.7818608E-02  0.1093470E+00
          1   -1    0    0  502    0  0.00000000000E+00  0.00000000000E+00  0.92055711670E+02  0.92055711670E+02  0.00000000000E+00 0.  1.
         13   -1    0    0    0    0 -0.00000000000E+00 -0.00000000000E+00 -0.10000000000E+04  0.10000000000E+04  0.00000000000E+00 0.  1.
    9000005    2    1    2  501    0  0.15417541241E+02  0.14043388108E+01 -0.88814043510E+03  0.10669187797E+04  0.59100133443E+03 0.  0.
         13    1    3    3    0    0  0.26894654609E+02 -0.22680989268E+03 -0.10547108710E+03  0.25157543616E+03  0.00000000000E+00 0.  1.
          3    1    3    3  501    0 -0.11477113368E+02  0.22821423149E+03 -0.78266934799E+03  0.81534334355E+03  0.00000000000E+00 0.  1.
         21    1    1    2  502  501 -0.15417541241E+02 -0.14043388108E+01 -0.19803853232E+02  0.25136931957E+02  0.00000000000E+00 0. -1.
<mgrwt>
<rscale>  1 0.30000000E+03</rscale>
<asrwt>0</asrwt>
<pdfrwt beam="1">  1        1 0.33474875E+00 0.30000000E+03</pdfrwt>
<pdfrwt beam="2">0</pdfrwt>
<totfact> 0.23539542E+00</totfact>
</mgrwt>
</event>
<event>
 6    1  0.5260809E-006  0.3000000E+03  0.7818608E-02  0.1093470E+00
          1   -1    0    0  502    0  0.00000000000E+00  0.00000000000E+00  0.11449470776E+03  0.11449470776E+03  0.00000000000E+00 0.  1.
         13   -1    0    0    0    0 -0.00000000000E+00 -0.00000000000E+00 -0.10000000000E+04  0.10000000000E+04  0.00000000000E+00 0.  1.
    9000005    2    1    2  501    0  0.11476558054E+02 -0.16561738343E+01 -0.89535113072E+03  0.10992830401E+04  0.63767946553E+03 0.  0.
         13    1    3    3    0    0 -0.64153670178E+02  0.68476923701E+02  0.77057629230E+02  0.12141935883E+03  0.00000000000E+00 0.  1.
          1    1    3    3  501    0  0.75630228232E+02 -0.70133097536E+02 -0.97240875995E+03  0.97786368131E+03  0.00000000000E+00 0.  1.
         21    1    1    2  502  501 -0.11476558054E+02  0.16561738343E+01  0.98458384821E+01  0.15211667625E+02  0.00000000000E+00 0.  1.
<mgrwt>
<rscale>  1 0.30000000E+03</rscale>
<asrwt>0</asrwt>
<pdfrwt beam="1">  1        1 0.41634527E+00 0.30000000E+03</pdfrwt>
<pdfrwt beam="2">0</pdfrwt>
<totfact> 0.84427490E-01</totfact>
</mgrwt>
</event>
<event>
 6    1  0.5260809E-006  0.3000000E+03  0.7818608E-02  0.1093470E+00
          1   -1    0    0  502    0  0.00000000000E+00  0.00000000000E+00  0.11617508010E+03  0.11617508010E+03  0.00000000000E+00 0.  1.
         13   -1    0    0    0    0 -0.00000000000E+00 -0.00000000000E+00 -0.10000000000E+04  0.10000000000E+04  0.00000000000E+00 0.  1.
    9000005    2    1    2  501    0  0.17825580230E+02  0.32812652071E+01 -0.88723422426E+03  0.10977321582E+04  0.64614456931E+03 0.  0.
         13    1    3    3    0    0 -0.22653281141E+03  0.15878124953E+03 -0.17117974692E+03  0.32531693101E+03  0.00000000000E+00 0.  1.
          1    1    3    3  501    0  0.24435839164E+03 -0.15549998432E+03 -0.71605447733E+03  0.77241522719E+03  0.00000000000E+00 0.  1.
         21    1    1    2  502  501 -0.17825580230E+02 -0.32812652071E+01  0.34093043553E+01  0.18442921896E+02  0.00000000000E+00 0.  1.
<mgrwt>
<rscale>  1 0.30000000E+03</rscale>
<asrwt>0</asrwt>
<pdfrwt beam="1">  1        1 0.42245573E+00 0.30000000E+03</pdfrwt>
<pdfrwt beam="2">0</pdfrwt>
<totfact> 0.77449535E-01</totfact>
</mgrwt>
</event>
<event>
 6    1  0.5260809E-006  0.3000000E+03  0.7818608E-02  0.1093470E+00
          1   -1    0    0  502    0  0.00000000000E+00  0.00000000000E+00  0.10815524778E+03  0.10815524778E+03  0.00000000000E+00 0.  1.
         13   -1    0    0    0    0 -0.00000000000E+00 -0.00000000000E+00 -0.10000000000E+04  0.10000000000E+04  0.00000000000E+00 0.  1.
    9000005    2    1    2  501    0  0.86995149264E+01  0.21376435587E+01 -0.87779319106E+03  0.10914909911E+04  0.64865356416E+03 0.  0.
         13    1    3    3    0    0 -0.23742443891E+03  0.21647455264E+03 -0.40445058121E+03  0.51653835170E+03  0.00000000000E+00 0.  1.
          3    1    3    3  501    0  0.24612395384E+03 -0.21433690909E+03 -0.47334260984E+03  0.57495263939E+03  0.00000000000E+00 0.  1.
         21    1    1    2  502  501 -0.86995149264E+01 -0.21376435587E+01 -0.14051561160E+02  0.16664256688E+02  0.00000000000E+00 0. -1.
<mgrwt>
<rscale>  1 0.30000000E+03</rscale>
<asrwt>0</asrwt>
<pdfrwt beam="1">  1        1 0.39329264E+00 0.30000000E+03</pdfrwt>
<pdfrwt beam="2">0</pdfrwt>
<totfact> 0.11492758E+00</totfact>
</mgrwt>
</event>
<event>
 6    1  0.5260809E-006  0.3000000E+03  0.7818608E-02  0.1093470E+00
          1   -1    0    0  502    0  0.00000000000E+00  0.00000000000E+00  0.11225700699E+03  0.11225700699E+03  0.00000000000E+00 0.  1.
         13   -1    0    0    0    0 -0.00000000000E+00 -0.00000000000E+00 -0.10000000000E+04  0.10000000000E+04  0.00000000000E+00 0.  1.
    9000005    2    1    2  501    0 -0.50838162738E+01  0.15579030306E+02 -0.87037701191E+03  0.10883796396E+04  0.65325764112E+03 0.  0.
         13    1    3    3    0    0  0.20385300421E+03  0.43787073713E+02 -0.85155435058E+03  0.87670871282E+03  0.00000000000E+00 0.  1.
          3    1    3    3  501    0 -0.20893682049E+03 -0.28208043407E+02 -0.18822661332E+02  0.21167092679E+03  0.00000000000E+00 0.  1.
         21    1    1    2  502  501  0.50838162738E+01 -0.15579030306E+02 -0.17365981102E+02  0.23877367377E+02  0.00000000000E+00 0.  1.
<mgrwt>
<rscale>  1 0.30000000E+03</rscale>
<asrwt>0</asrwt>
<pdfrwt beam="1">  1        1 0.40820816E+00 0.30000000E+03</pdfrwt>
<pdfrwt beam="2">0</pdfrwt>
<totfact> 0.94403036E-01</totfact>
</mgrwt>
</event>
<event>
 6    1  0.5260809E-006  0.3000000E+03  0.7818608E-02  0.1093470E+00
          1   -1    0    0  502    0  0.00000000000E+00  0.00000000000E+00  0.11949995009E+03  0.11949995009E+03  0.00000000000E+00 0.  1.
         13   -1    0    0    0    0 -0.00000000000E+00 -0.00000000000E+00 -0.10000000000E+04  0.10000000000E+04  0.00000000000E+00 0.  1.
    9000005    2    1    2  501    0 -0.11477465438E+02 -0.58897134567E+01 -0.88922470645E+03  0.11039262360E+04  0.65403832849E+03 0.  0.
         13    1    3    3    0    0 -0.23535655302E+02 -0.22480915608E+03 -0.85207881930E+03  0.88155056464E+03  0.00000000000E+00 0.  1.
          1    1    3    3  501    0  0.12058189864E+02  0.21891944262E+03 -0.37145887151E+02  0.22237567141E+03  0.00000000000E+00 0.  1.
         21    1    1    2  502  501  0.11477465438E+02  0.58897134567E+01  0.87246565404E+01  0.15573714047E+02  0.00000000000E+00 0. -1.
<mgrwt>
<rscale>  1 0.30000000E+03</rscale>
<asrwt>0</asrwt>
<pdfrwt beam="1">  1        1 0.43454619E+00 0.30000000E+03</pdfrwt>
<pdfrwt beam="2">0</pdfrwt>
<totfact> 0.64998478E-01</totfact>
</mgrwt>
</event>
<event>
 6    1  0.5260809E-006  0.3000000E+03  0.7818608E-02  0.1093470E+00
          1   -1    0    0  502    0  0.00000000000E+00  0.00000000000E+00  0.10884132793E+03  0.10884132793E+03  0.00000000000E+00 0.  1.
         13   -1    0    0    0    0 -0.00000000000E+00 -0.00000000000E+00 -0.10000000000E+04  0.10000000000E+04  0.00000000000E+00 0.  1.
    9000005    2    1    2  501    0  0.92173154720E+01 -0.95010235649E-01 -0.88348377945E+03  0.10968466663E+04  0.64995696231E+03 0.  0.
         13    1    3    3    0    0 -0.10925586693E+02 -0.31789032445E+03 -0.33026943815E+03  0.45853192756E+03  0.00000000000E+00 0.  1.
          1    1    3    3  501    0  0.20142902165E+02  0.31779531421E+03 -0.55321434130E+03  0.63831473872E+03  0.00000000000E+00 0.  1.
         21    1    1    2  502  501 -0.92173154720E+01  0.95010235649E-01 -0.76748926132E+01  0.11994661649E+02  0.00000000000E+00 0.  1.
<mgrwt>
<rscale>  1 0.30000000E+03</rscale>
<asrwt>0</asrwt>
<pdfrwt beam="1">  1        1 0.39578748E+00 0.30000000E+03</pdfrwt>
<pdfrwt beam="2">0</pdfrwt>
<totfact> 0.11127025E+00</totfact>
</mgrwt>
</event>
<event>
 6    1  0.5260809E-006  0.3000000E+03  0.7818608E-02  0.1093470E+00
          1   -1    0    0  502    0  0.00000000000E+00  0.00000000000E+00  0.12153419220E+03  0.12153419220E+03  0.00000000000E+00 0.  1.
         13   -1    0    0    0    0 -0.00000000000E+00 -0.00000000000E+00 -0.10000000000E+04  0.10000000000E+04  0.00000000000E+00 0.  1.
    9000005    2    1    2  501    0  0.11435605744E+02  0.22150470145E+02 -0.88823391974E+03  0.10947604660E+04  0.63946818937E+03 0.  0.
         13    1    3    3    0    0  0.15788514392E+03  0.13217886580E+03 -0.88802348658E+03  0.91158361325E+03  0.00000000000E+00 0.  1.
          3    1    3    3  501    0 -0.14644953817E+03 -0.11002839566E+03 -0.21043316282E+00  0.18317685270E+03  0.00000000000E+00 0.  1.
         21    1    1    2  502  501 -0.11435605744E+02 -0.22150470145E+02  0.97681119449E+01  0.26773726251E+02  0.00000000000E+00 0.  1.
<mgrwt>
<rscale>  1 0.30000000E+03</rscale>
<asrwt>0</asrwt>
<pdfrwt beam="1">  1        1 0.44194345E+00 0.30000000E+03</pdfrwt>
<pdfrwt beam="2">0</pdfrwt>
<totfact> 0.58216821E-01</totfact>
</mgrwt>
</event>
<event>
 6    1  0.5260809E-006  0.3000000E+03  0.7818608E-02  0.1093470E+00
          1   -1    0    0  502    0  0.00000000000E+00  0.00000000000E+00  0.14095187876E+03  0.14095187876E+03  0.00000000000E+00 0.  1.
         13   -1    0    0    0    0 -0.00000000000E+00 -0.00000000000E+00 -0.10000000000E+04  0.10000000000E+04  0.00000000000E+00 0.  1.
    9000005    2    1    2  501    0  0.46815759088E+02  0.32487738806E+02 -0.86679929395E+03  0.10834431912E+04  0.64750364015E+03 0.  0.
         13    1    3    3    0    0  0.73682027510E+02  0.31767302217E+03 -0.27742910369E+03  0.42814962077E+03  0.00000000000E+00 0.  1.
          1    1    3    3  501    0 -0.26866268421E+02 -0.28518528336E+03 -0.58937019026E+03  0.65529357039E+03  0.00000000000E+00 0.  1.
         21    1    1    2  502  501 -0.46815759088E+02 -0.32487738806E+02  0.77511727132E+01  0.57508687606E+02  0.00000000000E+00 0. -1.
<mgrwt>
<rscale>  1 0.30000000E+03</rscale>
<asrwt>0</asrwt>
<pdfrwt beam="1">  1        1 0.51255337E+00 0.30000000E+03</pdfrwt>
<pdfrwt beam="2">0</pdfrwt>
<totfact> 0.18474088E-01</totfact>
</mgrwt>
</event>
<event>
 6    1  0.5260809E-006  0.3000000E+03  0.7818608E-02  0.1093470E+00
          1   -1    0    0  502    0  0.00000000000E+00  0.00000000000E+00  0.12200364917E+03  0.12200364917E+03  0.00000000000E+00 0.  1.
         13   -1    0    0    0    0 -0.00000000000E+00 -0.00000000000E+00 -0.10000000000E+04  0.10000000000E+04  0.00000000000E+00 0.  1.
    9000005    2    1    2  501    0  0.22584445587E+02 -0.37398437510E+02 -0.83985845065E+03  0.10640105484E+04  0.65180329058E+03 0.  0.
         13    1    3    3    0    0 -0.21308350869E+03  0.36206760054E+02 -0.78078261526E+03  0.81014628522E+03  0.00000000000E+00 0.  1.
          1    1    3    3  501    0  0.23566795428E+03 -0.73605197564E+02 -0.59075835385E+02  0.25386426316E+03  0.00000000000E+00 0.  1.
         21    1    1    2  502  501 -0.22584445587E+02  0.37398437510E+02 -0.38137900177E+02  0.57993100801E+02  0.00000000000E+00 0.  1.
<mgrwt>
<rscale>  1 0.30000000E+03</rscale>
<asrwt>0</asrwt>
<pdfrwt beam="1">  1        1 0.44365057E+00 0.30000000E+03</pdfrwt>
<pdfrwt beam="2">0</pdfrwt>
<totfact> 0.56728523E-01</totfact>
</mgrwt>
</event>
<event>
 6    1  0.5260809E-006  0.3000000E+03  0.7818608E-02  0.1093470E+00
          1   -1    0    0  502    0  0.00000000000E+00  0.00000000000E+00  0.12112452826E+03  0.12112452826E+03  0.00000000000E+00 0.  1.
         13   -1    0    0    0    0 -0.00000000000E+00 -0.00000000000E+00 -0.10000000000E+04  0.10000000000E+04  0.00000000000E+00 0.  1.
    9000005    2    1    2  501    0  0.24033961644E+02 -0.20604762266E+02 -0.88096534714E+03  0.10893982754E+04  0.64006755275E+03 0.  0.
         13    1    3    3    0    0 -0.20693077248E+02  0.14639680864E+03  0.39338585116E+02  0.15299592578E+03  0.00000000000E+00 0.  1.
          3    1    3    3  501    0  0.44727038893E+02 -0.16700157090E+03 -0.92030393226E+03  0.93640234964E+03  0.00000000000E+00 0.  1.
         21    1    1    2  502  501 -0.24033961644E+02  0.20604762266E+02  0.20898754055E+01  0.31726252845E+02  0.00000000000E+00 0. -1.
<mgrwt>
<rscale>  1 0.30000000E+03</rscale>
<asrwt>0</asrwt>
<pdfrwt beam="1">  1        1 0.44045376E+00 0.30000000E+03</pdfrwt>
<pdfrwt beam="2">0</pdfrwt>
<totfact> 0.59537825E-01</totfact>
</mgrwt>
</event>
<event>
 6    1  0.5260809E-006  0.3000000E+03  0.7818608E-02  0.1093470E+00
          1   -1    0    0  502    0  0.00000000000E+00  0.00000000000E+00  0.11424474887E+03  0.11424474887E+03  0.00000000000E+00 0.  1.
         13   -1    0    0    0    0 -0.00000000000E+00 -0.00000000000E+00 -0.10000000000E+04  0.10000000000E+04  0.00000000000E+00 0.  1.
    9000005    2    1    2  501    0 -0.21733661212E+02  0.13164034460E+02 -0.90964651966E+03  0.10793672985E+04  0.58045786281E+03 0.  0.
         13    1    3    3    0    0 -0.29944006086E+03 -0.45295947547E+01 -0.52846778056E+03  0.60742329751E+03  0.00000000000E+00 0.  1.
          1    1    3    3  501    0  0.27770639964E+03  0.17693629214E+02 -0.38117873910E+03  0.47194400098E+03  0.00000000000E+00 0.  1.
         21    1    1    2  502  501  0.21733661212E+02 -0.13164034460E+02  0.23891268528E+02  0.34877450377E+02  0.00000000000E+00 0. -1.
<mgrwt>
<rscale>  1 0.30000000E+03</rscale>
<asrwt>0</asrwt>
<pdfrwt beam="1">  1        1 0.41543633E+00 0.30000000E+03</pdfrwt>
<pdfrwt beam="2">0</pdfrwt>
<totfact> 0.85501059E-01</totfact>
</mgrwt>
</event>
<event>
 6    1  0.5260809E-006  0.3000000E+03  0.7818608E-02  0.1093470E+00
          1   -1    0    0  502    0  0.00000000000E+00  0.00000000000E+00  0.11852984832E+03  0.11852984832E+03  0.00000000000E+00 0.  1.
         13   -1    0    0    0    0 -0.00000000000E+00 -0.00000000000E+00 -0.10000000000E+04  0.10000000000E+04  0.00000000000E+00 0.  1.
    9000005    2    1    2  501    0 -0.26717069707E+02  0.55510199519E+01 -0.87118413574E+03  0.10893679252E+04  0.65346466045E+03 0.  0.
         13    1    3    3    0    0 -0.27905605578E+03 -0.18734917848E+03 -0.46428933782E+03  0.57318111113E+03  0.00000000000E+00 0.  1.
          3    1    3    3  501    0  0.25233898607E+03  0.19290019843E+03 -0.40689479792E+03  0.51618681407E+03  0.00000000000E+00 0.  1.
         21    1    1    2  502  501  0.26717069707E+02 -0.55510199519E+01 -0.10286015942E+02  0.29161923123E+02  0.00000000000E+00 0.  1.
<mgrwt>
<rscale>  1 0.30000000E+03</rscale>
<asrwt>0</asrwt>
<pdfrwt beam="1">  1        1 0.43101854E+00 0.30000000E+03</pdfrwt>
<pdfrwt beam="2">0</pdfrwt>
<totfact> 0.68443532E-01</totfact>
</mgrwt>
</event>
<event>
 6    1  0.5260809E-006  0.3000000E+03  0.7818608E-02  0.1093470E+00
          1   -1    0    0  502    0  0.00000000000E+00  0.00000000000E+00  0.11490610229E+03  0.11490610229E+03  0.00000000000E+00 0.  1.
         13   -1    0    0    0    0 -0.00000000000E+00 -0.00000000000E+00 -0.10000000000E+04  0.10000000000E+04  0.00000000000E+00 0.  1.
    9000005    2    1    2  501    0 -0.24353597271E+02 -0.39194100909E+01 -0.88889765173E+03  0.10899475763E+04  0.63026837484E+03 0.  0.
         13    1    3    3    0    0 -0.30877348943E+03  0.84719781901E+02 -0.56837364417E+03  0.65235504797E+03  0.00000000000E+00 0.  1.
          1    1    3    3  501    0  0.28441989216E+03 -0.88639191992E+02 -0.32052400757E+03  0.43759252832E+03  0.00000000000E+00 0.  1.
         21    1    1    2  502  501  0.24353597271E+02  0.39194100909E+01  0.38037540228E+01  0.24958526002E+02  0.00000000000E+00 0.  1.
<mgrwt>
<rscale>  1 0.30000000E+03</rscale>
<asrwt>0</asrwt>
<pdfrwt beam="1">  1        1 0.41784125E+00 0.30000000E+03</pdfrwt>
<pdfrwt beam="2">0</pdfrwt>
<totfact> 0.82680422E-01</totfact>
</mgrwt>
</event>
<event>
 6    1  0.5260809E-006  0.3000000E+03  0.7818608E-02  0.1093470E+00
          1   -1    0    0  502    0  0.00000000000E+00  0.00000000000E+00  0.10940396444E+03  0.10940396444E+03  0.00000000000E+00 0.  1.
         13   -1    0    0    0    0 -0.00000000000E+00 -0.00000000000E+00 -0.10000000000E+04  0.10000000000E+04  0.00000000000E+00 0.  1.
    9000005    2    1    2  501    0 -0.11944887973E+02 -0.10087384801E+01 -0.89820641999E+03  0.10952048147E+04  0.62654218960E+03 0.  0.
         13    1    3    3    0    0 -0.28665599537E+03  0.57908253927E+02 -0.67750522061E+03  0.73792841761E+03  0.00000000000E+00 0.  1.
          3    1    3    3  501    0  0.27471110739E+03 -0.58916992407E+02 -0.22070119937E+03  0.35727639710E+03  0.00000000000E+00 0.  1.
         21    1    1    2  502  501  0.11944887973E+02  0.10087384801E+01  0.76103844288E+01  0.14199149733E+02  0.00000000000E+00 0.  1.
<mgrwt>
<rscale>  1 0.30000000E+03</rscale>
<asrwt>0</asrwt>
<pdfrwt beam="1">  1        1 0.39783344E+00 0.30000000E+03</pdfrwt>
<pdfrwt beam="2">0</pdfrwt>
<totfact> 0.10834589E+00</totfact>
</mgrwt>
</event>
<event>
 6    1  0.5260809E-006  0.3000000E+03  0.7818608E-02  0.1093470E+00
          1   -1    0    0  502    0  0.00000000000E+00  0.00000000000E+00  0.12396469075E+03  0.12396469075E+03  0.00000000000E+00 0.  1.
         13   -1    0    0    0    0 -0.00000000000E+00 -0.00000000000E+00 -0.10000000000E+04  0.10000000000E+04  0.00000000000E+00 0.  1.
    9000005    2    1    2  501    0 -0.16254386624E+02 -0.14901065297E+01 -0.90335308877E+03  0.10921419539E+04  0.61356403008E+03 0.  0.
         13    1    3    3    0    0  0.25821121251E+03  0.38306335032E+02 -0.17900790184E+03  0.31651893227E+03  0.00000000000E+00 0.  1.
          1    1    3    3  501    0 -0.27446559913E+03 -0.39796441562E+02 -0.72434518693E+03  0.77562302164E+03  0.00000000000E+00 0.  1.
         21    1    1    2  502  501  0.16254386624E+02  0.14901065297E+01  0.27317779523E+02  0.31822736842E+02  0.00000000000E+00 0. -1.
<mgrwt>
<rscale>  1 0.30000000E+03</rscale>
<asrwt>0</asrwt>
<pdfrwt beam="1">  1        1 0.45078164E+00 0.30000000E+03</pdfrwt>
<pdfrwt beam="2">0</pdfrwt>
<totfact> 0.50836914E-01</totfact>
</mgrwt>
</event>
<event>
 6    1  0.5260809E-006  0.3000000E+03  0.7818608E-02  0.1093470E+00
          1   -1    0    0  502    0  0.00000000000E+00  0.00000000000E+00  0.10375868013E+03  0.10375868013E+03  0.00000000000E+00 0.  1.
         13   -1    0    0    0    0 -0.00000000000E+00 -0.00000000000E+00 -0.10000000000E+04  0.10000000000E+04  0.00000000000E+00 0.  1.
    9000005    2    1    2  501    0 -0.84441137815E+01  0.91847869454E+01 -0.89418151481E+03  0.10911132792E+04  0.62514953664E+03 0.  0.
         13    1    3    3    0    0  0.26554008367E+02 -0.18763391037E+03 -0.86924011601E+03  0.88965722554E+03  0.00000000000E+00 0.  1.
          3    1    3    3  501    0 -0.34998122149E+02  0.19681869731E+03 -0.24941398804E+02  0.20145605362E+03  0.00000000000E+00 0.  1.
         21    1    1    2  502  501  0.84441137815E+01 -0.91847869454E+01 -0.20598050631E+01  0.12645400970E+02  0.00000000000E+00 0. -1.
<mgrwt>
<rscale>  1 0.30000000E+03</rscale>
<asrwt>0</asrwt>
<pdfrwt beam="1">  1        1 0.37730509E+00 0.30000000E+03</pdfrwt>
<pdfrwt beam="2">0</pdfrwt>
<totfact> 0.14093637E+00</totfact>
</mgrwt>
</event>
<event>
 6    1  0.5260809E-006  0.3000000E+03  0.7818608E-02  0.1093470E+00
          1   -1    0    0  502    0  0.00000000000E+00  0.00000000000E+00  0.12155219386E+03  0.12155219386E+03  0.00000000000E+00 0.  1.
         13   -1    0    0    0    0 -0.00000000000E+00 -0.00000000000E+00 -0.10000000000E+04  0.10000000000E+04  0.00000000000E+00 0.  1.
    9000005    2    1    2  501    0  0.16907895848E+02 -0.21238539051E+02 -0.87425036480E+03  0.10940827382E+04  0.65724149679E+03 0.  0.
         13    1    3    3    0    0  0.10082884307E+03 -0.32559061137E+03 -0.48742856165E+03  0.59477920653E+03  0.00000000000E+00 0.  1.
          1    1    3    3  501    0 -0.83920947218E+02  0.30435207232E+03 -0.38682180314E+03  0.49930353163E+03  0.00000000000E+00 0.  1.
         21    1    1    2  502  501 -0.16907895848E+02  0.21238539051E+02 -0.41974413389E+01  0.27469455706E+02  0.00000000000E+00 0.  1.
<mgrwt>
<rscale>  1 0.30000000E+03</rscale>
<asrwt>0</asrwt>
<pdfrwt beam="1">  1        1 0.44200891E+00 0.30000000E+03</pdfrwt>
<pdfrwt beam="2">0</pdfrwt>
<totfact> 0.58159240E-01</totfact>
</mgrwt>
</event>
<event>
 6    1  0.5260809E-006  0.3000000E+03  0.7818608E-02  0.1093470E+00
          1   -1    0    0  502    0  0.00000000000E+00  0.00000000000E+00  0.10978450393E+03  0.10978450393E+03  0.00000000000E+00 0.  1.
         13   -1    0    0    0    0 -0.00000000000E+00 -0.00000000000E+00 -0.10000000000E+04  0.10000000000E+04  0.00000000000E+00 0.  1.
    9000005    2    1    2  501    0  0.11231807836E+01 -0.13600100611E+02 -0.88078940619E+03  0.10931991055E+04  0.64738557436E+03 0.  0.
         13    1    3    3    0    0  0.16651530170E+03  0.86994749673E+02  0.35658515252E+01  0.18790462332E+03  0.00000000000E+00 0.  1.
          1    1    3    3  501    0 -0.16539212091E+03 -0.10059485028E+03 -0.88435525772E+03  0.90529448215E+03  0.00000000000E+00 0.  1.
         21    1    1    2  502  501 -0.11231807836E+01  0.13600100611E+02 -0.94260898735E+01  0.16585398458E+02  0.00000000000E+00 0.  1.
<mgrwt>
<rscale>  1 0.30000000E+03</rscale>
<asrwt>0</asrwt>
<pdfrwt beam="1">  1        1 0.39921722E+00 0.30000000E+03</pdfrwt>
<pdfrwt beam="2">0</pdfrwt>
<totfact> 0.10640369E+00</totfact>
</mgrwt>
</event>
<event>
 6    1  0.5260809E-006  0.3000000E+03  0.7818608E-02  0.1093470E+00
          1   -1    0    0  502    0  0.00000000000E+00  0.00000000000E+00  0.11491746700E+03  0.11491746700E+03  0.00000000000E+00 0.  1.
         13   -1    0    0    0    0 -0.00000000000E+00 -0.00000000000E+00 -0.10000000000E+04  0.10000000000E+04  0.00000000000E+00 0.  1.
    9000005    2    1    2  501    0  0.12579526363E+02 -0.18860918349E+02 -0.87337840903E+03  0.10894034465E+04  0.65076573754E+03 0.  0.
         13    1    3    3    0    0 -0.26308694942E+03 -0.64601137180E+01 -0.73502562352E+03  0.78071706991E+03  0.00000000000E+00 0.  1.
          3    1    3    3  501    0  0.27566647579E+03 -0.12400804631E+02 -0.13835278551E+03  0.30868637658E+03  0.00000000000E+00 0.  1.
         21    1    1    2  502  501 -0.12579526363E+02  0.18860918349E+02 -0.11704123969E+02  0.25514020506E+02  0.00000000000E+00 0.  1.
<mgrwt>
<rscale>  1 0.30000000E+03</rscale>
<asrwt>0</asrwt>
<pdfrwt beam="1">  1        1 0.41788258E+00 0.30000000E+03</pdfrwt>
<pdfrwt beam="2">0</pdfrwt>
<totfact> 0.82632502E-01</totfact>
</mgrwt>
</event>
<event>
 6    1  0.5260809E-006  0.3000000E+03  0.7818608E-02  0.1093470E+00
          1   -1    0    0  502    0  0.00000000000E+00  0.00000000000E+00  0.11456194405E+03  0.11456194405E+03  0.00000000000E+00 0.  1.
         13   -1    0    0    0    0 -0.00000000000E+00 -0.00000000000E+00 -0.10000000000E+04  0.10000000000E+04  0.00000000000E+00 0.  1.
    9000005    2    1    2  501    0 -0.44376387635E+01  0.63828931865E+02 -0.82925223493E+03  0.10294110682E+04  0.60657567784E+03 0.  0.
         13    1    3    3    0    0  0.14091369400E+03 -0.40853506837E+02  0.31633350372E+02  0.15008779775E+03  0.00000000000E+00 0.  1.
          1    1    3    3  501    0 -0.14535133277E+03  0.10468243870E+03 -0.86088558530E+03  0.87932327041E+03  0.00000000000E+00 0.  1.
         21    1    1    2  502  501  0.44376387635E+01 -0.63828931865E+02 -0.56185821019E+02  0.85150875888E+02  0.00000000000E+00 0.  1.
<mgrwt>
<rscale>  1 0.30000000E+03</rscale>
<asrwt>0</asrwt>
<pdfrwt beam="1">  1        1 0.41658977E+00 0.30000000E+03</pdfrwt>
<pdfrwt beam="2">0</pdfrwt>
<totfact> 0.84140330E-01</totfact>
</mgrwt>
</event>
<event>
 6    1  0.5260809E-006  0.3000000E+03  0.7818608E-02  0.1093470E+00
          1   -1    0    0  502    0  0.00000000000E+00  0.00000000000E+00  0.13227954350E+03  0.13227954350E+03  0.00000000000E+00 0.  1.
         13   -1    0    0    0    0 -0.00000000000E+00 -0.00000000000E+00 -0.10000000000E+04  0.10000000000E+04  0.00000000000E+00 0.  1.
    9000005    2    1    2  501    0  0.42322459647E+01  0.21256226261E+02 -0.88827953436E+03  0.11024062319E+04  0.65252527154E+03 0.  0.
         13    1    3    3    0    0 -0.42666471169E+02 -0.21221987691E+03 -0.38467025778E+02  0.21985771760E+03  0.00000000000E+00 0.  1.
          3    1    3    3  501    0  0.46898717134E+02  0.23347610317E+03 -0.84981250858E+03  0.88254851434E+03  0.00000000000E+00 0.  1.
         21    1    1    2  502  501 -0.42322459647E+01 -0.21256226261E+02  0.20559077859E+02  0.29873311554E+02  0.00000000000E+00 0.  1.
<mgrwt>
<rscale>  1 0.30000000E+03</rscale>
<asrwt>0</asrwt>
<pdfrwt beam="1">  1        1 0.48101754E+00 0.30000000E+03</pdfrwt>
<pdfrwt beam="2">0</pdfrwt>
<totfact> 0.31406684E-01</totfact>
</mgrwt>
</event>
<event>
 6    1  0.5260809E-006  0.3000000E+03  0.7818608E-02  0.1093470E+00
          1   -1    0    0  502    0  0.00000000000E+00  0.00000000000E+00  0.11365892517E+03  0.11365892517E+03  0.00000000000E+00 0.  1.
         13   -1    0    0    0    0 -0.00000000000E+00 -0.00000000000E+00 -0.10000000000E+04  0.10000000000E+04  0.00000000000E+00 0.  1.
    9000005    2    1    2  501    0  0.16400937228E+01  0.11183955430E+02 -0.88952405158E+03  0.11019157524E+04  0.65025957601E+03 0.  0.
         13    1    3    3    0    0  0.24516688511E+03 -0.15563623922E+03 -0.68151053827E+03  0.74080095457E+03  0.00000000000E+00 0.  1.
          3    1    3    3  501    0 -0.24352679139E+03  0.16682019465E+03 -0.20801351331E+03  0.36111479780E+03  0.00000000000E+00 0.  1.
         21    1    1    2  502  501 -0.16400937228E+01 -0.11183955430E+02  0.31829767528E+01  0.11743172804E+02  0.00000000000E+00 0. -1.
<mgrwt>
<rscale>  1 0.30000000E+03</rscale>
<asrwt>0</asrwt>
<pdfrwt beam="1">  1        1 0.41330605E+00 0.30000000E+03</pdfrwt>
<pdfrwt beam="2">0</pdfrwt>
<totfact> 0.88056875E-01</totfact>
</mgrwt>
</event>
<event>
 6    1  0.5260809E-006  0.3000000E+03  0.7818608E-02  0.1093470E+00
          1   -1    0    0  502    0  0.00000000000E+00  0.00000000000E+00  0.12386069243E+03  0.12386069243E+03  0.00000000000E+00 0.  1.
         13   -1    0    0    0    0 -0.00000000000E+00 -0.00000000000E+00 -0.10000000000E+04  0.10000000000E+04  0.00000000000E+00 0.  1.
    9000005    2    1    2  501    0  0.85633226213E+00  0.11341281936E+02 -0.89509980866E+03  0.11017505458E+04  0.64227816389E+03 0.  0.
         13    1    3    3    0    0  0.15497055575E+03 -0.19981024425E+03 -0.11271223577E+03  0.27684662712E+03  0.00000000000E+00 0.  1.
          3    1    3    3  501    0 -0.15411422349E+03  0.21115152619E+03 -0.78238757289E+03  0.82490391871E+03  0.00000000000E+00 0.  1.
         21    1    1    2  502  501 -0.85633226213E+00 -0.11341281936E+02  0.18960501093E+02  0.22110146598E+02  0.00000000000E+00 0.  1.
<mgrwt>
<rscale>  1 0.30000000E+03</rscale>
<asrwt>0</asrwt>
<pdfrwt beam="1">  1        1 0.45040347E+00 0.30000000E+03</pdfrwt>
<pdfrwt beam="2">0</pdfrwt>
<totfact> 0.51135218E-01</totfact>
</mgrwt>
</event>
<event>
 6    1  0.5260809E-006  0.3000000E+03  0.7818608E-02  0.1093470E+00
          1   -1    0    0  502    0  0.00000000000E+00  0.00000000000E+00  0.11288365065E+03  0.11288365065E+03  0.00000000000E+00 0.  1.
         13   -1    0    0    0    0 -0.00000000000E+00 -0.00000000000E+00 -0.10000000000E+04  0.10000000000E+04  0.00000000000E+00 0.  1.
    9000005    2    1    2  501    0  0.11811327014E+02 -0.85515155860E+01 -0.87821126017E+03  0.10957975019E+04  0.65521333310E+03 0.  0.
         13    1    3    3    0    0 -0.16388765805E+02  0.24920276218E+03 -0.89069766248E+02  0.26514907427E+03  0.00000000000E+00 0.  1.
          1    1    3    3  501    0  0.28200092819E+02 -0.25775427777E+03 -0.78914149392E+03  0.83064842766E+03  0.00000000000E+00 0.  1.
         21    1    1    2  502  501 -0.11811327014E+02  0.85515155860E+01 -0.89050891810E+01  0.17086148717E+02  0.00000000000E+00 0.  1.
<mgrwt>
<rscale>  1 0.30000000E+03</rscale>
<asrwt>0</asrwt>
<pdfrwt beam="1">  1        1 0.41048687E+00 0.30000000E+03</pdfrwt>
<pdfrwt beam="2">0</pdfrwt>
<totfact> 0.91525890E-01</totfact>
</mgrwt>
</event>
<event>
 6    1  0.5260809E-006  0.3000000E+03  0.7818608E-02  0.1093470E+00
          1   -1    0    0  502    0  0.00000000000E+00  0.00000000000E+00  0.11213048101E+03  0.11213048101E+03  0.00000000000E+00 0.  1.
         13   -1    0    0    0    0 -0.00000000000E+00 -0.00000000000E+00 -0.10000000000E+04  0.10000000000E+04  0.00000000000E+00 0.  1.
    9000005    2    1    2  501    0 -0.68162386900E+01 -0.10157682645E+02 -0.88566430275E+03  0.10997005733E+04  0.65175950638E+03 0.  0.
         13    1    3    3    0    0  0.19920613007E+03  0.50407723207E+02 -0.18469018042E+02  0.20631317322E+03  0.00000000000E+00 0.  1.
          1    1    3    3  501    0 -0.20602236876E+03 -0.60565405852E+02 -0.86719528471E+03  0.89338740009E+03  0.00000000000E+00 0.  1.
         21    1    1    2  502  501  0.68162386900E+01  0.10157682645E+02 -0.22052162406E+01  0.12429907694E+02  0.00000000000E+00 0.  1.
<mgrwt>
<rscale>  1 0.30000000E+03</rscale>
<asrwt>0</asrwt>
<pdfrwt beam="1">  1        1 0.40774806E+00 0.30000000E+03</pdfrwt>
<pdfrwt beam="2">0</pdfrwt>
<totfact> 0.94991988E-01</totfact>
</mgrwt>
</event>
<event>
 6    1  0.5260809E-006  0.3000000E+03  0.7818608E-02  0.1093470E+00
          1   -1    0    0  502    0  0.00000000000E+00  0.00000000000E+00  0.12302855563E+03  0.12302855563E+03  0.00000000000E+00 0.  1.
         13   -1    0    0    0    0 -0.00000000000E+00 -0.00000000000E+00 -0.10000000000E+04  0.10000000000E+04  0.00000000000E+00 0.  1.
    9000005    2    1    2  501    0  0.42273648924E+02  0.17735519370E+02 -0.86066023214E+03  0.10743698906E+04  0.64143044561E+03 0.  0.
         13    1    3    3    0    0 -0.25508549051E+03 -0.14975203940E+03 -0.32721524495E+03  0.44109420457E+03  0.00000000000E+00 0.  1.
          3    1    3    3  501    0  0.29735913943E+03  0.16748755877E+03 -0.53344498718E+03  0.63327568601E+03  0.00000000000E+00 0.  1.
         21    1    1    2  502  501 -0.42273648924E+02 -0.17735519370E+02 -0.16311212228E+02  0.48658665056E+02  0.00000000000E+00 0.  1.
<mgrwt>
<rscale>  1 0.30000000E+03</rscale>
<asrwt>0</asrwt>
<pdfrwt beam="1">  1        1 0.44737751E+00 0.30000000E+03</pdfrwt>
<pdfrwt beam="2">0</pdfrwt>
<totfact> 0.53580756E-01</totfact>
</mgrwt>
</event>
<event>
 6    1  0.5260809E-006  0.3000000E+03  0.7818608E-02  0.1093470E+00
          1   -1    0    0  502    0  0.00000000000E+00  0.00000000000E+00  0.95405689098E+02  0.95405689098E+02  0.00000000000E+00 0.  1.
         13   -1    0    0    0    0 -0.00000000000E+00 -0.00000000000E+00 -0.10000000000E+04  0.10000000000E+04  0.00000000000E+00 0.  1.
    9000005    2    1    2  501    0 -0.65901325335E+01 -0.10980977775E+02 -0.90397731695E+03  0.10825841291E+04  0.59552447075E+03 0.  0.
         13    1    3    3    0    0  0.20286788420E+03  0.11319858757E+03 -0.11962458340E+03  0.26130315655E+03  0.00000000000E+00 0.  1.
          3    1    3    3  501    0 -0.20945801673E+03 -0.12417956535E+03 -0.78435273355E+03  0.82128097253E+03  0.00000000000E+00 0.  1.
         21    1    1    2  502  501  0.65901325335E+01  0.10980977775E+02 -0.61699395378E+00  0.12821560016E+02  0.00000000000E+00 0.  1.
<mgrwt>
<rscale>  1 0.30000000E+03</rscale>
<asrwt>0</asrwt>
<pdfrwt beam="1">  1        1 0.34693051E+00 0.30000000E+03</pdfrwt>
<pdfrwt beam="2">0</pdfrwt>
<totfact> 0.20414713E+00</totfact>
</mgrwt>
</event>
<event>
 6    1  0.5260809E-006  0.3000000E+03  0.7818608E-02  0.1093470E+00
          1   -1    0    0  502    0  0.00000000000E+00  0.00000000000E+00  0.11052800953E+03  0.11052800953E+03  0.00000000000E+00 0.  1.
         13   -1    0    0    0    0 -0.00000000000E+00 -0.00000000000E+00 -0.10000000000E+04  0.10000000000E+04  0.00000000000E+00 0.  1.
    9000005    2    1    2  501    0  0.44438361502E+01 -0.91839298910E+01 -0.88549698310E+03  0.10995784465E+04  0.65181574128E+03 0.  0.
         13    1    3    3    0    0  0.23392769772E+02 -0.14608695499E+03  0.48281833737E+02  0.15562697570E+03  0.00000000000E+00 0.  1.
          3    1    3    3  501    0 -0.18948933621E+02  0.13690302510E+03 -0.93377881684E+03  0.94395147076E+03  0.00000000000E+00 0.  1.
         21    1    1    2  502  501 -0.44438361502E+01  0.91839298910E+01 -0.39750073676E+01  0.10949563075E+02  0.00000000000E+00 0.  1.
<mgrwt>
<rscale>  1 0.30000000E+03</rscale>
<asrwt>0</asrwt>
<pdfrwt beam="1">  1        1 0.40192088E+00 0.30000000E+03</pdfrwt>
<pdfrwt beam="2">0</pdfrwt>
<totfact> 0.10268610E+00</totfact>
</mgrwt>
</event>
<event>
 6    1  0.5260809E-006  0.3000000E+03  0.7818608E-02  0.1093470E+00
          1   -1    0    0  502    0  0.00000000000E+00  0.00000000000E+00  0.11852823708E+03  0.11852823708E+03  0.00000000000E+00 0.  1.
         13   -1    0    0    0    0 -0.00000000000E+00 -0.00000000000E+00 -0.10000000000E+04  0.10000000000E+04  0.00000000000E+00 0.  1.
    9000005    2    1    2  501    0 -0.24928173041E+01  0.88408035756E+01 -0.87157137179E+03  0.11050229903E+04  0.67923102036E+03 0.  0.
         13    1    3    3    0    0 -0.25558331680E+03 -0.18801900416E+03 -0.24391642921E+03  0.40021144685E+03  0.00000000000E+00 0.  1.
          3    1    3    3  501    0  0.25309049949E+03  0.19685980773E+03 -0.62765494257E+03  0.70481154344E+03  0.00000000000E+00 0.  1.
         21    1    1    2  502  501  0.24928173041E+01 -0.88408035756E+01 -0.99003911377E+01  0.13505246782E+02  0.00000000000E+00 0. -1.
<mgrwt>
<rscale>  1 0.30000000E+03</rscale>
<asrwt>0</asrwt>
<pdfrwt beam="1">  1        1 0.43101268E+00 0.30000000E+03</pdfrwt>
<pdfrwt beam="2">0</pdfrwt>
<totfact> 0.68449376E-01</totfact>
</mgrwt>
</event>
<event>
 6    1  0.5260809E-006  0.3000000E+03  0.7818608E-02  0.1093470E+00
          1   -1    0    0  502    0  0.00000000000E+00  0.00000000000E+00  0.11045940665E+03  0.11045940665E+03  0.00000000000E+00 0.  1.
         13   -1    0    0    0    0 -0.00000000000E+00 -0.00000000000E+00 -0.10000000000E+04  0.10000000000E+04  0.00000000000E+00 0.  1.
    9000005    2    1    2  501    0  0.10788802675E+02  0.10247289879E+02 -0.86159359672E+03  0.10787980764E+04  0.64903032173E+03 0.  0.
         13    1    3    3    0    0 -0.67977971808E+02  0.18472439261E+03 -0.86522378196E+03  0.88733099729E+03  0.00000000000E+00 0.  1.
          3    1    3    3  501    0  0.78766774483E+02 -0.17447710273E+03  0.36301852361E+01  0.19146707912E+03  0.00000000000E+00 0.  1.
         21    1    1    2  502  501 -0.10788802675E+02 -0.10247289879E+02 -0.27946996621E+02  0.31661330249E+02  0.00000000000E+00 0.  1.
<mgrwt>
<rscale>  1 0.30000000E+03</rscale>
<asrwt>0</asrwt>
<pdfrwt beam="1">  1        1 0.40167142E+00 0.30000000E+03</pdfrwt>
<pdfrwt beam="2">0</pdfrwt>
<totfact> 0.10302505E+00</totfact>
</mgrwt>
</event>
<event>
 6    1  0.5260809E-006  0.3000000E+03  0.7818608E-02  0.1093470E+00
          1   -1    0    0  502    0  0.00000000000E+00  0.00000000000E+00  0.12036881621E+03  0.12036881621E+03  0.00000000000E+00 0.  1.
         13   -1    0    0    0    0 -0.00000000000E+00 -0.00000000000E+00 -0.10000000000E+04  0.10000000000E+04  0.00000000000E+00 0.  1.
    9000005    2    1    2  501    0 -0.13762313760E+02 -0.34332677042E+01 -0.89288847674E+03  0.11009537596E+04  0.64393179782E+03 0.  0.
         13    1    3    3    0    0  0.18055963452E+03 -0.17431116046E+03 -0.10569301286E+03  0.27231815078E+03  0.00000000000E+00 0.  1.
          1    1    3    3  501    0 -0.19432194828E+03  0.17087789276E+03 -0.78719546389E+03  0.82863560881E+03  0.00000000000E+00 0.  1.
         21    1    1    2  502  501  0.13762313760E+02  0.34332677042E+01  0.13257292954E+02  0.19415056621E+02  0.00000000000E+00 0. -1.
<mgrwt>
<rscale>  1 0.30000000E+03</rscale>
<asrwt>0</asrwt>
<pdfrwt beam="1">  1        1 0.43770571E+00 0.30000000E+03</pdfrwt>
<pdfrwt beam="2">0</pdfrwt>
<totfact> 0.62031954E-01</totfact>
</mgrwt>
</event>
<event>
 6    1  0.5260809E-006  0.3000000E+03  0.7818608E-02  0.1093470E+00
          1   -1    0    0  502    0  0.00000000000E+00  0.00000000000E+00  0.13536444717E+03  0.13536444717E+03  0.00000000000E+00 0.  1.
         13   -1    0    0    0    0 -0.00000000000E+00 -0.00000000000E+00 -0.10000000000E+04  0.10000000000E+04  0.00000000000E+00 0.  1.
    9000005    2    1    2  501    0  0.82799137966E+01 -0.14956024037E+02 -0.87165427729E+03  0.11168846712E+04  0.69811027065E+03 0.  0.
         13    1    3    3    0    0 -0.30858867754E+02 -0.16102094624E+03  0.58834720920E+02  0.17418822932E+03  0.00000000000E+00 0.  1.
          3    1    3    3  501    0  0.39138781550E+02  0.14606492220E+03 -0.93048899821E+03  0.94269644186E+03  0.00000000000E+00 0.  1.
         21    1    1    2  502  501 -0.82799137966E+01  0.14956024037E+02  0.70187244520E+01  0.18479775984E+02  0.00000000000E+00 0.  1.
<mgrwt>
<rscale>  1 0.30000000E+03</rscale>
<asrwt>0</asrwt>
<pdfrwt beam="1">  1        1 0.49223539E+00 0.30000000E+03</pdfrwt>
<pdfrwt beam="2">0</pdfrwt>
<totfact> 0.26037561E-01</totfact>
</mgrwt>
</event>
<event>
 6    1  0.5260809E-006  0.3000000E+03  0.7818608E-02  0.1093470E+00
          1   -1    0    0  502    0  0.00000000000E+00  0.00000000000E+00  0.97005983000E+02  0.97005983000E+02  0.00000000000E+00 0.  1.
         13   -1    0    0    0    0 -0.00000000000E+00 -0.00000000000E+00 -0.10000000000E+04  0.10000000000E+04  0.00000000000E+00 0.  1.
    9000005    2    1    2  501    0  0.99571303736E+01  0.40600157998E+01 -0.89871780831E+03  0.10854338555E+04  0.60856990360E+03 0.  0.
         13    1    3    3    0    0  0.33981854206E+02 -0.25026279593E+03 -0.74649971294E+03  0.78806602190E+03  0.00000000000E+00 0.  1.
          1    1    3    3  501    0 -0.24024723832E+02  0.25432281173E+03 -0.15221809537E+03  0.29736783363E+03  0.00000000000E+00 0.  1.
         21    1    1    2  502  501 -0.99571303736E+01 -0.40600157998E+01 -0.42762086894E+01  0.11572127476E+02  0.00000000000E+00 0. -1.
<mgrwt>
<rscale>  1 0.30000000E+03</rscale>
<asrwt>0</asrwt>
<pdfrwt beam="1">  1        1 0.35274977E+00 0.30000000E+03</pdfrwt>
<pdfrwt beam="2">0</pdfrwt>
<totfact> 0.19059276E+00</totfact>
</mgrwt>
</event>
<event>
 6    1  0.5260809E-006  0.3000000E+03  0.7818608E-02  0.1093470E+00
          1   -1    0    0  502    0  0.00000000000E+00  0.00000000000E+00  0.12177775931E+03  0.12177775931E+03  0.00000000000E+00 0.  1.
         13   -1    0    0    0    0 -0.00000000000E+00 -0.00000000000E+00 -0.10000000000E+04  0.10000000000E+04  0.00000000000E+00 0.  1.
    9000005    2    1    2  501    0 -0.76955812865E+01  0.57476374596E+01 -0.87910894702E+03  0.11121318506E+04  0.68111119134E+03 0.  0.
         13    1    3    3    0    0  0.24591306837E+01  0.69381038210E+02 -0.98539502845E+03  0.98783760704E+03  0.00000000000E+00 0.  1.
          3    1    3    3  501    0 -0.10154711970E+02 -0.63633400750E+02  0.10628608143E+03  0.12429424352E+03  0.00000000000E+00 0.  1.
         21    1    1    2  502  501  0.76955812865E+01 -0.57476374596E+01  0.88670633644E+00  0.96459087613E+01  0.00000000000E+00 0.  1.
<mgrwt>
<rscale>  1 0.30000000E+03</rscale>
<asrwt>0</asrwt>
<pdfrwt beam="1">  1        1 0.44282915E+00 0.30000000E+03</pdfrwt>
<pdfrwt beam="2">0</pdfrwt>
<totfact> 0.57441165E-01</totfact>
</mgrwt>
</event>
<event>
 6    1  0.5260809E-006  0.3000000E+03  0.7818608E-02  0.1093470E+00
          1   -1    0    0  502    0  0.00000000000E+00  0.00000000000E+00  0.11510506742E+03  0.11510506742E+03  0.00000000000E+00 0.  1.
         13   -1    0    0    0    0 -0.00000000000E+00 -0.00000000000E+00 -0.10000000000E+04  0.10000000000E+04  0.00000000000E+00 0.  1.
    9000005    2    1    2  501    0 -0.87181691609E+01 -0.35075381446E+02 -0.83783466867E+03  0.10557674125E+04  0.64138257564E+03 0.  0.
         13    1    3    3    0    0  0.14843748265E+03  0.19609611326E+03 -0.70424363979E+03  0.74595340074E+03  0.00000000000E+00 0.  1.
          3    1    3    3  501    0 -0.15715565181E+03 -0.23117149471E+03 -0.13359102888E+03  0.30981401173E+03  0.00000000000E+00 0.  1.
         21    1    1    2  502  501  0.87181691609E+01  0.35075381446E+02 -0.47060263908E+02  0.59337654961E+02  0.00000000000E+00 0. -1.
<mgrwt>
<rscale>  1 0.30000000E+03</rscale>
<asrwt>0</asrwt>
<pdfrwt beam="1">  1        1 0.41856476E+00 0.30000000E+03</pdfrwt>
<pdfrwt beam="2">0</pdfrwt>
<totfact> 0.81844180E-01</totfact>
</mgrwt>
</event>
<event>
 6    1  0.5260809E-006  0.3000000E+03  0.7818608E-02  0.1093470E+00
          1   -1    0    0  502    0  0.00000000000E+00  0.00000000000E+00  0.70197265978E+02  0.70197265978E+02  0.00000000000E+00 0.  1.
         13   -1    0    0    0    0 -0.00000000000E+00 -0.00000000000E+00 -0.10000000000E+04  0.10000000000E+04  0.00000000000E+00 0.  1.
    9000005    2    1    2  501    0 -0.21679148356E+02 -0.39504977288E+02 -0.72724932457E+03  0.86269181452E+03  0.46186032310E+03 0.  0.
         13    1    3    3    0    0 -0.16412577185E+03 -0.57033349921E+02 -0.69393214392E+03  0.71535438236E+03  0.00000000000E+00 0.  1.
          3    1    3    3  501    0  0.14244662349E+03  0.17528372633E+02 -0.33317180652E+02  0.14733743217E+03  0.00000000000E+00 0.  1.
         21    1    1    2  502  501  0.21679148356E+02  0.39504977288E+02 -0.20255340945E+03  0.20750545145E+03  0.00000000000E+00 0. -1.
<mgrwt>
<rscale>  1 0.30000000E+03</rscale>
<asrwt>0</asrwt>
<pdfrwt beam="1">  1        1 0.25526332E+00 0.30000000E+03</pdfrwt>
<pdfrwt beam="2">0</pdfrwt>
<totfact> 0.56386612E+00</totfact>
</mgrwt>
</event>
<event>
 6    1  0.5260809E-006  0.3000000E+03  0.7818608E-02  0.1093470E+00
          1   -1    0    0  502    0  0.00000000000E+00  0.00000000000E+00  0.12620872216E+03  0.12620872216E+03  0.00000000000E+00 0.  1.
         13   -1    0    0    0    0 -0.00000000000E+00 -0.00000000000E+00 -0.10000000000E+04  0.10000000000E+04  0.00000000000E+00 0.  1.
    9000005    2    1    2  501    0  0.42615305258E+01 -0.19121229921E+02 -0.88700425238E+03  0.11025789788E+04  0.65461445036E+03 0.  0.
         13    1    3    3    0    0 -0.13212372025E+03 -0.30813599374E+03 -0.44659254183E+03  0.55843474686E+03  0.00000000000E+00 0.  1.
          3    1    3    3  501    0  0.13638525077E+03  0.28901476382E+03 -0.44041171056E+03  0.54414423192E+03  0.00000000000E+00 0.  1.
         21    1    1    2  502  501 -0.42615305258E+01  0.19121229921E+02  0.13212974544E+02  0.23629743384E+02  0.00000000000E+00 0.  1.
<mgrwt>
<rscale>  1 0.30000000E+03</rscale>
<asrwt>0</asrwt>
<pdfrwt beam="1">  1        1 0.45894178E+00 0.30000000E+03</pdfrwt>
<pdfrwt beam="2">0</pdfrwt>
<totfact> 0.44801179E-01</totfact>
</mgrwt>
</event>
<event>
 6    1  0.5260809E-006  0.3000000E+03  0.7818608E-02  0.1093470E+00
          1   -1    0    0  502    0  0.00000000000E+00  0.00000000000E+00  0.11393385936E+03  0.11393385936E+03  0.00000000000E+00 0.  1.
         13   -1    0    0    0    0 -0.00000000000E+00 -0.00000000000E+00 -0.10000000000E+04  0.10000000000E+04  0.00000000000E+00 0.  1.
    9000005    2    1    2  501    0  0.54404023862E+01  0.86422104785E+01 -0.89013402937E+03  0.11029414302E+04  0.65118117481E+03 0.  0.
         13    1    3    3    0    0  0.37561661161E+02 -0.12531907758E+03  0.59247319883E+02  0.14361752855E+03  0.00000000000E+00 0.  1.
          3    1    3    3  501    0 -0.32121258775E+02  0.13396128806E+03 -0.94938134925E+03  0.95932390165E+03  0.00000000000E+00 0.  1.
         21    1    1    2  502  501 -0.54404023862E+01 -0.86422104785E+01  0.40678887320E+01  0.10992429159E+02  0.00000000000E+00 0.  1.
<mgrwt>
<rscale>  1 0.30000000E+03</rscale>
<asrwt>0</asrwt>
<pdfrwt beam="1">  1        1 0.41430582E+00 0.30000000E+03</pdfrwt>
<pdfrwt beam="2">0</pdfrwt>
<totfact> 0.86850433E-01</totfact>
</mgrwt>
</event>
<event>
 6    1  0.5260809E-006  0.3000000E+03  0.7818608E-02  0.1093470E+00
          1   -1    0    0  502    0  0.00000000000E+00  0.00000000000E+00  0.10526298664E+03  0.10526298664E+03  0.00000000000E+00 0.  1.
         13   -1    0    0    0    0 -0.00000000000E+00 -0.00000000000E+00 -0.10000000000E+04  0.10000000000E+04  0.00000000000E+00 0.  1.
    9000005    2    1    2  501    0  0.96580088481E+01  0.15476093799E-01 -0.89434104383E+03  0.10955968516E+04  0.63276637176E+03 0.  0.
         13    1    3    3    0    0 -0.19997682900E+03  0.12898209121E+03 -0.89957735418E+02  0.25440028725E+03  0.00000000000E+00 0.  1.
          1    1    3    3  501    0  0.20963483785E+03 -0.12896661512E+03 -0.80438330841E+03  0.84119656437E+03  0.00000000000E+00 0.  1.
         21    1    1    2  502  501 -0.96580088481E+01 -0.15476093799E-01 -0.39596953027E+00  0.96661350233E+01  0.00000000000E+00 0.  1.
<mgrwt>
<rscale>  1 0.30000000E+03</rscale>
<asrwt>0</asrwt>
<pdfrwt beam="1">  1        1 0.38277530E+00 0.30000000E+03</pdfrwt>
<pdfrwt beam="2">0</pdfrwt>
<totfact> 0.13153346E+00</totfact>
</mgrwt>
</event>
<event>
 6    1  0.5260809E-006  0.3000000E+03  0.7818608E-02  0.1093470E+00
          1   -1    0    0  502    0  0.00000000000E+00  0.00000000000E+00  0.13877681128E+03  0.13877681128E+03  0.00000000000E+00 0.  1.
         13   -1    0    0    0    0 -0.00000000000E+00 -0.00000000000E+00 -0.10000000000E+04  0.10000000000E+04  0.00000000000E+00 0.  1.
    9000005    2    1    2  501    0 -0.87046727535E+02  0.25800938838E+02 -0.76129289522E+03  0.10037624240E+04  0.64786519450E+03 0.  0.
         13    1    3    3    0    0  0.21700027005E+03  0.17395201495E+02 -0.40513966974E+02  0.22143417026E+03  0.00000000000E+00 0.  1.
          3    1    3    3  501    0 -0.30404699758E+03  0.84057373433E+01 -0.72077892824E+03  0.78232825371E+03  0.00000000000E+00 0.  1.
         21    1    1    2  502  501  0.87046727535E+02 -0.25800938838E+02 -0.99930293508E+02  0.13501438731E+03  0.00000000000E+00 0.  1.
<mgrwt>
<rscale>  1 0.30000000E+03</rscale>
<asrwt>0</asrwt>
<pdfrwt beam="1">  1        1 0.50464401E+00 0.30000000E+03</pdfrwt>
<pdfrwt beam="2">0</pdfrwt>
<totfact> 0.21114263E-01</totfact>
</mgrwt>
</event>
<event>
 6    1  0.5260809E-006  0.3000000E+03  0.7818608E-02  0.1093470E+00
          1   -1    0    0  502    0  0.00000000000E+00  0.00000000000E+00  0.10467457746E+03  0.10467457746E+03  0.00000000000E+00 0.  1.
         13   -1    0    0    0    0 -0.00000000000E+00 -0.00000000000E+00 -0.10000000000E+04  0.10000000000E+04  0.00000000000E+00 0.  1.
    9000005    2    1    2  501    0  0.55870281553E+01 -0.73230252172E+01 -0.88116477951E+03  0.10877818159E+04  0.63775627695E+03 0.  0.
         13    1    3    3    0    0  0.12450680935E+03 -0.24663399135E+03 -0.73051372875E+03  0.78101253457E+03  0.00000000000E+00 0.  1.
          3    1    3    3  501    0 -0.11891978120E+03  0.23931096614E+03 -0.15065105076E+03  0.30676928133E+03  0.00000000000E+00 0.  1.
         21    1    1    2  502  501 -0.55870281553E+01  0.73230252172E+01 -0.14160643034E+02  0.16892761559E+02  0.00000000000E+00 0. -1.
<mgrwt>
<rscale>  1 0.30000000E+03</rscale>
<asrwt>0</asrwt>
<pdfrwt beam="1">  1        1 0.38063563E+00 0.30000000E+03</pdfrwt>
<pdfrwt beam="2">0</pdfrwt>
<totfact> 0.13514829E+00</totfact>
</mgrwt>
</event>
<event>
 6    1  0.5260809E-006  0.3000000E+03  0.7818608E-02  0.1093470E+00
          1   -1    0    0  502    0  0.00000000000E+00  0.00000000000E+00  0.16678581570E+03  0.16678581570E+03  0.00000000000E+00 0.  1.
         13   -1    0    0    0    0 -0.00000000000E+00 -0.00000000000E+00 -0.10000000000E+04  0.10000000000E+04  0.00000000000E+00 0.  1.
    9000005    2    1    2  501    0 -0.41390722202E+02 -0.10350092074E+03 -0.82087265667E+03  0.10546343744E+04  0.65268377699E+03 0.  0.
         13    1    3    3    0    0  0.19250579575E+03 -0.30000171561E+03 -0.45483619012E+03  0.57787150009E+03  0.00000000000E+00 0.  1.
          1    1    3    3  501    0 -0.23389651795E+03  0.19650079487E+03 -0.36603646655E+03  0.47676287433E+03  0.00000000000E+00 0.  1.
         21    1    1    2  502  501  0.41390722202E+02  0.10350092074E+03 -0.12341527625E+02  0.11215144129E+03  0.00000000000E+00 0.  1.
<mgrwt>
<rscale>  1 0.30000000E+03</rscale>
<asrwt>0</asrwt>
<pdfrwt beam="1">  1        1 0.60649515E+00 0.30000000E+03</pdfrwt>
<pdfrwt beam="2">0</pdfrwt>
<totfact> 0.54584492E-02</totfact>
</mgrwt>
</event>
<event>
 6    1  0.5260809E-006  0.3000000E+03  0.7818608E-02  0.1093470E+00
          1   -1    0    0  502    0  0.00000000000E+00  0.00000000000E+00  0.11896959212E+03  0.11896959212E+03  0.00000000000E+00 0.  1.
         13   -1    0    0    0    0 -0.00000000000E+00 -0.00000000000E+00 -0.10000000000E+04  0.10000000000E+04  0.00000000000E+00 0.  1.
    9000005    2    1    2  501    0  0.11775042039E+02  0.52496055077E+00 -0.89202882003E+03  0.11028484176E+04  0.64839824893E+03 0.  0.
         13    1    3    3    0    0  0.26350903926E+03 -0.12900158877E+03 -0.19979024920E+03  0.35495713453E+03  0.00000000000E+00 0.  1.
          1    1    3    3  501    0 -0.25173399722E+03  0.12952654932E+03 -0.69223857083E+03  0.74789128306E+03  0.00000000000E+00 0.  1.
         21    1    1    2  502  501 -0.11775042039E+02 -0.52496055077E+00  0.10998412146E+02  0.16121174533E+02  0.00000000000E+00 0.  1.
<mgrwt>
<rscale>  1 0.30000000E+03</rscale>
<asrwt>0</asrwt>
<pdfrwt beam="1">  1        1 0.43261761E+00 0.30000000E+03</pdfrwt>
<pdfrwt beam="2">0</pdfrwt>
<totfact> 0.66863958E-01</totfact>
</mgrwt>
</event>
<event>
 6    1  0.5260809E-006  0.3000000E+03  0.7818608E-02  0.1093470E+00
          1   -1    0    0  502    0  0.00000000000E+00  0.00000000000E+00  0.11079339983E+03  0.11079339983E+03  0.00000000000E+00 0.  1.
         13   -1    0    0    0    0 -0.00000000000E+00 -0.00000000000E+00 -0.10000000000E+04  0.10000000000E+04  0.00000000000E+00 0.  1.
    9000005    2    1    2  501    0  0.11610797039E+02 -0.13973586633E+02 -0.87307374753E+03  0.10864964727E+04  0.64644160211E+03 0.  0.
         13    1    3    3    0    0 -0.38037790129E+02  0.14965321879E+03 -0.90021553205E+03  0.91336244915E+03  0.00000000000E+00 0.  1.
          1    1    3    3  501    0  0.49648587168E+02 -0.16362680542E+03  0.27141784523E+02  0.17313402360E+03  0.00000000000E+00 0.  1.
         21    1    1    2  502  501 -0.11610797039E+02  0.13973586633E+02 -0.16132852641E+02  0.24296927081E+02  0.00000000000E+00 0. -1.
<mgrwt>
<rscale>  1 0.30000000E+03</rscale>
<asrwt>0</asrwt>
<pdfrwt beam="1">  1        1 0.40288594E+00 0.30000000E+03</pdfrwt>
<pdfrwt beam="2">0</pdfrwt>
<totfact> 0.10138231E+00</totfact>
</mgrwt>
</event>
<event>
 6    1  0.5260809E-006  0.3000000E+03  0.7818608E-02  0.1093470E+00
          1   -1    0    0  502    0  0.00000000000E+00  0.00000000000E+00  0.11663275693E+03  0.11663275693E+03  0.00000000000E+00 0.  1.
         13   -1    0    0    0    0 -0.00000000000E+00 -0.00000000000E+00 -0.10000000000E+04  0.10000000000E+04  0.00000000000E+00 0.  1.
    9000005    2    1    2  501    0 -0.43537454486E+01 -0.32355386526E+02 -0.85898705408E+03  0.10758869626E+04  0.64699935949E+03 0.  0.
         13    1    3    3    0    0  0.24875149768E+03 -0.15931362348E+03 -0.67871398697E+03  0.74020997989E+03  0.00000000000E+00 0.  1.
          3    1    3    3  501    0 -0.25310524313E+03  0.12695823695E+03 -0.18027306711E+03  0.33567698276E+03  0.00000000000E+00 0.  1.
         21    1    1    2  502  501  0.43537454486E+01  0.32355386526E+02 -0.24380188989E+02  0.40745794284E+02  0.00000000000E+00 0. -1.
<mgrwt>
<rscale>  1 0.30000000E+03</rscale>
<asrwt>0</asrwt>
<pdfrwt beam="1">  1        1 0.42412001E+00 0.30000000E+03</pdfrwt>
<pdfrwt beam="2">0</pdfrwt>
<totfact> 0.75625267E-01</totfact>
</mgrwt>
</event>
<event>
 6    1  0.5260809E-006  0.3000000E+03  0.7818608E-02  0.1093470E+00
          1   -1    0    0  502    0  0.00000000000E+00  0.00000000000E+00  0.11378187985E+03  0.11378187985E+03  0.00000000000E+00 0.  1.
         13   -1    0    0    0    0 -0.00000000000E+00 -0.00000000000E+00 -0.10000000000E+04  0.10000000000E+04  0.00000000000E+00 0.  1.
    9000005    2    1    2  501    0  0.10059097016E+02  0.85471395851E+01 -0.88769540551E+03  0.11004995081E+04  0.65032437696E+03 0.  0.
         13    1    3    3    0    0 -0.30302556258E+03 -0.82849378612E+02 -0.53263591111E+03  0.61837652358E+03  0.00000000000E+00 0.  1.
          3    1    3    3  501    0  0.31308465959E+03  0.91396518197E+02 -0.35505949440E+03  0.48212298449E+03  0.00000000000E+00 0.  1.
         21    1    1    2  502  501 -0.10059097016E+02 -0.85471395851E+01  0.14772853629E+01  0.13282371773E+02  0.00000000000E+00 0.  1.
<mgrwt>
<rscale>  1 0.30000000E+03</rscale>
<asrwt>0</asrwt>
<pdfrwt beam="1">  1        1 0.41375316E+00 0.30000000E+03</pdfrwt>
<pdfrwt beam="2">0</pdfrwt>
<totfact> 0.87515808E-01</totfact>
</mgrwt>
</event>
<event>
 6    1  0.5260809E-006  0.3000000E+03  0.7818608E-02  0.1093470E+00
          1   -1    0    0  502    0  0.00000000000E+00  0.00000000000E+00  0.11778096081E+03  0.11778096081E+03  0.00000000000E+00 0.  1.
         13   -1    0    0    0    0 -0.00000000000E+00 -0.00000000000E+00 -0.10000000000E+04  0.10000000000E+04  0.00000000000E+00 0.  1.
    9000005    2    1    2  501    0  0.37117812455E+01  0.10962134464E+02 -0.87931589827E+03  0.11058489057E+04  0.67050086321E+03 0.  0.
         13    1    3    3    0    0  0.28977428750E+03 -0.11561408451E+03 -0.23832082560E+03  0.39259721108E+03  0.00000000000E+00 0.  1.
          1    1    3    3  501    0 -0.28606250625E+03  0.12657621897E+03 -0.64099507267E+03  0.71325169462E+03  0.00000000000E+00 0.  1.
         21    1    1    2  502  501 -0.37117812455E+01 -0.10962134464E+02 -0.29031409178E+01  0.11932055113E+02  0.00000000000E+00 0.  1.
<mgrwt>
<rscale>  1 0.30000000E+03</rscale>
<asrwt>0</asrwt>
<pdfrwt beam="1">  1        1 0.42829531E+00 0.30000000E+03</pdfrwt>
<pdfrwt beam="2">0</pdfrwt>
<totfact> 0.71204836E-01</totfact>
</mgrwt>
</event>
<event>
 6    1  0.5260809E-006  0.3000000E+03  0.7818608E-02  0.1093470E+00
          1   -1    0    0  502    0  0.00000000000E+00  0.00000000000E+00  0.11444803296E+03  0.11444803296E+03  0.00000000000E+00 0.  1.
         13   -1    0    0    0    0 -0.00000000000E+00 -0.00000000000E+00 -0.10000000000E+04  0.10000000000E+04  0.00000000000E+00 0.  1.
    9000005    2    1    2  501    0  0.71291163128E+01 -0.98470652483E+01 -0.88797994931E+03  0.11020510942E+04  0.65257983021E+03 0.  0.
         13    1    3    3    0    0  0.20170008191E+03 -0.20678787121E+03 -0.17629099162E+03  0.33841196854E+03  0.00000000000E+00 0.  1.
          3    1    3    3  501    0 -0.19457096560E+03  0.19694080596E+03 -0.71168895769E+03  0.76363912564E+03  0.00000000000E+00 0.  1.
         21    1    1    2  502  501 -0.71291163128E+01  0.98470652483E+01  0.24279822682E+01  0.12396938787E+02  0.00000000000E+00 0.  1.
<mgrwt>
<rscale>  1 0.30000000E+03</rscale>
<asrwt>0</asrwt>
<pdfrwt beam="1">  1        1 0.41617554E+00 0.30000000E+03</pdfrwt>
<pdfrwt beam="2">0</pdfrwt>
<totfact> 0.84627204E-01</totfact>
</mgrwt>
</event>
<event>
 6    1  0.5260809E-006  0.3000000E+03  0.7818608E-02  0.1093470E+00
          1   -1    0    0  502    0  0.00000000000E+00  0.00000000000E+00  0.11037938151E+03  0.11037938151E+03  0.00000000000E+00 0.  1.
         13   -1    0    0    0    0 -0.00000000000E+00 -0.00000000000E+00 -0.10000000000E+04  0.10000000000E+04  0.00000000000E+00 0.  1.
    9000005    2    1    2  501    0  0.64299760991E+01 -0.71595595181E+01 -0.88655968859E+03  0.11002812046E+04  0.65156584002E+03 0.  0.
         13    1    3    3    0    0 -0.20709268260E+03 -0.19997617648E+03 -0.18546963161E+03  0.34245705511E+03  0.00000000000E+00 0.  1.
          3    1    3    3  501    0  0.21352265870E+03  0.19281661696E+03 -0.70109005698E+03  0.75782414949E+03  0.00000000000E+00 0.  1.
         21    1    1    2  502  501 -0.64299760991E+01  0.71595595181E+01 -0.30609298925E+01  0.10098176911E+02  0.00000000000E+00 0.  1.
<mgrwt>
<rscale>  1 0.30000000E+03</rscale>
<asrwt>0</asrwt>
<pdfrwt beam="1">  1        1 0.40138042E+00 0.30000000E+03</pdfrwt>
<pdfrwt beam="2">0</pdfrwt>
<totfact> 0.10342145E+00</totfact>
</mgrwt>
</event>
<event>
 6    1  0.5260809E-006  0.3000000E+03  0.7818608E-02  0.1093470E+00
          1   -1    0    0  502    0  0.00000000000E+00  0.00000000000E+00  0.12078997135E+03  0.12078997135E+03  0.00000000000E+00 0.  1.
         13   -1    0    0    0    0 -0.00000000000E+00 -0.00000000000E+00 -0.10000000000E+04  0.10000000000E+04  0.00000000000E+00 0.  1.
    9000005    2    1    2  501    0 -0.20894579135E+01  0.30922744890E+02 -0.86988803979E+03  0.10884251531E+04  0.65345507121E+03 0.  0.
         13    1    3    3    0    0  0.18661401353E+03  0.16204528403E+03 -0.71000420994E+02  0.25714689168E+03  0.00000000000E+00 0.  1.
          1    1    3    3  501    0 -0.18870347144E+03 -0.13112253914E+03 -0.79888761880E+03  0.83127826140E+03  0.00000000000E+00 0.  1.
         21    1    1    2  502  501  0.20894579135E+01 -0.30922744890E+02 -0.93219888558E+01  0.32364818277E+02  0.00000000000E+00 0. -1.
<mgrwt>
<rscale>  1 0.30000000E+03</rscale>
<asrwt>0</asrwt>
<pdfrwt beam="1">  1        1 0.43923719E+00 0.30000000E+03</pdfrwt>
<pdfrwt beam="2">0</pdfrwt>
<totfact> 0.60632407E-01</totfact>
</mgrwt>
</event>
<event>
 6    1  0.5260809E-006  0.3000000E+03  0.7818608E-02  0.1093470E+00
          1   -1    0    0  502    0  0.00000000000E+00  0.00000000000E+00  0.10746994199E+03  0.10746994199E+03  0.00000000000E+00 0.  1.
         13   -1    0    0    0    0 -0.00000000000E+00 -0.00000000000E+00 -0.10000000000E+04  0.10000000000E+04  0.00000000000E+00 0.  1.
    9000005    2    1    2  501    0  0.78645057046E+01  0.55162346440E+01 -0.89363739957E+03  0.10978001178E+04  0.63756177538E+03 0.  0.
         13    1    3    3    0    0  0.29913291259E+03  0.32885497846E+02 -0.25161431454E+03  0.39226485778E+03  0.00000000000E+00 0.  1.
          3    1    3    3  501    0 -0.29126840689E+03 -0.27369263202E+02 -0.64202308503E+03  0.70553526002E+03  0.00000000000E+00 0.  1.
         21    1    1    2  502  501 -0.78645057046E+01 -0.55162346440E+01  0.11073415647E+01  0.96698241952E+01  0.00000000000E+00 0.  1.
<mgrwt>
<rscale>  1 0.30000000E+03</rscale>
<asrwt>0</asrwt>
<pdfrwt beam="1">  1        1 0.39080061E+00 0.30000000E+03</pdfrwt>
<pdfrwt beam="2">0</pdfrwt>
<totfact> 0.11868863E+00</totfact>
</mgrwt>
</event>
<event>
 6    1  0.5260809E-006  0.3000000E+03  0.7818608E-02  0.1093470E+00
          1   -1    0    0  502    0  0.00000000000E+00  0.00000000000E+00  0.12049912438E+03  0.12049912438E+03  0.00000000000E+00 0.  1.
         13   -1    0    0    0    0 -0.00000000000E+00 -0.00000000000E+00 -0.10000000000E+04  0.10000000000E+04  0.00000000000E+00 0.  1.
    9000005    2    1    2  501    0  0.43642576707E+01 -0.16264558277E+02 -0.88857829422E+03  0.11013684650E+04  0.65050559418E+03 0.  0.
         13    1    3    3    0    0 -0.30493604352E+03 -0.56892344296E+02 -0.60451757682E+03  0.67945877738E+03  0.00000000000E+00 0.  1.
          3    1    3    3  501    0  0.30930030119E+03  0.40627786019E+02 -0.28406071741E+03  0.42190968759E+03  0.00000000000E+00 0.  1.
         21    1    1    2  502  501 -0.43642576707E+01  0.16264558277E+02  0.90774186027E+01  0.19130659410E+02  0.00000000000E+00 0.  1.
<mgrwt>
<rscale>  1 0.30000000E+03</rscale>
<asrwt>0</asrwt>
<pdfrwt beam="1">  1        1 0.43817956E+00 0.30000000E+03</pdfrwt>
<pdfrwt beam="2">0</pdfrwt>
<totfact> 0.61596310E-01</totfact>
</mgrwt>
</event>
<event>
 6    1  0.5260809E-006  0.3000000E+03  0.7818608E-02  0.1093470E+00
          1   -1    0    0  502    0  0.00000000000E+00  0.00000000000E+00  0.11580472747E+03  0.11580472747E+03  0.00000000000E+00 0.  1.
         13   -1    0    0    0    0 -0.00000000000E+00 -0.00000000000E+00 -0.10000000000E+04  0.10000000000E+04  0.00000000000E+00 0.  1.
    9000005    2    1    2  501    0 -0.89894402745E+01  0.60694065555E+01 -0.87930116962E+03  0.11039051487E+04  0.66732179841E+03 0.  0.
         13    1    3    3    0    0 -0.21942430444E+03 -0.24675103050E+03 -0.35385546391E+03  0.48399048108E+03  0.00000000000E+00 0.  1.
          3    1    3    3  501    0  0.21043486416E+03  0.25282043706E+03 -0.52544570571E+03  0.61991466759E+03  0.00000000000E+00 0.  1.
         21    1    1    2  502  501  0.89894402745E+01 -0.60694065555E+01 -0.48941029077E+01  0.11899578802E+02  0.00000000000E+00 0. -1.
<mgrwt>
<rscale>  1 0.30000000E+03</rscale>
<asrwt>0</asrwt>
<pdfrwt beam="1">  1        1 0.42110899E+00 0.30000000E+03</pdfrwt>
<pdfrwt beam="2">0</pdfrwt>
<totfact> 0.78950515E-01</totfact>
</mgrwt>
</event>
<event>
 6    1  0.5260809E-006  0.3000000E+03  0.7818608E-02  0.1093470E+00
          1   -1    0    0  502    0  0.00000000000E+00  0.00000000000E+00  0.11710216810E+03  0.11710216810E+03  0.00000000000E+00 0.  1.
         13   -1    0    0    0    0 -0.00000000000E+00 -0.00000000000E+00 -0.10000000000E+04  0.10000000000E+04  0.00000000000E+00 0.  1.
    9000005    2    1    2  501    0  0.83008587531E+01  0.20628620603E+02 -0.88207124410E+03  0.10948507077E+04  0.64819283254E+03 0.  0.
         13    1    3    3    0    0  0.19199323023E+02 -0.16554470116E+03  0.25254883233E+02  0.16855702659E+03  0.00000000000E+00 0.  1.
          3    1    3    3  501    0 -0.10898464270E+02  0.18617332176E+03 -0.90732612733E+03  0.92629368108E+03  0.00000000000E+00 0.  1.
         21    1    1    2  502  501 -0.83008587531E+01 -0.20628620603E+02 -0.82658780072E+00  0.22251460433E+02  0.00000000000E+00 0.  1.
<mgrwt>
<rscale>  1 0.30000000E+03</rscale>
<asrwt>0</asrwt>
<pdfrwt beam="1">  1        1 0.42582696E+00 0.30000000E+03</pdfrwt>
<pdfrwt beam="2">0</pdfrwt>
<totfact> 0.73790534E-01</totfact>
</mgrwt>
</event>
<event>
 6    1  0.5260809E-006  0.3000000E+03  0.7818608E-02  0.1093470E+00
          1   -1    0    0  502    0  0.00000000000E+00  0.00000000000E+00  0.11070485372E+03  0.11070485372E+03  0.00000000000E+00 0.  1.
         13   -1    0    0    0    0 -0.00000000000E+00 -0.00000000000E+00 -0.10000000000E+04  0.10000000000E+04  0.00000000000E+00 0.  1.
    9000005    2    1    2  501    0  0.12226037933E+02  0.14417382602E+02 -0.89415244983E+03  0.10911874174E+04  0.62515921119E+03 0.  0.
         13    1    3    3    0    0  0.21541038936E+03 -0.14957595607E+03 -0.74649470370E+03  0.79121990947E+03  0.00000000000E+00 0.  1.
          3    1    3    3  501    0 -0.20318435143E+03  0.16399333867E+03 -0.14765774612E+03  0.29996750788E+03  0.00000000000E+00 0.  1.
         21    1    1    2  502  501 -0.12226037933E+02 -0.14417382602E+02  0.48573035434E+01  0.19517436367E+02  0.00000000000E+00 0.  1.
<mgrwt>
<rscale>  1 0.30000000E+03</rscale>
<asrwt>0</asrwt>
<pdfrwt beam="1">  1        1 0.40256395E+00 0.30000000E+03</pdfrwt>
<pdfrwt beam="2">0</pdfrwt>
<totfact> 0.10181602E+00</totfact>
</mgrwt>
</event>
<event>
 6    1  0.5260809E-006  0.3000000E+03  0.7818608E-02  0.1093470E+00
          1   -1    0    0  502    0  0.00000000000E+00  0.00000000000E+00  0.10894485168E+03  0.10894485168E+03  0.00000000000E+00 0.  1.
         13   -1    0    0    0    0 -0.00000000000E+00 -0.00000000000E+00 -0.10000000000E+04  0.10000000000E+04  0.00000000000E+00 0.  1.
    9000005    2    1    2  501    0  0.25228609650E+01  0.10348781735E+02 -0.88091748846E+03  0.10942399457E+04  0.64902386342E+03 0.  0.
         13    1    3    3    0    0  0.12865879103E+03  0.13619603136E+03 -0.89604208460E+03  0.91542004612E+03  0.00000000000E+00 0.  1.
          1    1    3    3  501    0 -0.12613593006E+03 -0.12584724963E+03  0.15124596144E+02  0.17881989962E+03  0.00000000000E+00 0.  1.
         21    1    1    2  502  501 -0.25228609650E+01 -0.10348781735E+02 -0.10137659865E+02  0.14704905929E+02  0.00000000000E+00 0. -1.
<mgrwt>
<rscale>  1 0.30000000E+03</rscale>
<asrwt>0</asrwt>
<pdfrwt beam="1">  1        1 0.39616393E+00 0.30000000E+03</pdfrwt>
<pdfrwt beam="2">0</pdfrwt>
<totfact> 0.11072727E+00</totfact>
</mgrwt>
</event>
<event>
 6    1  0.5260809E-006  0.3000000E+03  0.7818608E-02  0.1093470E+00
          1   -1    0    0  502    0  0.00000000000E+00  0.00000000000E+00  0.10991246327E+03  0.10991246327E+03  0.00000000000E+00 0.  1.
         13   -1    0    0    0    0 -0.00000000000E+00 -0.00000000000E+00 -0.10000000000E+04  0.10000000000E+04  0.00000000000E+00 0.  1.
    9000005    2    1    2  501    0 -0.64418399657E+01 -0.55451102210E+01 -0.88355133824E+03  0.10991901762E+04  0.65382247635E+03 0.  0.
         13    1    3    3    0    0 -0.12613409906E+03  0.26382479836E+03 -0.68215862012E+03  0.74219520221E+03  0.00000000000E+00 0.  1.
          1    1    3    3  501    0  0.11969225909E+03 -0.26936990858E+03 -0.20139271812E+03  0.35699497398E+03  0.00000000000E+00 0.  1.
         21    1    1    2  502  501  0.64418399657E+01  0.55451102210E+01 -0.65361984916E+01  0.10722287080E+02  0.00000000000E+00 0.  1.
<mgrwt>
<rscale>  1 0.30000000E+03</rscale>
<asrwt>0</asrwt>
<pdfrwt beam="1">  1        1 0.39968253E+00 0.30000000E+03</pdfrwt>
<pdfrwt beam="2">0</pdfrwt>
<totfact> 0.10575678E+00</totfact>
</mgrwt>
</event>
<event>
 6    1  0.5260809E-006  0.3000000E+03  0.7818608E-02  0.1093470E+00
          1   -1    0    0  502    0  0.00000000000E+00  0.00000000000E+00  0.12963368143E+03  0.12963368143E+03  0.00000000000E+00 0.  1.
         13   -1    0    0    0    0 -0.00000000000E+00 -0.00000000000E+00 -0.10000000000E+04  0.10000000000E+04  0.00000000000E+00 0.  1.
    9000005    2    1    2  501    0 -0.96731689505E+01  0.21072231630E+02 -0.88787954334E+03  0.11005764588E+04  0.64992372562E+03 0.  0.
         13    1    3    3    0    0  0.12974531678E+03  0.25522160384E+03 -0.17061722426E+03  0.33328989110E+03  0.00000000000E+00 0.  1.
          1    1    3    3  501    0 -0.13941848573E+03 -0.23414937221E+03 -0.71726231907E+03  0.76728656774E+03  0.00000000000E+00 0.  1.
         21    1    1    2  502  501  0.96731689505E+01 -0.21072231630E+02  0.17513224769E+02  0.29057222600E+02  0.00000000000E+00 0.  1.
<mgrwt>
<rscale>  1 0.30000000E+03</rscale>
<asrwt>0</asrwt>
<pdfrwt beam="1">  1        1 0.47139620E+00 0.30000000E+03</pdfrwt>
<pdfrwt beam="2">0</pdfrwt>
<totfact> 0.36765997E-01</totfact>
</mgrwt>
</event>
<event>
 6    1  0.5260809E-006  0.3000000E+03  0.7818608E-02  0.1093470E+00
          1   -1    0    0  502    0  0.00000000000E+00  0.00000000000E+00  0.12567425410E+03  0.12567425410E+03  0.00000000000E+00 0.  1.
         13   -1    0    0    0    0 -0.00000000000E+00 -0.00000000000E+00 -0.10000000000E+04  0.10000000000E+04  0.00000000000E+00 0.  1.
    9000005    2    1    2  501    0 -0.29401530951E+02 -0.50113034535E+01 -0.88210981813E+03  0.10948496703E+04  0.64783370258E+03 0.  0.
         13    1    3    3    0    0 -0.30317904459E+03  0.25444123916E+02 -0.70370227480E+03  0.76665626462E+03  0.00000000000E+00 0.  1.
          1    1    3    3  501    0  0.27377751364E+03 -0.30455427369E+02 -0.17840754332E+03  0.32819340570E+03  0.00000000000E+00 0.  1.
         21    1    1    2  502  501  0.29401530951E+02  0.50113034535E+01  0.77840722294E+01  0.30824583777E+02  0.00000000000E+00 0.  1.
<mgrwt>
<rscale>  1 0.30000000E+03</rscale>
<asrwt>0</asrwt>
<pdfrwt beam="1">  1        1 0.45699825E+00 0.30000000E+03</pdfrwt>
<pdfrwt beam="2">0</pdfrwt>
<totfact> 0.46173334E-01</totfact>
</mgrwt>
</event>
<event>
 6    1  0.5260809E-006  0.3000000E+03  0.7818608E-02  0.1093470E+00
          1   -1    0    0  502    0  0.00000000000E+00  0.00000000000E+00  0.11332236089E+03  0.11332236089E+03  0.00000000000E+00 0.  1.
         13   -1    0    0    0    0 -0.00000000000E+00 -0.00000000000E+00 -0.10000000000E+04  0.10000000000E+04  0.00000000000E+00 0.  1.
    9000005    2    1    2  501    0 -0.83812363508E+01 -0.16960304749E+01 -0.87806768151E+03  0.11011875757E+04  0.66448333455E+03 0.  0.
         13    1    3    3    0    0  0.32641212524E+03  0.31105834132E+02 -0.41828597167E+03  0.53148433892E+03  0.00000000000E+00 0.  1.
          3    1    3    3  501    0 -0.33479336159E+03 -0.32801864607E+02 -0.45978170983E+03  0.56970323677E+03  0.00000000000E+00 0.  1.
         21    1    1    2  502  501  0.83812363508E+01  0.16960304749E+01 -0.86099575979E+01  0.12134785205E+02  0.00000000000E+00 0.  1.
<mgrwt>
<rscale>  1 0.30000000E+03</rscale>
<asrwt>0</asrwt>
<pdfrwt beam="1">  1        1 0.41208218E+00 0.30000000E+03</pdfrwt>
<pdfrwt beam="2">0</pdfrwt>
<totfact> 0.89550646E-01</totfact>
</mgrwt>
</event>
<event>
 6    1  0.5260809E-006  0.3000000E+03  0.7818608E-02  0.1093470E+00
          1   -1    0    0  502    0  0.00000000000E+00  0.00000000000E+00  0.11126769203E+03  0.11126769203E+03  0.00000000000E+00 0.  1.
         13   -1    0    0    0    0 -0.00000000000E+00 -0.00000000000E+00 -0.10000000000E+04  0.10000000000E+04  0.00000000000E+00 0.  1.
    9000005    2    1    2  501    0 -0.52790641627E+01 -0.84650654372E+01 -0.89086151528E+03  0.11010667423E+04  0.64700402299E+03 0.  0.
         13    1    3    3    0    0 -0.18870432588E+03 -0.90591181154E+02 -0.87475471230E+03  0.89945088326E+03  0.00000000000E+00 0.  1.
          3    1    3    3  501    0  0.18342526172E+03  0.82126115717E+02 -0.16106802983E+02  0.20161585905E+03  0.00000000000E+00 0.  1.
         21    1    1    2  502  501  0.52790641627E+01  0.84650654372E+01  0.21292073083E+01  0.10200949713E+02  0.00000000000E+00 0.  1.
<mgrwt>
<rscale>  1 0.30000000E+03</rscale>
<asrwt>0</asrwt>
<pdfrwt beam="1">  1        1 0.40461064E+00 0.30000000E+03</pdfrwt>
<pdfrwt beam="2">0</pdfrwt>
<totfact> 0.99080811E-01</totfact>
</mgrwt>
</event>
<event>
 6    1  0.5260809E-006  0.3000000E+03  0.7818608E-02  0.1093470E+00
          1   -1    0    0  502    0  0.00000000000E+00  0.00000000000E+00  0.10853568628E+03  0.10853568628E+03  0.00000000000E+00 0.  1.
         13   -1    0    0    0    0 -0.00000000000E+00 -0.00000000000E+00 -0.10000000000E+04  0.10000000000E+04  0.00000000000E+00 0.  1.
    9000005    2    1    2  501    0 -0.39950637611E+01 -0.80670957090E+01 -0.88105297673E+03  0.10947721655E+04  0.64976203944E+03 0.  0.
         13    1    3    3    0    0  0.15595324340E+03  0.19146306632E+03 -0.89047608663E+02  0.26250523138E+03  0.00000000000E+00 0.  1.
          1    1    3    3  501    0 -0.15994830717E+03 -0.19953016202E+03 -0.79200536806E+03  0.83226693408E+03  0.00000000000E+00 0.  1.
         21    1    1    2  502  501  0.39950637611E+01  0.80670957090E+01 -0.10411336991E+02  0.13763520828E+02  0.00000000000E+00 0.  1.
<mgrwt>
<rscale>  1 0.30000000E+03</rscale>
<asrwt>0</asrwt>
<pdfrwt beam="1">  1        1 0.39467606E+00 0.30000000E+03</pdfrwt>
<pdfrwt beam="2">0</pdfrwt>
<totfact> 0.11288669E+00</totfact>
</mgrwt>
</event>
<event>
 6    1  0.5260809E-006  0.3000000E+03  0.7818608E-02  0.1093470E+00
          1   -1    0    0  502    0  0.00000000000E+00  0.00000000000E+00  0.11763479255E+03  0.11763479255E+03  0.00000000000E+00 0.  1.
         13   -1    0    0    0    0 -0.00000000000E+00 -0.00000000000E+00 -0.10000000000E+04  0.10000000000E+04  0.00000000000E+00 0.  1.
    9000005    2    1    2  501    0  0.28638181636E+02 -0.23259737289E+02 -0.87351075104E+03  0.10796932293E+04  0.63352606600E+03 0.  0.
         13    1    3    3    0    0 -0.11773674897E+03 -0.29856799428E+03 -0.40179514248E+03  0.51424131085E+03  0.00000000000E+00 0.  1.
          1    1    3    3  501    0  0.14637493060E+03  0.27530825699E+03 -0.47171560856E+03  0.56545191841E+03  0.00000000000E+00 0.  1.
         21    1    1    2  502  501 -0.28638181636E+02  0.23259737289E+02 -0.88544564118E+01  0.37941563285E+02  0.00000000000E+00 0. -1.
<mgrwt>
<rscale>  1 0.30000000E+03</rscale>
<asrwt>0</asrwt>
<pdfrwt beam="1">  1        1 0.42776378E+00 0.30000000E+03</pdfrwt>
<pdfrwt beam="2">0</pdfrwt>
<totfact> 0.71754751E-01</totfact>
</mgrwt>
</event>
<event>
 6    1  0.5260809E-006  0.3000000E+03  0.7818608E-02  0.1093470E+00
          1   -1    0    0  502    0  0.00000000000E+00  0.00000000000E+00  0.11456358707E+03  0.11456358707E+03  0.00000000000E+00 0.  1.
         13   -1    0    0    0    0 -0.00000000000E+00 -0.00000000000E+00 -0.10000000000E+04  0.10000000000E+04  0.00000000000E+00 0.  1.
    9000005    2    1    2  501    0 -0.61452028139E+01 -0.15647341628E+02 -0.87210338436E+03  0.10931072950E+04  0.65881457376E+03 0.  0.
         13    1    3    3    0    0  0.11085255452E+03  0.15909399092E+03  0.21506606821E+01  0.19391702384E+03  0.00000000000E+00 0.  1.
          3    1    3    3  501    0 -0.11699775734E+03 -0.17474133255E+03 -0.87425404504E+03  0.89919027119E+03  0.00000000000E+00 0.  1.
         21    1    1    2  502  501  0.61452028139E+01  0.15647341628E+02 -0.13333028570E+02  0.21456292049E+02  0.00000000000E+00 0. -1.
<mgrwt>
<rscale>  1 0.30000000E+03</rscale>
<asrwt>0</asrwt>
<pdfrwt beam="1">  1        1 0.41659574E+00 0.30000000E+03</pdfrwt>
<pdfrwt beam="2">0</pdfrwt>
<totfact> 0.84133321E-01</totfact>
</mgrwt>
</event>
<event>
 6    1  0.5260809E-006  0.3000000E+03  0.7818608E-02  0.1093470E+00
          1   -1    0    0  502    0  0.00000000000E+00  0.00000000000E+00  0.12402852557E+03  0.12402852557E+03  0.00000000000E+00 0.  1.
         13   -1    0    0    0    0 -0.00000000000E+00 -0.00000000000E+00 -0.10000000000E+04  0.10000000000E+04  0.00000000000E+00 0.  1.
    9000005    2    1    2  501    0 -0.69856659981E+01  0.74792505000E+01 -0.89505175717E+03  0.11023768303E+04  0.64343786749E+03 0.  0.
         13    1    3    3    0    0  0.17479905051E+03  0.18066693753E+03 -0.79206197169E+03  0.83099784439E+03  0.00000000000E+00 0.  1.
          3    1    3    3  501    0 -0.18178471651E+03 -0.17318768703E+03 -0.10298978548E+03  0.27137898594E+03  0.00000000000E+00 0.  1.
         21    1    1    2  502  501  0.69856659981E+01 -0.74792505000E+01  0.19080282735E+02  0.21651695239E+02  0.00000000000E+00 0. -1.
<mgrwt>
<rscale>  1 0.30000000E+03</rscale>
<asrwt>0</asrwt>
<pdfrwt beam="1">  1        1 0.45101377E+00 0.30000000E+03</pdfrwt>
<pdfrwt beam="2">0</pdfrwt>
<totfact> 0.50654641E-01</totfact>
</mgrwt>
</event>
<event>
 6    1  0.5260809E-006  0.3000000E+03  0.7818608E-02  0.1093470E+00
          1   -1    0    0  502    0  0.00000000000E+00  0.00000000000E+00  0.11615409910E+03  0.11615409910E+03  0.00000000000E+00 0.  1.
         13   -1    0    0    0    0 -0.00000000000E+00 -0.00000000000E+00 -0.10000000000E+04  0.10000000000E+04  0.00000000000E+00 0.  1.
    9000005    2    1    2  501    0 -0.17247134234E+02  0.13827915808E+02 -0.87806018515E+03  0.10933035105E+04  0.65102550052E+03 0.  0.
         13    1    3    3    0    0  0.26999673193E+03  0.15212617290E+03 -0.29022199633E+03  0.42458145848E+03  0.00000000000E+00 0.  1.
          3    1    3    3  501    0 -0.28724386616E+03 -0.13829825709E+03 -0.58783818881E+03  0.66872205197E+03  0.00000000000E+00 0.  1.
         21    1    1    2  502  501  0.17247134234E+02 -0.13827915808E+02 -0.57857157523E+01  0.22850588650E+02  0.00000000000E+00 0. -1.
<mgrwt>
<rscale>  1 0.30000000E+03</rscale>
<asrwt>0</asrwt>
<pdfrwt beam="1">  1        1 0.42237943E+00 0.30000000E+03</pdfrwt>
<pdfrwt beam="2">0</pdfrwt>
<totfact> 0.77533983E-01</totfact>
</mgrwt>
</event>
<event>
 6    1  0.5260809E-006  0.3000000E+03  0.7818608E-02  0.1093470E+00
          1   -1    0    0  502    0  0.00000000000E+00  0.00000000000E+00  0.12102144732E+03  0.12102144732E+03  0.00000000000E+00 0.  1.
         13   -1    0    0    0    0 -0.00000000000E+00 -0.00000000000E+00 -0.10000000000E+04  0.10000000000E+04  0.00000000000E+00 0.  1.
    9000005    2    1    2  501    0 -0.29887455761E+02  0.14421997907E+02 -0.86479067258E+03  0.10849305901E+04  0.65430132496E+03 0.  0.
         13    1    3    3    0    0  0.24943177420E+03  0.18951752409E+03 -0.31753194836E+03  0.44604892125E+03  0.00000000000E+00 0.  1.
          3    1    3    3  501    0 -0.27931922997E+03 -0.17509552618E+03 -0.54725872423E+03  0.63888166882E+03  0.00000000000E+00 0.  1.
         21    1    1    2  502  501  0.29887455761E+02 -0.14421997907E+02 -0.14187880094E+02  0.36090857250E+02  0.00000000000E+00 0.  1.
<mgrwt>
<rscale>  1 0.30000000E+03</rscale>
<asrwt>0</asrwt>
<pdfrwt beam="1">  1        1 0.44007892E+00 0.30000000E+03</pdfrwt>
<pdfrwt beam="2">0</pdfrwt>
<totfact> 0.59873481E-01</totfact>
</mgrwt>
</event>
<event>
 6    1  0.5260809E-006  0.3000000E+03  0.7818608E-02  0.1093470E+00
          1   -1    0    0  502    0  0.00000000000E+00  0.00000000000E+00  0.12968907391E+03  0.12968907391E+03  0.00000000000E+00 0.  1.
         13   -1    0    0    0    0 -0.00000000000E+00 -0.00000000000E+00 -0.10000000000E+04  0.10000000000E+04  0.00000000000E+00 0.  1.
    9000005    2    1    2  501    0  0.31661201580E+02 -0.82915279538E+01 -0.86635644394E+03  0.10967221352E+04  0.67168055851E+03 0.  0.
         13    1    3    3    0    0  0.23635249024E+03  0.20893111213E+03 -0.66688492427E+03  0.73773315736E+03  0.00000000000E+00 0.  1.
          3    1    3    3  501    0 -0.20469128866E+03 -0.21722264009E+03 -0.19947151967E+03  0.35898897779E+03  0.00000000000E+00 0.  1.
         21    1    1    2  502  501 -0.31661201580E+02  0.82915279538E+01 -0.39544821555E+01  0.32966938748E+02  0.00000000000E+00 0. -1.
<mgrwt>
<rscale>  1 0.30000000E+03</rscale>
<asrwt>0</asrwt>
<pdfrwt beam="1">  1        1 0.47159763E+00 0.30000000E+03</pdfrwt>
<pdfrwt beam="2">0</pdfrwt>
<totfact> 0.36646261E-01</totfact>
</mgrwt>
</event>
<event>
 6    1  0.5260809E-006  0.3000000E+03  0.7818608E-02  0.1093470E+00
          1   -1    0    0  502    0  0.00000000000E+00  0.00000000000E+00  0.10960975616E+03  0.10960975616E+03  0.00000000000E+00 0.  1.
         13   -1    0    0    0    0 -0.00000000000E+00 -0.00000000000E+00 -0.10000000000E+04  0.10000000000E+04  0.00000000000E+00 0.  1.
    9000005    2    1    2  501    0 -0.70911362518E+01 -0.74819067888E+01 -0.88788680621E+03  0.10990017242E+04  0.64757667187E+03 0.  0.
         13    1    3    3    0    0 -0.45728965555E+02  0.49170339621E+02 -0.98103722312E+03  0.98333254484E+03  0.00000000000E+00 0.  1.
          3    1    3    3  501    0  0.38637829304E+02 -0.56652246410E+02  0.93150416913E+02  0.11566917933E+03  0.00000000000E+00 0.  1.
         21    1    1    2  502  501  0.70911362518E+01  0.74819067888E+01 -0.25034376342E+01  0.10608031982E+02  0.00000000000E+00 0.  1.
<mgrwt>
<rscale>  1 0.30000000E+03</rscale>
<asrwt>0</asrwt>
<pdfrwt beam="1">  1        1 0.39858177E+00 0.30000000E+03</pdfrwt>
<pdfrwt beam="2">0</pdfrwt>
<totfact> 0.10729211E+00</totfact>
</mgrwt>
</event>
<event>
 6    1  0.5260809E-006  0.3000000E+03  0.7818608E-02  0.1093470E+00
          1   -1    0    0  502    0  0.00000000000E+00  0.00000000000E+00  0.10882156594E+03  0.10882156594E+03  0.00000000000E+00 0.  1.
         13   -1    0    0    0    0 -0.00000000000E+00 -0.00000000000E+00 -0.10000000000E+04  0.10000000000E+04  0.00000000000E+00 0.  1.
    9000005    2    1    2  501    0 -0.82375885626E+01  0.39053987069E+01 -0.87697018020E+03  0.10919400825E+04  0.65051774524E+03 0.  0.
         13    1    3    3    0    0 -0.22336920287E+02  0.11101229982E+03  0.73727785416E+02  0.13512385083E+03  0.00000000000E+00 0.  1.
          3    1    3    3  501    0  0.14099331724E+02 -0.10710690112E+03 -0.95069796562E+03  0.95681623170E+03  0.00000000000E+00 0.  1.
         21    1    1    2  502  501  0.82375885626E+01 -0.39053987069E+01 -0.14208253861E+02  0.16881483411E+02  0.00000000000E+00 0.  1.
<mgrwt>
<rscale>  1 0.30000000E+03</rscale>
<asrwt>0</asrwt>
<pdfrwt beam="1">  1        1 0.39571562E+00 0.30000000E+03</pdfrwt>
<pdfrwt beam="2">0</pdfrwt>
<totfact> 0.11137415E+00</totfact>
</mgrwt>
</event>
<event>
 6    1  0.5260809E-006  0.3000000E+03  0.7818608E-02  0.1093470E+00
          1   -1    0    0  502    0  0.00000000000E+00  0.00000000000E+00  0.12662701762E+03  0.12662701762E+03  0.00000000000E+00 0.  1.
         13   -1    0    0    0    0 -0.00000000000E+00 -0.00000000000E+00 -0.10000000000E+04  0.10000000000E+04  0.00000000000E+00 0.  1.
    9000005    2    1    2  501    0 -0.41568955183E+02 -0.17756245943E+02 -0.86536642748E+03  0.10807209480E+04  0.64579830549E+03 0.  0.
         13    1    3    3    0    0  0.98950402628E+02  0.21682111171E+03 -0.83695333274E+02  0.25260143602E+03  0.00000000000E+00 0.  1.
          3    1    3    3  501    0 -0.14051935781E+03 -0.23457735766E+03 -0.78167109421E+03  0.82811951201E+03  0.00000000000E+00 0.  1.
         21    1    1    2  502  501  0.41568955183E+02  0.17756245943E+02 -0.80065548922E+01  0.45906069601E+02  0.00000000000E+00 0.  1.
<mgrwt>
<rscale>  1 0.30000000E+03</rscale>
<asrwt>0</asrwt>
<pdfrwt beam="1">  1        1 0.46046285E+00 0.30000000E+03</pdfrwt>
<pdfrwt beam="2">0</pdfrwt>
<totfact> 0.43752194E-01</totfact>
</mgrwt>
</event>
<event>
 6    1  0.5260809E-006  0.3000000E+03  0.7818608E-02  0.1093470E+00
          1   -1    0    0  502    0  0.00000000000E+00  0.00000000000E+00  0.10518768922E+03  0.10518768922E+03  0.00000000000E+00 0.  1.
         13   -1    0    0    0    0 -0.00000000000E+00 -0.00000000000E+00 -0.10000000000E+04  0.10000000000E+04  0.00000000000E+00 0.  1.
    9000005    2    1    2  501    0 -0.16203806517E+02  0.19937226828E+02 -0.86765371848E+03  0.10678025920E+04  0.62186762571E+03 0.  0.
         13    1    3    3    0    0  0.17813186330E+03  0.25750890773E+03 -0.48447916579E+03  0.57685514678E+03  0.00000000000E+00 0.  1.
          3    1    3    3  501    0 -0.19433566982E+03 -0.23757168090E+03 -0.38317455269E+03  0.49094744521E+03  0.00000000000E+00 0.  1.
         21    1    1    2  502  501  0.16203806517E+02 -0.19937226828E+02 -0.27158592300E+02  0.37385097230E+02  0.00000000000E+00 0. -1.
<mgrwt>
<rscale>  1 0.30000000E+03</rscale>
<asrwt>0</asrwt>
<pdfrwt beam="1">  1        1 0.38250149E+00 0.30000000E+03</pdfrwt>
<pdfrwt beam="2">0</pdfrwt>
<totfact> 0.13199155E+00</totfact>
</mgrwt>
</event>
<event>
 6    1  0.5260809E-006  0.3000000E+03  0.7818608E-02  0.1093470E+00
          1   -1    0    0  502    0  0.00000000000E+00  0.00000000000E+00  0.18251236116E+03  0.18251236116E+03  0.00000000000E+00 0.  1.
         13   -1    0    0    0    0 -0.00000000000E+00 -0.00000000000E+00 -0.10000000000E+04  0.10000000000E+04  0.00000000000E+00 0.  1.
    9000005    2    1    2  501    0 -0.12575868353E+02  0.13676817809E+01 -0.88584121677E+03  0.11129980847E+04  0.67371362771E+03 0.  0.
         13    1    3    3    0    0  0.26395036026E+00 -0.33735312390E+02 -0.99605117153E+03  0.99662233432E+03  0.00000000000E+00 0.  1.
          1    1    3    3  501    0 -0.12839818714E+02  0.35102994171E+02  0.11020995476E+03  0.11637575036E+03  0.00000000000E+00 0.  1.
         21    1    1    2  502  501  0.12575868353E+02 -0.13676817809E+01  0.68353577930E+02  0.69514276477E+02  0.00000000000E+00 0.  1.
<mgrwt>
<rscale>  1 0.30000000E+03</rscale>
<asrwt>0</asrwt>
<pdfrwt beam="1">  1        1 0.66368271E+00 0.30000000E+03</pdfrwt>
<pdfrwt beam="2">0</pdfrwt>
<totfact> 0.32160581E-02</totfact>
</mgrwt>
</event>
<event>
 6    1  0.5260809E-006  0.3000000E+03  0.7818608E-02  0.1093470E+00
          1   -1    0    0  502    0  0.00000000000E+00  0.00000000000E+00  0.11123088285E+03  0.11123088285E+03  0.00000000000E+00 0.  1.
         13   -1    0    0    0    0 -0.00000000000E+00 -0.00000000000E+00 -0.10000000000E+04  0.10000000000E+04  0.00000000000E+00 0.  1.
    9000005    2    1    2  501    0  0.10785135561E+02 -0.11663697935E+02 -0.87441446069E+03  0.10898202042E+04  0.65027307140E+03 0.  0.
         13    1    3    3    0    0 -0.27466261384E+03 -0.15867574033E+03 -0.32968010656E+03  0.45750028926E+03  0.00000000000E+00 0.  1.
          1    1    3    3  501    0  0.28544774940E+03  0.14701204240E+03 -0.54473435413E+03  0.63231991493E+03  0.00000000000E+00 0.  1.
         21    1    1    2  502  501 -0.10785135561E+02  0.11663697935E+02 -0.14354656461E+02  0.21410678661E+02  0.00000000000E+00 0. -1.
<mgrwt>
<rscale>  1 0.30000000E+03</rscale>
<asrwt>0</asrwt>
<pdfrwt beam="1">  1        1 0.40447679E+00 0.30000000E+03</pdfrwt>
<pdfrwt beam="2">0</pdfrwt>
<totfact> 0.99258094E-01</totfact>
</mgrwt>
</event>
<event>
 6    1  0.5260809E-006  0.3000000E+03  0.7818608E-02  0.1093470E+00
          1   -1    0    0  502    0  0.00000000000E+00  0.00000000000E+00  0.13505713922E+03  0.13505713922E+03  0.00000000000E+00 0.  1.
         13   -1    0    0    0    0 -0.00000000000E+00 -0.00000000000E+00 -0.10000000000E+04  0.10000000000E+04  0.00000000000E+00 0.  1.
    9000005    2    1    2  501    0 -0.24884946499E+02 -0.96233430659E+01 -0.89781384537E+03  0.10927207374E+04  0.62229979884E+03 0.  0.
         13    1    3    3    0    0  0.39353274612E+02 -0.19402795320E+03 -0.87383401863E+03  0.89598070234E+03  0.00000000000E+00 0.  1.
          1    1    3    3  501    0 -0.64238221111E+02  0.18440461014E+03 -0.23979826737E+02  0.19674003502E+03  0.00000000000E+00 0.  1.
         21    1    1    2  502  501  0.24884946499E+02  0.96233430659E+01  0.32870984594E+02  0.42336401857E+02  0.00000000000E+00 0.  1.
<mgrwt>
<rscale>  1 0.30000000E+03</rscale>
<asrwt>0</asrwt>
<pdfrwt beam="1">  1        1 0.49111791E+00 0.30000000E+03</pdfrwt>
<pdfrwt beam="2">0</pdfrwt>
<totfact> 0.26531582E-01</totfact>
</mgrwt>
</event>
<event>
 6    1  0.5260809E-006  0.3000000E+03  0.7818608E-02  0.1093470E+00
          1   -1    0    0  502    0  0.00000000000E+00  0.00000000000E+00  0.11139104406E+03  0.11139104406E+03  0.00000000000E+00 0.  1.
         13   -1    0    0    0    0 -0.00000000000E+00 -0.00000000000E+00 -0.10000000000E+04  0.10000000000E+04  0.00000000000E+00 0.  1.
    9000005    2    1    2  501    0  0.12639986903E+01  0.17714128181E+02 -0.87098714361E+03  0.10863727248E+04  0.64905446980E+03 0.  0.
         13    1    3    3    0    0  0.29807759574E+03  0.22993663915E+02 -0.65265096863E+03  0.71786645590E+03  0.00000000000E+00 0.  1.
          3    1    3    3  501    0 -0.29681359705E+03 -0.52795357346E+01 -0.21833617498E+03  0.36850626887E+03  0.00000000000E+00 0.  1.
         21    1    1    2  502  501 -0.12639986903E+01 -0.17714128181E+02 -0.17621812333E+02  0.25018319284E+02  0.00000000000E+00 0. -1.
<mgrwt>
<rscale>  1 0.30000000E+03</rscale>
<asrwt>0</asrwt>
<pdfrwt beam="1">  1        1 0.40505920E+00 0.30000000E+03</pdfrwt>
<pdfrwt beam="2">0</pdfrwt>
<totfact> 0.98488419E-01</totfact>
</mgrwt>
</event>
<event>
 6    1  0.5260809E-006  0.3000000E+03  0.7818608E-02  0.1093470E+00
          1   -1    0    0  502    0  0.00000000000E+00  0.00000000000E+00  0.90998559193E+02  0.90998559193E+02  0.00000000000E+00 0.  1.
         13   -1    0    0    0    0 -0.00000000000E+00 -0.00000000000E+00 -0.10000000000E+04  0.10000000000E+04  0.00000000000E+00 0.  1.
    9000005    2    1    2  501    0 -0.39799100322E+01 -0.72933071404E+01 -0.89921986282E+03  0.10781645699E+04  0.59478857261E+03 0.  0.
         13    1    3    3    0    0 -0.14716297145E+03  0.21440499459E+03 -0.70223727836E+03  0.74884152995E+03  0.00000000000E+00 0.  1.
          3    1    3    3  501    0  0.14318306141E+03 -0.22169830173E+03 -0.19698258446E+03  0.32932303996E+03  0.00000000000E+00 0.  1.
         21    1    1    2  502  501  0.39799100322E+01  0.72933071404E+01 -0.97815779872E+01  0.12833989280E+02  0.00000000000E+00 0. -1.
<mgrwt>
<rscale>  1 0.30000000E+03</rscale>
<asrwt>0</asrwt>
<pdfrwt beam="1">  1        1 0.33090455E+00 0.30000000E+03</pdfrwt>
<pdfrwt beam="2">0</pdfrwt>
<totfact> 0.24606663E+00</totfact>
</mgrwt>
</event>
<event>
 6    1  0.5260809E-006  0.3000000E+03  0.7818608E-02  0.1093470E+00
          1   -1    0    0  502    0  0.00000000000E+00  0.00000000000E+00  0.12209174639E+03  0.12209174639E+03  0.00000000000E+00 0.  1.
         13   -1    0    0    0    0 -0.00000000000E+00 -0.00000000000E+00 -0.10000000000E+04  0.10000000000E+04  0.00000000000E+00 0.  1.
    9000005    2    1    2  501    0  0.84323211322E+01  0.30278447083E+02 -0.86822193664E+03  0.10892023388E+04  0.65693570091E+03 0.  0.
         13    1    3    3    0    0 -0.29905970664E+02  0.21832026789E+03 -0.86980642411E+03  0.89728552974E+03  0.00000000000E+00 0.  1.
          3    1    3    3  501    0  0.38338291796E+02 -0.18804182081E+03  0.15844874722E+01  0.19191680904E+03  0.00000000000E+00 0.  1.
         21    1    1    2  502  501 -0.84323211322E+01 -0.30278447083E+02 -0.96863169696E+01  0.32889407624E+02  0.00000000000E+00 0.  1.
<mgrwt>
<rscale>  1 0.30000000E+03</rscale>
<asrwt>0</asrwt>
<pdfrwt beam="1">  1        1 0.44397092E+00 0.30000000E+03</pdfrwt>
<pdfrwt beam="2">0</pdfrwt>
<totfact> 0.56452382E-01</totfact>
</mgrwt>
</event>
<event>
 6    1  0.5260809E-006  0.3000000E+03  0.7818608E-02  0.1093470E+00
          1   -1    0    0  502    0  0.00000000000E+00  0.00000000000E+00  0.12090906581E+03  0.12090906581E+03  0.00000000000E+00 0.  1.
         13   -1    0    0    0    0 -0.00000000000E+00 -0.00000000000E+00 -0.10000000000E+04  0.10000000000E+04  0.00000000000E+00 0.  1.
    9000005    2    1    2  501    0  0.14883179665E+02 -0.91374229427E+01 -0.88853441094E+03  0.11010550791E+04  0.65001837378E+03 0.  0.
         13    1    3    3    0    0  0.10897053688E+03  0.71914768801E+02 -0.95247090114E+03  0.96137772463E+03  0.00000000000E+00 0.  1.
          3    1    3    3  501    0 -0.94087357218E+02 -0.81052191743E+02  0.63936490202E+02  0.13967735448E+03  0.00000000000E+00 0.  1.
         21    1    1    2  502  501 -0.14883179665E+02  0.91374229427E+01  0.94434767502E+01  0.19853986705E+02  0.00000000000E+00 0.  1.
<mgrwt>
<rscale>  1 0.30000000E+03</rscale>
<asrwt>0</asrwt>
<pdfrwt beam="1">  1        1 0.43967026E+00 0.30000000E+03</pdfrwt>
<pdfrwt beam="2">0</pdfrwt>
<totfact> 0.60241039E-01</totfact>
</mgrwt>
</event>
<event>
 6    1  0.5260809E-006  0.3000000E+03  0.7818608E-02  0.1093470E+00
          1   -1    0    0  502    0  0.00000000000E+00  0.00000000000E+00  0.10447470824E+03  0.10447470824E+03  0.00000000000E+00 0.  1.
         13   -1    0    0    0    0 -0.00000000000E+00 -0.00000000000E+00 -0.10000000000E+04  0.10000000000E+04  0.00000000000E+00 0.  1.
    9000005    2    1    2  501    0  0.13327689010E+02  0.56906217281E+01 -0.89580708262E+03  0.10899802308E+04  0.62078705190E+03 0.  0.
         13    1    3    3    0    0  0.24204273552E+03  0.14680445613E+03 -0.70692695673E+03  0.76149980716E+03  0.00000000000E+00 0.  1.
          3    1    3    3  501    0 -0.22871504651E+03 -0.14111383440E+03 -0.18888012589E+03  0.32848042364E+03  0.00000000000E+00 0.  1.
         21    1    1    2  502  501 -0.13327689010E+02 -0.56906217281E+01  0.28179085833E+00  0.14494477434E+02  0.00000000000E+00 0. -1.
<mgrwt>
<rscale>  1 0.30000000E+03</rscale>
<asrwt>0</asrwt>
<pdfrwt beam="1">  1        1 0.37990883E+00 0.30000000E+03</pdfrwt>
<pdfrwt beam="2">0</pdfrwt>
<totfact> 0.13639454E+00</totfact>
</mgrwt>
</event>
<event>
 6    1  0.5260809E-006  0.3000000E+03  0.7818608E-02  0.1093470E+00
          1   -1    0    0  502    0  0.00000000000E+00  0.00000000000E+00  0.11281124714E+03  0.11281124714E+03  0.00000000000E+00 0.  1.
         13   -1    0    0    0    0 -0.00000000000E+00 -0.00000000000E+00 -0.10000000000E+04  0.10000000000E+04  0.00000000000E+00 0.  1.
    9000005    2    1    2  501    0  0.11021779741E+02  0.18202923494E+02 -0.86590339133E+03  0.10827131962E+04  0.64963555642E+03 0.  0.
         13    1    3    3    0    0  0.32318408733E+03 -0.43610038650E+02 -0.50936368061E+03  0.60481497079E+03  0.00000000000E+00 0.  1.
          1    1    3    3  501    0 -0.31216230759E+03  0.61812962145E+02 -0.35653971072E+03  0.47789822545E+03  0.00000000000E+00 0.  1.
         21    1    1    2  502  501 -0.11021779741E+02 -0.18202923494E+02 -0.21285361528E+02  0.30098050897E+02  0.00000000000E+00 0.  1.
<mgrwt>
<rscale>  1 0.30000000E+03</rscale>
<asrwt>0</asrwt>
<pdfrwt beam="1">  1        1 0.41022358E+00 0.30000000E+03</pdfrwt>
<pdfrwt beam="2">0</pdfrwt>
<totfact> 0.91854957E-01</totfact>
</mgrwt>
</event>
<event>
 6    1  0.5260809E-006  0.3000000E+03  0.7818608E-02  0.1093470E+00
          1   -1    0    0  502    0  0.00000000000E+00  0.00000000000E+00  0.11500955479E+03  0.11500955479E+03  0.00000000000E+00 0.  1.
         13   -1    0    0    0    0 -0.00000000000E+00 -0.00000000000E+00 -0.10000000000E+04  0.10000000000E+04  0.00000000000E+00 0.  1.
    9000005    2    1    2  501    0  0.10223988564E+02  0.38829539479E+01 -0.88143169923E+03  0.11035086006E+04  0.66384469870E+03 0.  0.
         13    1    3    3    0    0 -0.75391796977E+01 -0.18024521808E+03 -0.89971600981E+03  0.91762414756E+03  0.00000000000E+00 0.  1.
          1    1    3    3  501    0  0.17763168262E+02  0.18412817203E+03  0.18284310588E+02  0.18588445307E+03  0.00000000000E+00 0.  1.
         21    1    1    2  502  501 -0.10223988564E+02 -0.38829539479E+01 -0.35587459844E+01  0.11500954157E+02  0.00000000000E+00 0.  1.
<mgrwt>
<rscale>  1 0.30000000E+03</rscale>
<asrwt>0</asrwt>
<pdfrwt beam="1">  1        1 0.41821744E+00 0.30000000E+03</pdfrwt>
<pdfrwt beam="2">0</pdfrwt>
<totfact> 0.82244895E-01</totfact>
</mgrwt>
</event>
<event>
 6    1  0.5260809E-006  0.3000000E+03  0.7818608E-02  0.1093470E+00
          1   -1    0    0  502    0  0.00000000000E+00  0.00000000000E+00  0.12203139690E+03  0.12203139690E+03  0.00000000000E+00 0.  1.
         13   -1    0    0    0    0 -0.00000000000E+00 -0.00000000000E+00 -0.10000000000E+04  0.10000000000E+04  0.00000000000E+00 0.  1.
    9000005    2    1    2  501    0  0.41831412443E+02 -0.26457418962E+02 -0.83354073301E+03  0.10555205126E+04  0.64566518949E+03 0.  0.
         13    1    3    3    0    0  0.29064036343E+03 -0.14979584693E+03 -0.25806070613E+03  0.41654044781E+03  0.00000000000E+00 0.  1.
          1    1    3    3  501    0 -0.24880895099E+03  0.12333842796E+03 -0.57548002687E+03  0.63898006482E+03  0.00000000000E+00 0.  1.
         21    1    1    2  502  501 -0.41831412443E+02  0.26457418962E+02 -0.44427870094E+02  0.66510884269E+02  0.00000000000E+00 0. -1.
<mgrwt>
<rscale>  1 0.30000000E+03</rscale>
<asrwt>0</asrwt>
<pdfrwt beam="1">  1        1 0.44375147E+00 0.30000000E+03</pdfrwt>
<pdfrwt beam="2">0</pdfrwt>
<totfact> 0.56641438E-01</totfact>
</mgrwt>
</event>
<event>
 6    1  0.5260809E-006  0.3000000E+03  0.7818608E-02  0.1093470E+00
          1   -1    0    0  502    0  0.00000000000E+00  0.00000000000E+00  0.11071935690E+03  0.11071935690E+03  0.00000000000E+00 0.  1.
         13   -1    0    0    0    0 -0.00000000000E+00 -0.00000000000E+00 -0.10000000000E+04  0.10000000000E+04  0.00000000000E+00 0.  1.
    9000005    2    1    2  501    0 -0.50680060807E+02  0.61423492491E+01 -0.82971174230E+03  0.10322677734E+04  0.61200407153E+03 0.  0.
         13    1    3    3    0    0 -0.55227986171E+02 -0.12518559216E+03 -0.88073717107E+03  0.89130215272E+03  0.00000000000E+00 0.  1.
          1    1    3    3  501    0  0.45479253646E+01  0.13132794141E+03  0.51025428763E+02  0.14096562063E+03  0.00000000000E+00 0.  1.
         21    1    1    2  502  501  0.50680060807E+02 -0.61423492491E+01 -0.59568900802E+02  0.78451583543E+02  0.00000000000E+00 0. -1.
<mgrwt>
<rscale>  1 0.30000000E+03</rscale>
<asrwt>0</asrwt>
<pdfrwt beam="1">  1        1 0.40261669E+00 0.30000000E+03</pdfrwt>
<pdfrwt beam="2">0</pdfrwt>
<totfact> 0.10174489E+00</totfact>
</mgrwt>
</event>
<event>
 6    1  0.5260809E-006  0.3000000E+03  0.7818608E-02  0.1093470E+00
          1   -1    0    0  502    0  0.00000000000E+00  0.00000000000E+00  0.11185478311E+03  0.11185478311E+03  0.00000000000E+00 0.  1.
         13   -1    0    0    0    0 -0.00000000000E+00 -0.00000000000E+00 -0.10000000000E+04  0.10000000000E+04  0.00000000000E+00 0.  1.
    9000005    2    1    2  501    0  0.22695402492E+01 -0.21962963960E+02 -0.88039025504E+03  0.10884526030E+04  0.63965189383E+03 0.  0.
         13    1    3    3    0    0  0.27269884188E+03 -0.16740145199E+03 -0.55798773310E+03  0.64322485554E+03  0.00000000000E+00 0.  1.
          3    1    3    3  501    0 -0.27042930163E+03  0.14543848803E+03 -0.32240252195E+03  0.44522774750E+03  0.00000000000E+00 0.  1.
         21    1    1    2  502  501 -0.22695402492E+01  0.21962963960E+02 -0.77549618497E+01  0.23402180073E+02  0.00000000000E+00 0. -1.
<mgrwt>
<rscale>  1 0.30000000E+03</rscale>
<asrwt>0</asrwt>
<pdfrwt beam="1">  1        1 0.40674552E+00 0.30000000E+03</pdfrwt>
<pdfrwt beam="2">0</pdfrwt>
<totfact> 0.96284713E-01</totfact>
</mgrwt>
</event>
<event>
 6    1  0.5260809E-006  0.3000000E+03  0.7818608E-02  0.1093470E+00
          1   -1    0    0  502    0  0.00000000000E+00  0.00000000000E+00  0.10430937407E+03  0.10430937407E+03  0.00000000000E+00 0.  1.
         13   -1    0    0    0    0 -0.00000000000E+00 -0.00000000000E+00 -0.10000000000E+04  0.10000000000E+04  0.00000000000E+00 0.  1.
    9000005    2    1    2  501    0 -0.57889894554E+01 -0.94363136429E+01 -0.88062466171E+03  0.10856133934E+04  0.63477089470E+03 0.  0.
         13    1    3    3    0    0  0.20487778027E+03  0.61021449608E+01 -0.27594956871E+02  0.20681784900E+03  0.00000000000E+00 0.  1.
          3    1    3    3  501    0 -0.21066676972E+03 -0.15538458604E+02 -0.85302970484E+03  0.87879554442E+03  0.00000000000E+00 0.  1.
         21    1    1    2  502  501  0.57889894554E+01  0.94363136429E+01 -0.15065964226E+02  0.18695980641E+02  0.00000000000E+00 0.  1.
<mgrwt>
<rscale>  1 0.30000000E+03</rscale>
<asrwt>0</asrwt>
<pdfrwt beam="1">  1        1 0.37930761E+00 0.30000000E+03</pdfrwt>
<pdfrwt beam="2">0</pdfrwt>
<totfact> 0.13743250E+00</totfact>
</mgrwt>
</event>
<event>
 6    1  0.5260809E-006  0.3000000E+03  0.7818608E-02  0.1093470E+00
          1   -1    0    0  502    0  0.00000000000E+00  0.00000000000E+00  0.10751372918E+03  0.10751372918E+03  0.00000000000E+00 0.  1.
         13   -1    0    0    0    0 -0.00000000000E+00 -0.00000000000E+00 -0.10000000000E+04  0.10000000000E+04  0.00000000000E+00 0.  1.
    9000005    2    1    2  501    0  0.55139280556E+01 -0.48559806388E+01 -0.88316423914E+03  0.10956442631E+04  0.64838514327E+03 0.  0.
         13    1    3    3    0    0 -0.50400700383E+02 -0.29560096358E+03 -0.22804737271E+03  0.37673036043E+03  0.00000000000E+00 0.  1.
          3    1    3    3  501    0  0.55914628439E+02  0.29074498294E+03 -0.65511686642E+03  0.71891390267E+03  0.00000000000E+00 0.  1.
         21    1    1    2  502  501 -0.55139280556E+01  0.48559806388E+01 -0.93220316803E+01  0.11869466088E+02  0.00000000000E+00 0.  1.
<mgrwt>
<rscale>  1 0.30000000E+03</rscale>
<asrwt>0</asrwt>
<pdfrwt beam="1">  1        1 0.39095984E+00 0.30000000E+03</pdfrwt>
<pdfrwt beam="2">0</pdfrwt>
<totfact> 0.11844508E+00</totfact>
</mgrwt>
</event>
<event>
 6    1  0.5260809E-006  0.3000000E+03  0.7818608E-02  0.1093470E+00
          1   -1    0    0  502    0  0.00000000000E+00  0.00000000000E+00  0.11406697428E+03  0.11406697428E+03  0.00000000000E+00 0.  1.
         13   -1    0    0    0    0 -0.00000000000E+00 -0.00000000000E+00 -0.10000000000E+04  0.10000000000E+04  0.00000000000E+00 0.  1.
    9000005    2    1    2  501    0 -0.39042707041E+01  0.95434729663E+01 -0.89214162969E+03  0.11020308632E+04  0.64687635207E+03 0.  0.
         13    1    3    3    0    0  0.21667366667E+03  0.21852681616E+03 -0.62828346153E+03  0.69960099717E+03  0.00000000000E+00 0.  1.
          1    1    3    3  501    0 -0.22057793738E+03 -0.20898334319E+03 -0.26385816816E+03  0.40242986605E+03  0.00000000000E+00 0.  1.
         21    1    1    2  502  501  0.39042707041E+01 -0.95434729663E+01  0.62086039648E+01  0.12036111049E+02  0.00000000000E+00 0.  1.
<mgrwt>
<rscale>  1 0.30000000E+03</rscale>
<asrwt>0</asrwt>
<pdfrwt beam="1">  1        1 0.41478987E+00 0.30000000E+03</pdfrwt>
<pdfrwt beam="2">0</pdfrwt>
<totfact> 0.86270742E-01</totfact>
</mgrwt>
</event>
<event>
 6    1  0.5260809E-006  0.3000000E+03  0.7818608E-02  0.1093470E+00
          1   -1    0    0  502    0  0.00000000000E+00  0.00000000000E+00  0.11069643168E+03  0.11069643168E+03  0.00000000000E+00 0.  1.
         13   -1    0    0    0    0 -0.00000000000E+00 -0.00000000000E+00 -0.10000000000E+04  0.10000000000E+04  0.00000000000E+00 0.  1.
    9000005    2    1    2  501    0 -0.44986707582E+01 -0.10015416997E+02 -0.89785860478E+03  0.10967775501E+04  0.62980185262E+03 0.  0.
         13    1    3    3    0    0 -0.25525733432E+03  0.64790023414E+02 -0.14694271887E+03  0.30157290410E+03  0.00000000000E+00 0.  1.
          3    1    3    3  501    0  0.25075866356E+03 -0.74805440411E+02 -0.75091588591E+03  0.79520464597E+03  0.00000000000E+00 0.  1.
         21    1    1    2  502  501  0.44986707582E+01  0.10015416997E+02  0.85550364548E+01  0.13918881599E+02  0.00000000000E+00 0. -1.
<mgrwt>
<rscale>  1 0.30000000E+03</rscale>
<asrwt>0</asrwt>
<pdfrwt beam="1">  1        1 0.40253333E+00 0.30000000E+03</pdfrwt>
<pdfrwt beam="2">0</pdfrwt>
<totfact> 0.10185733E+00</totfact>
</mgrwt>
</event>
<event>
 6    1  0.5260809E-006  0.3000000E+03  0.7818608E-02  0.1093470E+00
          1   -1    0    0  502    0  0.00000000000E+00  0.00000000000E+00  0.10831409918E+03  0.10831409918E+03  0.00000000000E+00 0.  1.
         13   -1    0    0    0    0 -0.00000000000E+00 -0.00000000000E+00 -0.10000000000E+04  0.10000000000E+04  0.00000000000E+00 0.  1.
    9000005    2    1    2  501    0 -0.13826107816E+02 -0.97534100587E+00 -0.88998840530E+03  0.10943500726E+04  0.63665579969E+03 0.  0.
         13    1    3    3    0    0 -0.23597393739E+03  0.22017339937E+01 -0.71994906823E+02  0.24672213798E+03  0.00000000000E+00 0.  1.
          1    1    3    3  501    0  0.22214782958E+03 -0.31770749996E+01 -0.81799349848E+03  0.84762793462E+03  0.00000000000E+00 0.  1.
         21    1    1    2  502  501  0.13826107816E+02  0.97534100587E+00 -0.16974955194E+01  0.13964026584E+02  0.00000000000E+00 0. -1.
<mgrwt>
<rscale>  1 0.30000000E+03</rscale>
<asrwt>0</asrwt>
<pdfrwt beam="1">  1        1 0.39387028E+00 0.30000000E+03</pdfrwt>
<pdfrwt beam="2">0</pdfrwt>
<totfact> 0.11407143E+00</totfact>
</mgrwt>
</event>
<event>
 6    1  0.5260809E-006  0.3000000E+03  0.7818608E-02  0.1093470E+00
          1   -1    0    0  502    0  0.00000000000E+00  0.00000000000E+00  0.12957559210E+03  0.12957559210E+03  0.00000000000E+00 0.  1.
         13   -1    0    0    0    0 -0.00000000000E+00 -0.00000000000E+00 -0.10000000000E+04  0.10000000000E+04  0.00000000000E+00 0.  1.
    9000005    2    1    2  501    0 -0.76926673537E+01  0.14850978175E+02 -0.88761734470E+03  0.11055896429E+04  0.65892653547E+03 0.  0.
         13    1    3    3    0    0  0.29499838676E+02 -0.19119262770E+03 -0.87467869652E+03  0.89581676894E+03  0.00000000000E+00 0.  1.
          1    1    3    3  501    0 -0.37192506030E+02  0.20604360587E+03 -0.12938648182E+02  0.20977287394E+03  0.00000000000E+00 0.  1.
         21    1    1    2  502  501  0.76926673537E+01 -0.14850978175E+02  0.17192936801E+02  0.23985949212E+02  0.00000000000E+00 0. -1.
<mgrwt>
<rscale>  1 0.30000000E+03</rscale>
<asrwt>0</asrwt>
<pdfrwt beam="1">  1        1 0.47118496E+00 0.30000000E+03</pdfrwt>
<pdfrwt beam="2">0</pdfrwt>
<totfact> 0.36891912E-01</totfact>
</mgrwt>
</event>
<event>
 6    1  0.5260809E-006  0.3000000E+03  0.7818608E-02  0.1093470E+00
          1   -1    0    0  502    0  0.00000000000E+00  0.00000000000E+00  0.10854087941E+03  0.10854087941E+03  0.00000000000E+00 0.  1.
         13   -1    0    0    0    0 -0.00000000000E+00 -0.00000000000E+00 -0.10000000000E+04  0.10000000000E+04  0.00000000000E+00 0.  1.
    9000005    2    1    2  501    0  0.38112808188E+01  0.82203272855E+01 -0.88611923532E+03  0.10980235596E+04  0.64835664453E+03 0.  0.
         13    1    3    3    0    0  0.23850508885E+03 -0.12411701879E+03 -0.74881560722E+03  0.79562209960E+03  0.00000000000E+00 0.  1.
          3    1    3    3  501    0 -0.23469380803E+03  0.13233734608E+03 -0.13730362810E+03  0.30240145996E+03  0.00000000000E+00 0.  1.
         21    1    1    2  502  501 -0.38112808188E+01 -0.82203272855E+01 -0.53398852680E+01  0.10517319850E+02  0.00000000000E+00 0.  1.
<mgrwt>
<rscale>  1 0.30000000E+03</rscale>
<asrwt>0</asrwt>
<pdfrwt beam="1">  1        1 0.39469494E+00 0.30000000E+03</pdfrwt>
<pdfrwt beam="2">0</pdfrwt>
<totfact> 0.11285906E+00</totfact>
</mgrwt>
</event>
<event>
 6    1  0.5260809E-006  0.3000000E+03  0.7818608E-02  0.1093470E+00
          1   -1    0    0  502    0  0.00000000000E+00  0.00000000000E+00  0.10658266964E+03  0.10658266964E+03  0.00000000000E+00 0.  1.
         13   -1    0    0    0    0 -0.00000000000E+00 -0.00000000000E+00 -0.10000000000E+04  0.10000000000E+04  0.00000000000E+00 0.  1.
    9000005    2    1    2  501    0 -0.11156375080E+02 -0.53811097839E+01 -0.89111098423E+03  0.10939834522E+04  0.63448214036E+03 0.  0.
         13    1    3    3    0    0  0.14477358293E+03  0.10880457185E+03 -0.88210708965E+03  0.90050582607E+03  0.00000000000E+00 0.  1.
          3    1    3    3  501    0 -0.15592995801E+03 -0.11418568163E+03 -0.90038945766E+01  0.19347762613E+03  0.00000000000E+00 0.  1.
         21    1    1    2  502  501  0.11156375080E+02  0.53811097839E+01 -0.23063461324E+01  0.12599217432E+02  0.00000000000E+00 0.  1.
<mgrwt>
<rscale>  1 0.30000000E+03</rscale>
<asrwt>0</asrwt>
<pdfrwt beam="1">  1        1 0.38757416E+00 0.30000000E+03</pdfrwt>
<pdfrwt beam="2">0</pdfrwt>
<totfact> 0.12371810E+00</totfact>
</mgrwt>
</event>
<event>
 6    1  0.5260809E-006  0.3000000E+03  0.7818608E-02  0.1093470E+00
          1   -1    0    0  502    0  0.00000000000E+00  0.00000000000E+00  0.11198736203E+03  0.11198736203E+03  0.00000000000E+00 0.  1.
         13   -1    0    0    0    0 -0.00000000000E+00 -0.00000000000E+00 -0.10000000000E+04  0.10000000000E+04  0.00000000000E+00 0.  1.
    9000005    2    1    2  501    0 -0.36071202024E+01  0.92058967790E+01 -0.88314403914E+03  0.11009663318E+04  0.65733226769E+03 0.  0.
         13    1    3    3    0    0  0.21776993638E+03  0.73141689356E+01 -0.84954910374E+03  0.87704670453E+03  0.00000000000E+00 0.  1.
          1    1    3    3  501    0 -0.22137705658E+03  0.18917278434E+01 -0.33594935396E+02  0.22391962732E+03  0.00000000000E+00 0.  1.
         21    1    1    2  502  501  0.36071202024E+01 -0.92058967790E+01 -0.48685988308E+01  0.11021030180E+02  0.00000000000E+00 0.  1.
<mgrwt>
<rscale>  1 0.30000000E+03</rscale>
<asrwt>0</asrwt>
<pdfrwt beam="1">  1        1 0.40722763E+00 0.30000000E+03</pdfrwt>
<pdfrwt beam="2">0</pdfrwt>
<totfact> 0.95661449E-01</totfact>
</mgrwt>
</event>
<event>
 6    1  0.5260809E-006  0.3000000E+03  0.7818608E-02  0.1093470E+00
          1   -1    0    0  502    0  0.00000000000E+00  0.00000000000E+00  0.11028781876E+03  0.11028781876E+03  0.00000000000E+00 0.  1.
         13   -1    0    0    0    0 -0.00000000000E+00 -0.00000000000E+00 -0.10000000000E+04  0.10000000000E+04  0.00000000000E+00 0.  1.
    9000005    2    1    2  501    0 -0.21172170616E+02  0.42921453644E+01 -0.88241505616E+03  0.10874858155E+04  0.63521837518E+03 0.  0.
         13    1    3    3    0    0 -0.23513002038E+02  0.67018052578E+02  0.89100974664E+02  0.11394412807E+03  0.00000000000E+00 0.  1.
          3    1    3    3  501    0  0.23408314221E+01 -0.62725907213E+02 -0.97151603082E+03  0.97354168738E+03  0.00000000000E+00 0.  1.
         21    1    1    2  502  501  0.21172170616E+02 -0.42921453644E+01 -0.72971250770E+01  0.22802003307E+02  0.00000000000E+00 0.  1.
<mgrwt>
<rscale>  1 0.30000000E+03</rscale>
<asrwt>0</asrwt>
<pdfrwt beam="1">  1        1 0.40104746E+00 0.30000000E+03</pdfrwt>
<pdfrwt beam="2">0</pdfrwt>
<totfact> 0.10387636E+00</totfact>
</mgrwt>
</event>
<event>
 6    1  0.5260809E-006  0.3000000E+03  0.7818608E-02  0.1093470E+00
          1   -1    0    0  502    0  0.00000000000E+00  0.00000000000E+00  0.97183078549E+02  0.97183078549E+02  0.00000000000E+00 0.  1.
         13   -1    0    0    0    0 -0.00000000000E+00 -0.00000000000E+00 -0.10000000000E+04  0.10000000000E+04  0.00000000000E+00 0.  1.
    9000005    2    1    2  501    0  0.78921652970E+01 -0.10441346033E+02 -0.91380939224E+03  0.10800909051E+04  0.57565393240E+03 0.  0.
         13    1    3    3    0    0 -0.17087829601E+03  0.56103748365E+02 -0.86457728548E+03  0.88308601234E+03  0.00000000000E+00 0.  1.
          3    1    3    3  501    0  0.17877046130E+03 -0.66545094398E+02 -0.49232106765E+02  0.19700489273E+03  0.00000000000E+00 0.  1.
         21    1    1    2  502  501 -0.78921652970E+01  0.10441346033E+02  0.10992470793E+02  0.17092173478E+02  0.00000000000E+00 0.  1.
<mgrwt>
<rscale>  1 0.30000000E+03</rscale>
<asrwt>0</asrwt>
<pdfrwt beam="1">  1        1 0.35339376E+00 0.30000000E+03</pdfrwt>
<pdfrwt beam="2">0</pdfrwt>
<totfact> 0.18913684E+00</totfact>
</mgrwt>
</event>
<event>
 6    1  0.5260809E-006  0.3000000E+03  0.7818608E-02  0.1093470E+00
          1   -1    0    0  502    0  0.00000000000E+00  0.00000000000E+00  0.11136415717E+03  0.11136415717E+03  0.00000000000E+00 0.  1.
         13   -1    0    0    0    0 -0.00000000000E+00 -0.00000000000E+00 -0.10000000000E+04  0.10000000000E+04  0.00000000000E+00 0.  1.
    9000005    2    1    2  501    0  0.72739379153E+01 -0.15838337436E+02 -0.87775658329E+03  0.10908185641E+04  0.64739845321E+03 0.  0.
         13    1    3    3    0    0  0.16448472109E+03  0.17733239628E+03 -0.79486816034E+02  0.25459802860E+03  0.00000000000E+00 0.  1.
          1    1    3    3  501    0 -0.15721078318E+03 -0.19317073372E+03 -0.79826976726E+03  0.83622053552E+03  0.00000000000E+00 0.  1.
         21    1    1    2  502  501 -0.72739379153E+01  0.15838337436E+02 -0.10879259538E+02  0.20545593046E+02  0.00000000000E+00 0. -1.
<mgrwt>
<rscale>  1 0.30000000E+03</rscale>
<asrwt>0</asrwt>
<pdfrwt beam="1">  1        1 0.40496143E+00 0.30000000E+03</pdfrwt>
<pdfrwt beam="2">0</pdfrwt>
<totfact> 0.98617318E-01</totfact>
</mgrwt>
</event>
<event>
 6    1  0.5260809E-006  0.3000000E+03  0.7818608E-02  0.1093470E+00
          1   -1    0    0  502    0  0.00000000000E+00  0.00000000000E+00  0.11168563025E+03  0.11168563025E+03  0.00000000000E+00 0.  1.
         13   -1    0    0    0    0 -0.00000000000E+00 -0.00000000000E+00 -0.10000000000E+04  0.10000000000E+04  0.00000000000E+00 0.  1.
    9000005    2    1    2  501    0 -0.17278088982E+02 -0.13430487661E+01 -0.87058877790E+03  0.10868958593E+04  0.65047479009E+03 0.  0.
         13    1    3    3    0    0 -0.27788530091E+03 -0.29338962000E+02 -0.74613634620E+03  0.79674366158E+03  0.00000000000E+00 0.  1.
          1    1    3    3  501    0  0.26060721193E+03  0.27995913234E+02 -0.12445243171E+03  0.29015219769E+03  0.00000000000E+00 0.  1.
         21    1    1    2  502  501  0.17278088982E+02  0.13430487661E+01 -0.17725591850E+02  0.24789770981E+02  0.00000000000E+00 0. -1.
<mgrwt>
<rscale>  1 0.30000000E+03</rscale>
<asrwt>0</asrwt>
<pdfrwt beam="1">  1        1 0.40613042E+00 0.30000000E+03</pdfrwt>
<pdfrwt beam="2">0</pdfrwt>
<totfact> 0.97084267E-01</totfact>
</mgrwt>
</event>
<event>
 6    1  0.5260809E-006  0.3000000E+03  0.7818608E-02  0.1093470E+00
          1   -1    0    0  502    0  0.00000000000E+00  0.00000000000E+00  0.10777584586E+03  0.10777584586E+03  0.00000000000E+00 0.  1.
         13   -1    0    0    0    0 -0.00000000000E+00 -0.00000000000E+00 -0.10000000000E+04  0.10000000000E+04  0.00000000000E+00 0.  1.
    9000005    2    1    2  501    0  0.51778368684E+01 -0.12054410044E+02 -0.86421579424E+03  0.10768471049E+04  0.64230727026E+03 0.  0.
         13    1    3    3    0    0 -0.67406058478E+02 -0.29476762736E+03 -0.64319202009E+03  0.71072322712E+03  0.00000000000E+00 0.  1.
          3    1    3    3  501    0  0.72583895347E+02  0.28271321732E+03 -0.22102377415E+03  0.36612387774E+03  0.00000000000E+00 0.  1.
         21    1    1    2  502  501 -0.51778368684E+01  0.12054410044E+02 -0.28008359897E+02  0.30928741007E+02  0.00000000000E+00 0.  1.
<mgrwt>
<rscale>  1 0.30000000E+03</rscale>
<asrwt>0</asrwt>
<pdfrwt beam="1">  1        1 0.39191299E+00 0.30000000E+03</pdfrwt>
<pdfrwt beam="2">0</pdfrwt>
<totfact> 0.11699624E+00</totfact>
</mgrwt>
</event>
<event>
 6    1  0.5260809E-006  0.3000000E+03  0.7818608E-02  0.1093470E+00
          1   -1    0    0  502    0  0.00000000000E+00  0.00000000000E+00  0.16933437290E+03  0.16933437290E+03  0.00000000000E+00 0.  1.
         13   -1    0    0    0    0 -0.00000000000E+00 -0.00000000000E+00 -0.10000000000E+04  0.10000000000E+04  0.00000000000E+00 0.  1.
    9000005    2    1    2  501    0 -0.18930804543E+02  0.11315437351E+02 -0.89154639737E+03  0.11045819006E+04  0.65173597564E+03 0.  0.
         13    1    3    3    0    0  0.13891872265E+03  0.15118974933E+02  0.51110485023E+02  0.14879273028E+03  0.00000000000E+00 0.  1.
          1    1    3    3  501    0 -0.15784952719E+03 -0.38035375821E+01 -0.94265688239E+03  0.95578917030E+03  0.00000000000E+00 0.  1.
         21    1    1    2  502  501  0.18930804543E+02 -0.11315437351E+02  0.60880770265E+02  0.64752472317E+02  0.00000000000E+00 0.  1.
<mgrwt>
<rscale>  1 0.30000000E+03</rscale>
<asrwt>0</asrwt>
<pdfrwt beam="1">  1        1 0.61576265E+00 0.30000000E+03</pdfrwt>
<pdfrwt beam="2">0</pdfrwt>
<totfact> 0.49505761E-02</totfact>
</mgrwt>
</event>
<event>
 6    1  0.5260809E-006  0.3000000E+03  0.7818608E-02  0.1093470E+00
          1   -1    0    0  502    0  0.00000000000E+00  0.00000000000E+00  0.11138718417E+03  0.11138718417E+03  0.00000000000E+00 0.  1.
         13   -1    0    0    0    0 -0.00000000000E+00 -0.00000000000E+00 -0.10000000000E+04  0.10000000000E+04  0.00000000000E+00 0.  1.
    9000005    2    1    2  501    0  0.18273158630E+02  0.28020160278E+01 -0.88959327936E+03  0.10928744607E+04  0.63455230252E+03 0.  0.
         13    1    3    3    0    0  0.56536414019E+02  0.30152714492E+03 -0.29126289479E+03  0.42302370987E+03  0.00000000000E+00 0.  1.
          1    1    3    3  501    0 -0.38263255389E+02 -0.29872512889E+03 -0.59833038457E+03  0.66985075087E+03  0.00000000000E+00 0.  1.
         21    1    1    2  502  501 -0.18273158630E+02 -0.28020160278E+01  0.98046353185E+00  0.18512723432E+02  0.00000000000E+00 0. -1.
<mgrwt>
<rscale>  1 0.30000000E+03</rscale>
<asrwt>0</asrwt>
<pdfrwt beam="1">  1        1 0.40504516E+00 0.30000000E+03</pdfrwt>
<pdfrwt beam="2">0</pdfrwt>
<totfact> 0.98506916E-01</totfact>
</mgrwt>
</event>
<event>
 6    1  0.5260809E-006  0.3000000E+03  0.7818608E-02  0.1093470E+00
          1   -1    0    0  502    0  0.00000000000E+00  0.00000000000E+00  0.13731356167E+03  0.13731356167E+03  0.00000000000E+00 0.  1.
         13   -1    0    0    0    0 -0.00000000000E+00 -0.00000000000E+00 -0.10000000000E+04  0.10000000000E+04  0.00000000000E+00 0.  1.
    9000005    2    1    2  501    0  0.55365829584E+02 -0.43459381831E+02 -0.82365535378E+03  0.10568305292E+04  0.65842883645E+03 0.  0.
         13    1    3    3    0    0  0.28559650021E+03 -0.61664478509E+02 -0.11932865436E+03  0.31560607819E+03  0.00000000000E+00 0.  1.
          3    1    3    3  501    0 -0.23023067062E+03  0.18205096678E+02 -0.70432669942E+03  0.74122445100E+03  0.00000000000E+00 0.  1.
         21    1    1    2  502  501 -0.55365829584E+02  0.43459381831E+02 -0.39031084551E+02  0.80483032472E+02  0.00000000000E+00 0. -1.
<mgrwt>
<rscale>  1 0.30000000E+03</rscale>
<asrwt>0</asrwt>
<pdfrwt beam="1">  1        1 0.49932310E+00 0.30000000E+03</pdfrwt>
<pdfrwt beam="2">0</pdfrwt>
<totfact> 0.23101609E-01</totfact>
</mgrwt>
</event>
<event>
 6    1  0.5260809E-006  0.3000000E+03  0.7818608E-02  0.1093470E+00
          1   -1    0    0  502    0  0.00000000000E+00  0.00000000000E+00  0.13482200750E+03  0.13482200750E+03  0.00000000000E+00 0.  1.
         13   -1    0    0    0    0 -0.00000000000E+00 -0.00000000000E+00 -0.10000000000E+04  0.10000000000E+04  0.00000000000E+00 0.  1.
    9000005    2    1    2  501    0 -0.54041450021E+01  0.86868989136E+01 -0.89070432963E+03  0.11073218096E+04  0.65780142919E+03 0.  0.
         13    1    3    3    0    0 -0.70385852737E+02  0.31735992875E+03 -0.57807562457E+03  0.66320654427E+03  0.00000000000E+00 0.  1.
          1    1    3    3  501    0  0.64981707735E+02 -0.30867302984E+03 -0.31262870506E+03  0.44411526535E+03  0.00000000000E+00 0.  1.
         21    1    1    2  502  501  0.54041450021E+01 -0.86868989136E+01  0.25526337127E+02  0.27500197873E+02  0.00000000000E+00 0.  1.
<mgrwt>
<rscale>  1 0.30000000E+03</rscale>
<asrwt>0</asrwt>
<pdfrwt beam="1">  1        1 0.49026288E+00 0.30000000E+03</pdfrwt>
<pdfrwt beam="2">0</pdfrwt>
<totfact> 0.26915516E-01</totfact>
</mgrwt>
</event>
<event>
 6    1  0.5260809E-006  0.3000000E+03  0.7818608E-02  0.1093470E+00
          1   -1    0    0  502    0  0.00000000000E+00  0.00000000000E+00  0.12059874765E+03  0.12059874765E+03  0.00000000000E+00 0.  1.
         13   -1    0    0    0    0 -0.00000000000E+00 -0.00000000000E+00 -0.10000000000E+04  0.10000000000E+04  0.00000000000E+00 0.  1.
    9000005    2    1    2  501    0  0.12446506510E+02  0.33570870132E+02 -0.86473540600E+03  0.10819075872E+04  0.64921089491E+03 0.  0.
         13    1    3    3    0    0 -0.14501233337E+02  0.26358938636E+03 -0.99039865303E+02  0.28195486392E+03  0.00000000000E+00 0.  1.
          1    1    3    3  501    0  0.26947739847E+02 -0.23001851623E+03 -0.76569554070E+03  0.79995272331E+03  0.00000000000E+00 0.  1.
         21    1    1    2  502  501 -0.12446506510E+02 -0.33570870132E+02 -0.14665846344E+02  0.38691160420E+02  0.00000000000E+00 0. -1.
<mgrwt>
<rscale>  1 0.30000000E+03</rscale>
<asrwt>0</asrwt>
<pdfrwt beam="1">  1        1 0.43854183E+00 0.30000000E+03</pdfrwt>
<pdfrwt beam="2">0</pdfrwt>
<totfact> 0.61264839E-01</totfact>
</mgrwt>
</event>
<event>
 6    1  0.5260809E-006  0.3000000E+03  0.7818608E-02  0.1093470E+00
          1   -1    0    0  502    0  0.00000000000E+00  0.00000000000E+00  0.11152447916E+03  0.11152447916E+03  0.00000000000E+00 0.  1.
         13   -1    0    0    0    0 -0.00000000000E+00 -0.00000000000E+00 -0.10000000000E+04  0.10000000000E+04  0.00000000000E+00 0.  1.
    9000005    2    1    2  501    0 -0.76868407863E+01  0.51259140131E+01 -0.88384386049E+03  0.11011893549E+04  0.65677443855E+03 0.  0.
         13    1    3    3    0    0 -0.30156204298E+03 -0.41503461074E+02 -0.66646364875E+03  0.73269092949E+03  0.00000000000E+00 0.  1.
          1    1    3    3  501    0  0.29387520219E+03  0.46629375087E+02 -0.21738021174E+03  0.36849842542E+03  0.00000000000E+00 0.  1.
         21    1    1    2  502  501  0.76868407863E+01 -0.51259140131E+01 -0.46316603478E+01  0.10335124253E+02  0.00000000000E+00 0. -1.
<mgrwt>
<rscale>  1 0.30000000E+03</rscale>
<asrwt>0</asrwt>
<pdfrwt beam="1">  1        1 0.40554442E+00 0.30000000E+03</pdfrwt>
<pdfrwt beam="2">0</pdfrwt>
<totfact> 0.97850552E-01</totfact>
</mgrwt>
</event>
<event>
 6    1  0.5260809E-006  0.3000000E+03  0.7818608E-02  0.1093470E+00
          1   -1    0    0  502    0  0.00000000000E+00  0.00000000000E+00  0.12432152337E+03  0.12432152337E+03  0.00000000000E+00 0.  1.
         13   -1    0    0    0    0 -0.00000000000E+00 -0.00000000000E+00 -0.10000000000E+04  0.10000000000E+04  0.00000000000E+00 0.  1.
    9000005    2    1    2  501    0 -0.82066186201E+01  0.10235774151E+02 -0.88477007106E+03  0.11083597957E+04  0.66743631783E+03 0.  0.
         13    1    3    3    0    0  0.20436001376E+03 -0.24398568470E+03 -0.56144559274E+03  0.64537832561E+03  0.00000000000E+00 0.  1.
          3    1    3    3  501    0 -0.21256663238E+03  0.25422145885E+03 -0.32332447832E+03  0.46298147006E+03  0.00000000000E+00 0.  1.
         21    1    1    2  502  501  0.82066186201E+01 -0.10235774151E+02  0.90915944344E+01  0.15961727695E+02  0.00000000000E+00 0.  1.
<mgrwt>
<rscale>  1 0.30000000E+03</rscale>
<asrwt>0</asrwt>
<pdfrwt beam="1">  1        1 0.45207922E+00 0.30000000E+03</pdfrwt>
<pdfrwt beam="2">0</pdfrwt>
<totfact> 0.49826188E-01</totfact>
</mgrwt>
</event>
<event>
 6    1  0.5260809E-006  0.3000000E+03  0.7818608E-02  0.1093470E+00
          1   -1    0    0  502    0  0.00000000000E+00  0.00000000000E+00  0.75245672882E+02  0.75245672882E+02  0.00000000000E+00 0.  1.
         13   -1    0    0    0    0 -0.00000000000E+00 -0.00000000000E+00 -0.10000000000E+04  0.10000000000E+04  0.00000000000E+00 0.  1.
    9000005    2    1    2  501    0 -0.61617219282E+01  0.48613233148E+02 -0.85715478822E+03  0.99175369174E+03  0.49644721862E+03 0.  0.
         13    1    3    3    0    0 -0.29232957998E+02 -0.22344575795E+03 -0.36612782639E+03  0.42992110653E+03  0.00000000000E+00 0.  1.
          1    1    3    3  501    0  0.23071236069E+02  0.27205899110E+03 -0.49102696182E+03  0.56183258521E+03  0.00000000000E+00 0.  1.
         21    1    1    2  502  501  0.61617219282E+01 -0.48613233148E+02 -0.67599538903E+02  0.83491981137E+02  0.00000000000E+00 0.  1.
<mgrwt>
<rscale>  1 0.30000000E+03</rscale>
<asrwt>0</asrwt>
<pdfrwt beam="1">  1        1 0.27362121E+00 0.30000000E+03</pdfrwt>
<pdfrwt beam="2">0</pdfrwt>
<totfact> 0.46243045E+00</totfact>
</mgrwt>
</event>
<event>
 6    1  0.5260809E-006  0.3000000E+03  0.7818608E-02  0.1093470E+00
          1   -1    0    0  502    0  0.00000000000E+00  0.00000000000E+00  0.11086263561E+03  0.11086263561E+03  0.00000000000E+00 0.  1.
         13   -1    0    0    0    0 -0.00000000000E+00 -0.00000000000E+00 -0.10000000000E+04  0.10000000000E+04  0.00000000000E+00 0.  1.
    9000005    2    1    2  501    0 -0.75169467294E+01 -0.19673773719E+02 -0.85638003261E+03  0.10719190271E+04  0.64434468919E+03 0.  0.
         13    1    3    3    0    0  0.19778323809E+03 -0.78429410647E+02 -0.82990120857E+03  0.85674114977E+03  0.00000000000E+00 0.  1.
          1    1    3    3  501    0 -0.20530018482E+03  0.58755636928E+02 -0.26478824038E+02  0.21517787730E+03  0.00000000000E+00 0.  1.
         21    1    1    2  502  501  0.75169467294E+01  0.19673773719E+02 -0.32757331784E+02  0.38943608539E+02  0.00000000000E+00 0. -1.
<mgrwt>
<rscale>  1 0.30000000E+03</rscale>
<asrwt>0</asrwt>
<pdfrwt beam="1">  1        1 0.40313771E+00 0.30000000E+03</pdfrwt>
<pdfrwt beam="2">0</pdfrwt>
<totfact> 0.10104409E+00</totfact>
</mgrwt>
</event>
<event>
 6    1  0.5260809E-006  0.3000000E+03  0.7818608E-02  0.1093470E+00
          1   -1    0    0  502    0  0.00000000000E+00  0.00000000000E+00  0.12854780496E+03  0.12854780496E+03  0.00000000000E+00 0.  1.
         13   -1    0    0    0    0 -0.00000000000E+00 -0.00000000000E+00 -0.10000000000E+04  0.10000000000E+04  0.00000000000E+00 0.  1.
    9000005    2    1    2  501    0  0.11838838269E+02  0.35305050073E+01 -0.89244587464E+03  0.11041888817E+04  0.65009293555E+03 0.  0.
         13    1    3    3    0    0  0.17060764305E+03  0.27934245711E+03 -0.38654438357E+03  0.50651331343E+03  0.00000000000E+00 0.  1.
          3    1    3    3  501    0 -0.15876880478E+03 -0.27581195211E+03 -0.50590149107E+03  0.59767556831E+03  0.00000000000E+00 0.  1.
         21    1    1    2  502  501 -0.11838838269E+02 -0.35305050073E+01  0.20993679602E+02  0.24358923219E+02  0.00000000000E+00 0.  1.
<mgrwt>
<rscale>  1 0.30000000E+03</rscale>
<asrwt>0</asrwt>
<pdfrwt beam="1">  1        1 0.46744755E+00 0.30000000E+03</pdfrwt>
<pdfrwt beam="2">0</pdfrwt>
<totfact> 0.39179258E-01</totfact>
</mgrwt>
</event>
<event>
 6    1  0.5260809E-006  0.3000000E+03  0.7818608E-02  0.1093470E+00
          1   -1    0    0  502    0  0.00000000000E+00  0.00000000000E+00  0.11269892526E+03  0.11269892526E+03  0.00000000000E+00 0.  1.
         13   -1    0    0    0    0 -0.00000000000E+00 -0.00000000000E+00 -0.10000000000E+04  0.10000000000E+04  0.00000000000E+00 0.  1.
    9000005    2    1    2  501    0  0.10230610216E+02  0.31460061063E+01 -0.88833564874E+03  0.11019456428E+04  0.65194279825E+03 0.  0.
         13    1    3    3    0    0 -0.16966996744E+03  0.21004998386E+03 -0.74529050711E+03  0.79269592756E+03  0.00000000000E+00 0.  1.
          1    1    3    3  501    0  0.17990057766E+03 -0.20690397776E+03 -0.14304514162E+03  0.30924971527E+03  0.00000000000E+00 0.  1.
         21    1    1    2  502  501 -0.10230610216E+02 -0.31460061063E+01  0.10345740007E+01  0.10753282437E+02  0.00000000000E+00 0. -1.
<mgrwt>
<rscale>  1 0.30000000E+03</rscale>
<asrwt>0</asrwt>
<pdfrwt beam="1">  1        1 0.40981514E+00 0.30000000E+03</pdfrwt>
<pdfrwt beam="2">0</pdfrwt>
<totfact> 0.92367183E-01</totfact>
</mgrwt>
</event>
<event>
 6    1  0.5260809E-006  0.3000000E+03  0.7818608E-02  0.1093470E+00
          1   -1    0    0  502    0  0.00000000000E+00  0.00000000000E+00  0.11230047745E+03  0.11230047745E+03  0.00000000000E+00 0.  1.
         13   -1    0    0    0    0 -0.00000000000E+00 -0.00000000000E+00 -0.10000000000E+04  0.10000000000E+04  0.00000000000E+00 0.  1.
    9000005    2    1    2  501    0 -0.88655670532E+01 -0.78513358336E+01 -0.88808326101E+03  0.11004518907E+04  0.64974013531E+03 0.  0.
         13    1    3    3    0    0 -0.11283994964E+03  0.28570719369E+03 -0.27274419206E+03  0.41079295158E+03  0.00000000000E+00 0.  1.
          1    1    3    3  501    0  0.10397438259E+03 -0.29355852953E+03 -0.61533906895E+03  0.68965893909E+03  0.00000000000E+00 0.  1.
         21    1    1    2  502  501  0.88655670532E+01  0.78513358336E+01  0.38373846277E+00  0.11848586783E+02  0.00000000000E+00 0.  1.
<mgrwt>
<rscale>  1 0.30000000E+03</rscale>
<asrwt>0</asrwt>
<pdfrwt beam="1">  1        1 0.40836623E+00 0.30000000E+03</pdfrwt>
<pdfrwt beam="2">0</pdfrwt>
<totfact> 0.94201315E-01</totfact>
</mgrwt>
</event>
<event>
 6    1  0.5260809E-006  0.3000000E+03  0.7818608E-02  0.1093470E+00
          1   -1    0    0  502    0  0.00000000000E+00  0.00000000000E+00  0.12335236893E+03  0.12335236893E+03  0.00000000000E+00 0.  1.
         13   -1    0    0    0    0 -0.00000000000E+00 -0.00000000000E+00 -0.10000000000E+04  0.10000000000E+04  0.00000000000E+00 0.  1.
    9000005    2    1    2  501    0  0.92113002473E+01 -0.81416935388E+01 -0.89483312354E+03  0.11014013470E+04  0.64203385662E+03 0.  0.
         13    1    3    3    0    0 -0.29134254496E+03 -0.12039380564E+03 -0.51916347994E+03  0.60737621442E+03  0.00000000000E+00 0.  1.
          1    1    3    3  501    0  0.30055384520E+03  0.11225211210E+03 -0.37566964359E+03  0.49402513262E+03  0.00000000000E+00 0.  1.
         21    1    1    2  502  501 -0.92113002473E+01  0.81416935388E+01  0.18185492466E+02  0.21951021893E+02  0.00000000000E+00 0.  1.
<mgrwt>
<rscale>  1 0.30000000E+03</rscale>
<asrwt>0</asrwt>
<pdfrwt beam="1">  1        1 0.44855501E+00 0.30000000E+03</pdfrwt>
<pdfrwt beam="2">0</pdfrwt>
<totfact> 0.52616914E-01</totfact>
</mgrwt>
</event>
<event>
 6    1  0.5260809E-006  0.3000000E+03  0.7818608E-02  0.1093470E+00
          1   -1    0    0  502    0  0.00000000000E+00  0.00000000000E+00  0.73879609524E+02  0.73879609524E+02  0.00000000000E+00 0.  1.
         13   -1    0    0    0    0 -0.00000000000E+00 -0.00000000000E+00 -0.10000000000E+04  0.10000000000E+04  0.00000000000E+00 0.  1.
    9000005    2    1    2  501    0 -0.55887031183E+01 -0.10694685026E+02 -0.92688324820E+03  0.10617886277E+04  0.51781939338E+03 0.  0.
         13    1    3    3    0    0 -0.77530817876E+01 -0.26613659090E+01  0.67186179775E+02  0.67684384451E+02  0.00000000000E+00 0.  1.
          3    1    3    3  501    0  0.21643786693E+01 -0.80333191166E+01 -0.99406942797E+03  0.99410424322E+03  0.00000000000E+00 0.  1.
         21    1    1    2  502  501  0.55887031183E+01  0.10694685026E+02  0.76285772233E+00  0.12090981856E+02  0.00000000000E+00 0. -1.
<mgrwt>
<rscale>  1 0.30000000E+03</rscale>
<asrwt>0</asrwt>
<pdfrwt beam="1">  1        1 0.26865369E+00 0.30000000E+03</pdfrwt>
<pdfrwt beam="2">0</pdfrwt>
<totfact> 0.48785939E+00</totfact>
</mgrwt>
</event>
<event>
 6    1  0.5260809E-006  0.3000000E+03  0.7818608E-02  0.1093470E+00
          1   -1    0    0  502    0  0.00000000000E+00  0.00000000000E+00  0.12430790277E+03  0.12430790277E+03  0.00000000000E+00 0.  1.
         13   -1    0    0    0    0 -0.00000000000E+00 -0.00000000000E+00 -0.10000000000E+04  0.10000000000E+04  0.00000000000E+00 0.  1.
    9000005    2    1    2  501    0 -0.33675478081E+01 -0.24448602974E+02 -0.88709886038E+03  0.10971198758E+04  0.64507252244E+03 0.  0.
         13    1    3    3    0    0 -0.31044094565E+03  0.61885004015E+02 -0.34564762396E+03  0.46869565221E+03  0.00000000000E+00 0.  1.
          1    1    3    3  501    0  0.30707339784E+03 -0.86333606989E+02 -0.54145123642E+03  0.62842422358E+03  0.00000000000E+00 0.  1.
         21    1    1    2  502  501  0.33675478081E+01  0.24448602974E+02  0.11406763150E+02  0.27188026982E+02  0.00000000000E+00 0.  1.
<mgrwt>
<rscale>  1 0.30000000E+03</rscale>
<asrwt>0</asrwt>
<pdfrwt beam="1">  1        1 0.45202969E+00 0.30000000E+03</pdfrwt>
<pdfrwt beam="2">0</pdfrwt>
<totfact> 0.49864401E-01</totfact>
</mgrwt>
</event>
<event>
 6    1  0.5260809E-006  0.3000000E+03  0.7818608E-02  0.1093470E+00
          1   -1    0    0  502    0  0.00000000000E+00  0.00000000000E+00  0.10942833580E+03  0.10942833580E+03  0.00000000000E+00 0.  1.
         13   -1    0    0    0    0 -0.00000000000E+00 -0.00000000000E+00 -0.10000000000E+04  0.10000000000E+04  0.00000000000E+00 0.  1.
    9000005    2    1    2  501    0 -0.95915500872E+01 -0.43059435924E+01 -0.88408042558E+03  0.10970721567E+04  0.64950641191E+03 0.  0.
         13    1    3    3    0    0 -0.10456148613E+03  0.28268641095E+03 -0.23896545681E+03  0.38464165254E+03  0.00000000000E+00 0.  1.
          3    1    3    3  501    0  0.94969936038E+02 -0.28699235455E+03 -0.64511496877E+03  0.71243050415E+03  0.00000000000E+00 0.  1.
         21    1    1    2  502  501  0.95915500872E+01  0.43059435924E+01 -0.64912386195E+01  0.12356179107E+02  0.00000000000E+00 0.  1.
<mgrwt>
<rscale>  1 0.30000000E+03</rscale>
<asrwt>0</asrwt>
<pdfrwt beam="1">  1        1 0.39792206E+00 0.30000000E+03</pdfrwt>
<pdfrwt beam="2">0</pdfrwt>
<totfact> 0.10822067E+00</totfact>
</mgrwt>
</event>
<event>
 6    1  0.5260809E-006  0.3000000E+03  0.7818608E-02  0.1093470E+00
          1   -1    0    0  502    0  0.00000000000E+00  0.00000000000E+00  0.12363668129E+03  0.12363668129E+03  0.00000000000E+00 0.  1.
         13   -1    0    0    0    0 -0.00000000000E+00 -0.00000000000E+00 -0.10000000000E+04  0.10000000000E+04  0.00000000000E+00 0.  1.
    9000005    2    1    2  501    0  0.25433702666E+01 -0.10070410973E+02 -0.88572834064E+03  0.11096514911E+04  0.66835907739E+03 0.  0.
         13    1    3    3    0    0  0.31552770359E+03 -0.67379411581E+02 -0.28788352640E+03  0.43240564475E+03  0.00000000000E+00 0.  1.
          3    1    3    3  501    0 -0.31298433332E+03  0.57309000608E+02 -0.59784481424E+03  0.67724584633E+03  0.00000000000E+00 0.  1.
         21    1    1    2  502  501 -0.25433702666E+01  0.10070410973E+02  0.93650219346E+01  0.13985190213E+02  0.00000000000E+00 0.  1.
<mgrwt>
<rscale>  1 0.30000000E+03</rscale>
<asrwt>0</asrwt>
<pdfrwt beam="1">  1        1 0.44958888E+00 0.30000000E+03</pdfrwt>
<pdfrwt beam="2">0</pdfrwt>
<totfact> 0.51783384E-01</totfact>
</mgrwt>
</event>
<event>
 6    1  0.5260809E-006  0.3000000E+03  0.7818608E-02  0.1093470E+00
          1   -1    0    0  502    0  0.00000000000E+00  0.00000000000E+00  0.11104555908E+03  0.11104555908E+03  0.00000000000E+00 0.  1.
         13   -1    0    0    0    0 -0.00000000000E+00 -0.00000000000E+00 -0.10000000000E+04  0.10000000000E+04  0.00000000000E+00 0.  1.
    9000005    2    1    2  501    0 -0.36393466378E+01 -0.15542723471E+02 -0.89509340486E+03  0.10939426946E+04  0.62869992400E+03 0.  0.
         13    1    3    3    0    0 -0.19738221719E+03  0.21613805238E+03 -0.61914061097E+03  0.68484340802E+03  0.00000000000E+00 0.  1.
          3    1    3    3  501    0  0.19374287055E+03 -0.23168077585E+03 -0.27595279389E+03  0.40909928654E+03  0.00000000000E+00 0.  1.
         21    1    1    2  502  501  0.36393466378E+01  0.15542723471E+02  0.61389639489E+01  0.17102864532E+02  0.00000000000E+00 0. -1.
<mgrwt>
<rscale>  1 0.30000000E+03</rscale>
<asrwt>0</asrwt>
<pdfrwt beam="1">  1        1 0.40380288E+00 0.30000000E+03</pdfrwt>
<pdfrwt beam="2">0</pdfrwt>
<totfact> 0.10015418E+00</totfact>
</mgrwt>
</event>
<event>
 6    1  0.5260809E-006  0.3000000E+03  0.7818608E-02  0.1093470E+00
          1   -1    0    0  502    0  0.00000000000E+00  0.00000000000E+00  0.11755394644E+03  0.11755394644E+03  0.00000000000E+00 0.  1.
         13   -1    0    0    0    0 -0.00000000000E+00 -0.00000000000E+00 -0.10000000000E+04  0.10000000000E+04  0.00000000000E+00 0.  1.
    9000005    2    1    2  501    0 -0.13365147794E+02  0.12219542808E+02 -0.89178713583E+03  0.10971774840E+04  0.63889450730E+03 0.  0.
         13    1    3    3    0    0  0.85408827128E+02 -0.26957074148E+03 -0.66370267661E+03  0.72143211417E+03  0.00000000000E+00 0.  1.
          1    1    3    3  501    0 -0.98773974922E+02  0.28179028429E+03 -0.22808445922E+03  0.37574536987E+03  0.00000000000E+00 0.  1.
         21    1    1    2  502  501  0.13365147794E+02 -0.12219542808E+02  0.93410822716E+01  0.20376462401E+02  0.00000000000E+00 0. -1.
<mgrwt>
<rscale>  1 0.30000000E+03</rscale>
<asrwt>0</asrwt>
<pdfrwt beam="1">  1        1 0.42746980E+00 0.30000000E+03</pdfrwt>
<pdfrwt beam="2">0</pdfrwt>
<totfact> 0.72060547E-01</totfact>
</mgrwt>
</event>
<event>
 6    1  0.5260809E-006  0.3000000E+03  0.7818608E-02  0.1093470E+00
          1   -1    0    0  502    0  0.00000000000E+00  0.00000000000E+00  0.13018243259E+03  0.13018243259E+03  0.00000000000E+00 0.  1.
         13   -1    0    0    0    0 -0.00000000000E+00 -0.00000000000E+00 -0.10000000000E+04  0.10000000000E+04  0.00000000000E+00 0.  1.
    9000005    2    1    2  501    0 -0.44562110600E+02  0.43387025858E+02 -0.81760234160E+03  0.10489750098E+04  0.65422226073E+03 0.  0.
         13    1    3    3    0    0 -0.14120160245E+03  0.22129987216E+03 -0.66137770074E+02  0.27071337348E+03  0.00000000000E+00 0.  1.
          1    1    3    3  501    0  0.96639491850E+02 -0.17791284630E+03 -0.75146457153E+03  0.77826163629E+03  0.00000000000E+00 0.  1.
         21    1    1    2  502  501  0.44562110600E+02 -0.43387025858E+02 -0.52215225806E+02  0.81207422813E+02  0.00000000000E+00 0.  1.
<mgrwt>
<rscale>  1 0.30000000E+03</rscale>
<asrwt>0</asrwt>
<pdfrwt beam="1">  1        1 0.47339166E+00 0.30000000E+03</pdfrwt>
<pdfrwt beam="2">0</pdfrwt>
<totfact> 0.35594221E-01</totfact>
</mgrwt>
</event>
<event>
 6    1  0.5260809E-006  0.3000000E+03  0.7818608E-02  0.1093470E+00
          1   -1    0    0  502    0  0.00000000000E+00  0.00000000000E+00  0.11672062913E+03  0.11672062913E+03  0.00000000000E+00 0.  1.
         13   -1    0    0    0    0 -0.00000000000E+00 -0.00000000000E+00 -0.10000000000E+04  0.10000000000E+04  0.00000000000E+00 0.  1.
    9000005    2    1    2  501    0 -0.17098165388E+02 -0.22039091189E+02 -0.87588444848E+03  0.10878631574E+04  0.64458871635E+03 0.  0.
         13    1    3    3    0    0 -0.12995138320E+03  0.25961356025E+03 -0.64256498349E+03  0.70510731145E+03  0.00000000000E+00 0.  1.
          3    1    3    3  501    0  0.11285321781E+03 -0.28165265144E+03 -0.23331946499E+03  0.38275584591E+03  0.00000000000E+00 0.  1.
         21    1    1    2  502  501  0.17098165388E+02  0.22039091189E+02 -0.73949223856E+01  0.28857471773E+02  0.00000000000E+00 0.  1.
<mgrwt>
<rscale>  1 0.30000000E+03</rscale>
<asrwt>0</asrwt>
<pdfrwt beam="1">  1        1 0.42443955E+00 0.30000000E+03</pdfrwt>
<pdfrwt beam="2">0</pdfrwt>
<totfact> 0.75278978E-01</totfact>
</mgrwt>
</event>
<event>
 6    1  0.5260809E-006  0.3000000E+03  0.7818608E-02  0.1093470E+00
          1   -1    0    0  502    0  0.00000000000E+00  0.00000000000E+00  0.10852036429E+03  0.10852036429E+03  0.00000000000E+00 0.  1.
         13   -1    0    0    0    0 -0.00000000000E+00 -0.00000000000E+00 -0.10000000000E+04  0.10000000000E+04  0.00000000000E+00 0.  1.
    9000005    2    1    2  501    0 -0.70488979831E+01 -0.70649713689E+01 -0.88285229569E+03  0.10953282538E+04  0.64824085555E+03 0.  0.
         13    1    3    3    0    0  0.75987493524E+02 -0.28541469587E+03 -0.67901727049E+03  0.74047289040E+03  0.00000000000E+00 0.  1.
          3    1    3    3  501    0 -0.83036391507E+02  0.27834972450E+03 -0.20383502520E+03  0.35485536341E+03  0.00000000000E+00 0.  1.
         21    1    1    2  502  501  0.70488979831E+01  0.70649713689E+01 -0.86273400197E+01  0.13192110484E+02  0.00000000000E+00 0. -1.
<mgrwt>
<rscale>  1 0.30000000E+03</rscale>
<asrwt>0</asrwt>
<pdfrwt beam="1">  1        1 0.39462034E+00 0.30000000E+03</pdfrwt>
<pdfrwt beam="2">0</pdfrwt>
<totfact> 0.11296826E+00</totfact>
</mgrwt>
</event>
<event>
 6    1  0.5260809E-006  0.3000000E+03  0.7818608E-02  0.1093470E+00
          1   -1    0    0  502    0  0.00000000000E+00  0.00000000000E+00  0.10637058201E+03  0.10637058201E+03  0.00000000000E+00 0.  1.
         13   -1    0    0    0    0 -0.00000000000E+00 -0.00000000000E+00 -0.10000000000E+04  0.10000000000E+04  0.00000000000E+00 0.  1.
    9000005    2    1    2  501    0  0.55161900299E+01 -0.12479324120E+02 -0.90681131101E+03  0.10873989140E+04  0.59995290027E+03 0.  0.
         13    1    3    3    0    0  0.30018644921E+03  0.32604535205E+02 -0.46380565423E+03  0.55343531230E+03  0.00000000000E+00 0.  1.
          1    1    3    3  501    0 -0.29467025918E+03 -0.45083859326E+02 -0.44300565678E+03  0.53396360171E+03  0.00000000000E+00 0.  1.
         21    1    1    2  502  501 -0.55161900299E+01  0.12479324120E+02  0.13181893022E+02  0.18971667997E+02  0.00000000000E+00 0. -1.
<mgrwt>
<rscale>  1 0.30000000E+03</rscale>
<asrwt>0</asrwt>
<pdfrwt beam="1">  1        1 0.38680293E+00 0.30000000E+03</pdfrwt>
<pdfrwt beam="2">0</pdfrwt>
<totfact> 0.12494702E+00</totfact>
</mgrwt>
</event>
<event>
 6    1  0.5260809E-006  0.3000000E+03  0.7818608E-02  0.1093470E+00
          1   -1    0    0  502    0  0.00000000000E+00  0.00000000000E+00  0.11345452970E+03  0.11345452970E+03  0.00000000000E+00 0.  1.
         13   -1    0    0    0    0 -0.00000000000E+00 -0.00000000000E+00 -0.10000000000E+04  0.10000000000E+04  0.00000000000E+00 0.  1.
    9000005    2    1    2  501    0  0.13579900125E+02 -0.17258526187E+02 -0.85929443382E+03  0.10784561097E+04  0.65130514057E+03 0.  0.
         13    1    3    3    0    0  0.24342376575E+03  0.20399326096E+03 -0.54392935794E+03  0.62986310154E+03  0.00000000000E+00 0.  1.
          1    1    3    3  501    0 -0.22984386562E+03 -0.22125178715E+03 -0.31536507587E+03  0.44859300815E+03  0.00000000000E+00 0.  1.
         21    1    1    2  502  501 -0.13579900125E+02  0.17258526187E+02 -0.27251036486E+02  0.34998420009E+02  0.00000000000E+00 0.  1.
<mgrwt>
<rscale>  1 0.30000000E+03</rscale>
<asrwt>0</asrwt>
<pdfrwt beam="1">  1        1 0.41256280E+00 0.30000000E+03</pdfrwt>
<pdfrwt beam="2">0</pdfrwt>
<totfact> 0.88961818E-01</totfact>
</mgrwt>
</event>
<event>
 6    1  0.5260809E-006  0.3000000E+03  0.7818608E-02  0.1093470E+00
          1   -1    0    0  502    0  0.00000000000E+00  0.00000000000E+00  0.11650186088E+03  0.11650186088E+03  0.00000000000E+00 0.  1.
         13   -1    0    0    0    0 -0.00000000000E+00 -0.00000000000E+00 -0.10000000000E+04  0.10000000000E+04  0.00000000000E+00 0.  1.
    9000005    2    1    2  501    0  0.28470345733E+01  0.15620147906E+02 -0.88049393641E+03  0.11003426573E+04  0.65972137814E+03 0.  0.
         13    1    3    3    0    0  0.88691120905E+02  0.26425608758E+03 -0.13482005267E+03  0.30963501312E+03  0.00000000000E+00 0.  1.
          1    1    3    3  501    0 -0.85844086331E+02 -0.24863593967E+03 -0.74567388375E+03  0.79070764417E+03  0.00000000000E+00 0.  1.
         21    1    1    2  502  501 -0.28470345733E+01 -0.15620147906E+02 -0.30042027104E+01  0.16159203581E+02  0.00000000000E+00 0.  1.
<mgrwt>
<rscale>  1 0.30000000E+03</rscale>
<asrwt>0</asrwt>
<pdfrwt beam="1">  1        1 0.42364402E+00 0.30000000E+03</pdfrwt>
<pdfrwt beam="2">0</pdfrwt>
<totfact> 0.76143492E-01</totfact>
</mgrwt>
</event>
<event>
 6    1  0.5260809E-006  0.3000000E+03  0.7818608E-02  0.1093470E+00
          1   -1    0    0  502    0  0.00000000000E+00  0.00000000000E+00  0.79601618372E+02  0.79601618372E+02  0.00000000000E+00 0.  1.
         13   -1    0    0    0    0 -0.00000000000E+00 -0.00000000000E+00 -0.10000000000E+04  0.10000000000E+04  0.00000000000E+00 0.  1.
    9000005    2    1    2  501    0 -0.13709129539E+01 -0.88427029120E+01 -0.90696299358E+03  0.10634590520E+04  0.55523257357E+03 0.  0.
         13    1    3    3    0    0 -0.14774254115E+03 -0.41789082018E+02 -0.98150813595E+01  0.15385227221E+03  0.00000000000E+00 0.  1.
          1    1    3    3  501    0  0.14637162820E+03  0.32946379106E+02 -0.89714791222E+03  0.90960677979E+03  0.00000000000E+00 0.  1.
         21    1    1    2  502  501  0.13709129539E+01  0.88427029120E+01 -0.13435388050E+02  0.16142566375E+02  0.00000000000E+00 0. -1.
<mgrwt>
<rscale>  1 0.30000000E+03</rscale>
<asrwt>0</asrwt>
<pdfrwt beam="1">  1        1 0.28946104E+00 0.30000000E+03</pdfrwt>
<pdfrwt beam="2">0</pdfrwt>
<totfact> 0.38973907E+00</totfact>
</mgrwt>
</event>
<event>
 6    1  0.5260809E-006  0.3000000E+03  0.7818608E-02  0.1093470E+00
          1   -1    0    0  502    0  0.00000000000E+00  0.00000000000E+00  0.98801682135E+02  0.98801682135E+02  0.00000000000E+00 0.  1.
         13   -1    0    0    0    0 -0.00000000000E+00 -0.00000000000E+00 -0.10000000000E+04  0.10000000000E+04  0.00000000000E+00 0.  1.
    9000005    2    1    2  501    0  0.71671507336E+02 -0.34091408317E+02 -0.78038971518E+03  0.95425498529E+03  0.54341093135E+03 0.  0.
         13    1    3    3    0    0  0.14587224490E+03  0.23132165823E+03 -0.37907991159E+03  0.46742913984E+03  0.00000000000E+00 0.  1.
          1    1    3    3  501    0 -0.74200737561E+02 -0.26541306655E+03 -0.40130980359E+03  0.48682584545E+03  0.00000000000E+00 0.  1.
         21    1    1    2  502  501 -0.71671507336E+02  0.34091408317E+02 -0.12080860269E+03  0.14454669684E+03  0.00000000000E+00 0. -1.
<mgrwt>
<rscale>  1 0.30000000E+03</rscale>
<asrwt>0</asrwt>
<pdfrwt beam="1">  1        1 0.35927960E+00 0.30000000E+03</pdfrwt>
<pdfrwt beam="2">0</pdfrwt>
<totfact> 0.17617129E+00</totfact>
</mgrwt>
</event>
<event>
 6    1  0.5260809E-006  0.3000000E+03  0.7818608E-02  0.1093470E+00
          1   -1    0    0  502    0  0.00000000000E+00  0.00000000000E+00  0.13417115083E+03  0.13417115083E+03  0.00000000000E+00 0.  1.
         13   -1    0    0    0    0 -0.00000000000E+00 -0.00000000000E+00 -0.10000000000E+04  0.10000000000E+04  0.00000000000E+00 0.  1.
    9000005    2    1    2  501    0  0.81456292013E+01  0.50616199294E+02 -0.86331984617E+03  0.10828423480E+04  0.65161188055E+03 0.  0.
         13    1    3    3    0    0 -0.74764500993E+02  0.19983615685E+03 -0.88537123279E+03  0.91071754130E+03  0.00000000000E+00 0.  1.
          3    1    3    3  501    0  0.82910130194E+02 -0.14921995755E+03  0.22051386614E+02  0.17212480668E+03  0.00000000000E+00 0.  1.
         21    1    1    2  502  501 -0.81456292013E+01 -0.50616199294E+02 -0.25090029995E+01  0.51328802851E+02  0.00000000000E+00 0.  1.
<mgrwt>
<rscale>  1 0.30000000E+03</rscale>
<asrwt>0</asrwt>
<pdfrwt beam="1">  1        1 0.48789612E+00 0.30000000E+03</pdfrwt>
<pdfrwt beam="2">0</pdfrwt>
<totfact> 0.28005604E-01</totfact>
</mgrwt>
</event>
<event>
 6    1  0.5260809E-006  0.3000000E+03  0.7818608E-02  0.1093470E+00
          1   -1    0    0  502    0  0.00000000000E+00  0.00000000000E+00  0.12892803891E+03  0.12892803891E+03  0.00000000000E+00 0.  1.
         13   -1    0    0    0    0 -0.00000000000E+00 -0.00000000000E+00 -0.10000000000E+04  0.10000000000E+04  0.00000000000E+00 0.  1.
    9000005    2    1    2  501    0 -0.61782639557E+01  0.10319463023E+02 -0.88452827161E+03  0.11108799211E+04  0.67195183878E+03 0.  0.
         13    1    3    3    0    0 -0.25386421272E+03  0.41885150967E+02 -0.81063158674E+03  0.85048514026E+03  0.00000000000E+00 0.  1.
          1    1    3    3  501    0  0.24768594877E+03 -0.31565687944E+02 -0.73896684864E+02  0.26039478087E+03  0.00000000000E+00 0.  1.
         21    1    1    2  502  501  0.61782639557E+01 -0.10319463023E+02  0.13456310512E+02  0.18048117774E+02  0.00000000000E+00 0. -1.
<mgrwt>
<rscale>  1 0.30000000E+03</rscale>
<asrwt>0</asrwt>
<pdfrwt beam="1">  1        1 0.46883022E+00 0.30000000E+03</pdfrwt>
<pdfrwt beam="2">0</pdfrwt>
<totfact> 0.38319908E-01</totfact>
</mgrwt>
</event>
<event>
 6    1  0.5260809E-006  0.3000000E+03  0.7818608E-02  0.1093470E+00
          1   -1    0    0  502    0  0.00000000000E+00  0.00000000000E+00  0.10584197323E+03  0.10584197323E+03  0.00000000000E+00 0.  1.
         13   -1    0    0    0    0 -0.00000000000E+00 -0.00000000000E+00 -0.10000000000E+04  0.10000000000E+04  0.00000000000E+00 0.  1.
    9000005    2    1    2  501    0 -0.10634103906E+02  0.12316636077E+02 -0.89623408161E+03  0.10894378977E+04  0.61917252863E+03 0.  0.
         13    1    3    3    0    0  0.24011638491E+03  0.18422027404E+03 -0.55699314641E+03  0.63390405647E+03  0.00000000000E+00 0.  1.
          3    1    3    3  501    0 -0.25075048881E+03 -0.17190363796E+03 -0.33924093520E+03  0.45553384123E+03  0.00000000000E+00 0.  1.
         21    1    1    2  502  501  0.10634103906E+02 -0.12316636077E+02  0.20760548390E+01  0.16404075525E+02  0.00000000000E+00 0. -1.
<mgrwt>
<rscale>  1 0.30000000E+03</rscale>
<asrwt>0</asrwt>
<pdfrwt beam="1">  1        1 0.38488071E+00 0.30000000E+03</pdfrwt>
<pdfrwt beam="2">0</pdfrwt>
<totfact> 0.12805506E+00</totfact>
</mgrwt>
</event>
<event>
 6    1  0.5260809E-006  0.3000000E+03  0.7818608E-02  0.1093470E+00
          1   -1    0    0  502    0  0.00000000000E+00  0.00000000000E+00  0.10931732341E+03  0.10931732341E+03  0.00000000000E+00 0.  1.
         13   -1    0    0    0    0 -0.00000000000E+00 -0.00000000000E+00 -0.10000000000E+04  0.10000000000E+04  0.00000000000E+00 0.  1.
    9000005    2    1    2  501    0  0.15089102227E+02  0.71130960351E+01 -0.89473264801E+03  0.10921510947E+04  0.62607445643E+03 0.  0.
         13    1    3    3    0    0  0.14015637239E+03 -0.25837793452E+03 -0.63708268492E+03  0.70162476666E+03  0.00000000000E+00 0.  1.
          3    1    3    3  501    0 -0.12506727016E+03  0.26549103056E+03 -0.25764996309E+03  0.39052632799E+03  0.00000000000E+00 0.  1.
         21    1    1    2  502  501 -0.15089102227E+02 -0.71130960351E+01  0.40499714207E+01  0.17166228757E+02  0.00000000000E+00 0. -1.
<mgrwt>
<rscale>  1 0.30000000E+03</rscale>
<asrwt>0</asrwt>
<pdfrwt beam="1">  1        1 0.39751838E+00 0.30000000E+03</pdfrwt>
<pdfrwt beam="2">0</pdfrwt>
<totfact> 0.10879203E+00</totfact>
</mgrwt>
</event>
<event>
 6    1  0.5260809E-006  0.3000000E+03  0.7818608E-02  0.1093470E+00
          1   -1    0    0  502    0  0.00000000000E+00  0.00000000000E+00  0.11273397358E+03  0.11273397358E+03  0.00000000000E+00 0.  1.
         13   -1    0    0    0    0 -0.00000000000E+00 -0.00000000000E+00 -0.10000000000E+04  0.10000000000E+04  0.00000000000E+00 0.  1.
    9000005    2    1    2  501    0  0.14064451826E+01  0.11035074348E+02 -0.88922778252E+03  0.11014379813E+04  0.64985831268E+03 0.  0.
         13    1    3    3    0    0  0.28987298829E+03  0.12369725403E+03 -0.29663911856E+03  0.43280726271E+03  0.00000000000E+00 0.  1.
          3    1    3    3  501    0 -0.28846654311E+03 -0.11266217968E+03 -0.59258866396E+03  0.66863071862E+03  0.00000000000E+00 0.  1.
         21    1    1    2  502  501 -0.14064451826E+01 -0.11035074348E+02  0.19617560951E+01  0.11295992249E+02  0.00000000000E+00 0.  1.
<mgrwt>
<rscale>  1 0.30000000E+03</rscale>
<asrwt>0</asrwt>
<pdfrwt beam="1">  1        1 0.40994259E+00 0.30000000E+03</pdfrwt>
<pdfrwt beam="2">0</pdfrwt>
<totfact> 0.92207124E-01</totfact>
</mgrwt>
</event>
<event>
 6    1  0.5260809E-006  0.3000000E+03  0.7818608E-02  0.1093470E+00
          1   -1    0    0  502    0  0.00000000000E+00  0.00000000000E+00  0.13424779142E+03  0.13424779142E+03  0.00000000000E+00 0.  1.
         13   -1    0    0    0    0 -0.00000000000E+00 -0.00000000000E+00 -0.10000000000E+04  0.10000000000E+04  0.00000000000E+00 0.  1.
    9000005    2    1    2  501    0 -0.25225554896E+02  0.33195634904E+02 -0.87104797190E+03  0.10922201350E+04  0.65763361768E+03 0.  0.
         13    1    3    3    0    0  0.26855467019E+03 -0.12261876404E+03 -0.24627412391E+03  0.38445795125E+03  0.00000000000E+00 0.  1.
          3    1    3    3  501    0 -0.29378022509E+03  0.15581439894E+03 -0.62477384800E+03  0.70776218373E+03  0.00000000000E+00 0.  1.
         21    1    1    2  502  501  0.25225554896E+02 -0.33195634904E+02  0.52957633240E+01  0.42027656438E+02  0.00000000000E+00 0. -1.
<mgrwt>
<rscale>  1 0.30000000E+03</rscale>
<asrwt>0</asrwt>
<pdfrwt beam="1">  1        1 0.48817482E+00 0.30000000E+03</pdfrwt>
<pdfrwt beam="2">0</pdfrwt>
<totfact> 0.27875135E-01</totfact>
</mgrwt>
</event>
<event>
 6    1  0.5260809E-006  0.3000000E+03  0.7818608E-02  0.1093470E+00
          1   -1    0    0  502    0  0.00000000000E+00  0.00000000000E+00  0.16278856020E+03  0.16278856020E+03  0.00000000000E+00 0.  1.
         13   -1    0    0    0    0 -0.00000000000E+00 -0.00000000000E+00 -0.10000000000E+04  0.10000000000E+04  0.00000000000E+00 0.  1.
    9000005    2    1    2  501    0  0.59463198264E+01 -0.15271081022E+02 -0.89737703177E+03  0.11004310178E+04  0.63670583725E+03 0.  0.
         13    1    3    3    0    0  0.86675670820E+00 -0.73821594983E+02 -0.98890616830E+03  0.99165810078E+03  0.00000000000E+00 0.  1.
          1    1    3    3  501    0  0.50795631182E+01  0.58550513961E+02  0.91529136526E+02  0.10877291703E+03  0.00000000000E+00 0.  1.
         21    1    1    2  502  501 -0.59463198264E+01  0.15271081022E+02  0.60165591974E+02  0.62357542388E+02  0.00000000000E+00 0.  1.
<mgrwt>
<rscale>  1 0.30000000E+03</rscale>
<asrwt>0</asrwt>
<pdfrwt beam="1">  1        1 0.59195965E+00 0.30000000E+03</pdfrwt>
<pdfrwt beam="2">0</pdfrwt>
<totfact> 0.64038984E-02</totfact>
</mgrwt>
</event>
<event>
 6    1  0.5260809E-006  0.3000000E+03  0.7818608E-02  0.1093470E+00
          1   -1    0    0  502    0  0.00000000000E+00  0.00000000000E+00  0.11083524305E+03  0.11083524305E+03  0.00000000000E+00 0.  1.
         13   -1    0    0    0    0 -0.00000000000E+00 -0.00000000000E+00 -0.10000000000E+04  0.10000000000E+04  0.00000000000E+00 0.  1.
    9000005    2    1    2  501    0  0.88049841893E+01  0.95701995207E+01 -0.88712942642E+03  0.10976724532E+04  0.64631035804E+03 0.  0.
         13    1    3    3    0    0 -0.29344226059E+03  0.64359620254E+02 -0.62659700594E+03  0.69489159505E+03  0.00000000000E+00 0.  1.
          1    1    3    3  501    0  0.30224724478E+03 -0.54789420734E+02 -0.26053242047E+03  0.40278085818E+03  0.00000000000E+00 0.  1.
         21    1    1    2  502  501 -0.88049841893E+01 -0.95701995207E+01 -0.20353305285E+01  0.13162789818E+02  0.00000000000E+00 0.  1.
<mgrwt>
<rscale>  1 0.30000000E+03</rscale>
<asrwt>0</asrwt>
<pdfrwt beam="1">  1        1 0.40303810E+00 0.30000000E+03</pdfrwt>
<pdfrwt beam="2">0</pdfrwt>
<totfact> 0.10117781E+00</totfact>
</mgrwt>
</event>
<event>
 6    1  0.5260809E-006  0.3000000E+03  0.7818608E-02  0.1093470E+00
          1   -1    0    0  502    0  0.00000000000E+00  0.00000000000E+00  0.12857642277E+03  0.12857642277E+03  0.00000000000E+00 0.  1.
         13   -1    0    0    0    0 -0.00000000000E+00 -0.00000000000E+00 -0.10000000000E+04  0.10000000000E+04  0.00000000000E+00 0.  1.
    9000005    2    1    2  501    0 -0.41306563434E+01  0.96104922980E+01 -0.89385593746E+03  0.11038249648E+04  0.64756597516E+03 0.  0.
         13    1    3    3    0    0 -0.90875483963E+02 -0.82027546437E+02  0.63692290234E+02  0.13799847751E+03  0.00000000000E+00 0.  1.
          3    1    3    3  501    0  0.86744827620E+02  0.91638038735E+02 -0.95754822770E+03  0.96582648733E+03  0.00000000000E+00 0.  1.
         21    1    1    2  502  501  0.41306563434E+01 -0.96104922980E+01  0.22432360229E+02  0.24751457926E+02  0.00000000000E+00 0. -1.
<mgrwt>
<rscale>  1 0.30000000E+03</rscale>
<asrwt>0</asrwt>
<pdfrwt beam="1">  1        1 0.46755161E+00 0.30000000E+03</pdfrwt>
<pdfrwt beam="2">0</pdfrwt>
<totfact> 0.39114042E-01</totfact>
</mgrwt>
</event>
<event>
 6    1  0.5260809E-006  0.3000000E+03  0.7818608E-02  0.1093470E+00
          1   -1    0    0  502    0  0.00000000000E+00  0.00000000000E+00  0.12095537988E+03  0.12095537988E+03  0.00000000000E+00 0.  1.
         13   -1    0    0    0    0 -0.00000000000E+00 -0.00000000000E+00 -0.10000000000E+04  0.10000000000E+04  0.00000000000E+00 0.  1.
    9000005    2    1    2  501    0 -0.15847315716E+02  0.29886937630E+01 -0.88132187564E+03  0.11046687105E+04  0.66581126593E+03 0.  0.
         13    1    3    3    0    0 -0.25083220196E+03  0.34396624611E+02 -0.82224947880E+03  0.86034535317E+03  0.00000000000E+00 0.  1.
          3    1    3    3  501    0  0.23498488625E+03 -0.31407930848E+02 -0.59072396833E+02  0.24432335736E+03  0.00000000000E+00 0.  1.
         21    1    1    2  502  501  0.15847315716E+02 -0.29886937630E+01  0.22772555164E+01  0.16286669349E+02  0.00000000000E+00 0.  1.
<mgrwt>
<rscale>  1 0.30000000E+03</rscale>
<asrwt>0</asrwt>
<pdfrwt beam="1">  1        1 0.43983867E+00 0.30000000E+03</pdfrwt>
<pdfrwt beam="2">0</pdfrwt>
<totfact> 0.60089358E-01</totfact>
</mgrwt>
</event>
<event>
 6    1  0.5260809E-006  0.3000000E+03  0.7818608E-02  0.1093470E+00
          1   -1    0    0  502    0  0.00000000000E+00  0.00000000000E+00  0.10884528941E+03  0.10884528941E+03  0.00000000000E+00 0.  1.
         13   -1    0    0    0    0 -0.00000000000E+00 -0.00000000000E+00 -0.10000000000E+04  0.10000000000E+04  0.00000000000E+00 0.  1.
    9000005    2    1    2  501    0  0.99513113424E+01  0.16600542102E+01 -0.88838345497E+03  0.10983827737E+04  0.64584655307E+03 0.  0.
         13    1    3    3    0    0  0.38223868070E+02  0.31613962120E+03 -0.34180026369E+03  0.46715387662E+03  0.00000000000E+00 0.  1.
          1    1    3    3  501    0 -0.28272556728E+02 -0.31447956699E+03 -0.54658319128E+03  0.63122889708E+03  0.00000000000E+00 0.  1.
         21    1    1    2  502  501 -0.99513113424E+01 -0.16600542102E+01 -0.27712556158E+01  0.10462515716E+02  0.00000000000E+00 0.  1.
<mgrwt>
<rscale>  1 0.30000000E+03</rscale>
<asrwt>0</asrwt>
<pdfrwt beam="1">  1        1 0.39580189E+00 0.30000000E+03</pdfrwt>
<pdfrwt beam="2">0</pdfrwt>
<totfact> 0.11124943E+00</totfact>
</mgrwt>
</event>
<event>
 6    1  0.5260809E-006  0.3000000E+03  0.7818608E-02  0.1093470E+00
          1   -1    0    0  502    0  0.00000000000E+00  0.00000000000E+00  0.11716172379E+03  0.11716172379E+03  0.00000000000E+00 0.  1.
         13   -1    0    0    0    0 -0.00000000000E+00 -0.00000000000E+00 -0.10000000000E+04  0.10000000000E+04  0.00000000000E+00 0.  1.
    9000005    2    1    2  501    0 -0.24147134207E+02  0.16890313991E+01 -0.87875271489E+03  0.10926132263E+04  0.64885390610E+03 0.  0.
         13    1    3    3    0    0 -0.12467627899E+03 -0.26309816113E+03 -0.18935830564E+03  0.34730589521E+03  0.00000000000E+00 0.  1.
          3    1    3    3  501    0  0.10052914478E+03  0.26478719253E+03 -0.68939440925E+03  0.74530733109E+03  0.00000000000E+00 0.  1.
         21    1    1    2  502  501  0.24147134207E+02 -0.16890313991E+01 -0.40855613248E+01  0.24548497485E+02  0.00000000000E+00 0.  1.
<mgrwt>
<rscale>  1 0.30000000E+03</rscale>
<asrwt>0</asrwt>
<pdfrwt beam="1">  1        1 0.42604353E+00 0.30000000E+03</pdfrwt>
<pdfrwt beam="2">0</pdfrwt>
<totfact> 0.73560444E-01</totfact>
</mgrwt>
</event>
<event>
 6    1  0.5260809E-006  0.3000000E+03  0.7818608E-02  0.1093470E+00
          1   -1    0    0  502    0  0.00000000000E+00  0.00000000000E+00  0.12846932795E+03  0.12846932795E+03  0.00000000000E+00 0.  1.
         13   -1    0    0    0    0 -0.00000000000E+00 -0.00000000000E+00 -0.10000000000E+04  0.10000000000E+04  0.00000000000E+00 0.  1.
    9000005    2    1    2  501    0  0.20653283998E+02  0.39059466607E+02 -0.86535905951E+03  0.10838566742E+04  0.65111196296E+03 0.  0.
         13    1    3    3    0    0  0.32468593102E+03 -0.61012466738E+02 -0.48355125253E+03  0.58563238360E+03  0.00000000000E+00 0.  1.
          1    1    3    3  501    0 -0.30403264702E+03  0.10007193334E+03 -0.38180780698E+03  0.49822429062E+03  0.00000000000E+00 0.  1.
         21    1    1    2  502  501 -0.20653283998E+02 -0.39059466607E+02 -0.61716125334E+01  0.44612653730E+02  0.00000000000E+00 0.  1.
<mgrwt>
<rscale>  1 0.30000000E+03</rscale>
<asrwt>0</asrwt>
<pdfrwt beam="1">  1        1 0.46716218E+00 0.30000000E+03</pdfrwt>
<pdfrwt beam="2">0</pdfrwt>
<totfact> 0.39358543E-01</totfact>
</mgrwt>
</event>
<event>
 6    1  0.5260809E-006  0.3000000E+03  0.7818608E-02  0.1093470E+00
          1   -1    0    0  502    0  0.00000000000E+00  0.00000000000E+00  0.10678163613E+03  0.10678163613E+03  0.00000000000E+00 0.  1.
         13   -1    0    0    0    0 -0.00000000000E+00 -0.00000000000E+00 -0.10000000000E+04  0.10000000000E+04  0.00000000000E+00 0.  1.
    9000005    2    1    2  501    0 -0.12144620162E+02  0.58973576757E+00 -0.86635753011E+03  0.10772969964E+04  0.64019185326E+03 0.  0.
         13    1    3    3    0    0 -0.23191913316E+03  0.58368453224E+01 -0.57382598870E+02  0.23898392360E+03  0.00000000000E+00 0.  1.
          1    1    3    3  501    0  0.21977451299E+03 -0.52471095548E+01 -0.80897493124E+03  0.83831307284E+03  0.00000000000E+00 0.  1.
         21    1    1    2  502  501  0.12144620162E+02 -0.58973576757E+00 -0.26860833759E+02  0.29484639685E+02  0.00000000000E+00 0. -1.
<mgrwt>
<rscale>  1 0.30000000E+03</rscale>
<asrwt>0</asrwt>
<pdfrwt beam="1">  1        1 0.38829768E+00 0.30000000E+03</pdfrwt>
<pdfrwt beam="2">0</pdfrwt>
<totfact> 0.12257460E+00</totfact>
</mgrwt>
</event>
<event>
 6    1  0.5260809E-006  0.3000000E+03  0.7818608E-02  0.1093470E+00
          1   -1    0    0  502    0  0.00000000000E+00  0.00000000000E+00  0.23146247663E+03  0.23146247663E+03  0.00000000000E+00 0.  1.
         13   -1    0    0    0    0 -0.00000000000E+00 -0.00000000000E+00 -0.10000000000E+04  0.10000000000E+04  0.00000000000E+00 0.  1.
    9000005    2    1    2  501    0 -0.23113095610E+02 -0.71957212170E+02 -0.81242021703E+03  0.11440682756E+04  0.80196854965E+03 0.  0.
         13    1    3    3    0    0  0.26258131450E+03 -0.12862221399E+03 -0.80087434196E+03  0.85257980991E+03  0.00000000000E+00 0.  1.
          3    1    3    3  501    0 -0.28569441011E+03  0.56665001822E+02 -0.11545875068E+02  0.29148846569E+03  0.00000000000E+00 0.  1.
         21    1    1    2  502  501  0.23113095610E+02  0.71957212170E+02  0.43882693660E+02  0.87394201037E+02  0.00000000000E+00 0. -1.
<mgrwt>
<rscale>  1 0.30000000E+03</rscale>
<asrwt>0</asrwt>
<pdfrwt beam="1">  1        1 0.84168351E+00 0.30000000E+03</pdfrwt>
<pdfrwt beam="2">0</pdfrwt>
<totfact> 0.31447302E-03</totfact>
</mgrwt>
</event>
<event>
 6    1  0.5260809E-006  0.3000000E+03  0.7818608E-02  0.1093470E+00
          1   -1    0    0  502    0  0.00000000000E+00  0.00000000000E+00  0.11011239857E+03  0.11011239857E+03  0.00000000000E+00 0.  1.
         13   -1    0    0    0    0 -0.00000000000E+00 -0.00000000000E+00 -0.10000000000E+04  0.10000000000E+04  0.00000000000E+00 0.  1.
    9000005    2    1    2  501    0  0.14574854649E+02  0.47164718377E+01 -0.87728348058E+03  0.10902746730E+04  0.64717685815E+03 0.  0.
         13    1    3    3    0    0 -0.11540961519E+03  0.29905085454E+03 -0.36985714825E+03  0.48943345103E+03  0.00000000000E+00 0.  1.
          1    1    3    3  501    0  0.12998446984E+03 -0.29433438270E+03 -0.50742633233E+03  0.60084122194E+03  0.00000000000E+00 0.  1.
         21    1    1    2  502  501 -0.14574854649E+02 -0.47164718377E+01 -0.12604120849E+02  0.19837725600E+02  0.00000000000E+00 0. -1.
<mgrwt>
<rscale>  1 0.30000000E+03</rscale>
<asrwt>0</asrwt>
<pdfrwt beam="1">  1        1 0.40040957E+00 0.30000000E+03</pdfrwt>
<pdfrwt beam="2">0</pdfrwt>
<totfact> 0.10475201E+00</totfact>
</mgrwt>
</event>
<event>
 6    1  0.5260809E-006  0.3000000E+03  0.7818608E-02  0.1093470E+00
          1   -1    0    0  502    0  0.00000000000E+00  0.00000000000E+00  0.67502486746E+02  0.67502486746E+02  0.00000000000E+00 0.  1.
         13   -1    0    0    0    0 -0.00000000000E+00 -0.00000000000E+00 -0.10000000000E+04  0.10000000000E+04  0.00000000000E+00 0.  1.
    9000005    2    1    2  501    0  0.40010464192E+02  0.24540750173E+02 -0.86536296694E+03  0.98558708543E+03  0.46938870113E+03 0.  0.
         13    1    3    3    0    0 -0.28663168890E+02 -0.11035186305E+03 -0.81954438035E+03  0.82743706848E+03  0.00000000000E+00 0.  1.
          1    1    3    3  501    0  0.68673633083E+02  0.13489261323E+03 -0.45818586587E+02  0.15815001695E+03  0.00000000000E+00 0.  1.
         21    1    1    2  502  501 -0.40010464192E+02 -0.24540750173E+02 -0.67134546312E+02  0.81915401314E+02  0.00000000000E+00 0.  1.
<mgrwt>
<rscale>  1 0.30000000E+03</rscale>
<asrwt>0</asrwt>
<pdfrwt beam="1">  1        1 0.24546411E+00 0.30000000E+03</pdfrwt>
<pdfrwt beam="2">0</pdfrwt>
<totfact> 0.62637758E+00</totfact>
</mgrwt>
</event>
<event>
 6    1  0.5260809E-006  0.3000000E+03  0.7818608E-02  0.1093470E+00
          1   -1    0    0  502    0  0.00000000000E+00  0.00000000000E+00  0.86626680247E+02  0.86626680247E+02  0.00000000000E+00 0.  1.
         13   -1    0    0    0    0 -0.00000000000E+00 -0.00000000000E+00 -0.10000000000E+04  0.10000000000E+04  0.00000000000E+00 0.  1.
    9000005    2    1    2  501    0 -0.81177726708E+01 -0.58040239204E+01 -0.90767726754E+03  0.10751362522E+04  0.57614265054E+03 0.  0.
         13    1    3    3    0    0 -0.10323751441E+03 -0.18797975355E+03 -0.82699828585E+03  0.85435387102E+03  0.00000000000E+00 0.  1.
          3    1    3    3  501    0  0.95119741735E+02  0.18217572963E+03 -0.80678981680E+02  0.22078238113E+03  0.00000000000E+00 0.  1.
         21    1    1    2  502  501  0.81177726708E+01  0.58040239204E+01 -0.56960522182E+01  0.11490428089E+02  0.00000000000E+00 0. -1.
<mgrwt>
<rscale>  1 0.30000000E+03</rscale>
<asrwt>0</asrwt>
<pdfrwt beam="1">  1        1 0.31500677E+00 0.30000000E+03</pdfrwt>
<pdfrwt beam="2">0</pdfrwt>
<totfact> 0.29445152E+00</totfact>
</mgrwt>
</event>
<event>
 6    1  0.5260809E-006  0.3000000E+03  0.7818608E-02  0.1093470E+00
          1   -1    0    0  502    0  0.00000000000E+00  0.00000000000E+00  0.12115419705E+03  0.12115419705E+03  0.00000000000E+00 0.  1.
         13   -1    0    0    0    0 -0.00000000000E+00 -0.00000000000E+00 -0.10000000000E+04  0.10000000000E+04  0.00000000000E+00 0.  1.
    9000005    2    1    2  501    0  0.12104877435E+02 -0.51099967191E+01 -0.89108447920E+03  0.11031979914E+04  0.65026273080E+03 0.  0.
         13    1    3    3    0    0  0.20100179786E+03 -0.25919226161E+03 -0.37984148735E+03  0.50185845289E+03  0.00000000000E+00 0.  1.
          1    1    3    3  501    0 -0.18889692043E+03  0.25408226489E+03 -0.51124299186E+03  0.60133953853E+03  0.00000000000E+00 0.  1.
         21    1    1    2  502  501 -0.12104877435E+02  0.51099967191E+01  0.12238676254E+02  0.17956205630E+02  0.00000000000E+00 0. -1.
<mgrwt>
<rscale>  1 0.30000000E+03</rscale>
<asrwt>0</asrwt>
<pdfrwt beam="1">  1        1 0.44056165E+00 0.30000000E+03</pdfrwt>
<pdfrwt beam="2">0</pdfrwt>
<totfact> 0.59441477E-01</totfact>
</mgrwt>
</event>
<event>
 6    1  0.5260809E-006  0.3000000E+03  0.7818608E-02  0.1093470E+00
          1   -1    0    0  502    0  0.00000000000E+00  0.00000000000E+00  0.11993618736E+03  0.11993618736E+03  0.00000000000E+00 0.  1.
         13   -1    0    0    0    0 -0.00000000000E+00 -0.00000000000E+00 -0.10000000000E+04  0.10000000000E+04  0.00000000000E+00 0.  1.
    9000005    2    1    2  501    0  0.41453071648E+01  0.19462452254E+02 -0.88466173454E+03  0.10995128795E+04  0.65261490709E+03 0.  0.
         13    1    3    3    0    0  0.10369979177E+03  0.25828910889E+03 -0.14076215239E+03  0.31189885240E+03  0.00000000000E+00 0.  1.
          3    1    3    3  501    0 -0.99554484606E+02 -0.23882665663E+03 -0.74389958215E+03  0.78761402708E+03  0.00000000000E+00 0.  1.
         21    1    1    2  502  501 -0.41453071648E+01 -0.19462452254E+02  0.45979218965E+01  0.20423307886E+02  0.00000000000E+00 0. -1.
<mgrwt>
<rscale>  1 0.30000000E+03</rscale>
<asrwt>0</asrwt>
<pdfrwt beam="1">  1        1 0.43613251E+00 0.30000000E+03</pdfrwt>
<pdfrwt beam="2">0</pdfrwt>
<totfact> 0.63495456E-01</totfact>
</mgrwt>
</event>
<event>
 6    1  0.5260809E-006  0.3000000E+03  0.7818608E-02  0.1093470E+00
          1   -1    0    0  502    0  0.00000000000E+00  0.00000000000E+00  0.15347555963E+03  0.15347555963E+03  0.00000000000E+00 0.  1.
         13   -1    0    0    0    0 -0.00000000000E+00 -0.00000000000E+00 -0.10000000000E+04  0.10000000000E+04  0.00000000000E+00 0.  1.
    9000005    2    1    2  501    0  0.48478750131E+02  0.56080483566E+02 -0.85613069910E+03  0.10787260442E+04  0.65206970073E+03 0.  0.
         13    1    3    3    0    0 -0.91667215077E+00 -0.25637334965E+02  0.10742752109E+03  0.11044811234E+03  0.00000000000E+00 0.  1.
          1    1    3    3  501    0  0.49395422282E+02  0.81717818531E+02 -0.96355822019E+03  0.96827793185E+03  0.00000000000E+00 0.  1.
         21    1    1    2  502  501 -0.48478750131E+02 -0.56080483566E+02  0.96062587269E+01  0.74749515437E+02  0.00000000000E+00 0.  1.
<mgrwt>
<rscale>  1 0.30000000E+03</rscale>
<asrwt>0</asrwt>
<pdfrwt beam="1">  1        1 0.55809412E+00 0.30000000E+03</pdfrwt>
<pdfrwt beam="2">0</pdfrwt>
<totfact> 0.88189790E-02</totfact>
</mgrwt>
</event>
<event>
 6    1  0.5260809E-006  0.3000000E+03  0.7818608E-02  0.1093470E+00
          1   -1    0    0  502    0  0.00000000000E+00  0.00000000000E+00  0.81502274710E+02  0.81502274710E+02  0.00000000000E+00 0.  1.
         13   -1    0    0    0    0 -0.00000000000E+00 -0.00000000000E+00 -0.10000000000E+04  0.10000000000E+04  0.00000000000E+00 0.  1.
    9000005    2    1    2  501    0  0.37570807014E+02  0.75795461644E+01 -0.91467977633E+03  0.10429848528E+04  0.49970921023E+03 0.  0.
         13    1    3    3    0    0  0.18891229121E+03  0.18732796558E+03 -0.49868779302E+03  0.56521600770E+03  0.00000000000E+00 0.  1.
          1    1    3    3  501    0 -0.15134148420E+03 -0.17974841942E+03 -0.41599198331E+03  0.47776884505E+03  0.00000000000E+00 0.  1.
         21    1    1    2  502  501 -0.37570807014E+02 -0.75795461644E+01 -0.38179489617E+01  0.38517421955E+02  0.00000000000E+00 0.  1.
<mgrwt>
<rscale>  1 0.30000000E+03</rscale>
<asrwt>0</asrwt>
<pdfrwt beam="1">  1        1 0.29637253E+00 0.30000000E+03</pdfrwt>
<pdfrwt beam="2">0</pdfrwt>
<totfact> 0.36146759E+00</totfact>
</mgrwt>
</event>
<event>
 6    1  0.5260809E-006  0.3000000E+03  0.7818608E-02  0.1093470E+00
          1   -1    0    0  502    0  0.00000000000E+00  0.00000000000E+00  0.11650739951E+03  0.11650739951E+03  0.00000000000E+00 0.  1.
         13   -1    0    0    0    0 -0.00000000000E+00 -0.00000000000E+00 -0.10000000000E+04  0.10000000000E+04  0.00000000000E+00 0.  1.
    9000005    2    1    2  501    0  0.64166497592E+01  0.39892105061E+02 -0.86561836542E+03  0.10723254833E+04  0.63162824047E+03 0.  0.
         13    1    3    3    0    0 -0.52129496779E+02  0.65055770275E+02 -0.95716215580E+03  0.96078568379E+03  0.00000000000E+00 0.  1.
          1    1    3    3  501    0  0.58546146539E+02 -0.25163665214E+02  0.91543790374E+02  0.11153979952E+03  0.00000000000E+00 0.  1.
         21    1    1    2  502  501 -0.64166497592E+01 -0.39892105061E+02 -0.17874235066E+02  0.44181916205E+02  0.00000000000E+00 0. -1.
<mgrwt>
<rscale>  1 0.30000000E+03</rscale>
<asrwt>0</asrwt>
<pdfrwt beam="1">  1        1 0.42366416E+00 0.30000000E+03</pdfrwt>
<pdfrwt beam="2">0</pdfrwt>
<totfact> 0.76121507E-01</totfact>
</mgrwt>
</event>
<event>
 6    1  0.5260809E-006  0.3000000E+03  0.7818608E-02  0.1093470E+00
          1   -1    0    0  502    0  0.00000000000E+00  0.00000000000E+00  0.12263375798E+03  0.12263375798E+03  0.00000000000E+00 0.  1.
         13   -1    0    0    0    0 -0.00000000000E+00 -0.00000000000E+00 -0.10000000000E+04  0.10000000000E+04  0.00000000000E+00 0.  1.
    9000005    2    1    2  501    0  0.36513134533E+01 -0.15072497653E+02 -0.86349916839E+03  0.11018297197E+04  0.68422028999E+03 0.  0.
         13    1    3    3    0    0 -0.26387306164E+03  0.17152054590E+03 -0.61825077246E+03  0.69374513185E+03  0.00000000000E+00 0.  1.
          1    1    3    3  501    0  0.26752437509E+03 -0.18659304356E+03 -0.24524839593E+03  0.40808458789E+03  0.00000000000E+00 0.  1.
         21    1    1    2  502  501 -0.36513134533E+01  0.15072497653E+02 -0.13867073633E+02  0.20804038228E+02  0.00000000000E+00 0.  1.
<mgrwt>
<rscale>  1 0.30000000E+03</rscale>
<asrwt>0</asrwt>
<pdfrwt beam="1">  1        1 0.44594188E+00 0.30000000E+03</pdfrwt>
<pdfrwt beam="2">0</pdfrwt>
<totfact> 0.54776197E-01</totfact>
</mgrwt>
</event>
<event>
 6    1  0.5260809E-006  0.3000000E+03  0.7818608E-02  0.1093470E+00
          1   -1    0    0  502    0  0.00000000000E+00  0.00000000000E+00  0.70404997552E+02  0.70404997552E+02  0.00000000000E+00 0.  1.
         13   -1    0    0    0    0 -0.00000000000E+00 -0.00000000000E+00 -0.10000000000E+04  0.10000000000E+04  0.00000000000E+00 0.  1.
    9000005    2    1    2  501    0  0.50661799291E+01  0.98383639287E+01 -0.92971431349E+03  0.10593382085E+04  0.50764778714E+03 0.  0.
         13    1    3    3    0    0 -0.17995806772E+03 -0.51986346231E+02 -0.80794070942E+03  0.82937065072E+03  0.00000000000E+00 0.  1.
          1    1    3    3  501    0  0.18502424765E+03  0.61824710160E+02 -0.12177360407E+03  0.22996755783E+03  0.00000000000E+00 0.  1.
         21    1    1    2  502  501 -0.50661799291E+01 -0.98383639287E+01  0.11931103839E+00  0.11066789010E+02  0.00000000000E+00 0. -1.
<mgrwt>
<rscale>  1 0.30000000E+03</rscale>
<asrwt>0</asrwt>
<pdfrwt beam="1">  1        1 0.25601871E+00 0.30000000E+03</pdfrwt>
<pdfrwt beam="2">0</pdfrwt>
<totfact> 0.55931036E+00</totfact>
</mgrwt>
</event>
<event>
 6    1  0.5260809E-006  0.3000000E+03  0.7818608E-02  0.1093470E+00
          1   -1    0    0  502    0  0.00000000000E+00  0.00000000000E+00  0.12020984270E+03  0.12020984270E+03  0.00000000000E+00 0.  1.
         13   -1    0    0    0    0 -0.00000000000E+00 -0.00000000000E+00 -0.10000000000E+04  0.10000000000E+04  0.00000000000E+00 0.  1.
    9000005    2    1    2  501    0 -0.38961242033E+02  0.12088609611E+02 -0.81834242413E+03  0.10464539157E+04  0.65093575843E+03 0.  0.
         13    1    3    3    0    0  0.18702180156E+03 -0.23344239902E+03 -0.26164941831E+03  0.39740775788E+03  0.00000000000E+00 0.  1.
          1    1    3    3  501    0 -0.22598304360E+03  0.24553100863E+03 -0.55669300582E+03  0.64904615778E+03  0.00000000000E+00 0.  1.
         21    1    1    2  502  501  0.38961242033E+02 -0.12088609611E+02 -0.61447733167E+02  0.73755927046E+02  0.00000000000E+00 0.  1.
<mgrwt>
<rscale>  1 0.30000000E+03</rscale>
<asrwt>0</asrwt>
<pdfrwt beam="1">  1        1 0.43712762E+00 0.30000000E+03</pdfrwt>
<pdfrwt beam="2">0</pdfrwt>
<totfact> 0.62566648E-01</totfact>
</mgrwt>
</event>
<event>
 6    1  0.5260809E-006  0.3000000E+03  0.7818608E-02  0.1093470E+00
          1   -1    0    0  502    0  0.00000000000E+00  0.00000000000E+00  0.11243868917E+03  0.11243868917E+03  0.00000000000E+00 0.  1.
         13   -1    0    0    0    0 -0.00000000000E+00 -0.00000000000E+00 -0.10000000000E+04  0.10000000000E+04  0.00000000000E+00 0.  1.
    9000005    2    1    2  501    0  0.68273562415E+01  0.12939050650E+02 -0.88849139668E+03  0.10977793275E+04  0.64458394184E+03 0.  0.
         13    1    3    3    0    0  0.21450880548E+02 -0.14974816101E+03  0.38830846755E+02  0.15618094205E+03  0.00000000000E+00 0.  1.
          3    1    3    3  501    0 -0.14623524307E+02  0.16268721166E+03 -0.92732224344E+03  0.94159838544E+03  0.00000000000E+00 0.  1.
         21    1    1    2  502  501 -0.68273562415E+01 -0.12939050650E+02  0.93008585186E+00  0.14659361673E+02  0.00000000000E+00 0. -1.
<mgrwt>
<rscale>  1 0.30000000E+03</rscale>
<asrwt>0</asrwt>
<pdfrwt beam="1">  1        1 0.40886882E+00 0.30000000E+03</pdfrwt>
<pdfrwt beam="2">0</pdfrwt>
<totfact> 0.93562074E-01</totfact>
</mgrwt>
</event>
<event>
 6    1  0.5260809E-006  0.3000000E+03  0.7818608E-02  0.1093470E+00
          1   -1    0    0  502    0  0.00000000000E+00  0.00000000000E+00  0.11416623960E+03  0.11416623960E+03  0.00000000000E+00 0.  1.
         13   -1    0    0    0    0 -0.00000000000E+00 -0.00000000000E+00 -0.10000000000E+04  0.10000000000E+04  0.00000000000E+00 0.  1.
    9000005    2    1    2  501    0  0.16794952272E+02  0.20106926229E+02 -0.85203051188E+03  0.10713992136E+04  0.64904077127E+03 0.  0.
         13    1    3    3    0    0  0.14961127409E+03 -0.12608079889E+03  0.11490520842E+01  0.19565587521E+03  0.00000000000E+00 0.  1.
          3    1    3    3  501    0 -0.13281632182E+03  0.14618772512E+03 -0.85317956397E+03  0.87574333836E+03  0.00000000000E+00 0.  1.
         21    1    1    2  502  501 -0.16794952272E+02 -0.20106926229E+02 -0.33803248520E+02  0.42767026021E+02  0.00000000000E+00 0.  1.
<mgrwt>
<rscale>  1 0.30000000E+03</rscale>
<asrwt>0</asrwt>
<pdfrwt beam="1">  1        1 0.41515084E+00 0.30000000E+03</pdfrwt>
<pdfrwt beam="2">0</pdfrwt>
<totfact> 0.85840336E-01</totfact>
</mgrwt>
</event>
<event>
 6    1  0.5260809E-006  0.3000000E+03  0.7818608E-02  0.1093470E+00
          1   -1    0    0  502    0  0.00000000000E+00  0.00000000000E+00  0.11781785122E+03  0.11781785122E+03  0.00000000000E+00 0.  1.
         13   -1    0    0    0    0 -0.00000000000E+00 -0.00000000000E+00 -0.10000000000E+04  0.10000000000E+04  0.00000000000E+00 0.  1.
    9000005    2    1    2  501    0  0.94429436159E+01 -0.11922861443E+02 -0.88670708623E+03  0.11019496797E+04  0.65407363191E+03 0.  0.
         13    1    3    3    0    0 -0.19534075583E+03 -0.19732431432E+03 -0.73739215523E+03  0.78793533142E+03  0.00000000000E+00 0.  1.
          3    1    3    3  501    0  0.20478369945E+03  0.18540145288E+03 -0.14931493101E+03  0.31401434826E+03  0.00000000000E+00 0.  1.
         21    1    1    2  502  501 -0.94429436159E+01  0.11922861443E+02  0.45249374578E+01  0.15868171543E+02  0.00000000000E+00 0. -1.
<mgrwt>
<rscale>  1 0.30000000E+03</rscale>
<asrwt>0</asrwt>
<pdfrwt beam="1">  1        1 0.42842945E+00 0.30000000E+03</pdfrwt>
<pdfrwt beam="2">0</pdfrwt>
<totfact> 0.71066651E-01</totfact>
</mgrwt>
</event>
<event>
 6    1  0.5260809E-006  0.3000000E+03  0.7818608E-02  0.1093470E+00
          1   -1    0    0  502    0  0.00000000000E+00  0.00000000000E+00  0.10693514984E+03  0.10693514984E+03  0.00000000000E+00 0.  1.
         13   -1    0    0    0    0 -0.00000000000E+00 -0.00000000000E+00 -0.10000000000E+04  0.10000000000E+04  0.00000000000E+00 0.  1.
    9000005    2    1    2  501    0 -0.14188853671E+02 -0.84209023975E+01 -0.87644824378E+03  0.10835183445E+04  0.63685025212E+03 0.  0.
         13    1    3    3    0    0 -0.23783177991E+03 -0.19550307543E+03 -0.63211851649E+03  0.70310683891E+03  0.00000000000E+00 0.  1.
          3    1    3    3  501    0  0.22364292624E+03  0.18708217304E+03 -0.24432972729E+03  0.38041150556E+03  0.00000000000E+00 0.  1.
         21    1    1    2  502  501  0.14188853671E+02  0.84209023975E+01 -0.16616606387E+02  0.23416805365E+02  0.00000000000E+00 0. -1.
<mgrwt>
<rscale>  1 0.30000000E+03</rscale>
<asrwt>0</asrwt>
<pdfrwt beam="1">  1        1 0.38885591E+00 0.30000000E+03</pdfrwt>
<pdfrwt beam="2">0</pdfrwt>
<totfact> 0.12169853E+00</totfact>
</mgrwt>
</event>
<event>
 6    1  0.5260809E-006  0.3000000E+03  0.7818608E-02  0.1093470E+00
          1   -1    0    0  502    0  0.00000000000E+00  0.00000000000E+00  0.11710221533E+03  0.11710221533E+03  0.00000000000E+00 0.  1.
         13   -1    0    0    0    0 -0.00000000000E+00 -0.00000000000E+00 -0.10000000000E+04  0.10000000000E+04  0.00000000000E+00 0.  1.
    9000005    2    1    2  501    0 -0.11348160832E+02  0.73989349403E+00 -0.88658095705E+03  0.11051483894E+04  0.65969526365E+03 0.  0.
         13    1    3    3    0    0  0.21535335202E+03  0.24348386948E+03 -0.48750899759E+03  0.58594068271E+03  0.00000000000E+00 0.  1.
          1    1    3    3  501    0 -0.22670151286E+03 -0.24274397598E+03 -0.39907195946E+03  0.51920770664E+03  0.00000000000E+00 0.  1.
         21    1    1    2  502  501  0.11348160832E+02 -0.73989349403E+00  0.36831723802E+01  0.11953825975E+02  0.00000000000E+00 0.  1.
<mgrwt>
<rscale>  1 0.30000000E+03</rscale>
<asrwt>0</asrwt>
<pdfrwt beam="1">  1        1 0.42582714E+00 0.30000000E+03</pdfrwt>
<pdfrwt beam="2">0</pdfrwt>
<totfact> 0.73790351E-01</totfact>
</mgrwt>
</event>
<event>
 6    1  0.5260809E-006  0.3000000E+03  0.7818608E-02  0.1093470E+00
          1   -1    0    0  502    0  0.00000000000E+00  0.00000000000E+00  0.12716680811E+03  0.12716680811E+03  0.00000000000E+00 0.  1.
         13   -1    0    0    0    0 -0.00000000000E+00 -0.00000000000E+00 -0.10000000000E+04  0.10000000000E+04  0.00000000000E+00 0.  1.
    9000005    2    1    2  501    0  0.11935446105E+02 -0.23253813000E+01 -0.89048347942E+03  0.11057333081E+04  0.65539107357E+03 0.  0.
         13    1    3    3    0    0 -0.23642030414E+02  0.30442803515E+03 -0.24978746452E+03  0.39449860788E+03  0.00000000000E+00 0.  1.
          1    1    3    3  501    0  0.35577476519E+02 -0.30675341645E+03 -0.64069601489E+03  0.71123470025E+03  0.00000000000E+00 0.  1.
         21    1    1    2  502  501 -0.11935446105E+02  0.23253813000E+01  0.17650287525E+02  0.21433499985E+02  0.00000000000E+00 0.  1.
<mgrwt>
<rscale>  1 0.30000000E+03</rscale>
<asrwt>0</asrwt>
<pdfrwt beam="1">  1        1 0.46242573E+00 0.30000000E+03</pdfrwt>
<pdfrwt beam="2">0</pdfrwt>
<totfact> 0.42428326E-01</totfact>
</mgrwt>
</event>
<event>
 6    1  0.5260809E-006  0.3000000E+03  0.7818608E-02  0.1093470E+00
          1   -1    0    0  502    0  0.00000000000E+00  0.00000000000E+00  0.12404839273E+03  0.12404839273E+03  0.00000000000E+00 0.  1.
         13   -1    0    0    0    0 -0.00000000000E+00 -0.00000000000E+00 -0.10000000000E+04  0.10000000000E+04  0.00000000000E+00 0.  1.
    9000005    2    1    2  501    0 -0.10486140647E+02  0.97128935850E+01 -0.88979404448E+03  0.11041508422E+04  0.65361406150E+03 0.  0.
         13    1    3    3    0    0 -0.68793603713E+02 -0.14080351246E+02 -0.98636463014E+03  0.98886096080E+03  0.00000000000E+00 0.  1.
          1    1    3    3  501    0  0.58307463065E+02  0.23793244831E+02  0.96570585659E+02  0.11528988144E+03  0.00000000000E+00 0.  1.
         21    1    1    2  502  501  0.10486140647E+02 -0.97128935850E+01  0.13842437211E+02  0.19897550488E+02  0.00000000000E+00 0.  1.
<mgrwt>
<rscale>  1 0.30000000E+03</rscale>
<asrwt>0</asrwt>
<pdfrwt beam="1">  1        1 0.45108602E+00 0.30000000E+03</pdfrwt>
<pdfrwt beam="2">0</pdfrwt>
<totfact> 0.50598041E-01</totfact>
</mgrwt>
</event>
<event>
 6    1  0.5260809E-006  0.3000000E+03  0.7818608E-02  0.1093470E+00
          1   -1    0    0  502    0  0.00000000000E+00  0.00000000000E+00  0.12529595676E+03  0.12529595676E+03  0.00000000000E+00 0.  1.
         13   -1    0    0    0    0 -0.00000000000E+00 -0.00000000000E+00 -0.10000000000E+04  0.10000000000E+04  0.00000000000E+00 0.  1.
    9000005    2    1    2  501    0  0.16208199132E+02  0.41432154000E+02 -0.83745868980E+03  0.10672740173E+04  0.66011926333E+03 0.  0.
         13    1    3    3    0    0 -0.12033727882E+03 -0.24904573410E+03 -0.16482034695E+03  0.32197916876E+03  0.00000000000E+00 0.  1.
          3    1    3    3  501    0  0.13654547795E+03  0.29047788810E+03 -0.67263834285E+03  0.74529484856E+03  0.00000000000E+00 0.  1.
         21    1    1    2  502  501 -0.16208199132E+02 -0.41432154000E+02 -0.37245353435E+02  0.58021939443E+02  0.00000000000E+00 0.  1.
<mgrwt>
<rscale>  1 0.30000000E+03</rscale>
<asrwt>0</asrwt>
<pdfrwt beam="1">  1        1 0.45562262E+00 0.30000000E+03</pdfrwt>
<pdfrwt beam="2">0</pdfrwt>
<totfact> 0.47167701E-01</totfact>
</mgrwt>
</event>
<event>
 6    1  0.5260809E-006  0.3000000E+03  0.7818608E-02  0.1093470E+00
          1   -1    0    0  502    0  0.00000000000E+00  0.00000000000E+00  0.12128989445E+03  0.12128989445E+03  0.00000000000E+00 0.  1.
         13   -1    0    0    0    0 -0.00000000000E+00 -0.00000000000E+00 -0.10000000000E+04  0.10000000000E+04  0.00000000000E+00 0.  1.
    9000005    2    1    2  501    0 -0.98920658286E+01  0.25353189725E+02 -0.88318514191E+03  0.10937097722E+04  0.64454979142E+03 0.  0.
         13    1    3    3    0    0 -0.17484042484E+03  0.64209893325E+02  0.81225806435E+01  0.18643513852E+03  0.00000000000E+00 0.  1.
          1    1    3    3  501    0  0.16494835901E+03 -0.38856703601E+02 -0.89130772255E+03  0.90727463363E+03  0.00000000000E+00 0.  1.
         21    1    1    2  502  501  0.98920658286E+01 -0.25353189725E+02  0.44750363572E+01  0.27580122298E+02  0.00000000000E+00 0.  1.
<mgrwt>
<rscale>  1 0.30000000E+03</rscale>
<asrwt>0</asrwt>
<pdfrwt beam="1">  1        1 0.44105509E+00 0.30000000E+03</pdfrwt>
<pdfrwt beam="2">0</pdfrwt>
<totfact> 0.59002155E-01</totfact>
</mgrwt>
</event>
<event>
 6    1  0.5260809E-006  0.3000000E+03  0.7818608E-02  0.1093470E+00
          1   -1    0    0  502    0  0.00000000000E+00  0.00000000000E+00  0.13901776898E+03  0.13901776898E+03  0.00000000000E+00 0.  1.
         13   -1    0    0    0    0 -0.00000000000E+00 -0.00000000000E+00 -0.10000000000E+04  0.10000000000E+04  0.00000000000E+00 0.  1.
    9000005    2    1    2  501    0  0.76987222466E+01  0.13263420909E+02 -0.89008487117E+03  0.11061216853E+04  0.65652030900E+03 0.  0.
         13    1    3    3    0    0 -0.83337079753E+02 -0.22741553603E+02  0.87904068248E+02  0.12324517166E+03  0.00000000000E+00 0.  1.
          1    1    3    3  501    0  0.91035802000E+02  0.36004974512E+02 -0.97798893942E+03  0.98287651364E+03  0.00000000000E+00 0.  1.
         21    1    1    2  502  501 -0.76987222466E+01 -0.13263420909E+02  0.29102640152E+02  0.32896083692E+02  0.00000000000E+00 0. -1.
<mgrwt>
<rscale>  1 0.30000000E+03</rscale>
<asrwt>0</asrwt>
<pdfrwt beam="1">  1        1 0.50552023E+00 0.30000000E+03</pdfrwt>
<pdfrwt beam="2">0</pdfrwt>
<totfact> 0.20804972E-01</totfact>
</mgrwt>
</event>
<event>
 6    1  0.5260809E-006  0.3000000E+03  0.7818608E-02  0.1093470E+00
          1   -1    0    0  502    0  0.00000000000E+00  0.00000000000E+00  0.11701711115E+03  0.11701711115E+03  0.00000000000E+00 0.  1.
         13   -1    0    0    0    0 -0.00000000000E+00 -0.00000000000E+00 -0.10000000000E+04  0.10000000000E+04  0.00000000000E+00 0.  1.
    9000005    2    1    2  501    0  0.51586371190E+00 -0.24496937962E+02 -0.88166075154E+03  0.10924790971E+04  0.64465846056E+03 0.  0.
         13    1    3    3    0    0 -0.46950562327E+02  0.14580747798E+03  0.36486084757E+02  0.15746558455E+03  0.00000000000E+00 0.  1.
          3    1    3    3  501    0  0.47466426039E+02 -0.17030441594E+03 -0.91814683630E+03  0.93501351258E+03  0.00000000000E+00 0.  1.
         21    1    1    2  502  501 -0.51586371190E+00  0.24496937962E+02 -0.13221373072E+01  0.24538014017E+02  0.00000000000E+00 0.  1.
<mgrwt>
<rscale>  1 0.30000000E+03</rscale>
<asrwt>0</asrwt>
<pdfrwt beam="1">  1        1 0.42551767E+00 0.30000000E+03</pdfrwt>
<pdfrwt beam="2">0</pdfrwt>
<totfact> 0.74120205E-01</totfact>
</mgrwt>
</event>
<event>
 6    1  0.5260809E-006  0.3000000E+03  0.7818608E-02  0.1093470E+00
          1   -1    0    0  502    0  0.00000000000E+00  0.00000000000E+00  0.11068565053E+03  0.11068565053E+03  0.00000000000E+00 0.  1.
         13   -1    0    0    0    0 -0.00000000000E+00 -0.00000000000E+00 -0.10000000000E+04  0.10000000000E+04  0.00000000000E+00 0.  1.
    9000005    2    1    2  501    0  0.11200806871E+02  0.15532046313E+01 -0.88732807348E+03  0.10992045438E+04  0.64866913649E+03 0.  0.
         13    1    3    3    0    0 -0.29530588260E+03 -0.11197985874E+03 -0.36110009972E+03  0.47972735494E+03  0.00000000000E+00 0.  1.
          1    1    3    3  501    0  0.30650668947E+03  0.11353306337E+03 -0.52622797376E+03  0.61947718887E+03  0.00000000000E+00 0.  1.
         21    1    1    2  502  501 -0.11200806871E+02 -0.15532046313E+01 -0.19862759864E+01  0.11481106718E+02  0.00000000000E+00 0.  1.
<mgrwt>
<rscale>  1 0.30000000E+03</rscale>
<asrwt>0</asrwt>
<pdfrwt beam="1">  1        1 0.40249412E+00 0.30000000E+03</pdfrwt>
<pdfrwt beam="2">0</pdfrwt>
<totfact> 0.10191024E+00</totfact>
</mgrwt>
</event>
<event>
 6    1  0.5260809E-006  0.3000000E+03  0.7818608E-02  0.1093470E+00
          1   -1    0    0  502    0  0.00000000000E+00  0.00000000000E+00  0.11402272283E+03  0.11402272283E+03  0.00000000000E+00 0.  1.
         13   -1    0    0    0    0 -0.00000000000E+00 -0.00000000000E+00 -0.10000000000E+04  0.10000000000E+04  0.00000000000E+00 0.  1.
    9000005    2    1    2  501    0  0.26278651291E+01  0.22068032698E+02 -0.86599465407E+03  0.10841361210E+04  0.65185158148E+03 0.  0.
         13    1    3    3    0    0 -0.95904702807E+02  0.14878726277E+03  0.25020419258E+02  0.17877746772E+03  0.00000000000E+00 0.  1.
          1    1    3    3  501    0  0.98532567936E+02 -0.12671923007E+03 -0.89101507333E+03  0.90535865330E+03  0.00000000000E+00 0.  1.
         21    1    1    2  502  501 -0.26278651291E+01 -0.22068032698E+02 -0.19982623097E+02  0.29886601816E+02  0.00000000000E+00 0.  1.
<mgrwt>
<rscale>  1 0.30000000E+03</rscale>
<asrwt>0</asrwt>
<pdfrwt beam="1">  1        1 0.41462896E+00 0.30000000E+03</pdfrwt>
<pdfrwt beam="2">0</pdfrwt>
<totfact> 0.86463129E-01</totfact>
</mgrwt>
</event>
<event>
 6    1  0.5260809E-006  0.3000000E+03  0.7818608E-02  0.1093470E+00
          1   -1    0    0  502    0  0.00000000000E+00  0.00000000000E+00  0.12724038058E+03  0.12724038058E+03  0.00000000000E+00 0.  1.
         13   -1    0    0    0    0 -0.00000000000E+00 -0.00000000000E+00 -0.10000000000E+04  0.10000000000E+04  0.00000000000E+00 0.  1.
    9000005    2    1    2  501    0  0.45090709021E+02  0.59527547882E+01 -0.83674324689E+03  0.10692249825E+04  0.66410405402E+03 0.  0.
         13    1    3    3    0    0 -0.94486261702E+02  0.40246942745E+02 -0.90451013547E+03  0.91032195141E+03  0.00000000000E+00 0.  1.
          3    1    3    3  501    0  0.13957697072E+03 -0.34294187957E+02  0.67766888589E+02  0.15890303104E+03  0.00000000000E+00 0.  1.
         21    1    1    2  502  501 -0.45090709021E+02 -0.59527547882E+01 -0.36016372533E+02  0.58015398129E+02  0.00000000000E+00 0. -1.
<mgrwt>
<rscale>  1 0.30000000E+03</rscale>
<asrwt>0</asrwt>
<pdfrwt beam="1">  1        1 0.46269327E+00 0.30000000E+03</pdfrwt>
<pdfrwt beam="2">0</pdfrwt>
<totfact> 0.42250336E-01</totfact>
</mgrwt>
</event>
<event>
 6    1  0.5260809E-006  0.3000000E+03  0.7818608E-02  0.1093470E+00
          1   -1    0    0  502    0  0.00000000000E+00  0.00000000000E+00  0.11057454866E+03  0.11057454866E+03  0.00000000000E+00 0.  1.
         13   -1    0    0    0    0 -0.00000000000E+00 -0.00000000000E+00 -0.10000000000E+04  0.10000000000E+04  0.00000000000E+00 0.  1.
    9000005    2    1    2  501    0  0.41309865444E+01 -0.91473018499E+01 -0.88920195671E+03  0.11005352195E+04  0.64838022122E+03 0.  0.
         13    1    3    3    0    0 -0.14215364672E+03  0.16498158977E+03 -0.40014150186E+02  0.22142203245E+03  0.00000000000E+00 0.  1.
          1    1    3    3  501    0  0.14628463327E+03 -0.17412889162E+03 -0.84918780652E+03  0.87911318701E+03  0.00000000000E+00 0.  1.
         21    1    1    2  502  501 -0.41309865444E+01  0.91473018499E+01 -0.22349462744E+00  0.10039329201E+02  0.00000000000E+00 0. -1.
<mgrwt>
<rscale>  1 0.30000000E+03</rscale>
<asrwt>0</asrwt>
<pdfrwt beam="1">  1        1 0.40209012E+00 0.30000000E+03</pdfrwt>
<pdfrwt beam="2">0</pdfrwt>
<totfact> 0.10245661E+00</totfact>
</mgrwt>
</event>
<event>
 6    1  0.5260809E-006  0.3000000E+03  0.7818608E-02  0.1093470E+00
          1   -1    0    0  502    0  0.00000000000E+00  0.00000000000E+00  0.11761929684E+03  0.11761929684E+03  0.00000000000E+00 0.  1.
         13   -1    0    0    0    0 -0.00000000000E+00 -0.00000000000E+00 -0.10000000000E+04  0.10000000000E+04  0.00000000000E+00 0.  1.
    9000005    2    1    2  501    0 -0.17816597793E+02 -0.71573381893E+01 -0.86128513280E+03  0.10890941897E+04  0.66629228983E+03 0.  0.
         13    1    3    3    0    0  0.18438964984E+03 -0.27339785195E+03 -0.47464031381E+03  0.57795272810E+03  0.00000000000E+00 0.  1.
          3    1    3    3  501    0 -0.20220624764E+03  0.26624051376E+03 -0.38664481899E+03  0.51114146164E+03  0.00000000000E+00 0.  1.
         21    1    1    2  502  501  0.17816597793E+02  0.71573381893E+01 -0.21095570356E+02  0.28525107108E+02  0.00000000000E+00 0.  1.
<mgrwt>
<rscale>  1 0.30000000E+03</rscale>
<asrwt>0</asrwt>
<pdfrwt beam="1">  1        1 0.42770744E+00 0.30000000E+03</pdfrwt>
<pdfrwt beam="2">0</pdfrwt>
<totfact> 0.71813273E-01</totfact>
</mgrwt>
</event>
<event>
 6    1  0.5260809E-006  0.3000000E+03  0.7818608E-02  0.1093470E+00
          1   -1    0    0  502    0  0.00000000000E+00  0.00000000000E+00  0.11823172013E+03  0.11823172013E+03  0.00000000000E+00 0.  1.
         13   -1    0    0    0    0 -0.00000000000E+00 -0.00000000000E+00 -0.10000000000E+04  0.10000000000E+04  0.00000000000E+00 0.  1.
    9000005    2    1    2  501    0  0.13833495217E+02 -0.43201023029E+01 -0.90354459623E+03  0.10920737992E+04  0.61320658560E+03 0.  0.
         13    1    3    3    0    0  0.15185469905E+03 -0.25449738735E+03 -0.28704733551E+03  0.41258325537E+03  0.00000000000E+00 0.  1.
          3    1    3    3  501    0 -0.13802120384E+03  0.25017728504E+03 -0.61649726072E+03  0.67949054382E+03  0.00000000000E+00 0.  1.
         21    1    1    2  502  501 -0.13833495217E+02  0.43201023029E+01  0.21776316364E+02  0.26157920946E+02  0.00000000000E+00 0.  1.
<mgrwt>
<rscale>  1 0.30000000E+03</rscale>
<asrwt>0</asrwt>
<pdfrwt beam="1">  1        1 0.42993443E+00 0.30000000E+03</pdfrwt>
<pdfrwt beam="2">0</pdfrwt>
<totfact> 0.69531848E-01</totfact>
</mgrwt>
</event>
<event>
 6    1  0.5260809E-006  0.3000000E+03  0.7818608E-02  0.1093470E+00
          1   -1    0    0  502    0  0.00000000000E+00  0.00000000000E+00  0.84043633699E+02  0.84043633699E+02  0.00000000000E+00 0.  1.
         13   -1    0    0    0    0 -0.00000000000E+00 -0.00000000000E+00 -0.10000000000E+04  0.10000000000E+04  0.00000000000E+00 0.  1.
    9000005    2    1    2  501    0  0.16731914213E+01 -0.13881310608E+02 -0.92439537515E+03  0.10677124603E+04  0.53414192679E+03 0.  0.
         13    1    3    3    0    0 -0.18455171727E+03  0.14350595400E+03 -0.69375473135E+03  0.73208532457E+03  0.00000000000E+00 0.  1.
          3    1    3    3  501    0  0.18622490869E+03 -0.15738726460E+03 -0.23064064381E+03  0.33562713575E+03  0.00000000000E+00 0.  1.
         21    1    1    2  502  501 -0.16731914213E+01  0.13881310608E+02  0.84390088498E+01  0.16331173384E+02  0.00000000000E+00 0.  1.
<mgrwt>
<rscale>  1 0.30000000E+03</rscale>
<asrwt>0</asrwt>
<pdfrwt beam="1">  1        1 0.30561386E+00 0.30000000E+03</pdfrwt>
<pdfrwt beam="2">0</pdfrwt>
<totfact> 0.32671392E+00</totfact>
</mgrwt>
</event>
<event>
 6    1  0.5260809E-006  0.3000000E+03  0.7818608E-02  0.1093470E+00
          1   -1    0    0  502    0  0.00000000000E+00  0.00000000000E+00  0.57580153048E+02  0.57580153048E+02  0.00000000000E+00 0.  1.
         13   -1    0    0    0    0 -0.00000000000E+00 -0.00000000000E+00 -0.10000000000E+04  0.10000000000E+04  0.00000000000E+00 0.  1.
    9000005    2    1    2  501    0  0.91707352346E+01  0.92397536860E+01 -0.92025228711E+03  0.10318726417E+04  0.46661268866E+03 0.  0.
         13    1    3    3    0    0  0.23578274193E+03  0.35042269544E+02 -0.49010950394E+03  0.54500347513E+03  0.00000000000E+00 0.  1.
          3    1    3    3  501    0 -0.22661200669E+03 -0.25802515858E+02 -0.43014278317E+03  0.48686916653E+03  0.00000000000E+00 0.  1.
         21    1    1    2  502  501 -0.91707352346E+01 -0.92397536860E+01 -0.22167559838E+02  0.25707511395E+02  0.00000000000E+00 0. -1.
<mgrwt>
<rscale>  1 0.30000000E+03</rscale>
<asrwt>0</asrwt>
<pdfrwt beam="1">  1        1 0.20938282E+00 0.30000000E+03</pdfrwt>
<pdfrwt beam="2">0</pdfrwt>
<totfact> 0.92470514E+00</totfact>
</mgrwt>
</event>
<event>
 6    1  0.5260809E-006  0.3000000E+03  0.7818608E-02  0.1093470E+00
          1   -1    0    0  502    0  0.00000000000E+00  0.00000000000E+00  0.12055917783E+03  0.12055917783E+03  0.00000000000E+00 0.  1.
         13   -1    0    0    0    0 -0.00000000000E+00 -0.00000000000E+00 -0.10000000000E+04  0.10000000000E+04  0.00000000000E+00 0.  1.
    9000005    2    1    2  501    0 -0.18356992191E+02 -0.23321681966E+02 -0.87236272078E+03  0.10900472206E+04  0.65292062812E+03 0.  0.
         13    1    3    3    0    0  0.26446133108E+03 -0.13911874026E+03 -0.63937431838E+03  0.70575728018E+03  0.00000000000E+00 0.  1.
          3    1    3    3  501    0 -0.28281832327E+03  0.11579705829E+03 -0.23298840240E+03  0.38428994046E+03  0.00000000000E+00 0.  1.
         21    1    1    2  502  501  0.18356992191E+02  0.23321681966E+02 -0.70781013935E+01  0.30511957187E+02  0.00000000000E+00 0.  1.
<mgrwt>
<rscale>  1 0.30000000E+03</rscale>
<asrwt>0</asrwt>
<pdfrwt beam="1">  1        1 0.43839793E+00 0.30000000E+03</pdfrwt>
<pdfrwt beam="2">0</pdfrwt>
<totfact> 0.61396334E-01</totfact>
</mgrwt>
</event>
<event>
 6    1  0.5260809E-006  0.3000000E+03  0.7818608E-02  0.1093470E+00
          1   -1    0    0  502    0  0.00000000000E+00  0.00000000000E+00  0.15825489552E+03  0.15825489552E+03  0.00000000000E+00 0.  1.
         13   -1    0    0    0    0 -0.00000000000E+00 -0.00000000000E+00 -0.10000000000E+04  0.10000000000E+04  0.00000000000E+00 0.  1.
    9000005    2    1    2  501    0 -0.47873634099E+02  0.96663780485E+02 -0.79943120497E+03  0.10423832536E+04  0.66017938827E+03 0.  0.
         13    1    3    3    0    0  0.20812245465E+03  0.15449779345E+03 -0.72446687917E+03  0.76943926552E+03  0.00000000000E+00 0.  1.
          3    1    3    3  501    0 -0.25599608875E+03 -0.57834012967E+02 -0.74964325800E+02  0.27294398812E+03  0.00000000000E+00 0.  1.
         21    1    1    2  502  501  0.47873634099E+02 -0.96663780485E+02 -0.42313899507E+02  0.11587164188E+03  0.00000000000E+00 0.  1.
<mgrwt>
<rscale>  1 0.30000000E+03</rscale>
<asrwt>0</asrwt>
<pdfrwt beam="1">  1        1 0.57547356E+00 0.30000000E+03</pdfrwt>
<pdfrwt beam="2">0</pdfrwt>
<totfact> 0.74609422E-02</totfact>
</mgrwt>
</event>
<event>
 6    1  0.5260809E-006  0.3000000E+03  0.7818608E-02  0.1093470E+00
          1   -1    0    0  502    0  0.00000000000E+00  0.00000000000E+00  0.11586167322E+03  0.11586167322E+03  0.00000000000E+00 0.  1.
         13   -1    0    0    0    0 -0.00000000000E+00 -0.00000000000E+00 -0.10000000000E+04  0.10000000000E+04  0.00000000000E+00 0.  1.
    9000005    2    1    2  501    0  0.14008526951E+02  0.21109582416E+02 -0.85062428167E+03  0.10738492403E+04  0.65494172955E+03 0.  0.
         13    1    3    3    0    0 -0.19066794318E+03  0.10563829043E+03 -0.82218158210E+03  0.85058583747E+03  0.00000000000E+00 0.  1.
          1    1    3    3  501    0  0.20467647013E+03 -0.84528708016E+02 -0.28442699577E+02  0.22326340287E+03  0.00000000000E+00 0.  1.
         21    1    1    2  502  501 -0.14008526951E+02 -0.21109582416E+02 -0.33514045105E+02  0.42012432879E+02  0.00000000000E+00 0.  1.
<mgrwt>
<rscale>  1 0.30000000E+03</rscale>
<asrwt>0</asrwt>
<pdfrwt beam="1">  1        1 0.42131606E+00 0.30000000E+03</pdfrwt>
<pdfrwt beam="2">0</pdfrwt>
<totfact> 0.78718309E-01</totfact>
</mgrwt>
</event>
<event>
 6    1  0.5260809E-006  0.3000000E+03  0.7818608E-02  0.1093470E+00
          1   -1    0    0  502    0  0.00000000000E+00  0.00000000000E+00  0.11464538190E+03  0.11464538190E+03  0.00000000000E+00 0.  1.
         13   -1    0    0    0    0 -0.00000000000E+00 -0.00000000000E+00 -0.10000000000E+04  0.10000000000E+04  0.00000000000E+00 0.  1.
    9000005    2    1    2  501    0 -0.36891657138E+01 -0.10946172801E+02 -0.89321115073E+03  0.11006756379E+04  0.64306086137E+03 0.  0.
         13    1    3    3    0    0 -0.18485984922E+03  0.12913573114E+03 -0.83426138561E+03  0.86419978040E+03  0.00000000000E+00 0.  1.
          3    1    3    3  501    0  0.18117068351E+03 -0.14008190394E+03 -0.58949765114E+02  0.23647585750E+03  0.00000000000E+00 0.  1.
         21    1    1    2  502  501  0.36891657138E+01  0.10946172801E+02  0.78565326330E+01  0.13969744009E+02  0.00000000000E+00 0.  1.
<mgrwt>
<rscale>  1 0.30000000E+03</rscale>
<asrwt>0</asrwt>
<pdfrwt beam="1">  1        1 0.41689318E+00 0.30000000E+03</pdfrwt>
<pdfrwt beam="2">0</pdfrwt>
<totfact> 0.83784851E-01</totfact>
</mgrwt>
</event>
<event>
 6    1  0.5260809E-006  0.3000000E+03  0.7818608E-02  0.1093470E+00
          1   -1    0    0  502    0  0.00000000000E+00  0.00000000000E+00  0.10661306709E+03  0.10661306709E+03  0.00000000000E+00 0.  1.
         13   -1    0    0    0    0 -0.00000000000E+00 -0.00000000000E+00 -0.10000000000E+04  0.10000000000E+04  0.00000000000E+00 0.  1.
    9000005    2    1    2  501    0 -0.13647028098E+02  0.25100907310E+01 -0.89424465476E+03  0.10927106350E+04  0.62781405474E+03 0.  0.
         13    1    3    3    0    0  0.15586717884E+03 -0.12737352859E+03 -0.31271390447E+02  0.20370688031E+03  0.00000000000E+00 0.  1.
          1    1    3    3  501    0 -0.16951420694E+03  0.12988361932E+03 -0.86297326432E+03  0.88900375469E+03  0.00000000000E+00 0.  1.
         21    1    1    2  502  501  0.13647028098E+02 -0.25100907310E+01  0.85772185509E+00  0.13902432095E+02  0.00000000000E+00 0.  1.
<mgrwt>
<rscale>  1 0.30000000E+03</rscale>
<asrwt>0</asrwt>
<pdfrwt beam="1">  1        1 0.38768470E+00 0.30000000E+03</pdfrwt>
<pdfrwt beam="2">0</pdfrwt>
<totfact> 0.12354281E+00</totfact>
</mgrwt>
</event>
<event>
 6    1  0.5260809E-006  0.3000000E+03  0.7818608E-02  0.1093470E+00
          1   -1    0    0  502    0  0.00000000000E+00  0.00000000000E+00  0.11602867542E+03  0.11602867542E+03  0.00000000000E+00 0.  1.
         13   -1    0    0    0    0 -0.00000000000E+00 -0.00000000000E+00 -0.10000000000E+04  0.10000000000E+04  0.00000000000E+00 0.  1.
    9000005    2    1    2  501    0  0.63561325441E+01  0.79604814980E+01 -0.89385317636E+03  0.11018364000E+04  0.64417868780E+03 0.  0.
         13    1    3    3    0    0  0.20015386245E+03  0.24502850641E+03 -0.59542672134E+03  0.67426516897E+03  0.00000000000E+00 0.  1.
          1    1    3    3  501    0 -0.19379772990E+03 -0.23706802492E+03 -0.29842645502E+03  0.42757123104E+03  0.00000000000E+00 0.  1.
         21    1    1    2  502  501 -0.63561325441E+01 -0.79604814980E+01  0.98818517878E+01  0.14192275411E+02  0.00000000000E+00 0.  1.
<mgrwt>
<rscale>  1 0.30000000E+03</rscale>
<asrwt>0</asrwt>
<pdfrwt beam="1">  1        1 0.42192335E+00 0.30000000E+03</pdfrwt>
<pdfrwt beam="2">0</pdfrwt>
<totfact> 0.78040281E-01</totfact>
</mgrwt>
</event>
<event>
 6    1  0.5260809E-006  0.3000000E+03  0.7818608E-02  0.1093470E+00
          1   -1    0    0  502    0  0.00000000000E+00  0.00000000000E+00  0.10439737952E+03  0.10439737952E+03  0.00000000000E+00 0.  1.
         13   -1    0    0    0    0 -0.00000000000E+00 -0.00000000000E+00 -0.10000000000E+04  0.10000000000E+04  0.00000000000E+00 0.  1.
    9000005    2    1    2  501    0  0.10275375754E+02 -0.89610641917E+01 -0.89818300082E+03  0.10905214154E+04  0.61831898758E+03 0.  0.
         13    1    3    3    0    0 -0.29119021255E+02  0.26517849531E+03 -0.70239554628E+03  0.75135015486E+03  0.00000000000E+00 0.  1.
          3    1    3    3  501    0  0.39394397009E+02 -0.27413955950E+03 -0.19578745454E+03  0.33917126051E+03  0.00000000000E+00 0.  1.
         21    1    1    2  502  501 -0.10275375754E+02  0.89610641917E+01  0.25803803379E+01  0.13875964148E+02  0.00000000000E+00 0.  1.
<mgrwt>
<rscale>  1 0.30000000E+03</rscale>
<asrwt>0</asrwt>
<pdfrwt beam="1">  1        1 0.37962764E+00 0.30000000E+03</pdfrwt>
<pdfrwt beam="2">0</pdfrwt>
<totfact> 0.13687921E+00</totfact>
</mgrwt>
</event>
<event>
 6    1  0.5260809E-006  0.3000000E+03  0.7818608E-02  0.1093470E+00
          1   -1    0    0  502    0  0.00000000000E+00  0.00000000000E+00  0.12501444340E+03  0.12501444340E+03  0.00000000000E+00 0.  1.
         13   -1    0    0    0    0 -0.00000000000E+00 -0.00000000000E+00 -0.10000000000E+04  0.10000000000E+04  0.00000000000E+00 0.  1.
    9000005    2    1    2  501    0 -0.18541888728E+02  0.13808805618E+02 -0.87850068071E+03  0.11016298150E+04  0.66429686018E+03 0.  0.
         13    1    3    3    0    0  0.53711644034E+02  0.13475340016E+03  0.56793232417E+02  0.15578475794E+03  0.00000000000E+00 0.  1.
          3    1    3    3  501    0 -0.72253532762E+02 -0.12094459454E+03 -0.93529391313E+03  0.94584505701E+03  0.00000000000E+00 0.  1.
         21    1    1    2  502  501  0.18541888728E+02 -0.13808805618E+02  0.35151241128E+01  0.23384628450E+02  0.00000000000E+00 0.  1.
<mgrwt>
<rscale>  1 0.30000000E+03</rscale>
<asrwt>0</asrwt>
<pdfrwt beam="1">  1        1 0.45459893E+00 0.30000000E+03</pdfrwt>
<pdfrwt beam="2">0</pdfrwt>
<totfact> 0.47920897E-01</totfact>
</mgrwt>
</event>
<event>
 6    1  0.5260809E-006  0.3000000E+03  0.7818608E-02  0.1093470E+00
          1   -1    0    0  502    0  0.00000000000E+00  0.00000000000E+00  0.12081198795E+03  0.12081198795E+03  0.00000000000E+00 0.  1.
         13   -1    0    0    0    0 -0.00000000000E+00 -0.00000000000E+00 -0.10000000000E+04  0.10000000000E+04  0.00000000000E+00 0.  1.
    9000005    2    1    2  501    0  0.19639975744E+02 -0.11984173882E+00 -0.86714495757E+03  0.10977733645E+04  0.67288947039E+03 0.  0.
         13    1    3    3    0    0  0.25226623737E+03 -0.19646283855E+03 -0.64830092960E+03  0.72286236364E+03  0.00000000000E+00 0.  1.
          3    1    3    3  501    0 -0.23262626162E+03  0.19634299681E+03 -0.21884402796E+03  0.37491100086E+03  0.00000000000E+00 0.  1.
         21    1    1    2  502  501 -0.19639975744E+02  0.11984173882E+00 -0.12043054479E+02  0.23038623450E+02  0.00000000000E+00 0. -1.
<mgrwt>
<rscale>  1 0.30000000E+03</rscale>
<asrwt>0</asrwt>
<pdfrwt beam="1">  1        1 0.43931725E+00 0.30000000E+03</pdfrwt>
<pdfrwt beam="2">0</pdfrwt>
<totfact> 0.60559911E-01</totfact>
</mgrwt>
</event>
<event>
 6    1  0.5260809E-006  0.3000000E+03  0.7818608E-02  0.1093470E+00
          1   -1    0    0  502    0  0.00000000000E+00  0.00000000000E+00  0.11021724219E+03  0.11021724219E+03  0.00000000000E+00 0.  1.
         13   -1    0    0    0    0 -0.00000000000E+00 -0.00000000000E+00 -0.10000000000E+04  0.10000000000E+04  0.00000000000E+00 0.  1.
    9000005    2    1    2  501    0 -0.18837530500E+02 -0.11797673718E+01 -0.84890900777E+03  0.10651960489E+04  0.64314840792E+03 0.  0.
         13    1    3    3    0    0 -0.88943397201E+02 -0.87752225551E+02  0.67519275521E+02  0.14202194746E+03  0.00000000000E+00 0.  1.
          1    1    3    3  501    0  0.70105866701E+02  0.86572458179E+02 -0.91642828329E+03  0.92317410139E+03  0.00000000000E+00 0.  1.
         21    1    1    2  502  501  0.18837530500E+02  0.11797673718E+01 -0.40873750044E+02  0.45021193332E+02  0.00000000000E+00 0. -1.
<mgrwt>
<rscale>  1 0.30000000E+03</rscale>
<asrwt>0</asrwt>
<pdfrwt beam="1">  1        1 0.40079082E+00 0.30000000E+03</pdfrwt>
<pdfrwt beam="2">0</pdfrwt>
<totfact> 0.10422800E+00</totfact>
</mgrwt>
</event>
<event>
 6    1  0.5260809E-006  0.3000000E+03  0.7818608E-02  0.1093470E+00
          1   -1    0    0  502    0  0.00000000000E+00  0.00000000000E+00  0.12588608452E+03  0.12588608452E+03  0.00000000000E+00 0.  1.
         13   -1    0    0    0    0 -0.00000000000E+00 -0.00000000000E+00 -0.10000000000E+04  0.10000000000E+04  0.00000000000E+00 0.  1.
    9000005    2    1    2  501    0  0.51970769372E+01  0.14446294698E+02 -0.88991846541E+03  0.11038522733E+04  0.65291596787E+03 0.  0.
         13    1    3    3    0    0 -0.94472878774E+02 -0.13816225799E+03 -0.90557072212E+03  0.92090839236E+03  0.00000000000E+00 0.  1.
          3    1    3    3  501    0  0.99669955711E+02  0.15260855269E+03  0.15652256711E+02  0.18294388092E+03  0.00000000000E+00 0.  1.
         21    1    1    2  502  501 -0.51970769372E+01 -0.14446294698E+02  0.15804549930E+02  0.22033811238E+02  0.00000000000E+00 0.  1.
<mgrwt>
<rscale>  1 0.30000000E+03</rscale>
<asrwt>0</asrwt>
<pdfrwt beam="1">  1        1 0.45776855E+00 0.30000000E+03</pdfrwt>
<pdfrwt beam="2">0</pdfrwt>
<totfact> 0.45625052E-01</totfact>
</mgrwt>
</event>
<event>
 6    1  0.5260809E-006  0.3000000E+03  0.7818608E-02  0.1093470E+00
          1   -1    0    0  502    0  0.00000000000E+00  0.00000000000E+00  0.11258360036E+03  0.11258360036E+03  0.00000000000E+00 0.  1.
         13   -1    0    0    0    0 -0.00000000000E+00 -0.00000000000E+00 -0.10000000000E+04  0.10000000000E+04  0.00000000000E+00 0.  1.
    9000005    2    1    2  501    0 -0.12454358428E+01  0.10793991290E+02 -0.87899341003E+03  0.10988355782E+04  0.65931187746E+03 0.  0.
         13    1    3    3    0    0 -0.85209481392E+02 -0.27534109795E+03 -0.68478655409E+03  0.74297106310E+03  0.00000000000E+00 0.  1.
          3    1    3    3  501    0  0.83964045549E+02  0.28613508924E+03 -0.19420685594E+03  0.35586451514E+03  0.00000000000E+00 0.  1.
         21    1    1    2  502  501  0.12454358428E+01 -0.10793991290E+02 -0.84229896146E+01  0.13748022129E+02  0.00000000000E+00 0. -1.
<mgrwt>
<rscale>  1 0.30000000E+03</rscale>
<asrwt>0</asrwt>
<pdfrwt beam="1">  1        1 0.40939577E+00 0.30000000E+03</pdfrwt>
<pdfrwt beam="2">0</pdfrwt>
<totfact> 0.92895302E-01</totfact>
</mgrwt>
</event>
<event>
 6    1  0.5260809E-006  0.3000000E+03  0.7818608E-02  0.1093470E+00
          1   -1    0    0  502    0  0.00000000000E+00  0.00000000000E+00  0.11157427461E+03  0.11157427461E+03  0.00000000000E+00 0.  1.
         13   -1    0    0    0    0 -0.00000000000E+00 -0.00000000000E+00 -0.10000000000E+04  0.10000000000E+04  0.00000000000E+00 0.  1.
    9000005    2    1    2  501    0  0.96881665111E-01  0.15523375175E+02 -0.89143941557E+03  0.10957607712E+04  0.63701369797E+03 0.  0.
         13    1    3    3    0    0 -0.50420395111E+01 -0.75668099467E+02  0.85657588530E+02  0.11440413416E+03  0.00000000000E+00 0.  1.
          1    1    3    3  501    0  0.51389211762E+01  0.91191474642E+02 -0.97709700410E+03  0.98135663700E+03  0.00000000000E+00 0.  1.
         21    1    1    2  502  501 -0.96881665111E-01 -0.15523375175E+02  0.30136901768E+01  0.15813503450E+02  0.00000000000E+00 0. -1.
<mgrwt>
<rscale>  1 0.30000000E+03</rscale>
<asrwt>0</asrwt>
<pdfrwt beam="1">  1        1 0.40572549E+00 0.30000000E+03</pdfrwt>
<pdfrwt beam="2">0</pdfrwt>
<totfact> 0.97613295E-01</totfact>
</mgrwt>
</event>
<event>
 6    1  0.5260809E-006  0.3000000E+03  0.7818608E-02  0.1093470E+00
          1   -1    0    0  502    0  0.00000000000E+00  0.00000000000E+00  0.10770580666E+03  0.10770580666E+03  0.00000000000E+00 0.  1.
         13   -1    0    0    0    0 -0.00000000000E+00 -0.00000000000E+00 -0.10000000000E+04  0.10000000000E+04  0.00000000000E+00 0.  1.
    9000005    2    1    2  501    0 -0.13542363939E+02 -0.13163465974E+02 -0.89969204845E+03  0.10874227912E+04  0.61048003425E+03 0.  0.
         13    1    3    3    0    0 -0.33053771701E+02  0.26766314173E+03 -0.67616594925E+03  0.72796737577E+03  0.00000000000E+00 0.  1.
          3    1    3    3  501    0  0.19511407762E+02 -0.28082660770E+03 -0.22352609920E+03  0.35945541539E+03  0.00000000000E+00 0.  1.
         21    1    1    2  502  501  0.13542363939E+02  0.13163465974E+02  0.73978551088E+01  0.20283015499E+02  0.00000000000E+00 0. -1.
<mgrwt>
<rscale>  1 0.30000000E+03</rscale>
<asrwt>0</asrwt>
<pdfrwt beam="1">  1        1 0.39165830E+00 0.30000000E+03</pdfrwt>
<pdfrwt beam="2">0</pdfrwt>
<totfact> 0.11738185E+00</totfact>
</mgrwt>
</event>
<event>
 6    1  0.5260809E-006  0.3000000E+03  0.7818608E-02  0.1093470E+00
          1   -1    0    0  502    0  0.00000000000E+00  0.00000000000E+00  0.12711440579E+03  0.12711440579E+03  0.00000000000E+00 0.  1.
         13   -1    0    0    0    0 -0.00000000000E+00 -0.00000000000E+00 -0.10000000000E+04  0.10000000000E+04  0.00000000000E+00 0.  1.
    9000005    2    1    2  501    0 -0.48103084296E+02 -0.12890665480E+02 -0.74452341534E+03  0.98943025660E+03  0.64975152228E+03 0.  0.
         13    1    3    3    0    0 -0.36668453086E+01 -0.21650547188E+03 -0.75032189704E+03  0.78094238858E+03  0.00000000000E+00 0.  1.
          3    1    3    3  501    0 -0.44436238987E+02  0.20361480640E+03  0.57984816994E+01  0.20848786802E+03  0.00000000000E+00 0.  1.
         21    1    1    2  502  501  0.48103084296E+02  0.12890665480E+02 -0.12836217887E+03  0.13768414919E+03  0.00000000000E+00 0.  1.
<mgrwt>
<rscale>  1 0.30000000E+03</rscale>
<asrwt>0</asrwt>
<pdfrwt beam="1">  1        1 0.46223518E+00 0.30000000E+03</pdfrwt>
<pdfrwt beam="2">0</pdfrwt>
<totfact> 0.42555449E-01</totfact>
</mgrwt>
</event>
<event>
 6    1  0.5260809E-006  0.3000000E+03  0.7818608E-02  0.1093470E+00
          1   -1    0    0  502    0  0.00000000000E+00  0.00000000000E+00  0.12819876630E+03  0.12819876630E+03  0.00000000000E+00 0.  1.
         13   -1    0    0    0    0 -0.00000000000E+00 -0.00000000000E+00 -0.10000000000E+04  0.10000000000E+04  0.00000000000E+00 0.  1.
    9000005    2    1    2  501    0 -0.15160540415E+02  0.43300531064E+01 -0.89104150403E+03  0.11033234905E+04  0.65047611129E+03 0.  0.
         13    1    3    3    0    0 -0.18630290433E+03 -0.15497733088E+03 -0.73847013820E+02  0.25333796932E+03  0.00000000000E+00 0.  1.
          3    1    3    3  501    0  0.17114236391E+03  0.15930738399E+03 -0.81719449021E+03  0.84998552114E+03  0.00000000000E+00 0.  1.
         21    1    1    2  502  501  0.15160540415E+02 -0.43300531064E+01  0.19240270337E+02  0.24875275842E+02  0.00000000000E+00 0.  1.
<mgrwt>
<rscale>  1 0.30000000E+03</rscale>
<asrwt>0</asrwt>
<pdfrwt beam="1">  1        1 0.46617832E+00 0.30000000E+03</pdfrwt>
<pdfrwt beam="2">0</pdfrwt>
<totfact> 0.39981709E-01</totfact>
</mgrwt>
</event>
<event>
 6    1  0.5260809E-006  0.3000000E+03  0.7818608E-02  0.1093470E+00
          1   -1    0    0  502    0  0.00000000000E+00  0.00000000000E+00  0.10141491584E+03  0.10141491584E+03  0.00000000000E+00 0.  1.
         13   -1    0    0    0    0 -0.00000000000E+00 -0.00000000000E+00 -0.10000000000E+04  0.10000000000E+04  0.00000000000E+00 0.  1.
    9000005    2    1    2  501    0  0.96382974464E+01  0.13695934065E+02 -0.88937442272E+03  0.10823017876E+04  0.61653046982E+03 0.  0.
         13    1    3    3    0    0  0.24043547586E+03  0.14965621169E+03 -0.69750476810E+03  0.75280747955E+03  0.00000000000E+00 0.  1.
          3    1    3    3  501    0 -0.23079717841E+03 -0.13596027763E+03 -0.19186965463E+03  0.32949430803E+03  0.00000000000E+00 0.  1.
         21    1    1    2  502  501 -0.96382974464E+01 -0.13695934065E+02 -0.92106614436E+01  0.19113128258E+02  0.00000000000E+00 0.  1.
<mgrwt>
<rscale>  1 0.30000000E+03</rscale>
<asrwt>0</asrwt>
<pdfrwt beam="1">  1        1 0.36878229E+00 0.30000000E+03</pdfrwt>
<pdfrwt beam="2">0</pdfrwt>
<totfact> 0.15671096E+00</totfact>
</mgrwt>
</event>
<event>
 6    1  0.5260809E-006  0.3000000E+03  0.7818608E-02  0.1093470E+00
          1   -1    0    0  502    0  0.00000000000E+00  0.00000000000E+00  0.11363879597E+03  0.11363879597E+03  0.00000000000E+00 0.  1.
         13   -1    0    0    0    0 -0.00000000000E+00 -0.00000000000E+00 -0.10000000000E+04  0.10000000000E+04  0.00000000000E+00 0.  1.
    9000005    2    1    2  501    0 -0.17438710039E+02 -0.65281292744E+01 -0.88376748006E+03  0.10948384640E+04  0.64597180919E+03 0.  0.
         13    1    3    3    0    0 -0.21370311609E+03  0.66884423482E+02 -0.85438685518E+03  0.88324370716E+03  0.00000000000E+00 0.  1.
          3    1    3    3  501    0  0.19626440605E+03 -0.73412552756E+02 -0.29380624880E+02  0.21159475679E+03  0.00000000000E+00 0.  1.
         21    1    1    2  502  501  0.17438710039E+02  0.65281292744E+01 -0.25937239679E+01  0.18800332010E+02  0.00000000000E+00 0.  1.
<mgrwt>
<rscale>  1 0.30000000E+03</rscale>
<asrwt>0</asrwt>
<pdfrwt beam="1">  1        1 0.41323286E+00 0.30000000E+03</pdfrwt>
<pdfrwt beam="2">0</pdfrwt>
<totfact> 0.88145691E-01</totfact>
</mgrwt>
</event>
<event>
 6    1  0.5260809E-006  0.3000000E+03  0.7818608E-02  0.1093470E+00
          1   -1    0    0  502    0  0.00000000000E+00  0.00000000000E+00  0.11310846579E+03  0.11310846579E+03  0.00000000000E+00 0.  1.
         13   -1    0    0    0    0 -0.00000000000E+00 -0.00000000000E+00 -0.10000000000E+04  0.10000000000E+04  0.00000000000E+00 0.  1.
    9000005    2    1    2  501    0 -0.17718177671E+02 -0.21274008546E+02 -0.85617082383E+03  0.10717529425E+04  0.64409577931E+03 0.  0.
         13    1    3    3    0    0  0.22225618498E+03 -0.17336897517E+03 -0.17020738795E+03  0.32927977197E+03  0.00000000000E+00 0.  1.
          3    1    3    3  501    0 -0.23997436266E+03  0.15209496662E+03 -0.68596343588E+03  0.74247317053E+03  0.00000000000E+00 0.  1.
         21    1    1    2  502  501  0.17718177671E+02  0.21274008546E+02 -0.30720710384E+02  0.41355523284E+02  0.00000000000E+00 0. -1.
<mgrwt>
<rscale>  1 0.30000000E+03</rscale>
<asrwt>0</asrwt>
<pdfrwt beam="1">  1        1 0.41130438E+00 0.30000000E+03</pdfrwt>
<pdfrwt beam="2">0</pdfrwt>
<totfact> 0.90509693E-01</totfact>
</mgrwt>
</event>
<event>
 6    1  0.5260809E-006  0.3000000E+03  0.7818608E-02  0.1093470E+00
          1   -1    0    0  502    0  0.00000000000E+00  0.00000000000E+00  0.12639925560E+03  0.12639925560E+03  0.00000000000E+00 0.  1.
         13   -1    0    0    0    0 -0.00000000000E+00 -0.00000000000E+00 -0.10000000000E+04  0.10000000000E+04  0.00000000000E+00 0.  1.
    9000005    2    1    2  501    0  0.17849964538E+01  0.29944015467E+02 -0.87498285906E+03  0.10963702610E+04  0.65994917631E+03 0.  0.
         13    1    3    3    0    0 -0.20791813015E+03  0.20627552212E+02 -0.86100675161E+03  0.88599552543E+03  0.00000000000E+00 0.  1.
          1    1    3    3  501    0  0.20970312660E+03  0.93164632547E+01 -0.13976107447E+02  0.21037473559E+03  0.00000000000E+00 0.  1.
         21    1    1    2  502  501 -0.17849964538E+01 -0.29944015467E+02  0.13821146567E+01  0.30028994581E+02  0.00000000000E+00 0. -1.
<mgrwt>
<rscale>  1 0.30000000E+03</rscale>
<asrwt>0</asrwt>
<pdfrwt beam="1">  1        1 0.45963463E+00 0.30000000E+03</pdfrwt>
<pdfrwt beam="2">0</pdfrwt>
<totfact> 0.44320758E-01</totfact>
</mgrwt>
</event>
<event>
 6    1  0.5260809E-006  0.3000000E+03  0.7818608E-02  0.1093470E+00
          1   -1    0    0  502    0  0.00000000000E+00  0.00000000000E+00  0.13804835313E+03  0.13804835313E+03  0.00000000000E+00 0.  1.
         13   -1    0    0    0    0 -0.00000000000E+00 -0.00000000000E+00 -0.10000000000E+04  0.10000000000E+04  0.00000000000E+00 0.  1.
    9000005    2    1    2  501    0  0.17152714335E+02 -0.12151081013E+02 -0.88939923432E+03  0.11034761904E+04  0.65282987095E+03 0.  0.
         13    1    3    3    0    0  0.15224246121E+03  0.16350636708E+03 -0.84941216275E+03  0.87830127024E+03  0.00000000000E+00 0.  1.
          1    1    3    3  501    0 -0.13508974687E+03 -0.17565744809E+03 -0.39987071568E+02  0.22517492017E+03  0.00000000000E+00 0.  1.
         21    1    1    2  502  501 -0.17152714335E+02  0.12151081013E+02  0.27447587448E+02  0.34572162726E+02  0.00000000000E+00 0. -1.
<mgrwt>
<rscale>  1 0.30000000E+03</rscale>
<asrwt>0</asrwt>
<pdfrwt beam="1">  1        1 0.50199507E+00 0.30000000E+03</pdfrwt>
<pdfrwt beam="2">0</pdfrwt>
<totfact> 0.22079661E-01</totfact>
</mgrwt>
</event>
<event>
 6    1  0.5260809E-006  0.3000000E+03  0.7818608E-02  0.1093470E+00
          1   -1    0    0  502    0  0.00000000000E+00  0.00000000000E+00  0.11387012827E+03  0.11387012827E+03  0.00000000000E+00 0.  1.
         13   -1    0    0    0    0 -0.00000000000E+00 -0.00000000000E+00 -0.10000000000E+04  0.10000000000E+04  0.00000000000E+00 0.  1.
    9000005    2    1    2  501    0 -0.15824289000E+02  0.58828228838E+00 -0.88725444610E+03  0.10979950262E+04  0.64662343851E+03 0.  0.
         13    1    3    3    0    0 -0.32765687635E+03  0.39131933262E+02 -0.40499793444E+03  0.52241139318E+03  0.00000000000E+00 0.  1.
          3    1    3    3  501    0  0.31183258735E+03 -0.38543650973E+02 -0.48225651166E+03  0.57558363302E+03  0.00000000000E+00 0.  1.
         21    1    1    2  502  501  0.15824289000E+02 -0.58828228838E+00  0.11245743703E+01  0.15875102075E+02  0.00000000000E+00 0.  1.
<mgrwt>
<rscale>  1 0.30000000E+03</rscale>
<asrwt>0</asrwt>
<pdfrwt beam="1">  1        1 0.41407407E+00 0.30000000E+03</pdfrwt>
<pdfrwt beam="2">0</pdfrwt>
<totfact> 0.87128992E-01</totfact>
</mgrwt>
</event>
<event>
 6    1  0.5260809E-006  0.3000000E+03  0.7818608E-02  0.1093470E+00
          1   -1    0    0  502    0  0.00000000000E+00  0.00000000000E+00  0.11226569693E+03  0.11226569693E+03  0.00000000000E+00 0.  1.
         13   -1    0    0    0    0 -0.00000000000E+00 -0.00000000000E+00 -0.10000000000E+04  0.10000000000E+04  0.00000000000E+00 0.  1.
    9000005    2    1    2  501    0 -0.22382124832E+02  0.15139181247E+01 -0.86245313586E+03  0.10784664532E+04  0.64711763049E+03 0.  0.
         13    1    3    3    0    0 -0.31506319449E+03 -0.59148536522E+02 -0.28815946456E+03  0.43104436305E+03  0.00000000000E+00 0.  1.
          1    1    3    3  501    0  0.29268106966E+03  0.60662454646E+02 -0.57429367130E+03  0.64742209017E+03  0.00000000000E+00 0.  1.
         21    1    1    2  502  501  0.22382124832E+02 -0.15139181247E+01 -0.25281167213E+02  0.33799243715E+02  0.00000000000E+00 0. -1.
<mgrwt>
<rscale>  1 0.30000000E+03</rscale>
<asrwt>0</asrwt>
<pdfrwt beam="1">  1        1 0.40823976E+00 0.30000000E+03</pdfrwt>
<pdfrwt beam="2">0</pdfrwt>
<totfact> 0.94362685E-01</totfact>
</mgrwt>
</event>
<event>
 6    1  0.5260809E-006  0.3000000E+03  0.7818608E-02  0.1093470E+00
          1   -1    0    0  502    0  0.00000000000E+00  0.00000000000E+00  0.11016302243E+03  0.11016302243E+03  0.00000000000E+00 0.  1.
         13   -1    0    0    0    0 -0.00000000000E+00 -0.00000000000E+00 -0.10000000000E+04  0.10000000000E+04  0.00000000000E+00 0.  1.
    9000005    2    1    2  501    0  0.11861963463E+02  0.10242574833E+02 -0.89778434960E+03  0.10925909640E+04  0.62248908396E+03 0.  0.
         13    1    3    3    0    0 -0.17302239204E+03 -0.18924568251E+03 -0.72829232368E+03  0.77211423069E+03  0.00000000000E+00 0.  1.
          3    1    3    3  501    0  0.18488435550E+03  0.19948825734E+03 -0.16949202592E+03  0.32047673328E+03  0.00000000000E+00 0.  1.
         21    1    1    2  502  501 -0.11861963463E+02 -0.10242574833E+02  0.79473720332E+01  0.17572058463E+02  0.00000000000E+00 0. -1.
<mgrwt>
<rscale>  1 0.30000000E+03</rscale>
<asrwt>0</asrwt>
<pdfrwt beam="1">  1        1 0.40059365E+00 0.30000000E+03</pdfrwt>
<pdfrwt beam="2">0</pdfrwt>
<totfact> 0.10449875E+00</totfact>
</mgrwt>
</event>
<event>
 6    1  0.5260809E-006  0.3000000E+03  0.7818608E-02  0.1093470E+00
          1   -1    0    0  502    0  0.00000000000E+00  0.00000000000E+00  0.16107798101E+03  0.16107798101E+03  0.00000000000E+00 0.  1.
         13   -1    0    0    0    0 -0.00000000000E+00 -0.00000000000E+00 -0.10000000000E+04  0.10000000000E+04  0.00000000000E+00 0.  1.
    9000005    2    1    2  501    0 -0.12321363344E+02  0.14368751492E+01 -0.86850951362E+03  0.11289952685E+04  0.72122649729E+03 0.  0.
         13    1    3    3    0    0 -0.12160341139E+03  0.38346315498E+02  0.94748521087E+02  0.15885563202E+03  0.00000000000E+00 0.  1.
          3    1    3    3  501    0  0.10928204805E+03 -0.36909440349E+02 -0.96325803471E+03  0.97013963646E+03  0.00000000000E+00 0.  1.
         21    1    1    2  502  501  0.12321363344E+02 -0.14368751492E+01  0.29587494627E+02  0.32082712528E+02  0.00000000000E+00 0. -1.
<mgrwt>
<rscale>  1 0.30000000E+03</rscale>
<asrwt>0</asrwt>
<pdfrwt beam="1">  1        1 0.58573935E+00 0.30000000E+03</pdfrwt>
<pdfrwt beam="2">0</pdfrwt>
<totfact> 0.68344959E-02</totfact>
</mgrwt>
</event>
<event>
 6    1  0.5260809E-006  0.3000000E+03  0.7818608E-02  0.1093470E+00
          1   -1    0    0  502    0  0.00000000000E+00  0.00000000000E+00  0.12446877096E+03  0.12446877096E+03  0.00000000000E+00 0.  1.
         13   -1    0    0    0    0 -0.00000000000E+00 -0.00000000000E+00 -0.10000000000E+04  0.10000000000E+04  0.00000000000E+00 0.  1.
    9000005    2    1    2  501    0  0.90991421384E+00  0.21919929689E+02 -0.87162671992E+03  0.11021852243E+04  0.67423869547E+03 0.  0.
         13    1    3    3    0    0  0.29607071306E+03  0.17267108520E+03 -0.42363098359E+03  0.54491869215E+03  0.00000000000E+00 0.  1.
          3    1    3    3  501    0 -0.29516079885E+03 -0.15075115551E+03 -0.44799573632E+03  0.55726653212E+03  0.00000000000E+00 0.  1.
         21    1    1    2  502  501 -0.90991421384E+00 -0.21919929689E+02 -0.39045091243E+01  0.22283546687E+02  0.00000000000E+00 0.  1.
<mgrwt>
<rscale>  1 0.30000000E+03</rscale>
<asrwt>0</asrwt>
<pdfrwt beam="1">  1        1 0.45261467E+00 0.30000000E+03</pdfrwt>
<pdfrwt beam="2">0</pdfrwt>
<totfact> 0.49414971E-01</totfact>
</mgrwt>
</event>
<event>
 6    1  0.5260809E-006  0.3000000E+03  0.7818608E-02  0.1093470E+00
          1   -1    0    0  502    0  0.00000000000E+00  0.00000000000E+00  0.14807030139E+03  0.14807030139E+03  0.00000000000E+00 0.  1.
         13   -1    0    0    0    0 -0.00000000000E+00 -0.00000000000E+00 -0.10000000000E+04  0.10000000000E+04  0.00000000000E+00 0.  1.
    9000005    2    1    2  501    0  0.61529852563E+01  0.23787582635E+02 -0.89298713393E+03  0.11002224037E+04  0.64223018304E+03 0.  0.
         13    1    3    3    0    0  0.10872665248E+03  0.28866234229E+03 -0.67511282933E+03  0.74224306339E+03  0.00000000000E+00 0.  1.
          1    1    3    3  501    0 -0.10257366722E+03 -0.26487475966E+03 -0.21787430460E+03  0.35797934035E+03  0.00000000000E+00 0.  1.
         21    1    1    2  502  501 -0.61529852563E+01 -0.23787582635E+02  0.41057435314E+02  0.47847897652E+02  0.00000000000E+00 0. -1.
<mgrwt>
<rscale>  1 0.30000000E+03</rscale>
<asrwt>0</asrwt>
<pdfrwt beam="1">  1        1 0.53843860E+00 0.30000000E+03</pdfrwt>
<pdfrwt beam="2">0</pdfrwt>
<totfact> 0.11800615E-01</totfact>
</mgrwt>
</event>
<event>
 6    1  0.5260809E-006  0.3000000E+03  0.7818608E-02  0.1093470E+00
          1   -1    0    0  502    0  0.00000000000E+00  0.00000000000E+00  0.14283494557E+03  0.14283494557E+03  0.00000000000E+00 0.  1.
         13   -1    0    0    0    0 -0.00000000000E+00 -0.00000000000E+00 -0.10000000000E+04  0.10000000000E+04  0.00000000000E+00 0.  1.
    9000005    2    1    2  501    0  0.26529372019E+01 -0.23232401257E+02 -0.88882400001E+03  0.11034767015E+04  0.65353343076E+03 0.  0.
         13    1    3    3    0    0  0.22170872358E+03 -0.83168452299E+01 -0.38395980653E+02  0.22516256206E+03  0.00000000000E+00 0.  1.
          1    1    3    3  501    0 -0.21905578637E+03 -0.14915556027E+02 -0.85042801936E+03  0.87831413940E+03  0.00000000000E+00 0.  1.
         21    1    1    2  502  501 -0.26529372019E+01  0.23232401257E+02  0.31658945578E+02  0.39358244105E+02  0.00000000000E+00 0.  1.
<mgrwt>
<rscale>  1 0.30000000E+03</rscale>
<asrwt>0</asrwt>
<pdfrwt beam="1">  1        1 0.51940090E+00 0.30000000E+03</pdfrwt>
<pdfrwt beam="2">0</pdfrwt>
<totfact> 0.16424148E-01</totfact>
</mgrwt>
</event>
<event>
 6    1  0.5260809E-006  0.3000000E+03  0.7818608E-02  0.1093470E+00
          1   -1    0    0  502    0  0.00000000000E+00  0.00000000000E+00  0.11729002942E+03  0.11729002942E+03  0.00000000000E+00 0.  1.
         13   -1    0    0    0    0 -0.00000000000E+00 -0.00000000000E+00 -0.10000000000E+04  0.10000000000E+04  0.00000000000E+00 0.  1.
    9000005    2    1    2  501    0  0.20188680831E+02  0.61070066093E+01 -0.88389605478E+03  0.10961645671E+04  0.64796577386E+03 0.  0.
         13    1    3    3    0    0 -0.18113461158E+03 -0.23784493787E+03 -0.25804132569E+03  0.39492440764E+03  0.00000000000E+00 0.  1.
          3    1    3    3  501    0  0.20132329241E+03  0.24395194448E+03 -0.62585472909E+03  0.70124015944E+03  0.00000000000E+00 0.  1.
         21    1    1    2  502  501 -0.20188680831E+02 -0.61070066093E+01  0.11860842054E+01  0.21125462342E+02  0.00000000000E+00 0. -1.
<mgrwt>
<rscale>  1 0.30000000E+03</rscale>
<asrwt>0</asrwt>
<pdfrwt beam="1">  1        1 0.42651010E+00 0.30000000E+03</pdfrwt>
<pdfrwt beam="2">0</pdfrwt>
<totfact> 0.73066831E-01</totfact>
</mgrwt>
</event>
<event>
 6    1  0.5260809E-006  0.3000000E+03  0.7818608E-02  0.1093470E+00
          1   -1    0    0  502    0  0.00000000000E+00  0.00000000000E+00  0.13460662806E+03  0.13460662806E+03  0.00000000000E+00 0.  1.
         13   -1    0    0    0    0 -0.00000000000E+00 -0.00000000000E+00 -0.10000000000E+04  0.10000000000E+04  0.00000000000E+00 0.  1.
    9000005    2    1    2  501    0  0.27153924336E+02 -0.68129186797E+02 -0.78090307987E+03  0.10227248550E+04  0.65633648922E+03 0.  0.
         13    1    3    3    0    0  0.18007511229E+03 -0.11936491703E+03  0.92880455093E+01  0.21624360631E+03  0.00000000000E+00 0.  1.
          3    1    3    3  501    0 -0.15292118795E+03  0.51235730229E+02 -0.79019112538E+03  0.80648124864E+03  0.00000000000E+00 0.  1.
         21    1    1    2  502  501 -0.27153924336E+02  0.68129186797E+02 -0.84490292064E+02  0.11188177311E+03  0.00000000000E+00 0. -1.
<mgrwt>
<rscale>  1 0.30000000E+03</rscale>
<asrwt>0</asrwt>
<pdfrwt beam="1">  1        1 0.48947968E+00 0.30000000E+03</pdfrwt>
<pdfrwt beam="2">0</pdfrwt>
<totfact> 0.27271769E-01</totfact>
</mgrwt>
</event>
<event>
 6    1  0.5260809E-006  0.3000000E+03  0.7818608E-02  0.1093470E+00
          1   -1    0    0  502    0  0.00000000000E+00  0.00000000000E+00  0.10974272197E+03  0.10974272197E+03  0.00000000000E+00 0.  1.
         13   -1    0    0    0    0 -0.00000000000E+00 -0.00000000000E+00 -0.10000000000E+04  0.10000000000E+04  0.00000000000E+00 0.  1.
    9000005    2    1    2  501    0  0.57274490539E+01  0.12697474500E+02 -0.88938350310E+03  0.10957858952E+04  0.63996068861E+03 0.  0.
         13    1    3    3    0    0  0.21433242380E+03 -0.19281283879E+03 -0.21211416000E+03  0.35792121419E+03  0.00000000000E+00 0.  1.
          1    1    3    3  501    0 -0.20860497474E+03  0.20551031329E+03 -0.67726934311E+03  0.73786468100E+03  0.00000000000E+00 0.  1.
         21    1    1    2  502  501 -0.57274490539E+01 -0.12697474500E+02 -0.87377492677E+00  0.13956826787E+02  0.00000000000E+00 0.  1.
<mgrwt>
<rscale>  1 0.30000000E+03</rscale>
<asrwt>0</asrwt>
<pdfrwt beam="1">  1        1 0.39906529E+00 0.30000000E+03</pdfrwt>
<pdfrwt beam="2">0</pdfrwt>
<totfact> 0.10661559E+00</totfact>
</mgrwt>
</event>
<event>
 6    1  0.5260809E-006  0.3000000E+03  0.7818608E-02  0.1093470E+00
          1   -1    0    0  502    0  0.00000000000E+00  0.00000000000E+00  0.92306897069E+02  0.92306897069E+02  0.00000000000E+00 0.  1.
         13   -1    0    0    0    0 -0.00000000000E+00 -0.00000000000E+00 -0.10000000000E+04  0.10000000000E+04  0.00000000000E+00 0.  1.
    9000005    2    1    2  501    0 -0.13057579263E+02  0.27987912490E+01 -0.91170798502E+03  0.10783622606E+04  0.57573898730E+03 0.  0.
         13    1    3    3    0    0  0.27722381426E+03 -0.39059400264E+02 -0.39372415150E+03  0.48311218927E+03  0.00000000000E+00 0.  1.
          3    1    3    3  501    0 -0.29028139352E+03  0.41858191513E+02 -0.51798383351E+03  0.59525007131E+03  0.00000000000E+00 0.  1.
         21    1    1    2  502  501  0.13057579263E+02 -0.27987912490E+01  0.40148820848E+01  0.13944636489E+02  0.00000000000E+00 0. -1.
<mgrwt>
<rscale>  1 0.30000000E+03</rscale>
<asrwt>0</asrwt>
<pdfrwt beam="1">  1        1 0.33566215E+00 0.30000000E+03</pdfrwt>
<pdfrwt beam="2">0</pdfrwt>
<totfact> 0.23291273E+00</totfact>
</mgrwt>
</event>
<event>
 6    1  0.5260809E-006  0.3000000E+03  0.7818608E-02  0.1093470E+00
          1   -1    0    0  502    0  0.00000000000E+00  0.00000000000E+00  0.11471200985E+03  0.11471200985E+03  0.00000000000E+00 0.  1.
         13   -1    0    0    0    0 -0.00000000000E+00 -0.00000000000E+00 -0.10000000000E+04  0.10000000000E+04  0.00000000000E+00 0.  1.
    9000005    2    1    2  501    0  0.10527943741E+02 -0.11307730233E+02 -0.87936625693E+03  0.10981660349E+04  0.65760544709E+03 0.  0.
         13    1    3    3    0    0  0.24853353886E+03 -0.21477816210E+03 -0.57070896076E+03  0.65848864587E+03  0.00000000000E+00 0.  1.
          1    1    3    3  501    0 -0.23800559512E+03  0.20347043186E+03 -0.30865729617E+03  0.43967738904E+03  0.00000000000E+00 0.  1.
         21    1    1    2  502  501 -0.10527943741E+02  0.11307730233E+02 -0.59217332183E+01  0.16545974941E+02  0.00000000000E+00 0.  1.
<mgrwt>
<rscale>  1 0.30000000E+03</rscale>
<asrwt>0</asrwt>
<pdfrwt beam="1">  1        1 0.41713546E+00 0.30000000E+03</pdfrwt>
<pdfrwt beam="2">0</pdfrwt>
<totfact> 0.83501691E-01</totfact>
</mgrwt>
</event>
<event>
 6    1  0.5260809E-006  0.3000000E+03  0.7818608E-02  0.1093470E+00
          1   -1    0    0  502    0  0.00000000000E+00  0.00000000000E+00  0.23035298539E+03  0.23035298539E+03  0.00000000000E+00 0.  1.
         13   -1    0    0    0    0 -0.00000000000E+00 -0.00000000000E+00 -0.10000000000E+04  0.10000000000E+04  0.00000000000E+00 0.  1.
    9000005    2    1    2  501    0  0.47305507404E+02 -0.41812342832E+02 -0.88577908954E+03  0.10981684860E+04  0.64605212265E+03 0.  0.
         13    1    3    3    0    0  0.24785453439E+03  0.14921596497E+03 -0.18185099914E+03  0.34171195518E+03  0.00000000000E+00 0.  1.
          1    1    3    3  501    0 -0.20054902699E+03 -0.19102830780E+03 -0.70392809040E+03  0.75645653085E+03  0.00000000000E+00 0.  1.
         21    1    1    2  502  501 -0.47305507404E+02  0.41812342832E+02  0.11613207494E+03  0.13218449937E+03  0.00000000000E+00 0.  1.
<mgrwt>
<rscale>  1 0.30000000E+03</rscale>
<asrwt>0</asrwt>
<pdfrwt beam="1">  1        1 0.83764899E+00 0.30000000E+03</pdfrwt>
<pdfrwt beam="2">0</pdfrwt>
<totfact> 0.33761854E-03</totfact>
</mgrwt>
</event>
<event>
 6    1  0.5260809E-006  0.3000000E+03  0.7818608E-02  0.1093470E+00
          1   -1    0    0  502    0  0.00000000000E+00  0.00000000000E+00  0.84123846169E+02  0.84123846169E+02  0.00000000000E+00 0.  1.
         13   -1    0    0    0    0 -0.00000000000E+00 -0.00000000000E+00 -0.10000000000E+04  0.10000000000E+04  0.00000000000E+00 0.  1.
    9000005    2    1    2  501    0  0.18787986510E+01  0.14767205220E+02 -0.89421155365E+03  0.10578378207E+04  0.56496455815E+03 0.  0.
         13    1    3    3    0    0 -0.34376780658E+02  0.25290382014E+03 -0.71033438796E+03  0.75479603073E+03  0.00000000000E+00 0.  1.
          3    1    3    3  501    0  0.36255579309E+02 -0.23813661492E+03 -0.18387716569E+03  0.30304178996E+03  0.00000000000E+00 0.  1.
         21    1    1    2  502  501 -0.18787986510E+01 -0.14767205220E+02 -0.21664600185E+02  0.26286025481E+02  0.00000000000E+00 0.  1.
<mgrwt>
<rscale>  1 0.30000000E+03</rscale>
<asrwt>0</asrwt>
<pdfrwt beam="1">  1        1 0.30590554E+00 0.30000000E+03</pdfrwt>
<pdfrwt beam="2">0</pdfrwt>
<totfact> 0.32566758E+00</totfact>
</mgrwt>
</event>
<event>
 6    1  0.5260809E-006  0.3000000E+03  0.7818608E-02  0.1093470E+00
          1   -1    0    0  502    0  0.00000000000E+00  0.00000000000E+00  0.12243932773E+03  0.12243932773E+03  0.00000000000E+00 0.  1.
         13   -1    0    0    0    0 -0.00000000000E+00 -0.00000000000E+00 -0.10000000000E+04  0.10000000000E+04  0.00000000000E+00 0.  1.
    9000005    2    1    2  501    0 -0.11060424092E+02  0.37697990867E+01 -0.88922952394E+03  0.11059255012E+04  0.65742339757E+03 0.  0.
         13    1    3    3    0    0  0.19757465970E+03  0.10420863052E+03 -0.84000702976E+03  0.86919905366E+03  0.00000000000E+00 0.  1.
          1    1    3    3  501    0 -0.20863508379E+03 -0.10043883143E+03 -0.49222494173E+02  0.23672644758E+03  0.00000000000E+00 0.  1.
         21    1    1    2  502  501  0.11060424092E+02 -0.37697990867E+01  0.11668851664E+02  0.16513826492E+02  0.00000000000E+00 0.  1.
<mgrwt>
<rscale>  1 0.30000000E+03</rscale>
<asrwt>0</asrwt>
<pdfrwt beam="1">  1        1 0.44523486E+00 0.30000000E+03</pdfrwt>
<pdfrwt beam="2">0</pdfrwt>
<totfact> 0.55372908E-01</totfact>
</mgrwt>
</event>
<event>
 6    1  0.5260809E-006  0.3000000E+03  0.7818608E-02  0.1093470E+00
          1   -1    0    0  502    0  0.00000000000E+00  0.00000000000E+00  0.11651932912E+03  0.11651932912E+03  0.00000000000E+00 0.  1.
         13   -1    0    0    0    0 -0.00000000000E+00 -0.00000000000E+00 -0.10000000000E+04  0.10000000000E+04  0.00000000000E+00 0.  1.
    9000005    2    1    2  501    0 -0.78135750929E+01  0.59363738987E+01 -0.87807028395E+03  0.11053137601E+04  0.67127847587E+03 0.  0.
         13    1    3    3    0    0  0.26562849319E+03 -0.19677868446E+03 -0.45136940084E+03  0.55947715152E+03  0.00000000000E+00 0.  1.
          3    1    3    3  501    0 -0.27344206829E+03  0.20271505836E+03 -0.42670088311E+03  0.54583660855E+03  0.00000000000E+00 0.  1.
         21    1    1    2  502  501  0.78135750929E+01 -0.59363738987E+01 -0.54103869390E+01  0.11205569045E+02  0.00000000000E+00 0.  1.
<mgrwt>
<rscale>  1 0.30000000E+03</rscale>
<asrwt>0</asrwt>
<pdfrwt beam="1">  1        1 0.42370754E+00 0.30000000E+03</pdfrwt>
<pdfrwt beam="2">0</pdfrwt>
<totfact> 0.76074170E-01</totfact>
</mgrwt>
</event>
<event>
 6    1  0.5260809E-006  0.3000000E+03  0.7818608E-02  0.1093470E+00
          1   -1    0    0  502    0  0.00000000000E+00  0.00000000000E+00  0.10660343527E+03  0.10660343527E+03  0.00000000000E+00 0.  1.
         13   -1    0    0    0    0 -0.00000000000E+00 -0.00000000000E+00 -0.10000000000E+04  0.10000000000E+04  0.00000000000E+00 0.  1.
    9000005    2    1    2  501    0 -0.29711081672E+01  0.10030367763E+02 -0.90058846128E+03  0.10939085884E+04  0.62085987745E+03 0.  0.
         13    1    3    3    0    0  0.81011678274E+02 -0.18949434756E+03 -0.44448564392E+02  0.21082380001E+03  0.00000000000E+00 0.  1.
          1    1    3    3  501    0 -0.83982786441E+02  0.19952471532E+03 -0.85613989688E+03  0.88308478839E+03  0.00000000000E+00 0.  1.
         21    1    1    2  502  501  0.29711081672E+01 -0.10030367763E+02  0.71918965444E+01  0.12694846872E+02  0.00000000000E+00 0. -1.
<mgrwt>
<rscale>  1 0.30000000E+03</rscale>
<asrwt>0</asrwt>
<pdfrwt beam="1">  1        1 0.38764967E+00 0.30000000E+03</pdfrwt>
<pdfrwt beam="2">0</pdfrwt>
<totfact> 0.12359833E+00</totfact>
</mgrwt>
</event>
<event>
 6    1  0.5260809E-006  0.3000000E+03  0.7818608E-02  0.1093470E+00
          1   -1    0    0  502    0  0.00000000000E+00  0.00000000000E+00  0.12174095914E+03  0.12174095914E+03  0.00000000000E+00 0.  1.
         13   -1    0    0    0    0 -0.00000000000E+00 -0.00000000000E+00 -0.10000000000E+04  0.10000000000E+04  0.00000000000E+00 0.  1.
    9000005    2    1    2  501    0 -0.40027870434E+02 -0.17597800157E+02 -0.85103390982E+03  0.10702325060E+04  0.64747740372E+03 0.  0.
         13    1    3    3    0    0  0.70877392978E+02  0.23115338316E+03 -0.73579729948E+03  0.77450187689E+03  0.00000000000E+00 0.  1.
          3    1    3    3  501    0 -0.11090526341E+03 -0.24875118331E+03 -0.11523661034E+03  0.29573062915E+03  0.00000000000E+00 0.  1.
         21    1    1    2  502  501  0.40027870434E+02  0.17597800157E+02 -0.27225131033E+02  0.51508453108E+02  0.00000000000E+00 0. -1.
<mgrwt>
<rscale>  1 0.30000000E+03</rscale>
<asrwt>0</asrwt>
<pdfrwt beam="1">  1        1 0.44269533E+00 0.30000000E+03</pdfrwt>
<pdfrwt beam="2">0</pdfrwt>
<totfact> 0.57557880E-01</totfact>
</mgrwt>
</event>
<event>
 6    1  0.5260809E-006  0.3000000E+03  0.7818608E-02  0.1093470E+00
          1   -1    0    0  502    0  0.00000000000E+00  0.00000000000E+00  0.86451034666E+02  0.86451034666E+02  0.00000000000E+00 0.  1.
         13   -1    0    0    0    0 -0.00000000000E+00 -0.00000000000E+00 -0.10000000000E+04  0.10000000000E+04  0.00000000000E+00 0.  1.
    9000005    2    1    2  501    0  0.12219938986E+02 -0.88731007725E+01 -0.92546671340E+03  0.10672132711E+04  0.53125085381E+03 0.  0.
         13    1    3    3    0    0  0.24813173144E+03 -0.27417997608E+02 -0.68833425601E+03  0.73220567516E+03  0.00000000000E+00 0.  1.
          1    1    3    3  501    0 -0.23591179246E+03  0.18544896836E+02 -0.23713245739E+03  0.33500759599E+03  0.00000000000E+00 0.  1.
         21    1    1    2  502  501 -0.12219938986E+02  0.88731007725E+01  0.11917748070E+02  0.19237763519E+02  0.00000000000E+00 0. -1.
<mgrwt>
<rscale>  1 0.30000000E+03</rscale>
<asrwt>0</asrwt>
<pdfrwt beam="1">  1        1 0.31436806E+00 0.30000000E+03</pdfrwt>
<pdfrwt beam="2">0</pdfrwt>
<totfact> 0.29655377E+00</totfact>
</mgrwt>
</event>
<event>
 6    1  0.5260809E-006  0.3000000E+03  0.7818608E-02  0.1093470E+00
          1   -1    0    0  502    0  0.00000000000E+00  0.00000000000E+00  0.11749721794E+03  0.11749721794E+03  0.00000000000E+00 0.  1.
         13   -1    0    0    0    0 -0.00000000000E+00 -0.00000000000E+00 -0.10000000000E+04  0.10000000000E+04  0.00000000000E+00 0.  1.
    9000005    2    1    2  501    0  0.22183299059E+02 -0.21517116041E+02 -0.86285262789E+03  0.10808746348E+04  0.65024628684E+03 0.  0.
         13    1    3    3    0    0 -0.71765312407E+01 -0.91646456994E+02  0.87839748957E+02  0.12714714773E+03  0.00000000000E+00 0.  1.
          3    1    3    3  501    0  0.29359830300E+02  0.70129340953E+02 -0.95069237685E+03  0.95372748702E+03  0.00000000000E+00 0.  1.
         21    1    1    2  502  501 -0.22183299059E+02  0.21517116041E+02 -0.19650154172E+02  0.36622583181E+02  0.00000000000E+00 0.  1.
<mgrwt>
<rscale>  1 0.30000000E+03</rscale>
<asrwt>0</asrwt>
<pdfrwt beam="1">  1        1 0.42726351E+00 0.30000000E+03</pdfrwt>
<pdfrwt beam="2">0</pdfrwt>
<totfact> 0.72275811E-01</totfact>
</mgrwt>
</event>
<event>
 6    1  0.5260809E-006  0.3000000E+03  0.7818608E-02  0.1093470E+00
          1   -1    0    0  502    0  0.00000000000E+00  0.00000000000E+00  0.10744312369E+03  0.10744312369E+03  0.00000000000E+00 0.  1.
         13   -1    0    0    0    0 -0.00000000000E+00 -0.00000000000E+00 -0.10000000000E+04  0.10000000000E+04  0.00000000000E+00 0.  1.
    9000005    2    1    2  501    0 -0.66161640885E+01  0.50725870003E+01 -0.87483977666E+03  0.10878625112E+04  0.64655293956E+03 0.  0.
         13    1    3    3    0    0  0.14262675216E+03 -0.25463326747E+03 -0.21275001428E+03  0.36116901848E+03  0.00000000000E+00 0.  1.
          1    1    3    3  501    0 -0.14924291625E+03  0.25970585447E+03 -0.66208976239E+03  0.72669349271E+03  0.00000000000E+00 0.  1.
         21    1    1    2  502  501  0.66161640885E+01 -0.50725870003E+01 -0.17717099647E+02  0.19580612504E+02  0.00000000000E+00 0.  1.
<mgrwt>
<rscale>  1 0.30000000E+03</rscale>
<asrwt>0</asrwt>
<pdfrwt beam="1">  1        1 0.39070309E+00 0.30000000E+03</pdfrwt>
<pdfrwt beam="2">0</pdfrwt>
<totfact> 0.11883802E+00</totfact>
</mgrwt>
</event>
<event>
 6    1  0.5260809E-006  0.3000000E+03  0.7818608E-02  0.1093470E+00
          1   -1    0    0  502    0  0.00000000000E+00  0.00000000000E+00  0.12869213685E+03  0.12869213685E+03  0.00000000000E+00 0.  1.
         13   -1    0    0    0    0 -0.00000000000E+00 -0.00000000000E+00 -0.10000000000E+04  0.10000000000E+04  0.00000000000E+00 0.  1.
    9000005    2    1    2  501    0  0.33123692890E+02  0.79755821632E+01 -0.84985075764E+03  0.10884280546E+04  0.67916752782E+03 0.  0.
         13    1    3    3    0    0  0.19078743670E+03 -0.19328892841E+03 -0.89045831013E+02  0.28581395324E+03  0.00000000000E+00 0.  1.
          1    1    3    3  501    0 -0.15766374381E+03  0.20126451057E+03 -0.76080492663E+03  0.80261410136E+03  0.00000000000E+00 0.  1.
         21    1    1    2  502  501 -0.33123692890E+02 -0.79755821632E+01 -0.21457105516E+02  0.40264082240E+02  0.00000000000E+00 0. -1.
<mgrwt>
<rscale>  1 0.30000000E+03</rscale>
<asrwt>0</asrwt>
<pdfrwt beam="1">  1        1 0.46797239E+00 0.30000000E+03</pdfrwt>
<pdfrwt beam="2">0</pdfrwt>
<totfact> 0.38851241E-01</totfact>
</mgrwt>
</event>
<event>
 6    1  0.5260809E-006  0.3000000E+03  0.7818608E-02  0.1093470E+00
          1   -1    0    0  502    0  0.00000000000E+00  0.00000000000E+00  0.10742868973E+03  0.10742868973E+03  0.00000000000E+00 0.  1.
         13   -1    0    0    0    0 -0.00000000000E+00 -0.00000000000E+00 -0.10000000000E+04  0.10000000000E+04  0.00000000000E+00 0.  1.
    9000005    2    1    2  501    0 -0.48258181463E+01  0.10499788216E+02 -0.88760776066E+03  0.10948520885E+04  0.64087442208E+03 0.  0.
         13    1    3    3    0    0  0.22124558122E+03  0.20151983746E+03 -0.24283083820E+03  0.38539157760E+03  0.00000000000E+00 0.  1.
          1    1    3    3  501    0 -0.22607139937E+03 -0.19102004925E+03 -0.64477692246E+03  0.70946051093E+03  0.00000000000E+00 0.  1.
         21    1    1    2  502  501  0.48258181463E+01 -0.10499788216E+02 -0.49635496020E+01  0.12576601211E+02  0.00000000000E+00 0. -1.
<mgrwt>
<rscale>  1 0.30000000E+03</rscale>
<asrwt>0</asrwt>
<pdfrwt beam="1">  1        1 0.39065060E+00 0.30000000E+03</pdfrwt>
<pdfrwt beam="2">0</pdfrwt>
<totfact> 0.11891849E+00</totfact>
</mgrwt>
</event>
<event>
 6    1  0.5260809E-006  0.3000000E+03  0.7818608E-02  0.1093470E+00
          1   -1    0    0  502    0  0.00000000000E+00  0.00000000000E+00  0.13350146945E+03  0.13350146945E+03  0.00000000000E+00 0.  1.
         13   -1    0    0    0    0 -0.00000000000E+00 -0.00000000000E+00 -0.10000000000E+04  0.10000000000E+04  0.00000000000E+00 0.  1.
    9000005    2    1    2  501    0  0.16580668607E+02  0.56667171098E+02 -0.84914753699E+03  0.10719616951E+04  0.65158594926E+03 0.  0.
         13    1    3    3    0    0 -0.26088251551E+03  0.18067949884E+03 -0.60088348437E+03  0.67953346495E+03  0.00000000000E+00 0.  1.
          1    1    3    3  501    0  0.27746318412E+03 -0.12401232774E+03 -0.24826405262E+03  0.39242823012E+03  0.00000000000E+00 0.  1.
         21    1    1    2  502  501 -0.16580668607E+02 -0.56667171098E+02 -0.17350993562E+02  0.61539774368E+02  0.00000000000E+00 0. -1.
<mgrwt>
<rscale>  1 0.30000000E+03</rscale>
<asrwt>0</asrwt>
<pdfrwt beam="1">  1        1 0.48546091E+00 0.30000000E+03</pdfrwt>
<pdfrwt beam="2">0</pdfrwt>
<totfact> 0.29169775E-01</totfact>
</mgrwt>
</event>
<event>
 6    1  0.5260809E-006  0.3000000E+03  0.7818608E-02  0.1093470E+00
          1   -1    0    0  502    0  0.00000000000E+00  0.00000000000E+00  0.11586440188E+03  0.11586440188E+03  0.00000000000E+00 0.  1.
         13   -1    0    0    0    0 -0.00000000000E+00 -0.00000000000E+00 -0.10000000000E+04  0.10000000000E+04  0.00000000000E+00 0.  1.
    9000005    2    1    2  501    0 -0.68935632047E+01 -0.82046488453E+01 -0.89240322350E+03  0.11023295910E+04  0.64701791040E+03 0.  0.
         13    1    3    3    0    0  0.23090231643E+03  0.17683325721E+03 -0.66185645339E+03  0.72293834141E+03  0.00000000000E+00 0.  1.
          3    1    3    3  501    0 -0.23779587963E+03 -0.18503790605E+03 -0.23054677011E+03  0.37939124958E+03  0.00000000000E+00 0.  1.
         21    1    1    2  502  501  0.68935632047E+01  0.82046488453E+01  0.82676253848E+01  0.13534810890E+02  0.00000000000E+00 0.  1.
<mgrwt>
<rscale>  1 0.30000000E+03</rscale>
<asrwt>0</asrwt>
<pdfrwt beam="1">  1        1 0.42132599E+00 0.30000000E+03</pdfrwt>
<pdfrwt beam="2">0</pdfrwt>
<totfact> 0.78707196E-01</totfact>
</mgrwt>
</event>
<event>
 6    1  0.5260809E-006  0.3000000E+03  0.7818608E-02  0.1093470E+00
          1   -1    0    0  502    0  0.00000000000E+00  0.00000000000E+00  0.13424895153E+03  0.13424895153E+03  0.00000000000E+00 0.  1.
         13   -1    0    0    0    0 -0.00000000000E+00 -0.00000000000E+00 -0.10000000000E+04  0.10000000000E+04  0.00000000000E+00 0.  1.
    9000005    2    1    2  501    0  0.43844063757E+02  0.11466437524E+02 -0.86130038143E+03  0.10887122679E+04  0.66438112116E+03 0.  0.
         13    1    3    3    0    0  0.21479954689E+03 -0.22755969333E+03 -0.21772301427E+03  0.38121591036E+03  0.00000000000E+00 0.  1.
          3    1    3    3  501    0 -0.17095548313E+03  0.23902613085E+03 -0.64357736716E+03  0.70749635756E+03  0.00000000000E+00 0.  1.
         21    1    1    2  502  501 -0.43844063757E+02 -0.11466437524E+02 -0.44506670398E+01  0.45536683600E+02  0.00000000000E+00 0. -1.
<mgrwt>
<rscale>  1 0.30000000E+03</rscale>
<asrwt>0</asrwt>
<pdfrwt beam="1">  1        1 0.48817903E+00 0.30000000E+03</pdfrwt>
<pdfrwt beam="2">0</pdfrwt>
<totfact> 0.27873164E-01</totfact>
</mgrwt>
</event>
<event>
 6    1  0.5260809E-006  0.3000000E+03  0.7818608E-02  0.1093470E+00
          1   -1    0    0  502    0  0.00000000000E+00  0.00000000000E+00  0.12978968926E+03  0.12978968926E+03  0.00000000000E+00 0.  1.
         13   -1    0    0    0    0 -0.00000000000E+00 -0.00000000000E+00 -0.10000000000E+04  0.10000000000E+04  0.00000000000E+00 0.  1.
    9000005    2    1    2  501    0 -0.19903177160E+02  0.11607615518E+02 -0.89238114693E+03  0.10978143992E+04  0.63900036810E+03 0.  0.
         13    1    3    3    0    0  0.25652265505E+03  0.55389896890E+02 -0.14517252001E+03  0.29991160997E+03  0.00000000000E+00 0.  1.
          1    1    3    3  501    0 -0.27642583221E+03 -0.43782281372E+02 -0.74720862692E+03  0.79790278920E+03  0.00000000000E+00 0.  1.
         21    1    1    2  502  501  0.19903177160E+02 -0.11607615518E+02  0.22170836181E+02  0.31975290085E+02  0.00000000000E+00 0. -1.
<mgrwt>
<rscale>  1 0.30000000E+03</rscale>
<asrwt>0</asrwt>
<pdfrwt beam="1">  1        1 0.47196350E+00 0.30000000E+03</pdfrwt>
<pdfrwt beam="2">0</pdfrwt>
<totfact> 0.36429608E-01</totfact>
</mgrwt>
</event>
<event>
 6    1  0.5260809E-006  0.3000000E+03  0.7818608E-02  0.1093470E+00
          1   -1    0    0  502    0  0.00000000000E+00  0.00000000000E+00  0.11762080472E+03  0.11762080472E+03  0.00000000000E+00 0.  1.
         13   -1    0    0    0    0 -0.00000000000E+00 -0.00000000000E+00 -0.10000000000E+04  0.10000000000E+04  0.00000000000E+00 0.  1.
    9000005    2    1    2  501    0  0.82995296498E+01  0.53219794442E+01 -0.88819061035E+03  0.11061762338E+04  0.65927694812E+03 0.  0.
         13    1    3    3    0    0  0.18360942786E+03 -0.87342029522E+02 -0.88479249089E+03  0.90785395524E+03  0.00000000000E+00 0.  1.
          3    1    3    3  501    0 -0.17530989821E+03  0.92664008966E+02 -0.33981194649E+01  0.19832227859E+03  0.00000000000E+00 0.  1.
         21    1    1    2  502  501 -0.82995296498E+01 -0.53219794442E+01  0.58114150699E+01  0.11444570884E+02  0.00000000000E+00 0. -1.
<mgrwt>
<rscale>  1 0.30000000E+03</rscale>
<asrwt>0</asrwt>
<pdfrwt beam="1">  1        1 0.42771292E+00 0.30000000E+03</pdfrwt>
<pdfrwt beam="2">0</pdfrwt>
<totfact> 0.71807576E-01</totfact>
</mgrwt>
</event>
<event>
 6    1  0.5260809E-006  0.3000000E+03  0.7818608E-02  0.1093470E+00
          1   -1    0    0  502    0  0.00000000000E+00  0.00000000000E+00  0.12362240573E+03  0.12362240573E+03  0.00000000000E+00 0.  1.
         13   -1    0    0    0    0 -0.00000000000E+00 -0.00000000000E+00 -0.10000000000E+04  0.10000000000E+04  0.00000000000E+00 0.  1.
    9000005    2    1    2  501    0 -0.88468034152E+01 -0.83869753653E+01 -0.89154484861E+03  0.11041634003E+04  0.65128794728E+03 0.  0.
         13    1    3    3    0    0  0.22459673453E+03 -0.23202909371E+03 -0.51510493563E+03  0.60795911721E+03  0.00000000000E+00 0.  1.
          3    1    3    3  501    0 -0.23344353795E+03  0.22364211835E+03 -0.37643991298E+03  0.49620428313E+03  0.00000000000E+00 0.  1.
         21    1    1    2  502  501  0.88468034152E+01  0.83869753653E+01  0.15167254346E+02  0.19459005392E+02  0.00000000000E+00 0.  1.
<mgrwt>
<rscale>  1 0.30000000E+03</rscale>
<asrwt>0</asrwt>
<pdfrwt beam="1">  1        1 0.44953697E+00 0.30000000E+03</pdfrwt>
<pdfrwt beam="2">0</pdfrwt>
<totfact> 0.51824947E-01</totfact>
</mgrwt>
</event>
<event>
 6    1  0.5260809E-006  0.3000000E+03  0.7818608E-02  0.1093470E+00
          1   -1    0    0  502    0  0.00000000000E+00  0.00000000000E+00  0.11210378632E+03  0.11210378632E+03  0.00000000000E+00 0.  1.
         13   -1    0    0    0    0 -0.00000000000E+00 -0.00000000000E+00 -0.10000000000E+04  0.10000000000E+04  0.00000000000E+00 0.  1.
    9000005    2    1    2  501    0  0.28083125914E+02  0.70964159367E+01 -0.86870316754E+03  0.10773562094E+04  0.63656279156E+03 0.  0.
         13    1    3    3    0    0  0.20135644918E+00  0.26045019969E+03 -0.75425550129E+03  0.79795720956E+03  0.00000000000E+00 0.  1.
          1    1    3    3  501    0  0.27881769465E+02 -0.25335378376E+03 -0.11444766625E+03  0.27939899986E+03  0.00000000000E+00 0.  1.
         21    1    1    2  502  501 -0.28083125914E+02 -0.70964159367E+01 -0.19193046140E+02  0.34747576899E+02  0.00000000000E+00 0. -1.
<mgrwt>
<rscale>  1 0.30000000E+03</rscale>
<asrwt>0</asrwt>
<pdfrwt beam="1">  1        1 0.40765099E+00 0.30000000E+03</pdfrwt>
<pdfrwt beam="2">0</pdfrwt>
<totfact> 0.95116593E-01</totfact>
</mgrwt>
</event>
<event>
 6    1  0.5260809E-006  0.3000000E+03  0.7818608E-02  0.1093470E+00
          1   -1    0    0  502    0  0.00000000000E+00  0.00000000000E+00  0.13869933845E+03  0.13869933845E+03  0.00000000000E+00 0.  1.
         13   -1    0    0    0    0 -0.00000000000E+00 -0.00000000000E+00 -0.10000000000E+04  0.10000000000E+04  0.00000000000E+00 0.  1.
    9000005    2    1    2  501    0  0.55337934316E+02  0.38917866359E+02 -0.82570907768E+03  0.10622555804E+04  0.66484174802E+03 0.  0.
         13    1    3    3    0    0 -0.30420736513E+03 -0.12674055227E+02 -0.39854345880E+03  0.50153727801E+03  0.00000000000E+00 0.  1.
          1    1    3    3  501    0  0.35954529945E+03  0.51591921586E+02 -0.42716561887E+03  0.56071830243E+03  0.00000000000E+00 0.  1.
         21    1    1    2  502  501 -0.55337934316E+02 -0.38917866359E+02 -0.35591583874E+02  0.76443758012E+02  0.00000000000E+00 0. -1.
<mgrwt>
<rscale>  1 0.30000000E+03</rscale>
<asrwt>0</asrwt>
<pdfrwt beam="1">  1        1 0.50436229E+00 0.30000000E+03</pdfrwt>
<pdfrwt beam="2">0</pdfrwt>
<totfact> 0.21214727E-01</totfact>
</mgrwt>
</event>
<event>
 6    1  0.5260809E-006  0.3000000E+03  0.7818608E-02  0.1093470E+00
          1   -1    0    0  502    0  0.00000000000E+00  0.00000000000E+00  0.11780225084E+03  0.11780225084E+03  0.00000000000E+00 0.  1.
         13   -1    0    0    0    0 -0.00000000000E+00 -0.00000000000E+00 -0.10000000000E+04  0.10000000000E+04  0.00000000000E+00 0.  1.
    9000005    2    1    2  501    0 -0.18967510538E+01 -0.10203335529E+02 -0.89281285820E+03  0.11029568387E+04  0.64752705167E+03 0.  0.
         13    1    3    3    0    0  0.20930318546E+03 -0.95207031394E+02 -0.57285764122E+02  0.23696805912E+03  0.00000000000E+00 0.  1.
          3    1    3    3  501    0 -0.21119993652E+03  0.85003695866E+02 -0.83552709408E+03  0.86598877962E+03  0.00000000000E+00 0.  1.
         21    1    1    2  502  501  0.18967510538E+01  0.10203335529E+02  0.10615109039E+02  0.14845412099E+02  0.00000000000E+00 0.  1.
<mgrwt>
<rscale>  1 0.30000000E+03</rscale>
<asrwt>0</asrwt>
<pdfrwt beam="1">  1        1 0.42837272E+00 0.30000000E+03</pdfrwt>
<pdfrwt beam="2">0</pdfrwt>
<totfact> 0.71125058E-01</totfact>
</mgrwt>
</event>
<event>
 6    1  0.5260809E-006  0.3000000E+03  0.7818608E-02  0.1093470E+00
          1   -1    0    0  502    0  0.00000000000E+00  0.00000000000E+00  0.11568379900E+03  0.11568379900E+03  0.00000000000E+00 0.  1.
         13   -1    0    0    0    0 -0.00000000000E+00 -0.00000000000E+00 -0.10000000000E+04  0.10000000000E+04  0.00000000000E+00 0.  1.
    9000005    2    1    2  501    0  0.78888869438E+01  0.68421585354E+01 -0.89204156478E+03  0.11026941525E+04  0.64814133565E+03 0.  0.
         13    1    3    3    0    0 -0.12643217544E+03 -0.29229762331E+03 -0.48108313829E+03  0.57694365541E+03  0.00000000000E+00 0.  1.
          3    1    3    3  501    0  0.13432106238E+03  0.29913978184E+03 -0.41095842649E+03  0.52575049708E+03  0.00000000000E+00 0.  1.
         21    1    1    2  502  501 -0.78888869438E+01 -0.68421585354E+01  0.77253637877E+01  0.12989646504E+02  0.00000000000E+00 0.  1.
<mgrwt>
<rscale>  1 0.30000000E+03</rscale>
<asrwt>0</asrwt>
<pdfrwt beam="1">  1        1 0.42066925E+00 0.30000000E+03</pdfrwt>
<pdfrwt beam="2">0</pdfrwt>
<totfact> 0.79445301E-01</totfact>
</mgrwt>
</event>
<event>
 6    1  0.5260809E-006  0.3000000E+03  0.7818608E-02  0.1093470E+00
          1   -1    0    0  502    0  0.00000000000E+00  0.00000000000E+00  0.12747115359E+03  0.12747115359E+03  0.00000000000E+00 0.  1.
         13   -1    0    0    0    0 -0.00000000000E+00 -0.00000000000E+00 -0.10000000000E+04  0.10000000000E+04  0.00000000000E+00 0.  1.
    9000005    2    1    2  501    0 -0.25285263012E+02  0.98798711742E+00 -0.88659083175E+03  0.10985218863E+04  0.64812553654E+03 0.  0.
         13    1    3    3    0    0  0.19808071024E+03  0.56785631690E+02 -0.26031402272E+02  0.20769739922E+03  0.00000000000E+00 0.  1.
          1    1    3    3  501    0 -0.22336597325E+03 -0.55797644572E+02 -0.86055942948E+03  0.89082448710E+03  0.00000000000E+00 0.  1.
         21    1    1    2  502  501  0.25285263012E+02 -0.98798711742E+00  0.14061985336E+02  0.28949267275E+02  0.00000000000E+00 0.  1.
<mgrwt>
<rscale>  1 0.30000000E+03</rscale>
<asrwt>0</asrwt>
<pdfrwt beam="1">  1        1 0.46353245E+00 0.30000000E+03</pdfrwt>
<pdfrwt beam="2">0</pdfrwt>
<totfact> 0.41695669E-01</totfact>
</mgrwt>
</event>
<event>
 6    1  0.5260809E-006  0.3000000E+03  0.7818608E-02  0.1093470E+00
          1   -1    0    0  502    0  0.00000000000E+00  0.00000000000E+00  0.11091743388E+03  0.11091743388E+03  0.00000000000E+00 0.  1.
         13   -1    0    0    0    0 -0.00000000000E+00 -0.00000000000E+00 -0.10000000000E+04  0.10000000000E+04  0.00000000000E+00 0.  1.
    9000005    2    1    2  501    0  0.19562621945E+02  0.24635509361E+02 -0.83487422354E+03  0.10482424875E+04  0.63309378372E+03 0.  0.
         13    1    3    3    0    0 -0.74798368277E+02 -0.26096689734E+03 -0.17484602529E+03  0.32290811381E+03  0.00000000000E+00 0.  1.
          1    1    3    3  501    0  0.94360990222E+02  0.28560240670E+03 -0.66002819824E+03  0.72533437370E+03  0.00000000000E+00 0.  1.
         21    1    1    2  502  501 -0.19562621945E+02 -0.24635509361E+02 -0.54208342578E+02  0.62674946381E+02  0.00000000000E+00 0. -1.
<mgrwt>
<rscale>  1 0.30000000E+03</rscale>
<asrwt>0</asrwt>
<pdfrwt beam="1">  1        1 0.40333697E+00 0.30000000E+03</pdfrwt>
<pdfrwt beam="2">0</pdfrwt>
<totfact> 0.10077694E+00</totfact>
</mgrwt>
</event>
<event>
 6    1  0.5260809E-006  0.3000000E+03  0.7818608E-02  0.1093470E+00
          1   -1    0    0  502    0  0.00000000000E+00  0.00000000000E+00  0.11062592073E+03  0.11062592073E+03  0.00000000000E+00 0.  1.
         13   -1    0    0    0    0 -0.00000000000E+00 -0.00000000000E+00 -0.10000000000E+04  0.10000000000E+04  0.00000000000E+00 0.  1.
    9000005    2    1    2  501    0 -0.15954126069E+02  0.23351915803E+02 -0.86170387254E+03  0.10710596921E+04  0.63548049056E+03 0.  0.
         13    1    3    3    0    0 -0.19452243956E+03  0.88531740652E+02 -0.85450985545E+03  0.88083139229E+03  0.00000000000E+00 0.  1.
          1    1    3    3  501    0  0.17856831349E+03 -0.65179824849E+02 -0.71940170977E+01  0.19022829977E+03  0.00000000000E+00 0.  1.
         21    1    1    2  502  501  0.15954126069E+02 -0.23351915803E+02 -0.27670206730E+02  0.39566228665E+02  0.00000000000E+00 0.  1.
<mgrwt>
<rscale>  1 0.30000000E+03</rscale>
<asrwt>0</asrwt>
<pdfrwt beam="1">  1        1 0.40227692E+00 0.30000000E+03</pdfrwt>
<pdfrwt beam="2">0</pdfrwt>
<totfact> 0.10220372E+00</totfact>
</mgrwt>
</event>
<event>
 6    1  0.5260809E-006  0.3000000E+03  0.7818608E-02  0.1093470E+00
          1   -1    0    0  502    0  0.00000000000E+00  0.00000000000E+00  0.11864186681E+03  0.11864186681E+03  0.00000000000E+00 0.  1.
         13   -1    0    0    0    0 -0.00000000000E+00 -0.00000000000E+00 -0.10000000000E+04  0.10000000000E+04  0.00000000000E+00 0.  1.
    9000005    2    1    2  501    0  0.29393986520E+02  0.25920076877E+01 -0.86152382971E+03  0.10830873377E+04  0.65573176447E+03 0.  0.
         13    1    3    3    0    0  0.23382314636E+02  0.29918200092E+03 -0.20725345134E+03  0.36470617681E+03  0.00000000000E+00 0.  1.
          1    1    3    3  501    0  0.60116718843E+01 -0.29658999323E+03 -0.65427037836E+03  0.71838116086E+03  0.00000000000E+00 0.  1.
         21    1    1    2  502  501 -0.29393986520E+02 -0.25920076877E+01 -0.19834303484E+02  0.35554529136E+02  0.00000000000E+00 0. -1.
<mgrwt>
<rscale>  1 0.30000000E+03</rscale>
<asrwt>0</asrwt>
<pdfrwt beam="1">  1        1 0.43142588E+00 0.30000000E+03</pdfrwt>
<pdfrwt beam="2">0</pdfrwt>
<totfact> 0.68038277E-01</totfact>
</mgrwt>
</event>
<event>
 6    1  0.5260809E-006  0.3000000E+03  0.7818608E-02  0.1093470E+00
          1   -1    0    0  502    0  0.00000000000E+00  0.00000000000E+00  0.12207052276E+03  0.12207052276E+03  0.00000000000E+00 0.  1.
         13   -1    0    0    0    0 -0.00000000000E+00 -0.00000000000E+00 -0.10000000000E+04  0.10000000000E+04  0.00000000000E+00 0.  1.
    9000005    2    1    2  501    0 -0.27854679614E+02  0.35833188714E+02 -0.80968861546E+03  0.10401149506E+04  0.65129375544E+03 0.  0.
         13    1    3    3    0    0 -0.23241944419E+01  0.68568775671E+02 -0.91984266635E+03  0.92239775028E+03  0.00000000000E+00 0.  1.
          1    1    3    3  501    0 -0.25530485172E+02 -0.32735586956E+02  0.11015405089E+03  0.11771720033E+03  0.00000000000E+00 0.  1.
         21    1    1    2  502  501  0.27854679614E+02 -0.35833188714E+02 -0.68240861782E+02  0.81955572150E+02  0.00000000000E+00 0.  1.
<mgrwt>
<rscale>  1 0.30000000E+03</rscale>
<asrwt>0</asrwt>
<pdfrwt beam="1">  1        1 0.44389375E+00 0.30000000E+03</pdfrwt>
<pdfrwt beam="2">0</pdfrwt>
<totfact> 0.56518814E-01</totfact>
</mgrwt>
</event>
<event>
 6    1  0.5260809E-006  0.3000000E+03  0.7818608E-02  0.1093470E+00
          1   -1    0    0  502    0  0.00000000000E+00  0.00000000000E+00  0.12358492659E+03  0.12358492659E+03  0.00000000000E+00 0.  1.
         13   -1    0    0    0    0 -0.00000000000E+00 -0.00000000000E+00 -0.10000000000E+04  0.10000000000E+04  0.00000000000E+00 0.  1.
    9000005    2    1    2  501    0  0.76532334756E+00  0.30074507668E+02 -0.80278106325E+03  0.10440423016E+04  0.66682968618E+03 0.  0.
         13    1    3    3    0    0  0.43539231244E+01 -0.45235239171E+02  0.11474883628E+03  0.12341992925E+03  0.00000000000E+00 0.  1.
          1    1    3    3  501    0 -0.35885997769E+01  0.75309746839E+02 -0.91752989953E+03  0.92062237239E+03  0.00000000000E+00 0.  1.
         21    1    1    2  502  501 -0.76532334756E+00 -0.30074507668E+02 -0.73634010158E+02  0.79542624946E+02  0.00000000000E+00 0. -1.
<mgrwt>
<rscale>  1 0.30000000E+03</rscale>
<asrwt>0</asrwt>
<pdfrwt beam="1">  1        1 0.44940068E+00 0.30000000E+03</pdfrwt>
<pdfrwt beam="2">0</pdfrwt>
<totfact> 0.51934215E-01</totfact>
</mgrwt>
</event>
<event>
 6    1  0.5260809E-006  0.3000000E+03  0.7818608E-02  0.1093470E+00
          1   -1    0    0  502    0  0.00000000000E+00  0.00000000000E+00  0.11889203854E+03  0.11889203854E+03  0.00000000000E+00 0.  1.
         13   -1    0    0    0    0 -0.00000000000E+00 -0.00000000000E+00 -0.10000000000E+04  0.10000000000E+04  0.00000000000E+00 0.  1.
    9000005    2    1    2  501    0 -0.24720806919E+01 -0.11203749198E+02 -0.88371651510E+03  0.11071259971E+04  0.66681441138E+03 0.  0.
         13    1    3    3    0    0 -0.61945592154E+01  0.27180193997E+03 -0.74272913577E+03  0.79092429237E+03  0.00000000000E+00 0.  1.
          3    1    3    3  501    0  0.37224785235E+01 -0.28300568917E+03 -0.14098737933E+03  0.31620170474E+03  0.00000000000E+00 0.  1.
         21    1    1    2  502  501  0.24720806919E+01  0.11203749198E+02  0.26085536433E+01  0.11766041440E+02  0.00000000000E+00 0.  1.
<mgrwt>
<rscale>  1 0.30000000E+03</rscale>
<asrwt>0</asrwt>
<pdfrwt beam="1">  1        1 0.43233560E+00 0.30000000E+03</pdfrwt>
<pdfrwt beam="2">0</pdfrwt>
<totfact> 0.67140341E-01</totfact>
</mgrwt>
</event>
<event>
 6    1  0.5260809E-006  0.3000000E+03  0.7818608E-02  0.1093470E+00
          1   -1    0    0  502    0  0.00000000000E+00  0.00000000000E+00  0.11198142402E+03  0.11198142402E+03  0.00000000000E+00 0.  1.
         13   -1    0    0    0    0 -0.00000000000E+00 -0.00000000000E+00 -0.10000000000E+04  0.10000000000E+04  0.00000000000E+00 0.  1.
    9000005    2    1    2  501    0 -0.32687329012E+02 -0.27049243338E+02 -0.87205689334E+03  0.10666504373E+04  0.61274775166E+03 0.  0.
         13    1    3    3    0    0 -0.25684478551E+03 -0.16255170599E+03 -0.67038606459E+03  0.73607728980E+03  0.00000000000E+00 0.  1.
          3    1    3    3  501    0  0.22415745650E+03  0.13550246266E+03 -0.20167082875E+03  0.33057314752E+03  0.00000000000E+00 0.  1.
         21    1    1    2  502  501  0.32687329012E+02  0.27049243338E+02 -0.15961682636E+02  0.45330986705E+02  0.00000000000E+00 0. -1.
<mgrwt>
<rscale>  1 0.30000000E+03</rscale>
<asrwt>0</asrwt>
<pdfrwt beam="1">  1        1 0.40720604E+00 0.30000000E+03</pdfrwt>
<pdfrwt beam="2">0</pdfrwt>
<totfact> 0.95689300E-01</totfact>
</mgrwt>
</event>
<event>
 6    1  0.5260809E-006  0.3000000E+03  0.7818608E-02  0.1093470E+00
          1   -1    0    0  502    0  0.00000000000E+00  0.00000000000E+00  0.11130909704E+03  0.11130909704E+03  0.00000000000E+00 0.  1.
         13   -1    0    0    0    0 -0.00000000000E+00 -0.00000000000E+00 -0.10000000000E+04  0.10000000000E+04  0.00000000000E+00 0.  1.
    9000005    2    1    2  501    0 -0.10948561544E+02 -0.94929360570E+00 -0.87177988702E+03  0.10911409385E+04  0.65610030034E+03 0.  0.
         13    1    3    3    0    0 -0.25508786785E+03  0.19349979307E+03 -0.58695377182E+03  0.66860056873E+03  0.00000000000E+00 0.  1.
          3    1    3    3  501    0  0.24413930631E+03 -0.19444908668E+03 -0.28482611519E+03  0.42254036978E+03  0.00000000000E+00 0.  1.
         21    1    1    2  502  501  0.10948561544E+02  0.94929360570E+00 -0.16911015945E+02  0.20168158531E+02  0.00000000000E+00 0. -1.
<mgrwt>
<rscale>  1 0.30000000E+03</rscale>
<asrwt>0</asrwt>
<pdfrwt beam="1">  1        1 0.40476121E+00 0.30000000E+03</pdfrwt>
<pdfrwt beam="2">0</pdfrwt>
<totfact> 0.98881673E-01</totfact>
</mgrwt>
</event>
<event>
 6    1  0.5260809E-006  0.3000000E+03  0.7818608E-02  0.1093470E+00
          1   -1    0    0  502    0  0.00000000000E+00  0.00000000000E+00  0.12778379193E+03  0.12778379193E+03  0.00000000000E+00 0.  1.
         13   -1    0    0    0    0 -0.00000000000E+00 -0.00000000000E+00 -0.10000000000E+04  0.10000000000E+04  0.00000000000E+00 0.  1.
    9000005    2    1    2  501    0 -0.12871321107E+02 -0.20344229321E+02 -0.88641529197E+03  0.10998343276E+04  0.65063347571E+03 0.  0.
         13    1    3    3    0    0  0.12745907020E+03  0.55571703218E+02 -0.92523982047E+03  0.93562960308E+03  0.00000000000E+00 0.  1.
          1    1    3    3  501    0 -0.14033039131E+03 -0.75915932539E+02  0.38824528497E+02  0.16420472451E+03  0.00000000000E+00 0.  1.
         21    1    1    2  502  501  0.12871321107E+02  0.20344229321E+02  0.14199083898E+02  0.27949464346E+02  0.00000000000E+00 0.  1.
<mgrwt>
<rscale>  1 0.30000000E+03</rscale>
<asrwt>0</asrwt>
<pdfrwt beam="1">  1        1 0.46466931E+00 0.30000000E+03</pdfrwt>
<pdfrwt beam="2">0</pdfrwt>
<totfact> 0.40952693E-01</totfact>
</mgrwt>
</event>
<event>
 6    1  0.5260809E-006  0.3000000E+03  0.7818608E-02  0.1093470E+00
          1   -1    0    0  502    0  0.00000000000E+00  0.00000000000E+00  0.11674424015E+03  0.11674424015E+03  0.00000000000E+00 0.  1.
         13   -1    0    0    0    0 -0.00000000000E+00 -0.00000000000E+00 -0.10000000000E+04  0.10000000000E+04  0.00000000000E+00 0.  1.
    9000005    2    1    2  501    0  0.19698992952E+02 -0.92027376496E+01 -0.88314053439E+03  0.10950013337E+04  0.64700693709E+03 0.  0.
         13    1    3    3    0    0 -0.16927423692E+02 -0.32139192234E+03 -0.54801675683E+03  0.63553258861E+03  0.00000000000E+00 0.  1.
          3    1    3    3  501    0  0.36626416644E+02  0.31218918469E+03 -0.33512377756E+03  0.45946874510E+03  0.00000000000E+00 0.  1.
         21    1    1    2  502  501 -0.19698992952E+02  0.92027376496E+01 -0.11522545250E+00  0.21742906440E+02  0.00000000000E+00 0. -1.
<mgrwt>
<rscale>  1 0.30000000E+03</rscale>
<asrwt>0</asrwt>
<pdfrwt beam="1">  1        1 0.42452540E+00 0.30000000E+03</pdfrwt>
<pdfrwt beam="2">0</pdfrwt>
<totfact> 0.75186152E-01</totfact>
</mgrwt>
</event>
<event>
 6    1  0.5260809E-006  0.3000000E+03  0.7818608E-02  0.1093470E+00
          1   -1    0    0  502    0  0.00000000000E+00  0.00000000000E+00  0.13813951850E+03  0.13813951850E+03  0.00000000000E+00 0.  1.
         13   -1    0    0    0    0 -0.00000000000E+00 -0.00000000000E+00 -0.10000000000E+04  0.10000000000E+04  0.00000000000E+00 0.  1.
    9000005    2    1    2  501    0 -0.28107426731E+02 -0.12589514820E+02 -0.88485956106E+03  0.10997015037E+04  0.65224108360E+03 0.  0.
         13    1    3    3    0    0 -0.12392378889E+03 -0.21881421589E+02  0.67287237748E+02  0.14270064620E+03  0.00000000000E+00 0.  1.
          1    1    3    3  501    0  0.95816362158E+02  0.92919067686E+01 -0.95214679880E+03  0.95700085750E+03  0.00000000000E+00 0.  1.
         21    1    1    2  502  501  0.28107426731E+02  0.12589514820E+02  0.22999079553E+02  0.38438014792E+02  0.00000000000E+00 0.  1.
<mgrwt>
<rscale>  1 0.30000000E+03</rscale>
<asrwt>0</asrwt>
<pdfrwt beam="1">  1        1 0.50232658E+00 0.30000000E+03</pdfrwt>
<pdfrwt beam="2">0</pdfrwt>
<totfact> 0.21956218E-01</totfact>
</mgrwt>
</event>
<event>
 6    1  0.5260809E-006  0.3000000E+03  0.7818608E-02  0.1093470E+00
          1   -1    0    0  502    0  0.00000000000E+00  0.00000000000E+00  0.11777978184E+03  0.11777978184E+03  0.00000000000E+00 0.  1.
         13   -1    0    0    0    0 -0.00000000000E+00 -0.00000000000E+00 -0.10000000000E+04  0.10000000000E+04  0.00000000000E+00 0.  1.
    9000005    2    1    2  501    0  0.68018518014E+01 -0.11690463633E+02 -0.89030153025E+03  0.11020241564E+04  0.64933619521E+03 0.  0.
         13    1    3    3    0    0 -0.11072477375E+03  0.26004557750E+03 -0.18686958455E+03  0.33882727093E+03  0.00000000000E+00 0.  1.
          1    1    3    3  501    0  0.11752662555E+03 -0.27173604113E+03 -0.70343194570E+03  0.76319688547E+03  0.00000000000E+00 0.  1.
         21    1    1    2  502  501 -0.68018518014E+01  0.11690463633E+02  0.80813120850E+01  0.15755625436E+02  0.00000000000E+00 0. -1.
<mgrwt>
<rscale>  1 0.30000000E+03</rscale>
<asrwt>0</asrwt>
<pdfrwt beam="1">  1        1 0.42829102E+00 0.30000000E+03</pdfrwt>
<pdfrwt beam="2">0</pdfrwt>
<totfact> 0.71209256E-01</totfact>
</mgrwt>
</event>
<event>
 6    1  0.5260809E-006  0.3000000E+03  0.7818608E-02  0.1093470E+00
          1   -1    0    0  502    0  0.00000000000E+00  0.00000000000E+00  0.11485596556E+03  0.11485596556E+03  0.00000000000E+00 0.  1.
         13   -1    0    0    0    0 -0.00000000000E+00 -0.00000000000E+00 -0.10000000000E+04  0.10000000000E+04  0.00000000000E+00 0.  1.
    9000005    2    1    2  501    0 -0.18436561573E+02 -0.21107421408E+02 -0.86270598517E+03  0.10789547665E+04  0.64737650653E+03 0.  0.
         13    1    3    3    0    0  0.21433085524E+03 -0.21033565643E+03 -0.63471185116E+03  0.70216660264E+03  0.00000000000E+00 0.  1.
          1    1    3    3  501    0 -0.23276741681E+03  0.18922823502E+03 -0.22799413402E+03  0.37678816383E+03  0.00000000000E+00 0.  1.
         21    1    1    2  502  501  0.18436561573E+02  0.21107421408E+02 -0.22438049266E+02  0.35901199089E+02  0.00000000000E+00 0.  1.
<mgrwt>
<rscale>  1 0.30000000E+03</rscale>
<asrwt>0</asrwt>
<pdfrwt beam="1">  1        1 0.41765894E+00 0.30000000E+03</pdfrwt>
<pdfrwt beam="2">0</pdfrwt>
<totfact> 0.82892050E-01</totfact>
</mgrwt>
</event>
<event>
 6    1  0.5260809E-006  0.3000000E+03  0.7818608E-02  0.1093470E+00
          1   -1    0    0  502    0  0.00000000000E+00  0.00000000000E+00  0.11400889119E+03  0.11400889119E+03  0.00000000000E+00 0.  1.
         13   -1    0    0    0    0 -0.00000000000E+00 -0.00000000000E+00 -0.10000000000E+04  0.10000000000E+04  0.00000000000E+00 0.  1.
    9000005    2    1    2  501    0 -0.16868364190E+01 -0.99719751887E+01 -0.82520381790E+03  0.10523860022E+04  0.65303343782E+03 0.  0.
         13    1    3    3    0    0  0.17603023875E+03  0.13335595907E+03 -0.79133891016E+03  0.82157636742E+03  0.00000000000E+00 0.  1.
          3    1    3    3  501    0 -0.17771707516E+03 -0.14332793426E+03 -0.33864907739E+02  0.23080963481E+03  0.00000000000E+00 0.  1.
         21    1    1    2  502  501  0.16868364190E+01  0.99719751887E+01 -0.60787290916E+02  0.61622888955E+02  0.00000000000E+00 0.  1.
<mgrwt>
<rscale>  1 0.30000000E+03</rscale>
<asrwt>0</asrwt>
<pdfrwt beam="1">  1        1 0.41457866E+00 0.30000000E+03</pdfrwt>
<pdfrwt beam="2">0</pdfrwt>
<totfact> 0.86523328E-01</totfact>
</mgrwt>
</event>
<event>
 6    1  0.5260809E-006  0.3000000E+03  0.7818608E-02  0.1093470E+00
          1   -1    0    0  502    0  0.00000000000E+00  0.00000000000E+00  0.10865536713E+03  0.10865536713E+03  0.00000000000E+00 0.  1.
         13   -1    0    0    0    0 -0.00000000000E+00 -0.00000000000E+00 -0.10000000000E+04  0.10000000000E+04  0.00000000000E+00 0.  1.
    9000005    2    1    2  501    0 -0.13782976447E+02  0.81674517188E+01 -0.89969442580E+03  0.10905889134E+04  0.61617971451E+03 0.  0.
         13    1    3    3    0    0  0.11466174580E+03 -0.23548094063E+03 -0.70833604321E+03  0.75520761348E+03  0.00000000000E+00 0.  1.
          1    1    3    3  501    0 -0.12844472224E+03  0.24364839235E+03 -0.19135838259E+03  0.33538129995E+03  0.00000000000E+00 0.  1.
         21    1    1    2  502  501  0.13782976447E+02 -0.81674517188E+01  0.83497929339E+01  0.18066453701E+02  0.00000000000E+00 0. -1.
<mgrwt>
<rscale>  1 0.30000000E+03</rscale>
<asrwt>0</asrwt>
<pdfrwt beam="1">  1        1 0.39511126E+00 0.30000000E+03</pdfrwt>
<pdfrwt beam="2">0</pdfrwt>
<totfact> 0.11225133E+00</totfact>
</mgrwt>
</event>
<event>
 6    1  0.5260809E-006  0.3000000E+03  0.7818608E-02  0.1093470E+00
          1   -1    0    0  502    0  0.00000000000E+00  0.00000000000E+00  0.11704852377E+03  0.11704852377E+03  0.00000000000E+00 0.  1.
         13   -1    0    0    0    0 -0.00000000000E+00 -0.00000000000E+00 -0.10000000000E+04  0.10000000000E+04  0.00000000000E+00 0.  1.
    9000005    2    1    2  501    0  0.46411506165E+01  0.24107544694E+02 -0.88065712328E+03  0.10923913129E+04  0.64587854727E+03 0.  0.
         13    1    3    3    0    0 -0.44575083203E+02 -0.30189327626E+03 -0.32148661645E+03  0.44326079553E+03  0.00000000000E+00 0.  1.
          1    1    3    3  501    0  0.49216233819E+02  0.32600082096E+03 -0.55917050683E+03  0.64913051742E+03  0.00000000000E+00 0.  1.
         21    1    1    2  502  501 -0.46411506165E+01 -0.24107544694E+02 -0.22943529426E+01  0.24657210825E+02  0.00000000000E+00 0. -1.
<mgrwt>
<rscale>  1 0.30000000E+03</rscale>
<asrwt>0</asrwt>
<pdfrwt beam="1">  1        1 0.42563189E+00 0.30000000E+03</pdfrwt>
<pdfrwt beam="2">0</pdfrwt>
<totfact> 0.73998309E-01</totfact>
</mgrwt>
</event>
<event>
 6    1  0.5260809E-006  0.3000000E+03  0.7818608E-02  0.1093470E+00
          1   -1    0    0  502    0  0.00000000000E+00  0.00000000000E+00  0.10793951794E+03  0.10793951794E+03  0.00000000000E+00 0.  1.
         13   -1    0    0    0    0 -0.00000000000E+00 -0.00000000000E+00 -0.10000000000E+04  0.10000000000E+04  0.00000000000E+00 0.  1.
    9000005    2    1    2  501    0  0.93956855113E+01 -0.62089387412E+01 -0.89736766370E+03  0.10954897788E+04  0.62825337395E+03 0.  0.
         13    1    3    3    0    0 -0.20156334598E+03  0.15432615343E+03 -0.13327400398E+03  0.28671641776E+03  0.00000000000E+00 0.  1.
          3    1    3    3  501    0  0.21095903149E+03 -0.16053509217E+03 -0.76409365972E+03  0.80877336109E+03  0.00000000000E+00 0.  1.
         21    1    1    2  502  501 -0.93956855113E+01  0.62089387412E+01  0.53071816412E+01  0.12449739093E+02  0.00000000000E+00 0.  1.
<mgrwt>
<rscale>  1 0.30000000E+03</rscale>
<asrwt>0</asrwt>
<pdfrwt beam="1">  1        1 0.39250817E+00 0.30000000E+03</pdfrwt>
<pdfrwt beam="2">0</pdfrwt>
<totfact> 0.11609965E+00</totfact>
</mgrwt>
</event>
<event>
 6    1  0.5260809E-006  0.3000000E+03  0.7818608E-02  0.1093470E+00
          1   -1    0    0  502    0  0.00000000000E+00  0.00000000000E+00  0.11893275920E+03  0.11893275920E+03  0.00000000000E+00 0.  1.
         13   -1    0    0    0    0 -0.00000000000E+00 -0.00000000000E+00 -0.10000000000E+04  0.10000000000E+04  0.00000000000E+00 0.  1.
    9000005    2    1    2  501    0 -0.25941136645E+02 -0.25311068090E+02 -0.85544693170E+03  0.10745481563E+04  0.64926935432E+03 0.  0.
         13    1    3    3    0    0  0.29737495694E+03  0.82490316552E+02 -0.43418036439E+03  0.53268105482E+03  0.00000000000E+00 0.  1.
          1    1    3    3  501    0 -0.32331609359E+03 -0.10780138464E+03 -0.42126656731E+03  0.54186710145E+03  0.00000000000E+00 0.  1.
         21    1    1    2  502  501  0.25941136645E+02  0.25311068090E+02 -0.25620309102E+02  0.44384602925E+02  0.00000000000E+00 0. -1.
<mgrwt>
<rscale>  1 0.30000000E+03</rscale>
<asrwt>0</asrwt>
<pdfrwt beam="1">  1        1 0.43248367E+00 0.30000000E+03</pdfrwt>
<pdfrwt beam="2">0</pdfrwt>
<totfact> 0.66995106E-01</totfact>
</mgrwt>
</event>
<event>
 6    1  0.5260809E-006  0.3000000E+03  0.7818608E-02  0.1093470E+00
          1   -1    0    0  502    0  0.00000000000E+00  0.00000000000E+00  0.15367812450E+03  0.15367812450E+03  0.00000000000E+00 0.  1.
         13   -1    0    0    0    0 -0.00000000000E+00 -0.00000000000E+00 -0.10000000000E+04  0.10000000000E+04  0.00000000000E+00 0.  1.
    9000005    2    1    2  501    0 -0.42259086353E+02  0.11982218600E+02 -0.88348416482E+03  0.10961417040E+04  0.64734300160E+03 0.  0.
         13    1    3    3    0    0 -0.10099809197E+03 -0.10978265113E+03  0.46600289663E+02  0.15628317909E+03  0.00000000000E+00 0.  1.
          3    1    3    3  501    0  0.58739005615E+02  0.12176486973E+03 -0.93008445448E+03  0.93985852486E+03  0.00000000000E+00 0.  1.
         21    1    1    2  502  501  0.42259086353E+02 -0.11982218600E+02  0.37162289313E+02  0.57536420544E+02  0.00000000000E+00 0. -1.
<mgrwt>
<rscale>  1 0.30000000E+03</rscale>
<asrwt>0</asrwt>
<pdfrwt beam="1">  1        1 0.55883072E+00 0.30000000E+03</pdfrwt>
<pdfrwt beam="2">0</pdfrwt>
<totfact> 0.87383601E-02</totfact>
</mgrwt>
</event>
<event>
 6    1  0.5260809E-006  0.3000000E+03  0.7818608E-02  0.1093470E+00
          1   -1    0    0  502    0  0.00000000000E+00  0.00000000000E+00  0.12166711704E+03  0.12166711704E+03  0.00000000000E+00 0.  1.
         13   -1    0    0    0    0 -0.00000000000E+00 -0.00000000000E+00 -0.10000000000E+04  0.10000000000E+04  0.00000000000E+00 0.  1.
    9000005    2    1    2  501    0 -0.39050865148E+01  0.30959846518E+02 -0.87464735737E+03  0.10902450723E+04  0.65011734026E+03 0.  0.
         13    1    3    3    0    0 -0.23795437361E+03 -0.20793979159E+03 -0.40550006420E+03  0.51409293217E+03  0.00000000000E+00 0.  1.
          1    1    3    3  501    0  0.23404928709E+03  0.23889963811E+03 -0.46914729317E+03  0.57615214012E+03  0.00000000000E+00 0.  1.
         21    1    1    2  502  501  0.39050865148E+01 -0.30959846518E+02 -0.36855255981E+01  0.31422044746E+02  0.00000000000E+00 0. -1.
<mgrwt>
<rscale>  1 0.30000000E+03</rscale>
<asrwt>0</asrwt>
<pdfrwt beam="1">  1        1 0.44242681E+00 0.30000000E+03</pdfrwt>
<pdfrwt beam="2">0</pdfrwt>
<totfact> 0.57792592E-01</totfact>
</mgrwt>
</event>
<event>
 6    1  0.5260809E-006  0.3000000E+03  0.7818608E-02  0.1093470E+00
          1   -1    0    0  502    0  0.00000000000E+00  0.00000000000E+00  0.14391131474E+03  0.14391131474E+03  0.00000000000E+00 0.  1.
         13   -1    0    0    0    0 -0.00000000000E+00 -0.00000000000E+00 -0.10000000000E+04  0.10000000000E+04  0.00000000000E+00 0.  1.
    9000005    2    1    2  501    0 -0.10919230959E+02 -0.10383207612E+01 -0.88972156989E+03  0.11085350707E+04  0.66115446252E+03 0.  0.
         13    1    3    3    0    0 -0.28329629774E+01 -0.25764903492E+03 -0.79361984520E+03  0.83440008963E+03  0.00000000000E+00 0.  1.
          3    1    3    3  501    0 -0.80862679813E+01  0.25661071416E+03 -0.96101724691E+02  0.27413498106E+03  0.00000000000E+00 0.  1.
         21    1    1    2  502  501  0.10919230959E+02  0.10383207612E+01  0.33632884630E+02  0.35376244053E+02  0.00000000000E+00 0.  1.
<mgrwt>
<rscale>  1 0.30000000E+03</rscale>
<asrwt>0</asrwt>
<pdfrwt beam="1">  1        1 0.52331498E+00 0.30000000E+03</pdfrwt>
<pdfrwt beam="2">0</pdfrwt>
<totfact> 0.15348336E-01</totfact>
</mgrwt>
</event>
<event>
 6    1  0.5260809E-006  0.3000000E+03  0.7818608E-02  0.1093470E+00
          1   -1    0    0  502    0  0.00000000000E+00  0.00000000000E+00  0.12754871109E+03  0.12754871109E+03  0.00000000000E+00 0.  1.
         13   -1    0    0    0    0 -0.00000000000E+00 -0.00000000000E+00 -0.10000000000E+04  0.10000000000E+04  0.00000000000E+00 0.  1.
    9000005    2    1    2  501    0  0.21533092709E+02  0.52120068068E+02 -0.82193355668E+03  0.10518373061E+04  0.65391648651E+03 0.  0.
         13    1    3    3    0    0  0.14146044493E+03 -0.23613644520E+03 -0.62440868037E+03  0.68239114762E+03  0.00000000000E+00 0.  1.
          3    1    3    3  501    0 -0.11992735222E+03  0.28825651327E+03 -0.19752487631E+03  0.36944615848E+03  0.00000000000E+00 0.  1.
         21    1    1    2  502  501 -0.21533092709E+02 -0.52120068068E+02 -0.50517732221E+02  0.75711404991E+02  0.00000000000E+00 0. -1.
<mgrwt>
<rscale>  1 0.30000000E+03</rscale>
<asrwt>0</asrwt>
<pdfrwt beam="1">  1        1 0.46381447E+00 0.30000000E+03</pdfrwt>
<pdfrwt beam="2">0</pdfrwt>
<totfact> 0.41510465E-01</totfact>
</mgrwt>
</event>
<event>
 6    1  0.5260809E-006  0.3000000E+03  0.7818608E-02  0.1093470E+00
          1   -1    0    0  502    0  0.00000000000E+00  0.00000000000E+00  0.11102579224E+03  0.11102579224E+03  0.00000000000E+00 0.  1.
         13   -1    0    0    0    0 -0.00000000000E+00 -0.00000000000E+00 -0.10000000000E+04  0.10000000000E+04  0.00000000000E+00 0.  1.
    9000005    2    1    2  501    0 -0.90015647462E+01  0.83577444857E+01 -0.88445962517E+03  0.10979390999E+04  0.65042336862E+03 0.  0.
         13    1    3    3    0    0 -0.72971636694E+02  0.29045811956E+03 -0.68201215359E+03  0.74487002666E+03  0.00000000000E+00 0.  1.
          3    1    3    3  501    0  0.63970071948E+02 -0.28210037507E+03 -0.20244747159E+03  0.35306907323E+03  0.00000000000E+00 0.  1.
         21    1    1    2  502  501  0.90015647462E+01 -0.83577444857E+01 -0.45145825808E+01  0.13086692349E+02  0.00000000000E+00 0. -1.
<mgrwt>
<rscale>  1 0.30000000E+03</rscale>
<asrwt>0</asrwt>
<pdfrwt beam="1">  1        1 0.40373100E+00 0.30000000E+03</pdfrwt>
<pdfrwt beam="2">0</pdfrwt>
<totfact> 0.10025009E+00</totfact>
</mgrwt>
</event>
<event>
 6    1  0.5260809E-006  0.3000000E+03  0.7818608E-02  0.1093470E+00
          1   -1    0    0  502    0  0.00000000000E+00  0.00000000000E+00  0.11196173433E+03  0.11196173433E+03  0.00000000000E+00 0.  1.
         13   -1    0    0    0    0 -0.00000000000E+00 -0.00000000000E+00 -0.10000000000E+04  0.10000000000E+04  0.00000000000E+00 0.  1.
    9000005    2    1    2  501    0  0.15630986264E+01 -0.11071963935E+02 -0.88674403565E+03  0.11007053275E+04  0.65200628955E+03 0.  0.
         13    1    3    3    0    0  0.14576353176E+03 -0.29678415260E+03 -0.48680222335E+03  0.58847620604E+03  0.00000000000E+00 0.  1.
          3    1    3    3  501    0 -0.14420043313E+03  0.28571218866E+03 -0.39994181230E+03  0.51222912148E+03  0.00000000000E+00 0.  1.
         21    1    1    2  502  501 -0.15630986264E+01  0.11071963935E+02 -0.12942300215E+01  0.11256406799E+02  0.00000000000E+00 0.  1.
<mgrwt>
<rscale>  1 0.30000000E+03</rscale>
<asrwt>0</asrwt>
<pdfrwt beam="1">  1        1 0.40713444E+00 0.30000000E+03</pdfrwt>
<pdfrwt beam="2">0</pdfrwt>
<totfact> 0.95781693E-01</totfact>
</mgrwt>
</event>
<event>
 6    1  0.5260809E-006  0.3000000E+03  0.7818608E-02  0.1093470E+00
          1   -1    0    0  502    0  0.00000000000E+00  0.00000000000E+00  0.10535218907E+03  0.10535218907E+03  0.00000000000E+00 0.  1.
         13   -1    0    0    0    0 -0.00000000000E+00 -0.00000000000E+00 -0.10000000000E+04  0.10000000000E+04  0.00000000000E+00 0.  1.
    9000005    2    1    2  501    0 -0.13940346847E+02 -0.14253304377E+01 -0.90133612514E+03  0.10898248460E+04  0.61246634157E+03 0.  0.
         13    1    3    3    0    0  0.28173680939E+03  0.46476980436E+02 -0.60236998340E+03  0.66662233414E+03  0.00000000000E+00 0.  1.
          3    1    3    3  501    0 -0.29567715623E+03 -0.47902310874E+02 -0.29896614175E+03  0.42320251183E+03  0.00000000000E+00 0.  1.
         21    1    1    2  502  501  0.13940346847E+02  0.14253304377E+01  0.66883142137E+01  0.15527343111E+02  0.00000000000E+00 0.  1.
<mgrwt>
<rscale>  1 0.30000000E+03</rscale>
<asrwt>0</asrwt>
<pdfrwt beam="1">  1        1 0.38309968E+00 0.30000000E+03</pdfrwt>
<pdfrwt beam="2">0</pdfrwt>
<totfact> 0.13099249E+00</totfact>
</mgrwt>
</event>
<event>
 6    1  0.5260809E-006  0.3000000E+03  0.7818608E-02  0.1093470E+00
          1   -1    0    0  502    0  0.00000000000E+00  0.00000000000E+00  0.13715406580E+03  0.13715406580E+03  0.00000000000E+00 0.  1.
         13   -1    0    0    0    0 -0.00000000000E+00 -0.00000000000E+00 -0.10000000000E+04  0.10000000000E+04  0.00000000000E+00 0.  1.
    9000005    2    1    2  501    0 -0.38137437172E+02  0.10642388440E+02 -0.88241665596E+03  0.10929869095E+04  0.64373403287E+03 0.  0.
         13    1    3    3    0    0  0.24627271666E+03  0.18506359759E+03 -0.36896676248E+03  0.48066127152E+03  0.00000000000E+00 0.  1.
          1    1    3    3  501    0 -0.28441015384E+03 -0.17442120915E+03 -0.51344989348E+03  0.61232563797E+03  0.00000000000E+00 0.  1.
         21    1    1    2  502  501  0.38137437172E+02 -0.10642388440E+02  0.19570721751E+02  0.44167156300E+02  0.00000000000E+00 0. -1.
<mgrwt>
<rscale>  1 0.30000000E+03</rscale>
<asrwt>0</asrwt>
<pdfrwt beam="1">  1        1 0.49874311E+00 0.30000000E+03</pdfrwt>
<pdfrwt beam="2">0</pdfrwt>
<totfact> 0.23329443E-01</totfact>
</mgrwt>
</event>
<event>
 6    1  0.5260809E-006  0.3000000E+03  0.7818608E-02  0.1093470E+00
          1   -1    0    0  502    0  0.00000000000E+00  0.00000000000E+00  0.11642909590E+03  0.11642909590E+03  0.00000000000E+00 0.  1.
         13   -1    0    0    0    0 -0.00000000000E+00 -0.00000000000E+00 -0.10000000000E+04  0.10000000000E+04  0.00000000000E+00 0.  1.
    9000005    2    1    2  501    0  0.81357422296E+01  0.64806384844E+01 -0.88784369762E+03  0.11051842864E+04  0.65807118648E+03 0.  0.
         13    1    3    3    0    0 -0.28382977970E+03  0.17718245930E+01 -0.70667230721E+03  0.76154332312E+03  0.00000000000E+00 0.  1.
          1    1    3    3  501    0  0.29196552193E+03  0.47088138913E+01 -0.18117139041E+03  0.34364096326E+03  0.00000000000E+00 0.  1.
         21    1    1    2  502  501 -0.81357422296E+01 -0.64806384844E+01  0.42727935270E+01  0.11244809528E+02  0.00000000000E+00 0.  1.
<mgrwt>
<rscale>  1 0.30000000E+03</rscale>
<asrwt>0</asrwt>
<pdfrwt beam="1">  1        1 0.42337942E+00 0.30000000E+03</pdfrwt>
<pdfrwt beam="2">0</pdfrwt>
<totfact> 0.76432799E-01</totfact>
</mgrwt>
</event>
<event>
 6    1  0.5260809E-006  0.3000000E+03  0.7818608E-02  0.1093470E+00
          1   -1    0    0  502    0  0.00000000000E+00  0.00000000000E+00  0.12930514409E+03  0.12930514409E+03  0.00000000000E+00 0.  1.
         13   -1    0    0    0    0 -0.00000000000E+00 -0.00000000000E+00 -0.10000000000E+04  0.10000000000E+04  0.00000000000E+00 0.  1.
    9000005    2    1    2  501    0 -0.63031594105E+01  0.19730065431E+02 -0.88964964185E+03  0.11012286555E+04  0.64869026600E+03 0.  0.
         13    1    3    3    0    0 -0.32718300034E+03  0.24368979069E+02 -0.45386843962E+03  0.56003493045E+03  0.00000000000E+00 0.  1.
          3    1    3    3  501    0  0.32087984093E+03 -0.46389136377E+01 -0.43578120223E+03  0.54119372507E+03  0.00000000000E+00 0.  1.
         21    1    1    2  502  501  0.63031594105E+01 -0.19730065431E+02  0.18954785942E+02  0.28076488573E+02  0.00000000000E+00 0. -1.
<mgrwt>
<rscale>  1 0.30000000E+03</rscale>
<asrwt>0</asrwt>
<pdfrwt beam="1">  1        1 0.47020152E+00 0.30000000E+03</pdfrwt>
<pdfrwt beam="2">0</pdfrwt>
<totfact> 0.37482873E-01</totfact>
</mgrwt>
</event>
<event>
 6    1  0.5260809E-006  0.3000000E+03  0.7818608E-02  0.1093470E+00
          1   -1    0    0  502    0  0.00000000000E+00  0.00000000000E+00  0.11326655929E+03  0.11326655929E+03  0.00000000000E+00 0.  1.
         13   -1    0    0    0    0 -0.00000000000E+00 -0.00000000000E+00 -0.10000000000E+04  0.10000000000E+04  0.00000000000E+00 0.  1.
    9000005    2    1    2  501    0  0.11635120940E+02  0.45278054542E+00 -0.85469652539E+03  0.10791792450E+04  0.65877622252E+03 0.  0.
         13    1    3    3    0    0  0.29933307289E+03  0.10796565561E+03 -0.60410809769E+03  0.68279093800E+03  0.00000000000E+00 0.  1.
          1    1    3    3  501    0 -0.28769795195E+03 -0.10751287506E+03 -0.25058842770E+03  0.39638830704E+03  0.00000000000E+00 0.  1.
         21    1    1    2  502  501 -0.11635120940E+02 -0.45278054542E+00 -0.32036915322E+02  0.34087314252E+02  0.00000000000E+00 0.  1.
<mgrwt>
<rscale>  1 0.30000000E+03</rscale>
<asrwt>0</asrwt>
<pdfrwt beam="1">  1        1 0.41187927E+00 0.30000000E+03</pdfrwt>
<pdfrwt beam="2">0</pdfrwt>
<totfact> 0.89800115E-01</totfact>
</mgrwt>
</event>
<event>
 6    1  0.5260809E-006  0.3000000E+03  0.7818608E-02  0.1093470E+00
          1   -1    0    0  502    0  0.00000000000E+00  0.00000000000E+00  0.12849158675E+03  0.12849158675E+03  0.00000000000E+00 0.  1.
         13   -1    0    0    0    0 -0.00000000000E+00 -0.00000000000E+00 -0.10000000000E+04  0.10000000000E+04  0.00000000000E+00 0.  1.
    9000005    2    1    2  501    0  0.18610638745E+02 -0.14098500400E+02 -0.88489802798E+03  0.11015768070E+04  0.65565373341E+03 0.  0.
         13    1    3    3    0    0 -0.11315899986E+03 -0.26972526856E+03 -0.70265609440E+03  0.76110594975E+03  0.00000000000E+00 0.  1.
          1    1    3    3  501    0  0.13176963861E+03  0.25562676816E+03 -0.18224193358E+03  0.34047085722E+03  0.00000000000E+00 0.  1.
         21    1    1    2  502  501 -0.18610638745E+02  0.14098500400E+02  0.13389614737E+02  0.26914779784E+02  0.00000000000E+00 0.  1.
<mgrwt>
<rscale>  1 0.30000000E+03</rscale>
<asrwt>0</asrwt>
<pdfrwt beam="1">  1        1 0.46724312E+00 0.30000000E+03</pdfrwt>
<pdfrwt beam="2">0</pdfrwt>
<totfact> 0.39307625E-01</totfact>
</mgrwt>
</event>
<event>
 6    1  0.5260809E-006  0.3000000E+03  0.7818608E-02  0.1093470E+00
          1   -1    0    0  502    0  0.00000000000E+00  0.00000000000E+00  0.13094853807E+03  0.13094853807E+03  0.00000000000E+00 0.  1.
         13   -1    0    0    0    0 -0.00000000000E+00 -0.00000000000E+00 -0.10000000000E+04  0.10000000000E+04  0.00000000000E+00 0.  1.
    9000005    2    1    2  501    0  0.52324639092E+00  0.12116092293E+02 -0.89345708844E+03  0.11036958669E+04  0.64786721192E+03 0.  0.
         13    1    3    3    0    0 -0.91072974606E+02 -0.14757555207E+03  0.17524935752E+02  0.17429846140E+03  0.00000000000E+00 0.  1.
          1    1    3    3  501    0  0.91596220997E+02  0.15969164436E+03 -0.91098202420E+03  0.92939740552E+03  0.00000000000E+00 0.  1.
         21    1    1    2  502  501 -0.52324639092E+00 -0.12116092293E+02  0.24405626509E+02  0.27252671145E+02  0.00000000000E+00 0.  1.
<mgrwt>
<rscale>  1 0.30000000E+03</rscale>
<asrwt>0</asrwt>
<pdfrwt beam="1">  1        1 0.47617751E+00 0.30000000E+03</pdfrwt>
<pdfrwt beam="2">0</pdfrwt>
<totfact> 0.34011767E-01</totfact>
</mgrwt>
</event>
<event>
 6    1  0.5260809E-006  0.3000000E+03  0.7818608E-02  0.1093470E+00
          1   -1    0    0  502    0  0.00000000000E+00  0.00000000000E+00  0.11014040046E+03  0.11014040046E+03  0.00000000000E+00 0.  1.
         13   -1    0    0    0    0 -0.00000000000E+00 -0.00000000000E+00 -0.10000000000E+04  0.10000000000E+04  0.00000000000E+00 0.  1.
    9000005    2    1    2  501    0  0.92482250263E+01  0.13057520325E+02 -0.88638580040E+03  0.10937667697E+04  0.64061683626E+03 0.  0.
         13    1    3    3    0    0  0.53747515088E+02 -0.28638573379E+03 -0.23100444380E+03  0.37184490981E+03  0.00000000000E+00 0.  1.
          3    1    3    3  501    0 -0.44499290062E+02  0.29944325411E+03 -0.65538135659E+03  0.72192185991E+03  0.00000000000E+00 0.  1.
         21    1    1    2  502  501 -0.92482250263E+01 -0.13057520325E+02 -0.34737991388E+01  0.16373630741E+02  0.00000000000E+00 0.  1.
<mgrwt>
<rscale>  1 0.30000000E+03</rscale>
<asrwt>0</asrwt>
<pdfrwt beam="1">  1        1 0.40051139E+00 0.30000000E+03</pdfrwt>
<pdfrwt beam="2">0</pdfrwt>
<totfact> 0.10461187E+00</totfact>
</mgrwt>
</event>
<event>
 6    1  0.5260809E-006  0.3000000E+03  0.7818608E-02  0.1093470E+00
          1   -1    0    0  502    0  0.00000000000E+00  0.00000000000E+00  0.98664253390E+02  0.98664253390E+02  0.00000000000E+00 0.  1.
         13   -1    0    0    0    0 -0.00000000000E+00 -0.00000000000E+00 -0.10000000000E+04  0.10000000000E+04  0.00000000000E+00 0.  1.
    9000005    2    1    2  501    0 -0.61904097872E+01 -0.18006239316E+02 -0.88431340179E+03  0.10731239705E+04  0.60763666580E+03 0.  0.
         13    1    3    3    0    0 -0.29175468974E+03  0.43077385620E+02 -0.30440490284E+03  0.42383818258E+03  0.00000000000E+00 0.  1.
          3    1    3    3  501    0  0.28556427996E+03 -0.61083624936E+02 -0.57990849895E+03  0.64928578791E+03  0.00000000000E+00 0.  1.
         21    1    1    2  502  501  0.61904097872E+01  0.18006239316E+02 -0.17022344817E+02  0.25540282902E+02  0.00000000000E+00 0.  1.
<mgrwt>
<rscale>  1 0.30000000E+03</rscale>
<asrwt>0</asrwt>
<pdfrwt beam="1">  1        1 0.35877986E+00 0.30000000E+03</pdfrwt>
<pdfrwt beam="2">0</pdfrwt>
<totfact> 0.17724834E+00</totfact>
</mgrwt>
</event>
<event>
 6    1  0.5260809E-006  0.3000000E+03  0.7818608E-02  0.1093470E+00
          1   -1    0    0  502    0  0.00000000000E+00  0.00000000000E+00  0.99947208350E+02  0.99947208350E+02  0.00000000000E+00 0.  1.
         13   -1    0    0    0    0 -0.00000000000E+00 -0.00000000000E+00 -0.10000000000E+04  0.10000000000E+04  0.00000000000E+00 0.  1.
    9000005    2    1    2  501    0 -0.45814704863E+01 -0.15060111415E+02 -0.88878090474E+03  0.10805861066E+04  0.61439973979E+03 0.  0.
         13    1    3    3    0    0 -0.15087771442E+03  0.16103941180E+03 -0.80834670273E+03  0.83792730513E+03  0.00000000000E+00 0.  1.
          3    1    3    3  501    0  0.14629624393E+03 -0.17609952321E+03 -0.80434202008E+02  0.24265880144E+03  0.00000000000E+00 0.  1.
         21    1    1    2  502  501  0.45814704863E+01  0.15060111415E+02 -0.11271886909E+02  0.19361101780E+02  0.00000000000E+00 0. -1.
<mgrwt>
<rscale>  1 0.30000000E+03</rscale>
<asrwt>0</asrwt>
<pdfrwt beam="1">  1        1 0.36344516E+00 0.30000000E+03</pdfrwt>
<pdfrwt beam="2">0</pdfrwt>
<totfact> 0.16738972E+00</totfact>
</mgrwt>
</event>
<event>
 6    1  0.5260809E-006  0.3000000E+03  0.7818608E-02  0.1093470E+00
          1   -1    0    0  502    0  0.00000000000E+00  0.00000000000E+00  0.11592353030E+03  0.11592353030E+03  0.00000000000E+00 0.  1.
         13   -1    0    0    0    0 -0.00000000000E+00 -0.00000000000E+00 -0.10000000000E+04  0.10000000000E+04  0.00000000000E+00 0.  1.
    9000005    2    1    2  501    0 -0.22206620580E+01 -0.94735076289E+01 -0.88140872470E+03  0.11058341522E+04  0.66775231451E+03 0.  0.
         13    1    3    3    0    0  0.20036038413E+03 -0.21166406407E+03 -0.72111735074E+03  0.77778929864E+03  0.00000000000E+00 0.  1.
          3    1    3    3  501    0 -0.20258104619E+03  0.20219055644E+03 -0.16029137396E+03  0.32804485357E+03  0.00000000000E+00 0.  1.
         21    1    1    2  502  501  0.22206620580E+01  0.94735076289E+01 -0.26677450038E+01  0.10089378087E+02  0.00000000000E+00 0. -1.
<mgrwt>
<rscale>  1 0.30000000E+03</rscale>
<asrwt>0</asrwt>
<pdfrwt beam="1">  1        1 0.42154100E+00 0.30000000E+03</pdfrwt>
<pdfrwt beam="2">0</pdfrwt>
<totfact> 0.78466655E-01</totfact>
</mgrwt>
</event>
<event>
 6    1  0.5260809E-006  0.3000000E+03  0.7818608E-02  0.1093470E+00
          1   -1    0    0  502    0  0.00000000000E+00  0.00000000000E+00  0.11012086637E+03  0.11012086637E+03  0.00000000000E+00 0.  1.
         13   -1    0    0    0    0 -0.00000000000E+00 -0.00000000000E+00 -0.10000000000E+04  0.10000000000E+04  0.00000000000E+00 0.  1.
    9000005    2    1    2  501    0  0.85275050207E+01  0.12934093557E+02 -0.88175761115E+03  0.10926289184E+04  0.64505926805E+03 0.  0.
         13    1    3    3    0    0  0.19786937903E+03 -0.20438784909E+01 -0.88073709781E+03  0.90269280713E+03  0.00000000000E+00 0.  1.
          1    1    3    3  501    0 -0.18934187401E+03  0.14977972048E+02 -0.10205133491E+01  0.18993611123E+03  0.00000000000E+00 0.  1.
         21    1    1    2  502  501 -0.85275050207E+01 -0.12934093557E+02 -0.81215224712E+01  0.17491948013E+02  0.00000000000E+00 0. -1.
<mgrwt>
<rscale>  1 0.30000000E+03</rscale>
<asrwt>0</asrwt>
<pdfrwt beam="1">  1        1 0.40044036E+00 0.30000000E+03</pdfrwt>
<pdfrwt beam="2">0</pdfrwt>
<totfact> 0.10470962E+00</totfact>
</mgrwt>
</event>
<event>
 6    1  0.5260809E-006  0.3000000E+03  0.7818608E-02  0.1093470E+00
          1   -1    0    0  502    0  0.00000000000E+00  0.00000000000E+00  0.12063750433E+03  0.12063750433E+03  0.00000000000E+00 0.  1.
         13   -1    0    0    0    0 -0.00000000000E+00 -0.00000000000E+00 -0.10000000000E+04  0.10000000000E+04  0.00000000000E+00 0.  1.
    9000005    2    1    2  501    0  0.11364940112E+02  0.30530619786E+02 -0.86935558554E+03  0.10865579084E+04  0.65097440317E+03 0.  0.
         13    1    3    3    0    0  0.84150469367E+02  0.27921387478E+03 -0.74319427488E+03  0.79836045717E+03  0.00000000000E+00 0.  1.
          1    1    3    3  501    0 -0.72785529255E+02 -0.24868325500E+03 -0.12616131066E+03  0.28819745123E+03  0.00000000000E+00 0.  1.
         21    1    1    2  502  501 -0.11364940112E+02 -0.30530619786E+02 -0.10006910130E+02  0.34079595928E+02  0.00000000000E+00 0.  1.
<mgrwt>
<rscale>  1 0.30000000E+03</rscale>
<asrwt>0</asrwt>
<pdfrwt beam="1">  1        1 0.43868276E+00 0.30000000E+03</pdfrwt>
<pdfrwt beam="2">0</pdfrwt>
<totfact> 0.61136255E-01</totfact>
</mgrwt>
</event>
<event>
 6    1  0.5260809E-006  0.3000000E+03  0.7818608E-02  0.1093470E+00
          1   -1    0    0  502    0  0.00000000000E+00  0.00000000000E+00  0.10878719471E+03  0.10878719471E+03  0.00000000000E+00 0.  1.
         13   -1    0    0    0    0 -0.00000000000E+00 -0.00000000000E+00 -0.10000000000E+04  0.10000000000E+04  0.00000000000E+00 0.  1.
    9000005    2    1    2  501    0 -0.14118122058E+02 -0.60627518350E+01 -0.87897368215E+03  0.10891435070E+04  0.64296404772E+03 0.  0.
         13    1    3    3    0    0 -0.29635799380E+03 -0.10928121762E+03 -0.29412517597E+03  0.43160174253E+03  0.00000000000E+00 0.  1.
          1    1    3    3  501    0  0.28223987174E+03  0.10321846579E+03 -0.58484850618E+03  0.65754176450E+03  0.00000000000E+00 0.  1.
         21    1    1    2  502  501  0.14118122058E+02  0.60627518350E+01 -0.12239123141E+02  0.19643687676E+02  0.00000000000E+00 0. -1.
<mgrwt>
<rscale>  1 0.30000000E+03</rscale>
<asrwt>0</asrwt>
<pdfrwt beam="1">  1        1 0.39559063E+00 0.30000000E+03</pdfrwt>
<pdfrwt beam="2">0</pdfrwt>
<totfact> 0.11155507E+00</totfact>
</mgrwt>
</event>
<event>
 6    1  0.5260809E-006  0.3000000E+03  0.7818608E-02  0.1093470E+00
          1   -1    0    0  502    0  0.00000000000E+00  0.00000000000E+00  0.89756416891E+02  0.89756416891E+02  0.00000000000E+00 0.  1.
         13   -1    0    0    0    0 -0.00000000000E+00 -0.00000000000E+00 -0.10000000000E+04  0.10000000000E+04  0.00000000000E+00 0.  1.
    9000005    2    1    2  501    0 -0.79200144850E+01  0.18112312542E+01 -0.90144002884E+03  0.10777768611E+04  0.59071383058E+03 0.  0.
         13    1    3    3    0    0  0.16480549418E+02 -0.27945073985E+03 -0.28359125132E+03  0.39848252450E+03  0.00000000000E+00 0.  1.
          3    1    3    3  501    0 -0.24400563903E+02  0.28126197110E+03 -0.61784877753E+03  0.67929433664E+03  0.00000000000E+00 0.  1.
         21    1    1    2  502  501  0.79200144850E+01 -0.18112312542E+01 -0.88035542678E+01  0.11979555745E+02  0.00000000000E+00 0. -1.
<mgrwt>
<rscale>  1 0.30000000E+03</rscale>
<asrwt>0</asrwt>
<pdfrwt beam="1">  1        1 0.32638766E+00 0.30000000E+03</pdfrwt>
<pdfrwt beam="2">0</pdfrwt>
<totfact> 0.25908093E+00</totfact>
</mgrwt>
</event>
<event>
 6    1  0.5260809E-006  0.3000000E+03  0.7818608E-02  0.1093470E+00
          1   -1    0    0  502    0  0.00000000000E+00  0.00000000000E+00  0.81827983023E+02  0.81827983023E+02  0.00000000000E+00 0.  1.
         13   -1    0    0    0    0 -0.00000000000E+00 -0.00000000000E+00 -0.10000000000E+04  0.10000000000E+04  0.00000000000E+00 0.  1.
    9000005    2    1    2  501    0 -0.27077477226E+02 -0.33413081518E+01 -0.93503539701E+03  0.10497541978E+04  0.47639094031E+03 0.  0.
         13    1    3    3    0    0  0.13825227035E+03  0.31659788041E+02 -0.52581094254E+02  0.15126402054E+03  0.00000000000E+00 0.  1.
          3    1    3    3  501    0 -0.16532974758E+03 -0.35001096192E+02 -0.88245430275E+03  0.89849017725E+03  0.00000000000E+00 0.  1.
         21    1    1    2  502  501  0.27077477226E+02  0.33413081518E+01  0.16863380032E+02  0.32073785233E+02  0.00000000000E+00 0.  1.
<mgrwt>
<rscale>  1 0.30000000E+03</rscale>
<asrwt>0</asrwt>
<pdfrwt beam="1">  1        1 0.29755693E+00 0.30000000E+03</pdfrwt>
<pdfrwt beam="2">0</pdfrwt>
<totfact> 0.35682923E+00</totfact>
</mgrwt>
</event>
<event>
 6    1  0.5260809E-006  0.3000000E+03  0.7818608E-02  0.1093470E+00
          1   -1    0    0  502    0  0.00000000000E+00  0.00000000000E+00  0.11601352500E+03  0.11601352500E+03  0.00000000000E+00 0.  1.
         13   -1    0    0    0    0 -0.00000000000E+00 -0.00000000000E+00 -0.10000000000E+04  0.10000000000E+04  0.00000000000E+00 0.  1.
    9000005    2    1    2  501    0 -0.22566962510E+02  0.63154276087E+01 -0.87804708486E+03  0.10918385632E+04  0.64853343201E+03 0.  0.
         13    1    3    3    0    0 -0.15961166716E+03  0.29075020702E+03 -0.48746705029E+03  0.58960638759E+03  0.00000000000E+00 0.  1.
          1    1    3    3  501    0  0.13704470464E+03 -0.28443477941E+03 -0.39058003457E+03  0.50223217561E+03  0.00000000000E+00 0.  1.
         21    1    1    2  502  501  0.22566962510E+02 -0.63154276087E+01 -0.59393901426E+01  0.24174961801E+02  0.00000000000E+00 0.  1.
<mgrwt>
<rscale>  1 0.30000000E+03</rscale>
<asrwt>0</asrwt>
<pdfrwt beam="1">  1        1 0.42186825E+00 0.30000000E+03</pdfrwt>
<pdfrwt beam="2">0</pdfrwt>
<totfact> 0.78101610E-01</totfact>
</mgrwt>
</event>
<event>
 6    1  0.5260809E-006  0.3000000E+03  0.7818608E-02  0.1093470E+00
          1   -1    0    0  502    0  0.00000000000E+00  0.00000000000E+00  0.18842252024E+03  0.18842252024E+03  0.00000000000E+00 0.  1.
         13   -1    0    0    0    0 -0.00000000000E+00 -0.00000000000E+00 -0.10000000000E+04  0.10000000000E+04  0.00000000000E+00 0.  1.
    9000005    2    1    2  501    0  0.95417376492E+02 -0.10969801264E+03 -0.81993538911E+03  0.10427929066E+04  0.62768214414E+03 0.  0.
         13    1    3    3    0    0 -0.25361651331E+03 -0.14520064833E+03 -0.40475797325E+03  0.49923299271E+03  0.00000000000E+00 0.  1.
          1    1    3    3  501    0  0.34903388981E+03  0.35502635690E+02 -0.41517741586E+03  0.54355991391E+03  0.00000000000E+00 0.  1.
         21    1    1    2  502  501 -0.95417376492E+02  0.10969801264E+03  0.83579093460E+01  0.14562961361E+03  0.00000000000E+00 0.  1.
<mgrwt>
<rscale>  1 0.30000000E+03</rscale>
<asrwt>0</asrwt>
<pdfrwt beam="1">  1        1 0.68517425E+00 0.30000000E+03</pdfrwt>
<pdfrwt beam="2">0</pdfrwt>
<totfact> 0.28515981E-02</totfact>
</mgrwt>
</event>
<event>
 6    1  0.5260809E-006  0.3000000E+03  0.7818608E-02  0.1093470E+00
          1   -1    0    0  502    0  0.00000000000E+00  0.00000000000E+00  0.12790565803E+03  0.12790565803E+03  0.00000000000E+00 0.  1.
         13   -1    0    0    0    0 -0.00000000000E+00 -0.00000000000E+00 -0.10000000000E+04  0.10000000000E+04  0.00000000000E+00 0.  1.
    9000005    2    1    2  501    0  0.54902802848E+02 -0.12655555715E+02 -0.88096678530E+03  0.10708688182E+04  0.60620381727E+03 0.  0.
         13    1    3    3    0    0  0.58223918735E+02 -0.30287558598E+03 -0.55076813128E+03  0.63124415223E+03  0.00000000000E+00 0.  1.
          3    1    3    3  501    0 -0.33211158874E+01  0.29022003027E+03 -0.33019865402E+03  0.43962466594E+03  0.00000000000E+00 0.  1.
         21    1    1    2  502  501 -0.54902802848E+02  0.12655555715E+02  0.88724433342E+01  0.57036839864E+02  0.00000000000E+00 0.  1.
<mgrwt>
<rscale>  1 0.30000000E+03</rscale>
<asrwt>0</asrwt>
<pdfrwt beam="1">  1        1 0.46511246E+00 0.30000000E+03</pdfrwt>
<pdfrwt beam="2">0</pdfrwt>
<totfact> 0.40665644E-01</totfact>
</mgrwt>
</event>
<event>
 6    1  0.5260809E-006  0.3000000E+03  0.7818608E-02  0.1093470E+00
          1   -1    0    0  502    0  0.00000000000E+00  0.00000000000E+00  0.11230025645E+03  0.11230025645E+03  0.00000000000E+00 0.  1.
         13   -1    0    0    0    0 -0.00000000000E+00 -0.00000000000E+00 -0.10000000000E+04  0.10000000000E+04  0.00000000000E+00 0.  1.
    9000005    2    1    2  501    0  0.18630885110E+02  0.11132567218E+02 -0.86325317908E+03  0.10796096087E+04  0.64798133627E+03 0.  0.
         13    1    3    3    0    0 -0.10332191638E+03 -0.92831153366E+02 -0.90371559972E+03  0.91432758167E+03  0.00000000000E+00 0.  1.
          1    1    3    3  501    0  0.12195280149E+03  0.10396372058E+03  0.40462420634E+02  0.16528202707E+03  0.00000000000E+00 0.  1.
         21    1    1    2  502  501 -0.18630885110E+02 -0.11132567218E+02 -0.24446564473E+02  0.32690647705E+02  0.00000000000E+00 0. -1.
<mgrwt>
<rscale>  1 0.30000000E+03</rscale>
<asrwt>0</asrwt>
<pdfrwt beam="1">  1        1 0.40836543E+00 0.30000000E+03</pdfrwt>
<pdfrwt beam="2">0</pdfrwt>
<totfact> 0.94202340E-01</totfact>
</mgrwt>
</event>
<event>
 6    1  0.5260809E-006  0.3000000E+03  0.7818608E-02  0.1093470E+00
          1   -1    0    0  502    0  0.00000000000E+00  0.00000000000E+00  0.11961142272E+03  0.11961142272E+03  0.00000000000E+00 0.  1.
         13   -1    0    0    0    0 -0.00000000000E+00 -0.00000000000E+00 -0.10000000000E+04  0.10000000000E+04  0.00000000000E+00 0.  1.
    9000005    2    1    2  501    0 -0.13208533767E+02 -0.12484346513E+02 -0.88317994119E+03  0.11012234923E+04  0.65753786752E+03 0.  0.
         13    1    3    3    0    0 -0.59381587128E+02 -0.29032905472E+03 -0.18746278834E+03  0.35065571422E+03  0.00000000000E+00 0.  1.
          3    1    3    3  501    0  0.46173053361E+02  0.27784470820E+03 -0.69571715285E+03  0.75056777809E+03  0.00000000000E+00 0.  1.
         21    1    1    2  502  501  0.13208533767E+02  0.12484346513E+02  0.27913639114E+01  0.18387930406E+02  0.00000000000E+00 0. -1.
<mgrwt>
<rscale>  1 0.30000000E+03</rscale>
<asrwt>0</asrwt>
<pdfrwt beam="1">  1        1 0.43495155E+00 0.30000000E+03</pdfrwt>
<pdfrwt beam="2">0</pdfrwt>
<totfact> 0.64611752E-01</totfact>
</mgrwt>
</event>
<event>
 6    1  0.5260809E-006  0.3000000E+03  0.7818608E-02  0.1093470E+00
          1   -1    0    0  502    0  0.00000000000E+00  0.00000000000E+00  0.12028572504E+03  0.12028572504E+03  0.00000000000E+00 0.  1.
         13   -1    0    0    0    0 -0.00000000000E+00 -0.00000000000E+00 -0.10000000000E+04  0.10000000000E+04  0.00000000000E+00 0.  1.
    9000005    2    1    2  501    0 -0.96064171169E+01 -0.10934493194E+02 -0.88993745725E+03  0.11024992176E+04  0.65061816802E+03 0.  0.
         13    1    3    3    0    0  0.22433917463E+03 -0.10940184744E+03 -0.93397768212E+02  0.26649572718E+03  0.00000000000E+00 0.  1.
          1    1    3    3  501    0 -0.23394559175E+03  0.98467354247E+02 -0.79653968904E+03  0.83600349041E+03  0.00000000000E+00 0.  1.
         21    1    1    2  502  501  0.96064171169E+01  0.10934493194E+02  0.10223182292E+02  0.17786507454E+02  0.00000000000E+00 0.  1.
<mgrwt>
<rscale>  1 0.30000000E+03</rscale>
<asrwt>0</asrwt>
<pdfrwt beam="1">  1        1 0.43740356E+00 0.30000000E+03</pdfrwt>
<pdfrwt beam="2">0</pdfrwt>
<totfact> 0.62310981E-01</totfact>
</mgrwt>
</event>
<event>
 6    1  0.5260809E-006  0.3000000E+03  0.7818608E-02  0.1093470E+00
          1   -1    0    0  502    0  0.00000000000E+00  0.00000000000E+00  0.11445772812E+03  0.11445772812E+03  0.00000000000E+00 0.  1.
         13   -1    0    0    0    0 -0.00000000000E+00 -0.00000000000E+00 -0.10000000000E+04  0.10000000000E+04  0.00000000000E+00 0.  1.
    9000005    2    1    2  501    0  0.64856143975E+01  0.91840016456E+01 -0.88535017587E+03  0.11032129079E+04  0.65810894022E+03 0.  0.
         13    1    3    3    0    0 -0.13044071504E+03  0.53821486807E+02 -0.93898713908E+03  0.94953061032E+03  0.00000000000E+00 0.  1.
          3    1    3    3  501    0  0.13692632944E+03 -0.44637485162E+02  0.53636963201E+02  0.15368229760E+03  0.00000000000E+00 0.  1.
         21    1    1    2  502  501 -0.64856143975E+01 -0.91840016456E+01 -0.19209600948E+00  0.11244820195E+02  0.00000000000E+00 0.  1.
<mgrwt>
<rscale>  1 0.30000000E+03</rscale>
<asrwt>0</asrwt>
<pdfrwt beam="1">  1        1 0.41621080E+00 0.30000000E+03</pdfrwt>
<pdfrwt beam="2">0</pdfrwt>
<totfact> 0.84585694E-01</totfact>
</mgrwt>
</event>
<event>
 6    1  0.5260809E-006  0.3000000E+03  0.7818608E-02  0.1093470E+00
          1   -1    0    0  502    0  0.00000000000E+00  0.00000000000E+00  0.10828051824E+03  0.10828051824E+03  0.00000000000E+00 0.  1.
         13   -1    0    0    0    0 -0.00000000000E+00 -0.00000000000E+00 -0.10000000000E+04  0.10000000000E+04  0.00000000000E+00 0.  1.
    9000005    2    1    2  501    0 -0.77753239483E+01  0.67333469873E+01 -0.88325466028E+03  0.10949596013E+04  0.64706409269E+03 0.  0.
         13    1    3    3    0    0 -0.26659872085E+03 -0.32689216167E+02 -0.75907328128E+03  0.80519296393E+03  0.00000000000E+00 0.  1.
          1    1    3    3  501    0  0.25882339690E+03  0.39422563155E+02 -0.12418137900E+03  0.28976663741E+03  0.00000000000E+00 0.  1.
         21    1    1    2  502  501  0.77753239483E+01 -0.67333469873E+01 -0.84648214817E+01  0.13320916893E+02  0.00000000000E+00 0.  1.
<mgrwt>
<rscale>  1 0.30000000E+03</rscale>
<asrwt>0</asrwt>
<pdfrwt beam="1">  1        1 0.39374817E+00 0.30000000E+03</pdfrwt>
<pdfrwt beam="2">0</pdfrwt>
<totfact> 0.11425194E+00</totfact>
</mgrwt>
</event>
<event>
 6    1  0.5260809E-006  0.3000000E+03  0.7818608E-02  0.1093470E+00
          1   -1    0    0  502    0  0.00000000000E+00  0.00000000000E+00  0.11643279215E+03  0.11643279215E+03  0.00000000000E+00 0.  1.
         13   -1    0    0    0    0 -0.00000000000E+00 -0.00000000000E+00 -0.10000000000E+04  0.10000000000E+04  0.00000000000E+00 0.  1.
    9000005    2    1    2  501    0 -0.32719974575E+01  0.99878542402E+01 -0.89091365605E+03  0.11036096295E+04  0.65124235776E+03 0.  0.
         13    1    3    3    0    0 -0.26631337571E+03 -0.13443703932E+03 -0.66222945922E+03  0.72632223447E+03  0.00000000000E+00 0.  1.
          3    1    3    3  501    0  0.26304137826E+03  0.14442489356E+03 -0.22868419683E+03  0.37728739501E+03  0.00000000000E+00 0.  1.
         21    1    1    2  502  501  0.32719974575E+01 -0.99878542402E+01  0.73464481965E+01  0.12823162667E+02  0.00000000000E+00 0. -1.
<mgrwt>
<rscale>  1 0.30000000E+03</rscale>
<asrwt>0</asrwt>
<pdfrwt beam="1">  1        1 0.42339286E+00 0.30000000E+03</pdfrwt>
<pdfrwt beam="2">0</pdfrwt>
<totfact> 0.76418082E-01</totfact>
</mgrwt>
</event>
<event>
 6    1  0.5260809E-006  0.3000000E+03  0.7818608E-02  0.1093470E+00
          1   -1    0    0  502    0  0.00000000000E+00  0.00000000000E+00  0.11544365353E+03  0.11544365353E+03  0.00000000000E+00 0.  1.
         13   -1    0    0    0    0 -0.00000000000E+00 -0.00000000000E+00 -0.10000000000E+04  0.10000000000E+04  0.00000000000E+00 0.  1.
    9000005    2    1    2  501    0  0.20392126775E+02  0.45749871496E+02 -0.83037305842E+03  0.10416553192E+04  0.62691107690E+03 0.  0.
         13    1    3    3    0    0 -0.11806677097E+02 -0.28923874195E+03 -0.43405779314E+03  0.52173232146E+03  0.00000000000E+00 0.  1.
          3    1    3    3  501    0  0.32198803872E+02  0.33498861344E+03 -0.39631526528E+03  0.51992299776E+03  0.00000000000E+00 0.  1.
         21    1    1    2  502  501 -0.20392126775E+02 -0.45749871496E+02 -0.54183288053E+02  0.73788334312E+02  0.00000000000E+00 0. -1.
<mgrwt>
<rscale>  1 0.30000000E+03</rscale>
<asrwt>0</asrwt>
<pdfrwt beam="1">  1        1 0.41979599E+00 0.30000000E+03</pdfrwt>
<pdfrwt beam="2">0</pdfrwt>
<totfact> 0.80434566E-01</totfact>
</mgrwt>
</event>
<event>
 6    1  0.5260809E-006  0.3000000E+03  0.7818608E-02  0.1093470E+00
          1   -1    0    0  502    0  0.00000000000E+00  0.00000000000E+00  0.14759694893E+03  0.14759694893E+03  0.00000000000E+00 0.  1.
         13   -1    0    0    0    0 -0.00000000000E+00 -0.00000000000E+00 -0.10000000000E+04  0.10000000000E+04  0.00000000000E+00 0.  1.
    9000005    2    1    2  501    0 -0.28439935916E+02 -0.27957968499E+01 -0.88582568884E+03  0.11036228753E+04  0.65763185253E+03 0.  0.
         13    1    3    3    0    0  0.58725560763E+01  0.16469856627E+03 -0.91539503068E+03  0.93011191093E+03  0.00000000000E+00 0.  1.
          1    1    3    3  501    0 -0.34312491992E+02 -0.16749436312E+03  0.29569341842E+02  0.17351096438E+03  0.00000000000E+00 0.  1.
         21    1    1    2  502  501  0.28439935916E+02  0.27957968499E+01  0.33422637767E+02  0.43974073614E+02  0.00000000000E+00 0. -1.
<mgrwt>
<rscale>  1 0.30000000E+03</rscale>
<asrwt>0</asrwt>
<pdfrwt beam="1">  1        1 0.53671731E+00 0.30000000E+03</pdfrwt>
<pdfrwt beam="2">0</pdfrwt>
<totfact> 0.12147193E-01</totfact>
</mgrwt>
</event>
<event>
 6    1  0.5260809E-006  0.3000000E+03  0.7818608E-02  0.1093470E+00
          1   -1    0    0  502    0  0.00000000000E+00  0.00000000000E+00  0.11601356010E+03  0.11601356010E+03  0.00000000000E+00 0.  1.
         13   -1    0    0    0    0 -0.00000000000E+00 -0.00000000000E+00 -0.10000000000E+04  0.10000000000E+04  0.00000000000E+00 0.  1.
    9000005    2    1    2  501    0 -0.21122448325E+02 -0.18941817144E+02 -0.81698901090E+03  0.10432563903E+04  0.64815731254E+03 0.  0.
         13    1    3    3    0    0 -0.48390227599E+02 -0.27088419351E+03 -0.11737369008E+03  0.29915956202E+03  0.00000000000E+00 0.  1.
          3    1    3    3  501    0  0.27267779274E+02  0.25194237637E+03 -0.69961532082E+03  0.74409682833E+03  0.00000000000E+00 0.  1.
         21    1    1    2  502  501  0.21122448325E+02  0.18941817144E+02 -0.66997428994E+02  0.72757169762E+02  0.00000000000E+00 0. -1.
<mgrwt>
<rscale>  1 0.30000000E+03</rscale>
<asrwt>0</asrwt>
<pdfrwt beam="1">  1        1 0.42186838E+00 0.30000000E+03</pdfrwt>
<pdfrwt beam="2">0</pdfrwt>
<totfact> 0.78101467E-01</totfact>
</mgrwt>
</event>
<event>
 6    1  0.5260809E-006  0.3000000E+03  0.7818608E-02  0.1093470E+00
          1   -1    0    0  502    0  0.00000000000E+00  0.00000000000E+00  0.11470595115E+03  0.11470595115E+03  0.00000000000E+00 0.  1.
         13   -1    0    0    0    0 -0.00000000000E+00 -0.00000000000E+00 -0.10000000000E+04  0.10000000000E+04  0.00000000000E+00 0.  1.
    9000005    2    1    2  501    0  0.15068668665E+02  0.14926962549E+02 -0.87268930350E+03  0.10900329175E+04  0.65279036583E+03 0.  0.
         13    1    3    3    0    0  0.16641028883E+03 -0.10808992473E+03 -0.87272619170E+03  0.89500101773E+03  0.00000000000E+00 0.  1.
          1    1    3    3  501    0 -0.15134162016E+03  0.12301688728E+03  0.36888206749E-01  0.19503189973E+03  0.00000000000E+00 0.  1.
         21    1    1    2  502  501 -0.15068668665E+02 -0.14926962549E+02 -0.12604745352E+02  0.24673033694E+02  0.00000000000E+00 0.  1.
<mgrwt>
<rscale>  1 0.30000000E+03</rscale>
<asrwt>0</asrwt>
<pdfrwt beam="1">  1        1 0.41711343E+00 0.30000000E+03</pdfrwt>
<pdfrwt beam="2">0</pdfrwt>
<totfact> 0.83527414E-01</totfact>
</mgrwt>
</event>
<event>
 6    1  0.5260809E-006  0.3000000E+03  0.7818608E-02  0.1093470E+00
          1   -1    0    0  502    0  0.00000000000E+00  0.00000000000E+00  0.12149309281E+03  0.12149309281E+03  0.00000000000E+00 0.  1.
         13   -1    0    0    0    0 -0.00000000000E+00 -0.00000000000E+00 -0.10000000000E+04  0.10000000000E+04  0.00000000000E+00 0.  1.
    9000005    2    1    2  501    0  0.91028632778E+01  0.19575649300E+01 -0.86309179692E+03  0.11034842115E+04  0.68750509890E+03 0.  0.
         13    1    3    3    0    0 -0.91260318166E+02  0.13121457066E+03 -0.91727912973E+03  0.93109973208E+03  0.00000000000E+00 0.  1.
          1    1    3    3  501    0  0.10036318144E+03 -0.12925700573E+03  0.54187332818E+02  0.17238447946E+03  0.00000000000E+00 0.  1.
         21    1    1    2  502  501 -0.91028632778E+01 -0.19575649300E+01 -0.15415110272E+02  0.18008881281E+02  0.00000000000E+00 0.  1.
<mgrwt>
<rscale>  1 0.30000000E+03</rscale>
<asrwt>0</asrwt>
<pdfrwt beam="1">  1        1 0.44179400E+00 0.30000000E+03</pdfrwt>
<pdfrwt beam="2">0</pdfrwt>
<totfact> 0.58348432E-01</totfact>
</mgrwt>
</event>
<event>
 6    1  0.5260809E-006  0.3000000E+03  0.7818608E-02  0.1093470E+00
          1   -1    0    0  502    0  0.00000000000E+00  0.00000000000E+00  0.11305431107E+03  0.11305431107E+03  0.00000000000E+00 0.  1.
         13   -1    0    0    0    0 -0.00000000000E+00 -0.00000000000E+00 -0.10000000000E+04  0.10000000000E+04  0.00000000000E+00 0.  1.
    9000005    2    1    2  501    0 -0.82031772042E+01 -0.16812951618E+02 -0.86117554973E+03  0.10812098840E+04  0.65348413786E+03 0.  0.
         13    1    3    3    0    0  0.10036685196E+03  0.21084882879E+03 -0.78310243116E+03  0.81717816372E+03  0.00000000000E+00 0.  1.
          3    1    3    3  501    0 -0.10857002916E+03 -0.22766178041E+03 -0.78073118579E+02  0.26403172032E+03  0.00000000000E+00 0.  1.
         21    1    1    2  502  501  0.82031772042E+01  0.16812951618E+02 -0.25770139198E+02  0.31844427026E+02  0.00000000000E+00 0.  1.
<mgrwt>
<rscale>  1 0.30000000E+03</rscale>
<asrwt>0</asrwt>
<pdfrwt beam="1">  1        1 0.41110745E+00 0.30000000E+03</pdfrwt>
<pdfrwt beam="2">0</pdfrwt>
<totfact> 0.90753712E-01</totfact>
</mgrwt>
</event>
<event>
 6    1  0.5260809E-006  0.3000000E+03  0.7818608E-02  0.1093470E+00
          1   -1    0    0  502    0  0.00000000000E+00  0.00000000000E+00  0.11268153082E+03  0.11268153082E+03  0.00000000000E+00 0.  1.
         13   -1    0    0    0    0 -0.00000000000E+00 -0.00000000000E+00 -0.10000000000E+04  0.10000000000E+04  0.00000000000E+00 0.  1.
    9000005    2    1    2  501    0  0.10654278865E+02  0.26735882315E+01 -0.89383198582E+03  0.10999109540E+04  0.64089611188E+03 0.  0.
         13    1    3    3    0    0  0.13988856916E+03  0.12429778919E+03 -0.90302188204E+03  0.92220782453E+03  0.00000000000E+00 0.  1.
          1    1    3    3  501    0 -0.12923429029E+03 -0.12162420096E+03  0.91898962218E+01  0.17770312951E+03  0.00000000000E+00 0.  1.
         21    1    1    2  502  501 -0.10654278865E+02 -0.26735882315E+01  0.65135166395E+01  0.12770576775E+02  0.00000000000E+00 0.  1.
<mgrwt>
<rscale>  1 0.30000000E+03</rscale>
<asrwt>0</asrwt>
<pdfrwt beam="1">  1        1 0.40975189E+00 0.30000000E+03</pdfrwt>
<pdfrwt beam="2">0</pdfrwt>
<totfact> 0.92446696E-01</totfact>
</mgrwt>
</event>
<event>
 6    1  0.5260809E-006  0.3000000E+03  0.7818608E-02  0.1093470E+00
          1   -1    0    0  502    0  0.00000000000E+00  0.00000000000E+00  0.13590206097E+03  0.13590206097E+03  0.00000000000E+00 0.  1.
         13   -1    0    0    0    0 -0.00000000000E+00 -0.00000000000E+00 -0.10000000000E+04  0.10000000000E+04  0.00000000000E+00 0.  1.
    9000005    2    1    2  501    0  0.10411546066E+02 -0.12349809884E+02 -0.88023110943E+03  0.11130723154E+04  0.68107433898E+03 0.  0.
         13    1    3    3    0    0  0.96834070591E+02 -0.89005921987E+02  0.74646967090E+02  0.15123181237E+03  0.00000000000E+00 0.  1.
          1    1    3    3  501    0 -0.86422524525E+02  0.76656112103E+02 -0.95487807652E+03  0.96184050304E+03  0.00000000000E+00 0.  1.
         21    1    1    2  502  501 -0.10411546066E+02  0.12349809884E+02  0.16133170394E+02  0.22829745566E+02  0.00000000000E+00 0. -1.
<mgrwt>
<rscale>  1 0.30000000E+03</rscale>
<asrwt>0</asrwt>
<pdfrwt beam="1">  1        1 0.49419035E+00 0.30000000E+03</pdfrwt>
<pdfrwt beam="2">0</pdfrwt>
<totfact> 0.25194124E-01</totfact>
</mgrwt>
</event>
<event>
 6    1  0.5260809E-006  0.3000000E+03  0.7818608E-02  0.1093470E+00
          1   -1    0    0  502    0  0.00000000000E+00  0.00000000000E+00  0.12248320391E+03  0.12248320391E+03  0.00000000000E+00 0.  1.
         13   -1    0    0    0    0 -0.00000000000E+00 -0.00000000000E+00 -0.10000000000E+04  0.10000000000E+04  0.00000000000E+00 0.  1.
    9000005    2    1    2  501    0 -0.90261104339E+01 -0.61990092599E+01 -0.89055217780E+03  0.11054591162E+04  0.65485630322E+03 0.  0.
         13    1    3    3    0    0 -0.87474655917E+02 -0.28479386193E+02  0.85747232613E+02  0.12575960705E+03  0.00000000000E+00 0.  1.
          1    1    3    3  501    0  0.78448545483E+02  0.22280376933E+02 -0.97629941041E+03  0.97969950916E+03  0.00000000000E+00 0.  1.
         21    1    1    2  502  501  0.90261104339E+01  0.61990092599E+01  0.13035381709E+02  0.17024087690E+02  0.00000000000E+00 0. -1.
<mgrwt>
<rscale>  1 0.30000000E+03</rscale>
<asrwt>0</asrwt>
<pdfrwt beam="1">  1        1 0.44539441E+00 0.30000000E+03</pdfrwt>
<pdfrwt beam="2">0</pdfrwt>
<totfact> 0.55237799E-01</totfact>
</mgrwt>
</event>
<event>
 6    1  0.5260809E-006  0.3000000E+03  0.7818608E-02  0.1093470E+00
          1   -1    0    0  502    0  0.00000000000E+00  0.00000000000E+00  0.11711544908E+03  0.11711544908E+03  0.00000000000E+00 0.  1.
         13   -1    0    0    0    0 -0.00000000000E+00 -0.00000000000E+00 -0.10000000000E+04  0.10000000000E+04  0.00000000000E+00 0.  1.
    9000005    2    1    2  501    0  0.76680374652E+01 -0.99477687737E+01 -0.89047117118E+03  0.11024418773E+04  0.64983184687E+03 0.  0.
         13    1    3    3    0    0  0.42131837663E+02  0.24641365791E+03 -0.97469103432E+02  0.26831885635E+03  0.00000000000E+00 0.  1.
          3    1    3    3  501    0 -0.34463800198E+02 -0.25636142668E+03 -0.79300206774E+03  0.83412302094E+03  0.00000000000E+00 0.  1.
         21    1    1    2  502  501 -0.76680374652E+01  0.99477687737E+01  0.75866202528E+01  0.14673571788E+02  0.00000000000E+00 0.  1.
<mgrwt>
<rscale>  1 0.30000000E+03</rscale>
<asrwt>0</asrwt>
<pdfrwt beam="1">  1        1 0.42587526E+00 0.30000000E+03</pdfrwt>
<pdfrwt beam="2">0</pdfrwt>
<totfact> 0.73739171E-01</totfact>
</mgrwt>
</event>
<event>
 6    1  0.5260809E-006  0.3000000E+03  0.7818608E-02  0.1093470E+00
          1   -1    0    0  502    0  0.00000000000E+00  0.00000000000E+00  0.12309490710E+03  0.12309490710E+03  0.00000000000E+00 0.  1.
         13   -1    0    0    0    0 -0.00000000000E+00 -0.00000000000E+00 -0.10000000000E+04  0.10000000000E+04  0.00000000000E+00 0.  1.
    9000005    2    1    2  501    0 -0.95201360324E+01 -0.88202809305E+01 -0.89162240247E+03  0.11034727373E+04  0.64999472542E+03 0.  0.
         13    1    3    3    0    0  0.26724717576E+03 -0.64728001036E+02 -0.72552379498E+03  0.77588371819E+03  0.00000000000E+00 0.  1.
          3    1    3    3  501    0 -0.27676731179E+03  0.55907720106E+02 -0.16609860749E+03  0.32758901913E+03  0.00000000000E+00 0.  1.
         21    1    1    2  502  501  0.95201360324E+01  0.88202809305E+01  0.14717309573E+02  0.19622169779E+02  0.00000000000E+00 0. -1.
<mgrwt>
<rscale>  1 0.30000000E+03</rscale>
<asrwt>0</asrwt>
<pdfrwt beam="1">  1        1 0.44761879E+00 0.30000000E+03</pdfrwt>
<pdfrwt beam="2">0</pdfrwt>
<totfact> 0.53382019E-01</totfact>
</mgrwt>
</event>
<event>
 6    1  0.5260809E-006  0.3000000E+03  0.7818608E-02  0.1093470E+00
          1   -1    0    0  502    0  0.00000000000E+00  0.00000000000E+00  0.11096688463E+03  0.11096688463E+03  0.00000000000E+00 0.  1.
         13   -1    0    0    0    0 -0.00000000000E+00 -0.00000000000E+00 -0.10000000000E+04  0.10000000000E+04  0.00000000000E+00 0.  1.
    9000005    2    1    2  501    0  0.16257312605E+02  0.67600108772E+01 -0.85837251478E+03  0.10756105501E+04  0.64793879607E+03 0.  0.
         13    1    3    3    0    0  0.26303650723E+03 -0.19158568489E+03 -0.36101664419E+03  0.48603116791E+03  0.00000000000E+00 0.  1.
          3    1    3    3  501    0 -0.24677919463E+03  0.19834569577E+03 -0.49735587058E+03  0.58957938222E+03  0.00000000000E+00 0.  1.
         21    1    1    2  502  501 -0.16257312605E+02 -0.67600108772E+01 -0.30660600599E+02  0.35356334501E+02  0.00000000000E+00 0. -1.
<mgrwt>
<rscale>  1 0.30000000E+03</rscale>
<asrwt>0</asrwt>
<pdfrwt beam="1">  1        1 0.40351679E+00 0.30000000E+03</pdfrwt>
<pdfrwt beam="2">0</pdfrwt>
<totfact> 0.10053627E+00</totfact>
</mgrwt>
</event>
<event>
 6    1  0.5260809E-006  0.3000000E+03  0.7818608E-02  0.1093470E+00
          1   -1    0    0  502    0  0.00000000000E+00  0.00000000000E+00  0.18629651240E+03  0.18629651240E+03  0.00000000000E+00 0.  1.
         13   -1    0    0    0    0 -0.00000000000E+00 -0.00000000000E+00 -0.10000000000E+04  0.10000000000E+04  0.00000000000E+00 0.  1.
    9000005    2    1    2  501    0 -0.47474899045E+02  0.48657779381E+02 -0.87970200035E+03  0.10915481656E+04  0.64263546658E+03 0.  0.
         13    1    3    3    0    0 -0.31466539931E+03  0.16416398049E+03 -0.46915651387E+03  0.58827881189E+03  0.00000000000E+00 0.  1.
          1    1    3    3  501    0  0.26719050027E+03 -0.11550620111E+03 -0.41054548648E+03  0.50326935372E+03  0.00000000000E+00 0.  1.
         21    1    1    2  502  501  0.47474899045E+02 -0.48657779381E+02  0.65998512753E+02  0.94748346788E+02  0.00000000000E+00 0.  1.
<mgrwt>
<rscale>  1 0.30000000E+03</rscale>
<asrwt>0</asrwt>
<pdfrwt beam="1">  1        1 0.67744329E+00 0.30000000E+03</pdfrwt>
<pdfrwt beam="2">0</pdfrwt>
<totfact> 0.29908924E-02</totfact>
</mgrwt>
</event>
<event>
 6    1  0.5260809E-006  0.3000000E+03  0.7818608E-02  0.1093470E+00
          1   -1    0    0  502    0  0.00000000000E+00  0.00000000000E+00  0.14369898186E+03  0.14369898186E+03  0.00000000000E+00 0.  1.
         13   -1    0    0    0    0 -0.00000000000E+00 -0.00000000000E+00 -0.10000000000E+04  0.10000000000E+04  0.00000000000E+00 0.  1.
    9000005    2    1    2  501    0  0.16679348986E+02 -0.13862811106E+02 -0.89134910621E+03  0.11024831270E+04  0.64845619587E+03 0.  0.
         13    1    3    3    0    0 -0.10003114203E+03  0.47147188753E+02 -0.95135582275E+03  0.95776144643E+03  0.00000000000E+00 0.  1.
          1    1    3    3  501    0  0.11671049102E+03 -0.61009999859E+02  0.60006716543E+02  0.14472168057E+03  0.00000000000E+00 0.  1.
         21    1    1    2  502  501 -0.16679348986E+02  0.13862811106E+02  0.35048088068E+02  0.41215854857E+02  0.00000000000E+00 0. -1.
<mgrwt>
<rscale>  1 0.30000000E+03</rscale>
<asrwt>0</asrwt>
<pdfrwt beam="1">  1        1 0.52254285E+00 0.30000000E+03</pdfrwt>
<pdfrwt beam="2">0</pdfrwt>
<totfact> 0.15555236E-01</totfact>
</mgrwt>
</event>
<event>
 6    1  0.5260809E-006  0.3000000E+03  0.7818608E-02  0.1093470E+00
          1   -1    0    0  502    0  0.00000000000E+00  0.00000000000E+00  0.14592595401E+03  0.14592595401E+03  0.00000000000E+00 0.  1.
         13   -1    0    0    0    0 -0.00000000000E+00 -0.00000000000E+00 -0.10000000000E+04  0.10000000000E+04  0.00000000000E+00 0.  1.
    9000005    2    1    2  501    0 -0.23527736584E+02 -0.42595180006E+01 -0.85793080230E+03  0.11217066961E+04  0.72222500147E+03 0.  0.
         13    1    3    3    0    0  0.18684558571E+02  0.30816277237E+03 -0.70846196797E+03  0.77280771675E+03  0.00000000000E+00 0.  1.
          1    1    3    3  501    0 -0.42212295155E+02 -0.31242229037E+03 -0.14946883433E+03  0.34889897939E+03  0.00000000000E+00 0.  1.
         21    1    1    2  502  501  0.23527736584E+02  0.42595180006E+01  0.38567563153E+01  0.24219257867E+02  0.00000000000E+00 0. -1.
<mgrwt>
<rscale>  1 0.30000000E+03</rscale>
<asrwt>0</asrwt>
<pdfrwt beam="1">  1        1 0.53064095E+00 0.30000000E+03</pdfrwt>
<pdfrwt beam="2">0</pdfrwt>
<totfact> 0.13501915E-01</totfact>
</mgrwt>
</event>
<event>
 6    1  0.5260809E-006  0.3000000E+03  0.7818608E-02  0.1093470E+00
          1   -1    0    0  502    0  0.00000000000E+00  0.00000000000E+00  0.10495541522E+03  0.10495541522E+03  0.00000000000E+00 0.  1.
         13   -1    0    0    0    0 -0.00000000000E+00 -0.00000000000E+00 -0.10000000000E+04  0.10000000000E+04  0.00000000000E+00 0.  1.
    9000005    2    1    2  501    0  0.65762181362E+01 -0.69582069518E+01 -0.87784285060E+03  0.10852687967E+04  0.63805064650E+03 0.  0.
         13    1    3    3    0    0 -0.21574998536E+03  0.22607117054E+03 -0.48951302329E+03  0.58075746254E+03  0.00000000000E+00 0.  1.
          1    1    3    3  501    0  0.22232620349E+03 -0.23302937750E+03 -0.38832982732E+03  0.50451133418E+03  0.00000000000E+00 0.  1.
         21    1    1    2  502  501 -0.65762181362E+01  0.69582069518E+01 -0.17201734179E+02  0.19686618494E+02  0.00000000000E+00 0.  1.
<mgrwt>
<rscale>  1 0.30000000E+03</rscale>
<asrwt>0</asrwt>
<pdfrwt beam="1">  1        1 0.38165686E+00 0.30000000E+03</pdfrwt>
<pdfrwt beam="2">0</pdfrwt>
<totfact> 0.13341293E+00</totfact>
</mgrwt>
</event>
<event>
 6    1  0.5260809E-006  0.3000000E+03  0.7818608E-02  0.1093470E+00
          1   -1    0    0  502    0  0.00000000000E+00  0.00000000000E+00  0.14122736067E+03  0.14122736067E+03  0.00000000000E+00 0.  1.
         13   -1    0    0    0    0 -0.00000000000E+00 -0.00000000000E+00 -0.10000000000E+04  0.10000000000E+04  0.00000000000E+00 0.  1.
    9000005    2    1    2  501    0  0.38951543492E+02 -0.14401352653E+01 -0.87297086853E+03  0.10997437923E+04  0.66771174524E+03 0.  0.
         13    1    3    3    0    0  0.32384016891E+03 -0.13880390034E+03 -0.47468913954E+03  0.59115882549E+03  0.00000000000E+00 0.  1.
          3    1    3    3  501    0 -0.28488862542E+03  0.13736376508E+03 -0.39828172899E+03  0.50858496684E+03  0.00000000000E+00 0.  1.
         21    1    1    2  502  501 -0.38951543492E+02  0.14401352653E+01  0.14198229196E+02  0.41483568341E+02  0.00000000000E+00 0. -1.
<mgrwt>
<rscale>  1 0.30000000E+03</rscale>
<asrwt>0</asrwt>
<pdfrwt beam="1">  1        1 0.51355512E+00 0.30000000E+03</pdfrwt>
<pdfrwt beam="2">0</pdfrwt>
<totfact> 0.18160672E-01</totfact>
</mgrwt>
</event>
<event>
 6    1  0.5260809E-006  0.3000000E+03  0.7818608E-02  0.1093470E+00
          1   -1    0    0  502    0  0.00000000000E+00  0.00000000000E+00  0.11984521882E+03  0.11984521882E+03  0.00000000000E+00 0.  1.
         13   -1    0    0    0    0 -0.00000000000E+00 -0.00000000000E+00 -0.10000000000E+04  0.10000000000E+04  0.00000000000E+00 0.  1.
    9000005    2    1    2  501    0  0.38419469008E+01 -0.16440978019E+02 -0.88390020782E+03  0.11025508690E+04  0.65882757613E+03 0.  0.
         13    1    3    3    0    0  0.40528295710E+02 -0.27365859132E+03 -0.77124246346E+03  0.81935737307E+03  0.00000000000E+00 0.  1.
          1    1    3    3  501    0 -0.36686348809E+02  0.25721761330E+03 -0.11265774436E+03  0.28319349595E+03  0.00000000000E+00 0.  1.
         21    1    1    2  502  501 -0.38419469008E+01  0.16440978019E+02  0.37454266370E+01  0.17294349797E+02  0.00000000000E+00 0. -1.
<mgrwt>
<rscale>  1 0.30000000E+03</rscale>
<asrwt>0</asrwt>
<pdfrwt beam="1">  1        1 0.43580171E+00 0.30000000E+03</pdfrwt>
<pdfrwt beam="2">0</pdfrwt>
<totfact> 0.63806590E-01</totfact>
</mgrwt>
</event>
<event>
 6    1  0.5260809E-006  0.3000000E+03  0.7818608E-02  0.1093470E+00
          1   -1    0    0  502    0  0.00000000000E+00  0.00000000000E+00  0.10563726550E+03  0.10563726550E+03  0.00000000000E+00 0.  1.
         13   -1    0    0    0    0 -0.00000000000E+00 -0.00000000000E+00 -0.10000000000E+04  0.10000000000E+04  0.00000000000E+00 0.  1.
    9000005    2    1    2  501    0  0.74363481353E+01  0.54428956088E+01 -0.88508948843E+03  0.10925637243E+04  0.64048978509E+03 0.  0.
         13    1    3    3    0    0  0.24296001018E+03  0.15454672800E+02 -0.84041117896E+02  0.25754868075E+03  0.00000000000E+00 0.  1.
          3    1    3    3  501    0 -0.23552366205E+03 -0.10011777192E+02 -0.80104837053E+03  0.83501504358E+03  0.00000000000E+00 0.  1.
         21    1    1    2  502  501 -0.74363481353E+01 -0.54428956088E+01 -0.92732460708E+01  0.13073541176E+02  0.00000000000E+00 0.  1.
<mgrwt>
<rscale>  1 0.30000000E+03</rscale>
<asrwt>0</asrwt>
<pdfrwt beam="1">  1        1 0.38413632E+00 0.30000000E+03</pdfrwt>
<pdfrwt beam="2">0</pdfrwt>
<totfact> 0.12927602E+00</totfact>
</mgrwt>
</event>
