<event>
 6    1  0.1758852E-002  0.6370309E+03  0.7818608E-02  0.9831424E-01
          1   -1    0    0  502    0  0.00000000000E+00  0.00000000000E+00  0.10205711749E+03  0.10205711749E+03  0.00000000000E+00 0.  1.
         13   -1    0    0    0    0 -0.00000000000E+00 -0.00000000000E+00 -0.10000000000E+04  0.10000000000E+04  0.00000000000E+00 0.  1.
    9000005    2    1    2  501    0  0.20524819536E-01  0.99366662773E-01 -0.89854322694E+03  0.11014482592E+04  0.63703086791E+03 0.  0.
         13    1    3    3    0    0  0.17734895758E+03  0.24486115104E+02  0.62291365854E+01  0.17913967938E+03  0.00000000000E+00 0.  1.
          3    1    3    3  501    0 -0.17732843276E+03 -0.24386748441E+02 -0.90477236353E+03  0.92230857980E+03  0.00000000000E+00 0.  1.
         21    1    1    2  502  501 -0.20524819536E-01 -0.99366662773E-01  0.60034443398E+00  0.60885830971E+00  0.00000000000E+00 0.  1.
<mgrwt>
<rscale>  1 0.63703088E+03</rscale>
<asrwt>0</asrwt>
<pdfrwt beam="1">  1        1 0.37111757E+00 0.63703088E+03</pdfrwt>
<pdfrwt beam="2">0</pdfrwt>
<totfact> 0.17998752E+00</totfact>
</mgrwt>
</event>
<event>
 6    1  0.1758852E-002  0.6409420E+03  0.7818608E-02  0.9823926E-01
          1   -1    0    0  502    0  0.00000000000E+00  0.00000000000E+00  0.10270171109E+03  0.10270171109E+03  0.00000000000E+00 0.  1.
         13   -1    0    0    0    0 -0.00000000000E+00 -0.00000000000E+00 -0.10000000000E+04  0.10000000000E+04  0.00000000000E+00 0.  1.
    9000005    2    1    2  501    0  0.97334827011E-04 -0.46280626464E-04 -0.89729805365E+03  0.11027014523E+04  0.64094203783E+03 0.  0.
         13    1    3    3    0    0 -0.39828404643E+02 -0.28072435736E+03 -0.19167968354E+03  0.34224781622E+03  0.00000000000E+00 0.  1.
          1    1    3    3  501    0  0.39828501978E+02  0.28072431108E+03 -0.70561837012E+03  0.76045363609E+03  0.00000000000E+00 0.  1.
         21    1    1    2  502  501 -0.97334827016E-04  0.46280626457E-04 -0.23525981091E-03  0.25877237790E-03  0.00000000000E+00 0. -1.
<mgrwt>
<rscale>  1 0.64094204E+03</rscale>
<asrwt>0</asrwt>
<pdfrwt beam="1">  1        1 0.37346156E+00 0.64094204E+03</pdfrwt>
<pdfrwt beam="2">0</pdfrwt>
<totfact> 0.17564159E+00</totfact>
</mgrwt>
</event>
<event>
 6    1  0.1758852E-002  0.6543091E+03  0.7818608E-02  0.9798727E-01
          1   -1    0    0  502    0  0.00000000000E+00  0.00000000000E+00  0.10703009185E+03  0.10703009185E+03  0.00000000000E+00 0.  1.
         13   -1    0    0    0    0 -0.00000000000E+00 -0.00000000000E+00 -0.10000000000E+04  0.10000000000E+04  0.00000000000E+00 0.  1.
    9000005    2    1    2  501    0  0.20079251826E-05  0.24356216102E-05 -0.89296991562E+03  0.11070300837E+04  0.65430905243E+03 0.  0.
         13    1    3    3    0    0 -0.11015233180E+02  0.15721503763E+03  0.38570891170E+02  0.16225170898E+03  0.00000000000E+00 0.  1.
          3    1    3    3  501    0  0.11015235188E+02 -0.15721503520E+03 -0.93154080679E+03  0.94477837476E+03  0.00000000000E+00 0.  1.
         21    1    1    2  502  501 -0.20079251818E-05 -0.24356216215E-05  0.74777311189E-05  0.81166790565E-05  0.00000000000E+00 0.  1.
<mgrwt>
<rscale>  1 0.65430905E+03</rscale>
<asrwt>0</asrwt>
<pdfrwt beam="1">  1        1 0.38920115E+00 0.65430905E+03</pdfrwt>
<pdfrwt beam="2">0</pdfrwt>
<totfact> 0.14930119E+00</totfact>
</mgrwt>
</event>
<event>
 6    1  0.1758852E-002  0.6419210E+03  0.7818608E-02  0.9822058E-01
          1   -1    0    0  502    0  0.00000000000E+00  0.00000000000E+00  0.10381680303E+03  0.10381680303E+03  0.00000000000E+00 0.  1.
         13   -1    0    0    0    0 -0.00000000000E+00 -0.00000000000E+00 -0.10000000000E+04  0.10000000000E+04  0.00000000000E+00 0.  1.
    9000005    2    1    2  501    0  0.82594960384E+00  0.42359863550E+00 -0.89667674492E+03  0.11027655095E+04  0.64192033960E+03 0.  0.
         13    1    3    3    0    0 -0.23823314199E+03 -0.12255222763E+03 -0.75023029828E+03  0.79663013933E+03  0.00000000000E+00 0.  1.
          1    1    3    3  501    0  0.23905909160E+03  0.12297582627E+03 -0.14644644664E+03  0.30613537015E+03  0.00000000000E+00 0.  1.
         21    1    1    2  502  501 -0.82594960384E+00 -0.42359863550E+00  0.49354795499E+00  0.10512935537E+01  0.00000000000E+00 0.  1.
<mgrwt>
<rscale>  1 0.64192101E+03</rscale>
<asrwt>0</asrwt>
<pdfrwt beam="1">  1        1 0.37751644E+00 0.64192101E+03</pdfrwt>
<pdfrwt beam="2">0</pdfrwt>
<totfact> 0.16853779E+00</totfact>
</mgrwt>
</event>
<event>
 6    1  0.1758852E-002  0.6412992E+03  0.7818608E-02  0.9823244E-01
          1   -1    0    0  502    0  0.00000000000E+00  0.00000000000E+00  0.10282164295E+03  0.10282164295E+03  0.00000000000E+00 0.  1.
         13   -1    0    0    0    0 -0.00000000000E+00 -0.00000000000E+00 -0.10000000000E+04  0.10000000000E+04  0.00000000000E+00 0.  1.
    9000005    2    1    2  501    0  0.57673385714E-03  0.76859342471E-03 -0.89718378957E+03  0.11028161261E+04  0.64129919359E+03 0.  0.
         13    1    3    3    0    0 -0.23261134012E+03  0.21734938858E+03 -0.51446646875E+03  0.60499961962E+03  0.00000000000E+00 0.  1.
          3    1    3    3  501    0  0.23261191685E+03 -0.21734861998E+03 -0.38271732082E+03  0.49781650648E+03  0.00000000000E+00 0.  1.
         21    1    1    2  502  501 -0.57673385714E-03 -0.76859342470E-03  0.54325238647E-02  0.55168535721E-02  0.00000000000E+00 0. -1.
<mgrwt>
<rscale>  1 0.64129919E+03</rscale>
<asrwt>0</asrwt>
<pdfrwt beam="1">  1        1 0.37389767E+00 0.64129919E+03</pdfrwt>
<pdfrwt beam="2">0</pdfrwt>
<totfact> 0.17485598E+00</totfact>
</mgrwt>
</event>
<event>
 6    1  0.1758852E-002  0.6500930E+03  0.7818608E-02  0.9806605E-01
          1   -1    0    0  502    0  0.00000000000E+00  0.00000000000E+00  0.10565532087E+03  0.10565532087E+03  0.00000000000E+00 0.  1.
         13   -1    0    0    0    0 -0.00000000000E+00 -0.00000000000E+00 -0.10000000000E+04  0.10000000000E+04  0.00000000000E+00 0.  1.
    9000005    2    1    2  501    0 -0.11687295739E-04  0.91315203719E-04 -0.89434476036E+03  0.11056551981E+04  0.65009296773E+03 0.  0.
         13    1    3    3    0    0  0.14443035463E+03  0.68130002853E+02  0.34337497434E+02  0.16334285524E+03  0.00000000000E+00 0.  1.
          3    1    3    3  501    0 -0.14443036632E+03 -0.68129911538E+02 -0.92868225779E+03  0.94231234286E+03  0.00000000000E+00 0.  1.
         21    1    1    2  502  501  0.11687295743E-04 -0.91315203714E-04  0.81228292606E-04  0.12277253288E-03  0.00000000000E+00 0. -1.
<mgrwt>
<rscale>  1 0.65009297E+03</rscale>
<asrwt>0</asrwt>
<pdfrwt beam="1">  1        1 0.38420198E+00 0.65009297E+03</pdfrwt>
<pdfrwt beam="2">0</pdfrwt>
<totfact> 0.15722946E+00</totfact>
</mgrwt>
</event>
<event>
 6    1  0.1758852E-002  0.5336547E+03  0.7818608E-02  0.1005350E+00
          1   -1    0    0  502    0  0.00000000000E+00  0.00000000000E+00  0.80793342538E+02  0.80793342538E+02  0.00000000000E+00 0.  1.
         13   -1    0    0    0    0 -0.00000000000E+00 -0.00000000000E+00 -0.10000000000E+04  0.10000000000E+04  0.00000000000E+00 0.  1.
    9000005    2    1    2  501    0 -0.13515636096E+00  0.16401458205E+00 -0.92880189837E+03  0.10711957482E+04  0.53365468187E+03 0.  0.
         13    1    3    3    0    0  0.19373095492E+03 -0.14365553766E+03 -0.69291458317E+03  0.73368877323E+03  0.00000000000E+00 0.  1.
          3    1    3    3  501    0 -0.19386611128E+03  0.14381955224E+03 -0.23588731520E+03  0.33750697502E+03  0.00000000000E+00 0.  1.
         21    1    1    2  502  501  0.13515636096E+00 -0.16401458205E+00  0.95952409101E+01  0.95975942896E+01  0.00000000000E+00 0.  1.
<mgrwt>
<rscale>  1 0.53365472E+03</rscale>
<asrwt>0</asrwt>
<pdfrwt beam="1">  1        1 0.29379459E+00 0.53365472E+03</pdfrwt>
<pdfrwt beam="2">0</pdfrwt>
<totfact> 0.39711215E+00</totfact>
</mgrwt>
</event>
<event>
 6    1  0.1758852E-002  0.6458944E+03  0.7818608E-02  0.9814514E-01
          1   -1    0    0  502    0  0.00000000000E+00  0.00000000000E+00  0.10430106422E+03  0.10430106422E+03  0.00000000000E+00 0.  1.
         13   -1    0    0    0    0 -0.00000000000E+00 -0.00000000000E+00 -0.10000000000E+04  0.10000000000E+04  0.00000000000E+00 0.  1.
    9000005    2    1    2  501    0 -0.51922045622E-02  0.11660085641E-01 -0.89569672120E+03  0.11042881096E+04  0.64589442835E+03 0.  0.
         13    1    3    3    0    0 -0.37197710060E+02 -0.17911767647E+03  0.71624347882E+01  0.18307952406E+03  0.00000000000E+00 0.  1.
          3    1    3    3  501    0  0.37192517856E+02  0.17912933656E+03 -0.90285915599E+03  0.92120858558E+03  0.00000000000E+00 0.  1.
         21    1    1    2  502  501  0.51922045622E-02 -0.11660085641E-01 -0.22145801837E-02  0.12954572581E-01  0.00000000000E+00 0.  1.
<mgrwt>
<rscale>  1 0.64589443E+03</rscale>
<asrwt>0</asrwt>
<pdfrwt beam="1">  1        1 0.37927740E+00 0.64589443E+03</pdfrwt>
<pdfrwt beam="2">0</pdfrwt>
<totfact> 0.16543093E+00</totfact>
</mgrwt>
</event>
<event>
 6    1  0.1758852E-002  0.6533931E+03  0.7818608E-02  0.9800433E-01
          1   -1    0    0  502    0  0.00000000000E+00  0.00000000000E+00  0.10673067225E+03  0.10673067225E+03  0.00000000000E+00 0.  1.
         13   -1    0    0    0    0 -0.00000000000E+00 -0.00000000000E+00 -0.10000000000E+04  0.10000000000E+04  0.00000000000E+00 0.  1.
    9000005    2    1    2  501    0 -0.48101654812E-04  0.20395696708E-04 -0.89326935477E+03  0.11067306134E+04  0.65339307504E+03 0.  0.
         13    1    3    3    0    0  0.14392335345E+03  0.19163453300E+03 -0.82269677796E+03  0.85689422590E+03  0.00000000000E+00 0.  1.
          3    1    3    3  501    0 -0.14392340155E+03 -0.19163451261E+03 -0.70572576812E+02  0.24983638753E+03  0.00000000000E+00 0.  1.
         21    1    1    2  502  501  0.48101654804E-04 -0.20395696718E-04  0.27018431060E-04  0.58819633257E-04  0.00000000000E+00 0.  1.
<mgrwt>
<rscale>  1 0.65339308E+03</rscale>
<asrwt>0</asrwt>
<pdfrwt beam="1">  1        1 0.38811235E+00 0.65339308E+03</pdfrwt>
<pdfrwt beam="2">0</pdfrwt>
<totfact> 0.15099484E+00</totfact>
</mgrwt>
</event>
<event>
 6    1  0.1758852E-002  0.6449199E+03  0.7818608E-02  0.9816359E-01
          1   -1    0    0  502    0  0.00000000000E+00  0.00000000000E+00  0.10430233912E+03  0.10430233912E+03  0.00000000000E+00 0.  1.
         13   -1    0    0    0    0 -0.00000000000E+00 -0.00000000000E+00 -0.10000000000E+04  0.10000000000E+04  0.00000000000E+00 0.  1.
    9000005    2    1    2  501    0  0.10112282866E+00  0.11919865814E+00 -0.89599850454E+03  0.11039633095E+04  0.64491987428E+03 0.  0.
         13    1    3    3    0    0  0.20674263889E+03 -0.94037847026E+02 -0.56158233767E+02  0.23396449010E+03  0.00000000000E+00 0.  1.
          1    1    3    3  501    0 -0.20664151606E+03  0.94157045684E+02 -0.83984027077E+03  0.86999881944E+03  0.00000000000E+00 0.  1.
         21    1    1    2  502  501 -0.10112282866E+00 -0.11919865814E+00  0.30084365975E+00  0.33902957716E+00  0.00000000000E+00 0.  1.
<mgrwt>
<rscale>  1 0.64491989E+03</rscale>
<asrwt>0</asrwt>
<pdfrwt beam="1">  1        1 0.37928203E+00 0.64491989E+03</pdfrwt>
<pdfrwt beam="2">0</pdfrwt>
<totfact> 0.16545277E+00</totfact>
</mgrwt>
</event>
<event>
 6    1  0.1758852E-002  0.6494187E+03  0.7818608E-02  0.9807871E-01
          1   -1    0    0  502    0  0.00000000000E+00  0.00000000000E+00  0.10544521841E+03  0.10544521841E+03  0.00000000000E+00 0.  1.
         13   -1    0    0    0    0 -0.00000000000E+00 -0.00000000000E+00 -0.10000000000E+04  0.10000000000E+04  0.00000000000E+00 0.  1.
    9000005    2    1    2  501    0 -0.17105058139E-03 -0.40657077236E-04 -0.89456385264E+03  0.11054361457E+04  0.64941865209E+03 0.  0.
         13    1    3    3    0    0  0.83690515429E+02 -0.74914890085E+02  0.71314140525E+02  0.13304905023E+03  0.00000000000E+00 0.  1.
          1    1    3    3  501    0 -0.83690686479E+02  0.74914849428E+02 -0.96587799316E+03  0.97238709542E+03  0.00000000000E+00 0.  1.
         21    1    1    2  502  501  0.17105058138E-03  0.40657077234E-04  0.90710478317E-02  0.90727515156E-02  0.00000000000E+00 0.  1.
<mgrwt>
<rscale>  1 0.64941865E+03</rscale>
<asrwt>0</asrwt>
<pdfrwt beam="1">  1        1 0.38343797E+00 0.64941865E+03</pdfrwt>
<pdfrwt beam="2">0</pdfrwt>
<totfact> 0.15847666E+00</totfact>
</mgrwt>
</event>
<event>
 6    1  0.1758852E-002  0.6396439E+03  0.7818608E-02  0.9826408E-01
          1   -1    0    0  502    0  0.00000000000E+00  0.00000000000E+00  0.10230520949E+03  0.10230520949E+03  0.00000000000E+00 0.  1.
         13   -1    0    0    0    0 -0.00000000000E+00 -0.00000000000E+00 -0.10000000000E+04  0.10000000000E+04  0.00000000000E+00 0.  1.
    9000005    2    1    2  501    0 -0.21167888115E-03  0.47121254175E-02 -0.89771360544E+03  0.11022858123E+04  0.63964388108E+03 0.  0.
         13    1    3    3    0    0 -0.15493021230E+02 -0.22307221813E+03 -0.54815286875E+02  0.23023024103E+03  0.00000000000E+00 0.  1.
          1    1    3    3  501    0  0.15492809551E+02  0.22307693026E+03 -0.84289831857E+03  0.87205557128E+03  0.00000000000E+00 0.  1.
         21    1    1    2  502  501  0.21167888115E-03 -0.47121254174E-02  0.18814930688E-01  0.19397178937E-01  0.00000000000E+00 0.  1.
<mgrwt>
<rscale>  1 0.63964388E+03</rscale>
<asrwt>0</asrwt>
<pdfrwt beam="1">  1        1 0.37201973E+00 0.63964388E+03</pdfrwt>
<pdfrwt beam="2">0</pdfrwt>
<totfact> 0.17826677E+00</totfact>
</mgrwt>
</event>
<event>
 6    1  0.1758852E-002  0.6542823E+03  0.7818608E-02  0.9798777E-01
          1   -1    0    0  502    0  0.00000000000E+00  0.00000000000E+00  0.10702142684E+03  0.10702142684E+03  0.00000000000E+00 0.  1.
         13   -1    0    0    0    0 -0.00000000000E+00 -0.00000000000E+00 -0.10000000000E+04  0.10000000000E+04  0.00000000000E+00 0.  1.
    9000005    2    1    2  501    0 -0.78270654228E-04  0.58305756028E-04 -0.89297865611E+03  0.11070212988E+04  0.65428225989E+03 0.  0.
         13    1    3    3    0    0 -0.19492741427E+03  0.15312954559E+03 -0.80769864243E+03  0.84488014035E+03  0.00000000000E+00 0.  1.
          3    1    3    3  501    0  0.19492733599E+03 -0.15312948729E+03 -0.85280013682E+02  0.26214115840E+03  0.00000000000E+00 0.  1.
         21    1    1    2  502  501  0.78270654223E-04 -0.58305756035E-04  0.82958919658E-04  0.12809386734E-03  0.00000000000E+00 0. -1.
<mgrwt>
<rscale>  1 0.65428226E+03</rscale>
<asrwt>0</asrwt>
<pdfrwt beam="1">  1        1 0.38916965E+00 0.65428226E+03</pdfrwt>
<pdfrwt beam="2">0</pdfrwt>
<totfact> 0.14934995E+00</totfact>
</mgrwt>
</event>
<event>
 6    1  0.1758852E-002  0.6627475E+03  0.7818608E-02  0.9783149E-01
          1   -1    0    0  502    0  0.00000000000E+00  0.00000000000E+00  0.10980907204E+03  0.10980907204E+03  0.00000000000E+00 0.  1.
         13   -1    0    0    0    0 -0.00000000000E+00 -0.00000000000E+00 -0.10000000000E+04  0.10000000000E+04  0.00000000000E+00 0.  1.
    9000005    2    1    2  501    0  0.26256831092E-04  0.45671132511E-05 -0.89019143101E+03  0.11098085683E+04  0.66274751935E+03 0.  0.
         13    1    3    3    0    0  0.10219650503E+03 -0.16415745383E+03 -0.89572515139E+03  0.91635983223E+03  0.00000000000E+00 0.  1.
          3    1    3    3  501    0 -0.10219647877E+03  0.16415745840E+03  0.55337203852E+01  0.19344873606E+03  0.00000000000E+00 0.  1.
         21    1    1    2  502  501 -0.26256831099E-04 -0.45671132565E-05  0.50304456817E-03  0.50375005436E-03  0.00000000000E+00 0.  1.
<mgrwt>
<rscale>  1 0.66274752E+03</rscale>
<asrwt>0</asrwt>
<pdfrwt beam="1">  1        1 0.39930656E+00 0.66274752E+03</pdfrwt>
<pdfrwt beam="2">0</pdfrwt>
<totfact> 0.13441938E+00</totfact>
</mgrwt>
</event>
<event>
 6    1  0.1758852E-002  0.6507275E+03  0.7818608E-02  0.9805415E-01
          1   -1    0    0  502    0  0.00000000000E+00  0.00000000000E+00  0.10588277173E+03  0.10588277173E+03  0.00000000000E+00 0.  1.
         13   -1    0    0    0    0 -0.00000000000E+00 -0.00000000000E+00 -0.10000000000E+04  0.10000000000E+04  0.00000000000E+00 0.  1.
    9000005    2    1    2  501    0 -0.86095420099E-02  0.13934627476E-01 -0.89413486665E+03  0.11058587008E+04  0.65072752060E+03 0.  0.
         13    1    3    3    0    0  0.24705365535E+03  0.21034431414E+03 -0.40606621850E+03  0.51977881153E+03  0.00000000000E+00 0.  1.
          3    1    3    3  501    0 -0.24706226489E+03 -0.21033037951E+03 -0.48806864815E+03  0.58607988925E+03  0.00000000000E+00 0.  1.
         21    1    1    2  502  501  0.86095420099E-02 -0.13934627476E-01  0.17638374492E-01  0.24070943298E-01  0.00000000000E+00 0. -1.
<mgrwt>
<rscale>  1 0.65072752E+03</rscale>
<asrwt>0</asrwt>
<pdfrwt beam="1">  1        1 0.38502907E+00 0.65072752E+03</pdfrwt>
<pdfrwt beam="2">0</pdfrwt>
<totfact> 0.15589253E+00</totfact>
</mgrwt>
</event>
<event>
 6    1  0.1758852E-002  0.6563757E+03  0.7818608E-02  0.9794889E-01
          1   -1    0    0  502    0  0.00000000000E+00  0.00000000000E+00  0.10770729449E+03  0.10770729449E+03  0.00000000000E+00 0.  1.
         13   -1    0    0    0    0 -0.00000000000E+00 -0.00000000000E+00 -0.10000000000E+04  0.10000000000E+04  0.00000000000E+00 0.  1.
    9000005    2    1    2  501    0 -0.32706266424E-05 -0.12450397207E-04 -0.89229272109E+03  0.11077072743E+04  0.65637573492E+03 0.  0.
         13    1    3    3    0    0  0.29043646883E+02 -0.31788940495E+03 -0.31751014403E+03  0.45023316045E+03  0.00000000000E+00 0.  1.
          1    1    3    3  501    0 -0.29043650153E+02  0.31788939250E+03 -0.57478257706E+03  0.65747411384E+03  0.00000000000E+00 0.  1.
         21    1    1    2  502  501  0.32706266418E-05  0.12450397194E-04  0.15575295364E-04  0.20206415184E-04  0.00000000000E+00 0.  1.
<mgrwt>
<rscale>  1 0.65637573E+03</rscale>
<asrwt>0</asrwt>
<pdfrwt beam="1">  1        1 0.39166371E+00 0.65637573E+03</pdfrwt>
<pdfrwt beam="2">0</pdfrwt>
<totfact> 0.14553696E+00</totfact>
</mgrwt>
</event>
<event>
 6    1  0.1758852E-002  0.6341053E+03  0.7818608E-02  0.9837070E-01
          1   -1    0    0  502    0  0.00000000000E+00  0.00000000000E+00  0.10073794806E+03  0.10073794806E+03  0.00000000000E+00 0.  1.
         13   -1    0    0    0    0 -0.00000000000E+00 -0.00000000000E+00 -0.10000000000E+04  0.10000000000E+04  0.00000000000E+00 0.  1.
    9000005    2    1    2  501    0  0.11976990040E-01 -0.27136315389E+00 -0.89937933407E+03  0.11004420824E+04  0.63410528803E+03 0.  0.
         13    1    3    3    0    0 -0.22054953827E+03 -0.22407004778E+03 -0.37761586173E+03  0.49136872527E+03  0.00000000000E+00 0.  1.
          1    1    3    3  501    0  0.22056151526E+03  0.22379868462E+03 -0.52176347234E+03  0.60907335710E+03  0.00000000000E+00 0.  1.
         21    1    1    2  502  501 -0.11976990040E-01  0.27136315389E+00  0.11728212892E+00  0.29586569139E+00  0.00000000000E+00 0.  1.
<mgrwt>
<rscale>  1 0.63410535E+03</rscale>
<asrwt>0</asrwt>
<pdfrwt beam="1">  1        1 0.36632058E+00 0.63410535E+03</pdfrwt>
<pdfrwt beam="2">0</pdfrwt>
<totfact> 0.18902915E+00</totfact>
</mgrwt>
</event>
<event>
 6    1  0.1758852E-002  0.6453132E+03  0.7818608E-02  0.9815613E-01
          1   -1    0    0  502    0  0.00000000000E+00  0.00000000000E+00  0.10826215720E+03  0.10826215720E+03  0.00000000000E+00 0.  1.
         13   -1    0    0    0    0 -0.00000000000E+00 -0.00000000000E+00 -0.10000000000E+04  0.10000000000E+04  0.00000000000E+00 0.  1.
    9000005    2    1    2  501    0 -0.75924771602E+00 -0.45830424563E+00 -0.89584039060E+03  0.11040648487E+04  0.64531263608E+03 0.  0.
         13    1    3    3    0    0  0.13565798878E+03  0.26719231703E+03 -0.65049667842E+03  0.71619882214E+03  0.00000000000E+00 0.  1.
          3    1    3    3  501    0 -0.13641723649E+03 -0.26765062128E+03 -0.24534371218E+03  0.38786602660E+03  0.00000000000E+00 0.  1.
         21    1    1    2  502  501  0.75924771602E+00  0.45830424563E+00  0.41025477993E+01  0.41973084616E+01  0.00000000000E+00 0. -1.
<mgrwt>
<rscale>  1 0.64531325E+03</rscale>
<asrwt>0</asrwt>
<pdfrwt beam="1">  1        1 0.39368140E+00 0.64531325E+03</pdfrwt>
<pdfrwt beam="2">0</pdfrwt>
<totfact> 0.14286134E+00</totfact>
</mgrwt>
</event>
<event>
 6    1  0.1758852E-002  0.6539278E+03  0.7818608E-02  0.9799437E-01
          1   -1    0    0  502    0  0.00000000000E+00  0.00000000000E+00  0.10690658597E+03  0.10690658597E+03  0.00000000000E+00 0.  1.
         13   -1    0    0    0    0 -0.00000000000E+00 -0.00000000000E+00 -0.10000000000E+04  0.10000000000E+04  0.00000000000E+00 0.  1.
    9000005    2    1    2  501    0  0.74613034576E-03  0.23003975440E-02 -0.89309304849E+03  0.11069041401E+04  0.65392781113E+03 0.  0.
         13    1    3    3    0    0 -0.14354465701E+03 -0.11016126808E+03  0.14430029685E+02  0.18151804125E+03  0.00000000000E+00 0.  1.
          1    1    3    3  501    0  0.14354540314E+03  0.11016356848E+03 -0.90752307817E+03  0.92538609888E+03  0.00000000000E+00 0.  1.
         21    1    1    2  502  501 -0.74613034577E-03 -0.23003975440E-02 -0.36554134522E-03  0.24458454220E-02  0.00000000000E+00 0.  1.
<mgrwt>
<rscale>  1 0.65392781E+03</rscale>
<asrwt>0</asrwt>
<pdfrwt beam="1">  1        1 0.38875204E+00 0.65392781E+03</pdfrwt>
<pdfrwt beam="2">0</pdfrwt>
<totfact> 0.14999769E+00</totfact>
</mgrwt>
</event>
<event>
 6    1  0.1758852E-002  0.4880702E+03  0.7818608E-02  0.1016941E+00
          1   -1    0    0  502    0  0.00000000000E+00  0.00000000000E+00  0.63479426184E+02  0.63479426184E+02  0.00000000000E+00 0.  1.
         13   -1    0    0    0    0 -0.00000000000E+00 -0.00000000000E+00 -0.10000000000E+04  0.10000000000E+04  0.00000000000E+00 0.  1.
    9000005    2    1    2  501    0 -0.44463075908E-01  0.58820122831E-01 -0.94044649827E+03  0.10595528094E+04  0.48807021452E+03 0.  0.
         13    1    3    3    0    0  0.12513113930E+03  0.14024930452E+03 -0.13232433383E+03  0.22986387007E+03  0.00000000000E+00 0.  1.
          3    1    3    3  501    0 -0.12517560237E+03 -0.14019048440E+03 -0.80812216444E+03  0.82968893930E+03  0.00000000000E+00 0.  1.
         21    1    1    2  502  501  0.44463075908E-01 -0.58820122831E-01  0.39259244537E+01  0.39266168120E+01  0.00000000000E+00 0.  1.
<mgrwt>
<rscale>  1 0.48807022E+03</rscale>
<asrwt>0</asrwt>
<pdfrwt beam="1">  1        1 0.23083476E+00 0.48807022E+03</pdfrwt>
<pdfrwt beam="2">0</pdfrwt>
<totfact> 0.75047669E+00</totfact>
</mgrwt>
</event>
<event>
 6    1  0.1758852E-002  0.6581075E+03  0.7818608E-02  0.9791684E-01
          1   -1    0    0  502    0  0.00000000000E+00  0.00000000000E+00  0.10831223211E+03  0.10831223211E+03  0.00000000000E+00 0.  1.
         13   -1    0    0    0    0 -0.00000000000E+00 -0.00000000000E+00 -0.10000000000E+04  0.10000000000E+04  0.00000000000E+00 0.  1.
    9000005    2    1    2  501    0 -0.71224280547E-02  0.18276395369E-01 -0.89172063841E+03  0.11082739538E+04  0.65810748315E+03 0.  0.
         13    1    3    3    0    0  0.13556521280E+03 -0.24935626639E+03 -0.16549751323E+03  0.32855121579E+03  0.00000000000E+00 0.  1.
          3    1    3    3  501    0 -0.13557233523E+03  0.24937454278E+03 -0.72622312518E+03  0.77972273804E+03  0.00000000000E+00 0.  1.
         21    1    1    2  502  501  0.71224280547E-02 -0.18276395369E-01  0.32870517185E-01  0.38278277248E-01  0.00000000000E+00 0. -1.
<mgrwt>
<rscale>  1 0.65810748E+03</rscale>
<asrwt>0</asrwt>
<pdfrwt beam="1">  1        1 0.39386349E+00 0.65810748E+03</pdfrwt>
<pdfrwt beam="2">0</pdfrwt>
<totfact> 0.14225366E+00</totfact>
</mgrwt>
</event>
<event>
 6    1  0.1758852E-002  0.6439062E+03  0.7818608E-02  0.9818281E-01
          1   -1    0    0  502    0  0.00000000000E+00  0.00000000000E+00  0.10365381213E+03  0.10365381213E+03  0.00000000000E+00 0.  1.
         13   -1    0    0    0    0 -0.00000000000E+00 -0.00000000000E+00 -0.10000000000E+04  0.10000000000E+04  0.00000000000E+00 0.  1.
    9000005    2    1    2  501    0 -0.91016548538E-05  0.75989149373E-06 -0.89634618906E+03  0.11036538029E+04  0.64390622458E+03 0.  0.
         13    1    3    3    0    0 -0.22404751741E+03 -0.10030251145E+02 -0.52258499492E+02  0.23027993131E+03  0.00000000000E+00 0.  1.
          1    1    3    3  501    0  0.22404750830E+03  0.10030251905E+02 -0.84408768957E+03  0.87337387161E+03  0.00000000000E+00 0.  1.
         21    1    1    2  502  501  0.91016548321E-05 -0.75989149470E-06  0.11890663997E-05  0.92103981819E-05  0.00000000000E+00 0.  1.
<mgrwt>
<rscale>  1 0.64390622E+03</rscale>
<asrwt>0</asrwt>
<pdfrwt beam="1">  1        1 0.37692375E+00 0.64390622E+03</pdfrwt>
<pdfrwt beam="2">0</pdfrwt>
<totfact> 0.16949251E+00</totfact>
</mgrwt>
</event>
<event>
 6    1  0.1758852E-002  0.6475934E+03  0.7818608E-02  0.9811305E-01
          1   -1    0    0  502    0  0.00000000000E+00  0.00000000000E+00  0.10484569695E+03  0.10484569695E+03  0.00000000000E+00 0.  1.
         13   -1    0    0    0    0 -0.00000000000E+00 -0.00000000000E+00 -0.10000000000E+04  0.10000000000E+04  0.00000000000E+00 0.  1.
    9000005    2    1    2  501    0  0.29139647607E-02  0.31451828083E-02 -0.89514850320E+03  0.11048384844E+04  0.64759341697E+03 0.  0.
         13    1    3    3    0    0  0.29022404280E+03 -0.12699934240E+03 -0.56184263276E+03  0.64500075346E+03  0.00000000000E+00 0.  1.
          1    1    3    3  501    0 -0.29022112883E+03  0.12700248758E+03 -0.33330587045E+03  0.45983773089E+03  0.00000000000E+00 0.  1.
         21    1    1    2  502  501 -0.29139647607E-02 -0.31451828083E-02 -0.57998465830E-02  0.72125991093E-02  0.00000000000E+00 0. -1.
<mgrwt>
<rscale>  1 0.64759342E+03</rscale>
<asrwt>0</asrwt>
<pdfrwt beam="1">  1        1 0.38125788E+00 0.64759342E+03</pdfrwt>
<pdfrwt beam="2">0</pdfrwt>
<totfact> 0.16208451E+00</totfact>
</mgrwt>
</event>
<event>
 6    1  0.1758852E-002  0.6526694E+03  0.7818608E-02  0.9801783E-01
          1   -1    0    0  502    0  0.00000000000E+00  0.00000000000E+00  0.11756240719E+03  0.11756240719E+03  0.00000000000E+00 0.  1.
         13   -1    0    0    0    0 -0.00000000000E+00 -0.00000000000E+00 -0.10000000000E+04  0.10000000000E+04  0.00000000000E+00 0.  1.
    9000005    2    1    2  501    0  0.17658723930E-01  0.15080194409E+00 -0.89350509637E+03  0.11064938622E+04  0.65266935488E+03 0.  0.
         13    1    3    3    0    0  0.20558120137E+03 -0.21933009534E+03 -0.66177506191E+03  0.72685318576E+03  0.00000000000E+00 0.  1.
          3    1    3    3  501    0 -0.20556354265E+03  0.21948089729E+03 -0.23173003446E+03  0.37964067644E+03  0.00000000000E+00 0.  1.
         21    1    1    2  502  501 -0.17658723930E-01 -0.15080194409E+00  0.11067503555E+02  0.11068544981E+02  0.00000000000E+00 0. -1.
<mgrwt>
<rscale>  1 0.65266937E+03</rscale>
<asrwt>0</asrwt>
<pdfrwt beam="1">  1        1 0.42750056E+00 0.65266937E+03</pdfrwt>
<pdfrwt beam="2">0</pdfrwt>
<totfact> 0.10060410E+00</totfact>
</mgrwt>
</event>
<event>
 6    1  0.1758852E-002  0.6515397E+03  0.7818608E-02  0.9803894E-01
          1   -1    0    0  502    0  0.00000000000E+00  0.00000000000E+00  0.10613307768E+03  0.10613307768E+03  0.00000000000E+00 0.  1.
         13   -1    0    0    0    0 -0.00000000000E+00 -0.00000000000E+00 -0.10000000000E+04  0.10000000000E+04  0.00000000000E+00 0.  1.
    9000005    2    1    2  501    0  0.20976864585E-03  0.51027350548E-03 -0.89387400377E+03  0.11061259748E+04  0.65153966682E+03 0.  0.
         13    1    3    3    0    0 -0.31693582945E+03 -0.37730013486E+02 -0.55766642206E+03  0.64254471611E+03  0.00000000000E+00 0.  1.
          3    1    3    3  501    0  0.31693603922E+03  0.37730523760E+02 -0.33620758172E+03  0.46358125866E+03  0.00000000000E+00 0.  1.
         21    1    1    2  502  501 -0.20976864586E-03 -0.51027350549E-03  0.70814569840E-02  0.71029159471E-02  0.00000000000E+00 0.  1.
<mgrwt>
<rscale>  1 0.65153967E+03</rscale>
<asrwt>0</asrwt>
<pdfrwt beam="1">  1        1 0.38593928E+00 0.65153967E+03</pdfrwt>
<pdfrwt beam="2">0</pdfrwt>
<totfact> 0.15443050E+00</totfact>
</mgrwt>
</event>
<event>
 6    1  0.1758852E-002  0.6464372E+03  0.7818608E-02  0.9813488E-01
          1   -1    0    0  502    0  0.00000000000E+00  0.00000000000E+00  0.10447028431E+03  0.10447028431E+03  0.00000000000E+00 0.  1.
         13   -1    0    0    0    0 -0.00000000000E+00 -0.00000000000E+00 -0.10000000000E+04  0.10000000000E+04  0.00000000000E+00 0.  1.
    9000005    2    1    2  501    0  0.18561221736E-04 -0.12913178978E-04 -0.89552971362E+03  0.11044702616E+04  0.64643722882E+03 0.  0.
         13    1    3    3    0    0  0.27297146678E+03  0.11952001807E+03 -0.23387639034E+03  0.37880948028E+03  0.00000000000E+00 0.  1.
          1    1    3    3  501    0 -0.27297144822E+03 -0.11952003099E+03 -0.66165332328E+03  0.72566078132E+03  0.00000000000E+00 0.  1.
         21    1    1    2  502  501 -0.18561221787E-04  0.12913178980E-04 -0.20674650524E-05  0.22705584276E-04  0.00000000000E+00 0. -1.
<mgrwt>
<rscale>  1 0.64643723E+03</rscale>
<asrwt>0</asrwt>
<pdfrwt beam="1">  1        1 0.37989274E+00 0.64643723E+03</pdfrwt>
<pdfrwt beam="2">0</pdfrwt>
<totfact> 0.16438375E+00</totfact>
</mgrwt>
</event>
<event>
 6    1  0.1758852E-002  0.6920675E+03  0.7818608E-02  0.9730895E-01
          1   -1    0    0  502    0  0.00000000000E+00  0.00000000000E+00  0.11975029585E+03  0.11975029585E+03  0.00000000000E+00 0.  1.
         13   -1    0    0    0    0 -0.00000000000E+00 -0.00000000000E+00 -0.10000000000E+04  0.10000000000E+04  0.00000000000E+00 0.  1.
    9000005    2    1    2  501    0 -0.12622240347E-01 -0.60371246823E-02 -0.88025534955E+03  0.11197352082E+04  0.69206752257E+03 0.  0.
         13    1    3    3    0    0  0.23849447443E+03 -0.89429946185E+02 -0.61163423556E+02  0.26195093814E+03  0.00000000000E+00 0.  1.
          1    1    3    3  501    0 -0.23850709667E+03  0.89423909060E+02 -0.81909192599E+03  0.85778427002E+03  0.00000000000E+00 0.  1.
         21    1    1    2  502  501  0.12622240347E-01  0.60371246823E-02  0.56453945277E-02  0.15087687204E-01  0.00000000000E+00 0. -1.
<mgrwt>
<rscale>  1 0.69206752E+03</rscale>
<asrwt>0</asrwt>
<pdfrwt beam="1">  1        1 0.43545654E+00 0.69206752E+03</pdfrwt>
<pdfrwt beam="2">0</pdfrwt>
<totfact> 0.91850259E-01</totfact>
</mgrwt>
</event>
<event>
 6    1  0.1758853E-002  0.6586727E+03  0.7818608E-02  0.9790640E-01
          1   -1    0    0  502    0  0.00000000000E+00  0.00000000000E+00  0.10846242353E+03  0.10846242353E+03  0.00000000000E+00 0.  1.
         13   -1    0    0    0    0 -0.00000000000E+00 -0.00000000000E+00 -0.10000000000E+04  0.10000000000E+04  0.00000000000E+00 0.  1.
    9000005    2    1    2  501    0  0.25173579843E-06  0.47632829592E-06 -0.89153757706E+03  0.11084624227E+04  0.65867267387E+03 0.  0.
         13    1    3    3    0    0 -0.19415113545E+03 -0.17182772712E+03 -0.10400471441E+03  0.27934998089E+03  0.00000000000E+00 0.  1.
          3    1    3    3  501    0  0.19415113570E+03  0.17182772760E+03 -0.78753286265E+03  0.82911244184E+03  0.00000000000E+00 0.  1.
         21    1    1    2  502  501 -0.25173582401E-06 -0.47632831757E-06  0.59402375228E-06  0.80195000435E-06  0.00000000000E+00 0. -1.
<mgrwt>
<rscale>  1 0.65867267E+03</rscale>
<asrwt>0</asrwt>
<pdfrwt beam="1">  1        1 0.39440964E+00 0.65867267E+03</pdfrwt>
<pdfrwt beam="2">0</pdfrwt>
<totfact> 0.14144588E+00</totfact>
</mgrwt>
</event>
<event>
 6    1  0.1758852E-002  0.6453319E+03  0.7818608E-02  0.9815578E-01
          1   -1    0    0  502    0  0.00000000000E+00  0.00000000000E+00  0.10411517970E+03  0.10411517970E+03  0.00000000000E+00 0.  1.
         13   -1    0    0    0    0 -0.00000000000E+00 -0.00000000000E+00 -0.10000000000E+04  0.10000000000E+04  0.00000000000E+00 0.  1.
    9000005    2    1    2  501    0 -0.79566610225E-04  0.66479649462E-04 -0.89588669087E+03  0.11041133063E+04  0.64533187599E+03 0.  0.
         13    1    3    3    0    0 -0.20996456935E+03 -0.23952492592E+03 -0.35976856762E+03  0.48051090806E+03  0.00000000000E+00 0.  1.
          3    1    3    3  501    0  0.20996448978E+03  0.23952499240E+03 -0.53611812325E+03  0.62360239819E+03  0.00000000000E+00 0.  1.
         21    1    1    2  502  501  0.79566610220E-04 -0.66479649479E-04  0.18705755806E-02  0.18734469280E-02  0.00000000000E+00 0. -1.
<mgrwt>
<rscale>  1 0.64533188E+03</rscale>
<asrwt>0</asrwt>
<pdfrwt beam="1">  1        1 0.37860145E+00 0.64533188E+03</pdfrwt>
<pdfrwt beam="2">0</pdfrwt>
<totfact> 0.16658753E+00</totfact>
</mgrwt>
</event>
<event>
 6    1  0.1758852E-002  0.6355673E+03  0.7818608E-02  0.9834244E-01
          1   -1    0    0  502    0  0.00000000000E+00  0.00000000000E+00  0.10098750454E+03  0.10098750454E+03  0.00000000000E+00 0.  1.
         13   -1    0    0    0    0 -0.00000000000E+00 -0.00000000000E+00 -0.10000000000E+04  0.10000000000E+04  0.00000000000E+00 0.  1.
    9000005    2    1    2  501    0 -0.26667891404E-04 -0.75230578886E-05 -0.89901354652E+03  0.11009864531E+04  0.63556731596E+03 0.  0.
         13    1    3    3    0    0  0.17212096654E+03 -0.26708923510E+03 -0.44099135993E+03  0.54353993981E+03  0.00000000000E+00 0.  1.
          1    1    3    3  501    0 -0.17212099321E+03  0.26708922758E+03 -0.45802218659E+03  0.55744651331E+03  0.00000000000E+00 0.  1.
         21    1    1    2  502  501  0.26667891411E-04  0.75230578507E-05  0.10510548024E-02  0.10514199782E-02  0.00000000000E+00 0. -1.
<mgrwt>
<rscale>  1 0.63556732E+03</rscale>
<asrwt>0</asrwt>
<pdfrwt beam="1">  1        1 0.36722806E+00 0.63556732E+03</pdfrwt>
<pdfrwt beam="2">0</pdfrwt>
<totfact> 0.18725507E+00</totfact>
</mgrwt>
</event>
<event>
 6    1  0.1758852E-002  0.6518240E+03  0.7818608E-02  0.9803363E-01
          1   -1    0    0  502    0  0.00000000000E+00  0.00000000000E+00  0.10625796759E+03  0.10625796759E+03  0.00000000000E+00 0.  1.
         13   -1    0    0    0    0 -0.00000000000E+00 -0.00000000000E+00 -0.10000000000E+04  0.10000000000E+04  0.00000000000E+00 0.  1.
    9000005    2    1    2  501    0 -0.10357122877E-02 -0.13910983089E-02 -0.89378133527E+03  0.11062186265E+04  0.65182403631E+03 0.  0.
         13    1    3    3    0    0  0.60153634617E+02  0.31554168578E+03 -0.54035609602E+03  0.62862526654E+03  0.00000000000E+00 0.  1.
          1    1    3    3  501    0 -0.60154670330E+02 -0.31554307688E+03 -0.35342523925E+03  0.47759335995E+03  0.00000000000E+00 0.  1.
         21    1    1    2  502  501  0.10357122877E-02  0.13910983089E-02  0.39302856329E-01  0.39341102807E-01  0.00000000000E+00 0.  1.
<mgrwt>
<rscale>  1 0.65182404E+03</rscale>
<asrwt>0</asrwt>
<pdfrwt beam="1">  1        1 0.38639342E+00 0.65182404E+03</pdfrwt>
<pdfrwt beam="2">0</pdfrwt>
<totfact> 0.15370934E+00</totfact>
</mgrwt>
</event>
<event>
 6    1  0.1758852E-002  0.6443870E+03  0.7818608E-02  0.9817369E-01
          1   -1    0    0  502    0  0.00000000000E+00  0.00000000000E+00  0.10380922160E+03  0.10380922160E+03  0.00000000000E+00 0.  1.
         13   -1    0    0    0    0 -0.00000000000E+00 -0.00000000000E+00 -0.10000000000E+04  0.10000000000E+04  0.00000000000E+00 0.  1.
    9000005    2    1    2  501    0  0.12561002507E-04  0.16896259336E-03 -0.89619132093E+03  0.11038086532E+04  0.64438704147E+03 0.  0.
         13    1    3    3    0    0  0.24875737679E+03  0.20438926967E+03 -0.46931821981E+03  0.56913513115E+03  0.00000000000E+00 0.  1.
          1    1    3    3  501    0 -0.24875736423E+03 -0.20438910070E+03 -0.42687310113E+03  0.53467352208E+03  0.00000000000E+00 0.  1.
         21    1    1    2  502  501 -0.12561002507E-04 -0.16896259336E-03  0.54253210917E-03  0.56837243619E-03  0.00000000000E+00 0. -1.
<mgrwt>
<rscale>  1 0.64438704E+03</rscale>
<asrwt>0</asrwt>
<pdfrwt beam="1">  1        1 0.37748887E+00 0.64438704E+03</pdfrwt>
<pdfrwt beam="2">0</pdfrwt>
<totfact> 0.16850861E+00</totfact>
</mgrwt>
</event>
<event>
 6    1  0.1758852E-002  0.5939895E+03  0.7818608E-02  0.9917955E-01
          1   -1    0    0  502    0  0.00000000000E+00  0.00000000000E+00  0.88230683584E+02  0.88230683584E+02  0.00000000000E+00 0.  1.
         13   -1    0    0    0    0 -0.00000000000E+00 -0.00000000000E+00 -0.10000000000E+04  0.10000000000E+04  0.00000000000E+00 0.  1.
    9000005    2    1    2  501    0 -0.24256158127E-03 -0.29846374603E-03 -0.91179411713E+03  0.10882058799E+04  0.59398949907E+03 0.  0.
         13    1    3    3    0    0  0.26243326993E+03 -0.12141976118E+03 -0.58004143371E+03  0.64812193636E+03  0.00000000000E+00 0.  1.
          3    1    3    3  501    0 -0.26243351249E+03  0.12141946272E+03 -0.33175268342E+03  0.44008394354E+03  0.00000000000E+00 0.  1.
         21    1    1    2  502  501  0.24256158128E-03  0.29846374603E-03  0.24800709254E-01  0.24803691182E-01  0.00000000000E+00 0.  1.
<mgrwt>
<rscale>  1 0.59398950E+03</rscale>
<asrwt>0</asrwt>
<pdfrwt beam="1">  1        1 0.32083953E+00 0.59398950E+03</pdfrwt>
<pdfrwt beam="2">0</pdfrwt>
<totfact> 0.30024867E+00</totfact>
</mgrwt>
</event>
