<event>
 6    1  0.1956957E-002  0.3000000E+03  0.7818608E-02  0.1093470E+00
          1   -1    0    0  502    0  0.00000000000E+00  0.00000000000E+00  0.31166187486E+01  0.31166187486E+01  0.00000000000E+00 0.  1.
         13   -1    0    0    0    0 -0.00000000000E+00 -0.00000000000E+00 -0.10000000000E+04  0.10000000000E+04  0.00000000000E+00 0.  1.
    9000005    2    1    2  501    0  0.51776219897E+02  0.14775356715E+02 -0.62969449659E+03  0.63200105032E+03  0.33287316305E+01 0.  0.
         13    1    3    3    0    0  0.49936280073E+02  0.14207409294E+02 -0.61337748010E+03  0.61557080474E+03  0.00000000000E+00 0.  1.
          3    1    3    3  501    0  0.18399398238E+01  0.56794742058E+00 -0.16317016489E+02  0.16430245583E+02  0.00000000000E+00 0.  1.
         21    1    1    2  502  501 -0.51776219897E+02 -0.14775356715E+02 -0.36718888466E+03  0.37111556843E+03  0.00000000000E+00 0.  1.
<mgrwt>
<rscale>  1 0.30000000E+03</rscale>
<asrwt>0</asrwt>
<pdfrwt beam="1">  1        1 0.11333183E-01 0.30000000E+03</pdfrwt>
<pdfrwt beam="2">0</pdfrwt>
<totfact> 0.63615716E+02</totfact>
</mgrwt>
</event>
<event>
 6    1  0.1956957E-002  0.3000000E+03  0.7818608E-02  0.1093470E+00
          3   -1    0    0  502    0  0.00000000000E+00  0.00000000000E+00  0.14198163300E+01  0.14198163300E+01  0.00000000000E+00 0.  1.
         13   -1    0    0    0    0 -0.00000000000E+00 -0.00000000000E+00 -0.10000000000E+04  0.10000000000E+04  0.00000000000E+00 0.  1.
    9000005    2    1    2  501    0 -0.21936796065E+02 -0.28653238785E+02 -0.64144587011E+03  0.64246696562E+03  0.29608293908E+01 0.  0.
         13    1    3    3    0    0 -0.14500770708E+02 -0.21119041914E+02 -0.44960534215E+03  0.45033459780E+03  0.00000000000E+00 0.  1.
          3    1    3    3  501    0 -0.74360253572E+01 -0.75341968709E+01 -0.19184052796E+03  0.19213236782E+03  0.00000000000E+00 0.  1.
         21    1    1    2  502  501  0.21936796065E+02  0.28653238785E+02 -0.35713431356E+03  0.35895285071E+03  0.00000000000E+00 0.  1.
<mgrwt>
<rscale>  1 0.30000000E+03</rscale>
<asrwt>0</asrwt>
<pdfrwt beam="1">  1        3 0.51629794E-02 0.30000000E+03</pdfrwt>
<pdfrwt beam="2">0</pdfrwt>
<totfact> 0.94157725E+02</totfact>
</mgrwt>
</event>
<event>
 6    1  0.1956957E-002  0.3000000E+03  0.7818608E-02  0.1093470E+00
          1   -1    0    0  502    0  0.00000000000E+00  0.00000000000E+00  0.17965734858E+02  0.17965734858E+02  0.00000000000E+00 0.  1.
         13   -1    0    0    0    0 -0.00000000000E+00 -0.00000000000E+00 -0.10000000000E+04  0.10000000000E+04  0.00000000000E+00 0.  1.
    9000005    2    1    2  501    0  0.36286663289E+02 -0.54838276348E+02 -0.93451786569E+03  0.93683764661E+03  0.41444335067E+01 0.  0.
         13    1    3    3    0    0  0.16522572106E+02 -0.27994841490E+02 -0.44394125013E+03  0.44512980141E+03  0.00000000000E+00 0.  1.
          1    1    3    3  501    0  0.19764091183E+02 -0.26843434858E+02 -0.49057661556E+03  0.49170784520E+03  0.00000000000E+00 0.  1.
         21    1    1    2  502  501 -0.36286663289E+02  0.54838276348E+02 -0.47516399451E+02  0.81128088245E+02  0.00000000000E+00 0.  1.
<mgrwt>
<rscale>  1 0.30000000E+03</rscale>
<asrwt>0</asrwt>
<pdfrwt beam="1">  1        1 0.65330083E-01 0.30000000E+03</pdfrwt>
<pdfrwt beam="2">0</pdfrwt>
<totfact> 0.61892738E+01</totfact>
</mgrwt>
</event>
<event>
 6    1  0.1956957E-002  0.3000000E+03  0.7818608E-02  0.1093470E+00
          3   -1    0    0  502    0  0.00000000000E+00  0.00000000000E+00  0.44149182528E+01  0.44149182528E+01  0.00000000000E+00 0.  1.
         13   -1    0    0    0    0 -0.00000000000E+00 -0.00000000000E+00 -0.10000000000E+04  0.10000000000E+04  0.00000000000E+00 0.  1.
    9000005    2    1    2  501    0 -0.21626666764E+02 -0.62257801572E+02 -0.55969129691E+03  0.56356671509E+03  0.30574416087E+01 0.  0.
         13    1    3    3    0    0 -0.69366710363E+01 -0.20408033987E+02 -0.19544061630E+03  0.19662563351E+03  0.00000000000E+00 0.  1.
          3    1    3    3  501    0 -0.14689995728E+02 -0.41849767585E+02 -0.36425068062E+03  0.36694108158E+03  0.00000000000E+00 0.  1.
         21    1    1    2  502  501  0.21626666764E+02  0.62257801572E+02 -0.43589378483E+03  0.44084820316E+03  0.00000000000E+00 0.  1.
<mgrwt>
<rscale>  1 0.30000000E+03</rscale>
<asrwt>0</asrwt>
<pdfrwt beam="1">  1        3 0.16054282E-01 0.30000000E+03</pdfrwt>
<pdfrwt beam="2">0</pdfrwt>
<totfact> 0.14786855E+02</totfact>
</mgrwt>
</event>
<event>
 6    1  0.1956957E-002  0.3000000E+03  0.7818608E-02  0.1093470E+00
          1   -1    0    0  502    0  0.00000000000E+00  0.00000000000E+00  0.14664831354E+01  0.14664831354E+01  0.00000000000E+00 0.  1.
         13   -1    0    0    0    0 -0.00000000000E+00 -0.00000000000E+00 -0.10000000000E+04  0.10000000000E+04  0.00000000000E+00 0.  1.
    9000005    2    1    2  501    0  0.22137743948E+02 -0.21312602090E+02 -0.79753625125E+03  0.79813373245E+03  0.30126580952E+01 0.  0.
         13    1    3    3    0    0  0.95382901319E+01 -0.10794238117E+02 -0.34820183264E+03  0.34849965682E+03  0.00000000000E+00 0.  1.
          1    1    3    3  501    0  0.12599453816E+02 -0.10518363973E+02 -0.44933441861E+03  0.44963407563E+03  0.00000000000E+00 0.  1.
         21    1    1    2  502  501 -0.22137743948E+02  0.21312602090E+02 -0.20099726562E+03  0.20333275068E+03  0.00000000000E+00 0.  1.
<mgrwt>
<rscale>  1 0.30000000E+03</rscale>
<asrwt>0</asrwt>
<pdfrwt beam="1">  1        1 0.53326772E-02 0.30000000E+03</pdfrwt>
<pdfrwt beam="2">0</pdfrwt>
<totfact> 0.18170316E+03</totfact>
</mgrwt>
</event>
<event>
 6    1  0.1956957E-002  0.3000000E+03  0.7818608E-02  0.1093470E+00
          1   -1    0    0  502    0  0.00000000000E+00  0.00000000000E+00  0.76389843203E+01  0.76389843203E+01  0.00000000000E+00 0.  1.
         13   -1    0    0    0    0 -0.00000000000E+00 -0.00000000000E+00 -0.10000000000E+04  0.10000000000E+04  0.00000000000E+00 0.  1.
    9000005    2    1    2  501    0  0.11801636811E+02  0.33913485108E+02 -0.95546226718E+03  0.95615189133E+03  0.53751454681E+01 0.  0.
         13    1    3    3    0    0  0.33320193102E+01  0.16681303752E+02 -0.41423737438E+03  0.41458650555E+03  0.00000000000E+00 0.  1.
          1    1    3    3  501    0  0.84696175006E+01  0.17232181357E+02 -0.54122489280E+03  0.54156538578E+03  0.00000000000E+00 0.  1.
         21    1    1    2  502  501 -0.11801636811E+02 -0.33913485108E+02 -0.36898748501E+02  0.51487092990E+02  0.00000000000E+00 0.  1.
<mgrwt>
<rscale>  1 0.30000000E+03</rscale>
<asrwt>0</asrwt>
<pdfrwt beam="1">  1        1 0.27778183E-01 0.30000000E+03</pdfrwt>
<pdfrwt beam="2">0</pdfrwt>
<totfact> 0.19052897E+02</totfact>
</mgrwt>
</event>
<event>
 6    1  0.1956957E-002  0.3000000E+03  0.7818608E-02  0.1093470E+00
          1   -1    0    0  502    0  0.00000000000E+00  0.00000000000E+00  0.44476468952E+01  0.44476468952E+01  0.00000000000E+00 0.  1.
         13   -1    0    0    0    0 -0.00000000000E+00 -0.00000000000E+00 -0.10000000000E+04  0.10000000000E+04  0.00000000000E+00 0.  1.
    9000005    2    1    2  501    0  0.60657140114E+02 -0.26845945718E+02 -0.54210488934E+03  0.54617415231E+03  0.53385533939E+01 0.  0.
         13    1    3    3    0    0  0.51923613397E+02 -0.21548370635E+02 -0.46969412153E+03  0.47304646887E+03  0.00000000000E+00 0.  1.
          3    1    3    3  501    0  0.87335267172E+01 -0.52975750830E+01 -0.72410767811E+02  0.73127683443E+02  0.00000000000E+00 0.  1.
         21    1    1    2  502  501 -0.60657140114E+02  0.26845945718E+02 -0.45344746376E+03  0.45827349459E+03  0.00000000000E+00 0.  1.
<mgrwt>
<rscale>  1 0.30000000E+03</rscale>
<asrwt>0</asrwt>
<pdfrwt beam="1">  1        1 0.16173296E-01 0.30000000E+03</pdfrwt>
<pdfrwt beam="2">0</pdfrwt>
<totfact> 0.39171231E+02</totfact>
</mgrwt>
</event>
<event>
 6    1  0.1956957E-002  0.3000000E+03  0.7818608E-02  0.1093470E+00
          1   -1    0    0  502    0  0.00000000000E+00  0.00000000000E+00  0.15085575977E+01  0.15085575977E+01  0.00000000000E+00 0.  1.
         13   -1    0    0    0    0 -0.00000000000E+00 -0.00000000000E+00 -0.10000000000E+04  0.10000000000E+04  0.00000000000E+00 0.  1.
    9000005    2    1    2  501    0 -0.19659205603E+02  0.32889639717E+02 -0.57435026838E+03  0.57564009402E+03  0.38825628228E+01 0.  0.
         13    1    3    3    0    0 -0.17524831909E+01  0.56272374752E+01 -0.90208461003E+02  0.90400793334E+02  0.00000000000E+00 0.  1.
          1    1    3    3  501    0 -0.17906722412E+02  0.27262402242E+02 -0.48414180737E+03  0.48523930069E+03  0.00000000000E+00 0.  1.
         21    1    1    2  502  501  0.19659205603E+02 -0.32889639717E+02 -0.42414117403E+03  0.42586846358E+03  0.00000000000E+00 0.  1.
<mgrwt>
<rscale>  1 0.30000000E+03</rscale>
<asrwt>0</asrwt>
<pdfrwt beam="1">  1        1 0.54856756E-02 0.30000000E+03</pdfrwt>
<pdfrwt beam="2">0</pdfrwt>
<totfact> 0.17462621E+03</totfact>
</mgrwt>
</event>
<event>
 6    1  0.1956957E-002  0.3000000E+03  0.7818608E-02  0.1093470E+00
          1   -1    0    0  502    0  0.00000000000E+00  0.00000000000E+00  0.87861842972E+01  0.87861842972E+01  0.00000000000E+00 0.  1.
         13   -1    0    0    0    0 -0.00000000000E+00 -0.00000000000E+00 -0.10000000000E+04  0.10000000000E+04  0.00000000000E+00 0.  1.
    9000005    2    1    2  501    0 -0.79553524333E+02  0.44690058874E+02 -0.38101572487E+03  0.39180346602E+03  0.33179499112E+01 0.  0.
         13    1    3    3    0    0 -0.25502858818E+02  0.13206872477E+02 -0.11483189546E+03  0.11836883671E+03  0.00000000000E+00 0.  1.
          3    1    3    3  501    0 -0.54050665515E+02  0.31483186396E+02 -0.26618382941E+03  0.27343462932E+03  0.00000000000E+00 0.  1.
         21    1    1    2  502  501  0.79553524333E+02 -0.44690058874E+02 -0.61019809083E+03  0.61698271827E+03  0.00000000000E+00 0.  1.
<mgrwt>
<rscale>  1 0.30000000E+03</rscale>
<asrwt>0</asrwt>
<pdfrwt beam="1">  1        1 0.31949828E-01 0.30000000E+03</pdfrwt>
<pdfrwt beam="2">0</pdfrwt>
<totfact> 0.15856815E+02</totfact>
</mgrwt>
</event>
<event>
 6    1  0.1956957E-002  0.3000000E+03  0.7818608E-02  0.1093470E+00
          3   -1    0    0  502    0  0.00000000000E+00  0.00000000000E+00  0.50763033332E+01  0.50763033332E+01  0.00000000000E+00 0.  1.
         13   -1    0    0    0    0 -0.00000000000E+00 -0.00000000000E+00 -0.10000000000E+04  0.10000000000E+04  0.00000000000E+00 0.  1.
    9000005    2    1    2  501    0  0.13269024483E+01 -0.45181631874E+02 -0.88579994730E+03  0.88696138808E+03  0.39770319031E+01 0.  0.
         13    1    3    3    0    0  0.25385195674E+01 -0.22748737892E+02 -0.46027372936E+03  0.46084254914E+03  0.00000000000E+00 0.  1.
          3    1    3    3  501    0 -0.12116171191E+01 -0.22432893983E+02 -0.42552621794E+03  0.42611883895E+03  0.00000000000E+00 0.  1.
         21    1    1    2  502  501 -0.13269024483E+01  0.45181631874E+02 -0.10912374937E+03  0.11811491525E+03  0.00000000000E+00 0.  1.
<mgrwt>
<rscale>  1 0.30000000E+03</rscale>
<asrwt>0</asrwt>
<pdfrwt beam="1">  1        3 0.18459324E-01 0.30000000E+03</pdfrwt>
<pdfrwt beam="2">0</pdfrwt>
<totfact> 0.11549718E+02</totfact>
</mgrwt>
</event>
<event>
 6    1  0.1956957E-002  0.3000000E+03  0.7818608E-02  0.1093470E+00
          1   -1    0    0  502    0  0.00000000000E+00  0.00000000000E+00  0.13640393938E+01  0.13640393938E+01  0.00000000000E+00 0.  1.
         13   -1    0    0    0    0 -0.00000000000E+00 -0.00000000000E+00 -0.10000000000E+04  0.10000000000E+04  0.00000000000E+00 0.  1.
    9000005    2    1    2  501    0  0.21062061426E+02 -0.23185598223E+02 -0.76355193586E+03  0.76420232012E+03  0.35277372159E+01 0.  0.
         13    1    3    3    0    0  0.66642685180E+01 -0.50633693282E+01 -0.20987350506E+03  0.21004032543E+03  0.00000000000E+00 0.  1.
          3    1    3    3  501    0  0.14397792908E+02 -0.18122228895E+02 -0.55367843080E+03  0.55416199469E+03  0.00000000000E+00 0.  1.
         21    1    1    2  502  501 -0.21062061426E+02  0.23185598223E+02 -0.23508402475E+03  0.23716171927E+03  0.00000000000E+00 0.  1.
<mgrwt>
<rscale>  1 0.30000000E+03</rscale>
<asrwt>0</asrwt>
<pdfrwt beam="1">  1        1 0.49601537E-02 0.30000000E+03</pdfrwt>
<pdfrwt beam="2">0</pdfrwt>
<totfact> 0.20116580E+03</totfact>
</mgrwt>
</event>
<event>
 6    1  0.1956957E-002  0.3000000E+03  0.7818608E-02  0.1093470E+00
          1   -1    0    0  502    0  0.00000000000E+00  0.00000000000E+00  0.10997624847E+01  0.10997624847E+01  0.00000000000E+00 0.  1.
         13   -1    0    0    0    0 -0.00000000000E+00 -0.00000000000E+00 -0.10000000000E+04  0.10000000000E+04  0.00000000000E+00 0.  1.
    9000005    2    1    2  501    0  0.14368062940E+02 -0.29535558005E+02 -0.44220001693E+03  0.44343146858E+03  0.34383049281E+01 0.  0.
         13    1    3    3    0    0  0.68784661325E-01 -0.18990003961E+01 -0.27738650085E+02  0.27803662391E+02  0.00000000000E+00 0.  1.
          3    1    3    3  501    0  0.14299278279E+02 -0.27636557609E+02 -0.41446136684E+03  0.41562780619E+03  0.00000000000E+00 0.  1.
         21    1    1    2  502  501 -0.14368062940E+02  0.29535558005E+02 -0.55670022059E+03  0.55766829390E+03  0.00000000000E+00 0.  1.
<mgrwt>
<rscale>  1 0.30000000E+03</rscale>
<asrwt>0</asrwt>
<pdfrwt beam="1">  1        1 0.39991447E-02 0.30000000E+03</pdfrwt>
<pdfrwt beam="2">0</pdfrwt>
<totfact> 0.27237725E+03</totfact>
</mgrwt>
</event>
<event>
 6    1  0.1956957E-002  0.3000000E+03  0.7818608E-02  0.1093470E+00
          1   -1    0    0  502    0  0.00000000000E+00  0.00000000000E+00  0.17979200146E+01  0.17979200146E+01  0.00000000000E+00 0.  1.
         13   -1    0    0    0    0 -0.00000000000E+00 -0.00000000000E+00 -0.10000000000E+04  0.10000000000E+04  0.00000000000E+00 0.  1.
    9000005    2    1    2  501    0  0.40032981272E+02 -0.11039564450E+01 -0.66171629673E+03  0.66293726924E+03  0.36752254556E+01 0.  0.
         13    1    3    3    0    0  0.33832513254E+02 -0.12623885135E-01 -0.57289405840E+03  0.57389218610E+03  0.00000000000E+00 0.  1.
          1    1    3    3  501    0  0.62004680179E+01 -0.10913325599E+01 -0.88822238329E+02  0.89045083144E+02  0.00000000000E+00 0.  1.
         21    1    1    2  502  501 -0.40032981272E+02  0.11039564450E+01 -0.33648578326E+03  0.33886065077E+03  0.00000000000E+00 0.  1.
<mgrwt>
<rscale>  1 0.30000000E+03</rscale>
<asrwt>0</asrwt>
<pdfrwt beam="1">  1        1 0.65379047E-02 0.30000000E+03</pdfrwt>
<pdfrwt beam="2">0</pdfrwt>
<totfact> 0.13652486E+03</totfact>
</mgrwt>
</event>
<event>
 6    1  0.1956957E-002  0.3000000E+03  0.7818608E-02  0.1093470E+00
          3   -1    0    0  502    0  0.00000000000E+00  0.00000000000E+00  0.31400642063E+01  0.31400642063E+01  0.00000000000E+00 0.  1.
         13   -1    0    0    0    0 -0.00000000000E+00 -0.00000000000E+00 -0.10000000000E+04  0.10000000000E+04  0.00000000000E+00 0.  1.
    9000005    2    1    2  501    0 -0.37116776715E+01 -0.37943146929E+02 -0.86590321398E+03  0.86674680214E+03  0.28607833786E+01 0.  0.
         13    1    3    3    0    0 -0.35967367510E+01 -0.22351173668E+02 -0.51450876172E+03  0.51500657993E+03  0.00000000000E+00 0.  1.
          3    1    3    3  501    0 -0.11494092051E+00 -0.15591973261E+02 -0.35139445226E+03  0.35174022221E+03  0.00000000000E+00 0.  1.
         21    1    1    2  502  501  0.37116776715E+01  0.37943146929E+02 -0.13095672181E+03  0.13639326207E+03  0.00000000000E+00 0.  1.
<mgrwt>
<rscale>  1 0.30000000E+03</rscale>
<asrwt>0</asrwt>
<pdfrwt beam="1">  1        3 0.11418439E-01 0.30000000E+03</pdfrwt>
<pdfrwt beam="2">0</pdfrwt>
<totfact> 0.26484781E+02</totfact>
</mgrwt>
</event>
<event>
 6    1  0.1956957E-002  0.3000000E+03  0.7818608E-02  0.1093470E+00
          3   -1    0    0  502    0  0.00000000000E+00  0.00000000000E+00  0.23428453975E+01  0.23428453975E+01  0.00000000000E+00 0.  1.
         13   -1    0    0    0    0 -0.00000000000E+00 -0.00000000000E+00 -0.10000000000E+04  0.10000000000E+04  0.00000000000E+00 0.  1.
    9000005    2    1    2  501    0 -0.10156658329E+02  0.44512421133E+02 -0.66398883469E+03  0.66556538021E+03  0.34043208466E+01 0.  0.
         13    1    3    3    0    0 -0.59721780857E+00  0.11498502774E+01 -0.13194039293E+02  0.13257507218E+02  0.00000000000E+00 0.  1.
          1    1    3    3  501    0 -0.95594405209E+01  0.43362570855E+02 -0.65079479540E+03  0.65230787300E+03  0.00000000000E+00 0.  1.
         21    1    1    2  502  501  0.10156658329E+02 -0.44512421133E+02 -0.33366831991E+03  0.33677746518E+03  0.00000000000E+00 0.  1.
<mgrwt>
<rscale>  1 0.30000000E+03</rscale>
<asrwt>0</asrwt>
<pdfrwt beam="1">  1        3 0.85194558E-02 0.30000000E+03</pdfrwt>
<pdfrwt beam="2">0</pdfrwt>
<totfact> 0.42849807E+02</totfact>
</mgrwt>
</event>
<event>
 6    1  0.1956957E-002  0.3000000E+03  0.7818608E-02  0.1093470E+00
          3   -1    0    0  502    0  0.00000000000E+00  0.00000000000E+00  0.23283353740E+02  0.23283353740E+02  0.00000000000E+00 0.  1.
         13   -1    0    0    0    0 -0.00000000000E+00 -0.00000000000E+00 -0.10000000000E+04  0.10000000000E+04  0.00000000000E+00 0.  1.
    9000005    2    1    2  501    0  0.57097751347E+02 -0.54957319164E+01 -0.96246124461E+03  0.96417690101E+03  0.38849430959E+01 0.  0.
         13    1    3    3    0    0  0.30533771482E+02 -0.38413453715E+01 -0.54476709946E+03  0.54563564747E+03  0.00000000000E+00 0.  1.
          1    1    3    3  501    0  0.26563979865E+02 -0.16543865449E+01 -0.41769414515E+03  0.41854125354E+03  0.00000000000E+00 0.  1.
         21    1    1    2  502  501 -0.57097751347E+02  0.54957319164E+01 -0.14255401648E+02  0.59106452730E+02  0.00000000000E+00 0.  1.
<mgrwt>
<rscale>  1 0.30000000E+03</rscale>
<asrwt>0</asrwt>
<pdfrwt beam="1">  1        3 0.84666919E-01 0.30000000E+03</pdfrwt>
<pdfrwt beam="2">0</pdfrwt>
<totfact> 0.58922176E+00</totfact>
</mgrwt>
</event>
<event>
 6    1  0.1956957E-002  0.3000000E+03  0.7818608E-02  0.1093470E+00
          3   -1    0    0  502    0  0.00000000000E+00  0.00000000000E+00  0.92676511860E+01  0.92676511860E+01  0.00000000000E+00 0.  1.
         13   -1    0    0    0    0 -0.00000000000E+00 -0.00000000000E+00 -0.10000000000E+04  0.10000000000E+04  0.00000000000E+00 0.  1.
    9000005    2    1    2  501    0  0.88624455223E+02  0.37466219314E+02 -0.50731402656E+03  0.51636676262E+03  0.30166780148E+01 0.  0.
         13    1    3    3    0    0  0.10619776707E+02  0.50843541281E+01 -0.57785093794E+02  0.58972428973E+02  0.00000000000E+00 0.  1.
          3    1    3    3  501    0  0.78004678516E+02  0.32381865186E+02 -0.44952893276E+03  0.45739433365E+03  0.00000000000E+00 0.  1.
         21    1    1    2  502  501 -0.88624455223E+02 -0.37466219314E+02 -0.48341832226E+03  0.49290088856E+03  0.00000000000E+00 0.  1.
<mgrwt>
<rscale>  1 0.30000000E+03</rscale>
<asrwt>0</asrwt>
<pdfrwt beam="1">  1        3 0.33700621E-01 0.30000000E+03</pdfrwt>
<pdfrwt beam="2">0</pdfrwt>
<totfact> 0.37444788E+01</totfact>
</mgrwt>
</event>
<event>
 6    1  0.1956957E-002  0.3000000E+03  0.7818608E-02  0.1093470E+00
          1   -1    0    0  502    0  0.00000000000E+00  0.00000000000E+00  0.34681087325E+01  0.34681087325E+01  0.00000000000E+00 0.  1.
         13   -1    0    0    0    0 -0.00000000000E+00 -0.00000000000E+00 -0.10000000000E+04  0.10000000000E+04  0.00000000000E+00 0.  1.
    9000005    2    1    2  501    0  0.43621549898E+02 -0.21091813331E+02 -0.78319319392E+03  0.78469630070E+03  0.30001866426E+01 0.  0.
         13    1    3    3    0    0  0.35690777600E+02 -0.16205737008E+02 -0.62105587511E+03  0.62229161775E+03  0.00000000000E+00 0.  1.
          1    1    3    3  501    0  0.79307722976E+01 -0.48860763235E+01 -0.16213731882E+03  0.16240468295E+03  0.00000000000E+00 0.  1.
         21    1    1    2  502  501 -0.43621549898E+02  0.21091813331E+02 -0.21333869734E+03  0.21877180803E+03  0.00000000000E+00 0.  1.
<mgrwt>
<rscale>  1 0.30000000E+03</rscale>
<asrwt>0</asrwt>
<pdfrwt beam="1">  1        1 0.12611331E-01 0.30000000E+03</pdfrwt>
<pdfrwt beam="2">0</pdfrwt>
<totfact> 0.54947294E+02</totfact>
</mgrwt>
</event>
<event>
 6    1  0.1956957E-002  0.3000000E+03  0.7818608E-02  0.1093470E+00
          1   -1    0    0  502    0  0.00000000000E+00  0.00000000000E+00  0.23444267725E+01  0.23444267725E+01  0.00000000000E+00 0.  1.
         13   -1    0    0    0    0 -0.00000000000E+00 -0.00000000000E+00 -0.10000000000E+04  0.10000000000E+04  0.00000000000E+00 0.  1.
    9000005    2    1    2  501    0 -0.29719373518E+02 -0.10160876305E+02 -0.87981396440E+03  0.88038898679E+03  0.50667092689E+01 0.  0.
         13    1    3    3    0    0 -0.82716657902E+01 -0.61262486643E+00 -0.25035982858E+03  0.25049718468E+03  0.00000000000E+00 0.  1.
          3    1    3    3  501    0 -0.21447707728E+02 -0.95482514388E+01 -0.62945413582E+03  0.62989180211E+03  0.00000000000E+00 0.  1.
         21    1    1    2  502  501  0.29719373518E+02  0.10160876305E+02 -0.11784160883E+03  0.12195543998E+03  0.00000000000E+00 0.  1.
<mgrwt>
<rscale>  1 0.30000000E+03</rscale>
<asrwt>0</asrwt>
<pdfrwt beam="1">  1        1 0.85252062E-02 0.30000000E+03</pdfrwt>
<pdfrwt beam="2">0</pdfrwt>
<totfact> 0.94268212E+02</totfact>
</mgrwt>
</event>
<event>
 6    1  0.1956957E-002  0.3000000E+03  0.7818608E-02  0.1093470E+00
          1   -1    0    0  502    0  0.00000000000E+00  0.00000000000E+00  0.10967677513E+01  0.10967677513E+01  0.00000000000E+00 0.  1.
         13   -1    0    0    0    0 -0.00000000000E+00 -0.00000000000E+00 -0.10000000000E+04  0.10000000000E+04  0.00000000000E+00 0.  1.
    9000005    2    1    2  501    0  0.30259776131E+02  0.14922354633E+01 -0.70043851055E+03  0.70109831623E+03  0.26193772337E+01 0.  0.
         13    1    3    3    0    0  0.19498624017E+01 -0.31481368583E+00 -0.58480247518E+02  0.58513591762E+02  0.00000000000E+00 0.  1.
          3    1    3    3  501    0  0.28309913729E+02  0.18070491492E+01 -0.64195826303E+03  0.64258472446E+03  0.00000000000E+00 0.  1.
         21    1    1    2  502  501 -0.30259776131E+02 -0.14922354633E+01 -0.29846472170E+03  0.29999845153E+03  0.00000000000E+00 0.  1.
<mgrwt>
<rscale>  1 0.30000000E+03</rscale>
<asrwt>0</asrwt>
<pdfrwt beam="1">  1        1 0.39882548E-02 0.30000000E+03</pdfrwt>
<pdfrwt beam="2">0</pdfrwt>
<totfact> 0.27342496E+03</totfact>
</mgrwt>
</event>
<event>
 6    1  0.1956957E-002  0.3000000E+03  0.7818608E-02  0.1093470E+00
          3   -1    0    0  502    0  0.00000000000E+00  0.00000000000E+00  0.29516582697E+01  0.29516582697E+01  0.00000000000E+00 0.  1.
         13   -1    0    0    0    0 -0.00000000000E+00 -0.00000000000E+00 -0.10000000000E+04  0.10000000000E+04  0.00000000000E+00 0.  1.
    9000005    2    1    2  501    0 -0.24829011306E+01  0.38928802024E+02 -0.84729448281E+03  0.84820077883E+03  0.38735238706E+01 0.  0.
         13    1    3    3    0    0  0.75606934075E+00  0.56816496659E+01 -0.10797456968E+03  0.10812659470E+03  0.00000000000E+00 0.  1.
          1    1    3    3  501    0 -0.32389704714E+01  0.33247152358E+02 -0.73931991313E+03  0.74007418414E+03  0.00000000000E+00 0.  1.
         21    1    1    2  502  501  0.24829011306E+01 -0.38928802024E+02 -0.14975385892E+03  0.15475087944E+03  0.00000000000E+00 0.  1.
<mgrwt>
<rscale>  1 0.30000000E+03</rscale>
<asrwt>0</asrwt>
<pdfrwt beam="1">  1        3 0.10733325E-01 0.30000000E+03</pdfrwt>
<pdfrwt beam="2">0</pdfrwt>
<totfact> 0.29371210E+02</totfact>
</mgrwt>
</event>
<event>
 6    1  0.1956957E-002  0.3000000E+03  0.7818608E-02  0.1093470E+00
          3   -1    0    0  502    0  0.00000000000E+00  0.00000000000E+00  0.26192427906E+01  0.26192427906E+01  0.00000000000E+00 0.  1.
         13   -1    0    0    0    0 -0.00000000000E+00 -0.00000000000E+00 -0.10000000000E+04  0.10000000000E+04  0.00000000000E+00 0.  1.
    9000005    2    1    2  501    0  0.48167295168E+02  0.15242437696E+02 -0.57598817634E+03  0.57820891370E+03  0.32784695827E+01 0.  0.
         13    1    3    3    0    0  0.10756992487E+02  0.19969890000E+01 -0.12296249147E+03  0.12344826917E+03  0.00000000000E+00 0.  1.
          1    1    3    3  501    0  0.37410302681E+02  0.13245448696E+02 -0.45302568487E+03  0.45476064452E+03  0.00000000000E+00 0.  1.
         21    1    1    2  502  501 -0.48167295168E+02 -0.15242437696E+02 -0.42139258087E+03  0.42441032909E+03  0.00000000000E+00 0.  1.
<mgrwt>
<rscale>  1 0.30000000E+03</rscale>
<asrwt>0</asrwt>
<pdfrwt beam="1">  1        3 0.95245393E-02 0.30000000E+03</pdfrwt>
<pdfrwt beam="2">0</pdfrwt>
<totfact> 0.35771065E+02</totfact>
</mgrwt>
</event>
<event>
 6    1  0.1956957E-002  0.3000000E+03  0.7818608E-02  0.1093470E+00
          1   -1    0    0  502    0  0.00000000000E+00  0.00000000000E+00  0.12881220166E+01  0.12881220166E+01  0.00000000000E+00 0.  1.
         13   -1    0    0    0    0 -0.00000000000E+00 -0.00000000000E+00 -0.10000000000E+04  0.10000000000E+04  0.00000000000E+00 0.  1.
    9000005    2    1    2  501    0 -0.31180383207E+02 -0.17077985304E+02 -0.44027878366E+03  0.44172454680E+03  0.33606578738E+01 0.  0.
         13    1    3    3    0    0 -0.14891090035E+02 -0.63853198099E+01 -0.19221422782E+03  0.19289589485E+03  0.00000000000E+00 0.  1.
          1    1    3    3  501    0 -0.16289293172E+02 -0.10692665495E+02 -0.24806455584E+03  0.24882865195E+03  0.00000000000E+00 0.  1.
         21    1    1    2  502  501  0.31180383207E+02  0.17077985304E+02 -0.55843309432E+03  0.55956357522E+03  0.00000000000E+00 0.  1.
<mgrwt>
<rscale>  1 0.30000000E+03</rscale>
<asrwt>0</asrwt>
<pdfrwt beam="1">  1        1 0.46840899E-02 0.30000000E+03</pdfrwt>
<pdfrwt beam="2">0</pdfrwt>
<totfact> 0.21803464E+03</totfact>
</mgrwt>
</event>
<event>
 6    1  0.1956957E-002  0.3000000E+03  0.7818608E-02  0.1093470E+00
          3   -1    0    0  502    0  0.00000000000E+00  0.00000000000E+00  0.95778198390E+00  0.95778198390E+00  0.00000000000E+00 0.  1.
         13   -1    0    0    0    0 -0.00000000000E+00 -0.00000000000E+00 -0.10000000000E+04  0.10000000000E+04  0.00000000000E+00 0.  1.
    9000005    2    1    2  501    0 -0.30770430506E+02  0.36880001606E+00 -0.53133423521E+03  0.53223855623E+03  0.38543260098E+01 0.  0.
         13    1    3    3    0    0 -0.26259147237E+02  0.16060963104E+01 -0.44284437941E+03  0.44362514214E+03  0.00000000000E+00 0.  1.
          3    1    3    3  501    0 -0.45112832683E+01 -0.12372962944E+01 -0.88489855794E+02  0.88613414094E+02  0.00000000000E+00 0.  1.
         21    1    1    2  502  501  0.30770430506E+02 -0.36880001606E+00 -0.46770798281E+03  0.46871922575E+03  0.00000000000E+00 0.  1.
<mgrwt>
<rscale>  1 0.30000000E+03</rscale>
<asrwt>0</asrwt>
<pdfrwt beam="1">  1        3 0.34828509E-02 0.30000000E+03</pdfrwt>
<pdfrwt beam="2">0</pdfrwt>
<totfact> 0.17267966E+03</totfact>
</mgrwt>
</event>
<event>
 6    1  0.1956957E-002  0.3000000E+03  0.7818608E-02  0.1093470E+00
          1   -1    0    0  502    0  0.00000000000E+00  0.00000000000E+00  0.13279041374E+01  0.13279041374E+01  0.00000000000E+00 0.  1.
         13   -1    0    0    0    0 -0.00000000000E+00 -0.00000000000E+00 -0.10000000000E+04  0.10000000000E+04  0.00000000000E+00 0.  1.
    9000005    2    1    2  501    0  0.77749798930E+00 -0.35691657357E+02 -0.40062302044E+03  0.40221422918E+03  0.17270610151E+01 0.  0.
         13    1    3    3    0    0  0.67949552315E+00 -0.94234252626E+01 -0.99399451204E+02  0.99847451432E+02  0.00000000000E+00 0.  1.
          1    1    3    3  501    0  0.98002466154E-01 -0.26268232094E+02 -0.30122356923E+03  0.30236677774E+03  0.00000000000E+00 0.  1.
         21    1    1    2  502  501 -0.77749798930E+00  0.35691657357E+02 -0.59804907542E+03  0.59911367496E+03  0.00000000000E+00 0.  1.
<mgrwt>
<rscale>  1 0.30000000E+03</rscale>
<asrwt>0</asrwt>
<pdfrwt beam="1">  1        1 0.48287525E-02 0.30000000E+03</pdfrwt>
<pdfrwt beam="2">0</pdfrwt>
<totfact> 0.20890428E+03</totfact>
</mgrwt>
</event>
<event>
 6    1  0.1956957E-002  0.3000000E+03  0.7818608E-02  0.1093470E+00
          1   -1    0    0  502    0  0.00000000000E+00  0.00000000000E+00  0.29863826404E+02  0.29863826404E+02  0.00000000000E+00 0.  1.
         13   -1    0    0    0    0 -0.00000000000E+00 -0.00000000000E+00 -0.10000000000E+04  0.10000000000E+04  0.00000000000E+00 0.  1.
    9000005    2    1    2  501    0 -0.34462282170E+02 -0.13404265357E+02 -0.98806879685E+03  0.98876757111E+03  0.37468842162E+01 0.  0.
         13    1    3    3    0    0 -0.57626865060E+01 -0.36427938110E+01 -0.16539693473E+03  0.16553738103E+03  0.00000000000E+00 0.  1.
          3    1    3    3  501    0 -0.28699595664E+02 -0.97614715464E+01 -0.82267186213E+03  0.82323019008E+03  0.00000000000E+00 0.  1.
         21    1    1    2  502  501  0.34462282170E+02  0.13404265357E+02  0.17932623258E+02  0.41096255293E+02  0.00000000000E+00 0.  1.
<mgrwt>
<rscale>  1 0.30000000E+03</rscale>
<asrwt>0</asrwt>
<pdfrwt beam="1">  1        1 0.10859596E+00 0.30000000E+03</pdfrwt>
<pdfrwt beam="2">0</pdfrwt>
<totfact> 0.30290068E+01</totfact>
</mgrwt>
</event>
<event>
 6    1  0.1956957E-002  0.3000000E+03  0.7818608E-02  0.1093470E+00
          3   -1    0    0  502    0  0.00000000000E+00  0.00000000000E+00  0.32752481291E+01  0.32752481291E+01  0.00000000000E+00 0.  1.
         13   -1    0    0    0    0 -0.00000000000E+00 -0.00000000000E+00 -0.10000000000E+04  0.10000000000E+04  0.00000000000E+00 0.  1.
    9000005    2    1    2  501    0 -0.44782596234E+02  0.27569942317E+02 -0.69548398459E+03  0.69747861225E+03  0.35859553687E+01 0.  0.
         13    1    3    3    0    0 -0.22752647491E+02  0.15623067958E+02 -0.37964805992E+03  0.38064998702E+03  0.00000000000E+00 0.  1.
          1    1    3    3  501    0 -0.22029948743E+02  0.11946874359E+02 -0.31583592467E+03  0.31682862522E+03  0.00000000000E+00 0.  1.
         21    1    1    2  502  501  0.44782596234E+02 -0.27569942317E+02 -0.30124076728E+03  0.30579663588E+03  0.00000000000E+00 0.  1.
<mgrwt>
<rscale>  1 0.30000000E+03</rscale>
<asrwt>0</asrwt>
<pdfrwt beam="1">  1        3 0.11910018E-01 0.30000000E+03</pdfrwt>
<pdfrwt beam="2">0</pdfrwt>
<totfact> 0.24672465E+02</totfact>
</mgrwt>
</event>
<event>
 6    1  0.1956957E-002  0.3000000E+03  0.7818608E-02  0.1093470E+00
          1   -1    0    0  502    0  0.00000000000E+00  0.00000000000E+00  0.10829884278E+02  0.10829884278E+02  0.00000000000E+00 0.  1.
         13   -1    0    0    0    0 -0.00000000000E+00 -0.00000000000E+00 -0.10000000000E+04  0.10000000000E+04  0.00000000000E+00 0.  1.
    9000005    2    1    2  501    0 -0.15837847743E+02  0.33684342728E+02 -0.96655430571E+03  0.96727592661E+03  0.31654292829E+01 0.  0.
         13    1    3    3    0    0 -0.10218332429E+02  0.18052619504E+02 -0.53287601400E+03  0.53327962430E+03  0.00000000000E+00 0.  1.
          3    1    3    3  501    0 -0.56195153134E+01  0.15631723224E+02 -0.43367829171E+03  0.43399630231E+03  0.00000000000E+00 0.  1.
         21    1    1    2  502  501  0.15837847743E+02 -0.33684342728E+02 -0.22615810009E+02  0.43553957668E+02  0.00000000000E+00 0.  1.
<mgrwt>
<rscale>  1 0.30000000E+03</rscale>
<asrwt>0</asrwt>
<pdfrwt beam="1">  1        1 0.39381480E-01 0.30000000E+03</pdfrwt>
<pdfrwt beam="2">0</pdfrwt>
<totfact> 0.12063699E+02</totfact>
</mgrwt>
</event>
<event>
 6    1  0.1956957E-002  0.3000000E+03  0.7818608E-02  0.1093470E+00
          3   -1    0    0  502    0  0.00000000000E+00  0.00000000000E+00  0.13824289239E+01  0.13824289239E+01  0.00000000000E+00 0.  1.
         13   -1    0    0    0    0 -0.00000000000E+00 -0.00000000000E+00 -0.10000000000E+04  0.10000000000E+04  0.00000000000E+00 0.  1.
    9000005    2    1    2  501    0  0.24093328646E+02 -0.26863871884E+02 -0.61805975660E+03  0.61911759107E+03  0.25637376181E+01 0.  0.
         13    1    3    3    0    0  0.15390416160E+00  0.21278095272E-01 -0.45036362446E+01  0.45063154209E+01  0.00000000000E+00 0.  1.
          1    1    3    3  501    0  0.23939424484E+02 -0.26885149979E+02 -0.61355612036E+03  0.61461127565E+03  0.00000000000E+00 0.  1.
         21    1    1    2  502  501 -0.24093328646E+02  0.26863871884E+02 -0.38055781448E+03  0.38226483785E+03  0.00000000000E+00 0.  1.
<mgrwt>
<rscale>  1 0.30000000E+03</rscale>
<asrwt>0</asrwt>
<pdfrwt beam="1">  1        3 0.50270249E-02 0.30000000E+03</pdfrwt>
<pdfrwt beam="2">0</pdfrwt>
<totfact> 0.98119524E+02</totfact>
</mgrwt>
</event>
<event>
 6    1  0.1956957E-002  0.3000000E+03  0.7818608E-02  0.1093470E+00
          1   -1    0    0  502    0  0.00000000000E+00  0.00000000000E+00  0.34670557708E+01  0.34670557708E+01  0.00000000000E+00 0.  1.
         13   -1    0    0    0    0 -0.00000000000E+00 -0.00000000000E+00 -0.10000000000E+04  0.10000000000E+04  0.00000000000E+00 0.  1.
    9000005    2    1    2  501    0 -0.54203324382E+02  0.15648240455E+02 -0.35772602424E+03  0.36217371507E+03  0.43616125861E+01 0.  0.
         13    1    3    3    0    0 -0.40229039775E+02  0.11254366340E+02 -0.27640491486E+03  0.27954375930E+03  0.00000000000E+00 0.  1.
          1    1    3    3  501    0 -0.13974284607E+02  0.43938741151E+01 -0.81321109377E+02  0.82629955769E+02  0.00000000000E+00 0.  1.
         21    1    1    2  502  501  0.54203324382E+02 -0.15648240455E+02 -0.63880691999E+03  0.64129334070E+03  0.00000000000E+00 0.  1.
<mgrwt>
<rscale>  1 0.30000000E+03</rscale>
<asrwt>0</asrwt>
<pdfrwt beam="1">  1        1 0.12607502E-01 0.30000000E+03</pdfrwt>
<pdfrwt beam="2">0</pdfrwt>
<totfact> 0.54970128E+02</totfact>
</mgrwt>
</event>
<event>
 6    1  0.1956957E-002  0.3000000E+03  0.7818608E-02  0.1093470E+00
          1   -1    0    0  502    0  0.00000000000E+00  0.00000000000E+00  0.21958837179E+02  0.21958837179E+02  0.00000000000E+00 0.  1.
         13   -1    0    0    0    0 -0.00000000000E+00 -0.00000000000E+00 -0.10000000000E+04  0.10000000000E+04  0.00000000000E+00 0.  1.
    9000005    2    1    2  501    0 -0.55588098875E+02 -0.67548406073E+02 -0.90142783614E+03  0.90567287188E+03  0.42875631489E+01 0.  0.
         13    1    3    3    0    0 -0.54854784393E+02 -0.66237913569E+02 -0.88004188929E+03  0.88423426504E+03  0.00000000000E+00 0.  1.
          3    1    3    3  501    0 -0.73331448145E+00 -0.13104925038E+01 -0.21385946849E+02  0.21438606843E+02  0.00000000000E+00 0.  1.
         21    1    1    2  502  501  0.55588098875E+02  0.67548406073E+02 -0.76613326681E+02  0.11628596530E+03  0.00000000000E+00 0.  1.
<mgrwt>
<rscale>  1 0.30000000E+03</rscale>
<asrwt>0</asrwt>
<pdfrwt beam="1">  1        1 0.79850485E-01 0.30000000E+03</pdfrwt>
<pdfrwt beam="2">0</pdfrwt>
<totfact> 0.47087414E+01</totfact>
</mgrwt>
</event>
<event>
 6    1  0.1956957E-002  0.3000000E+03  0.7818608E-02  0.1093470E+00
          3   -1    0    0  502    0  0.00000000000E+00  0.00000000000E+00  0.14867941694E+01  0.14867941694E+01  0.00000000000E+00 0.  1.
         13   -1    0    0    0    0 -0.00000000000E+00 -0.00000000000E+00 -0.10000000000E+04  0.10000000000E+04  0.00000000000E+00 0.  1.
    9000005    2    1    2  501    0  0.28459570724E+02 -0.16769391281E+02 -0.75673219157E+03  0.75745970857E+03  0.32312067964E+01 0.  0.
         13    1    3    3    0    0  0.85354407097E+00 -0.96292659216E+00 -0.20261020222E+02  0.20301839954E+02  0.00000000000E+00 0.  1.
          3    1    3    3  501    0  0.27606026653E+02 -0.15806464689E+02 -0.73647117135E+03  0.73715786862E+03  0.00000000000E+00 0.  1.
         21    1    1    2  502  501 -0.28459570724E+02  0.16769391281E+02 -0.24178101426E+03  0.24402708560E+03  0.00000000000E+00 0.  1.
<mgrwt>
<rscale>  1 0.30000000E+03</rscale>
<asrwt>0</asrwt>
<pdfrwt beam="1">  1        3 0.54065357E-02 0.30000000E+03</pdfrwt>
<pdfrwt beam="2">0</pdfrwt>
<totfact> 0.87678365E+02</totfact>
</mgrwt>
</event>
<event>
 6    1  0.1956957E-002  0.3000000E+03  0.7818608E-02  0.1093470E+00
          1   -1    0    0  502    0  0.00000000000E+00  0.00000000000E+00  0.12281005215E+01  0.12281005215E+01  0.00000000000E+00 0.  1.
         13   -1    0    0    0    0 -0.00000000000E+00 -0.00000000000E+00 -0.10000000000E+04  0.10000000000E+04  0.00000000000E+00 0.  1.
    9000005    2    1    2  501    0  0.23771409745E+02 -0.23486968147E+02 -0.64041855263E+03  0.64132000282E+03  0.62214041558E+01 0.  0.
         13    1    3    3    0    0  0.21059973780E+02 -0.17565817056E+02 -0.50250976263E+03  0.50325753046E+03  0.00000000000E+00 0.  1.
          1    1    3    3  501    0  0.27114359649E+01 -0.59211510911E+01 -0.13790879000E+03  0.13806247236E+03  0.00000000000E+00 0.  1.
         21    1    1    2  502  501 -0.23771409745E+02  0.23486968147E+02 -0.35835334685E+03  0.35990809770E+03  0.00000000000E+00 0.  1.
<mgrwt>
<rscale>  1 0.30000000E+03</rscale>
<asrwt>0</asrwt>
<pdfrwt beam="1">  1        1 0.44658295E-02 0.30000000E+03</pdfrwt>
<pdfrwt beam="2">0</pdfrwt>
<totfact> 0.23317652E+03</totfact>
</mgrwt>
</event>
<event>
 6    1  0.1956957E-002  0.3000000E+03  0.7818608E-02  0.1093470E+00
          1   -1    0    0  502    0  0.00000000000E+00  0.00000000000E+00  0.15983787594E+01  0.15983787594E+01  0.00000000000E+00 0.  1.
         13   -1    0    0    0    0 -0.00000000000E+00 -0.00000000000E+00 -0.10000000000E+04  0.10000000000E+04  0.00000000000E+00 0.  1.
    9000005    2    1    2  501    0 -0.39253798260E+02  0.62363837605E+01 -0.45450760274E+03  0.45625403202E+03  0.32905357556E+01 0.  0.
         13    1    3    3    0    0 -0.32426394021E+02  0.39099402929E+01 -0.36873223589E+03  0.37017593175E+03  0.00000000000E+00 0.  1.
          3    1    3    3  501    0 -0.68274042388E+01  0.23264434677E+01 -0.85775366849E+02  0.86078100269E+02  0.00000000000E+00 0.  1.
         21    1    1    2  502  501  0.39253798260E+02 -0.62363837605E+01 -0.54389401850E+03  0.54534434674E+03  0.00000000000E+00 0.  1.
<mgrwt>
<rscale>  1 0.30000000E+03</rscale>
<asrwt>0</asrwt>
<pdfrwt beam="1">  1        1 0.58122987E-02 0.30000000E+03</pdfrwt>
<pdfrwt beam="2">0</pdfrwt>
<totfact> 0.16100761E+03</totfact>
</mgrwt>
</event>
<event>
 6    1  0.1956957E-002  0.3000000E+03  0.7818608E-02  0.1093470E+00
          3   -1    0    0  502    0  0.00000000000E+00  0.00000000000E+00  0.11316424132E+01  0.11316424132E+01  0.00000000000E+00 0.  1.
         13   -1    0    0    0    0 -0.00000000000E+00 -0.00000000000E+00 -0.10000000000E+04  0.10000000000E+04  0.00000000000E+00 0.  1.
    9000005    2    1    2  501    0  0.13473116872E+02  0.29346745260E+02 -0.63563033201E+03  0.63646107936E+03  0.37456946173E+01 0.  0.
         13    1    3    3    0    0  0.49131420211E+01  0.14144370543E+02 -0.31706295667E+03  0.31741632074E+03  0.00000000000E+00 0.  1.
          1    1    3    3  501    0  0.85599748510E+01  0.15202374717E+02 -0.31856737534E+03  0.31904475862E+03  0.00000000000E+00 0.  1.
         21    1    1    2  502  501 -0.13473116872E+02 -0.29346745260E+02 -0.36323802558E+03  0.36467056306E+03  0.00000000000E+00 0.  1.
<mgrwt>
<rscale>  1 0.30000000E+03</rscale>
<asrwt>0</asrwt>
<pdfrwt beam="1">  1        3 0.41150720E-02 0.30000000E+03</pdfrwt>
<pdfrwt beam="2">0</pdfrwt>
<totfact> 0.13357858E+03</totfact>
</mgrwt>
</event>
<event>
 6    1  0.1956957E-002  0.3000000E+03  0.7818608E-02  0.1093470E+00
          1   -1    0    0  502    0  0.00000000000E+00  0.00000000000E+00  0.84585666488E+01  0.84585666488E+01  0.00000000000E+00 0.  1.
         13   -1    0    0    0    0 -0.00000000000E+00 -0.00000000000E+00 -0.10000000000E+04  0.10000000000E+04  0.00000000000E+00 0.  1.
    9000005    2    1    2  501    0 -0.73097151801E+02  0.15989346652E+02 -0.78882197278E+03  0.79237054639E+03  0.34821297922E+01 0.  0.
         13    1    3    3    0    0 -0.29848530043E+02  0.76916240946E+01 -0.31130138810E+03  0.31282367248E+03  0.00000000000E+00 0.  1.
          1    1    3    3  501    0 -0.43248621758E+02  0.82977225574E+01 -0.47752058468E+03  0.47954687391E+03  0.00000000000E+00 0.  1.
         21    1    1    2  502  501  0.73097151801E+02 -0.15989346652E+02 -0.20271946057E+03  0.21608802026E+03  0.00000000000E+00 0.  1.
<mgrwt>
<rscale>  1 0.30000000E+03</rscale>
<asrwt>0</asrwt>
<pdfrwt beam="1">  1        1 0.30758489E-01 0.30000000E+03</pdfrwt>
<pdfrwt beam="2">0</pdfrwt>
<totfact> 0.16666792E+02</totfact>
</mgrwt>
</event>
<event>
 6    1  0.1956957E-002  0.3000000E+03  0.7818608E-02  0.1093470E+00
          1   -1    0    0  502    0  0.00000000000E+00  0.00000000000E+00  0.24674780028E+01  0.24674780028E+01  0.00000000000E+00 0.  1.
         13   -1    0    0    0    0 -0.00000000000E+00 -0.00000000000E+00 -0.10000000000E+04  0.10000000000E+04  0.00000000000E+00 0.  1.
    9000005    2    1    2  501    0 -0.26043690720E+02 -0.39789139560E+02 -0.64164034399E+03  0.64341220118E+03  0.39344794121E+01 0.  0.
         13    1    3    3    0    0 -0.80080015935E+01 -0.11031500267E+02 -0.16234967921E+03  0.16292096375E+03  0.00000000000E+00 0.  1.
          1    1    3    3  501    0 -0.18035689127E+02 -0.28757639293E+02 -0.47929066478E+03  0.48049123743E+03  0.00000000000E+00 0.  1.
         21    1    1    2  502  501  0.26043690720E+02  0.39789139560E+02 -0.35589217800E+03  0.35905527683E+03  0.00000000000E+00 0.  1.
<mgrwt>
<rscale>  1 0.30000000E+03</rscale>
<asrwt>0</asrwt>
<pdfrwt beam="1">  1        1 0.89726662E-02 0.30000000E+03</pdfrwt>
<pdfrwt beam="2">0</pdfrwt>
<totfact> 0.87807077E+02</totfact>
</mgrwt>
</event>
<event>
 6    1  0.1956957E-002  0.3000000E+03  0.7818608E-02  0.1093470E+00
          1   -1    0    0  502    0  0.00000000000E+00  0.00000000000E+00  0.24705793971E+01  0.24705793971E+01  0.00000000000E+00 0.  1.
         13   -1    0    0    0    0 -0.00000000000E+00 -0.00000000000E+00 -0.10000000000E+04  0.10000000000E+04  0.00000000000E+00 0.  1.
    9000005    2    1    2  501    0 -0.37766884290E+02 -0.13440275310E+02 -0.79451234139E+03  0.79553360107E+03  0.41074629801E+01 0.  0.
         13    1    3    3    0    0 -0.13284181485E+01 -0.22342146227E-01 -0.16786050311E+02  0.16838547414E+02  0.00000000000E+00 0.  1.
          3    1    3    3  501    0 -0.36438466141E+02 -0.13417933163E+02 -0.77772629108E+03  0.77869505366E+03  0.00000000000E+00 0.  1.
         21    1    1    2  502  501  0.37766884290E+02  0.13440275310E+02 -0.20301707921E+03  0.20693697833E+03  0.00000000000E+00 0.  1.
<mgrwt>
<rscale>  1 0.30000000E+03</rscale>
<asrwt>0</asrwt>
<pdfrwt beam="1">  1        1 0.89839440E-02 0.30000000E+03</pdfrwt>
<pdfrwt beam="2">0</pdfrwt>
<totfact> 0.87654258E+02</totfact>
</mgrwt>
</event>
<event>
 6    1  0.1956957E-002  0.3000000E+03  0.7818608E-02  0.1093470E+00
          1   -1    0    0  502    0  0.00000000000E+00  0.00000000000E+00  0.77966077663E+01  0.77966077663E+01  0.00000000000E+00 0.  1.
         13   -1    0    0    0    0 -0.00000000000E+00 -0.00000000000E+00 -0.10000000000E+04  0.10000000000E+04  0.00000000000E+00 0.  1.
    9000005    2    1    2  501    0 -0.53573068919E+01  0.71209758851E+02 -0.79234871481E+03  0.79556696190E+03  0.32824575320E+01 0.  0.
         13    1    3    3    0    0 -0.10390127599E+01  0.33535721368E+02 -0.36414659447E+03  0.36568902967E+03  0.00000000000E+00 0.  1.
          1    1    3    3  501    0 -0.43182941320E+01  0.37674037482E+02 -0.42820212034E+03  0.42987793224E+03  0.00000000000E+00 0.  1.
         21    1    1    2  502  501  0.53573068919E+01 -0.71209758851E+02 -0.19985467743E+03  0.21222964586E+03  0.00000000000E+00 0.  1.
<mgrwt>
<rscale>  1 0.30000000E+03</rscale>
<asrwt>0</asrwt>
<pdfrwt beam="1">  1        1 0.28351361E-01 0.30000000E+03</pdfrwt>
<pdfrwt beam="2">0</pdfrwt>
<totfact> 0.18548122E+02</totfact>
</mgrwt>
</event>
<event>
 6    1  0.1956957E-002  0.3000000E+03  0.7818608E-02  0.1093470E+00
          1   -1    0    0  502    0  0.00000000000E+00  0.00000000000E+00  0.38038523904E+01  0.38038523904E+01  0.00000000000E+00 0.  1.
         13   -1    0    0    0    0 -0.00000000000E+00 -0.00000000000E+00 -0.10000000000E+04  0.10000000000E+04  0.00000000000E+00 0.  1.
    9000005    2    1    2  501    0 -0.47098383669E+02 -0.85849724750E+01 -0.81440584113E+03  0.81581535533E+03  0.24208326828E+01 0.  0.
         13    1    3    3    0    0 -0.18998991745E+02 -0.28636176073E+01 -0.30937580831E+03  0.30997185802E+03  0.00000000000E+00 0.  1.
          1    1    3    3  501    0 -0.28099391924E+02 -0.57213548677E+01 -0.50503003282E+03  0.50584349732E+03  0.00000000000E+00 0.  1.
         21    1    1    2  502  501  0.47098383669E+02  0.85849724750E+01 -0.18179030648E+03  0.18798849706E+03  0.00000000000E+00 0.  1.
<mgrwt>
<rscale>  1 0.30000000E+03</rscale>
<asrwt>0</asrwt>
<pdfrwt beam="1">  1        1 0.13832220E-01 0.30000000E+03</pdfrwt>
<pdfrwt beam="2">0</pdfrwt>
<totfact> 0.48435090E+02</totfact>
</mgrwt>
</event>
<event>
 6    1  0.1956957E-002  0.3000000E+03  0.7818608E-02  0.1093470E+00
          1   -1    0    0  502    0  0.00000000000E+00  0.00000000000E+00  0.14580145641E+01  0.14580145641E+01  0.00000000000E+00 0.  1.
         13   -1    0    0    0    0 -0.00000000000E+00 -0.00000000000E+00 -0.10000000000E+04  0.10000000000E+04  0.00000000000E+00 0.  1.
    9000005    2    1    2  501    0 -0.17941846564E+02  0.33513450757E+02 -0.53537827465E+03  0.53673693238E+03  0.34024066638E+01 0.  0.
         13    1    3    3    0    0  0.10349671125E+00  0.75638077790E+00 -0.96958990305E+01  0.97259077448E+01  0.00000000000E+00 0.  1.
          1    1    3    3  501    0 -0.18045343276E+02  0.32757069979E+02 -0.52568237562E+03  0.52701102464E+03  0.00000000000E+00 0.  1.
         21    1    1    2  502  501  0.17941846564E+02 -0.33513450757E+02 -0.46316371078E+03  0.46472108218E+03  0.00000000000E+00 0.  1.
<mgrwt>
<rscale>  1 0.30000000E+03</rscale>
<asrwt>0</asrwt>
<pdfrwt beam="1">  1        1 0.53018823E-02 0.30000000E+03</pdfrwt>
<pdfrwt beam="2">0</pdfrwt>
<totfact> 0.18318735E+03</totfact>
</mgrwt>
</event>
<event>
 6    1  0.1956957E-002  0.3000000E+03  0.7818608E-02  0.1093470E+00
          1   -1    0    0  502    0  0.00000000000E+00  0.00000000000E+00  0.24175614574E+01  0.24175614574E+01  0.00000000000E+00 0.  1.
         13   -1    0    0    0    0 -0.00000000000E+00 -0.00000000000E+00 -0.10000000000E+04  0.10000000000E+04  0.00000000000E+00 0.  1.
    9000005    2    1    2  501    0 -0.13863134956E+02  0.44790900869E+02 -0.35063347114E+03  0.35377175847E+03  0.34949527772E+01 0.  0.
         13    1    3    3    0    0 -0.13758900261E+02  0.44383023335E+02 -0.34919151632E+03  0.35226960579E+03  0.00000000000E+00 0.  1.
          3    1    3    3  501    0 -0.10423469556E+00  0.40787753370E+00 -0.14419548251E+01  0.15021526792E+01  0.00000000000E+00 0.  1.
         21    1    1    2  502  501  0.13863134956E+02 -0.44790900869E+02 -0.64694896740E+03  0.64864580299E+03  0.00000000000E+00 0.  1.
<mgrwt>
<rscale>  1 0.30000000E+03</rscale>
<asrwt>0</asrwt>
<pdfrwt beam="1">  1        1 0.87911511E-02 0.30000000E+03</pdfrwt>
<pdfrwt beam="2">0</pdfrwt>
<totfact> 0.90332152E+02</totfact>
</mgrwt>
</event>
<event>
 6    1  0.1956957E-002  0.3000000E+03  0.7818608E-02  0.1093470E+00
          3   -1    0    0  502    0  0.00000000000E+00  0.00000000000E+00  0.20500074493E+01  0.20500074493E+01  0.00000000000E+00 0.  1.
         13   -1    0    0    0    0 -0.00000000000E+00 -0.00000000000E+00 -0.10000000000E+04  0.10000000000E+04  0.00000000000E+00 0.  1.
    9000005    2    1    2  501    0 -0.11835228664E+02 -0.42979406153E+02 -0.58293587132E+03  0.58464849474E+03  0.35114583567E+01 0.  0.
         13    1    3    3    0    0 -0.50020173564E+00 -0.53838851599E+01 -0.79357996080E+02  0.79541988679E+02  0.00000000000E+00 0.  1.
          1    1    3    3  501    0 -0.11335026929E+02 -0.37595520993E+02 -0.50357787524E+03  0.50510650606E+03  0.00000000000E+00 0.  1.
         21    1    1    2  502  501  0.11835228664E+02  0.42979406153E+02 -0.41501412123E+03  0.41740151271E+03  0.00000000000E+00 0.  1.
<mgrwt>
<rscale>  1 0.30000000E+03</rscale>
<asrwt>0</asrwt>
<pdfrwt beam="1">  1        3 0.74545883E-02 0.30000000E+03</pdfrwt>
<pdfrwt beam="2">0</pdfrwt>
<totfact> 0.53027751E+02</totfact>
</mgrwt>
</event>
<event>
 6    1  0.1956957E-002  0.3000000E+03  0.7818608E-02  0.1093470E+00
          1   -1    0    0  502    0  0.00000000000E+00  0.00000000000E+00  0.59163546994E+02  0.59163546994E+02  0.00000000000E+00 0.  1.
         13   -1    0    0    0    0 -0.00000000000E+00 -0.00000000000E+00 -0.10000000000E+04  0.10000000000E+04  0.00000000000E+00 0.  1.
    9000005    2    1    2  501    0  0.30980409529E+02 -0.31806343389E+02 -0.99110008941E+03  0.99209744230E+03  0.25531402276E+01 0.  0.
         13    1    3    3    0    0  0.27637717323E+02 -0.28146284577E+02 -0.89686709674E+03  0.89773417333E+03  0.00000000000E+00 0.  1.
          1    1    3    3  501    0  0.33426922063E+01 -0.36600588118E+01 -0.94232992675E+02  0.94363268968E+02  0.00000000000E+00 0.  1.
         21    1    1    2  502  501 -0.30980409529E+02  0.31806343389E+02  0.50263636407E+02  0.67066104697E+02  0.00000000000E+00 0.  1.
<mgrwt>
<rscale>  1 0.30000000E+03</rscale>
<asrwt>0</asrwt>
<pdfrwt beam="1">  1        1 0.21514062E+00 0.30000000E+03</pdfrwt>
<pdfrwt beam="2">0</pdfrwt>
<totfact> 0.86877127E+00</totfact>
</mgrwt>
</event>
<event>
 6    1  0.1956957E-002  0.3000000E+03  0.7818608E-02  0.1093470E+00
          1   -1    0    0  502    0  0.00000000000E+00  0.00000000000E+00  0.13806249238E+01  0.13806249238E+01  0.00000000000E+00 0.  1.
         13   -1    0    0    0    0 -0.00000000000E+00 -0.00000000000E+00 -0.10000000000E+04  0.10000000000E+04  0.00000000000E+00 0.  1.
    9000005    2    1    2  501    0 -0.26696171688E+02  0.17657166276E+02 -0.75265688138E+03  0.75334431829E+03  0.32893322130E+01 0.  0.
         13    1    3    3    0    0 -0.21508171812E+02  0.13901460389E+02 -0.56958618750E+03  0.57016162362E+03  0.00000000000E+00 0.  1.
          3    1    3    3  501    0 -0.51879998753E+01  0.37557058864E+01 -0.18307069388E+03  0.18318269467E+03  0.00000000000E+00 0.  1.
         21    1    1    2  502  501  0.26696171688E+02 -0.17657166276E+02 -0.24596249369E+03  0.24803630663E+03  0.00000000000E+00 0.  1.
<mgrwt>
<rscale>  1 0.30000000E+03</rscale>
<asrwt>0</asrwt>
<pdfrwt beam="1">  1        1 0.50204649E-02 0.30000000E+03</pdfrwt>
<pdfrwt beam="2">0</pdfrwt>
<totfact> 0.19777732E+03</totfact>
</mgrwt>
</event>
<event>
 6    1  0.1956957E-002  0.3000000E+03  0.7818608E-02  0.1093470E+00
          3   -1    0    0  502    0  0.00000000000E+00  0.00000000000E+00  0.98544315505E+00  0.98544315505E+00  0.00000000000E+00 0.  1.
         13   -1    0    0    0    0 -0.00000000000E+00 -0.00000000000E+00 -0.10000000000E+04  0.10000000000E+04  0.00000000000E+00 0.  1.
    9000005    2    1    2  501    0  0.29906347834E+02 -0.25374703581E+01 -0.63866263105E+03  0.63938574899E+03  0.48323197685E+01 0.  0.
         13    1    3    3    0    0  0.20720307314E+02 -0.27142891076E+01 -0.48343319723E+03  0.48388465018E+03  0.00000000000E+00 0.  1.
          3    1    3    3  501    0  0.91860405201E+01  0.17681874950E+00 -0.15522943382E+03  0.15550109881E+03  0.00000000000E+00 0.  1.
         21    1    1    2  502  501 -0.29906347834E+02  0.25374703581E+01 -0.36035192580E+03  0.36159969417E+03  0.00000000000E+00 0.  1.
<mgrwt>
<rscale>  1 0.30000000E+03</rscale>
<asrwt>0</asrwt>
<pdfrwt beam="1">  1        3 0.35834372E-02 0.30000000E+03</pdfrwt>
<pdfrwt beam="2">0</pdfrwt>
<totfact> 0.16525295E+03</totfact>
</mgrwt>
</event>
<event>
 6    1  0.1956957E-002  0.3000000E+03  0.7818608E-02  0.1093470E+00
          1   -1    0    0  502    0  0.00000000000E+00  0.00000000000E+00  0.29753791438E+01  0.29753791438E+01  0.00000000000E+00 0.  1.
         13   -1    0    0    0    0 -0.00000000000E+00 -0.00000000000E+00 -0.10000000000E+04  0.10000000000E+04  0.00000000000E+00 0.  1.
    9000005    2    1    2  501    0 -0.18847868253E+02  0.40843464801E+02 -0.78178867633E+03  0.78308917546E+03  0.34192878146E+01 0.  0.
         13    1    3    3    0    0 -0.13454976700E+02  0.32523210930E+02 -0.61171373509E+03  0.61272546001E+03  0.00000000000E+00 0.  1.
          1    1    3    3  501    0 -0.53928915537E+01  0.83202538709E+01 -0.17007494124E+03  0.17036371545E+03  0.00000000000E+00 0.  1.
         21    1    1    2  502  501  0.18847868253E+02 -0.40843464801E+02 -0.21523594452E+03  0.21988620368E+03  0.00000000000E+00 0.  1.
<mgrwt>
<rscale>  1 0.30000000E+03</rscale>
<asrwt>0</asrwt>
<pdfrwt beam="1">  1        1 0.10819583E-01 0.30000000E+03</pdfrwt>
<pdfrwt beam="2">0</pdfrwt>
<totfact> 0.67801396E+02</totfact>
</mgrwt>
</event>
<event>
 6    1  0.1956957E-002  0.3000000E+03  0.7818608E-02  0.1093470E+00
          1   -1    0    0  502    0  0.00000000000E+00  0.00000000000E+00  0.10418702232E+01  0.10418702232E+01  0.00000000000E+00 0.  1.
         13   -1    0    0    0    0 -0.00000000000E+00 -0.00000000000E+00 -0.10000000000E+04  0.10000000000E+04  0.00000000000E+00 0.  1.
    9000005    2    1    2  501    0 -0.30179913449E+02 -0.44163235022E+00 -0.67356102004E+03  0.67424789653E+03  0.38413601021E+01 0.  0.
         13    1    3    3    0    0 -0.20573132531E+02  0.11122178677E+01 -0.43231026833E+03  0.43280094607E+03  0.00000000000E+00 0.  1.
          3    1    3    3  501    0 -0.96067809181E+01 -0.15538502179E+01 -0.24125075171E+03  0.24144695047E+03  0.00000000000E+00 0.  1.
         21    1    1    2  502  501  0.30179913449E+02  0.44163235022E+00 -0.32539710974E+03  0.32679397369E+03  0.00000000000E+00 0.  1.
<mgrwt>
<rscale>  1 0.30000000E+03</rscale>
<asrwt>0</asrwt>
<pdfrwt beam="1">  1        1 0.37886270E-02 0.30000000E+03</pdfrwt>
<pdfrwt beam="2">0</pdfrwt>
<totfact> 0.29392252E+03</totfact>
</mgrwt>
</event>
<event>
 6    1  0.1956957E-002  0.3000000E+03  0.7818608E-02  0.1093470E+00
          1   -1    0    0  502    0  0.00000000000E+00  0.00000000000E+00  0.48354977863E+01  0.48354977863E+01  0.00000000000E+00 0.  1.
         13   -1    0    0    0    0 -0.00000000000E+00 -0.00000000000E+00 -0.10000000000E+04  0.10000000000E+04  0.00000000000E+00 0.  1.
    9000005    2    1    2  501    0  0.19407567741E+02 -0.48658175320E+02 -0.82782579801E+03  0.82948865967E+03  0.34077804960E+01 0.  0.
         13    1    3    3    0    0  0.17942414054E+02 -0.44708752347E+02 -0.74519011303E+03  0.74674567780E+03  0.00000000000E+00 0.  1.
          3    1    3    3  501    0  0.14651536871E+01 -0.39494229733E+01 -0.82635684980E+02  0.82742981873E+02  0.00000000000E+00 0.  1.
         21    1    1    2  502  501 -0.19407567741E+02  0.48658175320E+02 -0.16733870421E+03  0.17534683812E+03  0.00000000000E+00 0.  1.
<mgrwt>
<rscale>  1 0.30000000E+03</rscale>
<asrwt>0</asrwt>
<pdfrwt beam="1">  1        1 0.17583665E-01 0.30000000E+03</pdfrwt>
<pdfrwt beam="2">0</pdfrwt>
<totfact> 0.34992868E+02</totfact>
</mgrwt>
</event>
<event>
 6    1  0.1956957E-002  0.3000000E+03  0.7818608E-02  0.1093470E+00
          1   -1    0    0  502    0  0.00000000000E+00  0.00000000000E+00  0.13169029367E+01  0.13169029367E+01  0.00000000000E+00 0.  1.
         13   -1    0    0    0    0 -0.00000000000E+00 -0.00000000000E+00 -0.10000000000E+04  0.10000000000E+04  0.00000000000E+00 0.  1.
    9000005    2    1    2  501    0  0.16290417244E+02  0.28123475923E+02 -0.72014556373E+03  0.72088961277E+03  0.39866345321E+01 0.  0.
         13    1    3    3    0    0  0.71181680685E+01  0.14056944494E+02 -0.30946212743E+03  0.30986299282E+03  0.00000000000E+00 0.  1.
          1    1    3    3  501    0  0.91722491759E+01  0.14066531429E+02 -0.41068343630E+03  0.41102661996E+03  0.00000000000E+00 0.  1.
         21    1    1    2  502  501 -0.16290417244E+02 -0.28123475923E+02 -0.27853753333E+03  0.28042729016E+03  0.00000000000E+00 0.  1.
<mgrwt>
<rscale>  1 0.30000000E+03</rscale>
<asrwt>0</asrwt>
<pdfrwt beam="1">  1        1 0.47887480E-02 0.30000000E+03</pdfrwt>
<pdfrwt beam="2">0</pdfrwt>
<totfact> 0.21136249E+03</totfact>
</mgrwt>
</event>
<event>
 6    1  0.1956957E-002  0.3000000E+03  0.7818608E-02  0.1093470E+00
          1   -1    0    0  502    0  0.00000000000E+00  0.00000000000E+00  0.41693276412E+01  0.41693276412E+01  0.00000000000E+00 0.  1.
         13   -1    0    0    0    0 -0.00000000000E+00 -0.00000000000E+00 -0.10000000000E+04  0.10000000000E+04  0.00000000000E+00 0.  1.
    9000005    2    1    2  501    0  0.49968195412E+02 -0.31126208106E+02 -0.70342443825E+03  0.70589585056E+03  0.41653484976E+01 0.  0.
         13    1    3    3    0    0  0.49241822012E+02 -0.29966942898E+02 -0.68560365184E+03  0.68802263198E+03  0.00000000000E+00 0.  1.
          3    1    3    3  501    0  0.72637340091E+00 -0.11592652075E+01 -0.17820786413E+02  0.17873218583E+02  0.00000000000E+00 0.  1.
         21    1    1    2  502  501 -0.49968195412E+02  0.31126208106E+02 -0.29240623411E+03  0.29827347708E+03  0.00000000000E+00 0.  1.
<mgrwt>
<rscale>  1 0.30000000E+03</rscale>
<asrwt>0</asrwt>
<pdfrwt beam="1">  1        1 0.15161223E-01 0.30000000E+03</pdfrwt>
<pdfrwt beam="2">0</pdfrwt>
<totfact> 0.42755586E+02</totfact>
</mgrwt>
</event>
<event>
 6    1  0.1956957E-002  0.3000000E+03  0.7818608E-02  0.1093470E+00
          1   -1    0    0  502    0  0.00000000000E+00  0.00000000000E+00  0.33710973572E+01  0.33710973572E+01  0.00000000000E+00 0.  1.
         13   -1    0    0    0    0 -0.00000000000E+00 -0.00000000000E+00 -0.10000000000E+04  0.10000000000E+04  0.00000000000E+00 0.  1.
    9000005    2    1    2  501    0  0.26180815266E+02  0.24600741255E+02 -0.10643840627E+03  0.11245597716E+03  0.51556679599E+01 0.  0.
         13    1    3    3    0    0  0.57994850689E+01  0.32048687862E+01 -0.16206580072E+02  0.17508810600E+02  0.00000000000E+00 0.  1.
          3    1    3    3  501    0  0.20381330197E+02  0.21395872468E+02 -0.90231826196E+02  0.94947166561E+02  0.00000000000E+00 0.  1.
         21    1    1    2  502  501 -0.26180815266E+02 -0.24600741255E+02 -0.89019049637E+03  0.89091512020E+03  0.00000000000E+00 0.  1.
<mgrwt>
<rscale>  1 0.30000000E+03</rscale>
<asrwt>0</asrwt>
<pdfrwt beam="1">  1        1 0.12258562E-01 0.30000000E+03</pdfrwt>
<pdfrwt beam="2">0</pdfrwt>
<totfact> 0.57123695E+02</totfact>
</mgrwt>
</event>
<event>
 6    1  0.1956957E-002  0.3000000E+03  0.7818608E-02  0.1093470E+00
          1   -1    0    0  502    0  0.00000000000E+00  0.00000000000E+00  0.63049320758E+01  0.63049320758E+01  0.00000000000E+00 0.  1.
         13   -1    0    0    0    0 -0.00000000000E+00 -0.00000000000E+00 -0.10000000000E+04  0.10000000000E+04  0.00000000000E+00 0.  1.
    9000005    2    1    2  501    0 -0.22771260557E+02 -0.29558725344E+02 -0.94095827893E+03  0.94170293934E+03  0.31136370581E+01 0.  0.
         13    1    3    3    0    0 -0.15575474581E+02 -0.21519143641E+02 -0.69758030363E+03  0.69808591804E+03  0.00000000000E+00 0.  1.
          1    1    3    3  501    0 -0.71957859751E+01 -0.80395817029E+01 -0.24337797530E+03  0.24361702131E+03  0.00000000000E+00 0.  1.
         21    1    1    2  502  501  0.22771260557E+02  0.29558725344E+02 -0.52736788999E+02  0.64601992734E+02  0.00000000000E+00 0.  1.
<mgrwt>
<rscale>  1 0.30000000E+03</rscale>
<asrwt>0</asrwt>
<pdfrwt beam="1">  1        1 0.22927074E-01 0.30000000E+03</pdfrwt>
<pdfrwt beam="2">0</pdfrwt>
<totfact> 0.24549319E+02</totfact>
</mgrwt>
</event>
<event>
 6    1  0.1956957E-002  0.3000000E+03  0.7818608E-02  0.1093470E+00
          3   -1    0    0  502    0  0.00000000000E+00  0.00000000000E+00  0.10020246520E+01  0.10020246520E+01  0.00000000000E+00 0.  1.
         13   -1    0    0    0    0 -0.00000000000E+00 -0.00000000000E+00 -0.10000000000E+04  0.10000000000E+04  0.00000000000E+00 0.  1.
    9000005    2    1    2  501    0  0.29368752574E+02  0.11498598695E+02 -0.50164234735E+03  0.50264736971E+03  0.38199768652E+01 0.  0.
         13    1    3    3    0    0  0.10940028116E+02  0.57397274648E+01 -0.17589641058E+03  0.17632973641E+03  0.00000000000E+00 0.  1.
          3    1    3    3  501    0  0.18428724458E+02  0.57588712303E+01 -0.32574593677E+03  0.32631763330E+03  0.00000000000E+00 0.  1.
         21    1    1    2  502  501 -0.29368752574E+02 -0.11498598695E+02 -0.49735562800E+03  0.49835465494E+03  0.00000000000E+00 0.  1.
<mgrwt>
<rscale>  1 0.30000000E+03</rscale>
<asrwt>0</asrwt>
<pdfrwt beam="1">  1        3 0.36437337E-02 0.30000000E+03</pdfrwt>
<pdfrwt beam="2">0</pdfrwt>
<totfact> 0.16105401E+03</totfact>
</mgrwt>
</event>
<event>
 6    1  0.1956957E-002  0.3000000E+03  0.7818608E-02  0.1093470E+00
          1   -1    0    0  502    0  0.00000000000E+00  0.00000000000E+00  0.25387818424E+01  0.25387818424E+01  0.00000000000E+00 0.  1.
         13   -1    0    0    0    0 -0.00000000000E+00 -0.00000000000E+00 -0.10000000000E+04  0.10000000000E+04  0.00000000000E+00 0.  1.
    9000005    2    1    2  501    0 -0.27573020006E+02  0.14468183050E+02 -0.89265858952E+03  0.89320813325E+03  0.34368737133E+01 0.  0.
         13    1    3    3    0    0 -0.24819798486E+02  0.12458666425E+02 -0.81902372145E+03  0.81949441552E+03  0.00000000000E+00 0.  1.
          1    1    3    3  501    0 -0.27532215193E+01  0.20095166250E+01 -0.73634868070E+02  0.73713717729E+02  0.00000000000E+00 0.  1.
         21    1    1    2  502  501  0.27573020006E+02 -0.14468183050E+02 -0.10480262863E+03  0.10933064859E+03  0.00000000000E+00 0.  1.
<mgrwt>
<rscale>  1 0.30000000E+03</rscale>
<asrwt>0</asrwt>
<pdfrwt beam="1">  1        1 0.92319534E-02 0.30000000E+03</pdfrwt>
<pdfrwt beam="2">0</pdfrwt>
<totfact> 0.84407306E+02</totfact>
</mgrwt>
</event>
<event>
 6    1  0.1956957E-002  0.3000000E+03  0.7818608E-02  0.1093470E+00
          1   -1    0    0  502    0  0.00000000000E+00  0.00000000000E+00  0.42517866009E+01  0.42517866009E+01  0.00000000000E+00 0.  1.
         13   -1    0    0    0    0 -0.00000000000E+00 -0.00000000000E+00 -0.10000000000E+04  0.10000000000E+04  0.00000000000E+00 0.  1.
    9000005    2    1    2  501    0  0.11586772767E+02 -0.62274180333E+02 -0.61211633473E+03  0.61542567487E+03  0.70729905930E+01 0.  0.
         13    1    3    3    0    0  0.94820758183E+01 -0.40075310545E+02 -0.42270432831E+03  0.42470565036E+03  0.00000000000E+00 0.  1.
          1    1    3    3  501    0  0.21046969486E+01 -0.22198869788E+02 -0.18941200643E+03  0.19072002451E+03  0.00000000000E+00 0.  1.
         21    1    1    2  502  501 -0.11586772767E+02  0.62274180333E+02 -0.38363187866E+03  0.38882611173E+03  0.00000000000E+00 0.  1.
<mgrwt>
<rscale>  1 0.30000000E+03</rscale>
<asrwt>0</asrwt>
<pdfrwt beam="1">  1        1 0.15461075E-01 0.30000000E+03</pdfrwt>
<pdfrwt beam="2">0</pdfrwt>
<totfact> 0.41634760E+02</totfact>
</mgrwt>
</event>
<event>
 6    1  0.1956957E-002  0.3000000E+03  0.7818608E-02  0.1093470E+00
          1   -1    0    0  502    0  0.00000000000E+00  0.00000000000E+00  0.28518196450E+01  0.28518196450E+01  0.00000000000E+00 0.  1.
         13   -1    0    0    0    0 -0.00000000000E+00 -0.00000000000E+00 -0.10000000000E+04  0.10000000000E+04  0.00000000000E+00 0.  1.
    9000005    2    1    2  501    0 -0.35535419035E+02 -0.22326861651E+02 -0.80832999511E+03  0.80942596347E+03  0.34284968463E+01 0.  0.
         13    1    3    3    0    0 -0.65707007783E+01 -0.42453700248E+01 -0.12669475005E+03  0.12693603493E+03  0.00000000000E+00 0.  1.
          1    1    3    3  501    0 -0.28964718257E+02 -0.18081491626E+02 -0.68163524506E+03  0.68248992854E+03  0.00000000000E+00 0.  1.
         21    1    1    2  502  501  0.35535419035E+02  0.22326861651E+02 -0.18881818525E+03  0.19342585618E+03  0.00000000000E+00 0.  1.
<mgrwt>
<rscale>  1 0.30000000E+03</rscale>
<asrwt>0</asrwt>
<pdfrwt beam="1">  1        1 0.10370275E-01 0.30000000E+03</pdfrwt>
<pdfrwt beam="2">0</pdfrwt>
<totfact> 0.71877669E+02</totfact>
</mgrwt>
</event>
<event>
 6    1  0.1956957E-002  0.3000000E+03  0.7818608E-02  0.1093470E+00
          1   -1    0    0  502    0  0.00000000000E+00  0.00000000000E+00  0.74511753570E+01  0.74511753570E+01  0.00000000000E+00 0.  1.
         13   -1    0    0    0    0 -0.00000000000E+00 -0.00000000000E+00 -0.10000000000E+04  0.10000000000E+04  0.00000000000E+00 0.  1.
    9000005    2    1    2  501    0 -0.46666418874E+02  0.27763964437E+02 -0.88781810106E+03  0.88948034492E+03  0.23897817083E+01 0.  0.
         13    1    3    3    0    0 -0.18017633729E+02  0.11558878887E+02 -0.33495181022E+03  0.33563515605E+03  0.00000000000E+00 0.  1.
          1    1    3    3  501    0 -0.28648785145E+02  0.16205085550E+02 -0.55286629085E+03  0.55384518888E+03  0.00000000000E+00 0.  1.
         21    1    1    2  502  501  0.46666418874E+02 -0.27763964437E+02 -0.10473072358E+03  0.11797083043E+03  0.00000000000E+00 0.  1.
<mgrwt>
<rscale>  1 0.30000000E+03</rscale>
<asrwt>0</asrwt>
<pdfrwt beam="1">  1        1 0.27095240E-01 0.30000000E+03</pdfrwt>
<pdfrwt beam="2">0</pdfrwt>
<totfact> 0.19687405E+02</totfact>
</mgrwt>
</event>
<event>
 6    1  0.1956957E-002  0.3000000E+03  0.7818608E-02  0.1093470E+00
          3   -1    0    0  502    0  0.00000000000E+00  0.00000000000E+00  0.15522803552E+01  0.15522803552E+01  0.00000000000E+00 0.  1.
         13   -1    0    0    0    0 -0.00000000000E+00 -0.00000000000E+00 -0.10000000000E+04  0.10000000000E+04  0.00000000000E+00 0.  1.
    9000005    2    1    2  501    0  0.16005396620E+02  0.26577014293E+02 -0.80748280585E+03  0.80808365574E+03  0.28640044737E+01 0.  0.
         13    1    3    3    0    0  0.49103742357E+01  0.10777992091E+02 -0.31523236944E+03  0.31545478857E+03  0.00000000000E+00 0.  1.
          1    1    3    3  501    0  0.11095022384E+02  0.15799022202E+02 -0.49225043641E+03  0.49262886717E+03  0.00000000000E+00 0.  1.
         21    1    1    2  502  501 -0.16005396620E+02 -0.26577014293E+02 -0.19096491380E+03  0.19346862462E+03  0.00000000000E+00 0.  1.
<mgrwt>
<rscale>  1 0.30000000E+03</rscale>
<asrwt>0</asrwt>
<pdfrwt beam="1">  1        3 0.56446677E-02 0.30000000E+03</pdfrwt>
<pdfrwt beam="2">0</pdfrwt>
<totfact> 0.82008544E+02</totfact>
</mgrwt>
</event>
<event>
 6    1  0.1956957E-002  0.3000000E+03  0.7818608E-02  0.1093470E+00
          3   -1    0    0  502    0  0.00000000000E+00  0.00000000000E+00  0.14933422095E+01  0.14933422095E+01  0.00000000000E+00 0.  1.
         13   -1    0    0    0    0 -0.00000000000E+00 -0.00000000000E+00 -0.10000000000E+04  0.10000000000E+04  0.00000000000E+00 0.  1.
    9000005    2    1    2  501    0 -0.24204587096E+02 -0.24792892324E+02 -0.71870459403E+03  0.71955408557E+03  0.46085836796E+01 0.  0.
         13    1    3    3    0    0 -0.35193768114E+01 -0.47951048969E+01 -0.94761660684E+02  0.94948151007E+02  0.00000000000E+00 0.  1.
          1    1    3    3  501    0 -0.20685210284E+02 -0.19997787427E+02 -0.62394293334E+03  0.62460593457E+03  0.00000000000E+00 0.  1.
         21    1    1    2  502  501  0.24204587096E+02  0.24792892324E+02 -0.27980206376E+03  0.28193925664E+03  0.00000000000E+00 0.  1.
<mgrwt>
<rscale>  1 0.30000000E+03</rscale>
<asrwt>0</asrwt>
<pdfrwt beam="1">  1        3 0.54303468E-02 0.30000000E+03</pdfrwt>
<pdfrwt beam="2">0</pdfrwt>
<totfact> 0.87083622E+02</totfact>
</mgrwt>
</event>
<event>
 6    1  0.1956957E-002  0.3000000E+03  0.7818608E-02  0.1093470E+00
          1   -1    0    0  502    0  0.00000000000E+00  0.00000000000E+00  0.33065805477E+01  0.33065805477E+01  0.00000000000E+00 0.  1.
         13   -1    0    0    0    0 -0.00000000000E+00 -0.00000000000E+00 -0.10000000000E+04  0.10000000000E+04  0.00000000000E+00 0.  1.
    9000005    2    1    2  501    0 -0.35440999459E+02 -0.64207202334E+01 -0.88900674369E+03  0.88975610618E+03  0.59706011994E+01 0.  0.
         13    1    3    3    0    0 -0.22844135880E+02 -0.28944363330E+01 -0.50095008312E+03  0.50147903055E+03  0.00000000000E+00 0.  1.
          3    1    3    3  501    0 -0.12596863579E+02 -0.35262839004E+01 -0.38805666057E+03  0.38827707563E+03  0.00000000000E+00 0.  1.
         21    1    1    2  502  501  0.35440999459E+02  0.64207202334E+01 -0.10768667576E+03  0.11355047436E+03  0.00000000000E+00 0.  1.
<mgrwt>
<rscale>  1 0.30000000E+03</rscale>
<asrwt>0</asrwt>
<pdfrwt beam="1">  1        1 0.12023955E-01 0.30000000E+03</pdfrwt>
<pdfrwt beam="2">0</pdfrwt>
<totfact> 0.58656690E+02</totfact>
</mgrwt>
</event>
<event>
 6    1  0.1956957E-002  0.3000000E+03  0.7818608E-02  0.1093470E+00
          1   -1    0    0  502    0  0.00000000000E+00  0.00000000000E+00  0.17046017598E+01  0.17046017598E+01  0.00000000000E+00 0.  1.
         13   -1    0    0    0    0 -0.00000000000E+00 -0.00000000000E+00 -0.10000000000E+04  0.10000000000E+04  0.00000000000E+00 0.  1.
    9000005    2    1    2  501    0  0.39628789756E+02 -0.41343828694E+01 -0.37079631509E+03  0.37294182181E+03  0.28567585340E+01 0.  0.
         13    1    3    3    0    0  0.30749550870E+02 -0.21857184769E+01 -0.29211510183E+03  0.29373720391E+03  0.00000000000E+00 0.  1.
          3    1    3    3  501    0  0.88792388863E+01 -0.19486643925E+01 -0.78681213264E+02  0.79204617901E+02  0.00000000000E+00 0.  1.
         21    1    1    2  502  501 -0.39628789756E+02  0.41343828694E+01 -0.62749908315E+03  0.62876277995E+03  0.00000000000E+00 0.  1.
<mgrwt>
<rscale>  1 0.30000000E+03</rscale>
<asrwt>0</asrwt>
<pdfrwt beam="1">  1        1 0.61985649E-02 0.30000000E+03</pdfrwt>
<pdfrwt beam="2">0</pdfrwt>
<totfact> 0.14711162E+03</totfact>
</mgrwt>
</event>
<event>
 6    1  0.1956957E-002  0.3000000E+03  0.7818608E-02  0.1093470E+00
          3   -1    0    0  502    0  0.00000000000E+00  0.00000000000E+00  0.16353294944E+01  0.16353294944E+01  0.00000000000E+00 0.  1.
         13   -1    0    0    0    0 -0.00000000000E+00 -0.00000000000E+00 -0.10000000000E+04  0.10000000000E+04  0.00000000000E+00 0.  1.
    9000005    2    1    2  501    0 -0.39570100792E+02  0.10291841411E+01 -0.59831793633E+03  0.59963502897E+03  0.33110327324E+01 0.  0.
         13    1    3    3    0    0 -0.23022491228E+02  0.20521958535E+01 -0.35958591305E+03  0.36032801095E+03  0.00000000000E+00 0.  1.
          3    1    3    3  501    0 -0.16547609564E+02 -0.10230117124E+01 -0.23873202327E+03  0.23930701802E+03  0.00000000000E+00 0.  1.
         21    1    1    2  502  501  0.39570100792E+02 -0.10291841411E+01 -0.40004673418E+03  0.40200030052E+03  0.00000000000E+00 0.  1.
<mgrwt>
<rscale>  1 0.30000000E+03</rscale>
<asrwt>0</asrwt>
<pdfrwt beam="1">  1        3 0.59466652E-02 0.30000000E+03</pdfrwt>
<pdfrwt beam="2">0</pdfrwt>
<totfact> 0.75616191E+02</totfact>
</mgrwt>
</event>
<event>
 6    1  0.1956957E-002  0.3000000E+03  0.7818608E-02  0.1093470E+00
          1   -1    0    0  502    0  0.00000000000E+00  0.00000000000E+00  0.10931720498E+02  0.10931720498E+02  0.00000000000E+00 0.  1.
         13   -1    0    0    0    0 -0.00000000000E+00 -0.00000000000E+00 -0.10000000000E+04  0.10000000000E+04  0.00000000000E+00 0.  1.
    9000005    2    1    2  501    0 -0.81608034755E+02 -0.61587409808E+02 -0.59996867899E+03  0.60862415221E+03  0.28394542692E+01 0.  0.
         13    1    3    3    0    0 -0.75546647805E+02 -0.57375755086E+02 -0.55246810082E+03  0.56055354400E+03  0.00000000000E+00 0.  1.
          3    1    3    3  501    0 -0.60613869496E+01 -0.42116547219E+01 -0.47500578173E+02  0.48070608214E+02  0.00000000000E+00 0.  1.
         21    1    1    2  502  501  0.81608034755E+02  0.61587409808E+02 -0.38909960051E+03  0.40230756829E+03  0.00000000000E+00 0.  1.
<mgrwt>
<rscale>  1 0.30000000E+03</rscale>
<asrwt>0</asrwt>
<pdfrwt beam="1">  1        1 0.39751795E-01 0.30000000E+03</pdfrwt>
<pdfrwt beam="2">0</pdfrwt>
<totfact> 0.11917121E+02</totfact>
</mgrwt>
</event>
<event>
 6    1  0.1956957E-002  0.3000000E+03  0.7818608E-02  0.1093470E+00
          1   -1    0    0  502    0  0.00000000000E+00  0.00000000000E+00  0.32241940983E+01  0.32241940983E+01  0.00000000000E+00 0.  1.
         13   -1    0    0    0    0 -0.00000000000E+00 -0.00000000000E+00 -0.10000000000E+04  0.10000000000E+04  0.00000000000E+00 0.  1.
    9000005    2    1    2  501    0 -0.21369469784E+02 -0.21784471311E+02 -0.92130614157E+03  0.92181849612E+03  0.36215829261E+01 0.  0.
         13    1    3    3    0    0 -0.13302760854E+02 -0.15656001676E+02 -0.59056470244E+03  0.59092194206E+03  0.00000000000E+00 0.  1.
          3    1    3    3  501    0 -0.80667089306E+01 -0.61284696350E+01 -0.33074143913E+03  0.33089655406E+03  0.00000000000E+00 0.  1.
         21    1    1    2  502  501  0.21369469784E+02  0.21784471311E+02 -0.75469664329E+02  0.81405697976E+02  0.00000000000E+00 0.  1.
<mgrwt>
<rscale>  1 0.30000000E+03</rscale>
<asrwt>0</asrwt>
<pdfrwt beam="1">  1        1 0.11724367E-01 0.30000000E+03</pdfrwt>
<pdfrwt beam="2">0</pdfrwt>
<totfact> 0.60721442E+02</totfact>
</mgrwt>
</event>
<event>
 6    1  0.1956957E-002  0.3000000E+03  0.7818608E-02  0.1093470E+00
          3   -1    0    0  502    0  0.00000000000E+00  0.00000000000E+00  0.84425939299E+01  0.84425939299E+01  0.00000000000E+00 0.  1.
         13   -1    0    0    0    0 -0.00000000000E+00 -0.00000000000E+00 -0.10000000000E+04  0.10000000000E+04  0.00000000000E+00 0.  1.
    9000005    2    1    2  501    0  0.23736333006E+01  0.33406951664E+02 -0.96529818368E+03  0.96588433604E+03  0.32107049005E+01 0.  0.
         13    1    3    3    0    0  0.69727088748E+00  0.15137284997E+01 -0.38543325478E+02  0.38579340321E+02  0.00000000000E+00 0.  1.
          3    1    3    3  501    0  0.16763624131E+01  0.31893223164E+02 -0.92675485820E+03  0.92730499571E+03  0.00000000000E+00 0.  1.
         21    1    1    2  502  501 -0.23736333006E+01 -0.33406951664E+02 -0.26259222389E+02  0.42558257894E+02  0.00000000000E+00 0.  1.
<mgrwt>
<rscale>  1 0.30000000E+03</rscale>
<asrwt>0</asrwt>
<pdfrwt beam="1">  1        3 0.30700406E-01 0.30000000E+03</pdfrwt>
<pdfrwt beam="2">0</pdfrwt>
<totfact> 0.44754629E+01</totfact>
</mgrwt>
</event>
<event>
 6    1  0.1956957E-002  0.3000000E+03  0.7818608E-02  0.1093470E+00
          3   -1    0    0  502    0  0.00000000000E+00  0.00000000000E+00  0.24596190865E+01  0.24596190865E+01  0.00000000000E+00 0.  1.
         13   -1    0    0    0    0 -0.00000000000E+00 -0.00000000000E+00 -0.10000000000E+04  0.10000000000E+04  0.00000000000E+00 0.  1.
    9000005    2    1    2  501    0  0.11345359129E+02  0.28140116891E+02 -0.89510013403E+03  0.89562054602E+03  0.33658814632E+01 0.  0.
         13    1    3    3    0    0  0.49310173447E+00  0.14152647997E+01 -0.70907436698E+02  0.70923273351E+02  0.00000000000E+00 0.  1.
          1    1    3    3  501    0  0.10852257395E+02  0.26724852091E+02 -0.82419269733E+03  0.82469727267E+03  0.00000000000E+00 0.  1.
         21    1    1    2  502  501 -0.11345359129E+02 -0.28140116891E+02 -0.10244024688E+03  0.10683907307E+03  0.00000000000E+00 0.  1.
<mgrwt>
<rscale>  1 0.30000000E+03</rscale>
<asrwt>0</asrwt>
<pdfrwt beam="1">  1        3 0.89440883E-02 0.30000000E+03</pdfrwt>
<pdfrwt beam="2">0</pdfrwt>
<totfact> 0.39618875E+02</totfact>
</mgrwt>
</event>
<event>
 6    1  0.1956957E-002  0.3000000E+03  0.7818608E-02  0.1093470E+00
          1   -1    0    0  502    0  0.00000000000E+00  0.00000000000E+00  0.13116608857E+01  0.13116608857E+01  0.00000000000E+00 0.  1.
         13   -1    0    0    0    0 -0.00000000000E+00 -0.00000000000E+00 -0.10000000000E+04  0.10000000000E+04  0.00000000000E+00 0.  1.
    9000005    2    1    2  501    0  0.35842177553E+02  0.27813327727E+01 -0.55267015854E+03  0.55384700875E+03  0.31316868297E+01 0.  0.
         13    1    3    3    0    0  0.34235329814E+02  0.19883784137E+01 -0.52619159612E+03  0.52730788661E+03  0.00000000000E+00 0.  1.
          3    1    3    3  501    0  0.16068477387E+01  0.79295435901E+00 -0.26478562416E+02  0.26539122139E+02  0.00000000000E+00 0.  1.
         21    1    1    2  502  501 -0.35842177553E+02 -0.27813327727E+01 -0.44601818058E+03  0.44746465213E+03  0.00000000000E+00 0.  1.
<mgrwt>
<rscale>  1 0.30000000E+03</rscale>
<asrwt>0</asrwt>
<pdfrwt beam="1">  1        1 0.47696860E-02 0.30000000E+03</pdfrwt>
<pdfrwt beam="2">0</pdfrwt>
<totfact> 0.21255138E+03</totfact>
</mgrwt>
</event>
<event>
 6    1  0.1956957E-002  0.3000000E+03  0.7818608E-02  0.1093470E+00
          1   -1    0    0  502    0  0.00000000000E+00  0.00000000000E+00  0.21285497611E+01  0.21285497611E+01  0.00000000000E+00 0.  1.
         13   -1    0    0    0    0 -0.00000000000E+00 -0.00000000000E+00 -0.10000000000E+04  0.10000000000E+04  0.00000000000E+00 0.  1.
    9000005    2    1    2  501    0  0.11111980795E+02  0.36774692170E+02 -0.77596159452E+03  0.77691789689E+03  0.30279096071E+01 0.  0.
         13    1    3    3    0    0  0.10808184252E+02  0.36599411611E+02 -0.77104197324E+03  0.77198578890E+03  0.00000000000E+00 0.  1.
          3    1    3    3  501    0  0.30379654321E+00  0.17528055951E+00 -0.49196212885E+01  0.49321079912E+01  0.00000000000E+00 0.  1.
         21    1    1    2  502  501 -0.11111980795E+02 -0.36774692170E+02 -0.22190985571E+03  0.22521065287E+03  0.00000000000E+00 0.  1.
<mgrwt>
<rscale>  1 0.30000000E+03</rscale>
<asrwt>0</asrwt>
<pdfrwt beam="1">  1        1 0.77401973E-02 0.30000000E+03</pdfrwt>
<pdfrwt beam="2">0</pdfrwt>
<totfact> 0.10783164E+03</totfact>
</mgrwt>
</event>
<event>
 6    1  0.1956957E-002  0.3000000E+03  0.7818608E-02  0.1093470E+00
          1   -1    0    0  502    0  0.00000000000E+00  0.00000000000E+00  0.17558311178E+01  0.17558311178E+01  0.00000000000E+00 0.  1.
         13   -1    0    0    0    0 -0.00000000000E+00 -0.00000000000E+00 -0.10000000000E+04  0.10000000000E+04  0.00000000000E+00 0.  1.
    9000005    2    1    2  501    0 -0.22849465047E+02 -0.27888838397E+02 -0.75324981975E+03  0.75412280330E+03  0.40032663656E+01 0.  0.
         13    1    3    3    0    0 -0.22390705108E+02 -0.27947969192E+02 -0.74274654655E+03  0.74360934977E+03  0.00000000000E+00 0.  1.
          3    1    3    3  501    0 -0.45875993926E+00  0.59130794934E-01 -0.10503273203E+02  0.10513453529E+02  0.00000000000E+00 0.  1.
         21    1    1    2  502  501  0.22849465047E+02  0.27888838397E+02 -0.24499434913E+03  0.24763302782E+03  0.00000000000E+00 0.  1.
<mgrwt>
<rscale>  1 0.30000000E+03</rscale>
<asrwt>0</asrwt>
<pdfrwt beam="1">  1        1 0.63848539E-02 0.30000000E+03</pdfrwt>
<pdfrwt beam="2">0</pdfrwt>
<totfact> 0.14113116E+03</totfact>
</mgrwt>
</event>
<event>
 6    1  0.1956957E-002  0.3000000E+03  0.7818608E-02  0.1093470E+00
          1   -1    0    0  502    0  0.00000000000E+00  0.00000000000E+00  0.25572325294E+01  0.25572325294E+01  0.00000000000E+00 0.  1.
         13   -1    0    0    0    0 -0.00000000000E+00 -0.00000000000E+00 -0.10000000000E+04  0.10000000000E+04  0.00000000000E+00 0.  1.
    9000005    2    1    2  501    0  0.10323443133E+02  0.37954670331E+02 -0.81353967006E+03  0.81449479685E+03  0.28015797856E+01 0.  0.
         13    1    3    3    0    0  0.32740605920E+01  0.93051717626E+01 -0.18426937869E+03  0.18453322091E+03  0.00000000000E+00 0.  1.
          3    1    3    3  501    0  0.70493825412E+01  0.28649498569E+02 -0.62927029137E+03  0.62996157594E+03  0.00000000000E+00 0.  1.
         21    1    1    2  502  501 -0.10323443133E+02 -0.37954670331E+02 -0.18390309741E+03  0.18806243568E+03  0.00000000000E+00 0.  1.
<mgrwt>
<rscale>  1 0.30000000E+03</rscale>
<asrwt>0</asrwt>
<pdfrwt beam="1">  1        1 0.92990470E-02 0.30000000E+03</pdfrwt>
<pdfrwt beam="2">0</pdfrwt>
<totfact> 0.83564786E+02</totfact>
</mgrwt>
</event>
<event>
 6    1  0.1956957E-002  0.3000000E+03  0.7818608E-02  0.1093470E+00
          1   -1    0    0  502    0  0.00000000000E+00  0.00000000000E+00  0.23032853384E+01  0.23032853384E+01  0.00000000000E+00 0.  1.
         13   -1    0    0    0    0 -0.00000000000E+00 -0.00000000000E+00 -0.10000000000E+04  0.10000000000E+04  0.00000000000E+00 0.  1.
    9000005    2    1    2  501    0 -0.20465384766E+02 -0.22056438675E+02 -0.88902530568E+03  0.88954339180E+03  0.40166274349E+01 0.  0.
         13    1    3    3    0    0 -0.17793559541E+02 -0.19599459922E+02 -0.73838931071E+03  0.73886367061E+03  0.00000000000E+00 0.  1.
          3    1    3    3  501    0 -0.26718252245E+01 -0.24569787530E+01 -0.15063599498E+03  0.15067972119E+03  0.00000000000E+00 0.  1.
         21    1    1    2  502  501  0.20465384766E+02  0.22056438675E+02 -0.10867140898E+03  0.11275989354E+03  0.00000000000E+00 0.  1.
<mgrwt>
<rscale>  1 0.30000000E+03</rscale>
<asrwt>0</asrwt>
<pdfrwt beam="1">  1        1 0.83756007E-02 0.30000000E+03</pdfrwt>
<pdfrwt beam="2">0</pdfrwt>
<totfact> 0.96616165E+02</totfact>
</mgrwt>
</event>
<event>
 6    1  0.1956957E-002  0.3000000E+03  0.7818608E-02  0.1093470E+00
          3   -1    0    0  502    0  0.00000000000E+00  0.00000000000E+00  0.25951133955E+01  0.25951133955E+01  0.00000000000E+00 0.  1.
         13   -1    0    0    0    0 -0.00000000000E+00 -0.00000000000E+00 -0.10000000000E+04  0.10000000000E+04  0.00000000000E+00 0.  1.
    9000005    2    1    2  501    0  0.27830659343E+02 -0.21198918745E+02 -0.13563265762E+03  0.14011304726E+03  0.33924097865E+01 0.  0.
         13    1    3    3    0    0  0.14736770174E+02 -0.12454630937E+02 -0.69161889790E+02  0.71802905417E+02  0.00000000000E+00 0.  1.
          3    1    3    3  501    0  0.13093889168E+02 -0.87442878081E+01 -0.66470767829E+02  0.68310141843E+02  0.00000000000E+00 0.  1.
         21    1    1    2  502  501 -0.27830659343E+02  0.21198918745E+02 -0.86177222899E+03  0.86248206614E+03  0.00000000000E+00 0.  1.
<mgrwt>
<rscale>  1 0.30000000E+03</rscale>
<asrwt>0</asrwt>
<pdfrwt beam="1">  1        3 0.94367959E-02 0.30000000E+03</pdfrwt>
<pdfrwt beam="2">0</pdfrwt>
<totfact> 0.36315427E+02</totfact>
</mgrwt>
</event>
<event>
 6    1  0.1956957E-002  0.3000000E+03  0.7818608E-02  0.1093470E+00
          1   -1    0    0  502    0  0.00000000000E+00  0.00000000000E+00  0.87112283363E+01  0.87112283363E+01  0.00000000000E+00 0.  1.
         13   -1    0    0    0    0 -0.00000000000E+00 -0.00000000000E+00 -0.10000000000E+04  0.10000000000E+04  0.00000000000E+00 0.  1.
    9000005    2    1    2  501    0 -0.19471438440E+02  0.54478209864E+02 -0.89136289058E+03  0.89324610817E+03  0.37141338119E+01 0.  0.
         13    1    3    3    0    0 -0.19182679598E+02  0.51115936824E+02 -0.83824198388E+03  0.84001811751E+03  0.00000000000E+00 0.  1.
          3    1    3    3  501    0 -0.28875884271E+00  0.33622730396E+01 -0.53120906702E+02  0.53227990667E+02  0.00000000000E+00 0.  1.
         21    1    1    2  502  501  0.19471438440E+02 -0.54478209864E+02 -0.99925881079E+02  0.11546512016E+03  0.00000000000E+00 0.  1.
<mgrwt>
<rscale>  1 0.30000000E+03</rscale>
<asrwt>0</asrwt>
<pdfrwt beam="1">  1        1 0.31677261E-01 0.30000000E+03</pdfrwt>
<pdfrwt beam="2">0</pdfrwt>
<totfact> 0.16035912E+02</totfact>
</mgrwt>
</event>
<event>
 6    1  0.1956957E-002  0.3000000E+03  0.7818608E-02  0.1093470E+00
          1   -1    0    0  502    0  0.00000000000E+00  0.00000000000E+00  0.99920233825E+00  0.99920233825E+00  0.00000000000E+00 0.  1.
         13   -1    0    0    0    0 -0.00000000000E+00 -0.00000000000E+00 -0.10000000000E+04  0.10000000000E+04  0.00000000000E+00 0.  1.
    9000005    2    1    2  501    0  0.23648884305E+02  0.19407094413E+02 -0.37873570275E+03  0.37998012614E+03  0.28737915061E+01 0.  0.
         13    1    3    3    0    0  0.18632856688E+02  0.13762783807E+02 -0.29005009583E+03  0.29097363396E+03  0.00000000000E+00 0.  1.
          1    1    3    3  501    0  0.50160276167E+01  0.56443106067E+01 -0.88685606920E+02  0.89006492179E+02  0.00000000000E+00 0.  1.
         21    1    1    2  502  501 -0.23648884305E+02 -0.19407094413E+02 -0.62026509491E+03  0.62101907620E+03  0.00000000000E+00 0.  1.
<mgrwt>
<rscale>  1 0.30000000E+03</rscale>
<asrwt>0</asrwt>
<pdfrwt beam="1">  1        1 0.36334707E-02 0.30000000E+03</pdfrwt>
<pdfrwt beam="2">0</pdfrwt>
<totfact> 0.31173757E+03</totfact>
</mgrwt>
</event>
<event>
 6    1  0.1956957E-002  0.3000000E+03  0.7818608E-02  0.1093470E+00
          1   -1    0    0  502    0  0.00000000000E+00  0.00000000000E+00  0.21304743210E+01  0.21304743210E+01  0.00000000000E+00 0.  1.
         13   -1    0    0    0    0 -0.00000000000E+00 -0.00000000000E+00 -0.10000000000E+04  0.10000000000E+04  0.00000000000E+00 0.  1.
    9000005    2    1    2  501    0  0.17516190665E+02  0.37087655534E+02 -0.72800014384E+03  0.72916198826E+03  0.32687250632E+01 0.  0.
         13    1    3    3    0    0  0.12618282602E+02  0.29831054839E+02 -0.57531106889E+03  0.57622212633E+03  0.00000000000E+00 0.  1.
          3    1    3    3  501    0  0.48979080628E+01  0.72566006949E+01 -0.15268907495E+03  0.15293986193E+03  0.00000000000E+00 0.  1.
         21    1    1    2  502  501 -0.17516190665E+02 -0.37087655534E+02 -0.26986938184E+03  0.27296848606E+03  0.00000000000E+00 0.  1.
<mgrwt>
<rscale>  1 0.30000000E+03</rscale>
<asrwt>0</asrwt>
<pdfrwt beam="1">  1        1 0.77471957E-02 0.30000000E+03</pdfrwt>
<pdfrwt beam="2">0</pdfrwt>
<totfact> 0.10769587E+03</totfact>
</mgrwt>
</event>
<event>
 6    1  0.1956957E-002  0.3000000E+03  0.7818608E-02  0.1093470E+00
          3   -1    0    0  502    0  0.00000000000E+00  0.00000000000E+00  0.28838742046E+01  0.28838742046E+01  0.00000000000E+00 0.  1.
         13   -1    0    0    0    0 -0.00000000000E+00 -0.00000000000E+00 -0.10000000000E+04  0.10000000000E+04  0.00000000000E+00 0.  1.
    9000005    2    1    2  501    0 -0.24630687790E+02  0.45366578185E+02 -0.37337117512E+03  0.37700644156E+03  0.79388520651E+01 0.  0.
         13    1    3    3    0    0 -0.21280517352E+02  0.40488224950E+02 -0.30949232605E+03  0.31285405010E+03  0.00000000000E+00 0.  1.
          1    1    3    3  501    0 -0.33501704378E+01  0.48783532350E+01 -0.63878849066E+02  0.64152391462E+02  0.00000000000E+00 0.  1.
         21    1    1    2  502  501  0.24630687790E+02 -0.45366578185E+02 -0.62374495068E+03  0.62587743264E+03  0.00000000000E+00 0.  1.
<mgrwt>
<rscale>  1 0.30000000E+03</rscale>
<asrwt>0</asrwt>
<pdfrwt beam="1">  1        3 0.10486837E-01 0.30000000E+03</pdfrwt>
<pdfrwt beam="2">0</pdfrwt>
<totfact> 0.30527747E+02</totfact>
</mgrwt>
</event>
<event>
 6    1  0.1956957E-002  0.3000000E+03  0.7818608E-02  0.1093470E+00
          1   -1    0    0  502    0  0.00000000000E+00  0.00000000000E+00  0.21702863101E+02  0.21702863101E+02  0.00000000000E+00 0.  1.
         13   -1    0    0    0    0 -0.00000000000E+00 -0.00000000000E+00 -0.10000000000E+04  0.10000000000E+04  0.00000000000E+00 0.  1.
    9000005    2    1    2  501    0 -0.74542718601E+02 -0.28529143396E+02 -0.91850812632E+03  0.92197696523E+03  0.37171750820E+01 0.  0.
         13    1    3    3    0    0 -0.66335892572E+02 -0.26082924496E+02 -0.80849127582E+03  0.81162732376E+03  0.00000000000E+00 0.  1.
          1    1    3    3  501    0 -0.82068260293E+01 -0.24462188995E+01 -0.11001685050E+03  0.11034964148E+03  0.00000000000E+00 0.  1.
         21    1    1    2  502  501  0.74542718601E+02  0.28529143396E+02 -0.59789010582E+02  0.99725897868E+02  0.00000000000E+00 0.  1.
<mgrwt>
<rscale>  1 0.30000000E+03</rscale>
<asrwt>0</asrwt>
<pdfrwt beam="1">  1        1 0.78919669E-01 0.30000000E+03</pdfrwt>
<pdfrwt beam="2">0</pdfrwt>
<totfact> 0.47855966E+01</totfact>
</mgrwt>
</event>
<event>
 6    1  0.1956957E-002  0.3000000E+03  0.7818608E-02  0.1093470E+00
          1   -1    0    0  502    0  0.00000000000E+00  0.00000000000E+00  0.22398410821E+01  0.22398410821E+01  0.00000000000E+00 0.  1.
         13   -1    0    0    0    0 -0.00000000000E+00 -0.00000000000E+00 -0.10000000000E+04  0.10000000000E+04  0.00000000000E+00 0.  1.
    9000005    2    1    2  501    0  0.20721112021E+02  0.40156084443E+02 -0.64537387128E+03  0.64696815445E+03  0.42992500790E+01 0.  0.
         13    1    3    3    0    0  0.11940401054E+02  0.26902274883E+02 -0.43458829404E+03  0.43558385058E+03  0.00000000000E+00 0.  1.
          1    1    3    3  501    0  0.87807109674E+01  0.13253809560E+02 -0.21078557723E+03  0.21138430387E+03  0.00000000000E+00 0.  1.
         21    1    1    2  502  501 -0.20721112021E+02 -0.40156084443E+02 -0.35238628764E+03  0.35527168663E+03  0.00000000000E+00 0.  1.
<mgrwt>
<rscale>  1 0.30000000E+03</rscale>
<asrwt>0</asrwt>
<pdfrwt beam="1">  1        1 0.81448938E-02 0.30000000E+03</pdfrwt>
<pdfrwt beam="2">0</pdfrwt>
<totfact> 0.10044309E+03</totfact>
</mgrwt>
</event>
<event>
 6    1  0.1956957E-002  0.3000000E+03  0.7818608E-02  0.1093470E+00
          3   -1    0    0  502    0  0.00000000000E+00  0.00000000000E+00  0.22795349217E+01  0.22795349217E+01  0.00000000000E+00 0.  1.
         13   -1    0    0    0    0 -0.00000000000E+00 -0.00000000000E+00 -0.10000000000E+04  0.10000000000E+04  0.00000000000E+00 0.  1.
    9000005    2    1    2  501    0 -0.20542532953E+02 -0.41251222197E+02 -0.61375919390E+03  0.61556269179E+03  0.96654250120E+01 0.  0.
         13    1    3    3    0    0 -0.10875657593E+02 -0.11736906337E+02 -0.21880937249E+03  0.21939365621E+03  0.00000000000E+00 0.  1.
          3    1    3    3  501    0 -0.96668753599E+01 -0.29514315860E+02 -0.39494982141E+03  0.39616903558E+03  0.00000000000E+00 0.  1.
         21    1    1    2  502  501  0.20542532953E+02  0.41251222197E+02 -0.38396127118E+03  0.38671684313E+03  0.00000000000E+00 0.  1.
<mgrwt>
<rscale>  1 0.30000000E+03</rscale>
<asrwt>0</asrwt>
<pdfrwt beam="1">  1        3 0.82892354E-02 0.30000000E+03</pdfrwt>
<pdfrwt beam="2">0</pdfrwt>
<totfact> 0.44774967E+02</totfact>
</mgrwt>
</event>
<event>
 6    1  0.1956957E-002  0.3000000E+03  0.7818608E-02  0.1093470E+00
          1   -1    0    0  502    0  0.00000000000E+00  0.00000000000E+00  0.16820328237E+02  0.16820328237E+02  0.00000000000E+00 0.  1.
         13   -1    0    0    0    0 -0.00000000000E+00 -0.00000000000E+00 -0.10000000000E+04  0.10000000000E+04  0.00000000000E+00 0.  1.
    9000005    2    1    2  501    0 -0.26964250932E+02 -0.25090742579E+02 -0.97906051886E+03  0.97975843929E+03  0.32378352001E+01 0.  0.
         13    1    3    3    0    0 -0.26939751887E+02 -0.25140373521E+02 -0.97872338739E+03  0.97941679465E+03  0.00000000000E+00 0.  1.
          3    1    3    3  501    0 -0.24499045223E-01  0.49630941650E-01 -0.33713147244E+00  0.34164464476E+00  0.00000000000E+00 0.  1.
         21    1    1    2  502  501  0.26964250932E+02  0.25090742579E+02 -0.41191528996E+01  0.37061888944E+02  0.00000000000E+00 0.  1.
<mgrwt>
<rscale>  1 0.30000000E+03</rscale>
<asrwt>0</asrwt>
<pdfrwt beam="1">  1        1 0.61164959E-01 0.30000000E+03</pdfrwt>
<pdfrwt beam="2">0</pdfrwt>
<totfact> 0.67591481E+01</totfact>
</mgrwt>
</event>
<event>
 6    1  0.1956957E-002  0.3000000E+03  0.7818608E-02  0.1093470E+00
          1   -1    0    0  502    0  0.00000000000E+00  0.00000000000E+00  0.29080502765E+01  0.29080502765E+01  0.00000000000E+00 0.  1.
         13   -1    0    0    0    0 -0.00000000000E+00 -0.00000000000E+00 -0.10000000000E+04  0.10000000000E+04  0.00000000000E+00 0.  1.
    9000005    2    1    2  501    0 -0.51896952222E+02  0.64849705008E+00 -0.36571944210E+03  0.36940591328E+03  0.40378505081E+01 0.  0.
         13    1    3    3    0    0 -0.45480107537E+02  0.17251905812E+01 -0.31507111392E+03  0.31834136283E+03  0.00000000000E+00 0.  1.
          3    1    3    3  501    0 -0.64168446853E+01 -0.10766935311E+01 -0.50648328183E+02  0.51064550448E+02  0.00000000000E+00 0.  1.
         21    1    1    2  502  501  0.51896952222E+02 -0.64849705008E+00 -0.63137250762E+03  0.63350213700E+03  0.00000000000E+00 0.  1.
<mgrwt>
<rscale>  1 0.30000000E+03</rscale>
<asrwt>0</asrwt>
<pdfrwt beam="1">  1        1 0.10574751E-01 0.30000000E+03</pdfrwt>
<pdfrwt beam="2">0</pdfrwt>
<totfact> 0.69970588E+02</totfact>
</mgrwt>
</event>
<event>
 6    1  0.1956957E-002  0.3000000E+03  0.7818608E-02  0.1093470E+00
          1   -1    0    0  502    0  0.00000000000E+00  0.00000000000E+00  0.19780369637E+01  0.19780369637E+01  0.00000000000E+00 0.  1.
         13   -1    0    0    0    0 -0.00000000000E+00 -0.00000000000E+00 -0.10000000000E+04  0.10000000000E+04  0.00000000000E+00 0.  1.
    9000005    2    1    2  501    0  0.17778323727E+02  0.40274697421E+02 -0.56484027924E+03  0.56656502473E+03  0.36422722393E+01 0.  0.
         13    1    3    3    0    0  0.96822144616E+01  0.24449543172E+02 -0.35562504727E+03  0.35659598944E+03  0.00000000000E+00 0.  1.
          3    1    3    3  501    0  0.80961092649E+01  0.15825154249E+02 -0.20921523197E+03  0.20996903529E+03  0.00000000000E+00 0.  1.
         21    1    1    2  502  501 -0.17778323727E+02 -0.40274697421E+02 -0.43318168379E+03  0.43541301223E+03  0.00000000000E+00 0.  1.
<mgrwt>
<rscale>  1 0.30000000E+03</rscale>
<asrwt>0</asrwt>
<pdfrwt beam="1">  1        1 0.71928769E-02 0.30000000E+03</pdfrwt>
<pdfrwt beam="2">0</pdfrwt>
<totfact> 0.11945509E+03</totfact>
</mgrwt>
</event>
<event>
 6    1  0.1956957E-002  0.3000000E+03  0.7818608E-02  0.1093470E+00
          1   -1    0    0  502    0  0.00000000000E+00  0.00000000000E+00  0.12618173631E+01  0.12618173631E+01  0.00000000000E+00 0.  1.
         13   -1    0    0    0    0 -0.00000000000E+00 -0.00000000000E+00 -0.10000000000E+04  0.10000000000E+04  0.00000000000E+00 0.  1.
    9000005    2    1    2  501    0 -0.96970093195E+01  0.33682435222E+02 -0.57399506921E+03  0.57507494423E+03  0.35090689683E+01 0.  0.
         13    1    3    3    0    0 -0.85123664672E+01  0.27267061499E+02 -0.44611317534E+03  0.44702675338E+03  0.00000000000E+00 0.  1.
          3    1    3    3  501    0 -0.11846428523E+01  0.64153737228E+01 -0.12788189388E+03  0.12804819085E+03  0.00000000000E+00 0.  1.
         21    1    1    2  502  501  0.96970093195E+01 -0.33682435222E+02 -0.42474311342E+03  0.42618687314E+03  0.00000000000E+00 0.  1.
<mgrwt>
<rscale>  1 0.30000000E+03</rscale>
<asrwt>0</asrwt>
<pdfrwt beam="1">  1        1 0.45884365E-02 0.30000000E+03</pdfrwt>
<pdfrwt beam="2">0</pdfrwt>
<totfact> 0.22445622E+03</totfact>
</mgrwt>
</event>
<event>
 6    1  0.1956957E-002  0.3000000E+03  0.7818608E-02  0.1093470E+00
          1   -1    0    0  502    0  0.00000000000E+00  0.00000000000E+00  0.22467516090E+01  0.22467516090E+01  0.00000000000E+00 0.  1.
         13   -1    0    0    0    0 -0.00000000000E+00 -0.00000000000E+00 -0.10000000000E+04  0.10000000000E+04  0.00000000000E+00 0.  1.
    9000005    2    1    2  501    0  0.10626440147E+02  0.31727931870E+02 -0.14542274669E+03  0.14925972532E+03  0.33327850453E+01 0.  0.
         13    1    3    3    0    0  0.90962935381E+00  0.14915620632E+01 -0.10877390683E+02  0.11016796768E+02  0.00000000000E+00 0.  1.
          3    1    3    3  501    0  0.97168107932E+01  0.30236369807E+02 -0.13454535600E+03  0.13824292855E+03  0.00000000000E+00 0.  1.
         21    1    1    2  502  501 -0.10626440147E+02 -0.31727931870E+02 -0.85233050170E+03  0.85298702629E+03  0.00000000000E+00 0.  1.
<mgrwt>
<rscale>  1 0.30000000E+03</rscale>
<asrwt>0</asrwt>
<pdfrwt beam="1">  1        1 0.81700231E-02 0.30000000E+03</pdfrwt>
<pdfrwt beam="2">0</pdfrwt>
<totfact> 0.10001350E+03</totfact>
</mgrwt>
</event>
<event>
 6    1  0.1956957E-002  0.3000000E+03  0.7818608E-02  0.1093470E+00
          1   -1    0    0  502    0  0.00000000000E+00  0.00000000000E+00  0.10827251489E+01  0.10827251489E+01  0.00000000000E+00 0.  1.
         13   -1    0    0    0    0 -0.00000000000E+00 -0.00000000000E+00 -0.10000000000E+04  0.10000000000E+04  0.00000000000E+00 0.  1.
    9000005    2    1    2  501    0 -0.48994758044E+01 -0.29721035158E+02 -0.69895400563E+03  0.69961082318E+03  0.33551650614E+01 0.  0.
         13    1    3    3    0    0 -0.32579859083E+01 -0.15729447457E+02 -0.40768957469E+03  0.40800590596E+03  0.00000000000E+00 0.  1.
          1    1    3    3  501    0 -0.16414898961E+01 -0.13991587701E+02 -0.29126443094E+03  0.29160491722E+03  0.00000000000E+00 0.  1.
         21    1    1    2  502  501  0.48994758044E+01  0.29721035158E+02 -0.29996326922E+03  0.30147190197E+03  0.00000000000E+00 0.  1.
<mgrwt>
<rscale>  1 0.30000000E+03</rscale>
<asrwt>0</asrwt>
<pdfrwt beam="1">  1        1 0.39371907E-02 0.30000000E+03</pdfrwt>
<pdfrwt beam="2">0</pdfrwt>
<totfact> 0.27843090E+03</totfact>
</mgrwt>
</event>
<event>
 6    1  0.1956957E-002  0.3000000E+03  0.7818608E-02  0.1093470E+00
          1   -1    0    0  502    0  0.00000000000E+00  0.00000000000E+00  0.71515814434E+01  0.71515814434E+01  0.00000000000E+00 0.  1.
         13   -1    0    0    0    0 -0.00000000000E+00 -0.00000000000E+00 -0.10000000000E+04  0.10000000000E+04  0.00000000000E+00 0.  1.
    9000005    2    1    2  501    0  0.47180350165E+02  0.30424848442E+02 -0.87231934981E+03  0.87418950693E+03  0.10704631704E+02 0.  0.
         13    1    3    3    0    0  0.64825746868E+01  0.24384711513E+01 -0.67029092283E+02  0.67385971303E+02  0.00000000000E+00 0.  1.
          3    1    3    3  501    0  0.40697775479E+02  0.27986377291E+02 -0.80529025752E+03  0.80680353563E+03  0.00000000000E+00 0.  1.
         21    1    1    2  502  501 -0.47180350165E+02 -0.30424848442E+02 -0.12052906875E+03  0.13296207451E+03  0.00000000000E+00 0.  1.
<mgrwt>
<rscale>  1 0.30000000E+03</rscale>
<asrwt>0</asrwt>
<pdfrwt beam="1">  1        1 0.26005806E-01 0.30000000E+03</pdfrwt>
<pdfrwt beam="2">0</pdfrwt>
<totfact> 0.20781944E+02</totfact>
</mgrwt>
</event>
<event>
 6    1  0.1956957E-002  0.3000000E+03  0.7818608E-02  0.1093470E+00
          1   -1    0    0  502    0  0.00000000000E+00  0.00000000000E+00  0.39187023254E+01  0.39187023254E+01  0.00000000000E+00 0.  1.
         13   -1    0    0    0    0 -0.00000000000E+00 -0.00000000000E+00 -0.10000000000E+04  0.10000000000E+04  0.00000000000E+00 0.  1.
    9000005    2    1    2  501    0  0.20006711649E+02  0.39507919375E+02 -0.85264946150E+03  0.85380595859E+03  0.35166059550E+01 0.  0.
         13    1    3    3    0    0  0.94866843647E+01  0.16955554961E+02 -0.40386418372E+03  0.40433125889E+03  0.00000000000E+00 0.  1.
          3    1    3    3  501    0  0.10520027284E+02  0.22552364414E+02 -0.44878527778E+03  0.44947469970E+03  0.00000000000E+00 0.  1.
         21    1    1    2  502  501 -0.20006711649E+02 -0.39507919375E+02 -0.14343183617E+03  0.15011274374E+03  0.00000000000E+00 0.  1.
<mgrwt>
<rscale>  1 0.30000000E+03</rscale>
<asrwt>0</asrwt>
<pdfrwt beam="1">  1        1 0.14249857E-01 0.30000000E+03</pdfrwt>
<pdfrwt beam="2">0</pdfrwt>
<totfact> 0.46512891E+02</totfact>
</mgrwt>
</event>
<event>
 6    1  0.1956957E-002  0.3000000E+03  0.7818608E-02  0.1093470E+00
          1   -1    0    0  502    0  0.00000000000E+00  0.00000000000E+00  0.92818620439E+01  0.92818620439E+01  0.00000000000E+00 0.  1.
         13   -1    0    0    0    0 -0.00000000000E+00 -0.00000000000E+00 -0.10000000000E+04  0.10000000000E+04  0.00000000000E+00 0.  1.
    9000005    2    1    2  501    0  0.20231807171E+02 -0.80787673188E+02 -0.74896555445E+03  0.75358617223E+03  0.25967390597E+01 0.  0.
         13    1    3    3    0    0  0.19050034787E+02 -0.77816094285E+02 -0.72248438407E+03  0.72691260381E+03  0.00000000000E+00 0.  1.
          1    1    3    3  501    0  0.11817723841E+01 -0.29715789029E+01 -0.26481170386E+02  0.26673568418E+02  0.00000000000E+00 0.  1.
         21    1    1    2  502  501 -0.20231807171E+02  0.80787673188E+02 -0.24175258350E+03  0.25569568982E+03  0.00000000000E+00 0.  1.
<mgrwt>
<rscale>  1 0.30000000E+03</rscale>
<asrwt>0</asrwt>
<pdfrwt beam="1">  1        1 0.33752297E-01 0.30000000E+03</pdfrwt>
<pdfrwt beam="2">0</pdfrwt>
<totfact> 0.14756403E+02</totfact>
</mgrwt>
</event>
<event>
 6    1  0.1956957E-002  0.3000000E+03  0.7818608E-02  0.1093470E+00
          1   -1    0    0  502    0  0.00000000000E+00  0.00000000000E+00  0.12638824232E+01  0.12638824232E+01  0.00000000000E+00 0.  1.
         13   -1    0    0    0    0 -0.00000000000E+00 -0.00000000000E+00 -0.10000000000E+04  0.10000000000E+04  0.00000000000E+00 0.  1.
    9000005    2    1    2  501    0  0.24440962081E+02 -0.25741961282E+02 -0.49214459250E+03  0.49343026550E+03  0.26679178930E+01 0.  0.
         13    1    3    3    0    0  0.24098755403E+02 -0.25362490220E+02 -0.47911809682E+03  0.48039375165E+03  0.00000000000E+00 0.  1.
          1    1    3    3  501    0  0.34220667743E+00 -0.37947106198E+00 -0.13026495681E+02  0.13036513852E+02  0.00000000000E+00 0.  1.
         21    1    1    2  502  501 -0.24440962081E+02  0.25741961282E+02 -0.50659152507E+03  0.50783361692E+03  0.00000000000E+00 0.  1.
<mgrwt>
<rscale>  1 0.30000000E+03</rscale>
<asrwt>0</asrwt>
<pdfrwt beam="1">  1        1 0.45959458E-02 0.30000000E+03</pdfrwt>
<pdfrwt beam="2">0</pdfrwt>
<totfact> 0.22394037E+03</totfact>
</mgrwt>
</event>
<event>
 6    1  0.1956957E-002  0.3000000E+03  0.7818608E-02  0.1093470E+00
          1   -1    0    0  502    0  0.00000000000E+00  0.00000000000E+00  0.27148274282E+01  0.27148274282E+01  0.00000000000E+00 0.  1.
         13   -1    0    0    0    0 -0.00000000000E+00 -0.00000000000E+00 -0.10000000000E+04  0.10000000000E+04  0.00000000000E+00 0.  1.
    9000005    2    1    2  501    0  0.26587440316E+02  0.20933033115E+02 -0.87974317550E+03  0.88039882303E+03  0.29914685173E+01 0.  0.
         13    1    3    3    0    0  0.27760955378E+01  0.32279798819E+01 -0.12556381392E+03  0.12563597386E+03  0.00000000000E+00 0.  1.
          3    1    3    3  501    0  0.23811344778E+02  0.17705053233E+02 -0.75417936158E+03  0.75476284917E+03  0.00000000000E+00 0.  1.
         21    1    1    2  502  501 -0.26587440316E+02 -0.20933033115E+02 -0.11754199707E+03  0.12231600440E+03  0.00000000000E+00 0.  1.
<mgrwt>
<rscale>  1 0.30000000E+03</rscale>
<asrwt>0</asrwt>
<pdfrwt beam="1">  1        1 0.98721206E-02 0.30000000E+03</pdfrwt>
<pdfrwt beam="2">0</pdfrwt>
<totfact> 0.76928808E+02</totfact>
</mgrwt>
</event>
<event>
 6    1  0.1956957E-002  0.3000000E+03  0.7818608E-02  0.1093470E+00
          3   -1    0    0  502    0  0.00000000000E+00  0.00000000000E+00  0.37336768362E+01  0.37336768362E+01  0.00000000000E+00 0.  1.
         13   -1    0    0    0    0 -0.00000000000E+00 -0.00000000000E+00 -0.10000000000E+04  0.10000000000E+04  0.00000000000E+00 0.  1.
    9000005    2    1    2  501    0 -0.62038704907E+01 -0.60365409497E+02 -0.44265457048E+03  0.44680599448E+03  0.31713179420E+01 0.  0.
         13    1    3    3    0    0 -0.28803956289E+01 -0.29566980417E+02 -0.20510784443E+03  0.20724799361E+03  0.00000000000E+00 0.  1.
          1    1    3    3  501    0 -0.33234748618E+01 -0.30798429080E+02 -0.23754672605E+03  0.23955800086E+03  0.00000000000E+00 0.  1.
         21    1    1    2  502  501  0.62038704907E+01  0.60365409497E+02 -0.55361175268E+03  0.55692768236E+03  0.00000000000E+00 0.  1.
<mgrwt>
<rscale>  1 0.30000000E+03</rscale>
<asrwt>0</asrwt>
<pdfrwt beam="1">  1        3 0.13577035E-01 0.30000000E+03</pdfrwt>
<pdfrwt beam="2">0</pdfrwt>
<totfact> 0.19757241E+02</totfact>
</mgrwt>
</event>
<event>
 6    1  0.1956957E-002  0.3000000E+03  0.7818608E-02  0.1093470E+00
          1   -1    0    0  502    0  0.00000000000E+00  0.00000000000E+00  0.11736031977E+02  0.11736031977E+02  0.00000000000E+00 0.  1.
         13   -1    0    0    0    0 -0.00000000000E+00 -0.00000000000E+00 -0.10000000000E+04  0.10000000000E+04  0.00000000000E+00 0.  1.
    9000005    2    1    2  501    0  0.43249887789E+02 -0.92028239235E+02 -0.66839171553E+03  0.67609037429E+03  0.33104691348E+01 0.  0.
         13    1    3    3    0    0  0.41380650418E+02 -0.89334449710E+02 -0.64544996473E+03  0.65291550687E+03  0.00000000000E+00 0.  1.
          3    1    3    3  501    0  0.18692373708E+01 -0.26937895251E+01 -0.22941750798E+02  0.23174867422E+02  0.00000000000E+00 0.  1.
         21    1    1    2  502  501 -0.43249887789E+02  0.92028239235E+02 -0.31987225249E+03  0.33564565769E+03  0.00000000000E+00 0.  1.
<mgrwt>
<rscale>  1 0.30000000E+03</rscale>
<asrwt>0</asrwt>
<pdfrwt beam="1">  1        1 0.42676570E-01 0.30000000E+03</pdfrwt>
<pdfrwt beam="2">0</pdfrwt>
<totfact> 0.10860118E+02</totfact>
</mgrwt>
</event>
<event>
 6    1  0.1956957E-002  0.3000000E+03  0.7818608E-02  0.1093470E+00
          1   -1    0    0  502    0  0.00000000000E+00  0.00000000000E+00  0.39347260869E+01  0.39347260869E+01  0.00000000000E+00 0.  1.
         13   -1    0    0    0    0 -0.00000000000E+00 -0.00000000000E+00 -0.10000000000E+04  0.10000000000E+04  0.00000000000E+00 0.  1.
    9000005    2    1    2  501    0  0.30965605989E+02  0.14947922910E+02 -0.91778619755E+03  0.91843663868E+03  0.34706925592E+01 0.  0.
         13    1    3    3    0    0  0.27607047767E+02  0.12046152373E+02 -0.80098617295E+03  0.80155231154E+03  0.00000000000E+00 0.  1.
          1    1    3    3  501    0  0.33585582218E+01  0.29017705374E+01 -0.11680002460E+03  0.11688432714E+03  0.00000000000E+00 0.  1.
         21    1    1    2  502  501 -0.30965605989E+02 -0.14947922910E+02 -0.78279076361E+02  0.85498087402E+02  0.00000000000E+00 0.  1.
<mgrwt>
<rscale>  1 0.30000000E+03</rscale>
<asrwt>0</asrwt>
<pdfrwt beam="1">  1        1 0.14308125E-01 0.30000000E+03</pdfrwt>
<pdfrwt beam="2">0</pdfrwt>
<totfact> 0.46255406E+02</totfact>
</mgrwt>
</event>
<event>
 6    1  0.1956957E-002  0.3000000E+03  0.7818608E-02  0.1093470E+00
          3   -1    0    0  502    0  0.00000000000E+00  0.00000000000E+00  0.15010564760E+02  0.15010564760E+02  0.00000000000E+00 0.  1.
         13   -1    0    0    0    0 -0.00000000000E+00 -0.00000000000E+00 -0.10000000000E+04  0.10000000000E+04  0.00000000000E+00 0.  1.
    9000005    2    1    2  501    0  0.12886504507E+02  0.11149060239E+03 -0.69585711141E+03  0.70485944497E+03  0.36744051588E+01 0.  0.
         13    1    3    3    0    0  0.16315530812E+01  0.27290269808E+02 -0.17222843177E+03  0.17438478576E+03  0.00000000000E+00 0.  1.
          1    1    3    3  501    0  0.11254951426E+02  0.84200332581E+02 -0.52362867963E+03  0.53047465922E+03  0.00000000000E+00 0.  1.
         21    1    1    2  502  501 -0.12886504507E+02 -0.11149060239E+03 -0.28913232384E+03  0.31015111979E+03  0.00000000000E+00 0.  1.
<mgrwt>
<rscale>  1 0.30000000E+03</rscale>
<asrwt>0</asrwt>
<pdfrwt beam="1">  1        3 0.54583987E-01 0.30000000E+03</pdfrwt>
<pdfrwt beam="2">0</pdfrwt>
<totfact> 0.14698889E+01</totfact>
</mgrwt>
</event>
<event>
 6    1  0.1956957E-002  0.3000000E+03  0.7818608E-02  0.1093470E+00
          1   -1    0    0  502    0  0.00000000000E+00  0.00000000000E+00  0.70359333420E+01  0.70359333420E+01  0.00000000000E+00 0.  1.
         13   -1    0    0    0    0 -0.00000000000E+00 -0.00000000000E+00 -0.10000000000E+04  0.10000000000E+04  0.00000000000E+00 0.  1.
    9000005    2    1    2  501    0  0.91564322435E+01  0.45642821524E+02 -0.91529568514E+03  0.91648492620E+03  0.33647130760E+01 0.  0.
         13    1    3    3    0    0  0.93706153757E+00  0.78740989555E+01 -0.13542957196E+03  0.13566152174E+03  0.00000000000E+00 0.  1.
          1    1    3    3  501    0  0.82193707059E+01  0.37768722568E+02 -0.77986611319E+03  0.78082340446E+03  0.00000000000E+00 0.  1.
         21    1    1    2  502  501 -0.91564322435E+01 -0.45642821524E+02 -0.77668381515E+02  0.90551007146E+02  0.00000000000E+00 0.  1.
<mgrwt>
<rscale>  1 0.30000000E+03</rscale>
<asrwt>0</asrwt>
<pdfrwt beam="1">  1        1 0.25585266E-01 0.30000000E+03</pdfrwt>
<pdfrwt beam="2">0</pdfrwt>
<totfact> 0.21234279E+02</totfact>
</mgrwt>
</event>
<event>
 6    1  0.1956957E-002  0.3000000E+03  0.7818608E-02  0.1093470E+00
          1   -1    0    0  502    0  0.00000000000E+00  0.00000000000E+00  0.19122087354E+01  0.19122087354E+01  0.00000000000E+00 0.  1.
         13   -1    0    0    0    0 -0.00000000000E+00 -0.00000000000E+00 -0.10000000000E+04  0.10000000000E+04  0.00000000000E+00 0.  1.
    9000005    2    1    2  501    0  0.27271166345E+02  0.17243496016E+02 -0.83673791968E+03  0.83736788119E+03  0.36834143398E+01 0.  0.
         13    1    3    3    0    0  0.24542024699E+02  0.16610375668E+02 -0.77514298645E+03  0.77570926577E+03  0.00000000000E+00 0.  1.
          3    1    3    3  501    0  0.27291416462E+01  0.63312034817E+00 -0.61594933226E+02  0.61658615413E+02  0.00000000000E+00 0.  1.
         21    1    1    2  502  501 -0.27271166345E+02 -0.17243496016E+02 -0.16134987158E+03  0.16454432755E+03  0.00000000000E+00 0.  1.
<mgrwt>
<rscale>  1 0.30000000E+03</rscale>
<asrwt>0</asrwt>
<pdfrwt beam="1">  1        1 0.69535010E-02 0.30000000E+03</pdfrwt>
<pdfrwt beam="2">0</pdfrwt>
<totfact> 0.12524303E+03</totfact>
</mgrwt>
</event>
<event>
 6    1  0.1956957E-002  0.3000000E+03  0.7818608E-02  0.1093470E+00
          1   -1    0    0  502    0  0.00000000000E+00  0.00000000000E+00  0.28057626642E+01  0.28057626642E+01  0.00000000000E+00 0.  1.
         13   -1    0    0    0    0 -0.00000000000E+00 -0.00000000000E+00 -0.10000000000E+04  0.10000000000E+04  0.00000000000E+00 0.  1.
    9000005    2    1    2  501    0 -0.35856640019E+02  0.20947564211E+02 -0.80954564185E+03  0.81061706771E+03  0.33741883212E+01 0.  0.
         13    1    3    3    0    0 -0.32243797060E+02  0.18182425692E+02 -0.70211426136E+03  0.70308939620E+03  0.00000000000E+00 0.  1.
          1    1    3    3  501    0 -0.36128429587E+01  0.27651385191E+01 -0.10743138049E+03  0.10752767151E+03  0.00000000000E+00 0.  1.
         21    1    1    2  502  501  0.35856640019E+02 -0.20947564211E+02 -0.18764859548E+03  0.19218869495E+03  0.00000000000E+00 0.  1.
<mgrwt>
<rscale>  1 0.30000000E+03</rscale>
<asrwt>0</asrwt>
<pdfrwt beam="1">  1        1 0.10202795E-01 0.30000000E+03</pdfrwt>
<pdfrwt beam="2">0</pdfrwt>
<totfact> 0.73509042E+02</totfact>
</mgrwt>
</event>
<event>
 6    1  0.1956957E-002  0.3000000E+03  0.7818608E-02  0.1093470E+00
          1   -1    0    0  502    0  0.00000000000E+00  0.00000000000E+00  0.10562976017E+01  0.10562976017E+01  0.00000000000E+00 0.  1.
         13   -1    0    0    0    0 -0.00000000000E+00 -0.00000000000E+00 -0.10000000000E+04  0.10000000000E+04  0.00000000000E+00 0.  1.
    9000005    2    1    2  501    0 -0.73668175088E+01 -0.30409919796E+02 -0.63169435619E+03  0.63247643446E+03  0.31060077522E+01 0.  0.
         13    1    3    3    0    0 -0.25449554322E+01 -0.60721116915E+01 -0.14735441735E+03  0.14750142932E+03  0.00000000000E+00 0.  1.
          1    1    3    3  501    0 -0.48218620766E+01 -0.24337808105E+02 -0.48433993884E+03  0.48497500514E+03  0.00000000000E+00 0.  1.
         21    1    1    2  502  501  0.73668175088E+01  0.30409919796E+02 -0.36724934621E+03  0.36857986314E+03  0.00000000000E+00 0.  1.
<mgrwt>
<rscale>  1 0.30000000E+03</rscale>
<asrwt>0</asrwt>
<pdfrwt beam="1">  1        1 0.38410903E-02 0.30000000E+03</pdfrwt>
<pdfrwt beam="2">0</pdfrwt>
<totfact> 0.28828740E+03</totfact>
</mgrwt>
</event>
<event>
 6    1  0.1956957E-002  0.3000000E+03  0.7818608E-02  0.1093470E+00
          3   -1    0    0  502    0  0.00000000000E+00  0.00000000000E+00  0.24943683951E+01  0.24943683951E+01  0.00000000000E+00 0.  1.
         13   -1    0    0    0    0 -0.00000000000E+00 -0.00000000000E+00 -0.10000000000E+04  0.10000000000E+04  0.00000000000E+00 0.  1.
    9000005    2    1    2  501    0 -0.70304678947E+01 -0.47038731805E+02 -0.65042348285E+03  0.65216868028E+03  0.33482424634E+01 0.  0.
         13    1    3    3    0    0 -0.36835608495E+01 -0.30314840068E+02 -0.43574245883E+03  0.43681122762E+03  0.00000000000E+00 0.  1.
          1    1    3    3  501    0 -0.33469070451E+01 -0.16723891737E+02 -0.21468102402E+03  0.21535745265E+03  0.00000000000E+00 0.  1.
         21    1    1    2  502  501  0.70304678947E+01  0.47038731805E+02 -0.34708214876E+03  0.35032568812E+03  0.00000000000E+00 0.  1.
<mgrwt>
<rscale>  1 0.30000000E+03</rscale>
<asrwt>0</asrwt>
<pdfrwt beam="1">  1        3 0.90704497E-02 0.30000000E+03</pdfrwt>
<pdfrwt beam="2">0</pdfrwt>
<totfact> 0.38729342E+02</totfact>
</mgrwt>
</event>
<event>
 6    1  0.1956957E-002  0.3000000E+03  0.7818608E-02  0.1093470E+00
          1   -1    0    0  502    0  0.00000000000E+00  0.00000000000E+00  0.26643893701E+01  0.26643893701E+01  0.00000000000E+00 0.  1.
         13   -1    0    0    0    0 -0.00000000000E+00 -0.00000000000E+00 -0.10000000000E+04  0.10000000000E+04  0.00000000000E+00 0.  1.
    9000005    2    1    2  501    0 -0.25345960030E+02  0.40352222932E+02 -0.69050998868E+03  0.69216047334E+03  0.33699853683E+01 0.  0.
         13    1    3    3    0    0 -0.19851873067E+02  0.28804530277E+02 -0.50474856229E+03  0.50595939458E+03  0.00000000000E+00 0.  1.
          1    1    3    3  501    0 -0.54940869629E+01  0.11547692655E+02 -0.18576142639E+03  0.18620107876E+03  0.00000000000E+00 0.  1.
         21    1    1    2  502  501  0.25345960030E+02 -0.40352222932E+02 -0.30682562195E+03  0.31050391603E+03  0.00000000000E+00 0.  1.
<mgrwt>
<rscale>  1 0.30000000E+03</rscale>
<asrwt>0</asrwt>
<pdfrwt beam="1">  1        1 0.96887090E-02 0.30000000E+03</pdfrwt>
<pdfrwt beam="2">0</pdfrwt>
<totfact> 0.78948858E+02</totfact>
</mgrwt>
</event>
<event>
 6    1  0.1956957E-002  0.3000000E+03  0.7818608E-02  0.1093470E+00
          3   -1    0    0  502    0  0.00000000000E+00  0.00000000000E+00  0.96177085578E+00  0.96177085578E+00  0.00000000000E+00 0.  1.
         13   -1    0    0    0    0 -0.00000000000E+00 -0.00000000000E+00 -0.10000000000E+04  0.10000000000E+04  0.00000000000E+00 0.  1.
    9000005    2    1    2  501    0 -0.20013292914E+02  0.23353327743E+02 -0.55626980505E+03  0.55712645546E+03  0.28074120993E+01 0.  0.
         13    1    3    3    0    0 -0.10011512817E+01  0.23435349320E+01 -0.46246831368E+02  0.46316993333E+02  0.00000000000E+00 0.  1.
          3    1    3    3  501    0 -0.19012141632E+02  0.21009792811E+02 -0.51002297368E+03  0.51080946213E+03  0.00000000000E+00 0.  1.
         21    1    1    2  502  501  0.20013292914E+02 -0.23353327743E+02 -0.44276842410E+03  0.44383531539E+03  0.00000000000E+00 0.  1.
<mgrwt>
<rscale>  1 0.30000000E+03</rscale>
<asrwt>0</asrwt>
<pdfrwt beam="1">  1        3 0.34973559E-02 0.30000000E+03</pdfrwt>
<pdfrwt beam="2">0</pdfrwt>
<totfact> 0.17157520E+03</totfact>
</mgrwt>
</event>
<event>
 6    1  0.1956957E-002  0.3000000E+03  0.7818608E-02  0.1093470E+00
          1   -1    0    0  502    0  0.00000000000E+00  0.00000000000E+00  0.29063942894E+01  0.29063942894E+01  0.00000000000E+00 0.  1.
         13   -1    0    0    0    0 -0.00000000000E+00 -0.00000000000E+00 -0.10000000000E+04  0.10000000000E+04  0.00000000000E+00 0.  1.
    9000005    2    1    2  501    0 -0.37548133425E+02 -0.11726212381E+02 -0.84123315278E+03  0.84215861929E+03  0.32490494843E+01 0.  0.
         13    1    3    3    0    0 -0.26730956102E+02 -0.83416261133E+01 -0.56621624203E+03  0.56690824608E+03  0.00000000000E+00 0.  1.
          3    1    3    3  501    0 -0.10817177323E+02 -0.33845862678E+01 -0.27501691075E+03  0.27525037321E+03  0.00000000000E+00 0.  1.
         21    1    1    2  502  501  0.37548133425E+02  0.11726212381E+02 -0.15586045293E+03  0.16074777500E+03  0.00000000000E+00 0.  1.
<mgrwt>
<rscale>  1 0.30000000E+03</rscale>
<asrwt>0</asrwt>
<pdfrwt beam="1">  1        1 0.10568729E-01 0.30000000E+03</pdfrwt>
<pdfrwt beam="2">0</pdfrwt>
<totfact> 0.70025475E+02</totfact>
</mgrwt>
</event>
<event>
 6    1  0.1956957E-002  0.3000000E+03  0.7818608E-02  0.1093470E+00
          1   -1    0    0  502    0  0.00000000000E+00  0.00000000000E+00  0.24579334137E+01  0.24579334137E+01  0.00000000000E+00 0.  1.
         13   -1    0    0    0    0 -0.00000000000E+00 -0.00000000000E+00 -0.10000000000E+04  0.10000000000E+04  0.00000000000E+00 0.  1.
    9000005    2    1    2  501    0  0.24509317088E+02  0.32430668136E+02 -0.78526087879E+03  0.78631965002E+03  0.33895982295E+01 0.  0.
         13    1    3    3    0    0  0.99904980830E+01  0.11270164435E+02 -0.26880805054E+03  0.26922963190E+03  0.00000000000E+00 0.  1.
          1    1    3    3  501    0  0.14518819005E+02  0.21160503701E+02 -0.51645282826E+03  0.51709001812E+03  0.00000000000E+00 0.  1.
         21    1    1    2  502  501 -0.24509317088E+02 -0.32430668136E+02 -0.21228118779E+03  0.21613828340E+03  0.00000000000E+00 0.  1.
<mgrwt>
<rscale>  1 0.30000000E+03</rscale>
<asrwt>0</asrwt>
<pdfrwt beam="1">  1        1 0.89379585E-02 0.30000000E+03</pdfrwt>
<pdfrwt beam="2">0</pdfrwt>
<totfact> 0.88280312E+02</totfact>
</mgrwt>
</event>
<event>
 6    1  0.1956957E-002  0.3000000E+03  0.7818608E-02  0.1093470E+00
          1   -1    0    0  502    0  0.00000000000E+00  0.00000000000E+00  0.38856832317E+01  0.38856832317E+01  0.00000000000E+00 0.  1.
         13   -1    0    0    0    0 -0.00000000000E+00 -0.00000000000E+00 -0.10000000000E+04  0.10000000000E+04  0.00000000000E+00 0.  1.
    9000005    2    1    2  501    0  0.22519025239E+02 -0.50068190997E+02 -0.73542769756E+03  0.73748102171E+03  0.32293642334E+01 0.  0.
         13    1    3    3    0    0  0.39214073738E+01 -0.61401260410E+01 -0.93809244943E+02  0.94091726631E+02  0.00000000000E+00 0.  1.
          3    1    3    3  501    0  0.18597617866E+02 -0.43928064956E+02 -0.64161845262E+03  0.64338929508E+03  0.00000000000E+00 0.  1.
         21    1    1    2  502  501 -0.22519025239E+02  0.50068190997E+02 -0.26068661921E+03  0.26640466153E+03  0.00000000000E+00 0.  1.
<mgrwt>
<rscale>  1 0.30000000E+03</rscale>
<asrwt>0</asrwt>
<pdfrwt beam="1">  1        1 0.14129787E-01 0.30000000E+03</pdfrwt>
<pdfrwt beam="2">0</pdfrwt>
<totfact> 0.47051533E+02</totfact>
</mgrwt>
</event>
<event>
 6    1  0.1956957E-002  0.3000000E+03  0.7818608E-02  0.1093470E+00
          1   -1    0    0  502    0  0.00000000000E+00  0.00000000000E+00  0.12488678877E+01  0.12488678877E+01  0.00000000000E+00 0.  1.
         13   -1    0    0    0    0 -0.00000000000E+00 -0.00000000000E+00 -0.10000000000E+04  0.10000000000E+04  0.00000000000E+00 0.  1.
    9000005    2    1    2  501    0  0.26747421457E+02  0.22619726462E+02 -0.54773838720E+03  0.54887781150E+03  0.47365145232E+01 0.  0.
         13    1    3    3    0    0  0.19641386197E+02  0.18340775395E+02 -0.39351906177E+03  0.39443557151E+03  0.00000000000E+00 0.  1.
          1    1    3    3  501    0  0.71060352596E+01  0.42789510665E+01 -0.15421932543E+03  0.15444223999E+03  0.00000000000E+00 0.  1.
         21    1    1    2  502  501 -0.26747421457E+02 -0.22619726462E+02 -0.45101274491E+03  0.45237105638E+03  0.00000000000E+00 0.  1.
<mgrwt>
<rscale>  1 0.30000000E+03</rscale>
<asrwt>0</asrwt>
<pdfrwt beam="1">  1        1 0.45413473E-02 0.30000000E+03</pdfrwt>
<pdfrwt beam="2">0</pdfrwt>
<totfact> 0.22773806E+03</totfact>
</mgrwt>
</event>
<event>
 6    1  0.1956957E-002  0.3000000E+03  0.7818608E-02  0.1093470E+00
          3   -1    0    0  502    0  0.00000000000E+00  0.00000000000E+00  0.33980210778E+01  0.33980210778E+01  0.00000000000E+00 0.  1.
         13   -1    0    0    0    0 -0.00000000000E+00 -0.00000000000E+00 -0.10000000000E+04  0.10000000000E+04  0.00000000000E+00 0.  1.
    9000005    2    1    2  501    0 -0.37317747969E+02  0.32034180451E+02 -0.23018673110E+03  0.23540639669E+03  0.33819223649E+01 0.  0.
         13    1    3    3    0    0 -0.32706000698E+02  0.28493198425E+02 -0.20760409364E+03  0.21208725689E+03  0.00000000000E+00 0.  1.
          3    1    3    3  501    0 -0.46117472717E+01  0.35409820259E+01 -0.22582637451E+02  0.23319139797E+02  0.00000000000E+00 0.  1.
         21    1    1    2  502  501  0.37317747969E+02 -0.32034180451E+02 -0.76641524783E+03  0.76799162439E+03  0.00000000000E+00 0.  1.
<mgrwt>
<rscale>  1 0.30000000E+03</rscale>
<asrwt>0</asrwt>
<pdfrwt beam="1">  1        3 0.12356466E-01 0.30000000E+03</pdfrwt>
<pdfrwt beam="2">0</pdfrwt>
<totfact> 0.23186822E+02</totfact>
</mgrwt>
</event>
<event>
 6    1  0.1956957E-002  0.3000000E+03  0.7818608E-02  0.1093470E+00
          1   -1    0    0  502    0  0.00000000000E+00  0.00000000000E+00  0.16778566742E+01  0.16778566742E+01  0.00000000000E+00 0.  1.
         13   -1    0    0    0    0 -0.00000000000E+00 -0.00000000000E+00 -0.10000000000E+04  0.10000000000E+04  0.00000000000E+00 0.  1.
    9000005    2    1    2  501    0  0.38814825353E+02 -0.12664668053E+02 -0.47106290285E+03  0.47284017728E+03  0.32542773184E+01 0.  0.
         13    1    3    3    0    0  0.81973046984E+01 -0.40868898555E+01 -0.10740715760E+03  0.10779701284E+03  0.00000000000E+00 0.  1.
          1    1    3    3  501    0  0.30617520654E+02 -0.85777781978E+01 -0.36365574525E+03  0.36504316444E+03  0.00000000000E+00 0.  1.
         21    1    1    2  502  501 -0.38814825353E+02  0.12664668053E+02 -0.52725924047E+03  0.52883767940E+03  0.00000000000E+00 0.  1.
<mgrwt>
<rscale>  1 0.30000000E+03</rscale>
<asrwt>0</asrwt>
<pdfrwt beam="1">  1        1 0.61013099E-02 0.30000000E+03</pdfrwt>
<pdfrwt beam="2">0</pdfrwt>
<totfact> 0.15041024E+03</totfact>
</mgrwt>
</event>
<event>
 6    1  0.1956957E-002  0.3000000E+03  0.7818608E-02  0.1093470E+00
          1   -1    0    0  502    0  0.00000000000E+00  0.00000000000E+00  0.33334307646E+01  0.33334307646E+01  0.00000000000E+00 0.  1.
         13   -1    0    0    0    0 -0.00000000000E+00 -0.00000000000E+00 -0.10000000000E+04  0.10000000000E+04  0.00000000000E+00 0.  1.
    9000005    2    1    2  501    0 -0.49582651755E+02 -0.16940604459E+02 -0.70842999741E+03  0.71037311815E+03  0.33885562329E+01 0.  0.
         13    1    3    3    0    0 -0.65982167464E+00  0.16209765515E+00 -0.95891152709E+01  0.96131561920E+01  0.00000000000E+00 0.  1.
          3    1    3    3  501    0 -0.48922830081E+02 -0.17102702114E+02 -0.69884088214E+03  0.70075996195E+03  0.00000000000E+00 0.  1.
         21    1    1    2  502  501  0.49582651755E+02  0.16940604459E+02 -0.28823657182E+03  0.29296031262E+03  0.00000000000E+00 0.  1.
<mgrwt>
<rscale>  1 0.30000000E+03</rscale>
<asrwt>0</asrwt>
<pdfrwt beam="1">  1        1 0.12121592E-01 0.30000000E+03</pdfrwt>
<pdfrwt beam="2">0</pdfrwt>
<totfact> 0.58010082E+02</totfact>
</mgrwt>
</event>
<event>
 6    1  0.1956957E-002  0.3000000E+03  0.7818608E-02  0.1093470E+00
          1   -1    0    0  502    0  0.00000000000E+00  0.00000000000E+00  0.20026862604E+01  0.20026862604E+01  0.00000000000E+00 0.  1.
         13   -1    0    0    0    0 -0.00000000000E+00 -0.00000000000E+00 -0.10000000000E+04  0.10000000000E+04  0.00000000000E+00 0.  1.
    9000005    2    1    2  501    0  0.29212984880E+02 -0.17754063169E+02 -0.82192814402E+03  0.82264561846E+03  0.33666590115E+01 0.  0.
         13    1    3    3    0    0  0.24463446766E+02 -0.15016197951E+02 -0.65792275318E+03  0.65854862810E+03  0.00000000000E+00 0.  1.
          1    1    3    3  501    0  0.47495381140E+01 -0.27378652177E+01 -0.16400539084E+03  0.16409699035E+03  0.00000000000E+00 0.  1.
         21    1    1    2  502  501 -0.29212984880E+02  0.17754063169E+02 -0.17606916972E+03  0.17935706780E+03  0.00000000000E+00 0.  1.
<mgrwt>
<rscale>  1 0.30000000E+03</rscale>
<asrwt>0</asrwt>
<pdfrwt beam="1">  1        1 0.72825108E-02 0.30000000E+03</pdfrwt>
<pdfrwt beam="2">0</pdfrwt>
<totfact> 0.11740592E+03</totfact>
</mgrwt>
</event>
<event>
 6    1  0.1956957E-002  0.3000000E+03  0.7818608E-02  0.1093470E+00
          3   -1    0    0  502    0  0.00000000000E+00  0.00000000000E+00  0.11502784824E+01  0.11502784824E+01  0.00000000000E+00 0.  1.
         13   -1    0    0    0    0 -0.00000000000E+00 -0.00000000000E+00 -0.10000000000E+04  0.10000000000E+04  0.00000000000E+00 0.  1.
    9000005    2    1    2  501    0 -0.62405593012E+01 -0.30926946319E+02 -0.32034008998E+03  0.32190750842E+03  0.33541230753E+01 0.  0.
         13    1    3    3    0    0 -0.38118280953E+01 -0.14084635576E+02 -0.13401658593E+03  0.13480857650E+03  0.00000000000E+00 0.  1.
          1    1    3    3  501    0 -0.24287312059E+01 -0.16842310743E+02 -0.18632350405E+03  0.18709893192E+03  0.00000000000E+00 0.  1.
         21    1    1    2  502  501  0.62405593012E+01  0.30926946319E+02 -0.67850963154E+03  0.67924277006E+03  0.00000000000E+00 0.  1.
<mgrwt>
<rscale>  1 0.30000000E+03</rscale>
<asrwt>0</asrwt>
<pdfrwt beam="1">  1        3 0.41828397E-02 0.30000000E+03</pdfrwt>
<pdfrwt beam="2">0</pdfrwt>
<totfact> 0.13026817E+03</totfact>
</mgrwt>
</event>
<event>
 6    1  0.1956957E-002  0.3000000E+03  0.7818608E-02  0.1093470E+00
          1   -1    0    0  502    0  0.00000000000E+00  0.00000000000E+00  0.19852473548E+01  0.19852473548E+01  0.00000000000E+00 0.  1.
         13   -1    0    0    0    0 -0.00000000000E+00 -0.00000000000E+00 -0.10000000000E+04  0.10000000000E+04  0.00000000000E+00 0.  1.
    9000005    2    1    2  501    0  0.10589191735E+02  0.42641288197E+02 -0.57775279307E+03  0.57943285402E+03  0.37056693740E+01 0.  0.
         13    1    3    3    0    0  0.97533204799E+01  0.33136166367E+02 -0.45742061604E+03  0.45872295861E+03  0.00000000000E+00 0.  1.
          1    1    3    3  501    0  0.83587125517E+00  0.95051218299E+01 -0.12033217703E+03  0.12070989541E+03  0.00000000000E+00 0.  1.
         21    1    1    2  502  501 -0.10589191735E+02 -0.42641288197E+02 -0.42026195958E+03  0.42255239333E+03  0.00000000000E+00 0.  1.
<mgrwt>
<rscale>  1 0.30000000E+03</rscale>
<asrwt>0</asrwt>
<pdfrwt beam="1">  1        1 0.72190965E-02 0.30000000E+03</pdfrwt>
<pdfrwt beam="2">0</pdfrwt>
<totfact> 0.11884929E+03</totfact>
</mgrwt>
</event>
<event>
 6    1  0.1956957E-002  0.3000000E+03  0.7818608E-02  0.1093470E+00
          3   -1    0    0  502    0  0.00000000000E+00  0.00000000000E+00  0.77806708964E+01  0.77806708964E+01  0.00000000000E+00 0.  1.
         13   -1    0    0    0    0 -0.00000000000E+00 -0.00000000000E+00 -0.10000000000E+04  0.10000000000E+04  0.00000000000E+00 0.  1.
    9000005    2    1    2  501    0  0.64273114957E+02 -0.60272033979E+02 -0.48037063599E+03  0.48840331672E+03  0.42544656771E+01 0.  0.
         13    1    3    3    0    0  0.22803918985E+02 -0.22226462964E+02 -0.18452298804E+03  0.18725054738E+03  0.00000000000E+00 0.  1.
          1    1    3    3  501    0  0.41469195972E+02 -0.38045571016E+02 -0.29584764795E+03  0.30115276934E+03  0.00000000000E+00 0.  1.
         21    1    1    2  502  501 -0.64273114957E+02  0.60272033979E+02 -0.51184869311E+03  0.51937735417E+03  0.00000000000E+00 0.  1.
<mgrwt>
<rscale>  1 0.30000000E+03</rscale>
<asrwt>0</asrwt>
<pdfrwt beam="1">  1        3 0.28293408E-01 0.30000000E+03</pdfrwt>
<pdfrwt beam="2">0</pdfrwt>
<totfact> 0.52259967E+01</totfact>
</mgrwt>
</event>
<event>
 6    1  0.1956957E-002  0.3000000E+03  0.7818608E-02  0.1093470E+00
          1   -1    0    0  502    0  0.00000000000E+00  0.00000000000E+00  0.65532924381E+01  0.65532924381E+01  0.00000000000E+00 0.  1.
         13   -1    0    0    0    0 -0.00000000000E+00 -0.00000000000E+00 -0.10000000000E+04  0.10000000000E+04  0.00000000000E+00 0.  1.
    9000005    2    1    2  501    0  0.12052092655E+02  0.33041715035E+02 -0.94999598081E+03  0.95065182980E+03  0.30870824292E+01 0.  0.
         13    1    3    3    0    0  0.26177689448E+01  0.78769812411E+01 -0.19128118082E+03  0.19146119628E+03  0.00000000000E+00 0.  1.
          1    1    3    3  501    0  0.94343237100E+01  0.25164733794E+02 -0.75871479999E+03  0.75919063352E+03  0.00000000000E+00 0.  1.
         21    1    1    2  502  501 -0.12052092655E+02 -0.33041715035E+02 -0.43450726754E+02  0.55901462640E+02  0.00000000000E+00 0.  1.
<mgrwt>
<rscale>  1 0.30000000E+03</rscale>
<asrwt>0</asrwt>
<pdfrwt beam="1">  1        1 0.23830205E-01 0.30000000E+03</pdfrwt>
<pdfrwt beam="2">0</pdfrwt>
<totfact> 0.23325406E+02</totfact>
</mgrwt>
</event>
<event>
 6    1  0.1956957E-002  0.3000000E+03  0.7818608E-02  0.1093470E+00
          1   -1    0    0  502    0  0.00000000000E+00  0.00000000000E+00  0.96951630908E+01  0.96951630908E+01  0.00000000000E+00 0.  1.
         13   -1    0    0    0    0 -0.00000000000E+00 -0.00000000000E+00 -0.10000000000E+04  0.10000000000E+04  0.00000000000E+00 0.  1.
    9000005    2    1    2  501    0  0.47642818943E+02 -0.45849566810E+02 -0.86920402810E+03  0.87171898084E+03  0.25135877833E+01 0.  0.
         13    1    3    3    0    0  0.38342017093E+02 -0.35524113825E+02 -0.69001883184E+03  0.69199570897E+03  0.00000000000E+00 0.  1.
          1    1    3    3  501    0  0.93008018502E+01 -0.10325452984E+02 -0.17918519626E+03  0.17972327188E+03  0.00000000000E+00 0.  1.
         21    1    1    2  502  501 -0.47642818943E+02  0.45849566810E+02 -0.12110080881E+03  0.13797618225E+03  0.00000000000E+00 0.  1.
<mgrwt>
<rscale>  1 0.30000000E+03</rscale>
<asrwt>0</asrwt>
<pdfrwt beam="1">  1        1 0.35255213E-01 0.30000000E+03</pdfrwt>
<pdfrwt beam="2">0</pdfrwt>
<totfact> 0.13939226E+02</totfact>
</mgrwt>
</event>
<event>
 6    1  0.1956957E-002  0.3000000E+03  0.7818608E-02  0.1093470E+00
          1   -1    0    0  502    0  0.00000000000E+00  0.00000000000E+00  0.29967369569E+01  0.29967369569E+01  0.00000000000E+00 0.  1.
         13   -1    0    0    0    0 -0.00000000000E+00 -0.00000000000E+00 -0.10000000000E+04  0.10000000000E+04  0.00000000000E+00 0.  1.
    9000005    2    1    2  501    0 -0.67543705202E+01  0.40327161207E+02 -0.83175040173E+03  0.83276040234E+03  0.30422808319E+01 0.  0.
         13    1    3    3    0    0 -0.37887092427E+01  0.28900752700E+02 -0.60999114080E+03  0.61068715369E+03  0.00000000000E+00 0.  1.
          3    1    3    3  501    0 -0.29656612775E+01  0.11426408508E+02 -0.22175926093E+03  0.22207324866E+03  0.00000000000E+00 0.  1.
         21    1    1    2  502  501  0.67543705202E+01 -0.40327161207E+02 -0.16525286131E+03  0.17023633461E+03  0.00000000000E+00 0.  1.
<mgrwt>
<rscale>  1 0.30000000E+03</rscale>
<asrwt>0</asrwt>
<pdfrwt beam="1">  1        1 0.10897248E-01 0.30000000E+03</pdfrwt>
<pdfrwt beam="2">0</pdfrwt>
<totfact> 0.67137846E+02</totfact>
</mgrwt>
</event>
<event>
 6    1  0.1956957E-002  0.3000000E+03  0.7818608E-02  0.1093470E+00
          1   -1    0    0  502    0  0.00000000000E+00  0.00000000000E+00  0.64748588060E+01  0.64748588060E+01  0.00000000000E+00 0.  1.
         13   -1    0    0    0    0 -0.00000000000E+00 -0.00000000000E+00 -0.10000000000E+04  0.10000000000E+04  0.00000000000E+00 0.  1.
    9000005    2    1    2  501    0 -0.53332862886E+02  0.18453467291E+01 -0.87334018256E+03  0.87497495824E+03  0.32099060507E+01 0.  0.
         13    1    3    3    0    0 -0.23190342658E+02 -0.71432790247E+00 -0.38700214672E+03  0.38769700002E+03  0.00000000000E+00 0.  1.
          3    1    3    3  501    0 -0.30142520228E+02  0.25596746315E+01 -0.48633803584E+03  0.48727795822E+03  0.00000000000E+00 0.  1.
         21    1    1    2  502  501  0.53332862886E+02 -0.18453467291E+01 -0.12018495863E+03  0.13149990057E+03  0.00000000000E+00 0.  1.
<mgrwt>
<rscale>  1 0.30000000E+03</rscale>
<asrwt>0</asrwt>
<pdfrwt beam="1">  1        1 0.23544991E-01 0.30000000E+03</pdfrwt>
<pdfrwt beam="2">0</pdfrwt>
<totfact> 0.23699957E+02</totfact>
</mgrwt>
</event>
<event>
 6    1  0.1956957E-002  0.3000000E+03  0.7818608E-02  0.1093470E+00
          1   -1    0    0  502    0  0.00000000000E+00  0.00000000000E+00  0.24951458572E+01  0.24951458572E+01  0.00000000000E+00 0.  1.
         13   -1    0    0    0    0 -0.00000000000E+00 -0.00000000000E+00 -0.10000000000E+04  0.10000000000E+04  0.00000000000E+00 0.  1.
    9000005    2    1    2  501    0  0.55955331270E+01 -0.34951690560E+02 -0.85219315590E+03  0.85293438794E+03  0.33112679318E+01 0.  0.
         13    1    3    3    0    0 -0.19751363909E-01 -0.24245218461E+01 -0.78489697288E+02  0.78527137199E+02  0.00000000000E+00 0.  1.
          3    1    3    3  501    0  0.56152844909E+01 -0.32527168714E+02 -0.77370345862E+03  0.77440725074E+03  0.00000000000E+00 0.  1.
         21    1    1    2  502  501 -0.55955331270E+01  0.34951690560E+02 -0.14531169824E+03  0.14956075792E+03  0.00000000000E+00 0.  1.
<mgrwt>
<rscale>  1 0.30000000E+03</rscale>
<asrwt>0</asrwt>
<pdfrwt beam="1">  1        1 0.90732768E-02 0.30000000E+03</pdfrwt>
<pdfrwt beam="2">0</pdfrwt>
<totfact> 0.86459967E+02</totfact>
</mgrwt>
</event>
<event>
 6    1  0.1956957E-002  0.3000000E+03  0.7818608E-02  0.1093470E+00
          1   -1    0    0  502    0  0.00000000000E+00  0.00000000000E+00  0.15338966974E+01  0.15338966974E+01  0.00000000000E+00 0.  1.
         13   -1    0    0    0    0 -0.00000000000E+00 -0.00000000000E+00 -0.10000000000E+04  0.10000000000E+04  0.00000000000E+00 0.  1.
    9000005    2    1    2  501    0  0.28331914447E+02  0.17173807999E+02 -0.76565235541E+03  0.76637463521E+03  0.29858139035E+01 0.  0.
         13    1    3    3    0    0  0.22303368140E+01  0.21139651358E+01 -0.58848852483E+02  0.58929030957E+02  0.00000000000E+00 0.  1.
          1    1    3    3  501    0  0.26101577633E+02  0.15059842863E+02 -0.70680350293E+03  0.70744560425E+03  0.00000000000E+00 0.  1.
         21    1    1    2  502  501 -0.28331914447E+02 -0.17173807999E+02 -0.23281374789E+03  0.23515926149E+03  0.00000000000E+00 0.  1.
<mgrwt>
<rscale>  1 0.30000000E+03</rscale>
<asrwt>0</asrwt>
<pdfrwt beam="1">  1        1 0.55778179E-02 0.30000000E+03</pdfrwt>
<pdfrwt beam="2">0</pdfrwt>
<totfact> 0.17058922E+03</totfact>
</mgrwt>
</event>
<event>
 6    1  0.1956957E-002  0.3000000E+03  0.7818608E-02  0.1093470E+00
          1   -1    0    0  502    0  0.00000000000E+00  0.00000000000E+00  0.27790496087E+01  0.27790496087E+01  0.00000000000E+00 0.  1.
         13   -1    0    0    0    0 -0.00000000000E+00 -0.00000000000E+00 -0.10000000000E+04  0.10000000000E+04  0.00000000000E+00 0.  1.
    9000005    2    1    2  501    0 -0.89839885211E+01 -0.31488067311E+02 -0.89143017725E+03  0.89203656402E+03  0.30430580936E+01 0.  0.
         13    1    3    3    0    0 -0.22936492930E+01 -0.13401454578E+02 -0.37633549432E+03  0.37658101930E+03  0.00000000000E+00 0.  1.
          1    1    3    3  501    0 -0.66903392281E+01 -0.18086612733E+02 -0.51509468293E+03  0.51545554472E+03  0.00000000000E+00 0.  1.
         21    1    1    2  502  501  0.89839885211E+01  0.31488067311E+02 -0.10579077314E+03  0.11074248559E+03  0.00000000000E+00 0.  1.
<mgrwt>
<rscale>  1 0.30000000E+03</rscale>
<asrwt>0</asrwt>
<pdfrwt beam="1">  1        1 0.10105656E-01 0.30000000E+03</pdfrwt>
<pdfrwt beam="2">0</pdfrwt>
<totfact> 0.74485413E+02</totfact>
</mgrwt>
</event>
<event>
 6    1  0.1956957E-002  0.3000000E+03  0.7818608E-02  0.1093470E+00
          1   -1    0    0  502    0  0.00000000000E+00  0.00000000000E+00  0.26425785208E+01  0.26425785208E+01  0.00000000000E+00 0.  1.
         13   -1    0    0    0    0 -0.00000000000E+00 -0.00000000000E+00 -0.10000000000E+04  0.10000000000E+04  0.00000000000E+00 0.  1.
    9000005    2    1    2  501    0 -0.29046296110E+02  0.99832656821E+01 -0.90053185217E+03  0.90106234529E+03  0.35185811818E+01 0.  0.
         13    1    3    3    0    0 -0.77100356042E+01  0.24087420074E+01 -0.19476601922E+03  0.19493344743E+03  0.00000000000E+00 0.  1.
          1    1    3    3  501    0 -0.21336260506E+02  0.75745236747E+01 -0.70576583295E+03  0.70612889786E+03  0.00000000000E+00 0.  1.
         21    1    1    2  502  501  0.29046296110E+02 -0.99832656821E+01 -0.96825569310E+02  0.10158023323E+03  0.00000000000E+00 0.  1.
<mgrwt>
<rscale>  1 0.30000000E+03</rscale>
<asrwt>0</asrwt>
<pdfrwt beam="1">  1        1 0.96093967E-02 0.30000000E+03</pdfrwt>
<pdfrwt beam="2">0</pdfrwt>
<totfact> 0.79851609E+02</totfact>
</mgrwt>
</event>
<event>
 6    1  0.1956957E-002  0.3000000E+03  0.7818608E-02  0.1093470E+00
          1   -1    0    0  502    0  0.00000000000E+00  0.00000000000E+00  0.57949610014E+01  0.57949610014E+01  0.00000000000E+00 0.  1.
         13   -1    0    0    0    0 -0.00000000000E+00 -0.00000000000E+00 -0.10000000000E+04  0.10000000000E+04  0.00000000000E+00 0.  1.
    9000005    2    1    2  501    0 -0.17044133310E+02 -0.46242039866E+02 -0.88032609547E+03  0.88170933528E+03  0.29135589631E+01 0.  0.
         13    1    3    3    0    0 -0.53595503713E+01 -0.16671394957E+02 -0.33411541803E+03  0.33457401686E+03  0.00000000000E+00 0.  1.
          1    1    3    3  501    0 -0.11684582938E+02 -0.29570644909E+02 -0.54621067743E+03  0.54713531842E+03  0.00000000000E+00 0.  1.
         21    1    1    2  502  501  0.17044133310E+02  0.46242039866E+02 -0.11387894353E+03  0.12408562572E+03  0.00000000000E+00 0.  1.
<mgrwt>
<rscale>  1 0.30000000E+03</rscale>
<asrwt>0</asrwt>
<pdfrwt beam="1">  1        1 0.21072630E-01 0.30000000E+03</pdfrwt>
<pdfrwt beam="2">0</pdfrwt>
<totfact> 0.27458816E+02</totfact>
</mgrwt>
</event>
<event>
 6    1  0.1956957E-002  0.3000000E+03  0.7818608E-02  0.1093470E+00
          1   -1    0    0  502    0  0.00000000000E+00  0.00000000000E+00  0.42662867433E+01  0.42662867433E+01  0.00000000000E+00 0.  1.
         13   -1    0    0    0    0 -0.00000000000E+00 -0.00000000000E+00 -0.10000000000E+04  0.10000000000E+04  0.00000000000E+00 0.  1.
    9000005    2    1    2  501    0 -0.38100485383E+02  0.19089092077E+02 -0.87828163984E+03  0.87932217935E+03  0.35799150158E+01 0.  0.
         13    1    3    3    0    0 -0.29556884043E+02  0.13221878265E+02 -0.67703531266E+03  0.67780914869E+03  0.00000000000E+00 0.  1.
          3    1    3    3  501    0 -0.85436013400E+01  0.58672138125E+01 -0.20124632718E+03  0.20151303066E+03  0.00000000000E+00 0.  1.
         21    1    1    2  502  501  0.38100485383E+02 -0.19089092077E+02 -0.11745207342E+03  0.12494410739E+03  0.00000000000E+00 0.  1.
<mgrwt>
<rscale>  1 0.30000000E+03</rscale>
<asrwt>0</asrwt>
<pdfrwt beam="1">  1        1 0.15513803E-01 0.30000000E+03</pdfrwt>
<pdfrwt beam="2">0</pdfrwt>
<totfact> 0.41443022E+02</totfact>
</mgrwt>
</event>
<event>
 6    1  0.1956957E-002  0.3000000E+03  0.7818608E-02  0.1093470E+00
          1   -1    0    0  502    0  0.00000000000E+00  0.00000000000E+00  0.76438207563E+01  0.76438207563E+01  0.00000000000E+00 0.  1.
         13   -1    0    0    0    0 -0.00000000000E+00 -0.00000000000E+00 -0.10000000000E+04  0.10000000000E+04  0.00000000000E+00 0.  1.
    9000005    2    1    2  501    0 -0.27334623132E+02 -0.23588441357E+02 -0.95500153734E+03  0.95569225236E+03  0.40185453707E+01 0.  0.
         13    1    3    3    0    0 -0.15134634008E+02 -0.10504690041E+02 -0.49873874467E+03  0.49907889265E+03  0.00000000000E+00 0.  1.
          3    1    3    3  501    0 -0.12199989124E+02 -0.13083751315E+02 -0.45626279267E+03  0.45661335970E+03  0.00000000000E+00 0.  1.
         21    1    1    2  502  501  0.27334623132E+02  0.23588441357E+02 -0.37354641905E+02  0.51951568400E+02  0.00000000000E+00 0.  1.
<mgrwt>
<rscale>  1 0.30000000E+03</rscale>
<asrwt>0</asrwt>
<pdfrwt beam="1">  1        1 0.27795770E-01 0.30000000E+03</pdfrwt>
<pdfrwt beam="2">0</pdfrwt>
<totfact> 0.19037043E+02</totfact>
</mgrwt>
</event>
<event>
 6    1  0.1956957E-002  0.3000000E+03  0.7818608E-02  0.1093470E+00
          3   -1    0    0  502    0  0.00000000000E+00  0.00000000000E+00  0.15011157956E+01  0.15011157956E+01  0.00000000000E+00 0.  1.
         13   -1    0    0    0    0 -0.00000000000E+00 -0.00000000000E+00 -0.10000000000E+04  0.10000000000E+04  0.00000000000E+00 0.  1.
    9000005    2    1    2  501    0 -0.33465383058E+02 -0.95213843833E+01 -0.28568150994E+03  0.28783508908E+03  0.49522484610E+01 0.  0.
         13    1    3    3    0    0 -0.24171252547E+02 -0.84277994723E+01 -0.22166322385E+03  0.22313642030E+03  0.00000000000E+00 0.  1.
          3    1    3    3  501    0 -0.92941305103E+01 -0.10935849109E+01 -0.64018286082E+02  0.64698668787E+02  0.00000000000E+00 0.  1.
         21    1    1    2  502  501  0.33465383058E+02  0.95213843833E+01 -0.71281737427E+03  0.71366602671E+03  0.00000000000E+00 0.  1.
<mgrwt>
<rscale>  1 0.30000000E+03</rscale>
<asrwt>0</asrwt>
<pdfrwt beam="1">  1        3 0.54586144E-02 0.30000000E+03</pdfrwt>
<pdfrwt beam="2">0</pdfrwt>
<totfact> 0.86385924E+02</totfact>
</mgrwt>
</event>
<event>
 6    1  0.1956957E-002  0.3000000E+03  0.7818608E-02  0.1093470E+00
          1   -1    0    0  502    0  0.00000000000E+00  0.00000000000E+00  0.12897681578E+01  0.12897681578E+01  0.00000000000E+00 0.  1.
         13   -1    0    0    0    0 -0.00000000000E+00 -0.00000000000E+00 -0.10000000000E+04  0.10000000000E+04  0.00000000000E+00 0.  1.
    9000005    2    1    2  501    0  0.12752984663E+02  0.29380330884E+02 -0.72439655120E+03  0.72511258255E+03  0.34715308949E+01 0.  0.
         13    1    3    3    0    0  0.82790421584E+01  0.16292823832E+02 -0.38239607577E+03  0.38283254487E+03  0.00000000000E+00 0.  1.
          1    1    3    3  501    0  0.44739425043E+01  0.13087507052E+02 -0.34200047543E+03  0.34228003768E+03  0.00000000000E+00 0.  1.
         21    1    1    2  502  501 -0.12752984663E+02 -0.29380330884E+02 -0.27431368064E+03  0.27617718560E+03  0.00000000000E+00 0.  1.
<mgrwt>
<rscale>  1 0.30000000E+03</rscale>
<asrwt>0</asrwt>
<pdfrwt beam="1">  1        1 0.46900759E-02 0.30000000E+03</pdfrwt>
<pdfrwt beam="2">0</pdfrwt>
<totfact> 0.21764330E+03</totfact>
</mgrwt>
</event>
<event>
 6    1  0.1956957E-002  0.3000000E+03  0.7818608E-02  0.1093470E+00
          1   -1    0    0  502    0  0.00000000000E+00  0.00000000000E+00  0.64725283163E+01  0.64725283163E+01  0.00000000000E+00 0.  1.
         13   -1    0    0    0    0 -0.00000000000E+00 -0.00000000000E+00 -0.10000000000E+04  0.10000000000E+04  0.00000000000E+00 0.  1.
    9000005    2    1    2  501    0 -0.63023889362E+02  0.35667771267E+02 -0.71293623242E+03  0.71668701438E+03  0.10862989544E+02 0.  0.
         13    1    3    3    0    0 -0.40505290325E+02  0.27378144045E+02 -0.50957490818E+03  0.51191486437E+03  0.00000000000E+00 0.  1.
          3    1    3    3  501    0 -0.22518599037E+02  0.82896272216E+01 -0.20336132424E+03  0.20477215001E+03  0.00000000000E+00 0.  1.
         21    1    1    2  502  501  0.63023889362E+02 -0.35667771267E+02 -0.28059123926E+03  0.28978551394E+03  0.00000000000E+00 0.  1.
<mgrwt>
<rscale>  1 0.30000000E+03</rscale>
<asrwt>0</asrwt>
<pdfrwt beam="1">  1        1 0.23536516E-01 0.30000000E+03</pdfrwt>
<pdfrwt beam="2">0</pdfrwt>
<totfact> 0.23711250E+02</totfact>
</mgrwt>
</event>
<event>
 6    1  0.1956957E-002  0.3000000E+03  0.7818608E-02  0.1093470E+00
          3   -1    0    0  502    0  0.00000000000E+00  0.00000000000E+00  0.36835557471E+01  0.36835557471E+01  0.00000000000E+00 0.  1.
         13   -1    0    0    0    0 -0.00000000000E+00 -0.00000000000E+00 -0.10000000000E+04  0.10000000000E+04  0.00000000000E+00 0.  1.
    9000005    2    1    2  501    0 -0.31061541413E+02 -0.22206881197E+02 -0.88821461098E+03  0.88903639580E+03  0.15978010534E+01 0.  0.
         13    1    3    3    0    0 -0.26515459207E+02 -0.18329953322E+02 -0.75563878073E+03  0.75632600360E+03  0.00000000000E+00 0.  1.
          3    1    3    3  501    0 -0.45460822054E+01 -0.38769278746E+01 -0.13257583024E+03  0.13271039220E+03  0.00000000000E+00 0.  1.
         21    1    1    2  502  501  0.31061541413E+02  0.22206881197E+02 -0.10810183328E+03  0.11464715995E+03  0.00000000000E+00 0.  1.
<mgrwt>
<rscale>  1 0.30000000E+03</rscale>
<asrwt>0</asrwt>
<pdfrwt beam="1">  1        3 0.13394776E-01 0.30000000E+03</pdfrwt>
<pdfrwt beam="2">0</pdfrwt>
<totfact> 0.20218391E+02</totfact>
</mgrwt>
</event>
<event>
 6    1  0.1956957E-002  0.3000000E+03  0.7818608E-02  0.1093470E+00
          1   -1    0    0  502    0  0.00000000000E+00  0.00000000000E+00  0.19336158429E+01  0.19336158429E+01  0.00000000000E+00 0.  1.
         13   -1    0    0    0    0 -0.00000000000E+00 -0.00000000000E+00 -0.10000000000E+04  0.10000000000E+04  0.00000000000E+00 0.  1.
    9000005    2    1    2  501    0 -0.11348391246E+02  0.40018598075E+02 -0.65992463612E+03  0.66124297033E+03  0.33861887355E+01 0.  0.
         13    1    3    3    0    0 -0.10030122624E+02  0.30302254800E+02 -0.49871953594E+03  0.49973993790E+03  0.00000000000E+00 0.  1.
          3    1    3    3  501    0 -0.13182686225E+01  0.97163432752E+01 -0.16120510018E+03  0.16150303243E+03  0.00000000000E+00 0.  1.
         21    1    1    2  502  501  0.11348391246E+02 -0.40018598075E+02 -0.33814174804E+03  0.34069064551E+03  0.00000000000E+00 0.  1.
<mgrwt>
<rscale>  1 0.30000000E+03</rscale>
<asrwt>0</asrwt>
<pdfrwt beam="1">  1        1 0.70313452E-02 0.30000000E+03</pdfrwt>
<pdfrwt beam="2">0</pdfrwt>
<totfact> 0.12330840E+03</totfact>
</mgrwt>
</event>
<event>
 6    1  0.1956957E-002  0.3000000E+03  0.7818608E-02  0.1093470E+00
          1   -1    0    0  502    0  0.00000000000E+00  0.00000000000E+00  0.34312300337E+01  0.34312300337E+01  0.00000000000E+00 0.  1.
         13   -1    0    0    0    0 -0.00000000000E+00 -0.00000000000E+00 -0.10000000000E+04  0.10000000000E+04  0.00000000000E+00 0.  1.
    9000005    2    1    2  501    0 -0.22530356123E+02 -0.27946276709E+02 -0.89461797448E+03  0.89534526412E+03  0.36346080896E+01 0.  0.
         13    1    3    3    0    0 -0.18494533918E+02 -0.21052236920E+02 -0.71838851551E+03  0.71893483966E+03  0.00000000000E+00 0.  1.
          1    1    3    3  501    0 -0.40358222049E+01 -0.68940397887E+01 -0.17622945897E+03  0.17641042445E+03  0.00000000000E+00 0.  1.
         21    1    1    2  502  501  0.22530356123E+02  0.27946276709E+02 -0.10195079548E+03  0.10808596592E+03  0.00000000000E+00 0.  1.
<mgrwt>
<rscale>  1 0.30000000E+03</rscale>
<asrwt>0</asrwt>
<pdfrwt beam="1">  1        1 0.12477226E-01 0.30000000E+03</pdfrwt>
<pdfrwt beam="2">0</pdfrwt>
<totfact> 0.55757124E+02</totfact>
</mgrwt>
</event>
<event>
 6    1  0.1956957E-002  0.3000000E+03  0.7818608E-02  0.1093470E+00
          3   -1    0    0  502    0  0.00000000000E+00  0.00000000000E+00  0.51741059872E+01  0.51741059872E+01  0.00000000000E+00 0.  1.
         13   -1    0    0    0    0 -0.00000000000E+00 -0.00000000000E+00 -0.10000000000E+04  0.10000000000E+04  0.00000000000E+00 0.  1.
    9000005    2    1    2  501    0  0.16550166327E+02  0.53810638235E+02 -0.81004092212E+03  0.81200325252E+03  0.36733904481E+01 0.  0.
         13    1    3    3    0    0  0.33960674132E+01  0.98870146042E+01 -0.13142203897E+03  0.13183716722E+03  0.00000000000E+00 0.  1.
          1    1    3    3  501    0  0.13154098914E+02  0.43923623631E+02 -0.67861888315E+03  0.68016608530E+03  0.00000000000E+00 0.  1.
         21    1    1    2  502  501 -0.16550166327E+02 -0.53810638235E+02 -0.18478497189E+03  0.19317085347E+03  0.00000000000E+00 0.  1.
<mgrwt>
<rscale>  1 0.30000000E+03</rscale>
<asrwt>0</asrwt>
<pdfrwt beam="1">  1        3 0.18814971E-01 0.30000000E+03</pdfrwt>
<pdfrwt beam="2">0</pdfrwt>
<totfact> 0.11161147E+02</totfact>
</mgrwt>
</event>
<event>
 6    1  0.1956957E-002  0.3000000E+03  0.7818608E-02  0.1093470E+00
          1   -1    0    0  502    0  0.00000000000E+00  0.00000000000E+00  0.14744835810E+01  0.14744835810E+01  0.00000000000E+00 0.  1.
         13   -1    0    0    0    0 -0.00000000000E+00 -0.00000000000E+00 -0.10000000000E+04  0.10000000000E+04  0.00000000000E+00 0.  1.
    9000005    2    1    2  501    0  0.33471336172E+02 -0.11047210075E+02 -0.69699814498E+03  0.69789397215E+03  0.26853412878E+01 0.  0.
         13    1    3    3    0    0  0.84038641729E+01 -0.38874446197E+01 -0.17251865242E+03  0.17276696036E+03  0.00000000000E+00 0.  1.
          1    1    3    3  501    0  0.25067472000E+02 -0.71597654551E+01 -0.52447949256E+03  0.52512701179E+03  0.00000000000E+00 0.  1.
         21    1    1    2  502  501 -0.33471336172E+02  0.11047210075E+02 -0.30152737144E+03  0.30358051143E+03  0.00000000000E+00 0.  1.
<mgrwt>
<rscale>  1 0.30000000E+03</rscale>
<asrwt>0</asrwt>
<pdfrwt beam="1">  1        1 0.53617698E-02 0.30000000E+03</pdfrwt>
<pdfrwt beam="2">0</pdfrwt>
<totfact> 0.18031991E+03</totfact>
</mgrwt>
</event>
<event>
 6    1  0.1956957E-002  0.3000000E+03  0.7818608E-02  0.1093470E+00
          1   -1    0    0  502    0  0.00000000000E+00  0.00000000000E+00  0.54627390030E+02  0.54627390030E+02  0.00000000000E+00 0.  1.
         13   -1    0    0    0    0 -0.00000000000E+00 -0.00000000000E+00 -0.10000000000E+04  0.10000000000E+04  0.00000000000E+00 0.  1.
    9000005    2    1    2  501    0 -0.50931729062E+02  0.38209225592E+02 -0.98005269934E+03  0.98212432427E+03  0.33028626133E+01 0.  0.
         13    1    3    3    0    0 -0.44955838917E+02  0.33405000725E+02 -0.87720347628E+03  0.87898968158E+03  0.00000000000E+00 0.  1.
          1    1    3    3  501    0 -0.59758901447E+01  0.48042248673E+01 -0.10284922306E+03  0.10313464269E+03  0.00000000000E+00 0.  1.
         21    1    1    2  502  501  0.50931729062E+02 -0.38209225592E+02  0.34680089369E+02  0.72503065757E+02  0.00000000000E+00 0.  1.
<mgrwt>
<rscale>  1 0.30000000E+03</rscale>
<asrwt>0</asrwt>
<pdfrwt beam="1">  1        1 0.19864547E+00 0.30000000E+03</pdfrwt>
<pdfrwt beam="2">0</pdfrwt>
<totfact> 0.10396482E+01</totfact>
</mgrwt>
</event>
<event>
 6    1  0.1956957E-002  0.3000000E+03  0.7818608E-02  0.1093470E+00
          1   -1    0    0  502    0  0.00000000000E+00  0.00000000000E+00  0.11010253324E+01  0.11010253324E+01  0.00000000000E+00 0.  1.
         13   -1    0    0    0    0 -0.00000000000E+00 -0.00000000000E+00 -0.10000000000E+04  0.10000000000E+04  0.00000000000E+00 0.  1.
    9000005    2    1    2  501    0  0.22278975067E+02 -0.21143872042E+02 -0.31460161733E+03  0.31611468291E+03  0.33013732845E+01 0.  0.
         13    1    3    3    0    0  0.21360249343E+02 -0.20953091470E+02 -0.30222968175E+03  0.30370721563E+03  0.00000000000E+00 0.  1.
          1    1    3    3  501    0  0.91872572415E+00 -0.19078057179E+00 -0.12371935584E+02  0.12407467279E+02  0.00000000000E+00 0.  1.
         21    1    1    2  502  501 -0.22278975067E+02  0.21143872042E+02 -0.68429735734E+03  0.68498634243E+03  0.00000000000E+00 0.  1.
<mgrwt>
<rscale>  1 0.30000000E+03</rscale>
<asrwt>0</asrwt>
<pdfrwt beam="1">  1        1 0.40037369E-02 0.30000000E+03</pdfrwt>
<pdfrwt beam="2">0</pdfrwt>
<totfact> 0.27193750E+03</totfact>
</mgrwt>
</event>
<event>
 6    1  0.1956957E-002  0.3000000E+03  0.7818608E-02  0.1093470E+00
          1   -1    0    0  502    0  0.00000000000E+00  0.00000000000E+00  0.12995835082E+01  0.12995835082E+01  0.00000000000E+00 0.  1.
         13   -1    0    0    0    0 -0.00000000000E+00 -0.00000000000E+00 -0.10000000000E+04  0.10000000000E+04  0.00000000000E+00 0.  1.
    9000005    2    1    2  501    0 -0.33092147297E+02  0.13157532028E+02 -0.57205898402E+03  0.57317445838E+03  0.30442869258E+01 0.  0.
         13    1    3    3    0    0 -0.29929551635E+02  0.11059470703E+02 -0.51902886754E+03  0.52000870694E+03  0.00000000000E+00 0.  1.
          3    1    3    3  501    0 -0.31625956618E+01  0.20980613253E+01 -0.53030116481E+02  0.53165751444E+02  0.00000000000E+00 0.  1.
         21    1    1    2  502  501  0.33092147297E+02 -0.13157532028E+02 -0.42664143247E+03  0.42812512513E+03  0.00000000000E+00 0.  1.
<mgrwt>
<rscale>  1 0.30000000E+03</rscale>
<asrwt>0</asrwt>
<pdfrwt beam="1">  1        1 0.47257682E-02 0.30000000E+03</pdfrwt>
<pdfrwt beam="2">0</pdfrwt>
<totfact> 0.21533473E+03</totfact>
</mgrwt>
</event>
<event>
 6    1  0.1956957E-002  0.3000000E+03  0.7818608E-02  0.1093470E+00
          1   -1    0    0  502    0  0.00000000000E+00  0.00000000000E+00  0.46458805602E+01  0.46458805602E+01  0.00000000000E+00 0.  1.
         13   -1    0    0    0    0 -0.00000000000E+00 -0.00000000000E+00 -0.10000000000E+04  0.10000000000E+04  0.00000000000E+00 0.  1.
    9000005    2    1    2  501    0 -0.28236258319E+02 -0.11041767255E+02 -0.94754543144E+03  0.94803424257E+03  0.27154242319E+01 0.  0.
         13    1    3    3    0    0 -0.22784359831E+01 -0.15423941662E+01 -0.10213160833E+03  0.10216866285E+03  0.00000000000E+00 0.  1.
          3    1    3    3  501    0 -0.25957822336E+02 -0.94993730891E+01 -0.84541382312E+03  0.84586557972E+03  0.00000000000E+00 0.  1.
         21    1    1    2  502  501  0.28236258319E+02  0.11041767255E+02 -0.47808687997E+02  0.56611637990E+02  0.00000000000E+00 0.  1.
<mgrwt>
<rscale>  1 0.30000000E+03</rscale>
<asrwt>0</asrwt>
<pdfrwt beam="1">  1        1 0.16894147E-01 0.30000000E+03</pdfrwt>
<pdfrwt beam="2">0</pdfrwt>
<totfact> 0.36930757E+02</totfact>
</mgrwt>
</event>
<event>
 6    1  0.1956957E-002  0.3000000E+03  0.7818608E-02  0.1093470E+00
          1   -1    0    0  502    0  0.00000000000E+00  0.00000000000E+00  0.29053580615E+01  0.29053580615E+01  0.00000000000E+00 0.  1.
         13   -1    0    0    0    0 -0.00000000000E+00 -0.00000000000E+00 -0.10000000000E+04  0.10000000000E+04  0.00000000000E+00 0.  1.
    9000005    2    1    2  501    0 -0.34930738396E+02 -0.84113268494E+01 -0.12583409253E+03  0.13090429622E+03  0.32877075120E+01 0.  0.
         13    1    3    3    0    0 -0.28769042935E+02 -0.77286451260E+01 -0.10043891153E+03  0.10476337498E+03  0.00000000000E+00 0.  1.
          3    1    3    3  501    0 -0.61616954616E+01 -0.68268172339E+00 -0.25395181000E+02  0.26140921241E+02  0.00000000000E+00 0.  1.
         21    1    1    2  502  501  0.34930738396E+02  0.84113268494E+01 -0.87126054940E+03  0.87200106184E+03  0.00000000000E+00 0.  1.
<mgrwt>
<rscale>  1 0.30000000E+03</rscale>
<asrwt>0</asrwt>
<pdfrwt beam="1">  1        1 0.10564961E-01 0.30000000E+03</pdfrwt>
<pdfrwt beam="2">0</pdfrwt>
<totfact> 0.70059859E+02</totfact>
</mgrwt>
</event>
<event>
 6    1  0.1956957E-002  0.3000000E+03  0.7818608E-02  0.1093470E+00
          1   -1    0    0  502    0  0.00000000000E+00  0.00000000000E+00  0.10150151338E+01  0.10150151338E+01  0.00000000000E+00 0.  1.
         13   -1    0    0    0    0 -0.00000000000E+00 -0.00000000000E+00 -0.10000000000E+04  0.10000000000E+04  0.00000000000E+00 0.  1.
    9000005    2    1    2  501    0 -0.61361577828E+01  0.31067257395E+02 -0.54502116168E+03  0.54594800943E+03  0.28871113550E+01 0.  0.
         13    1    3    3    0    0 -0.84605270277E+00  0.11409772184E+02 -0.19798388917E+03  0.19831419283E+03  0.00000000000E+00 0.  1.
          1    1    3    3  501    0 -0.52901050800E+01  0.19657485211E+02 -0.34703727251E+03  0.34763381660E+03  0.00000000000E+00 0.  1.
         21    1    1    2  502  501  0.61361577828E+01 -0.31067257395E+02 -0.45396382319E+03  0.45506700570E+03  0.00000000000E+00 0.  1.
<mgrwt>
<rscale>  1 0.30000000E+03</rscale>
<asrwt>0</asrwt>
<pdfrwt beam="1">  1        1 0.36909719E-02 0.30000000E+03</pdfrwt>
<pdfrwt beam="2">0</pdfrwt>
<totfact> 0.30492576E+03</totfact>
</mgrwt>
</event>
<event>
 6    1  0.1956957E-002  0.3000000E+03  0.7818608E-02  0.1093470E+00
          1   -1    0    0  502    0  0.00000000000E+00  0.00000000000E+00  0.88227547138E+01  0.88227547138E+01  0.00000000000E+00 0.  1.
         13   -1    0    0    0    0 -0.00000000000E+00 -0.00000000000E+00 -0.10000000000E+04  0.10000000000E+04  0.00000000000E+00 0.  1.
    9000005    2    1    2  501    0  0.65206493130E+02  0.48657357741E+02 -0.74755151484E+03  0.75197080953E+03  0.27213670997E+01 0.  0.
         13    1    3    3    0    0  0.32418059365E+02  0.24477373024E+02 -0.38561810572E+03  0.38775171930E+03  0.00000000000E+00 0.  1.
          1    1    3    3  501    0  0.32788433765E+02  0.24179984717E+02 -0.36193340912E+03  0.36421909023E+03  0.00000000000E+00 0.  1.
         21    1    1    2  502  501 -0.65206493130E+02 -0.48657357741E+02 -0.24362573045E+03  0.25685194519E+03  0.00000000000E+00 0.  1.
<mgrwt>
<rscale>  1 0.30000000E+03</rscale>
<asrwt>0</asrwt>
<pdfrwt beam="1">  1        1 0.32082812E-01 0.30000000E+03</pdfrwt>
<pdfrwt beam="2">0</pdfrwt>
<totfact> 0.15770711E+02</totfact>
</mgrwt>
</event>
<event>
 6    1  0.1956957E-002  0.3000000E+03  0.7818608E-02  0.1093470E+00
          3   -1    0    0  502    0  0.00000000000E+00  0.00000000000E+00  0.42508484709E+01  0.42508484709E+01  0.00000000000E+00 0.  1.
         13   -1    0    0    0    0 -0.00000000000E+00 -0.00000000000E+00 -0.10000000000E+04  0.10000000000E+04  0.00000000000E+00 0.  1.
    9000005    2    1    2  501    0 -0.46742553055E+02  0.25213621453E+01 -0.84724169070E+03  0.84854057439E+03  0.33764461500E+01 0.  0.
         13    1    3    3    0    0 -0.39449077614E+02  0.33449241120E+01 -0.71730789773E+03  0.71839963696E+03  0.00000000000E+00 0.  1.
          1    1    3    3  501    0 -0.72934754416E+01 -0.82356196672E+00 -0.12993379297E+03  0.13014093743E+03  0.00000000000E+00 0.  1.
         21    1    1    2  502  501  0.46742553055E+02 -0.25213621453E+01 -0.14850746083E+03  0.15571027408E+03  0.00000000000E+00 0.  1.
<mgrwt>
<rscale>  1 0.30000000E+03</rscale>
<asrwt>0</asrwt>
<pdfrwt beam="1">  1        3 0.15457663E-01 0.30000000E+03</pdfrwt>
<pdfrwt beam="2">0</pdfrwt>
<totfact> 0.15797771E+02</totfact>
</mgrwt>
</event>
<event>
 6    1  0.1956957E-002  0.3000000E+03  0.7818608E-02  0.1093470E+00
          3   -1    0    0  502    0  0.00000000000E+00  0.00000000000E+00  0.11639498620E+01  0.11639498620E+01  0.00000000000E+00 0.  1.
         13   -1    0    0    0    0 -0.00000000000E+00 -0.00000000000E+00 -0.10000000000E+04  0.10000000000E+04  0.00000000000E+00 0.  1.
    9000005    2    1    2  501    0  0.33873068532E+02 -0.19124013374E+01 -0.52861902790E+03  0.52972456876E+03  0.43589035522E+01 0.  0.
         13    1    3    3    0    0  0.24131203666E+02 -0.22935052211E+01 -0.34861194022E+03  0.34945365933E+03  0.00000000000E+00 0.  1.
          1    1    3    3  501    0  0.97418648666E+01  0.38110388373E+00 -0.18000708768E+03  0.18027090943E+03  0.00000000000E+00 0.  1.
         21    1    1    2  502  501 -0.33873068532E+02  0.19124013374E+01 -0.47021702224E+03  0.47143938110E+03  0.00000000000E+00 0.  1.
<mgrwt>
<rscale>  1 0.30000000E+03</rscale>
<asrwt>0</asrwt>
<pdfrwt beam="1">  1        3 0.42325539E-02 0.30000000E+03</pdfrwt>
<pdfrwt beam="2">0</pdfrwt>
<totfact> 0.12792410E+03</totfact>
</mgrwt>
</event>
<event>
 6    1  0.1956957E-002  0.3000000E+03  0.7818608E-02  0.1093470E+00
          3   -1    0    0  502    0  0.00000000000E+00  0.00000000000E+00  0.26848989624E+01  0.26848989624E+01  0.00000000000E+00 0.  1.
         13   -1    0    0    0    0 -0.00000000000E+00 -0.00000000000E+00 -0.10000000000E+04  0.10000000000E+04  0.00000000000E+00 0.  1.
    9000005    2    1    2  501    0 -0.27597086582E+01  0.31441332736E+02 -0.89550582424E+03  0.89609548936E+03  0.77634668732E+01 0.  0.
         13    1    3    3    0    0 -0.44664654966E+01  0.26729324292E+02 -0.69751073290E+03  0.69803698226E+03  0.00000000000E+00 0.  1.
          1    1    3    3  501    0  0.17067568384E+01  0.47120084449E+01 -0.19799509134E+03  0.19805850710E+03  0.00000000000E+00 0.  1.
         21    1    1    2  502  501  0.27597086582E+01 -0.31441332736E+02 -0.10180927680E+03  0.10658940960E+03  0.00000000000E+00 0.  1.
<mgrwt>
<rscale>  1 0.30000000E+03</rscale>
<asrwt>0</asrwt>
<pdfrwt beam="1">  1        3 0.97632895E-02 0.30000000E+03</pdfrwt>
<pdfrwt beam="2">0</pdfrwt>
<totfact> 0.34350435E+02</totfact>
</mgrwt>
</event>
<event>
 6    1  0.1956957E-002  0.3000000E+03  0.7818608E-02  0.1093470E+00
          3   -1    0    0  502    0  0.00000000000E+00  0.00000000000E+00  0.10468006933E+01  0.10468006933E+01  0.00000000000E+00 0.  1.
         13   -1    0    0    0    0 -0.00000000000E+00 -0.00000000000E+00 -0.10000000000E+04  0.10000000000E+04  0.00000000000E+00 0.  1.
    9000005    2    1    2  501    0  0.30512532433E+02  0.98477610351E+01 -0.55755250745E+03  0.55848317385E+03  0.32655592472E+01 0.  0.
         13    1    3    3    0    0  0.30206161319E+02  0.96866740375E+01 -0.55518626248E+03  0.55609174592E+03  0.00000000000E+00 0.  1.
          1    1    3    3  501    0  0.30637111392E+00  0.16108699767E+00 -0.23662449700E+01  0.23914279287E+01  0.00000000000E+00 0.  1.
         21    1    1    2  502  501 -0.30512532433E+02 -0.98477610351E+01 -0.44140069186E+03  0.44256362685E+03  0.00000000000E+00 0.  1.
<mgrwt>
<rscale>  1 0.30000000E+03</rscale>
<asrwt>0</asrwt>
<pdfrwt beam="1">  1        3 0.38065560E-02 0.30000000E+03</pdfrwt>
<pdfrwt beam="2">0</pdfrwt>
<totfact> 0.15057094E+03</totfact>
</mgrwt>
</event>
<event>
 6    1  0.1956957E-002  0.3000000E+03  0.7818608E-02  0.1093470E+00
          1   -1    0    0  502    0  0.00000000000E+00  0.00000000000E+00  0.14076939143E+01  0.14076939143E+01  0.00000000000E+00 0.  1.
         13   -1    0    0    0    0 -0.00000000000E+00 -0.00000000000E+00 -0.10000000000E+04  0.10000000000E+04  0.00000000000E+00 0.  1.
    9000005    2    1    2  501    0  0.13324429812E+02 -0.34969852099E+02 -0.48105906576E+03  0.48252323102E+03  0.32268782825E+01 0.  0.
         13    1    3    3    0    0  0.79930164230E+01 -0.21493288520E+02 -0.27431182917E+03  0.27526864948E+03  0.00000000000E+00 0.  1.
          3    1    3    3  501    0  0.53314133893E+01 -0.13476563579E+02 -0.20674723659E+03  0.20725458155E+03  0.00000000000E+00 0.  1.
         21    1    1    2  502  501 -0.13324429812E+02  0.34969852099E+02 -0.51753324033E+03  0.51888446289E+03  0.00000000000E+00 0.  1.
<mgrwt>
<rscale>  1 0.30000000E+03</rscale>
<asrwt>0</asrwt>
<pdfrwt beam="1">  1        1 0.51188978E-02 0.30000000E+03</pdfrwt>
<pdfrwt beam="2">0</pdfrwt>
<totfact> 0.19245353E+03</totfact>
</mgrwt>
</event>
<event>
 6    1  0.1956957E-002  0.3000000E+03  0.7818608E-02  0.1093470E+00
          1   -1    0    0  502    0  0.00000000000E+00  0.00000000000E+00  0.81483088060E+01  0.81483088060E+01  0.00000000000E+00 0.  1.
         13   -1    0    0    0    0 -0.00000000000E+00 -0.00000000000E+00 -0.10000000000E+04  0.10000000000E+04  0.00000000000E+00 0.  1.
    9000005    2    1    2  501    0 -0.26772114253E+02 -0.19676062803E+02 -0.96460751093E+03  0.96518159021E+03  0.19895680574E+01 0.  0.
         13    1    3    3    0    0 -0.73031238587E+01 -0.52902026261E+01 -0.28819858139E+03  0.28833963338E+03  0.00000000000E+00 0.  1.
          3    1    3    3  501    0 -0.19468990394E+02 -0.14385860177E+02 -0.67640892954E+03  0.67684195683E+03  0.00000000000E+00 0.  1.
         21    1    1    2  502  501  0.26772114253E+02  0.19676062803E+02 -0.27244180264E+02  0.42966718600E+02  0.00000000000E+00 0.  1.
<mgrwt>
<rscale>  1 0.30000000E+03</rscale>
<asrwt>0</asrwt>
<pdfrwt beam="1">  1        1 0.29630276E-01 0.30000000E+03</pdfrwt>
<pdfrwt beam="2">0</pdfrwt>
<totfact> 0.17504076E+02</totfact>
</mgrwt>
</event>
<event>
 6    1  0.1956957E-002  0.3000000E+03  0.7818608E-02  0.1093470E+00
          1   -1    0    0  502    0  0.00000000000E+00  0.00000000000E+00  0.27226278732E+01  0.27226278732E+01  0.00000000000E+00 0.  1.
         13   -1    0    0    0    0 -0.00000000000E+00 -0.00000000000E+00 -0.10000000000E+04  0.10000000000E+04  0.00000000000E+00 0.  1.
    9000005    2    1    2  501    0  0.15193773490E+02 -0.49321236472E+02 -0.56794926414E+03  0.57030378066E+03  0.40743680361E+01 0.  0.
         13    1    3    3    0    0  0.86259203861E+01 -0.22231482197E+02 -0.27416426869E+03  0.27519936688E+03  0.00000000000E+00 0.  1.
          3    1    3    3  501    0  0.65678531040E+01 -0.27089754275E+02 -0.29378499545E+03  0.29510441378E+03  0.00000000000E+00 0.  1.
         21    1    1    2  502  501 -0.15193773490E+02  0.49321236472E+02 -0.42932810798E+03  0.43241884721E+03  0.00000000000E+00 0.  1.
<mgrwt>
<rscale>  1 0.30000000E+03</rscale>
<asrwt>0</asrwt>
<pdfrwt beam="1">  1        1 0.99004859E-02 0.30000000E+03</pdfrwt>
<pdfrwt beam="2">0</pdfrwt>
<totfact> 0.76624533E+02</totfact>
</mgrwt>
</event>
<event>
 6    1  0.1956957E-002  0.3000000E+03  0.7818608E-02  0.1093470E+00
          1   -1    0    0  502    0  0.00000000000E+00  0.00000000000E+00  0.16203907424E+02  0.16203907424E+02  0.00000000000E+00 0.  1.
         13   -1    0    0    0    0 -0.00000000000E+00 -0.00000000000E+00 -0.10000000000E+04  0.10000000000E+04  0.00000000000E+00 0.  1.
    9000005    2    1    2  501    0  0.37826197861E+01  0.30063146422E+02 -0.98539034611E+03  0.98586181406E+03  0.33587555152E+01 0.  0.
         13    1    3    3    0    0  0.15820289862E+01  0.22066371311E+02 -0.74516901826E+03  0.74549734630E+03  0.00000000000E+00 0.  1.
          3    1    3    3  501    0  0.22005907999E+01  0.79967751103E+01 -0.24022132785E+03  0.24036446777E+03  0.00000000000E+00 0.  1.
         21    1    1    2  502  501 -0.37826197861E+01 -0.30063146422E+02  0.15942535327E+01  0.30342093361E+02  0.00000000000E+00 0.  1.
<mgrwt>
<rscale>  1 0.30000000E+03</rscale>
<asrwt>0</asrwt>
<pdfrwt beam="1">  1        1 0.58923424E-01 0.30000000E+03</pdfrwt>
<pdfrwt beam="2">0</pdfrwt>
<totfact> 0.71032090E+01</totfact>
</mgrwt>
</event>
<event>
 6    1  0.1956957E-002  0.3000000E+03  0.7818608E-02  0.1093470E+00
          1   -1    0    0  502    0  0.00000000000E+00  0.00000000000E+00  0.15330249583E+01  0.15330249583E+01  0.00000000000E+00 0.  1.
         13   -1    0    0    0    0 -0.00000000000E+00 -0.00000000000E+00 -0.10000000000E+04  0.10000000000E+04  0.00000000000E+00 0.  1.
    9000005    2    1    2  501    0 -0.22237846228E+02  0.29237711863E+02 -0.66911203571E+03  0.67013591926E+03  0.46763615261E+01 0.  0.
         13    1    3    3    0    0 -0.76158252247E+01  0.71424379272E+01 -0.21135167368E+03  0.21160941657E+03  0.00000000000E+00 0.  1.
          1    1    3    3  501    0 -0.14622021003E+02  0.22095273936E+02 -0.45776036203E+03  0.45852650269E+03  0.00000000000E+00 0.  1.
         21    1    1    2  502  501  0.22237846228E+02 -0.29237711863E+02 -0.32935493933E+03  0.33139710570E+03  0.00000000000E+00 0.  1.
<mgrwt>
<rscale>  1 0.30000000E+03</rscale>
<asrwt>0</asrwt>
<pdfrwt beam="1">  1        1 0.55746480E-02 0.30000000E+03</pdfrwt>
<pdfrwt beam="2">0</pdfrwt>
<totfact> 0.17072543E+03</totfact>
</mgrwt>
</event>
<event>
 6    1  0.1956957E-002  0.3000000E+03  0.7818608E-02  0.1093470E+00
          1   -1    0    0  502    0  0.00000000000E+00  0.00000000000E+00  0.11885116451E+01  0.11885116451E+01  0.00000000000E+00 0.  1.
         13   -1    0    0    0    0 -0.00000000000E+00 -0.00000000000E+00 -0.10000000000E+04  0.10000000000E+04  0.00000000000E+00 0.  1.
    9000005    2    1    2  501    0 -0.34161575250E+02 -0.24479296162E+01 -0.52181288422E+03  0.52296191898E+03  0.52418493912E+01 0.  0.
         13    1    3    3    0    0 -0.27202235761E+02 -0.40596929381E+01 -0.41577133479E+03  0.41668002780E+03  0.00000000000E+00 0.  1.
          1    1    3    3  501    0 -0.69593394890E+01  0.16117633219E+01 -0.10604154943E+03  0.10628189118E+03  0.00000000000E+00 0.  1.
         21    1    1    2  502  501  0.34161575250E+02  0.24479296162E+01 -0.47699860414E+03  0.47822659267E+03  0.00000000000E+00 0.  1.
<mgrwt>
<rscale>  1 0.30000000E+03</rscale>
<asrwt>0</asrwt>
<pdfrwt beam="1">  1        1 0.43218696E-02 0.30000000E+03</pdfrwt>
<pdfrwt beam="2">0</pdfrwt>
<totfact> 0.24418355E+03</totfact>
</mgrwt>
</event>
<event>
 6    1  0.1956957E-002  0.3000000E+03  0.7818608E-02  0.1093470E+00
          1   -1    0    0  502    0  0.00000000000E+00  0.00000000000E+00  0.13960292002E+01  0.13960292002E+01  0.00000000000E+00 0.  1.
         13   -1    0    0    0    0 -0.00000000000E+00 -0.00000000000E+00 -0.10000000000E+04  0.10000000000E+04  0.00000000000E+00 0.  1.
    9000005    2    1    2  501    0 -0.29819288684E+02  0.72234282493E+01 -0.78007722765E+03  0.78072590126E+03  0.84311273113E+01 0.  0.
         13    1    3    3    0    0 -0.20544987964E+02  0.84175799236E+01 -0.50021026625E+03  0.50070276876E+03  0.00000000000E+00 0.  1.
          3    1    3    3  501    0 -0.92743007194E+01 -0.11941516744E+01 -0.27986696140E+03  0.28002313250E+03  0.00000000000E+00 0.  1.
         21    1    1    2  502  501  0.29819288684E+02 -0.72234282493E+01 -0.21852674315E+03  0.22067012794E+03  0.00000000000E+00 0.  1.
<mgrwt>
<rscale>  1 0.30000000E+03</rscale>
<asrwt>0</asrwt>
<pdfrwt beam="1">  1        1 0.50764805E-02 0.30000000E+03</pdfrwt>
<pdfrwt beam="2">0</pdfrwt>
<totfact> 0.19471710E+03</totfact>
</mgrwt>
</event>
<event>
 6    1  0.1956957E-002  0.3000000E+03  0.7818608E-02  0.1093470E+00
          3   -1    0    0  502    0  0.00000000000E+00  0.00000000000E+00  0.36883299616E+02  0.36883299616E+02  0.00000000000E+00 0.  1.
         13   -1    0    0    0    0 -0.00000000000E+00 -0.00000000000E+00 -0.10000000000E+04  0.10000000000E+04  0.00000000000E+00 0.  1.
    9000005    2    1    2  501    0  0.68012940330E+02  0.35414260868E+02 -0.95687146888E+03  0.95994869855E+03  0.43088242194E+01 0.  0.
         13    1    3    3    0    0  0.58139755327E+02  0.31761830800E+02 -0.81707434813E+03  0.81975577791E+03  0.00000000000E+00 0.  1.
          3    1    3    3  501    0  0.98731850026E+01  0.36524300676E+01 -0.13979712075E+03  0.14019292064E+03  0.00000000000E+00 0.  1.
         21    1    1    2  502  501 -0.68012940330E+02 -0.35414260868E+02 -0.62452315068E+01  0.76934601069E+02  0.00000000000E+00 0.  1.
<mgrwt>
<rscale>  1 0.30000000E+03</rscale>
<asrwt>0</asrwt>
<pdfrwt beam="1">  1        3 0.13412137E+00 0.30000000E+03</pdfrwt>
<pdfrwt beam="2">0</pdfrwt>
<totfact> 0.15814215E+00</totfact>
</mgrwt>
</event>
<event>
 6    1  0.1956957E-002  0.3000000E+03  0.7818608E-02  0.1093470E+00
          1   -1    0    0  502    0  0.00000000000E+00  0.00000000000E+00  0.15064311774E+01  0.15064311774E+01  0.00000000000E+00 0.  1.
         13   -1    0    0    0    0 -0.00000000000E+00 -0.00000000000E+00 -0.10000000000E+04  0.10000000000E+04  0.00000000000E+00 0.  1.
    9000005    2    1    2  501    0  0.86554536032E+01 -0.30411737511E+02 -0.78807233656E+03  0.78872277194E+03  0.50806156406E+01 0.  0.
         13    1    3    3    0    0  0.21338956587E+01 -0.55040425717E+01 -0.10553109044E+03  0.10569606920E+03  0.00000000000E+00 0.  1.
          3    1    3    3  501    0  0.65215579445E+01 -0.24907694939E+02 -0.68254124612E+03  0.68302670273E+03  0.00000000000E+00 0.  1.
         21    1    1    2  502  501 -0.86554536032E+01  0.30411737511E+02 -0.21042123226E+03  0.21278365924E+03  0.00000000000E+00 0.  1.
<mgrwt>
<rscale>  1 0.30000000E+03</rscale>
<asrwt>0</asrwt>
<pdfrwt beam="1">  1        1 0.54779431E-02 0.30000000E+03</pdfrwt>
<pdfrwt beam="2">0</pdfrwt>
<totfact> 0.17497245E+03</totfact>
</mgrwt>
</event>
<event>
 6    1  0.1956957E-002  0.3000000E+03  0.7818608E-02  0.1093470E+00
          1   -1    0    0  502    0  0.00000000000E+00  0.00000000000E+00  0.22928502219E+01  0.22928502219E+01  0.00000000000E+00 0.  1.
         13   -1    0    0    0    0 -0.00000000000E+00 -0.00000000000E+00 -0.10000000000E+04  0.10000000000E+04  0.00000000000E+00 0.  1.
    9000005    2    1    2  501    0 -0.14612249533E+02 -0.28773695659E+02 -0.86881849964E+03  0.86942551966E+03  0.37020949889E+01 0.  0.
         13    1    3    3    0    0 -0.21415606671E+01 -0.70103885474E+01 -0.17365024299E+03  0.17380488692E+03  0.00000000000E+00 0.  1.
          3    1    3    3  501    0 -0.12470688866E+02 -0.21763307112E+02 -0.69516825666E+03  0.69562063273E+03  0.00000000000E+00 0.  1.
         21    1    1    2  502  501  0.14612249533E+02  0.28773695659E+02 -0.12888865013E+03  0.13286733057E+03  0.00000000000E+00 0.  1.
<mgrwt>
<rscale>  1 0.30000000E+03</rscale>
<asrwt>0</asrwt>
<pdfrwt beam="1">  1        1 0.83376548E-02 0.30000000E+03</pdfrwt>
<pdfrwt beam="2">0</pdfrwt>
<totfact> 0.97227974E+02</totfact>
</mgrwt>
</event>
<event>
 6    1  0.1956957E-002  0.3000000E+03  0.7818608E-02  0.1093470E+00
          1   -1    0    0  502    0  0.00000000000E+00  0.00000000000E+00  0.15668819780E+01  0.15668819780E+01  0.00000000000E+00 0.  1.
         13   -1    0    0    0    0 -0.00000000000E+00 -0.00000000000E+00 -0.10000000000E+04  0.10000000000E+04  0.00000000000E+00 0.  1.
    9000005    2    1    2  501    0 -0.25510831753E+01  0.39281631241E+02 -0.54262034508E+03  0.54405749568E+03  0.34878542204E+01 0.  0.
         13    1    3    3    0    0 -0.33057872519E+01  0.31269352718E+02 -0.42368160436E+03  0.42484679888E+03  0.00000000000E+00 0.  1.
          3    1    3    3  501    0  0.75470407659E+00  0.80122785221E+01 -0.11893874072E+03  0.11921069679E+03  0.00000000000E+00 0.  1.
         21    1    1    2  502  501  0.25510831753E+01 -0.39281631241E+02 -0.45581277294E+03  0.45750938630E+03  0.00000000000E+00 0.  1.
<mgrwt>
<rscale>  1 0.30000000E+03</rscale>
<asrwt>0</asrwt>
<pdfrwt beam="1">  1        1 0.56977647E-02 0.30000000E+03</pdfrwt>
<pdfrwt beam="2">0</pdfrwt>
<totfact> 0.16556904E+03</totfact>
</mgrwt>
</event>
<event>
 6    1  0.1956957E-002  0.3000000E+03  0.7818608E-02  0.1093470E+00
          1   -1    0    0  502    0  0.00000000000E+00  0.00000000000E+00  0.77889188727E+01  0.77889188727E+01  0.00000000000E+00 0.  1.
         13   -1    0    0    0    0 -0.00000000000E+00 -0.00000000000E+00 -0.10000000000E+04  0.10000000000E+04  0.00000000000E+00 0.  1.
    9000005    2    1    2  501    0  0.18294734108E+01  0.33140918473E+02 -0.96298460966E+03  0.96356387976E+03  0.37847702175E+01 0.  0.
         13    1    3    3    0    0 -0.11859379602E+01  0.94711751754E+01 -0.27335713962E+03  0.27352373826E+03  0.00000000000E+00 0.  1.
          1    1    3    3  501    0  0.30154113710E+01  0.23669743297E+02 -0.68962747004E+03  0.69004014150E+03  0.00000000000E+00 0.  1.
         21    1    1    2  502  501 -0.18294734108E+01 -0.33140918473E+02 -0.29226471470E+02  0.44225039116E+02  0.00000000000E+00 0.  1.
<mgrwt>
<rscale>  1 0.30000000E+03</rscale>
<asrwt>0</asrwt>
<pdfrwt beam="1">  1        1 0.28323401E-01 0.30000000E+03</pdfrwt>
<pdfrwt beam="2">0</pdfrwt>
<totfact> 0.18572188E+02</totfact>
</mgrwt>
</event>
<event>
 6    1  0.1956957E-002  0.3000000E+03  0.7818608E-02  0.1093470E+00
          3   -1    0    0  502    0  0.00000000000E+00  0.00000000000E+00  0.33102553354E+01  0.33102553354E+01  0.00000000000E+00 0.  1.
         13   -1    0    0    0    0 -0.00000000000E+00 -0.00000000000E+00 -0.10000000000E+04  0.10000000000E+04  0.00000000000E+00 0.  1.
    9000005    2    1    2  501    0 -0.50654864859E+02  0.26285074832E+02 -0.43838464156E+03  0.44209602828E+03  0.33141779486E+01 0.  0.
         13    1    3    3    0    0 -0.19293971758E+02  0.10811071005E+02 -0.18118768139E+03  0.18253249708E+03  0.00000000000E+00 0.  1.
          3    1    3    3  501    0 -0.31360893101E+02  0.15474003827E+02 -0.25719696017E+03  0.25956353121E+03  0.00000000000E+00 0.  1.
         21    1    1    2  502  501  0.50654864859E+02 -0.26285074832E+02 -0.55830510310E+03  0.56121422705E+03  0.00000000000E+00 0.  1.
<mgrwt>
<rscale>  1 0.30000000E+03</rscale>
<asrwt>0</asrwt>
<pdfrwt beam="1">  1        3 0.12037318E-01 0.30000000E+03</pdfrwt>
<pdfrwt beam="2">0</pdfrwt>
<totfact> 0.24234201E+02</totfact>
</mgrwt>
</event>
<event>
 6    1  0.1956957E-002  0.3000000E+03  0.7818608E-02  0.1093470E+00
          3   -1    0    0  502    0  0.00000000000E+00  0.00000000000E+00  0.18717161131E+01  0.18717161131E+01  0.00000000000E+00 0.  1.
         13   -1    0    0    0    0 -0.00000000000E+00 -0.00000000000E+00 -0.10000000000E+04  0.10000000000E+04  0.00000000000E+00 0.  1.
    9000005    2    1    2  501    0  0.32140769399E+02  0.28783327760E+02 -0.52530467371E+03  0.52708368409E+03  0.32712069140E+01 0.  0.
         13    1    3    3    0    0  0.42695184579E+01  0.36967330784E+01 -0.56422626935E+02  0.56704562899E+02  0.00000000000E+00 0.  1.
          3    1    3    3  501    0  0.27871250941E+02  0.25086594681E+02 -0.46888204678E+03  0.47037912119E+03  0.00000000000E+00 0.  1.
         21    1    1    2  502  501 -0.32140769399E+02 -0.28783327760E+02 -0.47282361017E+03  0.47478803202E+03  0.00000000000E+00 0.  1.
<mgrwt>
<rscale>  1 0.30000000E+03</rscale>
<asrwt>0</asrwt>
<pdfrwt beam="1">  1        3 0.68062548E-02 0.30000000E+03</pdfrwt>
<pdfrwt beam="2">0</pdfrwt>
<totfact> 0.61219583E+02</totfact>
</mgrwt>
</event>
<event>
 6    1  0.1956957E-002  0.3000000E+03  0.7818608E-02  0.1093470E+00
          1   -1    0    0  502    0  0.00000000000E+00  0.00000000000E+00  0.99289938817E+00  0.99289938817E+00  0.00000000000E+00 0.  1.
         13   -1    0    0    0    0 -0.00000000000E+00 -0.00000000000E+00 -0.10000000000E+04  0.10000000000E+04  0.00000000000E+00 0.  1.
    9000005    2    1    2  501    0  0.10946035321E+02 -0.29167097558E+02 -0.56777542157E+03  0.56863737869E+03  0.30006390717E+01 0.  0.
         13    1    3    3    0    0  0.52943039736E+01 -0.13969072701E+02 -0.29958724023E+03  0.29995946252E+03  0.00000000000E+00 0.  1.
          1    1    3    3  501    0  0.56517313475E+01 -0.15198024858E+02 -0.26818818134E+03  0.26867791617E+03  0.00000000000E+00 0.  1.
         21    1    1    2  502  501 -0.10946035321E+02  0.29167097558E+02 -0.43123167904E+03  0.43235552070E+03  0.00000000000E+00 0.  1.
<mgrwt>
<rscale>  1 0.30000000E+03</rscale>
<asrwt>0</asrwt>
<pdfrwt beam="1">  1        1 0.36105508E-02 0.30000000E+03</pdfrwt>
<pdfrwt beam="2">0</pdfrwt>
<totfact> 0.31452532E+03</totfact>
</mgrwt>
</event>
<event>
 6    1  0.1956957E-002  0.3000000E+03  0.7818608E-02  0.1093470E+00
          1   -1    0    0  502    0  0.00000000000E+00  0.00000000000E+00  0.16164159894E+01  0.16164159894E+01  0.00000000000E+00 0.  1.
         13   -1    0    0    0    0 -0.00000000000E+00 -0.00000000000E+00 -0.10000000000E+04  0.10000000000E+04  0.00000000000E+00 0.  1.
    9000005    2    1    2  501    0 -0.14451516689E+01 -0.32698896816E+02 -0.78936954448E+03  0.79005513637E+03  0.33962367703E+01 0.  0.
         13    1    3    3    0    0 -0.22669552077E+01 -0.23493414819E+02 -0.54480758637E+03  0.54531860944E+03  0.00000000000E+00 0.  1.
          1    1    3    3  501    0  0.82180353874E+00 -0.92054819969E+01 -0.24456195811E+03  0.24473652693E+03  0.00000000000E+00 0.  1.
         21    1    1    2  502  501  0.14451516689E+01  0.32698896816E+02 -0.20901403953E+03  0.21156127962E+03  0.00000000000E+00 0.  1.
<mgrwt>
<rscale>  1 0.30000000E+03</rscale>
<asrwt>0</asrwt>
<pdfrwt beam="1">  1        1 0.58778887E-02 0.30000000E+03</pdfrwt>
<pdfrwt beam="2">0</pdfrwt>
<totfact> 0.15849173E+03</totfact>
</mgrwt>
</event>
<event>
 6    1  0.1956957E-002  0.3000000E+03  0.7818608E-02  0.1093470E+00
          1   -1    0    0  502    0  0.00000000000E+00  0.00000000000E+00  0.14519891168E+01  0.14519891168E+01  0.00000000000E+00 0.  1.
         13   -1    0    0    0    0 -0.00000000000E+00 -0.00000000000E+00 -0.10000000000E+04  0.10000000000E+04  0.00000000000E+00 0.  1.
    9000005    2    1    2  501    0 -0.22316525741E+02  0.28464583883E+02 -0.65516141992E+03  0.65616571555E+03  0.29496205656E+01 0.  0.
         13    1    3    3    0    0 -0.32601833028E+01  0.43025519082E+01 -0.11828105970E+03  0.11840417996E+03  0.00000000000E+00 0.  1.
          1    1    3    3  501    0 -0.19056342438E+02  0.24162031975E+02 -0.53688036021E+03  0.53776153559E+03  0.00000000000E+00 0.  1.
         21    1    1    2  502  501  0.22316525741E+02 -0.28464583883E+02 -0.34338659097E+03  0.34528627356E+03  0.00000000000E+00 0.  1.
<mgrwt>
<rscale>  1 0.30000000E+03</rscale>
<asrwt>0</asrwt>
<pdfrwt beam="1">  1        1 0.52799716E-02 0.30000000E+03</pdfrwt>
<pdfrwt beam="2">0</pdfrwt>
<totfact> 0.18425609E+03</totfact>
</mgrwt>
</event>
<event>
 6    1  0.1956957E-002  0.3000000E+03  0.7818608E-02  0.1093470E+00
          1   -1    0    0  502    0  0.00000000000E+00  0.00000000000E+00  0.32042103156E+01  0.32042103156E+01  0.00000000000E+00 0.  1.
         13   -1    0    0    0    0 -0.00000000000E+00 -0.00000000000E+00 -0.10000000000E+04  0.10000000000E+04  0.00000000000E+00 0.  1.
    9000005    2    1    2  501    0  0.44559067094E+02  0.23348050979E+02 -0.72792811893E+03  0.72967091011E+03  0.31062495209E+01 0.  0.
         13    1    3    3    0    0  0.23254846565E+02  0.10571461239E+02 -0.37783340496E+03  0.37869595402E+03  0.00000000000E+00 0.  1.
          1    1    3    3  501    0  0.21304220529E+02  0.12776589741E+02 -0.35009471397E+03  0.35097495609E+03  0.00000000000E+00 0.  1.
         21    1    1    2  502  501 -0.44559067094E+02 -0.23348050979E+02 -0.26886767076E+03  0.27353330021E+03  0.00000000000E+00 0.  1.
<mgrwt>
<rscale>  1 0.30000000E+03</rscale>
<asrwt>0</asrwt>
<pdfrwt beam="1">  1        1 0.11651698E-01 0.30000000E+03</pdfrwt>
<pdfrwt beam="2">0</pdfrwt>
<totfact> 0.61241484E+02</totfact>
</mgrwt>
</event>
<event>
 6    1  0.1956957E-002  0.3000000E+03  0.7818608E-02  0.1093470E+00
          1   -1    0    0  502    0  0.00000000000E+00  0.00000000000E+00  0.30475391983E+01  0.30475391983E+01  0.00000000000E+00 0.  1.
         13   -1    0    0    0    0 -0.00000000000E+00 -0.00000000000E+00 -0.10000000000E+04  0.10000000000E+04  0.00000000000E+00 0.  1.
    9000005    2    1    2  501    0 -0.11284537361E+02 -0.45944217634E+02 -0.24132086309E+03  0.24593636944E+03  0.32751994970E+01 0.  0.
         13    1    3    3    0    0 -0.93104523785E+01 -0.32594154608E+02 -0.17648096507E+03  0.17970696834E+03  0.00000000000E+00 0.  1.
          3    1    3    3  501    0 -0.19740849829E+01 -0.13350063026E+02 -0.64839898028E+02  0.66229401104E+02  0.00000000000E+00 0.  1.
         21    1    1    2  502  501  0.11284537361E+02  0.45944217634E+02 -0.75563159771E+03  0.75711116976E+03  0.00000000000E+00 0.  1.
<mgrwt>
<rscale>  1 0.30000000E+03</rscale>
<asrwt>0</asrwt>
<pdfrwt beam="1">  1        1 0.11081984E-01 0.30000000E+03</pdfrwt>
<pdfrwt beam="2">0</pdfrwt>
<totfact> 0.65604488E+02</totfact>
</mgrwt>
</event>
<event>
 6    1  0.1956957E-002  0.3000000E+03  0.7818608E-02  0.1093470E+00
          3   -1    0    0  502    0  0.00000000000E+00  0.00000000000E+00  0.12452705582E+01  0.12452705582E+01  0.00000000000E+00 0.  1.
         13   -1    0    0    0    0 -0.00000000000E+00 -0.00000000000E+00 -0.10000000000E+04  0.10000000000E+04  0.00000000000E+00 0.  1.
    9000005    2    1    2  501    0 -0.34417689993E+02 -0.43143104346E+01 -0.47171235284E+03  0.47306267203E+03  0.85180504154E+01 0.  0.
         13    1    3    3    0    0 -0.10066146021E+02 -0.33836249254E+01 -0.10304355782E+03  0.10358933835E+03  0.00000000000E+00 0.  1.
          3    1    3    3  501    0 -0.24351543972E+02 -0.93068550926E+00 -0.36866879503E+03  0.36947333368E+03  0.00000000000E+00 0.  1.
         21    1    1    2  502  501  0.34417689993E+02  0.43143104346E+01 -0.52704237660E+03  0.52818259853E+03  0.00000000000E+00 0.  1.
<mgrwt>
<rscale>  1 0.30000000E+03</rscale>
<asrwt>0</asrwt>
<pdfrwt beam="1">  1        3 0.45282661E-02 0.30000000E+03</pdfrwt>
<pdfrwt beam="2">0</pdfrwt>
<totfact> 0.11529012E+03</totfact>
</mgrwt>
</event>
<event>
 6    1  0.1956957E-002  0.3000000E+03  0.7818608E-02  0.1093470E+00
          1   -1    0    0  502    0  0.00000000000E+00  0.00000000000E+00  0.18742980548E+01  0.18742980548E+01  0.00000000000E+00 0.  1.
         13   -1    0    0    0    0 -0.00000000000E+00 -0.00000000000E+00 -0.10000000000E+04  0.10000000000E+04  0.00000000000E+00 0.  1.
    9000005    2    1    2  501    0  0.24009721216E+02  0.25223489847E+02 -0.79545105470E+03  0.79622969251E+03  0.51625247024E+01 0.  0.
         13    1    3    3    0    0 -0.38592256046E-01  0.10336133599E+01 -0.16716893842E+02  0.16748862220E+02  0.00000000000E+00 0.  1.
          1    1    3    3  501    0  0.24048313472E+02  0.24189876487E+02 -0.77873416086E+03  0.77948083029E+03  0.00000000000E+00 0.  1.
         21    1    1    2  502  501 -0.24009721216E+02 -0.25223489847E+02 -0.20267464725E+03  0.20564460554E+03  0.00000000000E+00 0.  1.
<mgrwt>
<rscale>  1 0.30000000E+03</rscale>
<asrwt>0</asrwt>
<pdfrwt beam="1">  1        1 0.68156437E-02 0.30000000E+03</pdfrwt>
<pdfrwt beam="2">0</pdfrwt>
<totfact> 0.12880093E+03</totfact>
</mgrwt>
</event>
<event>
 6    1  0.1956957E-002  0.3000000E+03  0.7818608E-02  0.1093470E+00
          3   -1    0    0  502    0  0.00000000000E+00  0.00000000000E+00  0.11423640513E+01  0.11423640513E+01  0.00000000000E+00 0.  1.
         13   -1    0    0    0    0 -0.00000000000E+00 -0.00000000000E+00 -0.10000000000E+04  0.10000000000E+04  0.00000000000E+00 0.  1.
    9000005    2    1    2  501    0  0.16440073524E+02 -0.28942724367E+02 -0.58089467395E+03  0.58185607175E+03  0.31478078793E+01 0.  0.
         13    1    3    3    0    0  0.13673858669E+02 -0.21925269931E+02 -0.43559887671E+03  0.43636461046E+03  0.00000000000E+00 0.  1.
          3    1    3    3  501    0  0.27662148557E+01 -0.70174544356E+01 -0.14529579725E+03  0.14549146129E+03  0.00000000000E+00 0.  1.
         21    1    1    2  502  501 -0.16440073524E+02  0.28942724367E+02 -0.41796296199E+03  0.41928629230E+03  0.00000000000E+00 0.  1.
<mgrwt>
<rscale>  1 0.30000000E+03</rscale>
<asrwt>0</asrwt>
<pdfrwt beam="1">  1        3 0.41540599E-02 0.30000000E+03</pdfrwt>
<pdfrwt beam="2">0</pdfrwt>
<totfact> 0.13165744E+03</totfact>
</mgrwt>
</event>
<event>
 6    1  0.1956957E-002  0.3000000E+03  0.7818608E-02  0.1093470E+00
          3   -1    0    0  502    0  0.00000000000E+00  0.00000000000E+00  0.19382524111E+01  0.19382524111E+01  0.00000000000E+00 0.  1.
         13   -1    0    0    0    0 -0.00000000000E+00 -0.00000000000E+00 -0.10000000000E+04  0.10000000000E+04  0.00000000000E+00 0.  1.
    9000005    2    1    2  501    0 -0.25622321180E+02 -0.24730481733E+02 -0.79181083852E+03  0.79263574989E+03  0.62392257882E+01 0.  0.
         13    1    3    3    0    0 -0.19417425668E+02 -0.16708704271E+02 -0.51074667474E+03  0.51138868092E+03  0.00000000000E+00 0.  1.
          1    1    3    3  501    0 -0.62048955117E+01 -0.80217774622E+01 -0.28106416378E+03  0.28124706897E+03  0.00000000000E+00 0.  1.
         21    1    1    2  502  501  0.25622321180E+02  0.24730481733E+02 -0.20625090907E+03  0.20930250252E+03  0.00000000000E+00 0.  1.
<mgrwt>
<rscale>  1 0.30000000E+03</rscale>
<asrwt>0</asrwt>
<pdfrwt beam="1">  1        3 0.70482054E-02 0.30000000E+03</pdfrwt>
<pdfrwt beam="2">0</pdfrwt>
<totfact> 0.57944489E+02</totfact>
</mgrwt>
</event>
<event>
 6    1  0.1956957E-002  0.3000000E+03  0.7818608E-02  0.1093470E+00
          3   -1    0    0  502    0  0.00000000000E+00  0.00000000000E+00  0.55777166039E+01  0.55777166039E+01  0.00000000000E+00 0.  1.
         13   -1    0    0    0    0 -0.00000000000E+00 -0.00000000000E+00 -0.10000000000E+04  0.10000000000E+04  0.00000000000E+00 0.  1.
    9000005    2    1    2  501    0 -0.52608898738E+00 -0.33639837058E+02 -0.94606071263E+03  0.94666458620E+03  0.33243611849E+01 0.  0.
         13    1    3    3    0    0 -0.14818151864E+01 -0.17430849971E+02 -0.52246374866E+03  0.52275653890E+03  0.00000000000E+00 0.  1.
          1    1    3    3  501    0  0.95572619897E+00 -0.16208987087E+02 -0.42359696398E+03  0.42390804730E+03  0.00000000000E+00 0.  1.
         21    1    1    2  502  501  0.52608898738E+00  0.33639837058E+02 -0.48361570763E+02  0.58913130401E+02  0.00000000000E+00 0.  1.
<mgrwt>
<rscale>  1 0.30000000E+03</rscale>
<asrwt>0</asrwt>
<pdfrwt beam="1">  1        3 0.20282649E-01 0.30000000E+03</pdfrwt>
<pdfrwt beam="2">0</pdfrwt>
<totfact> 0.97430277E+01</totfact>
</mgrwt>
</event>
<event>
 6    1  0.1956957E-002  0.3000000E+03  0.7818608E-02  0.1093470E+00
          1   -1    0    0  502    0  0.00000000000E+00  0.00000000000E+00  0.71805447682E+01  0.71805447682E+01  0.00000000000E+00 0.  1.
         13   -1    0    0    0    0 -0.00000000000E+00 -0.00000000000E+00 -0.10000000000E+04  0.10000000000E+04  0.00000000000E+00 0.  1.
    9000005    2    1    2  501    0  0.32550155505E+02  0.11791901931E+02 -0.95603214790E+03  0.95666453191E+03  0.33162052282E+01 0.  0.
         13    1    3    3    0    0  0.75397673821E+00 -0.50915887019E-01 -0.33761749555E+02  0.33770205898E+02  0.00000000000E+00 0.  1.
          1    1    3    3  501    0  0.31796178767E+02  0.11842817818E+02 -0.92227039835E+03  0.92289432601E+03  0.00000000000E+00 0.  1.
         21    1    1    2  502  501 -0.32550155505E+02 -0.11791901931E+02 -0.36787307331E+02  0.50516012860E+02  0.00000000000E+00 0.  1.
<mgrwt>
<rscale>  1 0.30000000E+03</rscale>
<asrwt>0</asrwt>
<pdfrwt beam="1">  1        1 0.26111127E-01 0.30000000E+03</pdfrwt>
<pdfrwt beam="2">0</pdfrwt>
<totfact> 0.20671375E+02</totfact>
</mgrwt>
</event>
<event>
 6    1  0.1956957E-002  0.3000000E+03  0.7818608E-02  0.1093470E+00
          3   -1    0    0  502    0  0.00000000000E+00  0.00000000000E+00  0.40773558786E+01  0.40773558786E+01  0.00000000000E+00 0.  1.
         13   -1    0    0    0    0 -0.00000000000E+00 -0.00000000000E+00 -0.10000000000E+04  0.10000000000E+04  0.00000000000E+00 0.  1.
    9000005    2    1    2  501    0  0.31143239205E+02  0.46899927638E+00 -0.93617956167E+03  0.93670260386E+03  0.30781627654E+01 0.  0.
         13    1    3    3    0    0  0.74310471404E+01 -0.11823434168E+01 -0.21848427000E+03  0.21861380248E+03  0.00000000000E+00 0.  1.
          3    1    3    3  501    0  0.23712192064E+02  0.16513426932E+01 -0.71769529167E+03  0.71808880138E+03  0.00000000000E+00 0.  1.
         21    1    1    2  502  501 -0.31143239205E+02 -0.46899927638E+00 -0.59743082455E+02  0.67374752020E+02  0.00000000000E+00 0.  1.
<mgrwt>
<rscale>  1 0.30000000E+03</rscale>
<asrwt>0</asrwt>
<pdfrwt beam="1">  1        3 0.14826780E-01 0.30000000E+03</pdfrwt>
<pdfrwt beam="2">0</pdfrwt>
<totfact> 0.16982363E+02</totfact>
</mgrwt>
</event>
<event>
 6    1  0.1956957E-002  0.3000000E+03  0.7818608E-02  0.1093470E+00
          1   -1    0    0  502    0  0.00000000000E+00  0.00000000000E+00  0.16105778808E+01  0.16105778808E+01  0.00000000000E+00 0.  1.
         13   -1    0    0    0    0 -0.00000000000E+00 -0.00000000000E+00 -0.10000000000E+04  0.10000000000E+04  0.00000000000E+00 0.  1.
    9000005    2    1    2  501    0 -0.18818246439E+02  0.33930660678E+02 -0.61609549795E+03  0.61735277303E+03  0.67355503818E+01 0.  0.
         13    1    3    3    0    0 -0.12271655082E+02  0.27741399367E+02 -0.46355589132E+03  0.46454735295E+03  0.00000000000E+00 0.  1.
          3    1    3    3  501    0 -0.65465913575E+01  0.61892613104E+01 -0.15253960664E+03  0.15280542008E+03  0.00000000000E+00 0.  1.
         21    1    1    2  502  501  0.18818246439E+02 -0.33930660678E+02 -0.38229392417E+03  0.38425780485E+03  0.00000000000E+00 0.  1.
<mgrwt>
<rscale>  1 0.30000000E+03</rscale>
<asrwt>0</asrwt>
<pdfrwt beam="1">  1        1 0.58566592E-02 0.30000000E+03</pdfrwt>
<pdfrwt beam="2">0</pdfrwt>
<totfact> 0.15929858E+03</totfact>
</mgrwt>
</event>
<event>
 6    1  0.1956957E-002  0.3000000E+03  0.7818608E-02  0.1093470E+00
          1   -1    0    0  502    0  0.00000000000E+00  0.00000000000E+00  0.18675243638E+01  0.18675243638E+01  0.00000000000E+00 0.  1.
         13   -1    0    0    0    0 -0.00000000000E+00 -0.00000000000E+00 -0.10000000000E+04  0.10000000000E+04  0.00000000000E+00 0.  1.
    9000005    2    1    2  501    0 -0.27421668698E+02 -0.32636977916E+02 -0.42802018681E+03  0.43016380554E+03  0.47433154629E+01 0.  0.
         13    1    3    3    0    0 -0.10928951524E+01 -0.17699651704E+01 -0.33054377828E+02  0.33119768871E+02  0.00000000000E+00 0.  1.
          3    1    3    3  501    0 -0.26328773545E+02 -0.30867012745E+02 -0.39496580898E+03  0.39704403667E+03  0.00000000000E+00 0.  1.
         21    1    1    2  502  501  0.27421668698E+02  0.32636977916E+02 -0.57011228883E+03  0.57170371882E+03  0.00000000000E+00 0.  1.
<mgrwt>
<rscale>  1 0.30000000E+03</rscale>
<asrwt>0</asrwt>
<pdfrwt beam="1">  1        1 0.67910120E-02 0.30000000E+03</pdfrwt>
<pdfrwt beam="2">0</pdfrwt>
<totfact> 0.12945509E+03</totfact>
</mgrwt>
</event>
<event>
 6    1  0.1956957E-002  0.3000000E+03  0.7818608E-02  0.1093470E+00
          3   -1    0    0  502    0  0.00000000000E+00  0.00000000000E+00  0.75190030264E+01  0.75190030264E+01  0.00000000000E+00 0.  1.
         13   -1    0    0    0    0 -0.00000000000E+00 -0.00000000000E+00 -0.10000000000E+04  0.10000000000E+04  0.00000000000E+00 0.  1.
    9000005    2    1    2  501    0 -0.76111747703E+02 -0.31630057941E+02 -0.65201031432E+03  0.65721378690E+03  0.43649740489E+01 0.  0.
         13    1    3    3    0    0 -0.13902272714E+02 -0.42880662916E+01 -0.12260685064E+03  0.12346700176E+03  0.00000000000E+00 0.  1.
          3    1    3    3  501    0 -0.62209474989E+02 -0.27341991649E+02 -0.52940346368E+03  0.53374678514E+03  0.00000000000E+00 0.  1.
         21    1    1    2  502  501  0.76111747703E+02  0.31630057941E+02 -0.34047068265E+03  0.35030521613E+03  0.00000000000E+00 0.  1.
<mgrwt>
<rscale>  1 0.30000000E+03</rscale>
<asrwt>0</asrwt>
<pdfrwt beam="1">  1        3 0.27341887E-01 0.30000000E+03</pdfrwt>
<pdfrwt beam="2">0</pdfrwt>
<totfact> 0.55753133E+01</totfact>
</mgrwt>
</event>
<event>
 6    1  0.1956957E-002  0.3000000E+03  0.7818608E-02  0.1093470E+00
          1   -1    0    0  502    0  0.00000000000E+00  0.00000000000E+00  0.15928653846E+01  0.15928653846E+01  0.00000000000E+00 0.  1.
         13   -1    0    0    0    0 -0.00000000000E+00 -0.00000000000E+00 -0.10000000000E+04  0.10000000000E+04  0.00000000000E+00 0.  1.
    9000005    2    1    2  501    0  0.16896037678E+02 -0.33593543717E+02 -0.33751132350E+03  0.33962815679E+03  0.44033088032E+01 0.  0.
         13    1    3    3    0    0  0.42209751832E+01 -0.11083177523E+02 -0.91943917828E+02  0.92705649671E+02  0.00000000000E+00 0.  1.
          1    1    3    3  501    0  0.12675062494E+02 -0.22510366194E+02 -0.24556740567E+03  0.24692250712E+03  0.00000000000E+00 0.  1.
         21    1    1    2  502  501 -0.16896037678E+02  0.33593543717E+02 -0.66089581112E+03  0.66196470859E+03  0.00000000000E+00 0.  1.
<mgrwt>
<rscale>  1 0.30000000E+03</rscale>
<asrwt>0</asrwt>
<pdfrwt beam="1">  1        1 0.57922500E-02 0.30000000E+03</pdfrwt>
<pdfrwt beam="2">0</pdfrwt>
<totfact> 0.16179038E+03</totfact>
</mgrwt>
</event>
<event>
 6    1  0.1956957E-002  0.3000000E+03  0.7818608E-02  0.1093470E+00
          3   -1    0    0  502    0  0.00000000000E+00  0.00000000000E+00  0.12039085984E+01  0.12039085984E+01  0.00000000000E+00 0.  1.
         13   -1    0    0    0    0 -0.00000000000E+00 -0.00000000000E+00 -0.10000000000E+04  0.10000000000E+04  0.00000000000E+00 0.  1.
    9000005    2    1    2  501    0 -0.22198957599E+02 -0.25051166858E+02 -0.42047682268E+03  0.42191681979E+03  0.96275508598E+01 0.  0.
         13    1    3    3    0    0 -0.76117434086E+01 -0.45415028040E+01 -0.15372425853E+03  0.15397958159E+03  0.00000000000E+00 0.  1.
          3    1    3    3  501    0 -0.14587214191E+02 -0.20509664054E+02 -0.26675256415E+03  0.26793723820E+03  0.00000000000E+00 0.  1.
         21    1    1    2  502  501  0.22198957599E+02  0.25051166858E+02 -0.57831926873E+03  0.57928708881E+03  0.00000000000E+00 0.  1.
<mgrwt>
<rscale>  1 0.30000000E+03</rscale>
<asrwt>0</asrwt>
<pdfrwt beam="1">  1        3 0.43778587E-02 0.30000000E+03</pdfrwt>
<pdfrwt beam="2">0</pdfrwt>
<totfact> 0.12145170E+03</totfact>
</mgrwt>
</event>
<event>
 6    1  0.1956957E-002  0.3000000E+03  0.7818608E-02  0.1093470E+00
          1   -1    0    0  502    0  0.00000000000E+00  0.00000000000E+00  0.10898348466E+01  0.10898348466E+01  0.00000000000E+00 0.  1.
         13   -1    0    0    0    0 -0.00000000000E+00 -0.00000000000E+00 -0.10000000000E+04  0.10000000000E+04  0.00000000000E+00 0.  1.
    9000005    2    1    2  501    0  0.29648171090E+02  0.68127528159E+01 -0.30959180208E+03  0.31110053542E+03  0.33213814736E+01 0.  0.
         13    1    3    3    0    0  0.22645949896E+02  0.62072991868E+01 -0.22760836038E+03  0.22881637905E+03  0.00000000000E+00 0.  1.
          1    1    3    3  501    0  0.70022211945E+01  0.60545362919E+00 -0.81983441703E+02  0.82284156368E+02  0.00000000000E+00 0.  1.
         21    1    1    2  502  501 -0.29648171090E+02 -0.68127528159E+01 -0.68931836307E+03  0.68998929942E+03  0.00000000000E+00 0.  1.
<mgrwt>
<rscale>  1 0.30000000E+03</rscale>
<asrwt>0</asrwt>
<pdfrwt beam="1">  1        1 0.39630442E-02 0.30000000E+03</pdfrwt>
<pdfrwt beam="2">0</pdfrwt>
<totfact> 0.27587704E+03</totfact>
</mgrwt>
</event>
<event>
 6    1  0.1956957E-002  0.3000000E+03  0.7818608E-02  0.1093470E+00
          3   -1    0    0  502    0  0.00000000000E+00  0.00000000000E+00  0.10314404352E+01  0.10314404352E+01  0.00000000000E+00 0.  1.
         13   -1    0    0    0    0 -0.00000000000E+00 -0.00000000000E+00 -0.10000000000E+04  0.10000000000E+04  0.00000000000E+00 0.  1.
    9000005    2    1    2  501    0 -0.25917961870E+01 -0.31563598485E+02 -0.57672894024E+03  0.57760579846E+03  0.30347560774E+01 0.  0.
         13    1    3    3    0    0 -0.82816585088E+00 -0.32791264085E+01 -0.76535145708E+02  0.76609836557E+02  0.00000000000E+00 0.  1.
          1    1    3    3  501    0 -0.17636303362E+01 -0.28284472077E+02 -0.50019379454E+03  0.50099596190E+03  0.00000000000E+00 0.  1.
         21    1    1    2  502  501  0.25917961870E+01  0.31563598485E+02 -0.42223961932E+03  0.42342564197E+03  0.00000000000E+00 0.  1.
<mgrwt>
<rscale>  1 0.30000000E+03</rscale>
<asrwt>0</asrwt>
<pdfrwt beam="1">  1        3 0.37507004E-02 0.30000000E+03</pdfrwt>
<pdfrwt beam="2">0</pdfrwt>
<totfact> 0.15403442E+03</totfact>
</mgrwt>
</event>
<event>
 6    1  0.1956957E-002  0.3000000E+03  0.7818608E-02  0.1093470E+00
          1   -1    0    0  502    0  0.00000000000E+00  0.00000000000E+00  0.87544491589E+01  0.87544491589E+01  0.00000000000E+00 0.  1.
         13   -1    0    0    0    0 -0.00000000000E+00 -0.00000000000E+00 -0.10000000000E+04  0.10000000000E+04  0.00000000000E+00 0.  1.
    9000005    2    1    2  501    0  0.84830689836E+01  0.45381605005E+02 -0.93429485198E+03  0.93544118547E+03  0.34479704910E+01 0.  0.
         13    1    3    3    0    0  0.83121618746E+01  0.37533310969E+02 -0.77157843857E+03  0.77253551914E+03  0.00000000000E+00 0.  1.
          1    1    3    3  501    0  0.17090710898E+00  0.78482940353E+01 -0.16271641342E+03  0.16290566633E+03  0.00000000000E+00 0.  1.
         21    1    1    2  502  501 -0.84830689836E+01 -0.45381605005E+02 -0.56950698857E+02  0.73313263687E+02  0.00000000000E+00 0.  1.
<mgrwt>
<rscale>  1 0.30000000E+03</rscale>
<asrwt>0</asrwt>
<pdfrwt beam="1">  1        1 0.31834428E-01 0.30000000E+03</pdfrwt>
<pdfrwt beam="2">0</pdfrwt>
<totfact> 0.15932209E+02</totfact>
</mgrwt>
</event>
<event>
 6    1  0.1956957E-002  0.3000000E+03  0.7818608E-02  0.1093470E+00
          1   -1    0    0  502    0  0.00000000000E+00  0.00000000000E+00  0.30179875827E+01  0.30179875827E+01  0.00000000000E+00 0.  1.
         13   -1    0    0    0    0 -0.00000000000E+00 -0.00000000000E+00 -0.10000000000E+04  0.10000000000E+04  0.00000000000E+00 0.  1.
    9000005    2    1    2  501    0  0.39345626961E+02  0.37949617337E+02 -0.54489725004E+03  0.54764024967E+03  0.29288454235E+01 0.  0.
         13    1    3    3    0    0  0.29332979228E+02  0.29793763105E+02 -0.41006202768E+03  0.41218801358E+03  0.00000000000E+00 0.  1.
          3    1    3    3  501    0  0.10012647733E+02  0.81558542319E+01 -0.13483522236E+03  0.13545223609E+03  0.00000000000E+00 0.  1.
         21    1    1    2  502  501 -0.39345626961E+02 -0.37949617337E+02 -0.45208476238E+03  0.45537773792E+03  0.00000000000E+00 0.  1.
<mgrwt>
<rscale>  1 0.30000000E+03</rscale>
<asrwt>0</asrwt>
<pdfrwt beam="1">  1        1 0.10974523E-01 0.30000000E+03</pdfrwt>
<pdfrwt beam="2">0</pdfrwt>
<totfact> 0.66488862E+02</totfact>
</mgrwt>
</event>
<event>
 6    1  0.1956957E-002  0.3000000E+03  0.7818608E-02  0.1093470E+00
          1   -1    0    0  502    0  0.00000000000E+00  0.00000000000E+00  0.23271179599E+01  0.23271179599E+01  0.00000000000E+00 0.  1.
         13   -1    0    0    0    0 -0.00000000000E+00 -0.00000000000E+00 -0.10000000000E+04  0.10000000000E+04  0.00000000000E+00 0.  1.
    9000005    2    1    2  501    0 -0.14822369310E+02  0.40576236037E+02 -0.27635831880E+03  0.27972014823E+03  0.18186235861E+01 0.  0.
         13    1    3    3    0    0 -0.14336776690E+02  0.39949744177E+02 -0.27131051291E+03  0.27461048713E+03  0.00000000000E+00 0.  1.
          3    1    3    3  501    0 -0.48559261997E+00  0.62649186013E+00 -0.50478058931E+01  0.51096611021E+01  0.00000000000E+00 0.  1.
         21    1    1    2  502  501  0.14822369310E+02 -0.40576236037E+02 -0.72131456324E+03  0.72260696973E+03  0.00000000000E+00 0.  1.
<mgrwt>
<rscale>  1 0.30000000E+03</rscale>
<asrwt>0</asrwt>
<pdfrwt beam="1">  1        1 0.84622650E-02 0.30000000E+03</pdfrwt>
<pdfrwt beam="2">0</pdfrwt>
<totfact> 0.95243768E+02</totfact>
</mgrwt>
</event>
<event>
 6    1  0.1956957E-002  0.3000000E+03  0.7818608E-02  0.1093470E+00
          1   -1    0    0  502    0  0.00000000000E+00  0.00000000000E+00  0.24404398545E+01  0.24404398545E+01  0.00000000000E+00 0.  1.
         13   -1    0    0    0    0 -0.00000000000E+00 -0.00000000000E+00 -0.10000000000E+04  0.10000000000E+04  0.00000000000E+00 0.  1.
    9000005    2    1    2  501    0  0.40401531396E+02  0.23169634216E+02 -0.66507142388E+03  0.66670620501E+03  0.28371198573E+01 0.  0.
         13    1    3    3    0    0  0.17911612180E+02  0.10783700933E+02 -0.27947393667E+03  0.28025487567E+03  0.00000000000E+00 0.  1.
          1    1    3    3  501    0  0.22489919216E+02  0.12385933283E+02 -0.38559748721E+03  0.38645132934E+03  0.00000000000E+00 0.  1.
         21    1    1    2  502  501 -0.40401531396E+02 -0.23169634216E+02 -0.33248813626E+03  0.33573423484E+03  0.00000000000E+00 0.  1.
<mgrwt>
<rscale>  1 0.30000000E+03</rscale>
<asrwt>0</asrwt>
<pdfrwt beam="1">  1        1 0.88743455E-02 0.30000000E+03</pdfrwt>
<pdfrwt beam="2">0</pdfrwt>
<totfact> 0.89159309E+02</totfact>
</mgrwt>
</event>
<event>
 6    1  0.1956957E-002  0.3000000E+03  0.7818608E-02  0.1093470E+00
          3   -1    0    0  502    0  0.00000000000E+00  0.00000000000E+00  0.24335245439E+01  0.24335245439E+01  0.00000000000E+00 0.  1.
         13   -1    0    0    0    0 -0.00000000000E+00 -0.00000000000E+00 -0.10000000000E+04  0.10000000000E+04  0.00000000000E+00 0.  1.
    9000005    2    1    2  501    0  0.38864941321E+02 -0.54307519798E+01 -0.80207597566E+03  0.80304317312E+03  0.35341802893E+01 0.  0.
         13    1    3    3    0    0  0.21380954332E+02 -0.40032589497E+01 -0.47313560340E+03  0.47363537716E+03  0.00000000000E+00 0.  1.
          1    1    3    3  501    0  0.17483986989E+02 -0.14274930301E+01 -0.32894037226E+03  0.32940779596E+03  0.00000000000E+00 0.  1.
         21    1    1    2  502  501 -0.38864941321E+02  0.54307519798E+01 -0.19549049979E+03  0.19939035142E+03  0.00000000000E+00 0.  1.
<mgrwt>
<rscale>  1 0.30000000E+03</rscale>
<asrwt>0</asrwt>
<pdfrwt beam="1">  1        3 0.88491988E-02 0.30000000E+03</pdfrwt>
<pdfrwt beam="2">0</pdfrwt>
<totfact> 0.40307580E+02</totfact>
</mgrwt>
</event>
<event>
 6    1  0.1956957E-002  0.3000000E+03  0.7818608E-02  0.1093470E+00
          3   -1    0    0  502    0  0.00000000000E+00  0.00000000000E+00  0.26303913175E+01  0.26303913175E+01  0.00000000000E+00 0.  1.
         13   -1    0    0    0    0 -0.00000000000E+00 -0.00000000000E+00 -0.10000000000E+04  0.10000000000E+04  0.00000000000E+00 0.  1.
    9000005    2    1    2  501    0 -0.93941223027E+01 -0.44749786665E+02 -0.72504351637E+03  0.72649221305E+03  0.34701668227E+01 0.  0.
         13    1    3    3    0    0 -0.72577319283E+01 -0.26288137172E+02 -0.43009947016E+03  0.43096321776E+03  0.00000000000E+00 0.  1.
          3    1    3    3  501    0 -0.21363903743E+01 -0.18461649493E+02 -0.29494404620E+03  0.29552899529E+03  0.00000000000E+00 0.  1.
         21    1    1    2  502  501  0.93941223027E+01  0.44749786665E+02 -0.27232609231E+03  0.27613817827E+03  0.00000000000E+00 0.  1.
<mgrwt>
<rscale>  1 0.30000000E+03</rscale>
<asrwt>0</asrwt>
<pdfrwt beam="1">  1        3 0.95650795E-02 0.30000000E+03</pdfrwt>
<pdfrwt beam="2">0</pdfrwt>
<totfact> 0.35523693E+02</totfact>
</mgrwt>
</event>
<event>
 6    1  0.1956957E-002  0.3000000E+03  0.7818608E-02  0.1093470E+00
          1   -1    0    0  502    0  0.00000000000E+00  0.00000000000E+00  0.15450606491E+01  0.15450606491E+01  0.00000000000E+00 0.  1.
         13   -1    0    0    0    0 -0.00000000000E+00 -0.00000000000E+00 -0.10000000000E+04  0.10000000000E+04  0.00000000000E+00 0.  1.
    9000005    2    1    2  501    0 -0.92031915223E+01 -0.29002874174E+02 -0.81575243038E+03  0.81632607612E+03  0.32201619904E+01 0.  0.
         13    1    3    3    0    0 -0.67251839230E+01 -0.17014307437E+02 -0.46320567683E+03  0.46356683855E+03  0.00000000000E+00 0.  1.
          1    1    3    3  501    0 -0.24780075993E+01 -0.11988566737E+02 -0.35254675355E+03  0.35275923757E+03  0.00000000000E+00 0.  1.
         21    1    1    2  502  501  0.92031915223E+01  0.29002874174E+02 -0.18270250897E+03  0.18521898453E+03  0.00000000000E+00 0.  1.
<mgrwt>
<rscale>  1 0.30000000E+03</rscale>
<asrwt>0</asrwt>
<pdfrwt beam="1">  1        1 0.56184142E-02 0.30000000E+03</pdfrwt>
<pdfrwt beam="2">0</pdfrwt>
<totfact> 0.16886117E+03</totfact>
</mgrwt>
</event>
<event>
 6    1  0.1956957E-002  0.3000000E+03  0.7818608E-02  0.1093470E+00
          1   -1    0    0  502    0  0.00000000000E+00  0.00000000000E+00  0.79684928815E+01  0.79684928815E+01  0.00000000000E+00 0.  1.
         13   -1    0    0    0    0 -0.00000000000E+00 -0.00000000000E+00 -0.10000000000E+04  0.10000000000E+04  0.00000000000E+00 0.  1.
    9000005    2    1    2  501    0  0.56822428948E+02 -0.26226364520E+02 -0.85532039801E+03  0.85761378567E+03  0.34367846259E+01 0.  0.
         13    1    3    3    0    0  0.63532046988E+01 -0.28095899013E+01 -0.11065597402E+03  0.11087380931E+03  0.00000000000E+00 0.  1.
          3    1    3    3  501    0  0.50469224249E+02 -0.23416774619E+02 -0.74466442399E+03  0.74673997636E+03  0.00000000000E+00 0.  1.
         21    1    1    2  502  501 -0.56822428948E+02  0.26226364520E+02 -0.13671110911E+03  0.15035470721E+03  0.00000000000E+00 0.  1.
<mgrwt>
<rscale>  1 0.30000000E+03</rscale>
<asrwt>0</asrwt>
<pdfrwt beam="1">  1        1 0.28976399E-01 0.30000000E+03</pdfrwt>
<pdfrwt beam="2">0</pdfrwt>
<totfact> 0.18024364E+02</totfact>
</mgrwt>
</event>
<event>
 6    1  0.1956957E-002  0.3000000E+03  0.7818608E-02  0.1093470E+00
          1   -1    0    0  502    0  0.00000000000E+00  0.00000000000E+00  0.88045675003E+01  0.88045675003E+01  0.00000000000E+00 0.  1.
         13   -1    0    0    0    0 -0.00000000000E+00 -0.00000000000E+00 -0.10000000000E+04  0.10000000000E+04  0.00000000000E+00 0.  1.
    9000005    2    1    2  501    0  0.79091143712E+02  0.15166958751E+02 -0.75377315121E+03  0.75809600102E+03  0.70807932614E+01 0.  0.
         13    1    3    3    0    0  0.15497370870E+02  0.52797973857E+01 -0.13736155668E+03  0.13833380649E+03  0.00000000000E+00 0.  1.
          1    1    3    3  501    0  0.63593772842E+02  0.98871613658E+01 -0.61641159452E+03  0.61976219453E+03  0.00000000000E+00 0.  1.
         21    1    1    2  502  501 -0.79091143712E+02 -0.15166958751E+02 -0.23742228129E+03  0.25070856648E+03  0.00000000000E+00 0.  1.
<mgrwt>
<rscale>  1 0.30000000E+03</rscale>
<asrwt>0</asrwt>
<pdfrwt beam="1">  1        1 0.32016677E-01 0.30000000E+03</pdfrwt>
<pdfrwt beam="2">0</pdfrwt>
<totfact> 0.15813429E+02</totfact>
</mgrwt>
</event>
<event>
 6    1  0.1956957E-002  0.3000000E+03  0.7818608E-02  0.1093470E+00
          1   -1    0    0  502    0  0.00000000000E+00  0.00000000000E+00  0.28407937226E+01  0.28407937226E+01  0.00000000000E+00 0.  1.
         13   -1    0    0    0    0 -0.00000000000E+00 -0.00000000000E+00 -0.10000000000E+04  0.10000000000E+04  0.00000000000E+00 0.  1.
    9000005    2    1    2  501    0 -0.32204884524E+02  0.37412271631E+02 -0.68627829914E+03  0.68806504644E+03  0.43326208945E+01 0.  0.
         13    1    3    3    0    0 -0.21167276157E+02  0.27189634156E+02 -0.49193697627E+03  0.49314229022E+03  0.00000000000E+00 0.  1.
          1    1    3    3  501    0 -0.11037608367E+02  0.10222637475E+02 -0.19434132288E+03  0.19492275622E+03  0.00000000000E+00 0.  1.
         21    1    1    2  502  501  0.32204884524E+02 -0.37412271631E+02 -0.31088090713E+03  0.31477574728E+03  0.00000000000E+00 0.  1.
<mgrwt>
<rscale>  1 0.30000000E+03</rscale>
<asrwt>0</asrwt>
<pdfrwt beam="1">  1        1 0.10330181E-01 0.30000000E+03</pdfrwt>
<pdfrwt beam="2">0</pdfrwt>
<totfact> 0.72262373E+02</totfact>
</mgrwt>
</event>
<event>
 6    1  0.1956957E-002  0.3000000E+03  0.7818608E-02  0.1093470E+00
          1   -1    0    0  502    0  0.00000000000E+00  0.00000000000E+00  0.37570328906E+01  0.37570328906E+01  0.00000000000E+00 0.  1.
         13   -1    0    0    0    0 -0.00000000000E+00 -0.00000000000E+00 -0.10000000000E+04  0.10000000000E+04  0.00000000000E+00 0.  1.
    9000005    2    1    2  501    0 -0.50805473310E+01  0.37999150747E+02 -0.88961044690E+03  0.89044224222E+03  0.33003145060E+01 0.  0.
         13    1    3    3    0    0 -0.47560646359E+00  0.15556519831E+02 -0.36700433636E+03  0.36733419990E+03  0.00000000000E+00 0.  1.
          1    1    3    3  501    0 -0.46049408675E+01  0.22442630916E+02 -0.52260611054E+03  0.52310804232E+03  0.00000000000E+00 0.  1.
         21    1    1    2  502  501  0.50805473310E+01 -0.37999150747E+02 -0.10663252021E+03  0.11331479067E+03  0.00000000000E+00 0.  1.
<mgrwt>
<rscale>  1 0.30000000E+03</rscale>
<asrwt>0</asrwt>
<pdfrwt beam="1">  1        1 0.13661967E-01 0.30000000E+03</pdfrwt>
<pdfrwt beam="2">0</pdfrwt>
<totfact> 0.49259418E+02</totfact>
</mgrwt>
</event>
<event>
 6    1  0.1956957E-002  0.3000000E+03  0.7818608E-02  0.1093470E+00
          1   -1    0    0  502    0  0.00000000000E+00  0.00000000000E+00  0.32381803417E+01  0.32381803417E+01  0.00000000000E+00 0.  1.
         13   -1    0    0    0    0 -0.00000000000E+00 -0.00000000000E+00 -0.10000000000E+04  0.10000000000E+04  0.00000000000E+00 0.  1.
    9000005    2    1    2  501    0 -0.30424221722E+01  0.34292887820E+02 -0.89716548289E+03  0.89785939317E+03  0.77670927491E+01 0.  0.
         13    1    3    3    0    0 -0.23081120234E+01  0.34447186780E+02 -0.88181200303E+03  0.88248758901E+03  0.00000000000E+00 0.  1.
          1    1    3    3  501    0 -0.73431014883E+00 -0.15429895915E+00 -0.15353479858E+02  0.15371804166E+02  0.00000000000E+00 0.  1.
         21    1    1    2  502  501  0.30424221722E+01 -0.34292887820E+02 -0.99596336768E+02  0.10537878717E+03  0.00000000000E+00 0.  1.
<mgrwt>
<rscale>  1 0.30000000E+03</rscale>
<asrwt>0</asrwt>
<pdfrwt beam="1">  1        1 0.11775226E-01 0.30000000E+03</pdfrwt>
<pdfrwt beam="2">0</pdfrwt>
<totfact> 0.60362047E+02</totfact>
</mgrwt>
</event>
<event>
 6    1  0.1956957E-002  0.3000000E+03  0.7818608E-02  0.1093470E+00
          1   -1    0    0  502    0  0.00000000000E+00  0.00000000000E+00  0.16244250842E+01  0.16244250842E+01  0.00000000000E+00 0.  1.
         13   -1    0    0    0    0 -0.00000000000E+00 -0.00000000000E+00 -0.10000000000E+04  0.10000000000E+04  0.00000000000E+00 0.  1.
    9000005    2    1    2  501    0  0.16172335661E+02 -0.36233058517E+02 -0.41645721552E+03  0.41835488536E+03  0.31334923530E+01 0.  0.
         13    1    3    3    0    0  0.15847362007E+02 -0.33804018147E+02 -0.38770549648E+03  0.38949891210E+03  0.00000000000E+00 0.  1.
          3    1    3    3  501    0  0.32497365453E+00 -0.24290403693E+01 -0.28751719037E+02  0.28855973257E+02  0.00000000000E+00 0.  1.
         21    1    1    2  502  501 -0.16172335661E+02  0.36233058517E+02 -0.58191835940E+03  0.58326953973E+03  0.00000000000E+00 0.  1.
<mgrwt>
<rscale>  1 0.30000000E+03</rscale>
<asrwt>0</asrwt>
<pdfrwt beam="1">  1        1 0.59070128E-02 0.30000000E+03</pdfrwt>
<pdfrwt beam="2">0</pdfrwt>
<totfact> 0.15739624E+03</totfact>
</mgrwt>
</event>
<event>
 6    1  0.1956957E-002  0.3000000E+03  0.7818608E-02  0.1093470E+00
          1   -1    0    0  502    0  0.00000000000E+00  0.00000000000E+00  0.18333786921E+01  0.18333786921E+01  0.00000000000E+00 0.  1.
         13   -1    0    0    0    0 -0.00000000000E+00 -0.00000000000E+00 -0.10000000000E+04  0.10000000000E+04  0.00000000000E+00 0.  1.
    9000005    2    1    2  501    0  0.28822602199E+02  0.30555751000E+02 -0.59273427089E+03  0.59423089209E+03  0.34700018515E+01 0.  0.
         13    1    3    3    0    0  0.16407440785E+02  0.18546672224E+02 -0.32755781005E+03  0.32849246884E+03  0.00000000000E+00 0.  1.
          3    1    3    3  501    0  0.12415161415E+02  0.12009078777E+02 -0.26517646084E+03  0.26573842325E+03  0.00000000000E+00 0.  1.
         21    1    1    2  502  501 -0.28822602199E+02 -0.30555751000E+02 -0.40543235042E+03  0.40760248660E+03  0.00000000000E+00 0.  1.
<mgrwt>
<rscale>  1 0.30000000E+03</rscale>
<asrwt>0</asrwt>
<pdfrwt beam="1">  1        1 0.66668457E-02 0.30000000E+03</pdfrwt>
<pdfrwt beam="2">0</pdfrwt>
<totfact> 0.13284208E+03</totfact>
</mgrwt>
</event>
<event>
 6    1  0.1956957E-002  0.3000000E+03  0.7818608E-02  0.1093470E+00
          1   -1    0    0  502    0  0.00000000000E+00  0.00000000000E+00  0.37333173425E+01  0.37333173425E+01  0.00000000000E+00 0.  1.
         13   -1    0    0    0    0 -0.00000000000E+00 -0.00000000000E+00 -0.10000000000E+04  0.10000000000E+04  0.00000000000E+00 0.  1.
    9000005    2    1    2  501    0 -0.98057899653E+01 -0.39197002566E+02 -0.87437102111E+03  0.87531559726E+03  0.44892898808E+01 0.  0.
         13    1    3    3    0    0 -0.91548330167E+01 -0.38810681312E+02 -0.86146122390E+03  0.86238362707E+03  0.00000000000E+00 0.  1.
          1    1    3    3  501    0 -0.65095694862E+00 -0.38632125305E+00 -0.12909797210E+02  0.12931970193E+02  0.00000000000E+00 0.  1.
         21    1    1    2  502  501  0.98057899653E+01  0.39197002566E+02 -0.12189566155E+03  0.12841772008E+03  0.00000000000E+00 0.  1.
<mgrwt>
<rscale>  1 0.30000000E+03</rscale>
<asrwt>0</asrwt>
<pdfrwt beam="1">  1        1 0.13575728E-01 0.30000000E+03</pdfrwt>
<pdfrwt beam="2">0</pdfrwt>
<totfact> 0.49686482E+02</totfact>
</mgrwt>
</event>
<event>
 6    1  0.1956957E-002  0.3000000E+03  0.7818608E-02  0.1093470E+00
          1   -1    0    0  502    0  0.00000000000E+00  0.00000000000E+00  0.11900989229E+01  0.11900989229E+01  0.00000000000E+00 0.  1.
         13   -1    0    0    0    0 -0.00000000000E+00 -0.00000000000E+00 -0.10000000000E+04  0.10000000000E+04  0.00000000000E+00 0.  1.
    9000005    2    1    2  501    0 -0.32413986155E+02 -0.39426875884E+01 -0.64673575705E+03  0.64760501132E+03  0.76746305321E+01 0.  0.
         13    1    3    3    0    0 -0.82516193219E+01  0.16733570381E+01 -0.12815209629E+03  0.12842838132E+03  0.00000000000E+00 0.  1.
          3    1    3    3  501    0 -0.24162366833E+02 -0.56160446265E+01 -0.51858366076E+03  0.51917663000E+03  0.00000000000E+00 0.  1.
         21    1    1    2  502  501  0.32413986155E+02  0.39426875884E+01 -0.35207414402E+03  0.35358508760E+03  0.00000000000E+00 0.  1.
<mgrwt>
<rscale>  1 0.30000000E+03</rscale>
<asrwt>0</asrwt>
<pdfrwt beam="1">  1        1 0.43276416E-02 0.30000000E+03</pdfrwt>
<pdfrwt beam="2">0</pdfrwt>
<totfact> 0.24372519E+03</totfact>
</mgrwt>
</event>
<event>
 6    1  0.1956957E-002  0.3000000E+03  0.7818608E-02  0.1093470E+00
          1   -1    0    0  502    0  0.00000000000E+00  0.00000000000E+00  0.25000932539E+01  0.25000932539E+01  0.00000000000E+00 0.  1.
         13   -1    0    0    0    0 -0.00000000000E+00 -0.00000000000E+00 -0.10000000000E+04  0.10000000000E+04  0.00000000000E+00 0.  1.
    9000005    2    1    2  501    0  0.19274729760E+02 -0.44596738311E+02 -0.61544982703E+03  0.61737329896E+03  0.33039971106E+01 0.  0.
         13    1    3    3    0    0  0.12041441407E+02 -0.31676620136E+02 -0.42992375469E+03  0.43125727752E+03  0.00000000000E+00 0.  1.
          3    1    3    3  501    0  0.72332883529E+01 -0.12920118175E+02 -0.18552607234E+03  0.18611602143E+03  0.00000000000E+00 0.  1.
         21    1    1    2  502  501 -0.19274729760E+02  0.44596738311E+02 -0.38205007971E+03  0.38512679430E+03  0.00000000000E+00 0.  1.
<mgrwt>
<rscale>  1 0.30000000E+03</rscale>
<asrwt>0</asrwt>
<pdfrwt beam="1">  1        1 0.90912674E-02 0.30000000E+03</pdfrwt>
<pdfrwt beam="2">0</pdfrwt>
<totfact> 0.86222881E+02</totfact>
</mgrwt>
</event>
<event>
 6    1  0.1956957E-002  0.3000000E+03  0.7818608E-02  0.1093470E+00
          1   -1    0    0  502    0  0.00000000000E+00  0.00000000000E+00  0.10674348783E+01  0.10674348783E+01  0.00000000000E+00 0.  1.
         13   -1    0    0    0    0 -0.00000000000E+00 -0.00000000000E+00 -0.10000000000E+04  0.10000000000E+04  0.00000000000E+00 0.  1.
    9000005    2    1    2  501    0  0.27346194651E+02  0.13918208812E+02 -0.33238398621E+03  0.33381295647E+03  0.32318298250E+01 0.  0.
         13    1    3    3    0    0  0.23849596716E+02  0.10945919592E+02 -0.28736183136E+03  0.28855751340E+03  0.00000000000E+00 0.  1.
          1    1    3    3  501    0  0.34965979354E+01  0.29722892202E+01 -0.45022154849E+02  0.45255443071E+02  0.00000000000E+00 0.  1.
         21    1    1    2  502  501 -0.27346194651E+02 -0.13918208812E+02 -0.66654857892E+03  0.66725447841E+03  0.00000000000E+00 0.  1.
<mgrwt>
<rscale>  1 0.30000000E+03</rscale>
<asrwt>0</asrwt>
<pdfrwt beam="1">  1        1 0.38815896E-02 0.30000000E+03</pdfrwt>
<pdfrwt beam="2">0</pdfrwt>
<totfact> 0.28406212E+03</totfact>
</mgrwt>
</event>
<event>
 6    1  0.1956957E-002  0.3000000E+03  0.7818608E-02  0.1093470E+00
          1   -1    0    0  502    0  0.00000000000E+00  0.00000000000E+00  0.11404688355E+02  0.11404688355E+02  0.00000000000E+00 0.  1.
         13   -1    0    0    0    0 -0.00000000000E+00 -0.00000000000E+00 -0.10000000000E+04  0.10000000000E+04  0.00000000000E+00 0.  1.
    9000005    2    1    2  501    0 -0.64005433645E+02  0.73638976508E+02 -0.69972551252E+03  0.70650281030E+03  0.33216995652E+01 0.  0.
         13    1    3    3    0    0 -0.49959613410E+02  0.57550727640E+02 -0.53639569978E+03  0.54178260951E+03  0.00000000000E+00 0.  1.
          3    1    3    3  501    0 -0.14045820235E+02  0.16088248869E+02 -0.16332981275E+03  0.16472020079E+03  0.00000000000E+00 0.  1.
         21    1    1    2  502  501  0.64005433645E+02 -0.73638976508E+02 -0.28886979912E+03  0.30490187806E+03  0.00000000000E+00 0.  1.
<mgrwt>
<rscale>  1 0.30000000E+03</rscale>
<asrwt>0</asrwt>
<pdfrwt beam="1">  1        1 0.41471681E-01 0.30000000E+03</pdfrwt>
<pdfrwt beam="2">0</pdfrwt>
<totfact> 0.11275129E+02</totfact>
</mgrwt>
</event>
<event>
 6    1  0.1956957E-002  0.3000000E+03  0.7818608E-02  0.1093470E+00
          1   -1    0    0  502    0  0.00000000000E+00  0.00000000000E+00  0.36003067723E+01  0.36003067723E+01  0.00000000000E+00 0.  1.
         13   -1    0    0    0    0 -0.00000000000E+00 -0.00000000000E+00 -0.10000000000E+04  0.10000000000E+04  0.00000000000E+00 0.  1.
    9000005    2    1    2  501    0  0.38982470381E+02 -0.42962136573E+02 -0.37177644171E+03  0.37628891319E+03  0.32008446939E+01 0.  0.
         13    1    3    3    0    0  0.16392214847E+02 -0.20165883167E+02 -0.17112487112E+03  0.17308694078E+03  0.00000000000E+00 0.  1.
          3    1    3    3  501    0  0.22590255534E+02 -0.22796253406E+02 -0.20065157059E+03  0.20320197241E+03  0.00000000000E+00 0.  1.
         21    1    1    2  502  501 -0.38982470381E+02  0.42962136573E+02 -0.62462325152E+03  0.62731139358E+03  0.00000000000E+00 0.  1.
<mgrwt>
<rscale>  1 0.30000000E+03</rscale>
<asrwt>0</asrwt>
<pdfrwt beam="1">  1        1 0.13092052E-01 0.30000000E+03</pdfrwt>
<pdfrwt beam="2">0</pdfrwt>
<totfact> 0.52208061E+02</totfact>
</mgrwt>
</event>
<event>
 6    1  0.1956957E-002  0.3000000E+03  0.7818608E-02  0.1093470E+00
          1   -1    0    0  502    0  0.00000000000E+00  0.00000000000E+00  0.41076005957E+01  0.41076005957E+01  0.00000000000E+00 0.  1.
         13   -1    0    0    0    0 -0.00000000000E+00 -0.00000000000E+00 -0.10000000000E+04  0.10000000000E+04  0.00000000000E+00 0.  1.
    9000005    2    1    2  501    0 -0.23322247221E+02 -0.56357235434E+02 -0.64962719500E+03  0.65251172892E+03  0.59998906689E+01 0.  0.
         13    1    3    3    0    0 -0.12045085389E+02 -0.27286382965E+02 -0.28660495247E+03  0.28815278856E+03  0.00000000000E+00 0.  1.
          3    1    3    3  501    0 -0.11277161832E+02 -0.29070852469E+02 -0.36302224253E+03  0.36435894035E+03  0.00000000000E+00 0.  1.
         21    1    1    2  502  501  0.23322247221E+02  0.56357235434E+02 -0.34626520440E+03  0.35159587168E+03  0.00000000000E+00 0.  1.
<mgrwt>
<rscale>  1 0.30000000E+03</rscale>
<asrwt>0</asrwt>
<pdfrwt beam="1">  1        1 0.14936761E-01 0.30000000E+03</pdfrwt>
<pdfrwt beam="2">0</pdfrwt>
<totfact> 0.43630025E+02</totfact>
</mgrwt>
</event>
<event>
 6    1  0.1956957E-002  0.3000000E+03  0.7818608E-02  0.1093470E+00
          1   -1    0    0  502    0  0.00000000000E+00  0.00000000000E+00  0.57883104751E+01  0.57883104751E+01  0.00000000000E+00 0.  1.
         13   -1    0    0    0    0 -0.00000000000E+00 -0.00000000000E+00 -0.10000000000E+04  0.10000000000E+04  0.00000000000E+00 0.  1.
    9000005    2    1    2  501    0 -0.45086181280E+02 -0.24775340494E+01 -0.90178604021E+03  0.90292236583E+03  0.34401267711E+01 0.  0.
         13    1    3    3    0    0 -0.40643002984E+02 -0.14823002160E+01 -0.79579027213E+03  0.79682884494E+03  0.00000000000E+00 0.  1.
          3    1    3    3  501    0 -0.44431782957E+01 -0.99523383332E+00 -0.10599576808E+03  0.10609352089E+03  0.00000000000E+00 0.  1.
         21    1    1    2  502  501  0.45086181280E+02  0.24775340494E+01 -0.92425649310E+02  0.10286594465E+03  0.00000000000E+00 0.  1.
<mgrwt>
<rscale>  1 0.30000000E+03</rscale>
<asrwt>0</asrwt>
<pdfrwt beam="1">  1        1 0.21048446E-01 0.30000000E+03</pdfrwt>
<pdfrwt beam="2">0</pdfrwt>
<totfact> 0.27500840E+02</totfact>
</mgrwt>
</event>
<event>
 6    1  0.1956957E-002  0.3000000E+03  0.7818608E-02  0.1093470E+00
          1   -1    0    0  502    0  0.00000000000E+00  0.00000000000E+00  0.11349469476E+01  0.11349469476E+01  0.00000000000E+00 0.  1.
         13   -1    0    0    0    0 -0.00000000000E+00 -0.00000000000E+00 -0.10000000000E+04  0.10000000000E+04  0.00000000000E+00 0.  1.
    9000005    2    1    2  501    0 -0.16046474237E+02  0.27846968806E+02 -0.64741524197E+03  0.64821864990E+03  0.28248088015E+01 0.  0.
         13    1    3    3    0    0 -0.83989548091E+01  0.17180595950E+02 -0.39358310029E+03  0.39404742374E+03  0.00000000000E+00 0.  1.
          3    1    3    3  501    0 -0.76475194280E+01  0.10666372856E+02 -0.25383214167E+03  0.25417122617E+03  0.00000000000E+00 0.  1.
         21    1    1    2  502  501  0.16046474237E+02 -0.27846968806E+02 -0.35144981108E+03  0.35291629704E+03  0.00000000000E+00 0.  1.
<mgrwt>
<rscale>  1 0.30000000E+03</rscale>
<asrwt>0</asrwt>
<pdfrwt beam="1">  1        1 0.41270885E-02 0.30000000E+03</pdfrwt>
<pdfrwt beam="2">0</pdfrwt>
<totfact> 0.26056393E+03</totfact>
</mgrwt>
</event>
<event>
 6    1  0.1956957E-002  0.3000000E+03  0.7818608E-02  0.1093470E+00
          1   -1    0    0  502    0  0.00000000000E+00  0.00000000000E+00  0.13252686337E+02  0.13252686337E+02  0.00000000000E+00 0.  1.
         13   -1    0    0    0    0 -0.00000000000E+00 -0.00000000000E+00 -0.10000000000E+04  0.10000000000E+04  0.00000000000E+00 0.  1.
    9000005    2    1    2  501    0  0.65959313291E+02  0.69550618898E+01 -0.90743058331E+03  0.90985951630E+03  0.38822657247E+01 0.  0.
         13    1    3    3    0    0  0.10025852916E+02  0.20780289610E+01 -0.15371078472E+03  0.15405142411E+03  0.00000000000E+00 0.  1.
          1    1    3    3  501    0  0.55933460375E+02  0.48770329288E+01 -0.75371979859E+03  0.75580809219E+03  0.00000000000E+00 0.  1.
         21    1    1    2  502  501 -0.65959313291E+02 -0.69550618898E+01 -0.79316730355E+02  0.10339317004E+03  0.00000000000E+00 0.  1.
<mgrwt>
<rscale>  1 0.30000000E+03</rscale>
<asrwt>0</asrwt>
<pdfrwt beam="1">  1        1 0.48191688E-01 0.30000000E+03</pdfrwt>
<pdfrwt beam="2">0</pdfrwt>
<totfact> 0.92621773E+01</totfact>
</mgrwt>
</event>
<event>
 6    1  0.1956957E-002  0.3000000E+03  0.7818608E-02  0.1093470E+00
          1   -1    0    0  502    0  0.00000000000E+00  0.00000000000E+00  0.89913814145E+01  0.89913814145E+01  0.00000000000E+00 0.  1.
         13   -1    0    0    0    0 -0.00000000000E+00 -0.00000000000E+00 -0.10000000000E+04  0.10000000000E+04  0.00000000000E+00 0.  1.
    9000005    2    1    2  501    0 -0.20529607266E+02 -0.26629832140E+02 -0.96717669468E+03  0.96777762969E+03  0.56717775564E+01 0.  0.
         13    1    3    3    0    0 -0.20251953042E+02 -0.25711886037E+02 -0.90152789854E+03  0.90212182910E+03  0.00000000000E+00 0.  1.
          1    1    3    3  501    0 -0.27765422397E+00 -0.91794610267E+00 -0.65648796134E+02  0.65655800587E+02  0.00000000000E+00 0.  1.
         21    1    1    2  502  501  0.20529607266E+02  0.26629832140E+02 -0.23831923907E+02  0.41213751727E+02  0.00000000000E+00 0.  1.
<mgrwt>
<rscale>  1 0.30000000E+03</rscale>
<asrwt>0</asrwt>
<pdfrwt beam="1">  1        1 0.32696001E-01 0.30000000E+03</pdfrwt>
<pdfrwt beam="2">0</pdfrwt>
<totfact> 0.15384113E+02</totfact>
</mgrwt>
</event>
<event>
 6    1  0.1956957E-002  0.3000000E+03  0.7818608E-02  0.1093470E+00
          1   -1    0    0  502    0  0.00000000000E+00  0.00000000000E+00  0.40066795469E+01  0.40066795469E+01  0.00000000000E+00 0.  1.
         13   -1    0    0    0    0 -0.00000000000E+00 -0.00000000000E+00 -0.10000000000E+04  0.10000000000E+04  0.00000000000E+00 0.  1.
    9000005    2    1    2  501    0 -0.30062586845E+02  0.18930348059E+01 -0.93945132427E+03  0.93994155611E+03  0.37410589592E+01 0.  0.
         13    1    3    3    0    0 -0.19382347945E+02  0.28632839853E+01 -0.58472449159E+03  0.58505265137E+03  0.00000000000E+00 0.  1.
          3    1    3    3  501    0 -0.10680238899E+02 -0.97024917946E+00 -0.35472683268E+03  0.35488890474E+03  0.00000000000E+00 0.  1.
         21    1    1    2  502  501  0.30062586845E+02 -0.18930348059E+01 -0.56541996183E+02  0.64065123436E+02  0.00000000000E+00 0.  1.
<mgrwt>
<rscale>  1 0.30000000E+03</rscale>
<asrwt>0</asrwt>
<pdfrwt beam="1">  1        1 0.14569775E-01 0.30000000E+03</pdfrwt>
<pdfrwt beam="2">0</pdfrwt>
<totfact> 0.45129614E+02</totfact>
</mgrwt>
</event>
<event>
 6    1  0.1956957E-002  0.3000000E+03  0.7818608E-02  0.1093470E+00
          3   -1    0    0  502    0  0.00000000000E+00  0.00000000000E+00  0.29094309746E+01  0.29094309746E+01  0.00000000000E+00 0.  1.
         13   -1    0    0    0    0 -0.00000000000E+00 -0.00000000000E+00 -0.10000000000E+04  0.10000000000E+04  0.00000000000E+00 0.  1.
    9000005    2    1    2  501    0  0.21140578478E+02 -0.48506573180E+02 -0.59393932437E+03  0.59630060450E+03  0.32677505579E+01 0.  0.
         13    1    3    3    0    0  0.17484333268E+02 -0.41300613357E+02 -0.51472934471E+03  0.51667953402E+03  0.00000000000E+00 0.  1.
          1    1    3    3  501    0  0.36562452093E+01 -0.72059598235E+01 -0.79209979659E+02  0.79621070475E+02  0.00000000000E+00 0.  1.
         21    1    1    2  502  501 -0.21140578478E+02  0.48506573180E+02 -0.40315124466E+03  0.40660882647E+03  0.00000000000E+00 0.  1.
<mgrwt>
<rscale>  1 0.30000000E+03</rscale>
<asrwt>0</asrwt>
<pdfrwt beam="1">  1        3 0.10579771E-01 0.30000000E+03</pdfrwt>
<pdfrwt beam="2">0</pdfrwt>
<totfact> 0.30083723E+02</totfact>
</mgrwt>
</event>
<event>
 6    1  0.1956957E-002  0.3000000E+03  0.7818608E-02  0.1093470E+00
          1   -1    0    0  502    0  0.00000000000E+00  0.00000000000E+00  0.67404312552E+01  0.67404312552E+01  0.00000000000E+00 0.  1.
         13   -1    0    0    0    0 -0.00000000000E+00 -0.00000000000E+00 -0.10000000000E+04  0.10000000000E+04  0.00000000000E+00 0.  1.
    9000005    2    1    2  501    0 -0.69131822432E+02 -0.40732783057E+02 -0.60238373236E+03  0.60771375551E+03  0.33880870043E+01 0.  0.
         13    1    3    3    0    0 -0.59597828904E+02 -0.36137406859E+02 -0.52835834830E+03  0.53293560362E+03  0.00000000000E+00 0.  1.
          1    1    3    3  501    0 -0.95339935280E+01 -0.45953761974E+01 -0.74025384059E+02  0.74778151890E+02  0.00000000000E+00 0.  1.
         21    1    1    2  502  501  0.69131822432E+02  0.40732783057E+02 -0.39087583638E+03  0.39902667574E+03  0.00000000000E+00 0.  1.
<mgrwt>
<rscale>  1 0.30000000E+03</rscale>
<asrwt>0</asrwt>
<pdfrwt beam="1">  1        1 0.24510711E-01 0.30000000E+03</pdfrwt>
<pdfrwt beam="2">0</pdfrwt>
<totfact> 0.22472984E+02</totfact>
</mgrwt>
</event>
<event>
 6    1  0.1956957E-002  0.3000000E+03  0.7818608E-02  0.1093470E+00
          3   -1    0    0  502    0  0.00000000000E+00  0.00000000000E+00  0.13886403087E+01  0.13886403087E+01  0.00000000000E+00 0.  1.
         13   -1    0    0    0    0 -0.00000000000E+00 -0.00000000000E+00 -0.10000000000E+04  0.10000000000E+04  0.00000000000E+00 0.  1.
    9000005    2    1    2  501    0  0.10418388855E+02 -0.30707469378E+02 -0.74499094738E+03  0.74570366804E+03  0.33101890965E+01 0.  0.
         13    1    3    3    0    0  0.23791248196E+01 -0.95462320319E+01 -0.25618582817E+03  0.25637466594E+03  0.00000000000E+00 0.  1.
          3    1    3    3  501    0  0.80392640351E+01 -0.21161237346E+02 -0.48880511920E+03  0.48932900210E+03  0.00000000000E+00 0.  1.
         21    1    1    2  502  501 -0.10418388855E+02  0.30707469378E+02 -0.25362041232E+03  0.25568497227E+03  0.00000000000E+00 0.  1.
<mgrwt>
<rscale>  1 0.30000000E+03</rscale>
<asrwt>0</asrwt>
<pdfrwt beam="1">  1        3 0.50496118E-02 0.30000000E+03</pdfrwt>
<pdfrwt beam="2">0</pdfrwt>
<totfact> 0.97442708E+02</totfact>
</mgrwt>
</event>
<event>
 6    1  0.1956957E-002  0.3000000E+03  0.7818608E-02  0.1093470E+00
          1   -1    0    0  502    0  0.00000000000E+00  0.00000000000E+00  0.77641254176E+01  0.77641254176E+01  0.00000000000E+00 0.  1.
         13   -1    0    0    0    0 -0.00000000000E+00 -0.00000000000E+00 -0.10000000000E+04  0.10000000000E+04  0.00000000000E+00 0.  1.
    9000005    2    1    2  501    0  0.20164202142E+02 -0.69544283743E+02 -0.78311748276E+03  0.78646454510E+03  0.32382787966E+01 0.  0.
         13    1    3    3    0    0  0.44801447061E+01 -0.20732595858E+02 -0.22826719497E+03  0.22925057148E+03  0.00000000000E+00 0.  1.
          1    1    3    3  501    0  0.15684057436E+02 -0.48811687885E+02 -0.55485028779E+03  0.55721397362E+03  0.00000000000E+00 0.  1.
         21    1    1    2  502  501 -0.20164202142E+02  0.69544283743E+02 -0.20911839182E+03  0.22129958032E+03  0.00000000000E+00 0.  1.
<mgrwt>
<rscale>  1 0.30000000E+03</rscale>
<asrwt>0</asrwt>
<pdfrwt beam="1">  1        1 0.28233243E-01 0.30000000E+03</pdfrwt>
<pdfrwt beam="2">0</pdfrwt>
<totfact> 0.18650170E+02</totfact>
</mgrwt>
</event>
<event>
 6    1  0.1956957E-002  0.3000000E+03  0.7818608E-02  0.1093470E+00
          1   -1    0    0  502    0  0.00000000000E+00  0.00000000000E+00  0.10914797615E+01  0.10914797615E+01  0.00000000000E+00 0.  1.
         13   -1    0    0    0    0 -0.00000000000E+00 -0.00000000000E+00 -0.10000000000E+04  0.10000000000E+04  0.00000000000E+00 0.  1.
    9000005    2    1    2  501    0 -0.22576013751E+02  0.23283906068E+02 -0.59061831646E+03  0.59151522657E+03  0.29070336839E+01 0.  0.
         13    1    3    3    0    0 -0.87993633704E+01  0.10432163503E+02 -0.22869982404E+03  0.22910667460E+03  0.00000000000E+00 0.  1.
          3    1    3    3  501    0 -0.13776650380E+02  0.12851742565E+02 -0.36191849243E+03  0.36240855197E+03  0.00000000000E+00 0.  1.
         21    1    1    2  502  501  0.22576013751E+02 -0.23283906068E+02 -0.40829020378E+03  0.40957625319E+03  0.00000000000E+00 0.  1.
<mgrwt>
<rscale>  1 0.30000000E+03</rscale>
<asrwt>0</asrwt>
<pdfrwt beam="1">  1        1 0.39690257E-02 0.30000000E+03</pdfrwt>
<pdfrwt beam="2">0</pdfrwt>
<totfact> 0.27529186E+03</totfact>
</mgrwt>
</event>
<event>
 6    1  0.1956957E-002  0.3000000E+03  0.7818608E-02  0.1093470E+00
          1   -1    0    0  502    0  0.00000000000E+00  0.00000000000E+00  0.27464842499E+01  0.27464842499E+01  0.00000000000E+00 0.  1.
         13   -1    0    0    0    0 -0.00000000000E+00 -0.00000000000E+00 -0.10000000000E+04  0.10000000000E+04  0.00000000000E+00 0.  1.
    9000005    2    1    2  501    0 -0.47715794928E+02  0.51787425246E+01 -0.69933521157E+03  0.70098675793E+03  0.30133369350E+01 0.  0.
         13    1    3    3    0    0 -0.18627366347E+02  0.57362432149E+00 -0.27522381360E+03  0.27585404727E+03  0.00000000000E+00 0.  1.
          3    1    3    3  501    0 -0.29088428581E+02  0.46051182031E+01 -0.42411139797E+03  0.42513271066E+03  0.00000000000E+00 0.  1.
         21    1    1    2  502  501  0.47715794928E+02 -0.51787425246E+01 -0.29791830418E+03  0.30175972632E+03  0.00000000000E+00 0.  1.
<mgrwt>
<rscale>  1 0.30000000E+03</rscale>
<asrwt>0</asrwt>
<pdfrwt beam="1">  1        1 0.99872365E-02 0.30000000E+03</pdfrwt>
<pdfrwt beam="2">0</pdfrwt>
<totfact> 0.75707007E+02</totfact>
</mgrwt>
</event>
<event>
 6    1  0.1956957E-002  0.3000000E+03  0.7818608E-02  0.1093470E+00
          3   -1    0    0  502    0  0.00000000000E+00  0.00000000000E+00  0.28650170765E+01  0.28650170765E+01  0.00000000000E+00 0.  1.
         13   -1    0    0    0    0 -0.00000000000E+00 -0.00000000000E+00 -0.10000000000E+04  0.10000000000E+04  0.00000000000E+00 0.  1.
    9000005    2    1    2  501    0  0.23268748927E+02 -0.48057717561E+02 -0.47175579492E+03  0.47477954096E+03  0.33322040245E+01 0.  0.
         13    1    3    3    0    0  0.13961264870E+02 -0.27053723429E+02 -0.25584357779E+03  0.25764851477E+03  0.00000000000E+00 0.  1.
          3    1    3    3  501    0  0.93074840563E+01 -0.21003994132E+02 -0.21591221713E+03  0.21713102619E+03  0.00000000000E+00 0.  1.
         21    1    1    2  502  501 -0.23268748927E+02  0.48057717561E+02 -0.52537918801E+03  0.52808547612E+03  0.00000000000E+00 0.  1.
<mgrwt>
<rscale>  1 0.30000000E+03</rscale>
<asrwt>0</asrwt>
<pdfrwt beam="1">  1        3 0.10418266E-01 0.30000000E+03</pdfrwt>
<pdfrwt beam="2">0</pdfrwt>
<totfact> 0.30861761E+02</totfact>
</mgrwt>
</event>
<event>
 6    1  0.1956957E-002  0.3000000E+03  0.7818608E-02  0.1093470E+00
          1   -1    0    0  502    0  0.00000000000E+00  0.00000000000E+00  0.29146125643E+01  0.29146125643E+01  0.00000000000E+00 0.  1.
         13   -1    0    0    0    0 -0.00000000000E+00 -0.00000000000E+00 -0.10000000000E+04  0.10000000000E+04  0.00000000000E+00 0.  1.
    9000005    2    1    2  501    0  0.88565983718E+01 -0.52093660619E+02 -0.59961374218E+03  0.60194591354E+03  0.31708374519E+01 0.  0.
         13    1    3    3    0    0  0.63537652076E+01 -0.40580311400E+02 -0.47917087220E+03  0.48092812017E+03  0.00000000000E+00 0.  1.
          1    1    3    3  501    0  0.25028331642E+01 -0.11513349219E+02 -0.12044286998E+03  0.12101779337E+03  0.00000000000E+00 0.  1.
         21    1    1    2  502  501 -0.88565983718E+01  0.52093660619E+02 -0.39747164526E+03  0.40096869902E+03  0.00000000000E+00 0.  1.
<mgrwt>
<rscale>  1 0.30000000E+03</rscale>
<asrwt>0</asrwt>
<pdfrwt beam="1">  1        1 0.10598613E-01 0.30000000E+03</pdfrwt>
<pdfrwt beam="2">0</pdfrwt>
<totfact> 0.69753825E+02</totfact>
</mgrwt>
</event>
<event>
 6    1  0.1956957E-002  0.3000000E+03  0.7818608E-02  0.1093470E+00
          1   -1    0    0  502    0  0.00000000000E+00  0.00000000000E+00  0.32352485714E+02  0.32352485714E+02  0.00000000000E+00 0.  1.
         13   -1    0    0    0    0 -0.00000000000E+00 -0.00000000000E+00 -0.10000000000E+04  0.10000000000E+04  0.00000000000E+00 0.  1.
    9000005    2    1    2  501    0 -0.13634829449E+03  0.16047642788E+02 -0.81727515836E+03  0.82873463366E+03  0.37449026665E+01 0.  0.
         13    1    3    3    0    0 -0.10021636696E+03  0.11203259161E+02 -0.59081656509E+03  0.59936053157E+03  0.00000000000E+00 0.  1.
          3    1    3    3  501    0 -0.36131927532E+02  0.48443836270E+01 -0.22645859327E+03  0.22937410208E+03  0.00000000000E+00 0.  1.
         21    1    1    2  502  501  0.13634829449E+03 -0.16047642788E+02 -0.15037235593E+03  0.20361785206E+03  0.00000000000E+00 0.  1.
<mgrwt>
<rscale>  1 0.30000000E+03</rscale>
<asrwt>0</asrwt>
<pdfrwt beam="1">  1        1 0.11764565E+00 0.30000000E+03</pdfrwt>
<pdfrwt beam="2">0</pdfrwt>
<totfact> 0.26809624E+01</totfact>
</mgrwt>
</event>
<event>
 6    1  0.1956957E-002  0.3000000E+03  0.7818608E-02  0.1093470E+00
          1   -1    0    0  502    0  0.00000000000E+00  0.00000000000E+00  0.35621421270E+01  0.35621421270E+01  0.00000000000E+00 0.  1.
         13   -1    0    0    0    0 -0.00000000000E+00 -0.00000000000E+00 -0.10000000000E+04  0.10000000000E+04  0.00000000000E+00 0.  1.
    9000005    2    1    2  501    0 -0.26940496560E+02  0.53146432902E+02 -0.47881931861E+03  0.48252540074E+03  0.35339498221E+01 0.  0.
         13    1    3    3    0    0 -0.17308756010E+02  0.37507909410E+02 -0.32663714936E+03  0.32923891575E+03  0.00000000000E+00 0.  1.
          3    1    3    3  501    0 -0.96317405501E+01  0.15638523492E+02 -0.15218216925E+03  0.15328648499E+03  0.00000000000E+00 0.  1.
         21    1    1    2  502  501  0.26940496560E+02 -0.53146432902E+02 -0.51761853926E+03  0.52103674139E+03  0.00000000000E+00 0.  1.
<mgrwt>
<rscale>  1 0.30000000E+03</rscale>
<asrwt>0</asrwt>
<pdfrwt beam="1">  1        1 0.12953271E-01 0.30000000E+03</pdfrwt>
<pdfrwt beam="2">0</pdfrwt>
<totfact> 0.52973680E+02</totfact>
</mgrwt>
</event>
<event>
 6    1  0.1956957E-002  0.3000000E+03  0.7818608E-02  0.1093470E+00
          1   -1    0    0  502    0  0.00000000000E+00  0.00000000000E+00  0.11321268911E+01  0.11321268911E+01  0.00000000000E+00 0.  1.
         13   -1    0    0    0    0 -0.00000000000E+00 -0.00000000000E+00 -0.10000000000E+04  0.10000000000E+04  0.00000000000E+00 0.  1.
    9000005    2    1    2  501    0  0.31354655621E+02 -0.55419764399E+01 -0.34046885307E+03  0.34196363741E+03  0.25022930241E+01 0.  0.
         13    1    3    3    0    0  0.14485793870E+02 -0.12992382072E+01 -0.15394442901E+03  0.15462992423E+03  0.00000000000E+00 0.  1.
          1    1    3    3  501    0  0.16868861750E+02 -0.42427382328E+01 -0.18652442406E+03  0.18733371318E+03  0.00000000000E+00 0.  1.
         21    1    1    2  502  501 -0.31354655621E+02  0.55419764399E+01 -0.65839902004E+03  0.65916848948E+03  0.00000000000E+00 0.  1.
<mgrwt>
<rscale>  1 0.30000000E+03</rscale>
<asrwt>0</asrwt>
<pdfrwt beam="1">  1        1 0.41168337E-02 0.30000000E+03</pdfrwt>
<pdfrwt beam="2">0</pdfrwt>
<totfact> 0.26147825E+03</totfact>
</mgrwt>
</event>
<event>
 6    1  0.1956957E-002  0.3000000E+03  0.7818608E-02  0.1093470E+00
          3   -1    0    0  502    0  0.00000000000E+00  0.00000000000E+00  0.11385281420E+01  0.11385281420E+01  0.00000000000E+00 0.  1.
         13   -1    0    0    0    0 -0.00000000000E+00 -0.00000000000E+00 -0.10000000000E+04  0.10000000000E+04  0.00000000000E+00 0.  1.
    9000005    2    1    2  501    0 -0.21911790698E+02  0.25231369289E+02 -0.45439070652E+03  0.45564319097E+03  0.48015350064E+01 0.  0.
         13    1    3    3    0    0 -0.69295519683E+01  0.11466756082E+02 -0.17324938456E+03  0.17376666664E+03  0.00000000000E+00 0.  1.
          1    1    3    3  501    0 -0.14982238729E+02  0.13764613207E+02 -0.28114132197E+03  0.28187652433E+03  0.00000000000E+00 0.  1.
         21    1    1    2  502  501  0.21911790698E+02 -0.25231369289E+02 -0.54447076534E+03  0.54549533717E+03  0.00000000000E+00 0.  1.
<mgrwt>
<rscale>  1 0.30000000E+03</rscale>
<asrwt>0</asrwt>
<pdfrwt beam="1">  1        3 0.41401111E-02 0.30000000E+03</pdfrwt>
<pdfrwt beam="2">0</pdfrwt>
<totfact> 0.13233953E+03</totfact>
</mgrwt>
</event>
<event>
 6    1  0.1956957E-002  0.3000000E+03  0.7818608E-02  0.1093470E+00
          1   -1    0    0  502    0  0.00000000000E+00  0.00000000000E+00  0.17123243998E+01  0.17123243998E+01  0.00000000000E+00 0.  1.
         13   -1    0    0    0    0 -0.00000000000E+00 -0.00000000000E+00 -0.10000000000E+04  0.10000000000E+04  0.00000000000E+00 0.  1.
    9000005    2    1    2  501    0  0.30892364122E+01 -0.38454297664E+02 -0.67917881311E+03  0.68027999480E+03  0.29554628544E+01 0.  0.
         13    1    3    3    0    0  0.34895888818E+01 -0.33176069899E+02 -0.59614898070E+03  0.59708159914E+03  0.00000000000E+00 0.  1.
          1    1    3    3  501    0 -0.40035246958E+00 -0.52782277659E+01 -0.83029832414E+02  0.83198395664E+02  0.00000000000E+00 0.  1.
         21    1    1    2  502  501 -0.30892364122E+01  0.38454297664E+02 -0.31910886249E+03  0.32143232960E+03  0.00000000000E+00 0.  1.
<mgrwt>
<rscale>  1 0.30000000E+03</rscale>
<asrwt>0</asrwt>
<pdfrwt beam="1">  1        1 0.62266473E-02 0.30000000E+03</pdfrwt>
<pdfrwt beam="2">0</pdfrwt>
<totfact> 0.14618232E+03</totfact>
</mgrwt>
</event>
<event>
 6    1  0.1956957E-002  0.3000000E+03  0.7818608E-02  0.1093470E+00
          1   -1    0    0  502    0  0.00000000000E+00  0.00000000000E+00  0.37413313416E+01  0.37413313416E+01  0.00000000000E+00 0.  1.
         13   -1    0    0    0    0 -0.00000000000E+00 -0.00000000000E+00 -0.10000000000E+04  0.10000000000E+04  0.00000000000E+00 0.  1.
    9000005    2    1    2  501    0  0.25163517329E+02  0.46254957115E+02 -0.75319840378E+03  0.75504268634E+03  0.29831324633E+01 0.  0.
         13    1    3    3    0    0  0.23276995432E+02  0.43460026198E+02 -0.69471149625E+03  0.69645865306E+03  0.00000000000E+00 0.  1.
          3    1    3    3  501    0  0.18865218965E+01  0.27949309167E+01 -0.58486907528E+02  0.58584033285E+02  0.00000000000E+00 0.  1.
         21    1    1    2  502  501 -0.25163517329E+02 -0.46254957115E+02 -0.24306026488E+03  0.24869864500E+03  0.00000000000E+00 0.  1.
<mgrwt>
<rscale>  1 0.30000000E+03</rscale>
<asrwt>0</asrwt>
<pdfrwt beam="1">  1        1 0.13604870E-01 0.30000000E+03</pdfrwt>
<pdfrwt beam="2">0</pdfrwt>
<totfact> 0.49541438E+02</totfact>
</mgrwt>
</event>
<event>
 6    1  0.1956957E-002  0.3000000E+03  0.7818608E-02  0.1093470E+00
          1   -1    0    0  502    0  0.00000000000E+00  0.00000000000E+00  0.13780987108E+01  0.13780987108E+01  0.00000000000E+00 0.  1.
         13   -1    0    0    0    0 -0.00000000000E+00 -0.00000000000E+00 -0.10000000000E+04  0.10000000000E+04  0.00000000000E+00 0.  1.
    9000005    2    1    2  501    0  0.28603715750E+02 -0.22938597858E+02 -0.42997864475E+03  0.43155399863E+03  0.35870552512E+01 0.  0.
         13    1    3    3    0    0  0.21716718477E+02 -0.18692159682E+02 -0.34760268102E+03  0.34878164595E+03  0.00000000000E+00 0.  1.
          1    1    3    3  501    0  0.68869972728E+01 -0.42464381764E+01 -0.82375963726E+02  0.82772352681E+02  0.00000000000E+00 0.  1.
         21    1    1    2  502  501 -0.28603715750E+02  0.22938597858E+02 -0.56864325654E+03  0.56982410008E+03  0.00000000000E+00 0.  1.
<mgrwt>
<rscale>  1 0.30000000E+03</rscale>
<asrwt>0</asrwt>
<pdfrwt beam="1">  1        1 0.50112786E-02 0.30000000E+03</pdfrwt>
<pdfrwt beam="2">0</pdfrwt>
<totfact> 0.19828707E+03</totfact>
</mgrwt>
</event>
<event>
 6    1  0.1956957E-002  0.3000000E+03  0.7818608E-02  0.1093470E+00
          3   -1    0    0  502    0  0.00000000000E+00  0.00000000000E+00  0.31184819735E+01  0.31184819735E+01  0.00000000000E+00 0.  1.
         13   -1    0    0    0    0 -0.00000000000E+00 -0.00000000000E+00 -0.10000000000E+04  0.10000000000E+04  0.00000000000E+00 0.  1.
    9000005    2    1    2  501    0  0.47145272387E+02  0.29054460414E+02 -0.55930092420E+03  0.56204749622E+03  0.36091300815E+01 0.  0.
         13    1    3    3    0    0  0.11696732630E+02  0.64790604518E+01 -0.14984028590E+03  0.15043571071E+03  0.00000000000E+00 0.  1.
          1    1    3    3  501    0  0.35448539757E+02  0.22575399962E+02 -0.40946063830E+03  0.41161178551E+03  0.00000000000E+00 0.  1.
         21    1    1    2  502  501 -0.47145272387E+02 -0.29054460414E+02 -0.43758059383E+03  0.44107098575E+03  0.00000000000E+00 0.  1.
<mgrwt>
<rscale>  1 0.30000000E+03</rscale>
<asrwt>0</asrwt>
<pdfrwt beam="1">  1        3 0.11339958E-01 0.30000000E+03</pdfrwt>
<pdfrwt beam="2">0</pdfrwt>
<totfact> 0.26792954E+02</totfact>
</mgrwt>
</event>
<event>
 6    1  0.1956957E-002  0.3000000E+03  0.7818608E-02  0.1093470E+00
          3   -1    0    0  502    0  0.00000000000E+00  0.00000000000E+00  0.26621062353E+01  0.26621062353E+01  0.00000000000E+00 0.  1.
         13   -1    0    0    0    0 -0.00000000000E+00 -0.00000000000E+00 -0.10000000000E+04  0.10000000000E+04  0.00000000000E+00 0.  1.
    9000005    2    1    2  501    0 -0.30227188776E+02  0.32713831849E+02 -0.75106412423E+03  0.75239295653E+03  0.37369223111E+01 0.  0.
         13    1    3    3    0    0 -0.17656711449E+01  0.23216837460E+01 -0.66219889712E+02  0.66284097667E+02  0.00000000000E+00 0.  1.
          3    1    3    3  501    0 -0.28461517631E+02  0.30392148103E+02 -0.68484423452E+03  0.68610885886E+03  0.00000000000E+00 0.  1.
         21    1    1    2  502  501  0.30227188776E+02 -0.32713831849E+02 -0.24627376953E+03  0.25026914970E+03  0.00000000000E+00 0.  1.
<mgrwt>
<rscale>  1 0.30000000E+03</rscale>
<asrwt>0</asrwt>
<pdfrwt beam="1">  1        3 0.96804067E-02 0.30000000E+03</pdfrwt>
<pdfrwt beam="2">0</pdfrwt>
<totfact> 0.34833855E+02</totfact>
</mgrwt>
</event>
<event>
 6    1  0.1956957E-002  0.3000000E+03  0.7818608E-02  0.1093470E+00
          1   -1    0    0  502    0  0.00000000000E+00  0.00000000000E+00  0.44663369020E+01  0.44663369020E+01  0.00000000000E+00 0.  1.
         13   -1    0    0    0    0 -0.00000000000E+00 -0.00000000000E+00 -0.10000000000E+04  0.10000000000E+04  0.00000000000E+00 0.  1.
    9000005    2    1    2  501    0 -0.25848861538E+02  0.16267522331E+02 -0.94444452308E+03  0.94494410447E+03  0.33327880061E+01 0.  0.
         13    1    3    3    0    0 -0.12039827465E+02  0.95449356725E+01 -0.47064462684E+03  0.47089534720E+03  0.00000000000E+00 0.  1.
          1    1    3    3  501    0 -0.13809034073E+02  0.67225866587E+01 -0.47379989625E+03  0.47404875728E+03  0.00000000000E+00 0.  1.
         21    1    1    2  502  501  0.25848861538E+02 -0.16267522331E+02 -0.51089140017E+02  0.59522232428E+02  0.00000000000E+00 0.  1.
<mgrwt>
<rscale>  1 0.30000000E+03</rscale>
<asrwt>0</asrwt>
<pdfrwt beam="1">  1        1 0.16241259E-01 0.30000000E+03</pdfrwt>
<pdfrwt beam="2">0</pdfrwt>
<totfact> 0.38949730E+02</totfact>
</mgrwt>
</event>
<event>
 6    1  0.1956957E-002  0.3000000E+03  0.7818608E-02  0.1093470E+00
          1   -1    0    0  502    0  0.00000000000E+00  0.00000000000E+00  0.10808759068E+02  0.10808759068E+02  0.00000000000E+00 0.  1.
         13   -1    0    0    0    0 -0.00000000000E+00 -0.00000000000E+00 -0.10000000000E+04  0.10000000000E+04  0.00000000000E+00 0.  1.
    9000005    2    1    2  501    0  0.49228495702E+02  0.76250348848E+02 -0.74095663279E+03  0.74650215460E+03  0.33428506552E+01 0.  0.
         13    1    3    3    0    0  0.41826390112E+02  0.62880933430E+02 -0.62194400474E+03  0.62651241307E+03  0.00000000000E+00 0.  1.
          1    1    3    3  501    0  0.74021055902E+01  0.13369415418E+02 -0.11901262806E+03  0.11998974153E+03  0.00000000000E+00 0.  1.
         21    1    1    2  502  501 -0.49228495702E+02 -0.76250348848E+02 -0.24823460814E+03  0.26430660447E+03  0.00000000000E+00 0.  1.
<mgrwt>
<rscale>  1 0.30000000E+03</rscale>
<asrwt>0</asrwt>
<pdfrwt beam="1">  1        1 0.39304661E-01 0.30000000E+03</pdfrwt>
<pdfrwt beam="2">0</pdfrwt>
<totfact> 0.12094500E+02</totfact>
</mgrwt>
</event>
<event>
 6    1  0.1956957E-002  0.3000000E+03  0.7818608E-02  0.1093470E+00
          3   -1    0    0  502    0  0.00000000000E+00  0.00000000000E+00  0.19870090384E+01  0.19870090384E+01  0.00000000000E+00 0.  1.
         13   -1    0    0    0    0 -0.00000000000E+00 -0.00000000000E+00 -0.10000000000E+04  0.10000000000E+04  0.00000000000E+00 0.  1.
    9000005    2    1    2  501    0  0.51768046000E+01 -0.31304876224E+02 -0.85051448842E+03  0.85111420555E+03  0.37015254953E+01 0.  0.
         13    1    3    3    0    0 -0.44776928800E-01 -0.76063614834E+01 -0.22829495305E+03  0.22842163717E+03  0.00000000000E+00 0.  1.
          1    1    3    3  501    0  0.52215815288E+01 -0.23698514740E+02 -0.62221953537E+03  0.62269256838E+03  0.00000000000E+00 0.  1.
         21    1    1    2  502  501 -0.51768046000E+01  0.31304876224E+02 -0.14749850254E+03  0.15087280349E+03  0.00000000000E+00 0.  1.
<mgrwt>
<rscale>  1 0.30000000E+03</rscale>
<asrwt>0</asrwt>
<pdfrwt beam="1">  1        3 0.72255026E-02 0.30000000E+03</pdfrwt>
<pdfrwt beam="2">0</pdfrwt>
<totfact> 0.55715626E+02</totfact>
</mgrwt>
</event>
<event>
 6    1  0.1956957E-002  0.3000000E+03  0.7818608E-02  0.1093470E+00
          1   -1    0    0  502    0  0.00000000000E+00  0.00000000000E+00  0.23473590630E+01  0.23473590630E+01  0.00000000000E+00 0.  1.
         13   -1    0    0    0    0 -0.00000000000E+00 -0.00000000000E+00 -0.10000000000E+04  0.10000000000E+04  0.00000000000E+00 0.  1.
    9000005    2    1    2  501    0  0.35247161129E+02  0.10459793573E+01 -0.84215918758E+03  0.84290561272E+03  0.37839512243E+01 0.  0.
         13    1    3    3    0    0  0.11864706527E+02 -0.11580704178E+01 -0.30675391312E+03  0.30698546481E+03  0.00000000000E+00 0.  1.
          1    1    3    3  501    0  0.23382454601E+02  0.22040497750E+01 -0.53540527446E+03  0.53592014791E+03  0.00000000000E+00 0.  1.
         21    1    1    2  502  501 -0.35247161129E+02 -0.10459793573E+01 -0.15549345336E+03  0.15944174635E+03  0.00000000000E+00 0.  1.
<mgrwt>
<rscale>  1 0.30000000E+03</rscale>
<asrwt>0</asrwt>
<pdfrwt beam="1">  1        1 0.85358691E-02 0.30000000E+03</pdfrwt>
<pdfrwt beam="2">0</pdfrwt>
<totfact> 0.94104669E+02</totfact>
</mgrwt>
</event>
<event>
 6    1  0.1956957E-002  0.3000000E+03  0.7818608E-02  0.1093470E+00
          1   -1    0    0  502    0  0.00000000000E+00  0.00000000000E+00  0.19364814859E+01  0.19364814859E+01  0.00000000000E+00 0.  1.
         13   -1    0    0    0    0 -0.00000000000E+00 -0.00000000000E+00 -0.10000000000E+04  0.10000000000E+04  0.00000000000E+00 0.  1.
    9000005    2    1    2  501    0 -0.16792911265E+02 -0.36227284154E+02 -0.70816749040E+03  0.70930339193E+03  0.39609796569E+01 0.  0.
         13    1    3    3    0    0 -0.15603689854E+02 -0.34382037686E+02 -0.68180371658E+03  0.68284837819E+03  0.00000000000E+00 0.  1.
          3    1    3    3  501    0 -0.11892214116E+01 -0.18452464681E+01 -0.26363773821E+02  0.26455013744E+02  0.00000000000E+00 0.  1.
         21    1    1    2  502  501  0.16792911265E+02  0.36227284154E+02 -0.28989602811E+03  0.29263308956E+03  0.00000000000E+00 0.  1.
<mgrwt>
<rscale>  1 0.30000000E+03</rscale>
<asrwt>0</asrwt>
<pdfrwt beam="1">  1        1 0.70417657E-02 0.30000000E+03</pdfrwt>
<pdfrwt beam="2">0</pdfrwt>
<totfact> 0.12305335E+03</totfact>
</mgrwt>
</event>
<event>
 6    1  0.1956957E-002  0.3000000E+03  0.7818608E-02  0.1093470E+00
          1   -1    0    0  502    0  0.00000000000E+00  0.00000000000E+00  0.12665328357E+01  0.12665328357E+01  0.00000000000E+00 0.  1.
         13   -1    0    0    0    0 -0.00000000000E+00 -0.00000000000E+00 -0.10000000000E+04  0.10000000000E+04  0.00000000000E+00 0.  1.
    9000005    2    1    2  501    0 -0.23995414231E+02  0.23840551663E+02 -0.65400418502E+03  0.65488173269E+03  0.21113912774E+01 0.  0.
         13    1    3    3    0    0 -0.42056372493E+01  0.40902862540E+01 -0.12967521729E+03  0.12980785726E+03  0.00000000000E+00 0.  1.
          1    1    3    3  501    0 -0.19789776982E+02  0.19750265409E+02 -0.52432896773E+03  0.52507387543E+03  0.00000000000E+00 0.  1.
         21    1    1    2  502  501  0.23995414231E+02 -0.23840551663E+02 -0.34472928214E+03  0.34638480015E+03  0.00000000000E+00 0.  1.
<mgrwt>
<rscale>  1 0.30000000E+03</rscale>
<asrwt>0</asrwt>
<pdfrwt beam="1">  1        1 0.46055837E-02 0.30000000E+03</pdfrwt>
<pdfrwt beam="2">0</pdfrwt>
<totfact> 0.22328130E+03</totfact>
</mgrwt>
</event>
<event>
 6    1  0.1956957E-002  0.3000000E+03  0.7818608E-02  0.1093470E+00
          1   -1    0    0  502    0  0.00000000000E+00  0.00000000000E+00  0.22737701578E+01  0.22737701578E+01  0.00000000000E+00 0.  1.
         13   -1    0    0    0    0 -0.00000000000E+00 -0.00000000000E+00 -0.10000000000E+04  0.10000000000E+04  0.00000000000E+00 0.  1.
    9000005    2    1    2  501    0  0.46788466681E+02 -0.53191912629E+01 -0.56640691638E+03  0.56839152279E+03  0.58884508493E+01 0.  0.
         13    1    3    3    0    0  0.29156114630E+02 -0.12313855496E+01 -0.37276922847E+03  0.37390973914E+03  0.00000000000E+00 0.  1.
          3    1    3    3  501    0  0.17632352051E+02 -0.40878057133E+01 -0.19363768790E+03  0.19448178365E+03  0.00000000000E+00 0.  1.
         21    1    1    2  502  501 -0.46788466681E+02  0.53191912629E+01 -0.43131931347E+03  0.43388224737E+03  0.00000000000E+00 0.  1.
<mgrwt>
<rscale>  1 0.30000000E+03</rscale>
<asrwt>0</asrwt>
<pdfrwt beam="1">  1        1 0.82682726E-02 0.30000000E+03</pdfrwt>
<pdfrwt beam="2">0</pdfrwt>
<totfact> 0.98364277E+02</totfact>
</mgrwt>
</event>
<event>
 6    1  0.1956957E-002  0.3000000E+03  0.7818608E-02  0.1093470E+00
          1   -1    0    0  502    0  0.00000000000E+00  0.00000000000E+00  0.19515404377E+01  0.19515404377E+01  0.00000000000E+00 0.  1.
         13   -1    0    0    0    0 -0.00000000000E+00 -0.00000000000E+00 -0.10000000000E+04  0.10000000000E+04  0.00000000000E+00 0.  1.
    9000005    2    1    2  501    0  0.18219436661E+02  0.36854037133E+02 -0.67185627893E+03  0.67317881251E+03  0.94173322021E+01 0.  0.
         13    1    3    3    0    0  0.91178128191E+01  0.27666141488E+02 -0.44177293228E+03  0.44273228207E+03  0.00000000000E+00 0.  1.
          1    1    3    3  501    0  0.91016238414E+01  0.91878956449E+01 -0.23008334666E+03  0.23044653044E+03  0.00000000000E+00 0.  1.
         21    1    1    2  502  501 -0.18219436661E+02 -0.36854037133E+02 -0.32619218063E+03  0.32877272793E+03  0.00000000000E+00 0.  1.
<mgrwt>
<rscale>  1 0.30000000E+03</rscale>
<asrwt>0</asrwt>
<pdfrwt beam="1">  1        1 0.70965256E-02 0.30000000E+03</pdfrwt>
<pdfrwt beam="2">0</pdfrwt>
<totfact> 0.12172795E+03</totfact>
</mgrwt>
</event>
<event>
 6    1  0.1956957E-002  0.3000000E+03  0.7818608E-02  0.1093470E+00
          1   -1    0    0  502    0  0.00000000000E+00  0.00000000000E+00  0.65709244748E+01  0.65709244748E+01  0.00000000000E+00 0.  1.
         13   -1    0    0    0    0 -0.00000000000E+00 -0.00000000000E+00 -0.10000000000E+04  0.10000000000E+04  0.00000000000E+00 0.  1.
    9000005    2    1    2  501    0  0.57119675773E+02 -0.45653514982E+02 -0.71367217312E+03  0.71741555925E+03  0.31958079485E+01 0.  0.
         13    1    3    3    0    0  0.38716260202E+01 -0.41084021654E+01 -0.58183334891E+02  0.58456555795E+02  0.00000000000E+00 0.  1.
          1    1    3    3  501    0  0.53248049753E+02 -0.41545112817E+02 -0.65548883823E+03  0.65895900346E+03  0.00000000000E+00 0.  1.
         21    1    1    2  502  501 -0.57119675773E+02  0.45653514982E+02 -0.27975690241E+03  0.28915536522E+03  0.00000000000E+00 0.  1.
<mgrwt>
<rscale>  1 0.30000000E+03</rscale>
<asrwt>0</asrwt>
<pdfrwt beam="1">  1        1 0.23894321E-01 0.30000000E+03</pdfrwt>
<pdfrwt beam="2">0</pdfrwt>
<totfact> 0.23242655E+02</totfact>
</mgrwt>
</event>
<event>
 6    1  0.1956957E-002  0.3000000E+03  0.7818608E-02  0.1093470E+00
          1   -1    0    0  502    0  0.00000000000E+00  0.00000000000E+00  0.66670064229E+01  0.66670064229E+01  0.00000000000E+00 0.  1.
         13   -1    0    0    0    0 -0.00000000000E+00 -0.00000000000E+00 -0.10000000000E+04  0.10000000000E+04  0.00000000000E+00 0.  1.
    9000005    2    1    2  501    0  0.34063555501E+02  0.28143842366E+02 -0.91984874665E+03  0.92092124138E+03  0.46705923575E+01 0.  0.
         13    1    3    3    0    0  0.12136255221E+02  0.84060220531E+01 -0.27033761682E+03  0.27074042359E+03  0.00000000000E+00 0.  1.
          3    1    3    3  501    0  0.21927300280E+02  0.19737820313E+02 -0.64951112984E+03  0.65018081780E+03  0.00000000000E+00 0.  1.
         21    1    1    2  502  501 -0.34063555501E+02 -0.28143842366E+02 -0.73484246924E+02  0.85745765041E+02  0.00000000000E+00 0.  1.
<mgrwt>
<rscale>  1 0.30000000E+03</rscale>
<asrwt>0</asrwt>
<pdfrwt beam="1">  1        1 0.24243711E-01 0.30000000E+03</pdfrwt>
<pdfrwt beam="2">0</pdfrwt>
<totfact> 0.22800743E+02</totfact>
</mgrwt>
</event>
<event>
 6    1  0.1956957E-002  0.3000000E+03  0.7818608E-02  0.1093470E+00
          1   -1    0    0  502    0  0.00000000000E+00  0.00000000000E+00  0.10404920492E+01  0.10404920492E+01  0.00000000000E+00 0.  1.
         13   -1    0    0    0    0 -0.00000000000E+00 -0.00000000000E+00 -0.10000000000E+04  0.10000000000E+04  0.00000000000E+00 0.  1.
    9000005    2    1    2  501    0  0.31919096427E+02  0.38344443159E+01 -0.48439846879E+03  0.48547614621E+03  0.34176441178E+01 0.  0.
         13    1    3    3    0    0  0.15198565690E+02  0.11459199751E+01 -0.20603661433E+03  0.20659960304E+03  0.00000000000E+00 0.  1.
          3    1    3    3  501    0  0.16720530737E+02  0.26885243408E+01 -0.27836185447E+03  0.27887654318E+03  0.00000000000E+00 0.  1.
         21    1    1    2  502  501 -0.31919096427E+02 -0.38344443159E+01 -0.51456103916E+03  0.51556434584E+03  0.00000000000E+00 0.  1.
<mgrwt>
<rscale>  1 0.30000000E+03</rscale>
<asrwt>0</asrwt>
<pdfrwt beam="1">  1        1 0.37836154E-02 0.30000000E+03</pdfrwt>
<pdfrwt beam="2">0</pdfrwt>
<totfact> 0.29447064E+03</totfact>
</mgrwt>
</event>
<event>
 6    1  0.1956957E-002  0.3000000E+03  0.7818608E-02  0.1093470E+00
          1   -1    0    0  502    0  0.00000000000E+00  0.00000000000E+00  0.29711505991E+01  0.29711505991E+01  0.00000000000E+00 0.  1.
         13   -1    0    0    0    0 -0.00000000000E+00 -0.00000000000E+00 -0.10000000000E+04  0.10000000000E+04  0.00000000000E+00 0.  1.
    9000005    2    1    2  501    0  0.84047033801E+01 -0.32578958155E+02 -0.89296831487E+03  0.89360652012E+03  0.28590002189E+01 0.  0.
         13    1    3    3    0    0  0.31284326852E+01 -0.93064071047E+01 -0.23234035192E+03  0.23254770572E+03  0.00000000000E+00 0.  1.
          1    1    3    3  501    0  0.52762706950E+01 -0.23272551050E+02 -0.66062796295E+03  0.66105881440E+03  0.00000000000E+00 0.  1.
         21    1    1    2  502  501 -0.84047033801E+01  0.32578958155E+02 -0.10406053453E+03  0.10936463048E+03  0.00000000000E+00 0.  1.
<mgrwt>
<rscale>  1 0.30000000E+03</rscale>
<asrwt>0</asrwt>
<pdfrwt beam="1">  1        1 0.10804207E-01 0.30000000E+03</pdfrwt>
<pdfrwt beam="2">0</pdfrwt>
<totfact> 0.67934137E+02</totfact>
</mgrwt>
</event>
<event>
 6    1  0.1956957E-002  0.3000000E+03  0.7818608E-02  0.1093470E+00
          1   -1    0    0  502    0  0.00000000000E+00  0.00000000000E+00  0.34966942886E+01  0.34966942886E+01  0.00000000000E+00 0.  1.
         13   -1    0    0    0    0 -0.00000000000E+00 -0.00000000000E+00 -0.10000000000E+04  0.10000000000E+04  0.00000000000E+00 0.  1.
    9000005    2    1    2  501    0  0.43105563960E+01  0.30752831293E+02 -0.92519502577E+03  0.92572016623E+03  0.27700039793E+01 0.  0.
         13    1    3    3    0    0  0.21950186081E+00  0.11029022597E+02 -0.32246339272E+03  0.32265202179E+03  0.00000000000E+00 0.  1.
          3    1    3    3  501    0  0.40910545352E+01  0.19723808697E+02 -0.60273163305E+03  0.60306814444E+03  0.00000000000E+00 0.  1.
         21    1    1    2  502  501 -0.43105563960E+01 -0.30752831293E+02 -0.71308279941E+02  0.77776528060E+02  0.00000000000E+00 0.  1.
<mgrwt>
<rscale>  1 0.30000000E+03</rscale>
<asrwt>0</asrwt>
<pdfrwt beam="1">  1        1 0.12715279E-01 0.30000000E+03</pdfrwt>
<pdfrwt beam="2">0</pdfrwt>
<totfact> 0.54333753E+02</totfact>
</mgrwt>
</event>
<event>
 6    1  0.1956957E-002  0.3000000E+03  0.7818608E-02  0.1093470E+00
          3   -1    0    0  502    0  0.00000000000E+00  0.00000000000E+00  0.16302218811E+01  0.16302218811E+01  0.00000000000E+00 0.  1.
         13   -1    0    0    0    0 -0.00000000000E+00 -0.00000000000E+00 -0.10000000000E+04  0.10000000000E+04  0.00000000000E+00 0.  1.
    9000005    2    1    2  501    0 -0.31122666061E+02  0.78258577821E+01 -0.80255215133E+03  0.80320036688E+03  0.33180365058E+01 0.  0.
         13    1    3    3    0    0 -0.92161039463E+01  0.92831479809E+00 -0.21455144700E+03  0.21475130209E+03  0.00000000000E+00 0.  1.
          3    1    3    3  501    0 -0.21906562115E+02  0.68975429841E+01 -0.58800070433E+03  0.58844906479E+03  0.00000000000E+00 0.  1.
         21    1    1    2  502  501  0.31122666061E+02 -0.78258577821E+01 -0.19581762679E+03  0.19842985500E+03  0.00000000000E+00 0.  1.
<mgrwt>
<rscale>  1 0.30000000E+03</rscale>
<asrwt>0</asrwt>
<pdfrwt beam="1">  1        3 0.59280921E-02 0.30000000E+03</pdfrwt>
<pdfrwt beam="2">0</pdfrwt>
<totfact> 0.75985897E+02</totfact>
</mgrwt>
</event>
<event>
 6    1  0.1956957E-002  0.3000000E+03  0.7818608E-02  0.1093470E+00
          3   -1    0    0  502    0  0.00000000000E+00  0.00000000000E+00  0.95682220666E+00  0.95682220666E+00  0.00000000000E+00 0.  1.
         13   -1    0    0    0    0 -0.00000000000E+00 -0.00000000000E+00 -0.10000000000E+04  0.10000000000E+04  0.00000000000E+00 0.  1.
    9000005    2    1    2  501    0 -0.13118885444E+02 -0.27666101169E+02 -0.55835180400E+03  0.55920303870E+03  0.37125663399E+01 0.  0.
         13    1    3    3    0    0 -0.45710282618E+01 -0.61002435161E+01 -0.12913175084E+03  0.12935654737E+03  0.00000000000E+00 0.  1.
          1    1    3    3  501    0 -0.85478571819E+01 -0.21565857653E+02 -0.42922005316E+03  0.42984649134E+03  0.00000000000E+00 0.  1.
         21    1    1    2  502  501  0.13118885444E+02  0.27666101169E+02 -0.44069137379E+03  0.44175378351E+03  0.00000000000E+00 0.  1.
<mgrwt>
<rscale>  1 0.30000000E+03</rscale>
<asrwt>0</asrwt>
<pdfrwt beam="1">  1        3 0.34793608E-02 0.30000000E+03</pdfrwt>
<pdfrwt beam="2">0</pdfrwt>
<totfact> 0.17294715E+03</totfact>
</mgrwt>
</event>
<event>
 6    1  0.1956957E-002  0.3000000E+03  0.7818608E-02  0.1093470E+00
          1   -1    0    0  502    0  0.00000000000E+00  0.00000000000E+00  0.19545024092E+01  0.19545024092E+01  0.00000000000E+00 0.  1.
         13   -1    0    0    0    0 -0.00000000000E+00 -0.00000000000E+00 -0.10000000000E+04  0.10000000000E+04  0.00000000000E+00 0.  1.
    9000005    2    1    2  501    0  0.36037216817E+02  0.24148965758E+02 -0.59467625928E+03  0.59625930160E+03  0.18568391423E+01 0.  0.
         13    1    3    3    0    0  0.12132768513E+02  0.72836359873E+01 -0.20098000595E+03  0.20147758738E+03  0.00000000000E+00 0.  1.
          1    1    3    3  501    0  0.23904448305E+02  0.16865329771E+02 -0.39369625333E+03  0.39478171422E+03  0.00000000000E+00 0.  1.
         21    1    1    2  502  501 -0.36037216817E+02 -0.24148965758E+02 -0.40336923831E+03  0.40569520081E+03  0.00000000000E+00 0.  1.
<mgrwt>
<rscale>  1 0.30000000E+03</rscale>
<asrwt>0</asrwt>
<pdfrwt beam="1">  1        1 0.71072965E-02 0.30000000E+03</pdfrwt>
<pdfrwt beam="2">0</pdfrwt>
<totfact> 0.12147017E+03</totfact>
</mgrwt>
</event>
<event>
 6    1  0.1956957E-002  0.3000000E+03  0.7818608E-02  0.1093470E+00
          1   -1    0    0  502    0  0.00000000000E+00  0.00000000000E+00  0.11106265384E+02  0.11106265384E+02  0.00000000000E+00 0.  1.
         13   -1    0    0    0    0 -0.00000000000E+00 -0.00000000000E+00 -0.10000000000E+04  0.10000000000E+04  0.00000000000E+00 0.  1.
    9000005    2    1    2  501    0 -0.42201006665E+01 -0.50981969650E+02 -0.93641892540E+03  0.93782205098E+03  0.35811969047E+01 0.  0.
         13    1    3    3    0    0 -0.13931886651E+01 -0.35130273250E+02 -0.65482806217E+03  0.65577120101E+03  0.00000000000E+00 0.  1.
          3    1    3    3  501    0 -0.28269120014E+01 -0.15851696400E+02 -0.28159086324E+03  0.28205084997E+03  0.00000000000E+00 0.  1.
         21    1    1    2  502  501  0.42201006665E+01  0.50981969650E+02 -0.52474809215E+02  0.73284214406E+02  0.00000000000E+00 0.  1.
<mgrwt>
<rscale>  1 0.30000000E+03</rscale>
<asrwt>0</asrwt>
<pdfrwt beam="1">  1        1 0.40386505E-01 0.30000000E+03</pdfrwt>
<pdfrwt beam="2">0</pdfrwt>
<totfact> 0.11672985E+02</totfact>
</mgrwt>
</event>
<event>
 6    1  0.1956957E-002  0.3000000E+03  0.7818608E-02  0.1093470E+00
          1   -1    0    0  502    0  0.00000000000E+00  0.00000000000E+00  0.10889635328E+01  0.10889635328E+01  0.00000000000E+00 0.  1.
         13   -1    0    0    0    0 -0.00000000000E+00 -0.00000000000E+00 -0.10000000000E+04  0.10000000000E+04  0.00000000000E+00 0.  1.
    9000005    2    1    2  501    0 -0.32189143488E+02 -0.49485758451E+01 -0.57118863659E+03  0.57212849832E+03  0.37323793486E+01 0.  0.
         13    1    3    3    0    0 -0.69116952469E+01  0.27071834450E+00 -0.13451733516E+03  0.13469505662E+03  0.00000000000E+00 0.  1.
          1    1    3    3  501    0 -0.25277448241E+02 -0.52192941896E+01 -0.43667130143E+03  0.43743344170E+03  0.00000000000E+00 0.  1.
         21    1    1    2  502  501  0.32189143488E+02  0.49485758451E+01 -0.42772239987E+03  0.42896046521E+03  0.00000000000E+00 0.  1.
<mgrwt>
<rscale>  1 0.30000000E+03</rscale>
<asrwt>0</asrwt>
<pdfrwt beam="1">  1        1 0.39598757E-02 0.30000000E+03</pdfrwt>
<pdfrwt beam="2">0</pdfrwt>
<totfact> 0.27618787E+03</totfact>
</mgrwt>
</event>
<event>
 6    1  0.1956957E-002  0.3000000E+03  0.7818608E-02  0.1093470E+00
          3   -1    0    0  502    0  0.00000000000E+00  0.00000000000E+00  0.49093589653E+01  0.49093589653E+01  0.00000000000E+00 0.  1.
         13   -1    0    0    0    0 -0.00000000000E+00 -0.00000000000E+00 -0.10000000000E+04  0.10000000000E+04  0.00000000000E+00 0.  1.
    9000005    2    1    2  501    0 -0.36554326711E+02 -0.57903151610E+02 -0.60274399807E+03  0.60663196567E+03  0.36084332967E+01 0.  0.
         13    1    3    3    0    0 -0.16105758639E+02 -0.28572264061E+02 -0.29512116763E+03  0.29693816414E+03  0.00000000000E+00 0.  1.
          1    1    3    3  501    0 -0.20448568072E+02 -0.29330887549E+02 -0.30762283044E+03  0.30969380153E+03  0.00000000000E+00 0.  1.
         21    1    1    2  502  501  0.36554326711E+02  0.57903151610E+02 -0.39234664296E+03  0.39827739330E+03  0.00000000000E+00 0.  1.
<mgrwt>
<rscale>  1 0.30000000E+03</rscale>
<asrwt>0</asrwt>
<pdfrwt beam="1">  1        3 0.17852252E-01 0.30000000E+03</pdfrwt>
<pdfrwt beam="2">0</pdfrwt>
<totfact> 0.12260183E+02</totfact>
</mgrwt>
</event>
<event>
 6    1  0.1956957E-002  0.3000000E+03  0.7818608E-02  0.1093470E+00
          1   -1    0    0  502    0  0.00000000000E+00  0.00000000000E+00  0.17685994679E+01  0.17685994679E+01  0.00000000000E+00 0.  1.
         13   -1    0    0    0    0 -0.00000000000E+00 -0.00000000000E+00 -0.10000000000E+04  0.10000000000E+04  0.00000000000E+00 0.  1.
    9000005    2    1    2  501    0  0.34057288877E+02  0.14495322973E+02 -0.73571452147E+03  0.73665518014E+03  0.38709192123E+01 0.  0.
         13    1    3    3    0    0  0.75571209047E+01  0.46412319646E+01 -0.15662300056E+03  0.15687388379E+03  0.00000000000E+00 0.  1.
          3    1    3    3  501    0  0.26500167973E+02  0.98540910082E+01 -0.57909152091E+03  0.57978129635E+03  0.00000000000E+00 0.  1.
         21    1    1    2  502  501 -0.34057288877E+02 -0.14495322973E+02 -0.26251687906E+03  0.26511341933E+03  0.00000000000E+00 0.  1.
<mgrwt>
<rscale>  1 0.30000000E+03</rscale>
<asrwt>0</asrwt>
<pdfrwt beam="1">  1        1 0.64312844E-02 0.30000000E+03</pdfrwt>
<pdfrwt beam="2">0</pdfrwt>
<totfact> 0.13970569E+03</totfact>
</mgrwt>
</event>
<event>
 6    1  0.1956957E-002  0.3000000E+03  0.7818608E-02  0.1093470E+00
          3   -1    0    0  502    0  0.00000000000E+00  0.00000000000E+00  0.10214473840E+01  0.10214473840E+01  0.00000000000E+00 0.  1.
         13   -1    0    0    0    0 -0.00000000000E+00 -0.00000000000E+00 -0.10000000000E+04  0.10000000000E+04  0.00000000000E+00 0.  1.
    9000005    2    1    2  501    0  0.28999023038E+02  0.10886125664E+02 -0.38265601719E+03  0.38392103518E+03  0.32066637411E+01 0.  0.
         13    1    3    3    0    0  0.19397037746E+02  0.80412298825E+01 -0.24224835631E+03  0.24315668320E+03  0.00000000000E+00 0.  1.
          1    1    3    3  501    0  0.96019852915E+01  0.28448957813E+01 -0.14040766088E+03  0.14076435198E+03  0.00000000000E+00 0.  1.
         21    1    1    2  502  501 -0.28999023038E+02 -0.10886125664E+02 -0.61632253542E+03  0.61710041220E+03  0.00000000000E+00 0.  1.
<mgrwt>
<rscale>  1 0.30000000E+03</rscale>
<asrwt>0</asrwt>
<pdfrwt beam="1">  1        3 0.37143620E-02 0.30000000E+03</pdfrwt>
<pdfrwt beam="2">0</pdfrwt>
<totfact> 0.15636028E+03</totfact>
</mgrwt>
</event>
<event>
 6    1  0.1956957E-002  0.3000000E+03  0.7818608E-02  0.1093470E+00
          1   -1    0    0  502    0  0.00000000000E+00  0.00000000000E+00  0.21669721457E+01  0.21669721457E+01  0.00000000000E+00 0.  1.
         13   -1    0    0    0    0 -0.00000000000E+00 -0.00000000000E+00 -0.10000000000E+04  0.10000000000E+04  0.00000000000E+00 0.  1.
    9000005    2    1    2  501    0 -0.35678849023E+02 -0.16645522755E+02 -0.76131296180E+03  0.76239250449E+03  0.97391681160E+01 0.  0.
         13    1    3    3    0    0 -0.16816336808E+02 -0.32537150143E+01 -0.37019121701E+03  0.37058725423E+03  0.00000000000E+00 0.  1.
          3    1    3    3  501    0 -0.18862512215E+02 -0.13391807741E+02 -0.39112174479E+03  0.39180525026E+03  0.00000000000E+00 0.  1.
         21    1    1    2  502  501  0.35678849023E+02  0.16645522755E+02 -0.23652006605E+03  0.23977446766E+03  0.00000000000E+00 0.  1.
<mgrwt>
<rscale>  1 0.30000000E+03</rscale>
<asrwt>0</asrwt>
<pdfrwt beam="1">  1        1 0.78799153E-02 0.30000000E+03</pdfrwt>
<pdfrwt beam="2">0</pdfrwt>
<totfact> 0.10517646E+03</totfact>
</mgrwt>
</event>
<event>
 6    1  0.1956957E-002  0.3000000E+03  0.7818608E-02  0.1093470E+00
          1   -1    0    0  502    0  0.00000000000E+00  0.00000000000E+00  0.52422878657E+01  0.52422878657E+01  0.00000000000E+00 0.  1.
         13   -1    0    0    0    0 -0.00000000000E+00 -0.00000000000E+00 -0.10000000000E+04  0.10000000000E+04  0.00000000000E+00 0.  1.
    9000005    2    1    2  501    0  0.28652386466E+02 -0.13943993390E+02 -0.94866402145E+03  0.94920638399E+03  0.37335799299E+01 0.  0.
         13    1    3    3    0    0  0.11848873489E+02 -0.37722293973E+01 -0.37674288737E+03  0.37694804510E+03  0.00000000000E+00 0.  1.
          1    1    3    3  501    0  0.16803512977E+02 -0.10171763993E+02 -0.57192113407E+03  0.57225833889E+03  0.00000000000E+00 0.  1.
         21    1    1    2  502  501 -0.28652386466E+02  0.13943993390E+02 -0.46093690685E+02  0.56035903872E+02  0.00000000000E+00 0.  1.
<mgrwt>
<rscale>  1 0.30000000E+03</rscale>
<asrwt>0</asrwt>
<pdfrwt beam="1">  1        1 0.19062905E-01 0.30000000E+03</pdfrwt>
<pdfrwt beam="2">0</pdfrwt>
<totfact> 0.31395370E+02</totfact>
</mgrwt>
</event>
<event>
 6    1  0.1956957E-002  0.3000000E+03  0.7818608E-02  0.1093470E+00
          1   -1    0    0  502    0  0.00000000000E+00  0.00000000000E+00  0.15174477778E+01  0.15174477778E+01  0.00000000000E+00 0.  1.
         13   -1    0    0    0    0 -0.00000000000E+00 -0.00000000000E+00 -0.10000000000E+04  0.10000000000E+04  0.00000000000E+00 0.  1.
    9000005    2    1    2  501    0 -0.36291895968E+02  0.98264111483E+01 -0.37175043779E+03  0.37365854378E+03  0.29426643677E+01 0.  0.
         13    1    3    3    0    0 -0.13064363758E+02  0.49189253373E+01 -0.14254156858E+03  0.14322350436E+03  0.00000000000E+00 0.  1.
          1    1    3    3  501    0 -0.23227532209E+02  0.49074858110E+01 -0.22920886921E+03  0.23043503943E+03  0.00000000000E+00 0.  1.
         21    1    1    2  502  501  0.36291895968E+02 -0.98264111483E+01 -0.62673211443E+03  0.62785890399E+03  0.00000000000E+00 0.  1.
<mgrwt>
<rscale>  1 0.30000000E+03</rscale>
<asrwt>0</asrwt>
<pdfrwt beam="1">  1        1 0.55180036E-02 0.30000000E+03</pdfrwt>
<pdfrwt beam="2">0</pdfrwt>
<totfact> 0.17319131E+03</totfact>
</mgrwt>
</event>
<event>
 6    1  0.1956957E-002  0.3000000E+03  0.7818608E-02  0.1093470E+00
          1   -1    0    0  502    0  0.00000000000E+00  0.00000000000E+00  0.63823156698E+01  0.63823156698E+01  0.00000000000E+00 0.  1.
         13   -1    0    0    0    0 -0.00000000000E+00 -0.00000000000E+00 -0.10000000000E+04  0.10000000000E+04  0.00000000000E+00 0.  1.
    9000005    2    1    2  501    0  0.10819492744E+02 -0.32361758046E+02 -0.95176414639E+03  0.95238172822E+03  0.34089708313E+01 0.  0.
         13    1    3    3    0    0  0.85904491672E+01 -0.20660066169E+02 -0.62910001313E+03  0.62949778449E+03  0.00000000000E+00 0.  1.
          1    1    3    3  501    0  0.22290435770E+01 -0.11701691877E+02 -0.32266413326E+03  0.32288394373E+03  0.00000000000E+00 0.  1.
         21    1    1    2  502  501 -0.10819492744E+02  0.32361758046E+02 -0.41853537940E+02  0.54000587452E+02  0.00000000000E+00 0.  1.
<mgrwt>
<rscale>  1 0.30000000E+03</rscale>
<asrwt>0</asrwt>
<pdfrwt beam="1">  1        1 0.23208470E-01 0.30000000E+03</pdfrwt>
<pdfrwt beam="2">0</pdfrwt>
<totfact> 0.24155890E+02</totfact>
</mgrwt>
</event>
<event>
 6    1  0.1956957E-002  0.3000000E+03  0.7818608E-02  0.1093470E+00
          1   -1    0    0  502    0  0.00000000000E+00  0.00000000000E+00  0.59351646273E+01  0.59351646273E+01  0.00000000000E+00 0.  1.
         13   -1    0    0    0    0 -0.00000000000E+00 -0.00000000000E+00 -0.10000000000E+04  0.10000000000E+04  0.00000000000E+00 0.  1.
    9000005    2    1    2  501    0  0.31808843535E+02  0.55935127321E+02 -0.77314178152E+03  0.77583184714E+03  0.51283241059E+01 0.  0.
         13    1    3    3    0    0  0.24155132139E+01  0.41670007211E+01 -0.43598113431E+02  0.43863357074E+02  0.00000000000E+00 0.  1.
          1    1    3    3  501    0  0.29393330321E+02  0.51768126599E+02 -0.72954366809E+03  0.73196849007E+03  0.00000000000E+00 0.  1.
         21    1    1    2  502  501 -0.31808843535E+02 -0.55935127321E+02 -0.22092305385E+03  0.23010331749E+03  0.00000000000E+00 0.  1.
<mgrwt>
<rscale>  1 0.30000000E+03</rscale>
<asrwt>0</asrwt>
<pdfrwt beam="1">  1        1 0.21582462E-01 0.30000000E+03</pdfrwt>
<pdfrwt beam="2">0</pdfrwt>
<totfact> 0.26599162E+02</totfact>
</mgrwt>
</event>
<event>
 6    1  0.1956957E-002  0.3000000E+03  0.7818608E-02  0.1093470E+00
          1   -1    0    0  502    0  0.00000000000E+00  0.00000000000E+00  0.96918840598E+00  0.96918840598E+00  0.00000000000E+00 0.  1.
         13   -1    0    0    0    0 -0.00000000000E+00 -0.00000000000E+00 -0.10000000000E+04  0.10000000000E+04  0.00000000000E+00 0.  1.
    9000005    2    1    2  501    0  0.17876740355E+02 -0.24996624157E+02 -0.57271722682E+03  0.57354939286E+03  0.30781625007E+01 0.  0.
         13    1    3    3    0    0  0.75673722252E+01 -0.80971941268E+01 -0.21117276401E+03  0.21146339148E+03  0.00000000000E+00 0.  1.
          3    1    3    3  501    0  0.10309368130E+02 -0.16899430030E+02 -0.36154446281E+03  0.36208600138E+03  0.00000000000E+00 0.  1.
         21    1    1    2  502  501 -0.17876740355E+02  0.24996624157E+02 -0.42631358477E+03  0.42741979555E+03  0.00000000000E+00 0.  1.
<mgrwt>
<rscale>  1 0.30000000E+03</rscale>
<asrwt>0</asrwt>
<pdfrwt beam="1">  1        1 0.35243289E-02 0.30000000E+03</pdfrwt>
<pdfrwt beam="2">0</pdfrwt>
<totfact> 0.32540276E+03</totfact>
</mgrwt>
</event>
<event>
 6    1  0.1956957E-002  0.3000000E+03  0.7818608E-02  0.1093470E+00
          3   -1    0    0  502    0  0.00000000000E+00  0.00000000000E+00  0.81603562318E+01  0.81603562318E+01  0.00000000000E+00 0.  1.
         13   -1    0    0    0    0 -0.00000000000E+00 -0.00000000000E+00 -0.10000000000E+04  0.10000000000E+04  0.00000000000E+00 0.  1.
    9000005    2    1    2  501    0 -0.85228421399E+02 -0.29826269134E+02 -0.48913019186E+03  0.49740573493E+03  0.32604303874E+01 0.  0.
         13    1    3    3    0    0 -0.35048871434E+02 -0.13806825103E+02 -0.20019183706E+03  0.20370523664E+03  0.00000000000E+00 0.  1.
          3    1    3    3  501    0 -0.50179549965E+02 -0.16019444031E+02 -0.28893835480E+03  0.29370049829E+03  0.00000000000E+00 0.  1.
         21    1    1    2  502  501  0.85228421399E+02  0.29826269134E+02 -0.50270945191E+03  0.51075462130E+03  0.00000000000E+00 0.  1.
<mgrwt>
<rscale>  1 0.30000000E+03</rscale>
<asrwt>0</asrwt>
<pdfrwt beam="1">  1        3 0.29674085E-01 0.30000000E+03</pdfrwt>
<pdfrwt beam="2">0</pdfrwt>
<totfact> 0.47744936E+01</totfact>
</mgrwt>
</event>
<event>
 6    1  0.1956957E-002  0.3000000E+03  0.7818608E-02  0.1093470E+00
          1   -1    0    0  502    0  0.00000000000E+00  0.00000000000E+00  0.17721767432E+01  0.17721767432E+01  0.00000000000E+00 0.  1.
         13   -1    0    0    0    0 -0.00000000000E+00 -0.00000000000E+00 -0.10000000000E+04  0.10000000000E+04  0.00000000000E+00 0.  1.
    9000005    2    1    2  501    0 -0.31921540467E+02 -0.42235444244E+01 -0.82130989330E+03  0.82194788190E+03  0.33995095431E+01 0.  0.
         13    1    3    3    0    0 -0.24451429971E+02 -0.25387681845E+01 -0.65672017282E+03  0.65718011470E+03  0.00000000000E+00 0.  1.
          3    1    3    3  501    0 -0.74701104963E+01 -0.16847762399E+01 -0.16458972048E+03  0.16476776720E+03  0.00000000000E+00 0.  1.
         21    1    1    2  502  501  0.31921540467E+02  0.42235444244E+01 -0.17691792996E+03  0.17982429484E+03  0.00000000000E+00 0.  1.
<mgrwt>
<rscale>  1 0.30000000E+03</rscale>
<asrwt>0</asrwt>
<pdfrwt beam="1">  1        1 0.64442927E-02 0.30000000E+03</pdfrwt>
<pdfrwt beam="2">0</pdfrwt>
<totfact> 0.13931078E+03</totfact>
</mgrwt>
</event>
<event>
 6    1  0.1956957E-002  0.3000000E+03  0.7818608E-02  0.1093470E+00
          1   -1    0    0  502    0  0.00000000000E+00  0.00000000000E+00  0.49984512708E+01  0.49984512708E+01  0.00000000000E+00 0.  1.
         13   -1    0    0    0    0 -0.00000000000E+00 -0.00000000000E+00 -0.10000000000E+04  0.10000000000E+04  0.00000000000E+00 0.  1.
    9000005    2    1    2  501    0 -0.52679782862E+02  0.31164973667E+02 -0.74585532769E+03  0.74844386729E+03  0.11028940411E+02 0.  0.
         13    1    3    3    0    0 -0.19039097623E+02  0.17033132891E+02 -0.28116545984E+03  0.28232362753E+03  0.00000000000E+00 0.  1.
          3    1    3    3  501    0 -0.33640685239E+02  0.14131840776E+02 -0.46468986785E+03  0.46612023976E+03  0.00000000000E+00 0.  1.
         21    1    1    2  502  501  0.52679782862E+02 -0.31164973667E+02 -0.24914622103E+03  0.25655458398E+03  0.00000000000E+00 0.  1.
<mgrwt>
<rscale>  1 0.30000000E+03</rscale>
<asrwt>0</asrwt>
<pdfrwt beam="1">  1        1 0.18176225E-01 0.30000000E+03</pdfrwt>
<pdfrwt beam="2">0</pdfrwt>
<totfact> 0.33467525E+02</totfact>
</mgrwt>
</event>
<event>
 6    1  0.1956957E-002  0.3000000E+03  0.7818608E-02  0.1093470E+00
          1   -1    0    0  502    0  0.00000000000E+00  0.00000000000E+00  0.54508092621E+01  0.54508092621E+01  0.00000000000E+00 0.  1.
         13   -1    0    0    0    0 -0.00000000000E+00 -0.00000000000E+00 -0.10000000000E+04  0.10000000000E+04  0.00000000000E+00 0.  1.
    9000005    2    1    2  501    0  0.97278510133E+01 -0.43454023862E+02 -0.89820861271E+03  0.89931697747E+03  0.30709529848E+01 0.  0.
         13    1    3    3    0    0  0.94766085036E+01 -0.43245668158E+02 -0.88768746623E+03  0.88879076931E+03  0.00000000000E+00 0.  1.
          3    1    3    3  501    0  0.25124250968E+00 -0.20835570410E+00 -0.10521146484E+02  0.10526208160E+02  0.00000000000E+00 0.  1.
         21    1    1    2  502  501 -0.97278510133E+01  0.43454023862E+02 -0.96340578029E+02  0.10613383179E+03  0.00000000000E+00 0.  1.
<mgrwt>
<rscale>  1 0.30000000E+03</rscale>
<asrwt>0</asrwt>
<pdfrwt beam="1">  1        1 0.19821166E-01 0.30000000E+03</pdfrwt>
<pdfrwt beam="2">0</pdfrwt>
<totfact> 0.29797513E+02</totfact>
</mgrwt>
</event>
<event>
 6    1  0.1956957E-002  0.3000000E+03  0.7818608E-02  0.1093470E+00
          1   -1    0    0  502    0  0.00000000000E+00  0.00000000000E+00  0.15976698153E+01  0.15976698153E+01  0.00000000000E+00 0.  1.
         13   -1    0    0    0    0 -0.00000000000E+00 -0.00000000000E+00 -0.10000000000E+04  0.10000000000E+04  0.00000000000E+00 0.  1.
    9000005    2    1    2  501    0  0.34358940460E+02  0.24758292061E+01 -0.24807398238E+03  0.25047897344E+03  0.35140978572E+01 0.  0.
         13    1    3    3    0    0  0.23137233777E+02  0.33125486597E+01 -0.16824235588E+03  0.16985816106E+03  0.00000000000E+00 0.  1.
          1    1    3    3  501    0  0.11221706683E+02 -0.83671945357E+00 -0.79831626495E+02  0.80620812382E+02  0.00000000000E+00 0.  1.
         21    1    1    2  502  501 -0.34358940460E+02 -0.24758292061E+01 -0.75032834781E+03  0.75111869637E+03  0.00000000000E+00 0.  1.
<mgrwt>
<rscale>  1 0.30000000E+03</rscale>
<asrwt>0</asrwt>
<pdfrwt beam="1">  1        1 0.58097207E-02 0.30000000E+03</pdfrwt>
<pdfrwt beam="2">0</pdfrwt>
<totfact> 0.16110790E+03</totfact>
</mgrwt>
</event>
<event>
 6    1  0.1956957E-002  0.3000000E+03  0.7818608E-02  0.1093470E+00
          1   -1    0    0  502    0  0.00000000000E+00  0.00000000000E+00  0.94458511482E+00  0.94458511482E+00  0.00000000000E+00 0.  1.
         13   -1    0    0    0    0 -0.00000000000E+00 -0.00000000000E+00 -0.10000000000E+04  0.10000000000E+04  0.00000000000E+00 0.  1.
    9000005    2    1    2  501    0  0.22932822974E+02 -0.20222555254E+02 -0.46096271638E+03  0.46198390168E+03  0.27628613482E+01 0.  0.
         13    1    3    3    0    0  0.18363113338E+02 -0.17115065452E+02 -0.38925152571E+03  0.39006009750E+03  0.00000000000E+00 0.  1.
          3    1    3    3  501    0  0.45697096362E+01 -0.31074898016E+01 -0.71711190675E+02  0.71923804176E+02  0.00000000000E+00 0.  1.
         21    1    1    2  502  501 -0.22932822974E+02  0.20222555254E+02 -0.53809269850E+03  0.53896068344E+03  0.00000000000E+00 0.  1.
<mgrwt>
<rscale>  1 0.30000000E+03</rscale>
<asrwt>0</asrwt>
<pdfrwt beam="1">  1        1 0.34348622E-02 0.30000000E+03</pdfrwt>
<pdfrwt beam="2">0</pdfrwt>
<totfact> 0.33738497E+03</totfact>
</mgrwt>
</event>
<event>
 6    1  0.1956957E-002  0.3000000E+03  0.7818608E-02  0.1093470E+00
          1   -1    0    0  502    0  0.00000000000E+00  0.00000000000E+00  0.31566342005E+01  0.31566342005E+01  0.00000000000E+00 0.  1.
         13   -1    0    0    0    0 -0.00000000000E+00 -0.00000000000E+00 -0.10000000000E+04  0.10000000000E+04  0.00000000000E+00 0.  1.
    9000005    2    1    2  501    0 -0.16339165675E+02  0.38101124883E+02 -0.83637882932E+03  0.83742331975E+03  0.54411642298E+01 0.  0.
         13    1    3    3    0    0  0.21065077810E+00  0.11796741186E+01 -0.39244614376E+02  0.39262905679E+02  0.00000000000E+00 0.  1.
          1    1    3    3  501    0 -0.16549816453E+02  0.36921450765E+02 -0.79713421494E+03  0.79816041407E+03  0.00000000000E+00 0.  1.
         21    1    1    2  502  501  0.16339165675E+02 -0.38101124883E+02 -0.16046453648E+03  0.16573331445E+03  0.00000000000E+00 0.  1.
<mgrwt>
<rscale>  1 0.30000000E+03</rscale>
<asrwt>0</asrwt>
<pdfrwt beam="1">  1        1 0.11478694E-01 0.30000000E+03</pdfrwt>
<pdfrwt beam="2">0</pdfrwt>
<totfact> 0.62511432E+02</totfact>
</mgrwt>
</event>
<event>
 6    1  0.1956957E-002  0.3000000E+03  0.7818608E-02  0.1093470E+00
          1   -1    0    0  502    0  0.00000000000E+00  0.00000000000E+00  0.21802202797E+01  0.21802202797E+01  0.00000000000E+00 0.  1.
         13   -1    0    0    0    0 -0.00000000000E+00 -0.00000000000E+00 -0.10000000000E+04  0.10000000000E+04  0.00000000000E+00 0.  1.
    9000005    2    1    2  501    0 -0.42353918021E+02 -0.73200521726E+01 -0.69261673038E+03  0.69396545934E+03  0.47629840516E+01 0.  0.
         13    1    3    3    0    0 -0.66212447921E+01 -0.26991876274E+01 -0.12947340823E+03  0.12967069806E+03  0.00000000000E+00 0.  1.
          1    1    3    3  501    0 -0.35732673228E+02 -0.46208645453E+01 -0.56314332215E+03  0.56429476128E+03  0.00000000000E+00 0.  1.
         21    1    1    2  502  501  0.42353918021E+02  0.73200521726E+01 -0.30520304934E+03  0.30821476094E+03  0.00000000000E+00 0.  1.
<mgrwt>
<rscale>  1 0.30000000E+03</rscale>
<asrwt>0</asrwt>
<pdfrwt beam="1">  1        1 0.79280905E-02 0.30000000E+03</pdfrwt>
<pdfrwt beam="2">0</pdfrwt>
<totfact> 0.10428727E+03</totfact>
</mgrwt>
</event>
<event>
 6    1  0.1956957E-002  0.3000000E+03  0.7818608E-02  0.1093470E+00
          3   -1    0    0  502    0  0.00000000000E+00  0.00000000000E+00  0.96898790550E+00  0.96898790550E+00  0.00000000000E+00 0.  1.
         13   -1    0    0    0    0 -0.00000000000E+00 -0.00000000000E+00 -0.10000000000E+04  0.10000000000E+04  0.00000000000E+00 0.  1.
    9000005    2    1    2  501    0 -0.13886018177E+02 -0.27332484968E+02 -0.45839971080E+03  0.45946913548E+03  0.64579690046E+01 0.  0.
         13    1    3    3    0    0 -0.41221519364E+01 -0.63157870759E+01 -0.77849757146E+02  0.78214231382E+02  0.00000000000E+00 0.  1.
          3    1    3    3  501    0 -0.97638662408E+01 -0.21016697892E+02 -0.38054995365E+03  0.38125490410E+03  0.00000000000E+00 0.  1.
         21    1    1    2  502  501  0.13886018177E+02  0.27332484968E+02 -0.54063130130E+03  0.54149985243E+03  0.00000000000E+00 0.  1.
<mgrwt>
<rscale>  1 0.30000000E+03</rscale>
<asrwt>0</asrwt>
<pdfrwt beam="1">  1        3 0.35235998E-02 0.30000000E+03</pdfrwt>
<pdfrwt beam="2">0</pdfrwt>
<totfact> 0.16960605E+03</totfact>
</mgrwt>
</event>
<event>
 6    1  0.1956957E-002  0.3000000E+03  0.7818608E-02  0.1093470E+00
          3   -1    0    0  502    0  0.00000000000E+00  0.00000000000E+00  0.14723390491E+01  0.14723390491E+01  0.00000000000E+00 0.  1.
         13   -1    0    0    0    0 -0.00000000000E+00 -0.00000000000E+00 -0.10000000000E+04  0.10000000000E+04  0.00000000000E+00 0.  1.
    9000005    2    1    2  501    0 -0.33416350392E+02 -0.90199666390E+01 -0.71389292878E+03  0.71474085660E+03  0.36559614197E+01 0.  0.
         13    1    3    3    0    0 -0.40394033063E+00  0.21481358967E+00 -0.54980920391E+01  0.55170942297E+01  0.00000000000E+00 0.  1.
          3    1    3    3  501    0 -0.33012410061E+02 -0.92347802286E+01 -0.70839483675E+03  0.70922376237E+03  0.00000000000E+00 0.  1.
         21    1    1    2  502  501  0.33416350392E+02  0.90199666390E+01 -0.28463473217E+03  0.28673148245E+03  0.00000000000E+00 0.  1.
<mgrwt>
<rscale>  1 0.30000000E+03</rscale>
<asrwt>0</asrwt>
<pdfrwt beam="1">  1        3 0.53539715E-02 0.30000000E+03</pdfrwt>
<pdfrwt beam="2">0</pdfrwt>
<totfact> 0.89014628E+02</totfact>
</mgrwt>
</event>
<event>
 6    1  0.1956957E-002  0.3000000E+03  0.7818608E-02  0.1093470E+00
          1   -1    0    0  502    0  0.00000000000E+00  0.00000000000E+00  0.16747210188E+01  0.16747210188E+01  0.00000000000E+00 0.  1.
         13   -1    0    0    0    0 -0.00000000000E+00 -0.00000000000E+00 -0.10000000000E+04  0.10000000000E+04  0.00000000000E+00 0.  1.
    9000005    2    1    2  501    0  0.84336152971E+01 -0.39945284452E+02 -0.48166562067E+03  0.48340456546E+03  0.33841032914E+01 0.  0.
         13    1    3    3    0    0  0.23670323476E+00 -0.14575231144E+01 -0.11363550893E+02  0.11459087701E+02  0.00000000000E+00 0.  1.
          1    1    3    3  501    0  0.81969120623E+01 -0.38487761337E+02 -0.47030206978E+03  0.47194547776E+03  0.00000000000E+00 0.  1.
         21    1    1    2  502  501 -0.84336152971E+01  0.39945284452E+02 -0.51665965831E+03  0.51827015556E+03  0.00000000000E+00 0.  1.
<mgrwt>
<rscale>  1 0.30000000E+03</rscale>
<asrwt>0</asrwt>
<pdfrwt beam="1">  1        1 0.60899075E-02 0.30000000E+03</pdfrwt>
<pdfrwt beam="2">0</pdfrwt>
<totfact> 0.15080534E+03</totfact>
</mgrwt>
</event>
<event>
 6    1  0.1956957E-002  0.3000000E+03  0.7818608E-02  0.1093470E+00
          1   -1    0    0  502    0  0.00000000000E+00  0.00000000000E+00  0.33622973949E+01  0.33622973949E+01  0.00000000000E+00 0.  1.
         13   -1    0    0    0    0 -0.00000000000E+00 -0.00000000000E+00 -0.10000000000E+04  0.10000000000E+04  0.00000000000E+00 0.  1.
    9000005    2    1    2  501    0  0.25210100153E+02 -0.32571500487E+02 -0.85118712694E+03  0.85219245333E+03  0.40000809978E+01 0.  0.
         13    1    3    3    0    0  0.37516574339E+01 -0.41318548057E+01 -0.91050396731E+02  0.91221279877E+02  0.00000000000E+00 0.  1.
          1    1    3    3  501    0  0.21458442719E+02 -0.28439645682E+02 -0.76013673021E+03  0.76097117345E+03  0.00000000000E+00 0.  1.
         21    1    1    2  502  501 -0.25210100153E+02  0.32571500487E+02 -0.14545057566E+03  0.15116984407E+03  0.00000000000E+00 0.  1.
<mgrwt>
<rscale>  1 0.30000000E+03</rscale>
<asrwt>0</asrwt>
<pdfrwt beam="1">  1        1 0.12226562E-01 0.30000000E+03</pdfrwt>
<pdfrwt beam="2">0</pdfrwt>
<totfact> 0.57328651E+02</totfact>
</mgrwt>
</event>
<event>
 6    1  0.1956957E-002  0.3000000E+03  0.7818608E-02  0.1093470E+00
          1   -1    0    0  502    0  0.00000000000E+00  0.00000000000E+00  0.32631602383E+01  0.32631602383E+01  0.00000000000E+00 0.  1.
         13   -1    0    0    0    0 -0.00000000000E+00 -0.00000000000E+00 -0.10000000000E+04  0.10000000000E+04  0.00000000000E+00 0.  1.
    9000005    2    1    2  501    0 -0.14648013130E+02  0.50196377054E+02 -0.69978316015E+03  0.70174080884E+03  0.30742484880E+01 0.  0.
         13    1    3    3    0    0 -0.13837798477E+02  0.48450783362E+02 -0.67996763047E+03  0.68183204791E+03  0.00000000000E+00 0.  1.
          3    1    3    3  501    0 -0.81021465331E+00  0.17455936915E+01 -0.19815529678E+02  0.19908760924E+02  0.00000000000E+00 0.  1.
         21    1    1    2  502  501  0.14648013130E+02 -0.50196377054E+02 -0.29695367961E+03  0.30152235140E+03  0.00000000000E+00 0.  1.
<mgrwt>
<rscale>  1 0.30000000E+03</rscale>
<asrwt>0</asrwt>
<pdfrwt beam="1">  1        1 0.11866062E-01 0.30000000E+03</pdfrwt>
<pdfrwt beam="2">0</pdfrwt>
<totfact> 0.59729325E+02</totfact>
</mgrwt>
</event>
<event>
 6    1  0.1956957E-002  0.3000000E+03  0.7818608E-02  0.1093470E+00
          1   -1    0    0  502    0  0.00000000000E+00  0.00000000000E+00  0.15141197320E+01  0.15141197320E+01  0.00000000000E+00 0.  1.
         13   -1    0    0    0    0 -0.00000000000E+00 -0.00000000000E+00 -0.10000000000E+04  0.10000000000E+04  0.00000000000E+00 0.  1.
    9000005    2    1    2  501    0 -0.32754071474E+02 -0.17997692959E+02 -0.62996938169E+03  0.63110737590E+03  0.61928912409E+01 0.  0.
         13    1    3    3    0    0 -0.10177265824E+02 -0.46859414554E+01 -0.23724002207E+03  0.23750444808E+03  0.00000000000E+00 0.  1.
          3    1    3    3  501    0 -0.22576805650E+02 -0.13311751504E+02 -0.39272935962E+03  0.39360292782E+03  0.00000000000E+00 0.  1.
         21    1    1    2  502  501  0.32754071474E+02  0.17997692959E+02 -0.36851649858E+03  0.37040674383E+03  0.00000000000E+00 0.  1.
<mgrwt>
<rscale>  1 0.30000000E+03</rscale>
<asrwt>0</asrwt>
<pdfrwt beam="1">  1        1 0.55059015E-02 0.30000000E+03</pdfrwt>
<pdfrwt beam="2">0</pdfrwt>
<totfact> 0.17372608E+03</totfact>
</mgrwt>
</event>
<event>
 6    1  0.1956957E-002  0.3000000E+03  0.7818608E-02  0.1093470E+00
          1   -1    0    0  502    0  0.00000000000E+00  0.00000000000E+00  0.92826806614E+00  0.92826806614E+00  0.00000000000E+00 0.  1.
         13   -1    0    0    0    0 -0.00000000000E+00 -0.00000000000E+00 -0.10000000000E+04  0.10000000000E+04  0.00000000000E+00 0.  1.
    9000005    2    1    2  501    0 -0.87794192327E+01  0.29062590969E+02 -0.51949069433E+03  0.52038723546E+03  0.32528342735E+01 0.  0.
         13    1    3    3    0    0 -0.84998839370E+01  0.25467362432E+02 -0.46908654019E+03  0.46985425056E+03  0.00000000000E+00 0.  1.
          1    1    3    3  501    0 -0.27953529567E+00  0.35952285374E+01 -0.50404154140E+02  0.50532984899E+02  0.00000000000E+00 0.  1.
         21    1    1    2  502  501  0.87794192327E+01 -0.29062590969E+02 -0.47958103760E+03  0.48054103261E+03  0.00000000000E+00 0.  1.
<mgrwt>
<rscale>  1 0.30000000E+03</rscale>
<asrwt>0</asrwt>
<pdfrwt beam="1">  1        1 0.33755274E-02 0.30000000E+03</pdfrwt>
<pdfrwt beam="2">0</pdfrwt>
<totfact> 0.34575317E+03</totfact>
</mgrwt>
</event>
<event>
 6    1  0.1956957E-002  0.3000000E+03  0.7818608E-02  0.1093470E+00
          1   -1    0    0  502    0  0.00000000000E+00  0.00000000000E+00  0.11771582420E+01  0.11771582420E+01  0.00000000000E+00 0.  1.
         13   -1    0    0    0    0 -0.00000000000E+00 -0.00000000000E+00 -0.10000000000E+04  0.10000000000E+04  0.00000000000E+00 0.  1.
    9000005    2    1    2  501    0 -0.12456314624E+02 -0.28573098024E+02 -0.70410375178E+03  0.70481433381E+03  0.54378466371E+01 0.  0.
         13    1    3    3    0    0  0.39574782363E+00 -0.29383598843E+01 -0.65602158912E+02  0.65669123864E+02  0.00000000000E+00 0.  1.
          1    1    3    3  501    0 -0.12852062447E+02 -0.25634738140E+02 -0.63850159287E+03  0.63914520995E+03  0.00000000000E+00 0.  1.
         21    1    1    2  502  501  0.12456314624E+02  0.28573098024E+02 -0.29471908998E+03  0.29636282443E+03  0.00000000000E+00 0.  1.
<mgrwt>
<rscale>  1 0.30000000E+03</rscale>
<asrwt>0</asrwt>
<pdfrwt beam="1">  1        1 0.42805845E-02 0.30000000E+03</pdfrwt>
<pdfrwt beam="2">0</pdfrwt>
<totfact> 0.24750566E+03</totfact>
</mgrwt>
</event>
<event>
 6    1  0.1956957E-002  0.3000000E+03  0.7818608E-02  0.1093470E+00
          1   -1    0    0  502    0  0.00000000000E+00  0.00000000000E+00  0.53976362971E+01  0.53976362971E+01  0.00000000000E+00 0.  1.
         13   -1    0    0    0    0 -0.00000000000E+00 -0.00000000000E+00 -0.10000000000E+04  0.10000000000E+04  0.00000000000E+00 0.  1.
    9000005    2    1    2  501    0  0.51528746062E+02  0.27584279027E+02 -0.80168019162E+03  0.80381621701E+03  0.36437583156E+01 0.  0.
         13    1    3    3    0    0  0.49945697806E+01  0.15107127068E+01 -0.69616206327E+02  0.69811490197E+02  0.00000000000E+00 0.  1.
          3    1    3    3  501    0  0.46534176281E+02  0.26073566320E+02 -0.73206398529E+03  0.73400472681E+03  0.00000000000E+00 0.  1.
         21    1    1    2  502  501 -0.51528746062E+02 -0.27584279027E+02 -0.19292217209E+03  0.20158141929E+03  0.00000000000E+00 0.  1.
<mgrwt>
<rscale>  1 0.30000000E+03</rscale>
<asrwt>0</asrwt>
<pdfrwt beam="1">  1        1 0.19627810E-01 0.30000000E+03</pdfrwt>
<pdfrwt beam="2">0</pdfrwt>
<totfact> 0.30191008E+02</totfact>
</mgrwt>
</event>
<event>
 6    1  0.1956957E-002  0.3000000E+03  0.7818608E-02  0.1093470E+00
          1   -1    0    0  502    0  0.00000000000E+00  0.00000000000E+00  0.32502310769E+01  0.32502310769E+01  0.00000000000E+00 0.  1.
         13   -1    0    0    0    0 -0.00000000000E+00 -0.00000000000E+00 -0.10000000000E+04  0.10000000000E+04  0.00000000000E+00 0.  1.
    9000005    2    1    2  501    0 -0.56183311654E+02  0.76720484170E+01 -0.54593810943E+03  0.54888630517E+03  0.35116711467E+01 0.  0.
         13    1    3    3    0    0 -0.54029902809E+02  0.66830375226E+01 -0.52221993600E+03  0.52505004994E+03  0.00000000000E+00 0.  1.
          1    1    3    3  501    0 -0.21534088447E+01  0.98901089445E+00 -0.23718173433E+02  0.23836255226E+02  0.00000000000E+00 0.  1.
         21    1    1    2  502  501  0.56183311654E+02 -0.76720484170E+01 -0.45081165949E+03  0.45436392591E+03  0.00000000000E+00 0.  1.
<mgrwt>
<rscale>  1 0.30000000E+03</rscale>
<asrwt>0</asrwt>
<pdfrwt beam="1">  1        1 0.11819047E-01 0.30000000E+03</pdfrwt>
<pdfrwt beam="2">0</pdfrwt>
<totfact> 0.60055357E+02</totfact>
</mgrwt>
</event>
<event>
 6    1  0.1956957E-002  0.3000000E+03  0.7818608E-02  0.1093470E+00
          1   -1    0    0  502    0  0.00000000000E+00  0.00000000000E+00  0.21424870140E+02  0.21424870140E+02  0.00000000000E+00 0.  1.
         13   -1    0    0    0    0 -0.00000000000E+00 -0.00000000000E+00 -0.10000000000E+04  0.10000000000E+04  0.00000000000E+00 0.  1.
    9000005    2    1    2  501    0  0.21623923003E+02  0.32143081679E+02 -0.98178234073E+03  0.98255254133E+03  0.34871397271E+01 0.  0.
         13    1    3    3    0    0  0.85387040650E+00  0.11597316912E+01 -0.23133126972E+02  0.23177912671E+02  0.00000000000E+00 0.  1.
          3    1    3    3  501    0  0.20770052597E+02  0.30983349988E+02 -0.95864921376E+03  0.95937462865E+03  0.00000000000E+00 0.  1.
         21    1    1    2  502  501 -0.21623923003E+02 -0.32143081679E+02  0.32072108730E+01  0.38872328815E+02  0.00000000000E+00 0.  1.
<mgrwt>
<rscale>  1 0.30000000E+03</rscale>
<asrwt>0</asrwt>
<pdfrwt beam="1">  1        1 0.77908783E-01 0.30000000E+03</pdfrwt>
<pdfrwt beam="2">0</pdfrwt>
<totfact> 0.48713672E+01</totfact>
</mgrwt>
</event>
<event>
 6    1  0.1956957E-002  0.3000000E+03  0.7818608E-02  0.1093470E+00
          1   -1    0    0  502    0  0.00000000000E+00  0.00000000000E+00  0.10551250427E+01  0.10551250427E+01  0.00000000000E+00 0.  1.
         13   -1    0    0    0    0 -0.00000000000E+00 -0.00000000000E+00 -0.10000000000E+04  0.10000000000E+04  0.00000000000E+00 0.  1.
    9000005    2    1    2  501    0 -0.29348720619E+02  0.11327601922E+02 -0.59378230805E+03  0.59467307870E+03  0.83053723189E+01 0.  0.
         13    1    3    3    0    0 -0.99763744156E+01  0.10939154077E+01 -0.24305893973E+03  0.24326605370E+03  0.00000000000E+00 0.  1.
          1    1    3    3  501    0 -0.19372346204E+02  0.10233686514E+02 -0.35072336832E+03  0.35140702500E+03  0.00000000000E+00 0.  1.
         21    1    1    2  502  501  0.29348720619E+02 -0.11327601922E+02 -0.40516256691E+03  0.40638204634E+03  0.00000000000E+00 0.  1.
<mgrwt>
<rscale>  1 0.30000000E+03</rscale>
<asrwt>0</asrwt>
<pdfrwt beam="1">  1        1 0.38368264E-02 0.30000000E+03</pdfrwt>
<pdfrwt beam="2">0</pdfrwt>
<totfact> 0.28873849E+03</totfact>
</mgrwt>
</event>
<event>
 6    1  0.1956957E-002  0.3000000E+03  0.7818608E-02  0.1093470E+00
          1   -1    0    0  502    0  0.00000000000E+00  0.00000000000E+00  0.17699100404E+01  0.17699100404E+01  0.00000000000E+00 0.  1.
         13   -1    0    0    0    0 -0.00000000000E+00 -0.00000000000E+00 -0.10000000000E+04  0.10000000000E+04  0.00000000000E+00 0.  1.
    9000005    2    1    2  501    0  0.53146518476E+01  0.30806450102E+02 -0.83393217458E+03  0.83452431850E+03  0.32685583010E+01 0.  0.
         13    1    3    3    0    0  0.56761114429E+01  0.28649654597E+02 -0.78551420778E+03  0.78605699003E+03  0.00000000000E+00 0.  1.
          1    1    3    3  501    0 -0.36145959528E+00  0.21567955053E+01 -0.48417966795E+02  0.48467328465E+02  0.00000000000E+00 0.  1.
         21    1    1    2  502  501 -0.53146518476E+01 -0.30806450102E+02 -0.16429791538E+03  0.16724559154E+03  0.00000000000E+00 0.  1.
<mgrwt>
<rscale>  1 0.30000000E+03</rscale>
<asrwt>0</asrwt>
<pdfrwt beam="1">  1        1 0.64360501E-02 0.30000000E+03</pdfrwt>
<pdfrwt beam="2">0</pdfrwt>
<totfact> 0.13956079E+03</totfact>
</mgrwt>
</event>
<event>
 6    1  0.1956957E-002  0.3000000E+03  0.7818608E-02  0.1093470E+00
          1   -1    0    0  502    0  0.00000000000E+00  0.00000000000E+00  0.43691001069E+01  0.43691001069E+01  0.00000000000E+00 0.  1.
         13   -1    0    0    0    0 -0.00000000000E+00 -0.00000000000E+00 -0.10000000000E+04  0.10000000000E+04  0.00000000000E+00 0.  1.
    9000005    2    1    2  501    0  0.17040403641E+02 -0.28918858598E+02 -0.93037563604E+03  0.93098705054E+03  0.33746685054E+01 0.  0.
         13    1    3    3    0    0  0.12586666282E+02 -0.22400424903E+02 -0.74633623561E+03  0.74677840072E+03  0.00000000000E+00 0.  1.
          3    1    3    3  501    0  0.44537373584E+01 -0.65184336951E+01 -0.18403940043E+03  0.18420864981E+03  0.00000000000E+00 0.  1.
         21    1    1    2  502  501 -0.17040403641E+02  0.28918858598E+02 -0.65255263851E+02  0.73382049570E+02  0.00000000000E+00 0.  1.
<mgrwt>
<rscale>  1 0.30000000E+03</rscale>
<asrwt>0</asrwt>
<pdfrwt beam="1">  1        1 0.15887670E-01 0.30000000E+03</pdfrwt>
<pdfrwt beam="2">0</pdfrwt>
<totfact> 0.40127197E+02</totfact>
</mgrwt>
</event>
<event>
 6    1  0.1956957E-002  0.3000000E+03  0.7818608E-02  0.1093470E+00
          1   -1    0    0  502    0  0.00000000000E+00  0.00000000000E+00  0.95931559437E+00  0.95931559437E+00  0.00000000000E+00 0.  1.
         13   -1    0    0    0    0 -0.00000000000E+00 -0.00000000000E+00 -0.10000000000E+04  0.10000000000E+04  0.00000000000E+00 0.  1.
    9000005    2    1    2  501    0  0.21545577300E+02 -0.21676644043E+02 -0.57221904779E+03  0.57304484017E+03  0.34148775548E+01 0.  0.
         13    1    3    3    0    0  0.21495664423E+02 -0.20922774406E+02 -0.55768399062E+03  0.55849016059E+03  0.00000000000E+00 0.  1.
          1    1    3    3  501    0  0.49912876257E-01 -0.75386963672E+00 -0.14535057170E+02  0.14554679579E+02  0.00000000000E+00 0.  1.
         21    1    1    2  502  501 -0.21545577300E+02  0.21676644043E+02 -0.42682163662E+03  0.42791447543E+03  0.00000000000E+00 0.  1.
<mgrwt>
<rscale>  1 0.30000000E+03</rscale>
<asrwt>0</asrwt>
<pdfrwt beam="1">  1        1 0.34884277E-02 0.30000000E+03</pdfrwt>
<pdfrwt beam="2">0</pdfrwt>
<totfact> 0.33012250E+03</totfact>
</mgrwt>
</event>
<event>
 6    1  0.1956957E-002  0.3000000E+03  0.7818608E-02  0.1093470E+00
          1   -1    0    0  502    0  0.00000000000E+00  0.00000000000E+00  0.22901345750E+02  0.22901345750E+02  0.00000000000E+00 0.  1.
         13   -1    0    0    0    0 -0.00000000000E+00 -0.00000000000E+00 -0.10000000000E+04  0.10000000000E+04  0.00000000000E+00 0.  1.
    9000005    2    1    2  501    0  0.56468815832E+01  0.33478246559E+02 -0.98695857051E+03  0.98754744621E+03  0.31714872331E+01 0.  0.
         13    1    3    3    0    0  0.38652642455E+01  0.27714324979E+02 -0.78394428697E+03  0.78444354109E+03  0.00000000000E+00 0.  1.
          3    1    3    3  501    0  0.17816173377E+01  0.57639215806E+01 -0.20301428354E+03  0.20310390512E+03  0.00000000000E+00 0.  1.
         21    1    1    2  502  501 -0.56468815832E+01 -0.33478246559E+02  0.98599162640E+01  0.35353899545E+02  0.00000000000E+00 0.  1.
<mgrwt>
<rscale>  1 0.30000000E+03</rscale>
<asrwt>0</asrwt>
<pdfrwt beam="1">  1        1 0.83277797E-01 0.30000000E+03</pdfrwt>
<pdfrwt beam="2">0</pdfrwt>
<totfact> 0.44420368E+01</totfact>
</mgrwt>
</event>
<event>
 6    1  0.1956957E-002  0.3000000E+03  0.7818608E-02  0.1093470E+00
          3   -1    0    0  502    0  0.00000000000E+00  0.00000000000E+00  0.99916347197E+01  0.99916347197E+01  0.00000000000E+00 0.  1.
         13   -1    0    0    0    0 -0.00000000000E+00 -0.00000000000E+00 -0.10000000000E+04  0.10000000000E+04  0.00000000000E+00 0.  1.
    9000005    2    1    2  501    0  0.21826340568E+02  0.35548554862E+02 -0.95390817294E+03  0.95482540608E+03  0.32656997490E+01 0.  0.
         13    1    3    3    0    0  0.12377806891E+02  0.17979016383E+02 -0.52493860845E+03  0.52539223232E+03  0.00000000000E+00 0.  1.
          1    1    3    3  501    0  0.94485336771E+01  0.17569538480E+02 -0.42896956449E+03  0.42943317376E+03  0.00000000000E+00 0.  1.
         21    1    1    2  502  501 -0.21826340568E+02 -0.35548554862E+02 -0.36100192337E+02  0.55166228638E+02  0.00000000000E+00 0.  1.
<mgrwt>
<rscale>  1 0.30000000E+03</rscale>
<asrwt>0</asrwt>
<pdfrwt beam="1">  1        3 0.36333294E-01 0.30000000E+03</pdfrwt>
<pdfrwt beam="2">0</pdfrwt>
<totfact> 0.32407296E+01</totfact>
</mgrwt>
</event>
<event>
 6    1  0.1956957E-002  0.3000000E+03  0.7818608E-02  0.1093470E+00
          1   -1    0    0  502    0  0.00000000000E+00  0.00000000000E+00  0.16627934019E+01  0.16627934019E+01  0.00000000000E+00 0.  1.
         13   -1    0    0    0    0 -0.00000000000E+00 -0.00000000000E+00 -0.10000000000E+04  0.10000000000E+04  0.00000000000E+00 0.  1.
    9000005    2    1    2  501    0  0.15574508681E+02  0.29612802919E+02 -0.78110589156E+03  0.78186987347E+03  0.86372332859E+01 0.  0.
         13    1    3    3    0    0  0.13044322031E+02  0.19638954471E+02 -0.46599504873E+03  0.46659107183E+03  0.00000000000E+00 0.  1.
          1    1    3    3  501    0  0.25301866497E+01  0.99738484482E+01 -0.31511084283E+03  0.31527880165E+03  0.00000000000E+00 0.  1.
         21    1    1    2  502  501 -0.15574508681E+02 -0.29612802919E+02 -0.21723131504E+03  0.21979291993E+03  0.00000000000E+00 0.  1.
<mgrwt>
<rscale>  1 0.30000000E+03</rscale>
<asrwt>0</asrwt>
<pdfrwt beam="1">  1        1 0.60465342E-02 0.30000000E+03</pdfrwt>
<pdfrwt beam="2">0</pdfrwt>
<totfact> 0.15232476E+03</totfact>
</mgrwt>
</event>
<event>
 6    1  0.1956957E-002  0.3000000E+03  0.7818608E-02  0.1093470E+00
          3   -1    0    0  502    0  0.00000000000E+00  0.00000000000E+00  0.12800071030E+01  0.12800071030E+01  0.00000000000E+00 0.  1.
         13   -1    0    0    0    0 -0.00000000000E+00 -0.00000000000E+00 -0.10000000000E+04  0.10000000000E+04  0.00000000000E+00 0.  1.
    9000005    2    1    2  501    0  0.34396836334E+02 -0.24066084426E+01 -0.62729040924E+03  0.62825337303E+03  0.44843151311E+01 0.  0.
         13    1    3    3    0    0  0.32718781031E+02 -0.12735323533E+01 -0.58879103898E+03  0.58970079541E+03  0.00000000000E+00 0.  1.
          3    1    3    3  501    0  0.16780553033E+01 -0.11330760893E+01 -0.38499370257E+02  0.38552577621E+02  0.00000000000E+00 0.  1.
         21    1    1    2  502  501 -0.34396836334E+02  0.24066084426E+01 -0.37142958366E+03  0.37302663408E+03  0.00000000000E+00 0.  1.
<mgrwt>
<rscale>  1 0.30000000E+03</rscale>
<asrwt>0</asrwt>
<pdfrwt beam="1">  1        3 0.46545811E-02 0.30000000E+03</pdfrwt>
<pdfrwt beam="2">0</pdfrwt>
<totfact> 0.11049633E+03</totfact>
</mgrwt>
</event>
<event>
 6    1  0.1956957E-002  0.3000000E+03  0.7818608E-02  0.1093470E+00
          3   -1    0    0  502    0  0.00000000000E+00  0.00000000000E+00  0.13529703363E+01  0.13529703363E+01  0.00000000000E+00 0.  1.
         13   -1    0    0    0    0 -0.00000000000E+00 -0.00000000000E+00 -0.10000000000E+04  0.10000000000E+04  0.00000000000E+00 0.  1.
    9000005    2    1    2  501    0 -0.32580790905E+02  0.12685726953E+02 -0.65127797801E+03  0.65222878949E+03  0.41174743821E+01 0.  0.
         13    1    3    3    0    0 -0.59034418256E+01  0.35689826446E+01 -0.10839666010E+03  0.10861594811E+03  0.00000000000E+00 0.  1.
          3    1    3    3  501    0 -0.26677349080E+02  0.91167443088E+01 -0.54288131790E+03  0.54361284138E+03  0.00000000000E+00 0.  1.
         21    1    1    2  502  501  0.32580790905E+02 -0.12685726953E+02 -0.34736905166E+03  0.34912418085E+03  0.00000000000E+00 0.  1.
<mgrwt>
<rscale>  1 0.30000000E+03</rscale>
<asrwt>0</asrwt>
<pdfrwt beam="1">  1        3 0.49199025E-02 0.30000000E+03</pdfrwt>
<pdfrwt beam="2">0</pdfrwt>
<totfact> 0.10143667E+03</totfact>
</mgrwt>
</event>
<event>
 6    1  0.1956957E-002  0.3000000E+03  0.7818608E-02  0.1093470E+00
          1   -1    0    0  502    0  0.00000000000E+00  0.00000000000E+00  0.29201377796E+01  0.29201377796E+01  0.00000000000E+00 0.  1.
         13   -1    0    0    0    0 -0.00000000000E+00 -0.00000000000E+00 -0.10000000000E+04  0.10000000000E+04  0.00000000000E+00 0.  1.
    9000005    2    1    2  501    0 -0.26234403907E+02  0.47038302340E+02 -0.52226650143E+03  0.52506181838E+03  0.51738542911E+01 0.  0.
         13    1    3    3    0    0 -0.19037626298E+02  0.29118337458E+02 -0.33982510261E+03  0.34160124291E+03  0.00000000000E+00 0.  1.
          1    1    3    3  501    0 -0.71967776090E+01  0.17919964882E+02 -0.18244139881E+03  0.18346057547E+03  0.00000000000E+00 0.  1.
         21    1    1    2  502  501  0.26234403907E+02 -0.47038302340E+02 -0.47481336079E+03  0.47785831940E+03  0.00000000000E+00 0.  1.
<mgrwt>
<rscale>  1 0.30000000E+03</rscale>
<asrwt>0</asrwt>
<pdfrwt beam="1">  1        1 0.10618705E-01 0.30000000E+03</pdfrwt>
<pdfrwt beam="2">0</pdfrwt>
<totfact> 0.69572232E+02</totfact>
</mgrwt>
</event>
<event>
 6    1  0.1956957E-002  0.3000000E+03  0.7818608E-02  0.1093470E+00
          1   -1    0    0  502    0  0.00000000000E+00  0.00000000000E+00  0.39272363299E+01  0.39272363299E+01  0.00000000000E+00 0.  1.
         13   -1    0    0    0    0 -0.00000000000E+00 -0.00000000000E+00 -0.10000000000E+04  0.10000000000E+04  0.00000000000E+00 0.  1.
    9000005    2    1    2  501    0  0.23315080542E+02 -0.48888562100E+02 -0.75026344963E+03  0.75222125040E+03  0.28073502421E+01 0.  0.
         13    1    3    3    0    0  0.90860683514E-01  0.74857451964E-02 -0.21735992608E+01  0.21755103877E+01  0.00000000000E+00 0.  1.
          1    1    3    3  501    0  0.23224219859E+02 -0.48896047845E+02 -0.74808985037E+03  0.75004574001E+03  0.00000000000E+00 0.  1.
         21    1    1    2  502  501 -0.23315080542E+02  0.48888562100E+02 -0.24580931404E+03  0.25170598593E+03  0.00000000000E+00 0.  1.
<mgrwt>
<rscale>  1 0.30000000E+03</rscale>
<asrwt>0</asrwt>
<pdfrwt beam="1">  1        1 0.14280889E-01 0.30000000E+03</pdfrwt>
<pdfrwt beam="2">0</pdfrwt>
<totfact> 0.46375444E+02</totfact>
</mgrwt>
</event>
<event>
 6    1  0.1956957E-002  0.3000000E+03  0.7818608E-02  0.1093470E+00
          1   -1    0    0  502    0  0.00000000000E+00  0.00000000000E+00  0.27181394891E+01  0.27181394891E+01  0.00000000000E+00 0.  1.
         13   -1    0    0    0    0 -0.00000000000E+00 -0.00000000000E+00 -0.10000000000E+04  0.10000000000E+04  0.00000000000E+00 0.  1.
    9000005    2    1    2  501    0 -0.44545906644E+02 -0.34862984053E+00 -0.75856338393E+03  0.75987874729E+03  0.35838255118E+01 0.  0.
         13    1    3    3    0    0 -0.30918476211E+02 -0.18674456397E+01 -0.53078438604E+03  0.53168741191E+03  0.00000000000E+00 0.  1.
          1    1    3    3  501    0 -0.13627430434E+02  0.15188157992E+01 -0.22777899789E+03  0.22819133538E+03  0.00000000000E+00 0.  1.
         21    1    1    2  502  501  0.44545906644E+02  0.34862984053E+00 -0.23871847658E+03  0.24283939220E+03  0.00000000000E+00 0.  1.
<mgrwt>
<rscale>  1 0.30000000E+03</rscale>
<asrwt>0</asrwt>
<pdfrwt beam="1">  1        1 0.98841644E-02 0.30000000E+03</pdfrwt>
<pdfrwt beam="2">0</pdfrwt>
<totfact> 0.76799353E+02</totfact>
</mgrwt>
</event>
<event>
 6    1  0.1956957E-002  0.3000000E+03  0.7818608E-02  0.1093470E+00
          3   -1    0    0  502    0  0.00000000000E+00  0.00000000000E+00  0.10158979893E+02  0.10158979893E+02  0.00000000000E+00 0.  1.
         13   -1    0    0    0    0 -0.00000000000E+00 -0.00000000000E+00 -0.10000000000E+04  0.10000000000E+04  0.00000000000E+00 0.  1.
    9000005    2    1    2  501    0 -0.18448267095E+02  0.29177558818E+02 -0.96943070406E+03  0.97005599374E+03  0.45904815561E+01 0.  0.
         13    1    3    3    0    0 -0.88601624565E+01  0.98664988312E+01 -0.37561634509E+03  0.37585035450E+03  0.00000000000E+00 0.  1.
          3    1    3    3  501    0 -0.95881046388E+01  0.19311059986E+02 -0.59381435896E+03  0.59420563923E+03  0.00000000000E+00 0.  1.
         21    1    1    2  502  501  0.18448267095E+02 -0.29177558818E+02 -0.20410316051E+02  0.40102986157E+02  0.00000000000E+00 0.  1.
<mgrwt>
<rscale>  1 0.30000000E+03</rscale>
<asrwt>0</asrwt>
<pdfrwt beam="1">  1        3 0.36941823E-01 0.30000000E+03</pdfrwt>
<pdfrwt beam="2">0</pdfrwt>
<totfact> 0.31387749E+01</totfact>
</mgrwt>
</event>
<event>
 6    1  0.1956957E-002  0.3000000E+03  0.7818608E-02  0.1093470E+00
          1   -1    0    0  502    0  0.00000000000E+00  0.00000000000E+00  0.10655796574E+01  0.10655796574E+01  0.00000000000E+00 0.  1.
         13   -1    0    0    0    0 -0.00000000000E+00 -0.00000000000E+00 -0.10000000000E+04  0.10000000000E+04  0.00000000000E+00 0.  1.
    9000005    2    1    2  501    0  0.30347690723E+02 -0.45913039231E+01 -0.66810670285E+03  0.66881711681E+03  0.27761375003E+01 0.  0.
         13    1    3    3    0    0  0.91705431275E+01 -0.26204463150E+01 -0.21560245078E+03  0.21581330446E+03  0.00000000000E+00 0.  1.
          3    1    3    3  501    0  0.21177147595E+02 -0.19708576081E+01 -0.45250425207E+03  0.45300381235E+03  0.00000000000E+00 0.  1.
         21    1    1    2  502  501 -0.30347690723E+02  0.45913039231E+01 -0.33082771749E+03  0.33224846284E+03  0.00000000000E+00 0.  1.
<mgrwt>
<rscale>  1 0.30000000E+03</rscale>
<asrwt>0</asrwt>
<pdfrwt beam="1">  1        1 0.38748433E-02 0.30000000E+03</pdfrwt>
<pdfrwt beam="2">0</pdfrwt>
<totfact> 0.28475860E+03</totfact>
</mgrwt>
</event>
<event>
 6    1  0.1956957E-002  0.3000000E+03  0.7818608E-02  0.1093470E+00
          3   -1    0    0  502    0  0.00000000000E+00  0.00000000000E+00  0.17841628257E+02  0.17841628257E+02  0.00000000000E+00 0.  1.
         13   -1    0    0    0    0 -0.00000000000E+00 -0.00000000000E+00 -0.10000000000E+04  0.10000000000E+04  0.00000000000E+00 0.  1.
    9000005    2    1    2  501    0  0.85268294982E+02 -0.90238739300E+02 -0.67865355109E+03  0.68992565066E+03  0.36123178392E+01 0.  0.
         13    1    3    3    0    0  0.58985295311E+02 -0.64779068404E+02 -0.48041286593E+03  0.48833606718E+03  0.00000000000E+00 0.  1.
          1    1    3    3  501    0  0.26282999671E+02 -0.25459670896E+02 -0.19824068516E+03  0.20158958348E+03  0.00000000000E+00 0.  1.
         21    1    1    2  502  501 -0.85268294982E+02  0.90238739300E+02 -0.30350482066E+03  0.32791597759E+03  0.00000000000E+00 0.  1.
<mgrwt>
<rscale>  1 0.30000000E+03</rscale>
<asrwt>0</asrwt>
<pdfrwt beam="1">  1        3 0.64878785E-01 0.30000000E+03</pdfrwt>
<pdfrwt beam="2">0</pdfrwt>
<totfact> 0.10432831E+01</totfact>
</mgrwt>
</event>
<event>
 6    1  0.1956957E-002  0.3000000E+03  0.7818608E-02  0.1093470E+00
          1   -1    0    0  502    0  0.00000000000E+00  0.00000000000E+00  0.30417652596E+01  0.30417652596E+01  0.00000000000E+00 0.  1.
         13   -1    0    0    0    0 -0.00000000000E+00 -0.00000000000E+00 -0.10000000000E+04  0.10000000000E+04  0.00000000000E+00 0.  1.
    9000005    2    1    2  501    0 -0.33912948541E+02 -0.41117224633E+02 -0.62601739324E+03  0.62829141886E+03  0.34082433501E+01 0.  0.
         13    1    3    3    0    0 -0.12169995995E+02 -0.17292959044E+02 -0.25277424717E+03  0.25365720031E+03  0.00000000000E+00 0.  1.
          1    1    3    3  501    0 -0.21742952545E+02 -0.23824265589E+02 -0.37324314607E+03  0.37463421855E+03  0.00000000000E+00 0.  1.
         21    1    1    2  502  501  0.33912948541E+02  0.41117224633E+02 -0.37094084150E+03  0.37475034640E+03  0.00000000000E+00 0.  1.
<mgrwt>
<rscale>  1 0.30000000E+03</rscale>
<asrwt>0</asrwt>
<pdfrwt beam="1">  1        1 0.11060988E-01 0.30000000E+03</pdfrwt>
<pdfrwt beam="2">0</pdfrwt>
<totfact> 0.65775653E+02</totfact>
</mgrwt>
</event>
<event>
 6    1  0.1956957E-002  0.3000000E+03  0.7818608E-02  0.1093470E+00
          1   -1    0    0  502    0  0.00000000000E+00  0.00000000000E+00  0.12136593379E+01  0.12136593379E+01  0.00000000000E+00 0.  1.
         13   -1    0    0    0    0 -0.00000000000E+00 -0.00000000000E+00 -0.10000000000E+04  0.10000000000E+04  0.00000000000E+00 0.  1.
    9000005    2    1    2  501    0  0.51332587581E+01 -0.32826898987E+02 -0.64720322310E+03  0.64806405337E+03  0.33240988145E+01 0.  0.
         13    1    3    3    0    0  0.81406484283E+00 -0.63351373834E+01 -0.10107468576E+03  0.10127629915E+03  0.00000000000E+00 0.  1.
          3    1    3    3  501    0  0.43191939153E+01 -0.26491761604E+02 -0.54612853734E+03  0.54678775422E+03  0.00000000000E+00 0.  1.
         21    1    1    2  502  501 -0.51332587581E+01  0.32826898987E+02 -0.35158311756E+03  0.35314960597E+03  0.00000000000E+00 0.  1.
<mgrwt>
<rscale>  1 0.30000000E+03</rscale>
<asrwt>0</asrwt>
<pdfrwt beam="1">  1        1 0.44133160E-02 0.30000000E+03</pdfrwt>
<pdfrwt beam="2">0</pdfrwt>
<totfact> 0.23709125E+03</totfact>
</mgrwt>
</event>
<event>
 6    1  0.1956957E-002  0.3000000E+03  0.7818608E-02  0.1093470E+00
          1   -1    0    0  502    0  0.00000000000E+00  0.00000000000E+00  0.19800031493E+01  0.19800031493E+01  0.00000000000E+00 0.  1.
         13   -1    0    0    0    0 -0.00000000000E+00 -0.00000000000E+00 -0.10000000000E+04  0.10000000000E+04  0.00000000000E+00 0.  1.
    9000005    2    1    2  501    0  0.40316703778E+02  0.45798954462E+01 -0.70328975124E+03  0.70446978530E+03  0.38460574859E+01 0.  0.
         13    1    3    3    0    0  0.10491452037E+02 -0.16682021809E+00 -0.19921799857E+03  0.19949413362E+03  0.00000000000E+00 0.  1.
          3    1    3    3  501    0  0.29825251741E+02  0.47467156643E+01 -0.50407175267E+03  0.50497565168E+03  0.00000000000E+00 0.  1.
         21    1    1    2  502  501 -0.40316703778E+02 -0.45798954462E+01 -0.29473024561E+03  0.29751021785E+03  0.00000000000E+00 0.  1.
<mgrwt>
<rscale>  1 0.30000000E+03</rscale>
<asrwt>0</asrwt>
<pdfrwt beam="1">  1        1 0.72000266E-02 0.30000000E+03</pdfrwt>
<pdfrwt beam="2">0</pdfrwt>
<totfact> 0.11928937E+03</totfact>
</mgrwt>
</event>
<event>
 6    1  0.1956957E-002  0.3000000E+03  0.7818608E-02  0.1093470E+00
          3   -1    0    0  502    0  0.00000000000E+00  0.00000000000E+00  0.17517320158E+02  0.17517320158E+02  0.00000000000E+00 0.  1.
         13   -1    0    0    0    0 -0.00000000000E+00 -0.00000000000E+00 -0.10000000000E+04  0.10000000000E+04  0.00000000000E+00 0.  1.
    9000005    2    1    2  501    0  0.40523885359E+02 -0.10598533881E+02 -0.97384320868E+03  0.97474870238E+03  0.31501568639E+01 0.  0.
         13    1    3    3    0    0  0.35504890245E+02 -0.82593288952E+01 -0.85397224582E+03  0.85474991101E+03  0.00000000000E+00 0.  1.
          3    1    3    3  501    0  0.50189951146E+01 -0.23392049859E+01 -0.11987096286E+03  0.11999879137E+03  0.00000000000E+00 0.  1.
         21    1    1    2  502  501 -0.40523885359E+02  0.10598533881E+02 -0.86394711636E+01  0.42768617783E+02  0.00000000000E+00 0.  1.
<mgrwt>
<rscale>  1 0.30000000E+03</rscale>
<asrwt>0</asrwt>
<pdfrwt beam="1">  1        3 0.63699480E-01 0.30000000E+03</pdfrwt>
<pdfrwt beam="2">0</pdfrwt>
<totfact> 0.10825619E+01</totfact>
</mgrwt>
</event>
<event>
 6    1  0.1956957E-002  0.3000000E+03  0.7818608E-02  0.1093470E+00
          3   -1    0    0  502    0  0.00000000000E+00  0.00000000000E+00  0.21466415604E+01  0.21466415604E+01  0.00000000000E+00 0.  1.
         13   -1    0    0    0    0 -0.00000000000E+00 -0.00000000000E+00 -0.10000000000E+04  0.10000000000E+04  0.00000000000E+00 0.  1.
    9000005    2    1    2  501    0 -0.12002734186E+01 -0.32664037961E+02 -0.85382586035E+03  0.85445676297E+03  0.30626704128E+01 0.  0.
         13    1    3    3    0    0 -0.19673193368E+01 -0.16678094174E+02 -0.41855355205E+03  0.41889032587E+03  0.00000000000E+00 0.  1.
          3    1    3    3  501    0  0.76704591819E+00 -0.15985943787E+02 -0.43527230830E+03  0.43556643710E+03  0.00000000000E+00 0.  1.
         21    1    1    2  502  501  0.12002734186E+01  0.32664037961E+02 -0.14402749809E+03  0.14768987859E+03  0.00000000000E+00 0.  1.
<mgrwt>
<rscale>  1 0.30000000E+03</rscale>
<asrwt>0</asrwt>
<pdfrwt beam="1">  1        3 0.78059858E-02 0.30000000E+03</pdfrwt>
<pdfrwt beam="2">0</pdfrwt>
<totfact> 0.49283089E+02</totfact>
</mgrwt>
</event>
<event>
 6    1  0.1956957E-002  0.3000000E+03  0.7818608E-02  0.1093470E+00
          1   -1    0    0  502    0  0.00000000000E+00  0.00000000000E+00  0.11580890167E+02  0.11580890167E+02  0.00000000000E+00 0.  1.
         13   -1    0    0    0    0 -0.00000000000E+00 -0.00000000000E+00 -0.10000000000E+04  0.10000000000E+04  0.00000000000E+00 0.  1.
    9000005    2    1    2  501    0  0.50870081365E+02 -0.34278829439E+02 -0.90976192481E+03  0.91183242611E+03  0.29681891599E+01 0.  0.
         13    1    3    3    0    0  0.31819672221E+02 -0.21581726455E+02 -0.59120167099E+03  0.59245057030E+03  0.00000000000E+00 0.  1.
          1    1    3    3  501    0  0.19050409144E+02 -0.12697102984E+02 -0.31856025382E+03  0.31938185582E+03  0.00000000000E+00 0.  1.
         21    1    1    2  502  501 -0.50870081365E+02  0.34278829439E+02 -0.78657185021E+02  0.99748464054E+02  0.00000000000E+00 0.  1.
<mgrwt>
<rscale>  1 0.30000000E+03</rscale>
<asrwt>0</asrwt>
<pdfrwt beam="1">  1        1 0.42112417E-01 0.30000000E+03</pdfrwt>
<pdfrwt beam="2">0</pdfrwt>
<totfact> 0.11051048E+02</totfact>
</mgrwt>
</event>
<event>
 6    1  0.1956957E-002  0.3000000E+03  0.7818608E-02  0.1093470E+00
          1   -1    0    0  502    0  0.00000000000E+00  0.00000000000E+00  0.38620916782E+01  0.38620916782E+01  0.00000000000E+00 0.  1.
         13   -1    0    0    0    0 -0.00000000000E+00 -0.00000000000E+00 -0.10000000000E+04  0.10000000000E+04  0.00000000000E+00 0.  1.
    9000005    2    1    2  501    0 -0.55025877181E+02  0.15929054492E+02 -0.69207025474E+03  0.69444535023E+03  0.33948515436E+01 0.  0.
         13    1    3    3    0    0 -0.49137967649E+02  0.13599517239E+02 -0.60432442895E+03  0.60647135312E+03  0.00000000000E+00 0.  1.
          1    1    3    3  501    0 -0.58879095319E+01  0.23295372533E+01 -0.87745825792E+02  0.87973997104E+02  0.00000000000E+00 0.  1.
         21    1    1    2  502  501  0.55025877181E+02 -0.15929054492E+02 -0.30406765358E+03  0.30941674145E+03  0.00000000000E+00 0.  1.
<mgrwt>
<rscale>  1 0.30000000E+03</rscale>
<asrwt>0</asrwt>
<pdfrwt beam="1">  1        1 0.14043999E-01 0.30000000E+03</pdfrwt>
<pdfrwt beam="2">0</pdfrwt>
<totfact> 0.47443176E+02</totfact>
</mgrwt>
</event>
<event>
 6    1  0.1956957E-002  0.3000000E+03  0.7818608E-02  0.1093470E+00
          1   -1    0    0  502    0  0.00000000000E+00  0.00000000000E+00  0.62278348784E+01  0.62278348784E+01  0.00000000000E+00 0.  1.
         13   -1    0    0    0    0 -0.00000000000E+00 -0.00000000000E+00 -0.10000000000E+04  0.10000000000E+04  0.00000000000E+00 0.  1.
    9000005    2    1    2  501    0 -0.34815863840E+02  0.53909809108E+02 -0.78946818414E+03  0.79208179000E+03  0.38905506328E+01 0.  0.
         13    1    3    3    0    0 -0.23713434196E+01  0.52894859003E+01 -0.63229669990E+02  0.63494827331E+02  0.00000000000E+00 0.  1.
          3    1    3    3  501    0 -0.32444520420E+02  0.48620323207E+02 -0.72623851415E+03  0.72858696267E+03  0.00000000000E+00 0.  1.
         21    1    1    2  502  501  0.34815863840E+02 -0.53909809108E+02 -0.20430398098E+03  0.21414604488E+03  0.00000000000E+00 0.  1.
<mgrwt>
<rscale>  1 0.30000000E+03</rscale>
<asrwt>0</asrwt>
<pdfrwt beam="1">  1        1 0.22646720E-01 0.30000000E+03</pdfrwt>
<pdfrwt beam="2">0</pdfrwt>
<totfact> 0.24952847E+02</totfact>
</mgrwt>
</event>
<event>
 6    1  0.1956957E-002  0.3000000E+03  0.7818608E-02  0.1093470E+00
          1   -1    0    0  502    0  0.00000000000E+00  0.00000000000E+00  0.22945656004E+01  0.22945656004E+01  0.00000000000E+00 0.  1.
         13   -1    0    0    0    0 -0.00000000000E+00 -0.00000000000E+00 -0.10000000000E+04  0.10000000000E+04  0.00000000000E+00 0.  1.
    9000005    2    1    2  501    0  0.39264416964E+02  0.20285879381E+02 -0.69127278203E+03  0.69269130047E+03  0.31570917327E+01 0.  0.
         13    1    3    3    0    0  0.20393554446E+02  0.10823546805E+02 -0.38535299550E+03  0.38604400963E+03  0.00000000000E+00 0.  1.
          1    1    3    3  501    0  0.18870862518E+02  0.94623325755E+01 -0.30591978652E+03  0.30664729084E+03  0.00000000000E+00 0.  1.
         21    1    1    2  502  501 -0.39264416964E+02 -0.20285879381E+02 -0.30643265237E+03  0.30960326513E+03  0.00000000000E+00 0.  1.
<mgrwt>
<rscale>  1 0.30000000E+03</rscale>
<asrwt>0</asrwt>
<pdfrwt beam="1">  1        1 0.83438925E-02 0.30000000E+03</pdfrwt>
<pdfrwt beam="2">0</pdfrwt>
<totfact> 0.97126938E+02</totfact>
</mgrwt>
</event>
<event>
 6    1  0.1956957E-002  0.3000000E+03  0.7818608E-02  0.1093470E+00
          3   -1    0    0  502    0  0.00000000000E+00  0.00000000000E+00  0.30911254218E+01  0.30911254218E+01  0.00000000000E+00 0.  1.
         13   -1    0    0    0    0 -0.00000000000E+00 -0.00000000000E+00 -0.10000000000E+04  0.10000000000E+04  0.00000000000E+00 0.  1.
    9000005    2    1    2  501    0  0.32431640799E+02  0.83455081762E+01 -0.89873065365E+03  0.89935867198E+03  0.27882307906E+01 0.  0.
         13    1    3    3    0    0  0.46093143125E+01  0.22537939924E+00 -0.12949877428E+03  0.12958097512E+03  0.00000000000E+00 0.  1.
          1    1    3    3  501    0  0.27822326487E+02  0.81201287769E+01 -0.76923187937E+03  0.76977769686E+03  0.00000000000E+00 0.  1.
         21    1    1    2  502  501 -0.32431640799E+02 -0.83455081762E+01 -0.98178220932E+02  0.10373245344E+03  0.00000000000E+00 0.  1.
<mgrwt>
<rscale>  1 0.30000000E+03</rscale>
<asrwt>0</asrwt>
<pdfrwt beam="1">  1        3 0.11240480E-01 0.30000000E+03</pdfrwt>
<pdfrwt beam="2">0</pdfrwt>
<totfact> 0.27191522E+02</totfact>
</mgrwt>
</event>
<event>
 6    1  0.1956957E-002  0.3000000E+03  0.7818608E-02  0.1093470E+00
          3   -1    0    0  502    0  0.00000000000E+00  0.00000000000E+00  0.12893849917E+01  0.12893849917E+01  0.00000000000E+00 0.  1.
         13   -1    0    0    0    0 -0.00000000000E+00 -0.00000000000E+00 -0.10000000000E+04  0.10000000000E+04  0.00000000000E+00 0.  1.
    9000005    2    1    2  501    0 -0.21029341443E+02 -0.28258607871E+02 -0.58941596927E+03  0.59048177899E+03  0.40944311203E+01 0.  0.
         13    1    3    3    0    0 -0.12595893650E+02 -0.20099962590E+02 -0.39995934426E+03  0.40066212960E+03  0.00000000000E+00 0.  1.
          3    1    3    3  501    0 -0.84334477930E+01 -0.81586452815E+01 -0.18945662501E+03  0.18981964939E+03  0.00000000000E+00 0.  1.
         21    1    1    2  502  501  0.21029341443E+02  0.28258607871E+02 -0.40929464574E+03  0.41080760600E+03  0.00000000000E+00 0.  1.
<mgrwt>
<rscale>  1 0.30000000E+03</rscale>
<asrwt>0</asrwt>
<pdfrwt beam="1">  1        3 0.46886826E-02 0.30000000E+03</pdfrwt>
<pdfrwt beam="2">0</pdfrwt>
<totfact> 0.10925852E+03</totfact>
</mgrwt>
</event>
<event>
 6    1  0.1956957E-002  0.3000000E+03  0.7818608E-02  0.1093470E+00
          1   -1    0    0  502    0  0.00000000000E+00  0.00000000000E+00  0.21748305349E+02  0.21748305349E+02  0.00000000000E+00 0.  1.
         13   -1    0    0    0    0 -0.00000000000E+00 -0.00000000000E+00 -0.10000000000E+04  0.10000000000E+04  0.00000000000E+00 0.  1.
    9000005    2    1    2  501    0 -0.69881824474E+02  0.54855638801E+02 -0.89687473307E+03  0.90127083702E+03  0.34963313933E+01 0.  0.
         13    1    3    3    0    0 -0.27993019419E+02  0.24057057807E+02 -0.36697841024E+03  0.36882991304E+03  0.00000000000E+00 0.  1.
          3    1    3    3  501    0 -0.41888805055E+02  0.30798580994E+02 -0.52989632283E+03  0.53244092398E+03  0.00000000000E+00 0.  1.
         21    1    1    2  502  501  0.69881824474E+02 -0.54855638801E+02 -0.81376961578E+02  0.12047746833E+03  0.00000000000E+00 0.  1.
<mgrwt>
<rscale>  1 0.30000000E+03</rscale>
<asrwt>0</asrwt>
<pdfrwt beam="1">  1        1 0.79084913E-01 0.30000000E+03</pdfrwt>
<pdfrwt beam="2">0</pdfrwt>
<totfact> 0.47718067E+01</totfact>
</mgrwt>
</event>
<event>
 6    1  0.1956957E-002  0.3000000E+03  0.7818608E-02  0.1093470E+00
          1   -1    0    0  502    0  0.00000000000E+00  0.00000000000E+00  0.30634428892E+02  0.30634428892E+02  0.00000000000E+00 0.  1.
         13   -1    0    0    0    0 -0.00000000000E+00 -0.00000000000E+00 -0.10000000000E+04  0.10000000000E+04  0.00000000000E+00 0.  1.
    9000005    2    1    2  501    0 -0.58283226140E+02 -0.23736175670E+02 -0.96553355102E+03  0.96758663065E+03  0.29170501617E+01 0.  0.
         13    1    3    3    0    0 -0.22905965427E+02 -0.87465081331E+01 -0.35610671174E+03  0.35694982112E+03  0.00000000000E+00 0.  1.
          3    1    3    3  501    0 -0.35377260713E+02 -0.14989667537E+02 -0.60942683929E+03  0.61063680953E+03  0.00000000000E+00 0.  1.
         21    1    1    2  502  501  0.58283226140E+02  0.23736175670E+02 -0.38320200843E+01  0.63047798238E+02  0.00000000000E+00 0.  1.
<mgrwt>
<rscale>  1 0.30000000E+03</rscale>
<asrwt>0</asrwt>
<pdfrwt beam="1">  1        1 0.11139816E+00 0.30000000E+03</pdfrwt>
<pdfrwt beam="2">0</pdfrwt>
<totfact> 0.29147215E+01</totfact>
</mgrwt>
</event>
<event>
 6    1  0.1956957E-002  0.3000000E+03  0.7818608E-02  0.1093470E+00
          3   -1    0    0  502    0  0.00000000000E+00  0.00000000000E+00  0.45190137986E+01  0.45190137986E+01  0.00000000000E+00 0.  1.
         13   -1    0    0    0    0 -0.00000000000E+00 -0.00000000000E+00 -0.10000000000E+04  0.10000000000E+04  0.00000000000E+00 0.  1.
    9000005    2    1    2  501    0  0.55800624404E+01  0.61616317524E+02 -0.69358952407E+03  0.69635321007E+03  0.36956174218E+01 0.  0.
         13    1    3    3    0    0  0.18379517077E+01  0.14011710730E+02 -0.14273420835E+03  0.14343207569E+03  0.00000000000E+00 0.  1.
          3    1    3    3  501    0  0.37421107327E+01  0.47604606794E+02 -0.55085531573E+03  0.55292113438E+03  0.00000000000E+00 0.  1.
         21    1    1    2  502  501 -0.55800624404E+01 -0.61616317524E+02 -0.30189146213E+03  0.30816580373E+03  0.00000000000E+00 0.  1.
<mgrwt>
<rscale>  1 0.30000000E+03</rscale>
<asrwt>0</asrwt>
<pdfrwt beam="1">  1        3 0.16432812E-01 0.30000000E+03</pdfrwt>
<pdfrwt beam="2">0</pdfrwt>
<totfact> 0.14194611E+02</totfact>
</mgrwt>
</event>
<event>
 6    1  0.1956957E-002  0.3000000E+03  0.7818608E-02  0.1093470E+00
          1   -1    0    0  502    0  0.00000000000E+00  0.00000000000E+00  0.18994096200E+01  0.18994096200E+01  0.00000000000E+00 0.  1.
         13   -1    0    0    0    0 -0.00000000000E+00 -0.00000000000E+00 -0.10000000000E+04  0.10000000000E+04  0.00000000000E+00 0.  1.
    9000005    2    1    2  501    0  0.43904617127E+01  0.39684621821E+02 -0.69863975783E+03  0.69978860942E+03  0.35272222512E+01 0.  0.
         13    1    3    3    0    0  0.31417855713E+01  0.14912011323E+02 -0.28099107726E+03  0.28140402342E+03  0.00000000000E+00 0.  1.
          3    1    3    3  501    0  0.12486761414E+01  0.24772610498E+02 -0.41764868057E+03  0.41838458600E+03  0.00000000000E+00 0.  1.
         21    1    1    2  502  501 -0.43904617127E+01 -0.39684621821E+02 -0.29946083255E+03  0.30211080020E+03  0.00000000000E+00 0.  1.
<mgrwt>
<rscale>  1 0.30000000E+03</rscale>
<asrwt>0</asrwt>
<pdfrwt beam="1">  1        1 0.69069586E-02 0.30000000E+03</pdfrwt>
<pdfrwt beam="2">0</pdfrwt>
<totfact> 0.12642499E+03</totfact>
</mgrwt>
</event>
<event>
 6    1  0.1956957E-002  0.3000000E+03  0.7818608E-02  0.1093470E+00
          3   -1    0    0  502    0  0.00000000000E+00  0.00000000000E+00  0.67588516669E+01  0.67588516669E+01  0.00000000000E+00 0.  1.
         13   -1    0    0    0    0 -0.00000000000E+00 -0.00000000000E+00 -0.10000000000E+04  0.10000000000E+04  0.00000000000E+00 0.  1.
    9000005    2    1    2  501    0  0.75671820202E+01  0.44918074609E+02 -0.91561509903E+03  0.91675496730E+03  0.37100985086E+01 0.  0.
         13    1    3    3    0    0  0.12903371204E+00  0.94099478779E+01 -0.18016568036E+03  0.18041129718E+03  0.00000000000E+00 0.  1.
          3    1    3    3  501    0  0.74381483082E+01  0.35508126731E+02 -0.73544941867E+03  0.73634367013E+03  0.00000000000E+00 0.  1.
         21    1    1    2  502  501 -0.75671820202E+01 -0.44918074609E+02 -0.77626049301E+02  0.90003884363E+02  0.00000000000E+00 0.  1.
<mgrwt>
<rscale>  1 0.30000000E+03</rscale>
<asrwt>0</asrwt>
<pdfrwt beam="1">  1        3 0.24577694E-01 0.30000000E+03</pdfrwt>
<pdfrwt beam="2">0</pdfrwt>
<totfact> 0.68159936E+01</totfact>
</mgrwt>
</event>
<event>
 6    1  0.1956957E-002  0.3000000E+03  0.7818608E-02  0.1093470E+00
          1   -1    0    0  502    0  0.00000000000E+00  0.00000000000E+00  0.53306705177E+01  0.53306705177E+01  0.00000000000E+00 0.  1.
         13   -1    0    0    0    0 -0.00000000000E+00 -0.00000000000E+00 -0.10000000000E+04  0.10000000000E+04  0.00000000000E+00 0.  1.
    9000005    2    1    2  501    0  0.70245641102E+02 -0.18110735043E+02 -0.44267161937E+03  0.44858663527E+03  0.30590729104E+01 0.  0.
         13    1    3    3    0    0  0.39479979685E+02 -0.11724744545E+02 -0.24963488513E+03  0.25300931664E+03  0.00000000000E+00 0.  1.
          1    1    3    3  501    0  0.30765661417E+02 -0.63859904985E+01 -0.19303673424E+03  0.19557731863E+03  0.00000000000E+00 0.  1.
         21    1    1    2  502  501 -0.70245641102E+02  0.18110735043E+02 -0.55199771011E+03  0.55674403525E+03  0.00000000000E+00 0.  1.
<mgrwt>
<rscale>  1 0.30000000E+03</rscale>
<asrwt>0</asrwt>
<pdfrwt beam="1">  1        1 0.19384297E-01 0.30000000E+03</pdfrwt>
<pdfrwt beam="2">0</pdfrwt>
<totfact> 0.30699909E+02</totfact>
</mgrwt>
</event>
<event>
 6    1  0.1956957E-002  0.3000000E+03  0.7818608E-02  0.1093470E+00
          1   -1    0    0  502    0  0.00000000000E+00  0.00000000000E+00  0.14655672519E+01  0.14655672519E+01  0.00000000000E+00 0.  1.
         13   -1    0    0    0    0 -0.00000000000E+00 -0.00000000000E+00 -0.10000000000E+04  0.10000000000E+04  0.00000000000E+00 0.  1.
    9000005    2    1    2  501    0 -0.15336999812E+02  0.34217103576E+02 -0.59226456862E+03  0.59346895423E+03  0.46953859606E+01 0.  0.
         13    1    3    3    0    0 -0.96212804548E+01  0.16560775894E+02 -0.28163476050E+03  0.28228525760E+03  0.00000000000E+00 0.  1.
          3    1    3    3  501    0 -0.57157193574E+01  0.17656327682E+02 -0.31062980812E+03  0.31118369663E+03  0.00000000000E+00 0.  1.
         21    1    1    2  502  501  0.15336999812E+02 -0.34217103576E+02 -0.40626986413E+03  0.40799661302E+03  0.00000000000E+00 0.  1.
<mgrwt>
<rscale>  1 0.30000000E+03</rscale>
<asrwt>0</asrwt>
<pdfrwt beam="1">  1        1 0.53293467E-02 0.30000000E+03</pdfrwt>
<pdfrwt beam="2">0</pdfrwt>
<totfact> 0.18186268E+03</totfact>
</mgrwt>
</event>
<event>
 6    1  0.1956957E-002  0.3000000E+03  0.7818608E-02  0.1093470E+00
          1   -1    0    0  502    0  0.00000000000E+00  0.00000000000E+00  0.26889727233E+01  0.26889727233E+01  0.00000000000E+00 0.  1.
         13   -1    0    0    0    0 -0.00000000000E+00 -0.00000000000E+00 -0.10000000000E+04  0.10000000000E+04  0.00000000000E+00 0.  1.
    9000005    2    1    2  501    0  0.30768523099E+02 -0.11665365871E+02 -0.88598434949E+03  0.88660102347E+03  0.32131765580E+01 0.  0.
         13    1    3    3    0    0  0.29617113553E+02 -0.11823731449E+02 -0.85058085837E+03  0.85117845994E+03  0.00000000000E+00 0.  1.
          1    1    3    3  501    0  0.11514095465E+01  0.15836557791E+00 -0.35403491117E+02  0.35422563528E+02  0.00000000000E+00 0.  1.
         21    1    1    2  502  501 -0.30768523099E+02  0.11665365871E+02 -0.11132667779E+03  0.11608794925E+03  0.00000000000E+00 0.  1.
<mgrwt>
<rscale>  1 0.30000000E+03</rscale>
<asrwt>0</asrwt>
<pdfrwt beam="1">  1        1 0.97781032E-02 0.30000000E+03</pdfrwt>
<pdfrwt beam="2">0</pdfrwt>
<totfact> 0.77952743E+02</totfact>
</mgrwt>
</event>
<event>
 6    1  0.1956957E-002  0.3000000E+03  0.7818608E-02  0.1093470E+00
          3   -1    0    0  502    0  0.00000000000E+00  0.00000000000E+00  0.13803583940E+02  0.13803583940E+02  0.00000000000E+00 0.  1.
         13   -1    0    0    0    0 -0.00000000000E+00 -0.00000000000E+00 -0.10000000000E+04  0.10000000000E+04  0.00000000000E+00 0.  1.
    9000005    2    1    2  501    0 -0.29508068296E+02  0.56236951706E+01 -0.98314834724E+03  0.98361016139E+03  0.24341048318E+01 0.  0.
         13    1    3    3    0    0 -0.12273691007E+02  0.19648241542E+01 -0.44443679607E+03  0.44461058211E+03  0.00000000000E+00 0.  1.
          1    1    3    3  501    0 -0.17234377288E+02  0.36588710163E+01 -0.53871155117E+03  0.53899957928E+03  0.00000000000E+00 0.  1.
         21    1    1    2  502  501  0.29508068296E+02 -0.56236951706E+01 -0.30480688217E+01  0.30193422553E+02  0.00000000000E+00 0.  1.
<mgrwt>
<rscale>  1 0.30000000E+03</rscale>
<asrwt>0</asrwt>
<pdfrwt beam="1">  1        3 0.50194957E-01 0.30000000E+03</pdfrwt>
<pdfrwt beam="2">0</pdfrwt>
<totfact> 0.17329260E+01</totfact>
</mgrwt>
</event>
<event>
 6    1  0.1956957E-002  0.3000000E+03  0.7818608E-02  0.1093470E+00
          1   -1    0    0  502    0  0.00000000000E+00  0.00000000000E+00  0.13587733066E+01  0.13587733066E+01  0.00000000000E+00 0.  1.
         13   -1    0    0    0    0 -0.00000000000E+00 -0.00000000000E+00 -0.10000000000E+04  0.10000000000E+04  0.00000000000E+00 0.  1.
    9000005    2    1    2  501    0 -0.29767580149E+02  0.15169733154E+02 -0.31842468459E+03  0.32032222966E+03  0.97888419027E+01 0.  0.
         13    1    3    3    0    0 -0.14047424107E+02  0.18152558785E+01 -0.13545764887E+03  0.13619618172E+03  0.00000000000E+00 0.  1.
          3    1    3    3  501    0 -0.15720156042E+02  0.13354477276E+02 -0.18296703572E+03  0.18412604794E+03  0.00000000000E+00 0.  1.
         21    1    1    2  502  501  0.29767580149E+02 -0.15169733154E+02 -0.68021654210E+03  0.68103654364E+03  0.00000000000E+00 0.  1.
<mgrwt>
<rscale>  1 0.30000000E+03</rscale>
<asrwt>0</asrwt>
<pdfrwt beam="1">  1        1 0.49410043E-02 0.30000000E+03</pdfrwt>
<pdfrwt beam="2">0</pdfrwt>
<totfact> 0.20226262E+03</totfact>
</mgrwt>
</event>
<event>
 6    1  0.1956957E-002  0.3000000E+03  0.7818608E-02  0.1093470E+00
          1   -1    0    0  502    0  0.00000000000E+00  0.00000000000E+00  0.11516427631E+01  0.11516427631E+01  0.00000000000E+00 0.  1.
         13   -1    0    0    0    0 -0.00000000000E+00 -0.00000000000E+00 -0.10000000000E+04  0.10000000000E+04  0.00000000000E+00 0.  1.
    9000005    2    1    2  501    0  0.65870265026E+01 -0.32169164007E+02 -0.62256274697E+03  0.62343600299E+03  0.31355836904E+01 0.  0.
         13    1    3    3    0    0  0.10608554279E+01 -0.16102731259E+01 -0.38469883870E+02  0.38518182184E+02  0.00000000000E+00 0.  1.
          3    1    3    3  501    0  0.55261710747E+01 -0.30558890881E+02 -0.58409286310E+03  0.58491782081E+03  0.00000000000E+00 0.  1.
         21    1    1    2  502  501 -0.65870265026E+01  0.32169164007E+02 -0.37628561027E+03  0.37771563977E+03  0.00000000000E+00 0.  1.
<mgrwt>
<rscale>  1 0.30000000E+03</rscale>
<asrwt>0</asrwt>
<pdfrwt beam="1">  1        1 0.41878007E-02 0.30000000E+03</pdfrwt>
<pdfrwt beam="2">0</pdfrwt>
<totfact> 0.25526102E+03</totfact>
</mgrwt>
</event>
<event>
 6    1  0.1956957E-002  0.3000000E+03  0.7818608E-02  0.1093470E+00
          3   -1    0    0  502    0  0.00000000000E+00  0.00000000000E+00  0.21001028268E+01  0.21001028268E+01  0.00000000000E+00 0.  1.
         13   -1    0    0    0    0 -0.00000000000E+00 -0.00000000000E+00 -0.10000000000E+04  0.10000000000E+04  0.00000000000E+00 0.  1.
    9000005    2    1    2  501    0 -0.25217194178E+01 -0.45536301855E+02 -0.46219500138E+03  0.46445742480E+03  0.40701718573E+01 0.  0.
         13    1    3    3    0    0  0.39465418499E+00 -0.22187736401E+02 -0.21188236932E+03  0.21304128668E+03  0.00000000000E+00 0.  1.
          1    1    3    3  501    0 -0.29163736028E+01 -0.23348565454E+02 -0.25031263206E+03  0.25141613813E+03  0.00000000000E+00 0.  1.
         21    1    1    2  502  501  0.25217194178E+01  0.45536301855E+02 -0.53570489579E+03  0.53764267802E+03  0.00000000000E+00 0.  1.
<mgrwt>
<rscale>  1 0.30000000E+03</rscale>
<asrwt>0</asrwt>
<pdfrwt beam="1">  1        3 0.76367537E-02 0.30000000E+03</pdfrwt>
<pdfrwt beam="2">0</pdfrwt>
<totfact> 0.51032405E+02</totfact>
</mgrwt>
</event>
<event>
 6    1  0.1956957E-002  0.3000000E+03  0.7818608E-02  0.1093470E+00
          1   -1    0    0  502    0  0.00000000000E+00  0.00000000000E+00  0.25015236309E+01  0.25015236309E+01  0.00000000000E+00 0.  1.
         13   -1    0    0    0    0 -0.00000000000E+00 -0.00000000000E+00 -0.10000000000E+04  0.10000000000E+04  0.00000000000E+00 0.  1.
    9000005    2    1    2  501    0  0.26207654005E+02  0.37184917763E+02 -0.70604173641E+03  0.70751577736E+03  0.37526548149E+01 0.  0.
         13    1    3    3    0    0  0.14244193448E+02  0.17891269975E+02 -0.33389379866E+03  0.33467605736E+03  0.00000000000E+00 0.  1.
          3    1    3    3  501    0  0.11963460557E+02  0.19293647788E+02 -0.37214793775E+03  0.37283972000E+03  0.00000000000E+00 0.  1.
         21    1    1    2  502  501 -0.26207654005E+02 -0.37184917763E+02 -0.29145673996E+03  0.29498574627E+03  0.00000000000E+00 0.  1.
<mgrwt>
<rscale>  1 0.30000000E+03</rscale>
<asrwt>0</asrwt>
<pdfrwt beam="1">  1        1 0.90964687E-02 0.30000000E+03</pdfrwt>
<pdfrwt beam="2">0</pdfrwt>
<totfact> 0.86154547E+02</totfact>
</mgrwt>
</event>
<event>
 6    1  0.1956957E-002  0.3000000E+03  0.7818608E-02  0.1093470E+00
          3   -1    0    0  502    0  0.00000000000E+00  0.00000000000E+00  0.29783762020E+01  0.29783762020E+01  0.00000000000E+00 0.  1.
         13   -1    0    0    0    0 -0.00000000000E+00 -0.00000000000E+00 -0.10000000000E+04  0.10000000000E+04  0.00000000000E+00 0.  1.
    9000005    2    1    2  501    0 -0.91765559653E+01  0.32409021929E+02 -0.89237027214E+03  0.89303994213E+03  0.78154822952E+01 0.  0.
         13    1    3    3    0    0  0.10719061398E+01  0.11794259725E+01 -0.28392368612E+02  0.28437064261E+02  0.00000000000E+00 0.  1.
          1    1    3    3  501    0 -0.10248462105E+02  0.31229595957E+02 -0.86397790353E+03  0.86460287787E+03  0.00000000000E+00 0.  1.
         21    1    1    2  502  501  0.91765559653E+01 -0.32409021929E+02 -0.10465135166E+03  0.10993843407E+03  0.00000000000E+00 0.  1.
<mgrwt>
<rscale>  1 0.30000000E+03</rscale>
<asrwt>0</asrwt>
<pdfrwt beam="1">  1        3 0.10830482E-01 0.30000000E+03</pdfrwt>
<pdfrwt beam="2">0</pdfrwt>
<totfact> 0.28933530E+02</totfact>
</mgrwt>
</event>
<event>
 6    1  0.1956957E-002  0.3000000E+03  0.7818608E-02  0.1093470E+00
          3   -1    0    0  502    0  0.00000000000E+00  0.00000000000E+00  0.55682115535E+01  0.55682115535E+01  0.00000000000E+00 0.  1.
         13   -1    0    0    0    0 -0.00000000000E+00 -0.00000000000E+00 -0.10000000000E+04  0.10000000000E+04  0.00000000000E+00 0.  1.
    9000005    2    1    2  501    0 -0.36288866547E+02 -0.64578509396E+02 -0.55567412869E+03  0.56060130301E+03  0.35802124125E+01 0.  0.
         13    1    3    3    0    0 -0.28913112726E+02 -0.48974074439E+02 -0.41935466420E+03  0.42319352836E+03  0.00000000000E+00 0.  1.
          3    1    3    3  501    0 -0.73757538209E+01 -0.15604434957E+02 -0.13631946449E+03  0.13740777465E+03  0.00000000000E+00 0.  1.
         21    1    1    2  502  501  0.36288866547E+02  0.64578509396E+02 -0.43875765975E+03  0.44496690855E+03  0.00000000000E+00 0.  1.
<mgrwt>
<rscale>  1 0.30000000E+03</rscale>
<asrwt>0</asrwt>
<pdfrwt beam="1">  1        3 0.20248085E-01 0.30000000E+03</pdfrwt>
<pdfrwt beam="2">0</pdfrwt>
<totfact> 0.97733742E+01</totfact>
</mgrwt>
</event>
<event>
 6    1  0.1956957E-002  0.3000000E+03  0.7818608E-02  0.1093470E+00
          1   -1    0    0  502    0  0.00000000000E+00  0.00000000000E+00  0.25025625207E+01  0.25025625207E+01  0.00000000000E+00 0.  1.
         13   -1    0    0    0    0 -0.00000000000E+00 -0.00000000000E+00 -0.10000000000E+04  0.10000000000E+04  0.00000000000E+00 0.  1.
    9000005    2    1    2  501    0  0.42808878864E+02  0.22662603880E+02 -0.62249280596E+03  0.62438265114E+03  0.31949716869E+01 0.  0.
         13    1    3    3    0    0  0.11004401535E+01  0.66350841311E+00 -0.11106339829E+02  0.11180429167E+02  0.00000000000E+00 0.  1.
          1    1    3    3  501    0  0.41708438711E+02  0.21999095467E+02 -0.61138646613E+03  0.61320222197E+03  0.00000000000E+00 0.  1.
         21    1    1    2  502  501 -0.42808878864E+02 -0.22662603880E+02 -0.37500463152E+03  0.37811991138E+03  0.00000000000E+00 0.  1.
<mgrwt>
<rscale>  1 0.30000000E+03</rscale>
<asrwt>0</asrwt>
<pdfrwt beam="1">  1        1 0.91002465E-02 0.30000000E+03</pdfrwt>
<pdfrwt beam="2">0</pdfrwt>
<totfact> 0.86104974E+02</totfact>
</mgrwt>
</event>
<event>
 6    1  0.1956957E-002  0.3000000E+03  0.7818608E-02  0.1093470E+00
          1   -1    0    0  502    0  0.00000000000E+00  0.00000000000E+00  0.17401650997E+01  0.17401650997E+01  0.00000000000E+00 0.  1.
         13   -1    0    0    0    0 -0.00000000000E+00 -0.00000000000E+00 -0.10000000000E+04  0.10000000000E+04  0.00000000000E+00 0.  1.
    9000005    2    1    2  501    0  0.45176154494E+01 -0.37993992468E+02 -0.69684652202E+03  0.69790807743E+03  0.40812970114E+01 0.  0.
         13    1    3    3    0    0  0.94113550617E+00 -0.22584298286E+01 -0.32834947059E+02  0.32925977430E+02  0.00000000000E+00 0.  1.
          1    1    3    3  501    0  0.35764799432E+01 -0.35735562639E+02 -0.66401157496E+03  0.66498210000E+03  0.00000000000E+00 0.  1.
         21    1    1    2  502  501 -0.45176154494E+01  0.37993992468E+02 -0.30141331288E+03  0.30383208767E+03  0.00000000000E+00 0.  1.
<mgrwt>
<rscale>  1 0.30000000E+03</rscale>
<asrwt>0</asrwt>
<pdfrwt beam="1">  1        1 0.63278864E-02 0.30000000E+03</pdfrwt>
<pdfrwt beam="2">0</pdfrwt>
<totfact> 0.14291478E+03</totfact>
</mgrwt>
</event>
<event>
 6    1  0.1956957E-002  0.3000000E+03  0.7818608E-02  0.1093470E+00
          1   -1    0    0  502    0  0.00000000000E+00  0.00000000000E+00  0.45712085048E+01  0.45712085048E+01  0.00000000000E+00 0.  1.
         13   -1    0    0    0    0 -0.00000000000E+00 -0.00000000000E+00 -0.10000000000E+04  0.10000000000E+04  0.00000000000E+00 0.  1.
    9000005    2    1    2  501    0  0.59440483626E+02  0.28299667050E+02 -0.60969926295E+03  0.61326402554E+03  0.50528734491E+01 0.  0.
         13    1    3    3    0    0  0.29888274727E+02  0.14368400753E+02 -0.33054780070E+03  0.33220717701E+03  0.00000000000E+00 0.  1.
          1    1    3    3  501    0  0.29552208899E+02  0.13931266297E+02 -0.27915146224E+03  0.28105684853E+03  0.00000000000E+00 0.  1.
         21    1    1    2  502  501 -0.59440483626E+02 -0.28299667050E+02 -0.38572952855E+03  0.39130718297E+03  0.00000000000E+00 0.  1.
<mgrwt>
<rscale>  1 0.30000000E+03</rscale>
<asrwt>0</asrwt>
<pdfrwt beam="1">  1        1 0.16622611E-01 0.30000000E+03</pdfrwt>
<pdfrwt beam="2">0</pdfrwt>
<totfact> 0.37747244E+02</totfact>
</mgrwt>
</event>
<event>
 6    1  0.1956957E-002  0.3000000E+03  0.7818608E-02  0.1093470E+00
          1   -1    0    0  502    0  0.00000000000E+00  0.00000000000E+00  0.34105662000E+01  0.34105662000E+01  0.00000000000E+00 0.  1.
         13   -1    0    0    0    0 -0.00000000000E+00 -0.00000000000E+00 -0.10000000000E+04  0.10000000000E+04  0.00000000000E+00 0.  1.
    9000005    2    1    2  501    0 -0.12385783489E+01  0.55643687138E+02 -0.64805721221E+03  0.65046232144E+03  0.50326252984E+01 0.  0.
         13    1    3    3    0    0 -0.59505427627E+00  0.53416303250E+02 -0.61002138097E+03  0.61235589389E+03  0.00000000000E+00 0.  1.
          1    1    3    3  501    0 -0.64352407263E+00  0.22273838887E+01 -0.38035831235E+02  0.38106427541E+02  0.00000000000E+00 0.  1.
         21    1    1    2  502  501  0.12385783489E+01 -0.55643687138E+02 -0.34853222159E+03  0.35294824476E+03  0.00000000000E+00 0.  1.
<mgrwt>
<rscale>  1 0.30000000E+03</rscale>
<asrwt>0</asrwt>
<pdfrwt beam="1">  1        1 0.12402085E-01 0.30000000E+03</pdfrwt>
<pdfrwt beam="2">0</pdfrwt>
<totfact> 0.56220158E+02</totfact>
</mgrwt>
</event>
<event>
 6    1  0.1956957E-002  0.3000000E+03  0.7818608E-02  0.1093470E+00
          1   -1    0    0  502    0  0.00000000000E+00  0.00000000000E+00  0.18323044065E+01  0.18323044065E+01  0.00000000000E+00 0.  1.
         13   -1    0    0    0    0 -0.00000000000E+00 -0.00000000000E+00 -0.10000000000E+04  0.10000000000E+04  0.00000000000E+00 0.  1.
    9000005    2    1    2  501    0  0.14782326711E+02 -0.37649749191E+02 -0.33796460894E+03  0.34039134980E+03  0.31895656538E+01 0.  0.
         13    1    3    3    0    0  0.19705386386E+01 -0.26955195489E+01 -0.29483970845E+02  0.29672434766E+02  0.00000000000E+00 0.  1.
          1    1    3    3  501    0  0.12811788072E+02 -0.34954229642E+02 -0.30848063809E+03  0.31071891504E+03  0.00000000000E+00 0.  1.
         21    1    1    2  502  501 -0.14782326711E+02  0.37649749191E+02 -0.66020308665E+03  0.66144095460E+03  0.00000000000E+00 0.  1.
<mgrwt>
<rscale>  1 0.30000000E+03</rscale>
<asrwt>0</asrwt>
<pdfrwt beam="1">  1        1 0.66629392E-02 0.30000000E+03</pdfrwt>
<pdfrwt beam="2">0</pdfrwt>
<totfact> 0.13295112E+03</totfact>
</mgrwt>
</event>
<event>
 6    1  0.1956957E-002  0.3000000E+03  0.7818608E-02  0.1093470E+00
          3   -1    0    0  502    0  0.00000000000E+00  0.00000000000E+00  0.20157065760E+01  0.20157065760E+01  0.00000000000E+00 0.  1.
         13   -1    0    0    0    0 -0.00000000000E+00 -0.00000000000E+00 -0.10000000000E+04  0.10000000000E+04  0.00000000000E+00 0.  1.
    9000005    2    1    2  501    0 -0.30717138766E+01 -0.38345590299E+02 -0.75677458349E+03  0.75775776118E+03  0.30388639679E+01 0.  0.
         13    1    3    3    0    0 -0.32186530807E+01 -0.24844173414E+02 -0.47631091629E+03  0.47696926700E+03  0.00000000000E+00 0.  1.
          1    1    3    3  501    0  0.14693920409E+00 -0.13501416885E+02 -0.28046366719E+03  0.28078849418E+03  0.00000000000E+00 0.  1.
         21    1    1    2  502  501  0.30717138766E+01  0.38345590299E+02 -0.24120970994E+03  0.24425794540E+03  0.00000000000E+00 0.  1.
<mgrwt>
<rscale>  1 0.30000000E+03</rscale>
<asrwt>0</asrwt>
<pdfrwt beam="1">  1        3 0.73298576E-02 0.30000000E+03</pdfrwt>
<pdfrwt beam="2">0</pdfrwt>
<totfact> 0.54465611E+02</totfact>
</mgrwt>
</event>
<event>
 6    1  0.1956957E-002  0.3000000E+03  0.7818608E-02  0.1093470E+00
          1   -1    0    0  502    0  0.00000000000E+00  0.00000000000E+00  0.11655568696E+01  0.11655568696E+01  0.00000000000E+00 0.  1.
         13   -1    0    0    0    0 -0.00000000000E+00 -0.00000000000E+00 -0.10000000000E+04  0.10000000000E+04  0.00000000000E+00 0.  1.
    9000005    2    1    2  501    0  0.21423171981E+02  0.22374804191E+02 -0.70798658648E+03  0.70867271955E+03  0.35259963476E+01 0.  0.
         13    1    3    3    0    0  0.13633489558E+02  0.16507744488E+02 -0.49662940217E+03  0.49709067660E+03  0.00000000000E+00 0.  1.
          3    1    3    3  501    0  0.77896824228E+01  0.58670597024E+01 -0.21135718431E+03  0.21158204295E+03  0.00000000000E+00 0.  1.
         21    1    1    2  502  501 -0.21423171981E+02 -0.22374804191E+02 -0.29084785665E+03  0.29249283732E+03  0.00000000000E+00 0.  1.
<mgrwt>
<rscale>  1 0.30000000E+03</rscale>
<asrwt>0</asrwt>
<pdfrwt beam="1">  1        1 0.42383976E-02 0.30000000E+03</pdfrwt>
<pdfrwt beam="2">0</pdfrwt>
<totfact> 0.25098113E+03</totfact>
</mgrwt>
</event>
<event>
 6    1  0.1956957E-002  0.3000000E+03  0.7818608E-02  0.1093470E+00
          1   -1    0    0  502    0  0.00000000000E+00  0.00000000000E+00  0.19272096087E+01  0.19272096087E+01  0.00000000000E+00 0.  1.
         13   -1    0    0    0    0 -0.00000000000E+00 -0.00000000000E+00 -0.10000000000E+04  0.10000000000E+04  0.00000000000E+00 0.  1.
    9000005    2    1    2  501    0  0.22653775893E+02  0.36665592842E+02 -0.59139483096E+03  0.59297180624E+03  0.31871058328E+01 0.  0.
         13    1    3    3    0    0  0.12963152600E+02  0.23557386383E+02 -0.37829165543E+03  0.37924605515E+03  0.00000000000E+00 0.  1.
          1    1    3    3  501    0  0.96906232932E+01  0.13108206459E+02 -0.21310317553E+03  0.21372575109E+03  0.00000000000E+00 0.  1.
         21    1    1    2  502  501 -0.22653775893E+02 -0.36665592842E+02 -0.40667795943E+03  0.40895540337E+03  0.00000000000E+00 0.  1.
<mgrwt>
<rscale>  1 0.30000000E+03</rscale>
<asrwt>0</asrwt>
<pdfrwt beam="1">  1        1 0.70080497E-02 0.30000000E+03</pdfrwt>
<pdfrwt beam="2">0</pdfrwt>
<totfact> 0.12388189E+03</totfact>
</mgrwt>
</event>
<event>
 6    1  0.1956957E-002  0.3000000E+03  0.7818608E-02  0.1093470E+00
          1   -1    0    0  502    0  0.00000000000E+00  0.00000000000E+00  0.95957468960E+00  0.95957468960E+00  0.00000000000E+00 0.  1.
         13   -1    0    0    0    0 -0.00000000000E+00 -0.00000000000E+00 -0.10000000000E+04  0.10000000000E+04  0.00000000000E+00 0.  1.
    9000005    2    1    2  501    0 -0.12438020277E+02 -0.27993423204E+02 -0.56344166570E+03  0.56428507868E+03  0.35781675524E+01 0.  0.
         13    1    3    3    0    0 -0.81342466223E+01 -0.20676426667E+02 -0.38318568376E+03  0.38382932252E+03  0.00000000000E+00 0.  1.
          1    1    3    3  501    0 -0.43037736546E+01 -0.73169965368E+01 -0.18025598195E+03  0.18045575617E+03  0.00000000000E+00 0.  1.
         21    1    1    2  502  501  0.12438020277E+02  0.27993423204E+02 -0.43559875961E+03  0.43667449600E+03  0.00000000000E+00 0.  1.
<mgrwt>
<rscale>  1 0.30000000E+03</rscale>
<asrwt>0</asrwt>
<pdfrwt beam="1">  1        1 0.34893699E-02 0.30000000E+03</pdfrwt>
<pdfrwt beam="2">0</pdfrwt>
<totfact> 0.32999715E+03</totfact>
</mgrwt>
</event>
<event>
 6    1  0.1956957E-002  0.3000000E+03  0.7818608E-02  0.1093470E+00
          1   -1    0    0  502    0  0.00000000000E+00  0.00000000000E+00  0.15647432126E+01  0.15647432126E+01  0.00000000000E+00 0.  1.
         13   -1    0    0    0    0 -0.00000000000E+00 -0.00000000000E+00 -0.10000000000E+04  0.10000000000E+04  0.00000000000E+00 0.  1.
    9000005    2    1    2  501    0  0.34615843016E+02 -0.27460370387E+01 -0.73796819331E+03  0.73879319135E+03  0.35394849653E+01 0.  0.
         13    1    3    3    0    0  0.27075398146E+02 -0.33012462046E+01 -0.59597510402E+03  0.59659894404E+03  0.00000000000E+00 0.  1.
          3    1    3    3  501    0  0.75404448694E+01  0.55520916587E+00 -0.14199308928E+03  0.14219424732E+03  0.00000000000E+00 0.  1.
         21    1    1    2  502  501 -0.34615843016E+02  0.27460370387E+01 -0.26046706348E+03  0.26277155186E+03  0.00000000000E+00 0.  1.
<mgrwt>
<rscale>  1 0.30000000E+03</rscale>
<asrwt>0</asrwt>
<pdfrwt beam="1">  1        1 0.56899873E-02 0.30000000E+03</pdfrwt>
<pdfrwt beam="2">0</pdfrwt>
<totfact> 0.16588682E+03</totfact>
</mgrwt>
</event>
<event>
 6    1  0.1956957E-002  0.3000000E+03  0.7818608E-02  0.1093470E+00
          1   -1    0    0  502    0  0.00000000000E+00  0.00000000000E+00  0.22354194197E+01  0.22354194197E+01  0.00000000000E+00 0.  1.
         13   -1    0    0    0    0 -0.00000000000E+00 -0.00000000000E+00 -0.10000000000E+04  0.10000000000E+04  0.00000000000E+00 0.  1.
    9000005    2    1    2  501    0  0.15940504932E+02  0.32374641603E+02 -0.82108792837E+03  0.82191111004E+03  0.70901042691E+01 0.  0.
         13    1    3    3    0    0  0.31053388863E+01  0.42614140624E+01 -0.76106857820E+02  0.76289295361E+02  0.00000000000E+00 0.  1.
          3    1    3    3  501    0  0.12835166045E+02  0.28113227541E+02 -0.74498107055E+03  0.74562181468E+03  0.00000000000E+00 0.  1.
         21    1    1    2  502  501 -0.15940504932E+02 -0.32374641603E+02 -0.17667665221E+03  0.18032430938E+03  0.00000000000E+00 0.  1.
<mgrwt>
<rscale>  1 0.30000000E+03</rscale>
<asrwt>0</asrwt>
<pdfrwt beam="1">  1        1 0.81288150E-02 0.30000000E+03</pdfrwt>
<pdfrwt beam="2">0</pdfrwt>
<totfact> 0.10071965E+03</totfact>
</mgrwt>
</event>
<event>
 6    1  0.1956957E-002  0.3000000E+03  0.7818608E-02  0.1093470E+00
          1   -1    0    0  502    0  0.00000000000E+00  0.00000000000E+00  0.11382753224E+02  0.11382753224E+02  0.00000000000E+00 0.  1.
         13   -1    0    0    0    0 -0.00000000000E+00 -0.00000000000E+00 -0.10000000000E+04  0.10000000000E+04  0.00000000000E+00 0.  1.
    9000005    2    1    2  501    0  0.28136349846E+02  0.12294300056E+02 -0.97853679001E+03  0.97906527181E+03  0.95787813942E+01 0.  0.
         13    1    3    3    0    0  0.20739432477E+00  0.20064349880E+01 -0.34101216059E+02  0.34160821572E+02  0.00000000000E+00 0.  1.
          1    1    3    3  501    0  0.27928955522E+02  0.10287865068E+02 -0.94443557395E+03  0.94490445023E+03  0.00000000000E+00 0.  1.
         21    1    1    2  502  501 -0.28136349846E+02 -0.12294300056E+02 -0.10080456764E+02  0.32317481417E+02  0.00000000000E+00 0.  1.
<mgrwt>
<rscale>  1 0.30000000E+03</rscale>
<asrwt>0</asrwt>
<pdfrwt beam="1">  1        1 0.41391917E-01 0.30000000E+03</pdfrwt>
<pdfrwt beam="2">0</pdfrwt>
<totfact> 0.11303571E+02</totfact>
</mgrwt>
</event>
<event>
 6    1  0.1956957E-002  0.3000000E+03  0.7818608E-02  0.1093470E+00
          1   -1    0    0  502    0  0.00000000000E+00  0.00000000000E+00  0.53617509561E+01  0.53617509561E+01  0.00000000000E+00 0.  1.
         13   -1    0    0    0    0 -0.00000000000E+00 -0.00000000000E+00 -0.10000000000E+04  0.10000000000E+04  0.00000000000E+00 0.  1.
    9000005    2    1    2  501    0 -0.19723782248E+02  0.61885860212E+02 -0.72916196019E+03  0.73205506017E+03  0.29256903587E+01 0.  0.
         13    1    3    3    0    0 -0.90593764691E+01  0.31490535345E+02 -0.35499186275E+03  0.35650097999E+03  0.00000000000E+00 0.  1.
          3    1    3    3  501    0 -0.10664405779E+02  0.30395324867E+02 -0.37417009744E+03  0.37555408018E+03  0.00000000000E+00 0.  1.
         21    1    1    2  502  501  0.19723782248E+02 -0.61885860212E+02 -0.26547628886E+03  0.27330669078E+03  0.00000000000E+00 0.  1.
<mgrwt>
<rscale>  1 0.30000000E+03</rscale>
<asrwt>0</asrwt>
<pdfrwt beam="1">  1        1 0.19497317E-01 0.30000000E+03</pdfrwt>
<pdfrwt beam="2">0</pdfrwt>
<totfact> 0.30461831E+02</totfact>
</mgrwt>
</event>
<event>
 6    1  0.1956957E-002  0.3000000E+03  0.7818608E-02  0.1093470E+00
          3   -1    0    0  502    0  0.00000000000E+00  0.00000000000E+00  0.18003870589E+01  0.18003870589E+01  0.00000000000E+00 0.  1.
         13   -1    0    0    0    0 -0.00000000000E+00 -0.00000000000E+00 -0.10000000000E+04  0.10000000000E+04  0.00000000000E+00 0.  1.
    9000005    2    1    2  501    0  0.19848883737E+02  0.37147477237E+02 -0.44574188875E+03  0.44773951471E+03  0.33058122881E+01 0.  0.
         13    1    3    3    0    0  0.52676308528E+01  0.76642679298E+01 -0.10810436243E+03  0.10850365023E+03  0.00000000000E+00 0.  1.
          3    1    3    3  501    0  0.14581252884E+02  0.29483209307E+02 -0.33763752632E+03  0.33923586448E+03  0.00000000000E+00 0.  1.
         21    1    1    2  502  501 -0.19848883737E+02 -0.37147477237E+02 -0.55245772419E+03  0.55406087235E+03  0.00000000000E+00 0.  1.
<mgrwt>
<rscale>  1 0.30000000E+03</rscale>
<asrwt>0</asrwt>
<pdfrwt beam="1">  1        3 0.65468758E-02 0.30000000E+03</pdfrwt>
<pdfrwt beam="2">0</pdfrwt>
<totfact> 0.65067676E+02</totfact>
</mgrwt>
</event>
<event>
 6    1  0.1956957E-002  0.3000000E+03  0.7818608E-02  0.1093470E+00
          3   -1    0    0  502    0  0.00000000000E+00  0.00000000000E+00  0.48086854251E+01  0.48086854251E+01  0.00000000000E+00 0.  1.
         13   -1    0    0    0    0 -0.00000000000E+00 -0.00000000000E+00 -0.10000000000E+04  0.10000000000E+04  0.00000000000E+00 0.  1.
    9000005    2    1    2  501    0 -0.14148277834E+02  0.36025118305E+02 -0.91440382479E+03  0.91522854578E+03  0.33095754674E+01 0.  0.
         13    1    3    3    0    0 -0.12179125766E+02  0.32966489711E+02 -0.81218355988E+03  0.81294357461E+03  0.00000000000E+00 0.  1.
          3    1    3    3  501    0 -0.19691520680E+01  0.30586285941E+01 -0.10222026491E+03  0.10228497117E+03  0.00000000000E+00 0.  1.
         21    1    1    2  502  501  0.14148277834E+02 -0.36025118305E+02 -0.80787489781E+02  0.89580139650E+02  0.00000000000E+00 0.  1.
<mgrwt>
<rscale>  1 0.30000000E+03</rscale>
<asrwt>0</asrwt>
<pdfrwt beam="1">  1        3 0.17486166E-01 0.30000000E+03</pdfrwt>
<pdfrwt beam="2">0</pdfrwt>
<totfact> 0.12720021E+02</totfact>
</mgrwt>
</event>
<event>
 6    1  0.1956957E-002  0.3000000E+03  0.7818608E-02  0.1093470E+00
          1   -1    0    0  502    0  0.00000000000E+00  0.00000000000E+00  0.14400753825E+01  0.14400753825E+01  0.00000000000E+00 0.  1.
         13   -1    0    0    0    0 -0.00000000000E+00 -0.00000000000E+00 -0.10000000000E+04  0.10000000000E+04  0.00000000000E+00 0.  1.
    9000005    2    1    2  501    0 -0.10979687376E+01 -0.32068734554E+02 -0.76611330688E+03  0.76678918710E+03  0.25395301270E+01 0.  0.
         13    1    3    3    0    0 -0.18121710967E+01 -0.19420954084E+02 -0.47567774389E+03  0.47607748682E+03  0.00000000000E+00 0.  1.
          1    1    3    3  501    0  0.71420235910E+00 -0.12647780469E+02 -0.29043556299E+03  0.29071170029E+03  0.00000000000E+00 0.  1.
         21    1    1    2  502  501  0.10979687376E+01  0.32068734554E+02 -0.23244661774E+03  0.23465088828E+03  0.00000000000E+00 0.  1.
<mgrwt>
<rscale>  1 0.30000000E+03</rscale>
<asrwt>0</asrwt>
<pdfrwt beam="1">  1        1 0.52366488E-02 0.30000000E+03</pdfrwt>
<pdfrwt beam="2">0</pdfrwt>
<totfact> 0.18640108E+03</totfact>
</mgrwt>
</event>
<event>
 6    1  0.1956957E-002  0.3000000E+03  0.7818608E-02  0.1093470E+00
          3   -1    0    0  502    0  0.00000000000E+00  0.00000000000E+00  0.14826803338E+01  0.14826803338E+01  0.00000000000E+00 0.  1.
         13   -1    0    0    0    0 -0.00000000000E+00 -0.00000000000E+00 -0.10000000000E+04  0.10000000000E+04  0.00000000000E+00 0.  1.
    9000005    2    1    2  501    0  0.29592094851E+02 -0.18029301719E+02 -0.71649062415E+03  0.71733517501E+03  0.31923366396E+01 0.  0.
         13    1    3    3    0    0  0.60272250434E+01 -0.25419645640E+01 -0.15195136174E+03  0.15209209500E+03  0.00000000000E+00 0.  1.
          1    1    3    3  501    0  0.23564869808E+02 -0.15487337155E+02 -0.56453926241E+03  0.56524308001E+03  0.00000000000E+00 0.  1.
         21    1    1    2  502  501 -0.29592094851E+02  0.18029301719E+02 -0.28202669552E+03  0.28414750533E+03  0.00000000000E+00 0.  1.
<mgrwt>
<rscale>  1 0.30000000E+03</rscale>
<asrwt>0</asrwt>
<pdfrwt beam="1">  1        3 0.53915762E-02 0.30000000E+03</pdfrwt>
<pdfrwt beam="2">0</pdfrwt>
<totfact> 0.88055357E+02</totfact>
</mgrwt>
</event>
<event>
 6    1  0.1956957E-002  0.3000000E+03  0.7818608E-02  0.1093470E+00
          3   -1    0    0  502    0  0.00000000000E+00  0.00000000000E+00  0.21261575359E+01  0.21261575359E+01  0.00000000000E+00 0.  1.
         13   -1    0    0    0    0 -0.00000000000E+00 -0.00000000000E+00 -0.10000000000E+04  0.10000000000E+04  0.00000000000E+00 0.  1.
    9000005    2    1    2  501    0 -0.39291119145E+02  0.19953479790E+02 -0.64490833956E+03  0.64642040886E+03  0.32626921360E+01 0.  0.
         13    1    3    3    0    0 -0.38667769025E+02  0.19813528042E+02 -0.62873635358E+03  0.63023580870E+03  0.00000000000E+00 0.  1.
          1    1    3    3  501    0 -0.62335011971E+00  0.13995174806E+00 -0.16171985986E+02  0.16184600168E+02  0.00000000000E+00 0.  1.
         21    1    1    2  502  501  0.39291119145E+02 -0.19953479790E+02 -0.35296550290E+03  0.35570574867E+03  0.00000000000E+00 0.  1.
<mgrwt>
<rscale>  1 0.30000000E+03</rscale>
<asrwt>0</asrwt>
<pdfrwt beam="1">  1        3 0.77314983E-02 0.30000000E+03</pdfrwt>
<pdfrwt beam="2">0</pdfrwt>
<totfact> 0.50041198E+02</totfact>
</mgrwt>
</event>
<event>
 6    1  0.1956957E-002  0.3000000E+03  0.7818608E-02  0.1093470E+00
          3   -1    0    0  502    0  0.00000000000E+00  0.00000000000E+00  0.96486053482E+00  0.96486053482E+00  0.00000000000E+00 0.  1.
         13   -1    0    0    0    0 -0.00000000000E+00 -0.00000000000E+00 -0.10000000000E+04  0.10000000000E+04  0.00000000000E+00 0.  1.
    9000005    2    1    2  501    0  0.28660641441E+02  0.93284210592E+01 -0.56481977211E+03  0.56570466588E+03  0.95886505758E+01 0.  0.
         13    1    3    3    0    0  0.33363343911E+01  0.30177186467E+01 -0.43496578297E+02  0.43728595639E+02  0.00000000000E+00 0.  1.
          3    1    3    3  501    0  0.25324307050E+02  0.63107024125E+01 -0.52132319382E+03  0.52197607024E+03  0.00000000000E+00 0.  1.
         21    1    1    2  502  501 -0.28660641441E+02 -0.93284210592E+01 -0.43421536735E+03  0.43526019466E+03  0.00000000000E+00 0.  1.
<mgrwt>
<rscale>  1 0.30000000E+03</rscale>
<asrwt>0</asrwt>
<pdfrwt beam="1">  1        3 0.35085912E-02 0.30000000E+03</pdfrwt>
<pdfrwt beam="2">0</pdfrwt>
<totfact> 0.17072763E+03</totfact>
</mgrwt>
</event>
<event>
 6    1  0.1956957E-002  0.3000000E+03  0.7818608E-02  0.1093470E+00
          3   -1    0    0  502    0  0.00000000000E+00  0.00000000000E+00  0.36731145391E+01  0.36731145391E+01  0.00000000000E+00 0.  1.
         13   -1    0    0    0    0 -0.00000000000E+00 -0.00000000000E+00 -0.10000000000E+04  0.10000000000E+04  0.00000000000E+00 0.  1.
    9000005    2    1    2  501    0 -0.31012861360E+02  0.11417419148E+02 -0.91872874186E+03  0.91933079467E+03  0.38018270267E+01 0.  0.
         13    1    3    3    0    0 -0.31868457404E+01  0.48924998793E-01 -0.97849848530E+02  0.97901742767E+02  0.00000000000E+00 0.  1.
          3    1    3    3  501    0 -0.27826015619E+02  0.11368494149E+02 -0.82087889333E+03  0.82142905191E+03  0.00000000000E+00 0.  1.
         21    1    1    2  502  501  0.31012861360E+02 -0.11417419148E+02 -0.77598143602E+02  0.84342319865E+02  0.00000000000E+00 0.  1.
<mgrwt>
<rscale>  1 0.30000000E+03</rscale>
<asrwt>0</asrwt>
<pdfrwt beam="1">  1        3 0.13356808E-01 0.30000000E+03</pdfrwt>
<pdfrwt beam="2">0</pdfrwt>
<totfact> 0.20316508E+02</totfact>
</mgrwt>
</event>
<event>
 6    1  0.1956957E-002  0.3000000E+03  0.7818608E-02  0.1093470E+00
          1   -1    0    0  502    0  0.00000000000E+00  0.00000000000E+00  0.16651591960E+01  0.16651591960E+01  0.00000000000E+00 0.  1.
         13   -1    0    0    0    0 -0.00000000000E+00 -0.00000000000E+00 -0.10000000000E+04  0.10000000000E+04  0.00000000000E+00 0.  1.
    9000005    2    1    2  501    0 -0.23054834538E+02  0.22445275791E+02 -0.80683149286E+03  0.80747749720E+03  0.27449589066E+01 0.  0.
         13    1    3    3    0    0 -0.14056324565E+02  0.12849566270E+02 -0.44653311645E+03  0.44693905143E+03  0.00000000000E+00 0.  1.
          3    1    3    3  501    0 -0.89985099737E+01  0.95957095214E+01 -0.36029837642E+03  0.36053844576E+03  0.00000000000E+00 0.  1.
         21    1    1    2  502  501  0.23054834538E+02 -0.22445275791E+02 -0.19150334794E+03  0.19418766200E+03  0.00000000000E+00 0.  1.
<mgrwt>
<rscale>  1 0.30000000E+03</rscale>
<asrwt>0</asrwt>
<pdfrwt beam="1">  1        1 0.60551371E-02 0.30000000E+03</pdfrwt>
<pdfrwt beam="2">0</pdfrwt>
<totfact> 0.15202129E+03</totfact>
</mgrwt>
</event>
<event>
 6    1  0.1956957E-002  0.3000000E+03  0.7818608E-02  0.1093470E+00
          1   -1    0    0  502    0  0.00000000000E+00  0.00000000000E+00  0.14281150215E+01  0.14281150215E+01  0.00000000000E+00 0.  1.
         13   -1    0    0    0    0 -0.00000000000E+00 -0.00000000000E+00 -0.10000000000E+04  0.10000000000E+04  0.00000000000E+00 0.  1.
    9000005    2    1    2  501    0  0.32923018839E+02 -0.68046543358E+01 -0.72689686582E+03  0.72768088759E+03  0.31925129244E+01 0.  0.
         13    1    3    3    0    0  0.13843291003E+02 -0.37499305797E+01 -0.33839553366E+03  0.33869932962E+03  0.00000000000E+00 0.  1.
          1    1    3    3  501    0  0.19079727836E+02 -0.30547237562E+01 -0.38850133216E+03  0.38898155797E+03  0.00000000000E+00 0.  1.
         21    1    1    2  502  501 -0.32923018839E+02  0.68046543358E+01 -0.27167501916E+03  0.27374722743E+03  0.00000000000E+00 0.  1.
<mgrwt>
<rscale>  1 0.30000000E+03</rscale>
<asrwt>0</asrwt>
<pdfrwt beam="1">  1        1 0.51931565E-02 0.30000000E+03</pdfrwt>
<pdfrwt beam="2">0</pdfrwt>
<totfact> 0.18859801E+03</totfact>
</mgrwt>
</event>
<event>
 6    1  0.1956957E-002  0.3000000E+03  0.7818608E-02  0.1093470E+00
          1   -1    0    0  502    0  0.00000000000E+00  0.00000000000E+00  0.38538728852E+01  0.38538728852E+01  0.00000000000E+00 0.  1.
         13   -1    0    0    0    0 -0.00000000000E+00 -0.00000000000E+00 -0.10000000000E+04  0.10000000000E+04  0.00000000000E+00 0.  1.
    9000005    2    1    2  501    0  0.62598133200E+01  0.30101657658E+02 -0.93406360041E+03  0.93457519523E+03  0.32696877596E+01 0.  0.
         13    1    3    3    0    0  0.37490402332E+00  0.81355391446E+01 -0.22745705114E+03  0.22760280680E+03  0.00000000000E+00 0.  1.
          1    1    3    3  501    0  0.58849092967E+01  0.21966118513E+02 -0.70660654927E+03  0.70697238843E+03  0.00000000000E+00 0.  1.
         21    1    1    2  502  501 -0.62598133200E+01 -0.30101657658E+02 -0.62082526700E+02  0.69278677658E+02  0.00000000000E+00 0.  1.
<mgrwt>
<rscale>  1 0.30000000E+03</rscale>
<asrwt>0</asrwt>
<pdfrwt beam="1">  1        1 0.14014113E-01 0.30000000E+03</pdfrwt>
<pdfrwt beam="2">0</pdfrwt>
<totfact> 0.47580972E+02</totfact>
</mgrwt>
</event>
<event>
 6    1  0.1956957E-002  0.3000000E+03  0.7818608E-02  0.1093470E+00
          1   -1    0    0  502    0  0.00000000000E+00  0.00000000000E+00  0.23873059743E+02  0.23873059743E+02  0.00000000000E+00 0.  1.
         13   -1    0    0    0    0 -0.00000000000E+00 -0.00000000000E+00 -0.10000000000E+04  0.10000000000E+04  0.00000000000E+00 0.  1.
    9000005    2    1    2  501    0 -0.14459278998E+03  0.22643116985E+01 -0.30801080280E+03  0.34028592181E+03  0.34134901012E+01 0.  0.
         13    1    3    3    0    0 -0.12110933467E+03  0.29662787241E+01 -0.25952621003E+03  0.28640901426E+03  0.00000000000E+00 0.  1.
          1    1    3    3  501    0 -0.23483455311E+02 -0.70196702560E+00 -0.48484592768E+02  0.53876907548E+02  0.00000000000E+00 0.  1.
         21    1    1    2  502  501  0.14459278998E+03 -0.22643116985E+01 -0.66811613746E+03  0.68358713794E+03  0.00000000000E+00 0.  1.
<mgrwt>
<rscale>  1 0.30000000E+03</rscale>
<asrwt>0</asrwt>
<pdfrwt beam="1">  1        1 0.86811309E-01 0.30000000E+03</pdfrwt>
<pdfrwt beam="2">0</pdfrwt>
<totfact> 0.41911845E+01</totfact>
</mgrwt>
</event>
<event>
 6    1  0.1956957E-002  0.3000000E+03  0.7818608E-02  0.1093470E+00
          1   -1    0    0  502    0  0.00000000000E+00  0.00000000000E+00  0.97104085096E+00  0.97104085096E+00  0.00000000000E+00 0.  1.
         13   -1    0    0    0    0 -0.00000000000E+00 -0.00000000000E+00 -0.10000000000E+04  0.10000000000E+04  0.00000000000E+00 0.  1.
    9000005    2    1    2  501    0 -0.21145352606E+02  0.21829085710E+02 -0.60621153653E+03  0.60697971806E+03  0.28837817331E+01 0.  0.
         13    1    3    3    0    0 -0.11503189904E+02  0.13028460816E+02 -0.32245155371E+03  0.32291960092E+03  0.00000000000E+00 0.  1.
          3    1    3    3  501    0 -0.96421627016E+01  0.88006248940E+01 -0.28375998281E+03  0.28406011714E+03  0.00000000000E+00 0.  1.
         21    1    1    2  502  501  0.21145352606E+02 -0.21829085710E+02 -0.39281742262E+03  0.39399132279E+03  0.00000000000E+00 0.  1.
<mgrwt>
<rscale>  1 0.30000000E+03</rscale>
<asrwt>0</asrwt>
<pdfrwt beam="1">  1        1 0.35310651E-02 0.30000000E+03</pdfrwt>
<pdfrwt beam="2">0</pdfrwt>
<totfact> 0.32453000E+03</totfact>
</mgrwt>
</event>
<event>
 6    1  0.1956957E-002  0.3000000E+03  0.7818608E-02  0.1093470E+00
          3   -1    0    0  502    0  0.00000000000E+00  0.00000000000E+00  0.91633871144E+00  0.91633871144E+00  0.00000000000E+00 0.  1.
         13   -1    0    0    0    0 -0.00000000000E+00 -0.00000000000E+00 -0.10000000000E+04  0.10000000000E+04  0.00000000000E+00 0.  1.
    9000005    2    1    2  501    0  0.16434441430E+02 -0.25252060975E+02 -0.46614589210E+03  0.46712759466E+03  0.29050855956E+01 0.  0.
         13    1    3    3    0    0  0.14688525002E+02 -0.21014062927E+02 -0.40424780925E+03  0.40506003863E+03  0.00000000000E+00 0.  1.
          3    1    3    3  501    0  0.17459164277E+01 -0.42379980477E+01 -0.61898082847E+02  0.62067556032E+02  0.00000000000E+00 0.  1.
         21    1    1    2  502  501 -0.16434441430E+02  0.25252060975E+02 -0.53293776919E+03  0.53378874405E+03  0.00000000000E+00 0.  1.
<mgrwt>
<rscale>  1 0.30000000E+03</rscale>
<asrwt>0</asrwt>
<pdfrwt beam="1">  1        3 0.33321478E-02 0.30000000E+03</pdfrwt>
<pdfrwt beam="2">0</pdfrwt>
<totfact> 0.18488164E+03</totfact>
</mgrwt>
</event>
<event>
 6    1  0.1956957E-002  0.3000000E+03  0.7818608E-02  0.1093470E+00
          3   -1    0    0  502    0  0.00000000000E+00  0.00000000000E+00  0.21749148081E+01  0.21749148081E+01  0.00000000000E+00 0.  1.
         13   -1    0    0    0    0 -0.00000000000E+00 -0.00000000000E+00 -0.10000000000E+04  0.10000000000E+04  0.00000000000E+00 0.  1.
    9000005    2    1    2  501    0  0.33497029410E+02  0.29552105752E+02 -0.64129906114E+03  0.64286142527E+03  0.33088298380E+01 0.  0.
         13    1    3    3    0    0  0.32586462730E+02  0.29356594689E+02 -0.62852015744E+03  0.63004862948E+03  0.00000000000E+00 0.  1.
          1    1    3    3  501    0  0.91056667933E+00  0.19551106311E+00 -0.12778903699E+02  0.12812795791E+02  0.00000000000E+00 0.  1.
         21    1    1    2  502  501 -0.33497029410E+02 -0.29552105752E+02 -0.35652602405E+03  0.35931348954E+03  0.00000000000E+00 0.  1.
<mgrwt>
<rscale>  1 0.30000000E+03</rscale>
<asrwt>0</asrwt>
<pdfrwt beam="1">  1        3 0.79087978E-02 0.30000000E+03</pdfrwt>
<pdfrwt beam="2">0</pdfrwt>
<totfact> 0.48266053E+02</totfact>
</mgrwt>
</event>
<event>
 6    1  0.1956957E-002  0.3000000E+03  0.7818608E-02  0.1093470E+00
          1   -1    0    0  502    0  0.00000000000E+00  0.00000000000E+00  0.10134443184E+01  0.10134443184E+01  0.00000000000E+00 0.  1.
         13   -1    0    0    0    0 -0.00000000000E+00 -0.00000000000E+00 -0.10000000000E+04  0.10000000000E+04  0.00000000000E+00 0.  1.
    9000005    2    1    2  501    0  0.24234195211E+02  0.20233671915E+02 -0.55387445465E+03  0.55478314483E+03  0.32754506469E+01 0.  0.
         13    1    3    3    0    0  0.23880182315E+02  0.19182451610E+02 -0.53489100771E+03  0.53576731861E+03  0.00000000000E+00 0.  1.
          1    1    3    3  501    0  0.35401289601E+00  0.10512203051E+01 -0.18983446937E+02  0.19015826222E+02  0.00000000000E+00 0.  1.
         21    1    1    2  502  501 -0.24234195211E+02 -0.20233671915E+02 -0.44511210103E+03  0.44623029949E+03  0.00000000000E+00 0.  1.
<mgrwt>
<rscale>  1 0.30000000E+03</rscale>
<asrwt>0</asrwt>
<pdfrwt beam="1">  1        1 0.36852598E-02 0.30000000E+03</pdfrwt>
<pdfrwt beam="2">0</pdfrwt>
<totfact> 0.30559105E+03</totfact>
</mgrwt>
</event>
<event>
 6    1  0.1956957E-002  0.3000000E+03  0.7818608E-02  0.1093470E+00
          1   -1    0    0  502    0  0.00000000000E+00  0.00000000000E+00  0.21466923979E+01  0.21466923979E+01  0.00000000000E+00 0.  1.
         13   -1    0    0    0    0 -0.00000000000E+00 -0.00000000000E+00 -0.10000000000E+04  0.10000000000E+04  0.00000000000E+00 0.  1.
    9000005    2    1    2  501    0 -0.10029655468E+02  0.44792166143E+02 -0.44189297431E+03  0.44429471890E+03  0.46329650415E+01 0.  0.
         13    1    3    3    0    0 -0.46858754081E+01  0.12506480647E+02 -0.11852972501E+03  0.11927977699E+03  0.00000000000E+00 0.  1.
          3    1    3    3  501    0 -0.53437800596E+01  0.32285685496E+02 -0.32336324930E+03  0.32501494192E+03  0.00000000000E+00 0.  1.
         21    1    1    2  502  501  0.10029655468E+02 -0.44792166143E+02 -0.55596033330E+03  0.55785197350E+03  0.00000000000E+00 0.  1.
<mgrwt>
<rscale>  1 0.30000000E+03</rscale>
<asrwt>0</asrwt>
<pdfrwt beam="1">  1        1 0.78061706E-02 0.30000000E+03</pdfrwt>
<pdfrwt beam="2">0</pdfrwt>
<totfact> 0.10656349E+03</totfact>
</mgrwt>
</event>
<event>
 6    1  0.1956957E-002  0.3000000E+03  0.7818608E-02  0.1093470E+00
          1   -1    0    0  502    0  0.00000000000E+00  0.00000000000E+00  0.12868736163E+02  0.12868736163E+02  0.00000000000E+00 0.  1.
         13   -1    0    0    0    0 -0.00000000000E+00 -0.00000000000E+00 -0.10000000000E+04  0.10000000000E+04  0.00000000000E+00 0.  1.
    9000005    2    1    2  501    0 -0.96015330530E+02  0.44736501778E+02 -0.67461260767E+03  0.68288660219E+03  0.34121456520E+01 0.  0.
         13    1    3    3    0    0 -0.91307770874E+02  0.42630522588E+02 -0.64617100313E+03  0.65398121973E+03  0.00000000000E+00 0.  1.
          1    1    3    3  501    0 -0.47075596561E+01  0.21059791900E+01 -0.28441604539E+02  0.28905382458E+02  0.00000000000E+00 0.  1.
         21    1    1    2  502  501  0.96015330530E+02 -0.44736501778E+02 -0.31251865617E+03  0.32998213397E+03  0.00000000000E+00 0.  1.
<mgrwt>
<rscale>  1 0.30000000E+03</rscale>
<asrwt>0</asrwt>
<pdfrwt beam="1">  1        1 0.46795503E-01 0.30000000E+03</pdfrwt>
<pdfrwt beam="2">0</pdfrwt>
<totfact> 0.96260189E+01</totfact>
</mgrwt>
</event>
<event>
 6    1  0.1956957E-002  0.3000000E+03  0.7818608E-02  0.1093470E+00
          3   -1    0    0  502    0  0.00000000000E+00  0.00000000000E+00  0.44610752669E+01  0.44610752669E+01  0.00000000000E+00 0.  1.
         13   -1    0    0    0    0 -0.00000000000E+00 -0.00000000000E+00 -0.10000000000E+04  0.10000000000E+04  0.00000000000E+00 0.  1.
    9000005    2    1    2  501    0 -0.38964416795E+02 -0.25517563177E+02 -0.85763089513E+03  0.85890010373E+03  0.30436973582E+01 0.  0.
         13    1    3    3    0    0 -0.23414686355E+01 -0.74765098617E+00 -0.42459524161E+02  0.42530608382E+02  0.00000000000E+00 0.  1.
          3    1    3    3  501    0 -0.36622948159E+02 -0.24769912190E+02 -0.81517137097E+03  0.81636949535E+03  0.00000000000E+00 0.  1.
         21    1    1    2  502  501  0.38964416795E+02  0.25517563177E+02 -0.13790802960E+03  0.14556097154E+03  0.00000000000E+00 0.  1.
<mgrwt>
<rscale>  1 0.30000000E+03</rscale>
<asrwt>0</asrwt>
<pdfrwt beam="1">  1        3 0.16222126E-01 0.30000000E+03</pdfrwt>
<pdfrwt beam="2">0</pdfrwt>
<totfact> 0.14519801E+02</totfact>
</mgrwt>
</event>
<event>
 6    1  0.1956957E-002  0.3000000E+03  0.7818608E-02  0.1093470E+00
          1   -1    0    0  502    0  0.00000000000E+00  0.00000000000E+00  0.13154097004E+01  0.13154097004E+01  0.00000000000E+00 0.  1.
         13   -1    0    0    0    0 -0.00000000000E+00 -0.00000000000E+00 -0.10000000000E+04  0.10000000000E+04  0.00000000000E+00 0.  1.
    9000005    2    1    2  501    0  0.11818122573E+02 -0.27668916866E+02 -0.77800042445E+03  0.77858970836E+03  0.34693709972E+01 0.  0.
         13    1    3    3    0    0  0.14712671926E+01 -0.38210192867E+01 -0.78960532283E+02  0.79066620479E+02  0.00000000000E+00 0.  1.
          1    1    3    3  501    0  0.10346855380E+02 -0.23847897579E+02 -0.69903989217E+03  0.69952308788E+03  0.00000000000E+00 0.  1.
         21    1    1    2  502  501 -0.11818122573E+02  0.27668916866E+02 -0.22068416585E+03  0.22272570134E+03  0.00000000000E+00 0.  1.
<mgrwt>
<rscale>  1 0.30000000E+03</rscale>
<asrwt>0</asrwt>
<pdfrwt beam="1">  1        1 0.47833181E-02 0.30000000E+03</pdfrwt>
<pdfrwt beam="2">0</pdfrwt>
<totfact> 0.21169999E+03</totfact>
</mgrwt>
</event>
<event>
 6    1  0.1956957E-002  0.3000000E+03  0.7818608E-02  0.1093470E+00
          1   -1    0    0  502    0  0.00000000000E+00  0.00000000000E+00  0.55621293058E+01  0.55621293058E+01  0.00000000000E+00 0.  1.
         13   -1    0    0    0    0 -0.00000000000E+00 -0.00000000000E+00 -0.10000000000E+04  0.10000000000E+04  0.00000000000E+00 0.  1.
    9000005    2    1    2  501    0 -0.57415719253E+02  0.11945907414E+02 -0.80666545814E+03  0.80884469633E+03  0.90173110668E+01 0.  0.
         13    1    3    3    0    0 -0.14906225236E+02  0.25580310572E+01 -0.26588271933E+03  0.26631252226E+03  0.00000000000E+00 0.  1.
          3    1    3    3  501    0 -0.42509494017E+02  0.93878763571E+01 -0.54078273881E+03  0.54253217407E+03  0.00000000000E+00 0.  1.
         21    1    1    2  502  501  0.57415719253E+02 -0.11945907414E+02 -0.18777241255E+03  0.19671743298E+03  0.00000000000E+00 0.  1.
<mgrwt>
<rscale>  1 0.30000000E+03</rscale>
<asrwt>0</asrwt>
<pdfrwt beam="1">  1        1 0.20225967E-01 0.30000000E+03</pdfrwt>
<pdfrwt beam="2">0</pdfrwt>
<totfact> 0.29002695E+02</totfact>
</mgrwt>
</event>
<event>
 6    1  0.1956957E-002  0.3000000E+03  0.7818608E-02  0.1093470E+00
          3   -1    0    0  502    0  0.00000000000E+00  0.00000000000E+00  0.73270134927E+01  0.73270134927E+01  0.00000000000E+00 0.  1.
         13   -1    0    0    0    0 -0.00000000000E+00 -0.00000000000E+00 -0.10000000000E+04  0.10000000000E+04  0.00000000000E+00 0.  1.
    9000005    2    1    2  501    0  0.70949541654E+02 -0.47599657769E+02 -0.52296142675E+03  0.52990841912E+03  0.38358712220E+01 0.  0.
         13    1    3    3    0    0  0.64948164428E+02 -0.44644432902E+02 -0.47873005529E+03  0.48517404639E+03  0.00000000000E+00 0.  1.
          1    1    3    3  501    0  0.60013772259E+01 -0.29552248670E+01 -0.44231371454E+02  0.44734372727E+02  0.00000000000E+00 0.  1.
         21    1    1    2  502  501 -0.70949541654E+02  0.47599657769E+02 -0.46971155976E+03  0.47741859437E+03  0.00000000000E+00 0.  1.
<mgrwt>
<rscale>  1 0.30000000E+03</rscale>
<asrwt>0</asrwt>
<pdfrwt beam="1">  1        3 0.26643742E-01 0.30000000E+03</pdfrwt>
<pdfrwt beam="2">0</pdfrwt>
<totfact> 0.58543504E+01</totfact>
</mgrwt>
</event>
<event>
 6    1  0.1956957E-002  0.3000000E+03  0.7818608E-02  0.1093470E+00
          1   -1    0    0  502    0  0.00000000000E+00  0.00000000000E+00  0.31416279021E+01  0.31416279021E+01  0.00000000000E+00 0.  1.
         13   -1    0    0    0    0 -0.00000000000E+00 -0.00000000000E+00 -0.10000000000E+04  0.10000000000E+04  0.00000000000E+00 0.  1.
    9000005    2    1    2  501    0  0.11888571247E+02 -0.28449092721E+02 -0.91721818977E+03  0.91774111477E+03  0.29760848087E+01 0.  0.
         13    1    3    3    0    0  0.38513771163E+01 -0.66664734030E+01 -0.20469913148E+03  0.20484386591E+03  0.00000000000E+00 0.  1.
          3    1    3    3  501    0  0.80371941304E+01 -0.21782619318E+02 -0.71251905829E+03  0.71289724886E+03  0.00000000000E+00 0.  1.
         21    1    1    2  502  501 -0.11888571247E+02  0.28449092721E+02 -0.79640182323E+02  0.85400513133E+02  0.00000000000E+00 0.  1.
<mgrwt>
<rscale>  1 0.30000000E+03</rscale>
<asrwt>0</asrwt>
<pdfrwt beam="1">  1        1 0.11424126E-01 0.30000000E+03</pdfrwt>
<pdfrwt beam="2">0</pdfrwt>
<totfact> 0.62921592E+02</totfact>
</mgrwt>
</event>
<event>
 6    1  0.1956957E-002  0.3000000E+03  0.7818608E-02  0.1093470E+00
          1   -1    0    0  502    0  0.00000000000E+00  0.00000000000E+00  0.25568487715E+02  0.25568487715E+02  0.00000000000E+00 0.  1.
         13   -1    0    0    0    0 -0.00000000000E+00 -0.00000000000E+00 -0.10000000000E+04  0.10000000000E+04  0.00000000000E+00 0.  1.
    9000005    2    1    2  501    0 -0.41239279956E+02 -0.53552783560E+02 -0.95192212866E+03  0.95432769049E+03  0.41258898061E+01 0.  0.
         13    1    3    3    0    0 -0.20790408483E+02 -0.24797172954E+02 -0.43338611819E+03  0.43459253135E+03  0.00000000000E+00 0.  1.
          3    1    3    3  501    0 -0.20448871473E+02 -0.28755610606E+02 -0.51853601047E+03  0.51973515913E+03  0.00000000000E+00 0.  1.
         21    1    1    2  502  501  0.41239279956E+02  0.53552783560E+02 -0.22509383629E+02  0.71240797228E+02  0.00000000000E+00 0.  1.
<mgrwt>
<rscale>  1 0.30000000E+03</rscale>
<asrwt>0</asrwt>
<pdfrwt beam="1">  1        1 0.92976515E-01 0.30000000E+03</pdfrwt>
<pdfrwt beam="2">0</pdfrwt>
<totfact> 0.38028183E+01</totfact>
</mgrwt>
</event>
<event>
 6    1  0.1956957E-002  0.3000000E+03  0.7818608E-02  0.1093470E+00
          3   -1    0    0  502    0  0.00000000000E+00  0.00000000000E+00  0.12507781757E+01  0.12507781757E+01  0.00000000000E+00 0.  1.
         13   -1    0    0    0    0 -0.00000000000E+00 -0.00000000000E+00 -0.10000000000E+04  0.10000000000E+04  0.00000000000E+00 0.  1.
    9000005    2    1    2  501    0  0.34988625559E+02  0.43998236993E+01 -0.49994986830E+03  0.50120642270E+03  0.38006545833E+01 0.  0.
         13    1    3    3    0    0  0.17469934917E+02  0.31581023100E+01 -0.22808519587E+03  0.22877506160E+03  0.00000000000E+00 0.  1.
          3    1    3    3  501    0  0.17518690642E+02  0.12417213893E+01 -0.27186467243E+03  0.27243136110E+03  0.00000000000E+00 0.  1.
         21    1    1    2  502  501 -0.34988625559E+02 -0.43998236993E+01 -0.49879935352E+03  0.50004435548E+03  0.00000000000E+00 0.  1.
<mgrwt>
<rscale>  1 0.30000000E+03</rscale>
<asrwt>0</asrwt>
<pdfrwt beam="1">  1        3 0.45482939E-02 0.30000000E+03</pdfrwt>
<pdfrwt beam="2">0</pdfrwt>
<totfact> 0.11450739E+03</totfact>
</mgrwt>
</event>
<event>
 6    1  0.1956957E-002  0.3000000E+03  0.7818608E-02  0.1093470E+00
          1   -1    0    0  502    0  0.00000000000E+00  0.00000000000E+00  0.15032364983E+01  0.15032364983E+01  0.00000000000E+00 0.  1.
         13   -1    0    0    0    0 -0.00000000000E+00 -0.00000000000E+00 -0.10000000000E+04  0.10000000000E+04  0.00000000000E+00 0.  1.
    9000005    2    1    2  501    0  0.30154025028E+02 -0.16174132229E+02 -0.73370075849E+03  0.73450549858E+03  0.32644554330E+01 0.  0.
         13    1    3    3    0    0  0.11003700022E+02 -0.56169464662E+01 -0.23268603654E+03  0.23301378307E+03  0.00000000000E+00 0.  1.
          1    1    3    3  501    0  0.19150325006E+02 -0.10557185763E+02 -0.50101472194E+03  0.50149171551E+03  0.00000000000E+00 0.  1.
         21    1    1    2  502  501 -0.30154025028E+02  0.16174132229E+02 -0.26479600502E+03  0.26699773791E+03  0.00000000000E+00 0.  1.
<mgrwt>
<rscale>  1 0.30000000E+03</rscale>
<asrwt>0</asrwt>
<pdfrwt beam="1">  1        1 0.54663261E-02 0.30000000E+03</pdfrwt>
<pdfrwt beam="2">0</pdfrwt>
<totfact> 0.17549485E+03</totfact>
</mgrwt>
</event>
<event>
 6    1  0.1956957E-002  0.3000000E+03  0.7818608E-02  0.1093470E+00
          1   -1    0    0  502    0  0.00000000000E+00  0.00000000000E+00  0.14448773853E+01  0.14448773853E+01  0.00000000000E+00 0.  1.
         13   -1    0    0    0    0 -0.00000000000E+00 -0.00000000000E+00 -0.10000000000E+04  0.10000000000E+04  0.00000000000E+00 0.  1.
    9000005    2    1    2  501    0 -0.15931413857E+02  0.33914196635E+02 -0.42113559623E+03  0.42281088933E+03  0.31424582996E+01 0.  0.
         13    1    3    3    0    0 -0.12279841894E+02  0.28169799662E+02 -0.33475586862E+03  0.33616338841E+03  0.00000000000E+00 0.  1.
          1    1    3    3  501    0 -0.36515719631E+01  0.57443969736E+01 -0.86379727604E+02  0.86647500918E+02  0.00000000000E+00 0.  1.
         21    1    1    2  502  501  0.15931413857E+02 -0.33914196635E+02 -0.57741952639E+03  0.57863398806E+03  0.00000000000E+00 0.  1.
<mgrwt>
<rscale>  1 0.30000000E+03</rscale>
<asrwt>0</asrwt>
<pdfrwt beam="1">  1        1 0.52541107E-02 0.30000000E+03</pdfrwt>
<pdfrwt beam="2">0</pdfrwt>
<totfact> 0.18553137E+03</totfact>
</mgrwt>
</event>
<event>
 6    1  0.1956957E-002  0.3000000E+03  0.7818608E-02  0.1093470E+00
          1   -1    0    0  502    0  0.00000000000E+00  0.00000000000E+00  0.16530519752E+01  0.16530519752E+01  0.00000000000E+00 0.  1.
         13   -1    0    0    0    0 -0.00000000000E+00 -0.00000000000E+00 -0.10000000000E+04  0.10000000000E+04  0.00000000000E+00 0.  1.
    9000005    2    1    2  501    0 -0.26281185757E+02  0.30810431714E+02 -0.46674722625E+03  0.46851306321E+03  0.33961391609E+01 0.  0.
         13    1    3    3    0    0 -0.24379187787E+02  0.27024164879E+02 -0.42047618434E+03  0.42204842362E+03  0.00000000000E+00 0.  1.
          3    1    3    3  501    0 -0.19019979699E+01  0.37862668346E+01 -0.46271041913E+02  0.46464639593E+02  0.00000000000E+00 0.  1.
         21    1    1    2  502  501  0.26281185757E+02 -0.30810431714E+02 -0.53159972178E+03  0.53313998876E+03  0.00000000000E+00 0.  1.
<mgrwt>
<rscale>  1 0.30000000E+03</rscale>
<asrwt>0</asrwt>
<pdfrwt beam="1">  1        1 0.60111108E-02 0.30000000E+03</pdfrwt>
<pdfrwt beam="2">0</pdfrwt>
<totfact> 0.15358540E+03</totfact>
</mgrwt>
</event>
<event>
 6    1  0.1956957E-002  0.3000000E+03  0.7818608E-02  0.1093470E+00
          1   -1    0    0  502    0  0.00000000000E+00  0.00000000000E+00  0.42154208969E+02  0.42154208969E+02  0.00000000000E+00 0.  1.
         13   -1    0    0    0    0 -0.00000000000E+00 -0.00000000000E+00 -0.10000000000E+04  0.10000000000E+04  0.00000000000E+00 0.  1.
    9000005    2    1    2  501    0  0.29924950617E+02 -0.43783230300E+02 -0.98231533013E+03  0.98374845353E+03  0.22667364024E+01 0.  0.
         13    1    3    3    0    0  0.13519994670E+02 -0.17900190497E+02 -0.40857096540E+03  0.40918631556E+03  0.00000000000E+00 0.  1.
          3    1    3    3  501    0  0.16404955947E+02 -0.25883039803E+02 -0.57374436473E+03  0.57456213797E+03  0.00000000000E+00 0.  1.
         21    1    1    2  502  501 -0.29924950617E+02  0.43783230300E+02  0.24469539096E+02  0.58405755440E+02  0.00000000000E+00 0.  1.
<mgrwt>
<rscale>  1 0.30000000E+03</rscale>
<asrwt>0</asrwt>
<pdfrwt beam="1">  1        1 0.15328836E+00 0.30000000E+03</pdfrwt>
<pdfrwt beam="2">0</pdfrwt>
<totfact> 0.17289357E+01</totfact>
</mgrwt>
</event>
<event>
 6    1  0.1956957E-002  0.3000000E+03  0.7818608E-02  0.1093470E+00
          1   -1    0    0  502    0  0.00000000000E+00  0.00000000000E+00  0.17415717680E+01  0.17415717680E+01  0.00000000000E+00 0.  1.
         13   -1    0    0    0    0 -0.00000000000E+00 -0.00000000000E+00 -0.10000000000E+04  0.10000000000E+04  0.00000000000E+00 0.  1.
    9000005    2    1    2  501    0 -0.18858999826E+02 -0.30089313771E+02 -0.76152714872E+03  0.76236169088E+03  0.32742627372E+01 0.  0.
         13    1    3    3    0    0 -0.16780532446E+02 -0.27188050613E+02 -0.66191810514E+03  0.66268873106E+03  0.00000000000E+00 0.  1.
          3    1    3    3  501    0 -0.20784673800E+01 -0.29012631581E+01 -0.99609043582E+02  0.99672959813E+02  0.00000000000E+00 0.  1.
         21    1    1    2  502  501  0.18858999826E+02  0.30089313771E+02 -0.23673127951E+03  0.23937988089E+03  0.00000000000E+00 0.  1.
<mgrwt>
<rscale>  1 0.30000000E+03</rscale>
<asrwt>0</asrwt>
<pdfrwt beam="1">  1        1 0.63330016E-02 0.30000000E+03</pdfrwt>
<pdfrwt beam="2">0</pdfrwt>
<totfact> 0.14275304E+03</totfact>
</mgrwt>
</event>
<event>
 6    1  0.1956957E-002  0.3000000E+03  0.7818608E-02  0.1093470E+00
          1   -1    0    0  502    0  0.00000000000E+00  0.00000000000E+00  0.21830261816E+01  0.21830261816E+01  0.00000000000E+00 0.  1.
         13   -1    0    0    0    0 -0.00000000000E+00 -0.00000000000E+00 -0.10000000000E+04  0.10000000000E+04  0.00000000000E+00 0.  1.
    9000005    2    1    2  501    0  0.20452154945E+02 -0.34085555417E+02 -0.76164899150E+03  0.76269308568E+03  0.33824485512E+01 0.  0.
         13    1    3    3    0    0  0.23655535749E+01 -0.36065462847E+01 -0.64772502584E+02  0.64915946506E+02  0.00000000000E+00 0.  1.
          3    1    3    3  501    0  0.18086601370E+02 -0.30479009132E+02 -0.69687648892E+03  0.69777713918E+03  0.00000000000E+00 0.  1.
         21    1    1    2  502  501 -0.20452154945E+02  0.34085555417E+02 -0.23616798231E+03  0.23948994050E+03  0.00000000000E+00 0.  1.
<mgrwt>
<rscale>  1 0.30000000E+03</rscale>
<asrwt>0</asrwt>
<pdfrwt beam="1">  1        1 0.79382938E-02 0.30000000E+03</pdfrwt>
<pdfrwt beam="2">0</pdfrwt>
<totfact> 0.10410062E+03</totfact>
</mgrwt>
</event>
<event>
 6    1  0.1956957E-002  0.3000000E+03  0.7818608E-02  0.1093470E+00
          1   -1    0    0  502    0  0.00000000000E+00  0.00000000000E+00  0.47934417127E+01  0.47934417127E+01  0.00000000000E+00 0.  1.
         13   -1    0    0    0    0 -0.00000000000E+00 -0.00000000000E+00 -0.10000000000E+04  0.10000000000E+04  0.00000000000E+00 0.  1.
    9000005    2    1    2  501    0  0.64843260898E+02  0.76690272252E+01 -0.66411442923E+03  0.66732424254E+03  0.31948577396E+01 0.  0.
         13    1    3    3    0    0  0.49920737545E+02  0.53146086212E+01 -0.49775958427E+03  0.50028484769E+03  0.00000000000E+00 0.  1.
          3    1    3    3  501    0  0.14922523353E+02  0.23544186040E+01 -0.16635484496E+03  0.16703939485E+03  0.00000000000E+00 0.  1.
         21    1    1    2  502  501 -0.64843260898E+02 -0.76690272252E+01 -0.33109212906E+03  0.33746919917E+03  0.00000000000E+00 0.  1.
<mgrwt>
<rscale>  1 0.30000000E+03</rscale>
<asrwt>0</asrwt>
<pdfrwt beam="1">  1        1 0.17430734E-01 0.30000000E+03</pdfrwt>
<pdfrwt beam="2">0</pdfrwt>
<totfact> 0.35406806E+02</totfact>
</mgrwt>
</event>
<event>
 6    1  0.1956957E-002  0.3000000E+03  0.7818608E-02  0.1093470E+00
          1   -1    0    0  502    0  0.00000000000E+00  0.00000000000E+00  0.10277018527E+01  0.10277018527E+01  0.00000000000E+00 0.  1.
         13   -1    0    0    0    0 -0.00000000000E+00 -0.00000000000E+00 -0.10000000000E+04  0.10000000000E+04  0.00000000000E+00 0.  1.
    9000005    2    1    2  501    0  0.87958415584E+01 -0.30384345763E+02 -0.44225008215E+03  0.44340757930E+03  0.49569061495E+01 0.  0.
         13    1    3    3    0    0  0.93010426893E+01 -0.29527802182E+02 -0.42264711228E+03  0.42377940253E+03  0.00000000000E+00 0.  1.
          3    1    3    3  501    0 -0.50520113092E+00 -0.85654358105E+00 -0.19602969875E+02  0.19628176762E+02  0.00000000000E+00 0.  1.
         21    1    1    2  502  501 -0.87958415584E+01  0.30384345763E+02 -0.55672221600E+03  0.55762012256E+03  0.00000000000E+00 0.  1.
<mgrwt>
<rscale>  1 0.30000000E+03</rscale>
<asrwt>0</asrwt>
<pdfrwt beam="1">  1        1 0.37371055E-02 0.30000000E+03</pdfrwt>
<pdfrwt beam="2">0</pdfrwt>
<totfact> 0.29964174E+03</totfact>
</mgrwt>
</event>
<event>
 6    1  0.1956957E-002  0.3000000E+03  0.7818608E-02  0.1093470E+00
          1   -1    0    0  502    0  0.00000000000E+00  0.00000000000E+00  0.32632204212E+01  0.32632204212E+01  0.00000000000E+00 0.  1.
         13   -1    0    0    0    0 -0.00000000000E+00 -0.00000000000E+00 -0.10000000000E+04  0.10000000000E+04  0.00000000000E+00 0.  1.
    9000005    2    1    2  501    0 -0.34401149665E+02  0.46969145093E+01 -0.89657594017E+03  0.89725523084E+03  0.36100793316E+01 0.  0.
         13    1    3    3    0    0 -0.20127568561E+02  0.31809512825E+01 -0.48090199580E+03  0.48133352993E+03  0.00000000000E+00 0.  1.
          1    1    3    3  501    0 -0.14273581104E+02  0.15159632269E+01 -0.41567394436E+03  0.41592170091E+03  0.00000000000E+00 0.  1.
         21    1    1    2  502  501  0.34401149665E+02 -0.46969145093E+01 -0.10016083941E+03  0.10600798958E+03  0.00000000000E+00 0.  1.
<mgrwt>
<rscale>  1 0.30000000E+03</rscale>
<asrwt>0</asrwt>
<pdfrwt beam="1">  1        1 0.11866281E-01 0.30000000E+03</pdfrwt>
<pdfrwt beam="2">0</pdfrwt>
<totfact> 0.59727815E+02</totfact>
</mgrwt>
</event>
<event>
 6    1  0.1956957E-002  0.3000000E+03  0.7818608E-02  0.1093470E+00
          1   -1    0    0  502    0  0.00000000000E+00  0.00000000000E+00  0.26611370641E+01  0.26611370641E+01  0.00000000000E+00 0.  1.
         13   -1    0    0    0    0 -0.00000000000E+00 -0.00000000000E+00 -0.10000000000E+04  0.10000000000E+04  0.00000000000E+00 0.  1.
    9000005    2    1    2  501    0  0.19688045736E+02 -0.39636427921E+02 -0.75565273633E+03  0.75695633581E+03  0.36291657110E+01 0.  0.
         13    1    3    3    0    0  0.11622181521E+02 -0.19663372906E+02 -0.37648495782E+03  0.37717720876E+03  0.00000000000E+00 0.  1.
          3    1    3    3  501    0  0.80658642142E+01 -0.19973055016E+02 -0.37916777850E+03  0.37977912706E+03  0.00000000000E+00 0.  1.
         21    1    1    2  502  501 -0.19688045736E+02  0.39636427921E+02 -0.24168612661E+03  0.24570480125E+03  0.00000000000E+00 0.  1.
<mgrwt>
<rscale>  1 0.30000000E+03</rscale>
<asrwt>0</asrwt>
<pdfrwt beam="1">  1        1 0.96768825E-02 0.30000000E+03</pdfrwt>
<pdfrwt beam="2">0</pdfrwt>
<totfact> 0.79082325E+02</totfact>
</mgrwt>
</event>
<event>
 6    1  0.1956957E-002  0.3000000E+03  0.7818608E-02  0.1093470E+00
          1   -1    0    0  502    0  0.00000000000E+00  0.00000000000E+00  0.13368621303E+01  0.13368621303E+01  0.00000000000E+00 0.  1.
         13   -1    0    0    0    0 -0.00000000000E+00 -0.00000000000E+00 -0.10000000000E+04  0.10000000000E+04  0.00000000000E+00 0.  1.
    9000005    2    1    2  501    0  0.19589478830E+02  0.22807027390E+02 -0.78344929523E+03  0.78403314324E+03  0.33560878138E+01 0.  0.
         13    1    3    3    0    0  0.94975285196E+00  0.23714400068E+01 -0.56138491617E+02  0.56196583519E+02  0.00000000000E+00 0.  1.
          3    1    3    3  501    0  0.18639725978E+02  0.20435587383E+02 -0.72731080361E+03  0.72783655972E+03  0.00000000000E+00 0.  1.
         21    1    1    2  502  501 -0.19589478830E+02 -0.22807027390E+02 -0.21521384264E+03  0.21730371889E+03  0.00000000000E+00 0.  1.
<mgrwt>
<rscale>  1 0.30000000E+03</rscale>
<asrwt>0</asrwt>
<pdfrwt beam="1">  1        1 0.48613271E-02 0.30000000E+03</pdfrwt>
<pdfrwt beam="2">0</pdfrwt>
<totfact> 0.20693871E+03</totfact>
</mgrwt>
</event>
<event>
 6    1  0.1956957E-002  0.3000000E+03  0.7818608E-02  0.1093470E+00
          1   -1    0    0  502    0  0.00000000000E+00  0.00000000000E+00  0.87007208654E+01  0.87007208654E+01  0.00000000000E+00 0.  1.
         13   -1    0    0    0    0 -0.00000000000E+00 -0.00000000000E+00 -0.10000000000E+04  0.10000000000E+04  0.00000000000E+00 0.  1.
    9000005    2    1    2  501    0  0.61765294960E+02 -0.10127669136E+02 -0.86954065342E+03  0.87179679733E+03  0.33446285347E+01 0.  0.
         13    1    3    3    0    0  0.42156000465E+02 -0.84747835648E+01 -0.59407738777E+03  0.59563150772E+03  0.00000000000E+00 0.  1.
          1    1    3    3  501    0  0.19609294495E+02 -0.16528855714E+01 -0.27546326565E+03  0.27616528961E+03  0.00000000000E+00 0.  1.
         21    1    1    2  502  501 -0.61765294960E+02  0.10127669136E+02 -0.12175862571E+03  0.13690392353E+03  0.00000000000E+00 0.  1.
<mgrwt>
<rscale>  1 0.30000000E+03</rscale>
<asrwt>0</asrwt>
<pdfrwt beam="1">  1        1 0.31639052E-01 0.30000000E+03</pdfrwt>
<pdfrwt beam="2">0</pdfrwt>
<totfact> 0.16061304E+02</totfact>
</mgrwt>
</event>
<event>
 6    1  0.1956957E-002  0.3000000E+03  0.7818608E-02  0.1093470E+00
          3   -1    0    0  502    0  0.00000000000E+00  0.00000000000E+00  0.36207182520E+01  0.36207182520E+01  0.00000000000E+00 0.  1.
         13   -1    0    0    0    0 -0.00000000000E+00 -0.00000000000E+00 -0.10000000000E+04  0.10000000000E+04  0.00000000000E+00 0.  1.
    9000005    2    1    2  501    0  0.34891857263E+02  0.81097820954E+01 -0.90038568599E+03  0.90116106427E+03  0.10661610551E+02 0.  0.
         13    1    3    3    0    0  0.24107203131E+02  0.68433326566E+01 -0.49936735389E+03  0.49999574256E+03  0.00000000000E+00 0.  1.
          3    1    3    3  501    0  0.10784654131E+02  0.12664494388E+01 -0.40101833210E+03  0.40116532171E+03  0.00000000000E+00 0.  1.
         21    1    1    2  502  501 -0.34891857263E+02 -0.81097820954E+01 -0.95993595753E+02  0.10245965398E+03  0.00000000000E+00 0.  1.
<mgrwt>
<rscale>  1 0.30000000E+03</rscale>
<asrwt>0</asrwt>
<pdfrwt beam="1">  1        3 0.13166276E-01 0.30000000E+03</pdfrwt>
<pdfrwt beam="2">0</pdfrwt>
<totfact> 0.20819952E+02</totfact>
</mgrwt>
</event>
<event>
 6    1  0.1956957E-002  0.3000000E+03  0.7818608E-02  0.1093470E+00
          1   -1    0    0  502    0  0.00000000000E+00  0.00000000000E+00  0.10789478248E+01  0.10789478248E+01  0.00000000000E+00 0.  1.
         13   -1    0    0    0    0 -0.00000000000E+00 -0.00000000000E+00 -0.10000000000E+04  0.10000000000E+04  0.00000000000E+00 0.  1.
    9000005    2    1    2  501    0 -0.26094310905E+02 -0.17494704585E+02 -0.36116617626E+03  0.36255074993E+03  0.38809344433E+01 0.  0.
         13    1    3    3    0    0 -0.10501215356E+02 -0.65461909678E+01 -0.16396727831E+03  0.16443356256E+03  0.00000000000E+00 0.  1.
          3    1    3    3  501    0 -0.15593095549E+02 -0.10948513618E+02 -0.19719889795E+03  0.19811718737E+03  0.00000000000E+00 0.  1.
         21    1    1    2  502  501  0.26094310905E+02  0.17494704585E+02 -0.63775487592E+03  0.63852819789E+03  0.00000000000E+00 0.  1.
<mgrwt>
<rscale>  1 0.30000000E+03</rscale>
<asrwt>0</asrwt>
<pdfrwt beam="1">  1        1 0.39234549E-02 0.30000000E+03</pdfrwt>
<pdfrwt beam="2">0</pdfrwt>
<totfact> 0.27980422E+03</totfact>
</mgrwt>
</event>
<event>
 6    1  0.1956957E-002  0.3000000E+03  0.7818608E-02  0.1093470E+00
          1   -1    0    0  502    0  0.00000000000E+00  0.00000000000E+00  0.15727740424E+01  0.15727740424E+01  0.00000000000E+00 0.  1.
         13   -1    0    0    0    0 -0.00000000000E+00 -0.00000000000E+00 -0.10000000000E+04  0.10000000000E+04  0.00000000000E+00 0.  1.
    9000005    2    1    2  501    0 -0.20932917063E+02  0.31778396236E+02 -0.63779143230E+03  0.63893489798E+03  0.34408231949E+01 0.  0.
         13    1    3    3    0    0 -0.16252467447E+01  0.11130091697E+01 -0.31746524494E+02  0.31807578245E+02  0.00000000000E+00 0.  1.
          1    1    3    3  501    0 -0.19307670318E+02  0.30665387066E+02 -0.60604490781E+03  0.60712731974E+03  0.00000000000E+00 0.  1.
         21    1    1    2  502  501  0.20932917063E+02 -0.31778396236E+02 -0.36063579366E+03  0.36263787606E+03  0.00000000000E+00 0.  1.
<mgrwt>
<rscale>  1 0.30000000E+03</rscale>
<asrwt>0</asrwt>
<pdfrwt beam="1">  1        1 0.57191904E-02 0.30000000E+03</pdfrwt>
<pdfrwt beam="2">0</pdfrwt>
<totfact> 0.16469898E+03</totfact>
</mgrwt>
</event>
<event>
 6    1  0.1956957E-002  0.3000000E+03  0.7818608E-02  0.1093470E+00
          1   -1    0    0  502    0  0.00000000000E+00  0.00000000000E+00  0.22999737425E+01  0.22999737425E+01  0.00000000000E+00 0.  1.
         13   -1    0    0    0    0 -0.00000000000E+00 -0.00000000000E+00 -0.10000000000E+04  0.10000000000E+04  0.00000000000E+00 0.  1.
    9000005    2    1    2  501    0  0.20847802767E+02 -0.38088377633E+02 -0.71087717794E+03  0.71220912296E+03  0.31807734970E+01 0.  0.
         13    1    3    3    0    0  0.12617409006E+02 -0.26103167541E+02 -0.47866202827E+03  0.47953927021E+03  0.00000000000E+00 0.  1.
          3    1    3    3  501    0  0.82303937606E+01 -0.11985210093E+02 -0.23221514968E+03  0.23266985276E+03  0.00000000000E+00 0.  1.
         21    1    1    2  502  501 -0.20847802767E+02  0.38088377633E+02 -0.28682284831E+03  0.29009085078E+03  0.00000000000E+00 0.  1.
<mgrwt>
<rscale>  1 0.30000000E+03</rscale>
<asrwt>0</asrwt>
<pdfrwt beam="1">  1        1 0.83635585E-02 0.30000000E+03</pdfrwt>
<pdfrwt beam="2">0</pdfrwt>
<totfact> 0.96809594E+02</totfact>
</mgrwt>
</event>
<event>
 6    1  0.1956957E-002  0.3000000E+03  0.7818608E-02  0.1093470E+00
          3   -1    0    0  502    0  0.00000000000E+00  0.00000000000E+00  0.11871246360E+01  0.11871246360E+01  0.00000000000E+00 0.  1.
         13   -1    0    0    0    0 -0.00000000000E+00 -0.00000000000E+00 -0.10000000000E+04  0.10000000000E+04  0.00000000000E+00 0.  1.
    9000005    2    1    2  501    0  0.86551699925E+00 -0.32255118727E+02 -0.67198434543E+03  0.67276966197E+03  0.38620931242E+01 0.  0.
         13    1    3    3    0    0 -0.35767617603E+00 -0.93204902638E+01 -0.22987460825E+03  0.23006376287E+03  0.00000000000E+00 0.  1.
          1    1    3    3  501    0  0.12231931753E+01 -0.22934628463E+02 -0.44210973718E+03  0.44270589910E+03  0.00000000000E+00 0.  1.
         21    1    1    2  502  501 -0.86551699925E+00  0.32255118727E+02 -0.32682852993E+03  0.32841746266E+03  0.00000000000E+00 0.  1.
<mgrwt>
<rscale>  1 0.30000000E+03</rscale>
<asrwt>0</asrwt>
<pdfrwt beam="1">  1        3 0.43168260E-02 0.30000000E+03</pdfrwt>
<pdfrwt beam="2">0</pdfrwt>
<totfact> 0.12410424E+03</totfact>
</mgrwt>
</event>
<event>
 6    1  0.1956957E-002  0.3000000E+03  0.7818608E-02  0.1093470E+00
          1   -1    0    0  502    0  0.00000000000E+00  0.00000000000E+00  0.17469857456E+01  0.17469857456E+01  0.00000000000E+00 0.  1.
         13   -1    0    0    0    0 -0.00000000000E+00 -0.00000000000E+00 -0.10000000000E+04  0.10000000000E+04  0.00000000000E+00 0.  1.
    9000005    2    1    2  501    0 -0.38188330740E+02  0.19954530521E+01 -0.30108808126E+03  0.30353407106E+03  0.40705257025E+01 0.  0.
         13    1    3    3    0    0 -0.26161547298E+02  0.28350523165E+01 -0.21564197252E+03  0.21724162675E+03  0.00000000000E+00 0.  1.
          1    1    3    3  501    0 -0.12026783441E+02 -0.83959926441E+00 -0.85446108734E+02  0.86292444308E+02  0.00000000000E+00 0.  1.
         21    1    1    2  502  501  0.38188330740E+02 -0.19954530521E+01 -0.69716493300E+03  0.69821291469E+03  0.00000000000E+00 0.  1.
<mgrwt>
<rscale>  1 0.30000000E+03</rscale>
<asrwt>0</asrwt>
<pdfrwt beam="1">  1        1 0.63526888E-02 0.30000000E+03</pdfrwt>
<pdfrwt beam="2">0</pdfrwt>
<totfact> 0.14213347E+03</totfact>
</mgrwt>
</event>
<event>
 6    1  0.1956957E-002  0.3000000E+03  0.7818608E-02  0.1093470E+00
          1   -1    0    0  502    0  0.00000000000E+00  0.00000000000E+00  0.20884920304E+01  0.20884920304E+01  0.00000000000E+00 0.  1.
         13   -1    0    0    0    0 -0.00000000000E+00 -0.00000000000E+00 -0.10000000000E+04  0.10000000000E+04  0.00000000000E+00 0.  1.
    9000005    2    1    2  501    0  0.30666059461E+02 -0.19401955240E+02 -0.80008456317E+03  0.80096081328E+03  0.92775600332E+01 0.  0.
         13    1    3    3    0    0  0.15004656174E+02 -0.78542258759E+01 -0.46829994638E+03  0.46860609082E+03  0.00000000000E+00 0.  1.
          1    1    3    3  501    0  0.15661403287E+02 -0.11547729364E+02 -0.33178461679E+03  0.33235472247E+03  0.00000000000E+00 0.  1.
         21    1    1    2  502  501 -0.30666059461E+02  0.19401955240E+02 -0.19782694480E+03  0.20112767875E+03  0.00000000000E+00 0.  1.
<mgrwt>
<rscale>  1 0.30000000E+03</rscale>
<asrwt>0</asrwt>
<pdfrwt beam="1">  1        1 0.75945325E-02 0.30000000E+03</pdfrwt>
<pdfrwt beam="2">0</pdfrwt>
<totfact> 0.11072684E+03</totfact>
</mgrwt>
</event>
<event>
 6    1  0.1956957E-002  0.3000000E+03  0.7818608E-02  0.1093470E+00
          3   -1    0    0  502    0  0.00000000000E+00  0.00000000000E+00  0.13637480842E+01  0.13637480842E+01  0.00000000000E+00 0.  1.
         13   -1    0    0    0    0 -0.00000000000E+00 -0.00000000000E+00 -0.10000000000E+04  0.10000000000E+04  0.00000000000E+00 0.  1.
    9000005    2    1    2  501    0 -0.11214318171E+02 -0.32599627474E+02 -0.67662043108E+03  0.67750778394E+03  0.36184113017E+01 0.  0.
         13    1    3    3    0    0 -0.43702683881E+00 -0.47476190005E+01 -0.10360919846E+03  0.10371883572E+03  0.00000000000E+00 0.  1.
          3    1    3    3  501    0 -0.10777291332E+02 -0.27852008473E+02 -0.57301123262E+03  0.57378894821E+03  0.00000000000E+00 0.  1.
         21    1    1    2  502  501  0.11214318171E+02  0.32599627474E+02 -0.32201582084E+03  0.32385596415E+03  0.00000000000E+00 0.  1.
<mgrwt>
<rscale>  1 0.30000000E+03</rscale>
<asrwt>0</asrwt>
<pdfrwt beam="1">  1        3 0.49590944E-02 0.30000000E+03</pdfrwt>
<pdfrwt beam="2">0</pdfrwt>
<totfact> 0.10020205E+03</totfact>
</mgrwt>
</event>
<event>
 6    1  0.1956957E-002  0.3000000E+03  0.7818608E-02  0.1093470E+00
          1   -1    0    0  502    0  0.00000000000E+00  0.00000000000E+00  0.33656334758E+01  0.33656334758E+01  0.00000000000E+00 0.  1.
         13   -1    0    0    0    0 -0.00000000000E+00 -0.00000000000E+00 -0.10000000000E+04  0.10000000000E+04  0.00000000000E+00 0.  1.
    9000005    2    1    2  501    0 -0.35208869399E+02 -0.33392549194E+02 -0.77288107033E+03  0.77441091223E+03  0.35192712136E+01 0.  0.
         13    1    3    3    0    0 -0.20075577588E+02 -0.18396337143E+02 -0.46017194811E+03  0.46097687129E+03  0.00000000000E+00 0.  1.
          3    1    3    3  501    0 -0.15133291812E+02 -0.14996212051E+02 -0.31270912222E+03  0.31343404094E+03  0.00000000000E+00 0.  1.
         21    1    1    2  502  501  0.35208869399E+02  0.33392549194E+02 -0.22375329619E+03  0.22895472125E+03  0.00000000000E+00 0.  1.
<mgrwt>
<rscale>  1 0.30000000E+03</rscale>
<asrwt>0</asrwt>
<pdfrwt beam="1">  1        1 0.12238693E-01 0.30000000E+03</pdfrwt>
<pdfrwt beam="2">0</pdfrwt>
<totfact> 0.57250799E+02</totfact>
</mgrwt>
</event>
<event>
 6    1  0.1956957E-002  0.3000000E+03  0.7818608E-02  0.1093470E+00
          1   -1    0    0  502    0  0.00000000000E+00  0.00000000000E+00  0.12029770265E+01  0.12029770265E+01  0.00000000000E+00 0.  1.
         13   -1    0    0    0    0 -0.00000000000E+00 -0.00000000000E+00 -0.10000000000E+04  0.10000000000E+04  0.00000000000E+00 0.  1.
    9000005    2    1    2  501    0 -0.32568166964E+02  0.11431669518E+02 -0.53508510390E+03  0.53620823248E+03  0.34397083796E+01 0.  0.
         13    1    3    3    0    0 -0.32135592922E+02  0.11539416921E+02 -0.52199346663E+03  0.52310900746E+03  0.00000000000E+00 0.  1.
          3    1    3    3  501    0 -0.43257404120E+00 -0.10774740248E+00 -0.13091637265E+02  0.13099225019E+02  0.00000000000E+00 0.  1.
         21    1    1    2  502  501  0.32568166964E+02 -0.11431669518E+02 -0.46371191907E+03  0.46499474455E+03  0.00000000000E+00 0.  1.
<mgrwt>
<rscale>  1 0.30000000E+03</rscale>
<asrwt>0</asrwt>
<pdfrwt beam="1">  1        1 0.43744711E-02 0.30000000E+03</pdfrwt>
<pdfrwt beam="2">0</pdfrwt>
<totfact> 0.24006022E+03</totfact>
</mgrwt>
</event>
<event>
 6    1  0.1956957E-002  0.3000000E+03  0.7818608E-02  0.1093470E+00
          1   -1    0    0  502    0  0.00000000000E+00  0.00000000000E+00  0.13400622590E+01  0.13400622590E+01  0.00000000000E+00 0.  1.
         13   -1    0    0    0    0 -0.00000000000E+00 -0.00000000000E+00 -0.10000000000E+04  0.10000000000E+04  0.00000000000E+00 0.  1.
    9000005    2    1    2  501    0  0.34801116888E+02  0.10293766399E+02 -0.44184430557E+03  0.44334299454E+03  0.30888625026E+01 0.  0.
         13    1    3    3    0    0  0.16675422341E+02  0.64877226994E+01 -0.21224335338E+03  0.21299624718E+03  0.00000000000E+00 0.  1.
          1    1    3    3  501    0  0.18125694547E+02  0.38060436999E+01 -0.22960095219E+03  0.23034674736E+03  0.00000000000E+00 0.  1.
         21    1    1    2  502  501 -0.34801116888E+02 -0.10293766399E+02 -0.55681563217E+03  0.55799706772E+03  0.00000000000E+00 0.  1.
<mgrwt>
<rscale>  1 0.30000000E+03</rscale>
<asrwt>0</asrwt>
<pdfrwt beam="1">  1        1 0.48729639E-02 0.30000000E+03</pdfrwt>
<pdfrwt beam="2">0</pdfrwt>
<totfact> 0.20624423E+03</totfact>
</mgrwt>
</event>
<event>
 6    1  0.1956957E-002  0.3000000E+03  0.7818608E-02  0.1093470E+00
          3   -1    0    0  502    0  0.00000000000E+00  0.00000000000E+00  0.13425817657E+01  0.13425817657E+01  0.00000000000E+00 0.  1.
         13   -1    0    0    0    0 -0.00000000000E+00 -0.00000000000E+00 -0.10000000000E+04  0.10000000000E+04  0.00000000000E+00 0.  1.
    9000005    2    1    2  501    0  0.26277302996E+02  0.19108828597E+02 -0.72675547068E+03  0.72750629296E+03  0.60206436380E+01 0.  0.
         13    1    3    3    0    0  0.12154076210E+02  0.11386395041E+02 -0.32115748060E+03  0.32158902175E+03  0.00000000000E+00 0.  1.
          3    1    3    3  501    0  0.14123226786E+02  0.77224335556E+01 -0.40559799008E+03  0.40591727121E+03  0.00000000000E+00 0.  1.
         21    1    1    2  502  501 -0.26277302996E+02 -0.19108828597E+02 -0.27190194755E+03  0.27383628880E+03  0.00000000000E+00 0.  1.
<mgrwt>
<rscale>  1 0.30000000E+03</rscale>
<asrwt>0</asrwt>
<pdfrwt beam="1">  1        3 0.48821258E-02 0.30000000E+03</pdfrwt>
<pdfrwt beam="2">0</pdfrwt>
<totfact> 0.10265051E+03</totfact>
</mgrwt>
</event>
<event>
 6    1  0.1956957E-002  0.3000000E+03  0.7818608E-02  0.1093470E+00
          1   -1    0    0  502    0  0.00000000000E+00  0.00000000000E+00  0.19007402383E+01  0.19007402383E+01  0.00000000000E+00 0.  1.
         13   -1    0    0    0    0 -0.00000000000E+00 -0.00000000000E+00 -0.10000000000E+04  0.10000000000E+04  0.00000000000E+00 0.  1.
    9000005    2    1    2  501    0 -0.40519164314E+02  0.13014871144E+02 -0.60562750622E+03  0.60712831608E+03  0.29876995321E+01 0.  0.
         13    1    3    3    0    0 -0.48803507885E+01  0.26188782233E+01 -0.78950115175E+02  0.79144153499E+02  0.00000000000E+00 0.  1.
          1    1    3    3  501    0 -0.35638813526E+02  0.10395992921E+02 -0.52667739104E+03  0.52798416258E+03  0.00000000000E+00 0.  1.
         21    1    1    2  502  501  0.40519164314E+02 -0.13014871144E+02 -0.39247175355E+03  0.39477242416E+03  0.00000000000E+00 0.  1.
<mgrwt>
<rscale>  1 0.30000000E+03</rscale>
<asrwt>0</asrwt>
<pdfrwt beam="1">  1        1 0.69117973E-02 0.30000000E+03</pdfrwt>
<pdfrwt beam="2">0</pdfrwt>
<totfact> 0.12630122E+03</totfact>
</mgrwt>
</event>
<event>
 6    1  0.1956957E-002  0.3000000E+03  0.7818608E-02  0.1093470E+00
          1   -1    0    0  502    0  0.00000000000E+00  0.00000000000E+00  0.20945429216E+01  0.20945429216E+01  0.00000000000E+00 0.  1.
         13   -1    0    0    0    0 -0.00000000000E+00 -0.00000000000E+00 -0.10000000000E+04  0.10000000000E+04  0.00000000000E+00 0.  1.
    9000005    2    1    2  501    0 -0.79455979071E+01  0.30392414962E+02 -0.86317228427E+03  0.86374766270E+03  0.26078853946E+01 0.  0.
         13    1    3    3    0    0 -0.59775651537E+01  0.19379821009E+02 -0.53165754692E+03  0.53204422368E+03  0.00000000000E+00 0.  1.
          1    1    3    3  501    0 -0.19680327534E+01  0.11012593953E+02 -0.33151473735E+03  0.33170343902E+03  0.00000000000E+00 0.  1.
         21    1    1    2  502  501  0.79455979071E+01 -0.30392414962E+02 -0.13473317281E+03  0.13834688022E+03  0.00000000000E+00 0.  1.
<mgrwt>
<rscale>  1 0.30000000E+03</rscale>
<asrwt>0</asrwt>
<pdfrwt beam="1">  1        1 0.76165358E-02 0.30000000E+03</pdfrwt>
<pdfrwt beam="2">0</pdfrwt>
<totfact> 0.11028086E+03</totfact>
</mgrwt>
</event>
<event>
 6    1  0.1956957E-002  0.3000000E+03  0.7818608E-02  0.1093470E+00
          1   -1    0    0  502    0  0.00000000000E+00  0.00000000000E+00  0.18540016822E+02  0.18540016822E+02  0.00000000000E+00 0.  1.
         13   -1    0    0    0    0 -0.00000000000E+00 -0.00000000000E+00 -0.10000000000E+04  0.10000000000E+04  0.00000000000E+00 0.  1.
    9000005    2    1    2  501    0 -0.26787255387E+02  0.22740561628E+02 -0.98274690228E+03  0.98337829964E+03  0.25915380885E+01 0.  0.
         13    1    3    3    0    0 -0.17217946597E+02  0.14242744213E+02 -0.65807190340E+03  0.65845117016E+03  0.00000000000E+00 0.  1.
          1    1    3    3  501    0 -0.95693087897E+01  0.84978174145E+01 -0.32467499888E+03  0.32492712948E+03  0.00000000000E+00 0.  1.
         21    1    1    2  502  501  0.26787255387E+02 -0.22740561628E+02  0.12869191024E+01  0.35161717181E+02  0.00000000000E+00 0.  1.
<mgrwt>
<rscale>  1 0.30000000E+03</rscale>
<asrwt>0</asrwt>
<pdfrwt beam="1">  1        1 0.67418385E-01 0.30000000E+03</pdfrwt>
<pdfrwt beam="2">0</pdfrwt>
<totfact> 0.59326300E+01</totfact>
</mgrwt>
</event>
<event>
 6    1  0.1956957E-002  0.3000000E+03  0.7818608E-02  0.1093470E+00
          1   -1    0    0  502    0  0.00000000000E+00  0.00000000000E+00  0.89661275592E+01  0.89661275592E+01  0.00000000000E+00 0.  1.
         13   -1    0    0    0    0 -0.00000000000E+00 -0.00000000000E+00 -0.10000000000E+04  0.10000000000E+04  0.00000000000E+00 0.  1.
    9000005    2    1    2  501    0 -0.48777832074E+02 -0.52618279243E+02 -0.82458220797E+03  0.82770908131E+03  0.43064322379E+01 0.  0.
         13    1    3    3    0    0 -0.37428168251E+02 -0.38184836571E+02 -0.60034981419E+03  0.60272618072E+03  0.00000000000E+00 0.  1.
          1    1    3    3  501    0 -0.11349663823E+02 -0.14433442672E+02 -0.22423239378E+03  0.22498290059E+03  0.00000000000E+00 0.  1.
         21    1    1    2  502  501  0.48777832074E+02  0.52618279243E+02 -0.16645166447E+03  0.18125704625E+03  0.00000000000E+00 0.  1.
<mgrwt>
<rscale>  1 0.30000000E+03</rscale>
<asrwt>0</asrwt>
<pdfrwt beam="1">  1        1 0.32604169E-01 0.30000000E+03</pdfrwt>
<pdfrwt beam="2">0</pdfrwt>
<totfact> 0.15440945E+02</totfact>
</mgrwt>
</event>
<event>
 6    1  0.1956957E-002  0.3000000E+03  0.7818608E-02  0.1093470E+00
          1   -1    0    0  502    0  0.00000000000E+00  0.00000000000E+00  0.41504036458E+01  0.41504036458E+01  0.00000000000E+00 0.  1.
         13   -1    0    0    0    0 -0.00000000000E+00 -0.00000000000E+00 -0.10000000000E+04  0.10000000000E+04  0.00000000000E+00 0.  1.
    9000005    2    1    2  501    0 -0.45487099732E+02 -0.17614300647E+01 -0.85307717675E+03  0.85429666603E+03  0.31536042277E+01 0.  0.
         13    1    3    3    0    0 -0.43541018183E+02 -0.14570057332E+01 -0.82588705365E+03  0.82703528856E+03  0.00000000000E+00 0.  1.
          1    1    3    3  501    0 -0.19460815485E+01 -0.30442433152E+00 -0.27190123105E+02  0.27261377479E+02  0.00000000000E+00 0.  1.
         21    1    1    2  502  501  0.45487099732E+02  0.17614300647E+01 -0.14277241960E+03  0.14985373761E+03  0.00000000000E+00 0.  1.
<mgrwt>
<rscale>  1 0.30000000E+03</rscale>
<asrwt>0</asrwt>
<pdfrwt beam="1">  1        1 0.15092409E-01 0.30000000E+03</pdfrwt>
<pdfrwt beam="2">0</pdfrwt>
<totfact> 0.43020354E+02</totfact>
</mgrwt>
</event>
<event>
 6    1  0.1956957E-002  0.3000000E+03  0.7818608E-02  0.1093470E+00
          3   -1    0    0  502    0  0.00000000000E+00  0.00000000000E+00  0.63268918785E+01  0.63268918785E+01  0.00000000000E+00 0.  1.
         13   -1    0    0    0    0 -0.00000000000E+00 -0.00000000000E+00 -0.10000000000E+04  0.10000000000E+04  0.00000000000E+00 0.  1.
    9000005    2    1    2  501    0  0.51746807066E+02  0.74956627657E+01 -0.87595005696E+03  0.87751449428E+03  0.30443998363E+01 0.  0.
         13    1    3    3    0    0  0.23242115662E+02  0.22784336690E+01 -0.40879241563E+03  0.40945894334E+03  0.00000000000E+00 0.  1.
          1    1    3    3  501    0  0.28504691404E+02  0.52172290967E+01 -0.46715764133E+03  0.46805555094E+03  0.00000000000E+00 0.  1.
         21    1    1    2  502  501 -0.51746807066E+02 -0.74956627657E+01 -0.11772305116E+03  0.12881239760E+03  0.00000000000E+00 0.  1.
<mgrwt>
<rscale>  1 0.30000000E+03</rscale>
<asrwt>0</asrwt>
<pdfrwt beam="1">  1        3 0.23006928E-01 0.30000000E+03</pdfrwt>
<pdfrwt beam="2">0</pdfrwt>
<totfact> 0.77163295E+01</totfact>
</mgrwt>
</event>
<event>
 6    1  0.1956957E-002  0.3000000E+03  0.7818608E-02  0.1093470E+00
          1   -1    0    0  502    0  0.00000000000E+00  0.00000000000E+00  0.43373677077E+01  0.43373677077E+01  0.00000000000E+00 0.  1.
         13   -1    0    0    0    0 -0.00000000000E+00 -0.00000000000E+00 -0.10000000000E+04  0.10000000000E+04  0.00000000000E+00 0.  1.
    9000005    2    1    2  501    0 -0.18626280989E+02  0.31575858256E+02 -0.91471093848E+03  0.91547145805E+03  0.69221645789E+01 0.  0.
         13    1    3    3    0    0 -0.10124805487E+02  0.19418038918E+02 -0.62112615120E+03  0.62151208164E+03  0.00000000000E+00 0.  1.
          1    1    3    3  501    0 -0.85014755025E+01  0.12157819339E+02 -0.29358478728E+03  0.29395937640E+03  0.00000000000E+00 0.  1.
         21    1    1    2  502  501  0.18626280989E+02 -0.31575858256E+02 -0.80951693816E+02  0.88865909660E+02  0.00000000000E+00 0.  1.
<mgrwt>
<rscale>  1 0.30000000E+03</rscale>
<asrwt>0</asrwt>
<pdfrwt beam="1">  1        1 0.15772279E-01 0.30000000E+03</pdfrwt>
<pdfrwt beam="2">0</pdfrwt>
<totfact> 0.40525290E+02</totfact>
</mgrwt>
</event>
<event>
 6    1  0.1956957E-002  0.3000000E+03  0.7818608E-02  0.1093470E+00
          3   -1    0    0  502    0  0.00000000000E+00  0.00000000000E+00  0.13120130131E+01  0.13120130131E+01  0.00000000000E+00 0.  1.
         13   -1    0    0    0    0 -0.00000000000E+00 -0.00000000000E+00 -0.10000000000E+04  0.10000000000E+04  0.00000000000E+00 0.  1.
    9000005    2    1    2  501    0  0.15128511602E+02 -0.32098103914E+02 -0.58874340696E+03  0.58983453023E+03  0.51781930413E+01 0.  0.
         13    1    3    3    0    0  0.98470066923E+01 -0.20254303360E+02 -0.41278070135E+03  0.41339461505E+03  0.00000000000E+00 0.  1.
          1    1    3    3  501    0  0.52815049096E+01 -0.11843800553E+02 -0.17596270560E+03  0.17643991518E+03  0.00000000000E+00 0.  1.
         21    1    1    2  502  501 -0.15128511602E+02  0.32098103914E+02 -0.40994458003E+03  0.41147748278E+03  0.00000000000E+00 0.  1.
<mgrwt>
<rscale>  1 0.30000000E+03</rscale>
<asrwt>0</asrwt>
<pdfrwt beam="1">  1        3 0.47709665E-02 0.30000000E+03</pdfrwt>
<pdfrwt beam="2">0</pdfrwt>
<totfact> 0.10636437E+03</totfact>
</mgrwt>
</event>
<event>
 6    1  0.1956957E-002  0.3000000E+03  0.7818608E-02  0.1093470E+00
          1   -1    0    0  502    0  0.00000000000E+00  0.00000000000E+00  0.17086896052E+01  0.17086896052E+01  0.00000000000E+00 0.  1.
         13   -1    0    0    0    0 -0.00000000000E+00 -0.00000000000E+00 -0.10000000000E+04  0.10000000000E+04  0.00000000000E+00 0.  1.
    9000005    2    1    2  501    0  0.34672193270E+02  0.14954337756E+02 -0.70178174054E+03  0.70280449388E+03  0.32790342121E+01 0.  0.
         13    1    3    3    0    0  0.33581424872E+02  0.13787481417E+02 -0.67389942967E+03  0.67487646873E+03  0.00000000000E+00 0.  1.
          1    1    3    3  501    0  0.10907683981E+01  0.11668563384E+01 -0.27882310868E+02  0.27928025150E+02  0.00000000000E+00 0.  1.
         21    1    1    2  502  501 -0.34672193270E+02 -0.14954337756E+02 -0.29650956985E+03  0.29890419572E+03  0.00000000000E+00 0.  1.
<mgrwt>
<rscale>  1 0.30000000E+03</rscale>
<asrwt>0</asrwt>
<pdfrwt beam="1">  1        1 0.62134298E-02 0.30000000E+03</pdfrwt>
<pdfrwt beam="2">0</pdfrwt>
<totfact> 0.14661844E+03</totfact>
</mgrwt>
</event>
<event>
 6    1  0.1956957E-002  0.3000000E+03  0.7818608E-02  0.1093470E+00
          3   -1    0    0  502    0  0.00000000000E+00  0.00000000000E+00  0.20724623356E+02  0.20724623356E+02  0.00000000000E+00 0.  1.
         13   -1    0    0    0    0 -0.00000000000E+00 -0.00000000000E+00 -0.10000000000E+04  0.10000000000E+04  0.00000000000E+00 0.  1.
    9000005    2    1    2  501    0  0.39456182762E+02  0.10307482134E+03 -0.81729342809E+03  0.82471605005E+03  0.26089188423E+01 0.  0.
         13    1    3    3    0    0  0.24841623353E+02  0.62000444604E+02 -0.48893044889E+03  0.49347152424E+03  0.00000000000E+00 0.  1.
          1    1    3    3  501    0  0.14614559409E+02  0.41074376737E+02 -0.32836297920E+03  0.33124452581E+03  0.00000000000E+00 0.  1.
         21    1    1    2  502  501 -0.39456182762E+02 -0.10307482134E+03 -0.16198194855E+03  0.19600857331E+03  0.00000000000E+00 0.  1.
<mgrwt>
<rscale>  1 0.30000000E+03</rscale>
<asrwt>0</asrwt>
<pdfrwt beam="1">  1        3 0.75362426E-01 0.30000000E+03</pdfrwt>
<pdfrwt beam="2">0</pdfrwt>
<totfact> 0.76284335E+00</totfact>
</mgrwt>
</event>
<event>
 6    1  0.1956957E-002  0.3000000E+03  0.7818608E-02  0.1093470E+00
          3   -1    0    0  502    0  0.00000000000E+00  0.00000000000E+00  0.11474407112E+02  0.11474407112E+02  0.00000000000E+00 0.  1.
         13   -1    0    0    0    0 -0.00000000000E+00 -0.00000000000E+00 -0.10000000000E+04  0.10000000000E+04  0.00000000000E+00 0.  1.
    9000005    2    1    2  501    0  0.75286080330E+02 -0.47736775741E+02 -0.77439550658E+03  0.77952939744E+03  0.55576266504E+01 0.  0.
         13    1    3    3    0    0  0.43483793178E+02 -0.24408973076E+02 -0.42633354269E+03  0.42923994206E+03  0.00000000000E+00 0.  1.
          3    1    3    3  501    0  0.31802287151E+02 -0.23327802665E+02 -0.34806196388E+03  0.35028945537E+03  0.00000000000E+00 0.  1.
         21    1    1    2  502  501 -0.75286080330E+02  0.47736775741E+02 -0.21413008631E+03  0.23194500968E+03  0.00000000000E+00 0.  1.
<mgrwt>
<rscale>  1 0.30000000E+03</rscale>
<asrwt>0</asrwt>
<pdfrwt beam="1">  1        3 0.41725205E-01 0.30000000E+03</pdfrwt>
<pdfrwt beam="2">0</pdfrwt>
<totfact> 0.24806257E+01</totfact>
</mgrwt>
</event>
<event>
 6    1  0.1956957E-002  0.3000000E+03  0.7818608E-02  0.1093470E+00
          1   -1    0    0  502    0  0.00000000000E+00  0.00000000000E+00  0.55615545644E+01  0.55615545644E+01  0.00000000000E+00 0.  1.
         13   -1    0    0    0    0 -0.00000000000E+00 -0.00000000000E+00 -0.10000000000E+04  0.10000000000E+04  0.00000000000E+00 0.  1.
    9000005    2    1    2  501    0  0.12718139103E+01 -0.33799050169E+02 -0.94527726962E+03  0.94588899378E+03  0.35887030955E+01 0.  0.
         13    1    3    3    0    0  0.21633588350E+01 -0.12113640394E+02 -0.34884212348E+03  0.34905908886E+03  0.00000000000E+00 0.  1.
          3    1    3    3  501    0 -0.89154492470E+00 -0.21685409775E+02 -0.59643514615E+03  0.59682990492E+03  0.00000000000E+00 0.  1.
         21    1    1    2  502  501 -0.12718139103E+01  0.33799050169E+02 -0.49161175812E+02  0.59672560781E+02  0.00000000000E+00 0.  1.
<mgrwt>
<rscale>  1 0.30000000E+03</rscale>
<asrwt>0</asrwt>
<pdfrwt beam="1">  1        1 0.20223877E-01 0.30000000E+03</pdfrwt>
<pdfrwt beam="2">0</pdfrwt>
<totfact> 0.29006700E+02</totfact>
</mgrwt>
</event>
<event>
 6    1  0.1956957E-002  0.3000000E+03  0.7818608E-02  0.1093470E+00
          1   -1    0    0  502    0  0.00000000000E+00  0.00000000000E+00  0.29191725522E+01  0.29191725522E+01  0.00000000000E+00 0.  1.
         13   -1    0    0    0    0 -0.00000000000E+00 -0.00000000000E+00 -0.10000000000E+04  0.10000000000E+04  0.00000000000E+00 0.  1.
    9000005    2    1    2  501    0 -0.25666347025E+02 -0.47486308766E+02 -0.50438392638E+03  0.50727419153E+03  0.32014548286E+01 0.  0.
         13    1    3    3    0    0 -0.21243744813E+02 -0.37467941088E+02 -0.41072800415E+03  0.41298018923E+03  0.00000000000E+00 0.  1.
          3    1    3    3  501    0 -0.44226022124E+01 -0.10018367677E+02 -0.93655922231E+02  0.94294002302E+02  0.00000000000E+00 0.  1.
         21    1    1    2  502  501  0.25666347025E+02  0.47486308766E+02 -0.49269690107E+03  0.49564498102E+03  0.00000000000E+00 0.  1.
<mgrwt>
<rscale>  1 0.30000000E+03</rscale>
<asrwt>0</asrwt>
<pdfrwt beam="1">  1        1 0.10615195E-01 0.30000000E+03</pdfrwt>
<pdfrwt beam="2">0</pdfrwt>
<totfact> 0.69603896E+02</totfact>
</mgrwt>
</event>
<event>
 6    1  0.1956957E-002  0.3000000E+03  0.7818608E-02  0.1093470E+00
          3   -1    0    0  502    0  0.00000000000E+00  0.00000000000E+00  0.25852541813E+01  0.25852541813E+01  0.00000000000E+00 0.  1.
         13   -1    0    0    0    0 -0.00000000000E+00 -0.00000000000E+00 -0.10000000000E+04  0.10000000000E+04  0.00000000000E+00 0.  1.
    9000005    2    1    2  501    0 -0.21988259237E+02  0.44252542419E+02 -0.61473965371E+03  0.61673295450E+03  0.35950324747E+01 0.  0.
         13    1    3    3    0    0 -0.84728879341E+01  0.20593057311E+02 -0.28702541764E+03  0.28788791952E+03  0.00000000000E+00 0.  1.
          1    1    3    3  501    0 -0.13515371302E+02  0.23659485109E+02 -0.32771423608E+03  0.32884503497E+03  0.00000000000E+00 0.  1.
         21    1    1    2  502  501  0.21988259237E+02 -0.44252542419E+02 -0.38267509210E+03  0.38585229968E+03  0.00000000000E+00 0.  1.
<mgrwt>
<rscale>  1 0.30000000E+03</rscale>
<asrwt>0</asrwt>
<pdfrwt beam="1">  1        3 0.94009441E-02 0.30000000E+03</pdfrwt>
<pdfrwt beam="2">0</pdfrwt>
<totfact> 0.36541453E+02</totfact>
</mgrwt>
</event>
<event>
 6    1  0.1956957E-002  0.3000000E+03  0.7818608E-02  0.1093470E+00
          1   -1    0    0  502    0  0.00000000000E+00  0.00000000000E+00  0.13781132749E+01  0.13781132749E+01  0.00000000000E+00 0.  1.
         13   -1    0    0    0    0 -0.00000000000E+00 -0.00000000000E+00 -0.10000000000E+04  0.10000000000E+04  0.00000000000E+00 0.  1.
    9000005    2    1    2  501    0  0.34196403579E+02  0.11475073105E+02 -0.61443111383E+03  0.61549779335E+03  0.32967661642E+01 0.  0.
         13    1    3    3    0    0  0.29919136582E+02  0.10420879616E+02 -0.55508288415E+03  0.55598629276E+03  0.00000000000E+00 0.  1.
          3    1    3    3  501    0  0.42772669965E+01  0.10541934887E+01 -0.59348229681E+02  0.59511500595E+02  0.00000000000E+00 0.  1.
         21    1    1    2  502  501 -0.34196403579E+02 -0.11475073105E+02 -0.38419077290E+03  0.38588031992E+03  0.00000000000E+00 0.  1.
<mgrwt>
<rscale>  1 0.30000000E+03</rscale>
<asrwt>0</asrwt>
<pdfrwt beam="1">  1        1 0.50113316E-02 0.30000000E+03</pdfrwt>
<pdfrwt beam="2">0</pdfrwt>
<totfact> 0.19828413E+03</totfact>
</mgrwt>
</event>
<event>
 6    1  0.1956957E-002  0.3000000E+03  0.7818608E-02  0.1093470E+00
          1   -1    0    0  502    0  0.00000000000E+00  0.00000000000E+00  0.57105979298E+01  0.57105979298E+01  0.00000000000E+00 0.  1.
         13   -1    0    0    0    0 -0.00000000000E+00 -0.00000000000E+00 -0.10000000000E+04  0.10000000000E+04  0.00000000000E+00 0.  1.
    9000005    2    1    2  501    0  0.24757544328E+02 -0.56771501969E+02 -0.20949397737E+03  0.21847505627E+03  0.27720420076E+01 0.  0.
         13    1    3    3    0    0  0.22881055027E+02 -0.53265657444E+02 -0.19378502456E+03  0.20227063228E+03  0.00000000000E+00 0.  1.
          3    1    3    3  501    0  0.18764893009E+01 -0.35058445243E+01 -0.15708952818E+02  0.16204423981E+02  0.00000000000E+00 0.  1.
         21    1    1    2  502  501 -0.24757544328E+02  0.56771501969E+02 -0.78479542470E+03  0.78723554166E+03  0.00000000000E+00 0.  1.
<mgrwt>
<rscale>  1 0.30000000E+03</rscale>
<asrwt>0</asrwt>
<pdfrwt beam="1">  1        1 0.20765854E-01 0.30000000E+03</pdfrwt>
<pdfrwt beam="2">0</pdfrwt>
<totfact> 0.28000659E+02</totfact>
</mgrwt>
</event>
<event>
 6    1  0.1956957E-002  0.3000000E+03  0.7818608E-02  0.1093470E+00
          1   -1    0    0  502    0  0.00000000000E+00  0.00000000000E+00  0.34714248925E+01  0.34714248925E+01  0.00000000000E+00 0.  1.
         13   -1    0    0    0    0 -0.00000000000E+00 -0.00000000000E+00 -0.10000000000E+04  0.10000000000E+04  0.00000000000E+00 0.  1.
    9000005    2    1    2  501    0 -0.55186490278E+02  0.14509296696E+02 -0.62012813006E+03  0.62277027775E+03  0.52775717478E+01 0.  0.
         13    1    3    3    0    0 -0.54545671499E+02  0.13696311864E+02 -0.60582773603E+03  0.60843246542E+03  0.00000000000E+00 0.  1.
          1    1    3    3  501    0 -0.64081877937E+00  0.81298483215E+00 -0.14300394026E+02  0.14337812328E+02  0.00000000000E+00 0.  1.
         21    1    1    2  502  501  0.55186490278E+02 -0.14509296696E+02 -0.37640044505E+03  0.38070114714E+03  0.00000000000E+00 0.  1.
<mgrwt>
<rscale>  1 0.30000000E+03</rscale>
<asrwt>0</asrwt>
<pdfrwt beam="1">  1        1 0.12623390E-01 0.30000000E+03</pdfrwt>
<pdfrwt beam="2">0</pdfrwt>
<totfact> 0.54875492E+02</totfact>
</mgrwt>
</event>
<event>
 6    1  0.1956957E-002  0.3000000E+03  0.7818608E-02  0.1093470E+00
          1   -1    0    0  502    0  0.00000000000E+00  0.00000000000E+00  0.16153661614E+01  0.16153661614E+01  0.00000000000E+00 0.  1.
         13   -1    0    0    0    0 -0.00000000000E+00 -0.00000000000E+00 -0.10000000000E+04  0.10000000000E+04  0.00000000000E+00 0.  1.
    9000005    2    1    2  501    0  0.39259347557E+02  0.62472627429E+01 -0.56487681329E+03  0.56628864387E+03  0.40852568302E+01 0.  0.
         13    1    3    3    0    0  0.28234528384E+02  0.28479674879E+01 -0.41388505417E+03  0.41485676754E+03  0.00000000000E+00 0.  1.
          1    1    3    3  501    0  0.11024819173E+02  0.33992952550E+01 -0.15099175912E+03  0.15143187633E+03  0.00000000000E+00 0.  1.
         21    1    1    2  502  501 -0.39259347557E+02 -0.62472627429E+01 -0.43350782055E+03  0.43532672229E+03  0.00000000000E+00 0.  1.
<mgrwt>
<rscale>  1 0.30000000E+03</rscale>
<asrwt>0</asrwt>
<pdfrwt beam="1">  1        1 0.58740712E-02 0.30000000E+03</pdfrwt>
<pdfrwt beam="2">0</pdfrwt>
<totfact> 0.15863630E+03</totfact>
</mgrwt>
</event>
<event>
 6    1  0.1956957E-002  0.3000000E+03  0.7818608E-02  0.1093470E+00
          1   -1    0    0  502    0  0.00000000000E+00  0.00000000000E+00  0.10289305392E+01  0.10289305392E+01  0.00000000000E+00 0.  1.
         13   -1    0    0    0    0 -0.00000000000E+00 -0.00000000000E+00 -0.10000000000E+04  0.10000000000E+04  0.00000000000E+00 0.  1.
    9000005    2    1    2  501    0 -0.27830990622E+02  0.15779358453E+02 -0.50023955701E+03  0.50127231608E+03  0.32815043140E+01 0.  0.
         13    1    3    3    0    0 -0.12967829849E+02  0.67870427996E+01 -0.25324959864E+03  0.25367220536E+03  0.00000000000E+00 0.  1.
          3    1    3    3  501    0 -0.14863160774E+02  0.89923156533E+01 -0.24698995838E+03  0.24760011072E+03  0.00000000000E+00 0.  1.
         21    1    1    2  502  501  0.27830990622E+02 -0.15779358453E+02 -0.49873151245E+03  0.49975661446E+03  0.00000000000E+00 0.  1.
<mgrwt>
<rscale>  1 0.30000000E+03</rscale>
<asrwt>0</asrwt>
<pdfrwt beam="1">  1        1 0.37415735E-02 0.30000000E+03</pdfrwt>
<pdfrwt beam="2">0</pdfrwt>
<totfact> 0.29913828E+03</totfact>
</mgrwt>
</event>
<event>
 6    1  0.1956957E-002  0.3000000E+03  0.7818608E-02  0.1093470E+00
          1   -1    0    0  502    0  0.00000000000E+00  0.00000000000E+00  0.17082442906E+01  0.17082442906E+01  0.00000000000E+00 0.  1.
         13   -1    0    0    0    0 -0.00000000000E+00 -0.00000000000E+00 -0.10000000000E+04  0.10000000000E+04  0.00000000000E+00 0.  1.
    9000005    2    1    2  501    0  0.31426950570E+02 -0.78186112738E+01 -0.80986558954E+03  0.81051932201E+03  0.32425809050E+01 0.  0.
         13    1    3    3    0    0  0.30597035602E+02 -0.79957409874E+01 -0.79583541174E+03  0.79646350390E+03  0.00000000000E+00 0.  1.
          3    1    3    3  501    0  0.82991496767E+00  0.17712971369E+00 -0.14030177799E+02  0.14055818114E+02  0.00000000000E+00 0.  1.
         21    1    1    2  502  501 -0.31426950570E+02  0.78186112738E+01 -0.18842616617E+03  0.19118892228E+03  0.00000000000E+00 0.  1.
<mgrwt>
<rscale>  1 0.30000000E+03</rscale>
<asrwt>0</asrwt>
<pdfrwt beam="1">  1        1 0.62118105E-02 0.30000000E+03</pdfrwt>
<pdfrwt beam="2">0</pdfrwt>
<totfact> 0.14667203E+03</totfact>
</mgrwt>
</event>
<event>
 6    1  0.1956957E-002  0.3000000E+03  0.7818608E-02  0.1093470E+00
          1   -1    0    0  502    0  0.00000000000E+00  0.00000000000E+00  0.15634408516E+01  0.15634408516E+01  0.00000000000E+00 0.  1.
         13   -1    0    0    0    0 -0.00000000000E+00 -0.00000000000E+00 -0.10000000000E+04  0.10000000000E+04  0.00000000000E+00 0.  1.
    9000005    2    1    2  501    0  0.31329472227E+02  0.15900014080E+02 -0.27160642670E+03  0.27388467401E+03  0.29012678125E+01 0.  0.
         13    1    3    3    0    0  0.30017105667E+02  0.14779683723E+02 -0.25407993864E+03  0.25627344947E+03  0.00000000000E+00 0.  1.
          1    1    3    3  501    0  0.13123665594E+01  0.11203303572E+01 -0.17526488062E+02  0.17611224542E+02  0.00000000000E+00 0.  1.
         21    1    1    2  502  501 -0.31329472227E+02 -0.15900014080E+02 -0.72683013245E+03  0.72767876684E+03  0.00000000000E+00 0.  1.
<mgrwt>
<rscale>  1 0.30000000E+03</rscale>
<asrwt>0</asrwt>
<pdfrwt beam="1">  1        1 0.56852514E-02 0.30000000E+03</pdfrwt>
<pdfrwt beam="2">0</pdfrwt>
<totfact> 0.16608084E+03</totfact>
</mgrwt>
</event>
<event>
 6    1  0.1956957E-002  0.3000000E+03  0.7818608E-02  0.1093470E+00
          1   -1    0    0  502    0  0.00000000000E+00  0.00000000000E+00  0.33215582067E+01  0.33215582067E+01  0.00000000000E+00 0.  1.
         13   -1    0    0    0    0 -0.00000000000E+00 -0.00000000000E+00 -0.10000000000E+04  0.10000000000E+04  0.00000000000E+00 0.  1.
    9000005    2    1    2  501    0 -0.66688664847E+01  0.42155810753E+02 -0.83525537738E+03  0.83635152532E+03  0.32775430041E+01 0.  0.
         13    1    3    3    0    0 -0.10284476723E+01  0.16367673616E+02 -0.31225179428E+03  0.31268217326E+03  0.00000000000E+00 0.  1.
          1    1    3    3  501    0 -0.56404188124E+01  0.25788137137E+02 -0.52300358311E+03  0.52366935206E+03  0.00000000000E+00 0.  1.
         21    1    1    2  502  501  0.66688664847E+01 -0.42155810753E+02 -0.16142306441E+03  0.16697003289E+03  0.00000000000E+00 0.  1.
<mgrwt>
<rscale>  1 0.30000000E+03</rscale>
<asrwt>0</asrwt>
<pdfrwt beam="1">  1        1 0.12078419E-01 0.30000000E+03</pdfrwt>
<pdfrwt beam="2">0</pdfrwt>
<totfact> 0.58294457E+02</totfact>
</mgrwt>
</event>
<event>
 6    1  0.1956957E-002  0.3000000E+03  0.7818608E-02  0.1093470E+00
          3   -1    0    0  502    0  0.00000000000E+00  0.00000000000E+00  0.42123994571E+01  0.42123994571E+01  0.00000000000E+00 0.  1.
         13   -1    0    0    0    0 -0.00000000000E+00 -0.00000000000E+00 -0.10000000000E+04  0.10000000000E+04  0.00000000000E+00 0.  1.
    9000005    2    1    2  501    0 -0.29161508524E+02  0.13734444983E+02 -0.93363967309E+03  0.93420244698E+03  0.34848569113E+01 0.  0.
         13    1    3    3    0    0 -0.21369358994E+02  0.11245266144E+02 -0.72701509452E+03  0.72741601108E+03  0.00000000000E+00 0.  1.
          1    1    3    3  501    0 -0.77921495307E+01  0.24891788387E+01 -0.20662457857E+03  0.20678643591E+03  0.00000000000E+00 0.  1.
         21    1    1    2  502  501  0.29161508524E+02 -0.13734444983E+02 -0.62147927453E+02  0.70009952472E+02  0.00000000000E+00 0.  1.
<mgrwt>
<rscale>  1 0.30000000E+03</rscale>
<asrwt>0</asrwt>
<pdfrwt beam="1">  1        3 0.15317849E-01 0.30000000E+03</pdfrwt>
<pdfrwt beam="2">0</pdfrwt>
<totfact> 0.16049481E+02</totfact>
</mgrwt>
</event>
<event>
 6    1  0.1956957E-002  0.3000000E+03  0.7818608E-02  0.1093470E+00
          3   -1    0    0  502    0  0.00000000000E+00  0.00000000000E+00  0.15295787340E+01  0.15295787340E+01  0.00000000000E+00 0.  1.
         13   -1    0    0    0    0 -0.00000000000E+00 -0.00000000000E+00 -0.10000000000E+04  0.10000000000E+04  0.00000000000E+00 0.  1.
    9000005    2    1    2  501    0 -0.35586953927E+02  0.24567427482E+01 -0.70301718998E+03  0.70393072331E+03  0.35814706485E+01 0.  0.
         13    1    3    3    0    0 -0.29241371789E+02  0.12981425022E+01 -0.55130934708E+03  0.55208580780E+03  0.00000000000E+00 0.  1.
          3    1    3    3  501    0 -0.63455821383E+01  0.11586002460E+01 -0.15170784290E+03  0.15184491550E+03  0.00000000000E+00 0.  1.
         21    1    1    2  502  501  0.35586953927E+02 -0.24567427482E+01 -0.29545323128E+03  0.29759885543E+03  0.00000000000E+00 0.  1.
<mgrwt>
<rscale>  1 0.30000000E+03</rscale>
<asrwt>0</asrwt>
<pdfrwt beam="1">  1        3 0.55621162E-02 0.30000000E+03</pdfrwt>
<pdfrwt beam="2">0</pdfrwt>
<totfact> 0.83906094E+02</totfact>
</mgrwt>
</event>
<event>
 6    1  0.1956957E-002  0.3000000E+03  0.7818608E-02  0.1093470E+00
          1   -1    0    0  502    0  0.00000000000E+00  0.00000000000E+00  0.12710347683E+02  0.12710347683E+02  0.00000000000E+00 0.  1.
         13   -1    0    0    0    0 -0.00000000000E+00 -0.00000000000E+00 -0.10000000000E+04  0.10000000000E+04  0.00000000000E+00 0.  1.
    9000005    2    1    2  501    0 -0.12965019129E+02 -0.57040661605E+02 -0.92643262661E+03  0.92829881781E+03  0.62892529642E+01 0.  0.
         13    1    3    3    0    0 -0.20892833383E+01 -0.39061083060E+01 -0.53592495459E+02  0.53775257847E+02  0.00000000000E+00 0.  1.
          3    1    3    3  501    0 -0.10875735790E+02 -0.53134553299E+02 -0.87284013115E+03  0.87452355997E+03  0.00000000000E+00 0.  1.
         21    1    1    2  502  501  0.12965019129E+02  0.57040661605E+02 -0.60857025704E+02  0.84411529869E+02  0.00000000000E+00 0.  1.
<mgrwt>
<rscale>  1 0.30000000E+03</rscale>
<asrwt>0</asrwt>
<pdfrwt beam="1">  1        1 0.46219544E-01 0.30000000E+03</pdfrwt>
<pdfrwt beam="2">0</pdfrwt>
<totfact> 0.97834274E+01</totfact>
</mgrwt>
</event>
<event>
 6    1  0.1956957E-002  0.3000000E+03  0.7818608E-02  0.1093470E+00
          3   -1    0    0  502    0  0.00000000000E+00  0.00000000000E+00  0.39221630387E+01  0.39221630387E+01  0.00000000000E+00 0.  1.
         13   -1    0    0    0    0 -0.00000000000E+00 -0.00000000000E+00 -0.10000000000E+04  0.10000000000E+04  0.00000000000E+00 0.  1.
    9000005    2    1    2  501    0 -0.19905032661E+02  0.47505430177E+02 -0.78332701479E+03  0.78502518143E+03  0.32167005691E+01 0.  0.
         13    1    3    3    0    0 -0.18508289559E+02  0.44757251980E+02 -0.72407937096E+03  0.72569739137E+03  0.00000000000E+00 0.  1.
          1    1    3    3  501    0 -0.13967431027E+01  0.27481781972E+01 -0.59247643827E+02  0.59327790063E+02  0.00000000000E+00 0.  1.
         21    1    1    2  502  501  0.19905032661E+02 -0.47505430177E+02 -0.21275082218E+03  0.21889698161E+03  0.00000000000E+00 0.  1.
<mgrwt>
<rscale>  1 0.30000000E+03</rscale>
<asrwt>0</asrwt>
<pdfrwt beam="1">  1        3 0.14262441E-01 0.30000000E+03</pdfrwt>
<pdfrwt beam="2">0</pdfrwt>
<totfact> 0.18157798E+02</totfact>
</mgrwt>
</event>
<event>
 6    1  0.1956957E-002  0.3000000E+03  0.7818608E-02  0.1093470E+00
          3   -1    0    0  502    0  0.00000000000E+00  0.00000000000E+00  0.10357085763E+01  0.10357085763E+01  0.00000000000E+00 0.  1.
         13   -1    0    0    0    0 -0.00000000000E+00 -0.00000000000E+00 -0.10000000000E+04  0.10000000000E+04  0.00000000000E+00 0.  1.
    9000005    2    1    2  501    0  0.99633029670E+01 -0.30062694783E+02 -0.58162895860E+03  0.58250038982E+03  0.33801825802E+01 0.  0.
         13    1    3    3    0    0  0.36763634541E+01 -0.84737733128E+01 -0.19404753461E+03  0.19426725450E+03  0.00000000000E+00 0.  1.
          3    1    3    3  501    0  0.62869395130E+01 -0.21588921471E+02 -0.38758142399E+03  0.38823313532E+03  0.00000000000E+00 0.  1.
         21    1    1    2  502  501 -0.99633029670E+01  0.30062694783E+02 -0.41733533283E+03  0.41853531876E+03  0.00000000000E+00 0.  1.
<mgrwt>
<rscale>  1 0.30000000E+03</rscale>
<asrwt>0</asrwt>
<pdfrwt beam="1">  1        3 0.37662209E-02 0.30000000E+03</pdfrwt>
<pdfrwt beam="2">0</pdfrwt>
<totfact> 0.15305870E+03</totfact>
</mgrwt>
</event>
<event>
 6    1  0.1956957E-002  0.3000000E+03  0.7818608E-02  0.1093470E+00
          3   -1    0    0  502    0  0.00000000000E+00  0.00000000000E+00  0.46566095584E+01  0.46566095584E+01  0.00000000000E+00 0.  1.
         13   -1    0    0    0    0 -0.00000000000E+00 -0.00000000000E+00 -0.10000000000E+04  0.10000000000E+04  0.00000000000E+00 0.  1.
    9000005    2    1    2  501    0  0.59605387203E+02  0.28935861776E+02 -0.61695562458E+03  0.62051160096E+03  0.32121549862E+01 0.  0.
         13    1    3    3    0    0  0.16837905246E+02  0.85233875633E+01 -0.18925728497E+03  0.19019590717E+03  0.00000000000E+00 0.  1.
          3    1    3    3  501    0  0.42767481957E+02  0.20412474213E+02 -0.42769833961E+03  0.43031569379E+03  0.00000000000E+00 0.  1.
         21    1    1    2  502  501 -0.59605387203E+02 -0.28935861776E+02 -0.37838776586E+03  0.38414500860E+03  0.00000000000E+00 0.  1.
<mgrwt>
<rscale>  1 0.30000000E+03</rscale>
<asrwt>0</asrwt>
<pdfrwt beam="1">  1        3 0.16933161E-01 0.30000000E+03</pdfrwt>
<pdfrwt beam="2">0</pdfrwt>
<totfact> 0.13464316E+02</totfact>
</mgrwt>
</event>
<event>
 6    1  0.1956957E-002  0.3000000E+03  0.7818608E-02  0.1093470E+00
          3   -1    0    0  502    0  0.00000000000E+00  0.00000000000E+00  0.20483095632E+01  0.20483095632E+01  0.00000000000E+00 0.  1.
         13   -1    0    0    0    0 -0.00000000000E+00 -0.00000000000E+00 -0.10000000000E+04  0.10000000000E+04  0.00000000000E+00 0.  1.
    9000005    2    1    2  501    0  0.32706652293E+02 -0.23496794934E+02 -0.72677704652E+03  0.72789960543E+03  0.33370279288E+01 0.  0.
         13    1    3    3    0    0  0.32162527583E+02 -0.22489323765E+02 -0.70961248061E+03  0.71069689073E+03  0.00000000000E+00 0.  1.
          1    1    3    3  501    0  0.54412471088E+00 -0.10074711683E+01 -0.17164565912E+02  0.17202714693E+02  0.00000000000E+00 0.  1.
         21    1    1    2  502  501 -0.32706652293E+02  0.23496794934E+02 -0.27117464392E+03  0.27414870414E+03  0.00000000000E+00 0.  1.
<mgrwt>
<rscale>  1 0.30000000E+03</rscale>
<asrwt>0</asrwt>
<pdfrwt beam="1">  1        3 0.74484141E-02 0.30000000E+03</pdfrwt>
<pdfrwt beam="2">0</pdfrwt>
<totfact> 0.53097536E+02</totfact>
</mgrwt>
</event>
<event>
 6    1  0.1956957E-002  0.3000000E+03  0.7818608E-02  0.1093470E+00
          3   -1    0    0  502    0  0.00000000000E+00  0.00000000000E+00  0.41023275161E+01  0.41023275161E+01  0.00000000000E+00 0.  1.
         13   -1    0    0    0    0 -0.00000000000E+00 -0.00000000000E+00 -0.10000000000E+04  0.10000000000E+04  0.00000000000E+00 0.  1.
    9000005    2    1    2  501    0  0.30843326874E+02  0.55384369084E+02 -0.56764229854E+03  0.57118038944E+03  0.32433074486E+01 0.  0.
         13    1    3    3    0    0  0.13122334912E+02  0.26512563256E+02 -0.27135228252E+03  0.27296002072E+03  0.00000000000E+00 0.  1.
          1    1    3    3  501    0  0.17720991962E+02  0.28871805828E+02 -0.29629001602E+03  0.29822036872E+03  0.00000000000E+00 0.  1.
         21    1    1    2  502  501 -0.30843326874E+02 -0.55384369084E+02 -0.42825537395E+03  0.43292193808E+03  0.00000000000E+00 0.  1.
<mgrwt>
<rscale>  1 0.30000000E+03</rscale>
<asrwt>0</asrwt>
<pdfrwt beam="1">  1        3 0.14917586E-01 0.30000000E+03</pdfrwt>
<pdfrwt beam="2">0</pdfrwt>
<totfact> 0.16803883E+02</totfact>
</mgrwt>
</event>
<event>
 6    1  0.1956957E-002  0.3000000E+03  0.7818608E-02  0.1093470E+00
          3   -1    0    0  502    0  0.00000000000E+00  0.00000000000E+00  0.52744099913E+01  0.52744099913E+01  0.00000000000E+00 0.  1.
         13   -1    0    0    0    0 -0.00000000000E+00 -0.00000000000E+00 -0.10000000000E+04  0.10000000000E+04  0.00000000000E+00 0.  1.
    9000005    2    1    2  501    0 -0.48676905175E+02  0.27599618581E+02 -0.81692421486E+03  0.81887561963E+03  0.78056106131E+01 0.  0.
         13    1    3    3    0    0 -0.21726914314E+02  0.10852337878E+02 -0.40804504496E+03  0.40876715959E+03  0.00000000000E+00 0.  1.
          3    1    3    3  501    0 -0.26949990861E+02  0.16747280703E+02 -0.40887916989E+03  0.41010846003E+03  0.00000000000E+00 0.  1.
         21    1    1    2  502  501  0.48676905175E+02 -0.27599618581E+02 -0.17780137515E+03  0.18639879036E+03  0.00000000000E+00 0.  1.
<mgrwt>
<rscale>  1 0.30000000E+03</rscale>
<asrwt>0</asrwt>
<pdfrwt beam="1">  1        3 0.19179713E-01 0.30000000E+03</pdfrwt>
<pdfrwt beam="2">0</pdfrwt>
<totfact> 0.10782108E+02</totfact>
</mgrwt>
</event>
<event>
 6    1  0.1956957E-002  0.3000000E+03  0.7818608E-02  0.1093470E+00
          1   -1    0    0  502    0  0.00000000000E+00  0.00000000000E+00  0.32248114617E+01  0.32248114617E+01  0.00000000000E+00 0.  1.
         13   -1    0    0    0    0 -0.00000000000E+00 -0.00000000000E+00 -0.10000000000E+04  0.10000000000E+04  0.00000000000E+00 0.  1.
    9000005    2    1    2  501    0 -0.61479265715E+00 -0.30818698869E+02 -0.91957710674E+03  0.92010012197E+03  0.34654055936E+01 0.  0.
         13    1    3    3    0    0 -0.15159446698E+01 -0.76332616337E+01 -0.25007177420E+03  0.25019283967E+03  0.00000000000E+00 0.  1.
          3    1    3    3  501    0  0.90115201269E+00 -0.23185437235E+02 -0.66950533254E+03  0.66990728230E+03  0.00000000000E+00 0.  1.
         21    1    1    2  502  501  0.61479265715E+00  0.30818698869E+02 -0.77198081794E+02  0.83124689489E+02  0.00000000000E+00 0.  1.
<mgrwt>
<rscale>  1 0.30000000E+03</rscale>
<asrwt>0</asrwt>
<pdfrwt beam="1">  1        1 0.11726612E-01 0.30000000E+03</pdfrwt>
<pdfrwt beam="2">0</pdfrwt>
<totfact> 0.60705499E+02</totfact>
</mgrwt>
</event>
<event>
 6    1  0.1956957E-002  0.3000000E+03  0.7818608E-02  0.1093470E+00
          3   -1    0    0  502    0  0.00000000000E+00  0.00000000000E+00  0.10985855761E+01  0.10985855761E+01  0.00000000000E+00 0.  1.
         13   -1    0    0    0    0 -0.00000000000E+00 -0.00000000000E+00 -0.10000000000E+04  0.10000000000E+04  0.00000000000E+00 0.  1.
    9000005    2    1    2  501    0 -0.94540075473E+01 -0.28853011092E+02 -0.69743725776E+03  0.69810929161E+03  0.39975000107E+01 0.  0.
         13    1    3    3    0    0 -0.47196096598E+01 -0.12447383878E+02 -0.26316954961E+03  0.26350602255E+03  0.00000000000E+00 0.  1.
          1    1    3    3  501    0 -0.47343978875E+01 -0.16405627214E+02 -0.43426770816E+03  0.43460326906E+03  0.00000000000E+00 0.  1.
         21    1    1    2  502  501  0.94540075473E+01  0.28853011092E+02 -0.30146415666E+03  0.30298929397E+03  0.00000000000E+00 0.  1.
<mgrwt>
<rscale>  1 0.30000000E+03</rscale>
<asrwt>0</asrwt>
<pdfrwt beam="1">  1        3 0.39948651E-02 0.30000000E+03</pdfrwt>
<pdfrwt beam="2">0</pdfrwt>
<totfact> 0.13980216E+03</totfact>
</mgrwt>
</event>
<event>
 6    1  0.1956957E-002  0.3000000E+03  0.7818608E-02  0.1093470E+00
          1   -1    0    0  502    0  0.00000000000E+00  0.00000000000E+00  0.52676090744E+01  0.52676090744E+01  0.00000000000E+00 0.  1.
         13   -1    0    0    0    0 -0.00000000000E+00 -0.00000000000E+00 -0.10000000000E+04  0.10000000000E+04  0.00000000000E+00 0.  1.
    9000005    2    1    2  501    0 -0.84157137120E+01  0.63191963841E+02 -0.25940051379E+03  0.26717749394E+03  0.55801595663E+01 0.  0.
         13    1    3    3    0    0 -0.47009373176E+00  0.67780983895E+00 -0.17840766820E+01  0.19655390868E+01  0.00000000000E+00 0.  1.
          1    1    3    3  501    0 -0.79456199803E+01  0.62514154002E+02 -0.25761643711E+03  0.26521195485E+03  0.00000000000E+00 0.  1.
         21    1    1    2  502  501  0.84157137120E+01 -0.63191963841E+02 -0.73533187713E+03  0.73809011514E+03  0.00000000000E+00 0.  1.
<mgrwt>
<rscale>  1 0.30000000E+03</rscale>
<asrwt>0</asrwt>
<pdfrwt beam="1">  1        1 0.19154982E-01 0.30000000E+03</pdfrwt>
<pdfrwt beam="2">0</pdfrwt>
<totfact> 0.31193276E+02</totfact>
</mgrwt>
</event>
<event>
 6    1  0.1956957E-002  0.3000000E+03  0.7818608E-02  0.1093470E+00
          3   -1    0    0  502    0  0.00000000000E+00  0.00000000000E+00  0.12769585419E+01  0.12769585419E+01  0.00000000000E+00 0.  1.
         13   -1    0    0    0    0 -0.00000000000E+00 -0.00000000000E+00 -0.10000000000E+04  0.10000000000E+04  0.00000000000E+00 0.  1.
    9000005    2    1    2  501    0  0.32871860635E+02 -0.10267593065E+02 -0.37236032805E+03  0.37396823755E+03  0.37478125781E+01 0.  0.
         13    1    3    3    0    0  0.17248123258E+02 -0.34850407477E+01 -0.18422922033E+03  0.18506768732E+03  0.00000000000E+00 0.  1.
          1    1    3    3  501    0  0.15623737377E+02 -0.67825523175E+01 -0.18813110772E+03  0.18890055023E+03  0.00000000000E+00 0.  1.
         21    1    1    2  502  501 -0.32871860635E+02  0.10267593065E+02 -0.62636271341E+03  0.62730872100E+03  0.00000000000E+00 0.  1.
<mgrwt>
<rscale>  1 0.30000000E+03</rscale>
<asrwt>0</asrwt>
<pdfrwt beam="1">  1        3 0.46434954E-02 0.30000000E+03</pdfrwt>
<pdfrwt beam="2">0</pdfrwt>
<totfact> 0.11090373E+03</totfact>
</mgrwt>
</event>
<event>
 6    1  0.1956957E-002  0.3000000E+03  0.7818608E-02  0.1093470E+00
          3   -1    0    0  502    0  0.00000000000E+00  0.00000000000E+00  0.98000439268E+00  0.98000439268E+00  0.00000000000E+00 0.  1.
         13   -1    0    0    0    0 -0.00000000000E+00 -0.00000000000E+00 -0.10000000000E+04  0.10000000000E+04  0.00000000000E+00 0.  1.
    9000005    2    1    2  501    0  0.31172793620E+02 -0.39487910532E+00 -0.50128841729E+03  0.50227305333E+03  0.40303589348E+01 0.  0.
         13    1    3    3    0    0  0.17020327184E+02  0.16843281464E+01 -0.26259944969E+03  0.26315584637E+03  0.00000000000E+00 0.  1.
          1    1    3    3  501    0  0.14152466435E+02 -0.20792072517E+01 -0.23868896760E+03  0.23911720696E+03  0.00000000000E+00 0.  1.
         21    1    1    2  502  501 -0.31172793620E+02  0.39487910532E+00 -0.49773157831E+03  0.49870695107E+03  0.00000000000E+00 0.  1.
<mgrwt>
<rscale>  1 0.30000000E+03</rscale>
<asrwt>0</asrwt>
<pdfrwt beam="1">  1        3 0.35636599E-02 0.30000000E+03</pdfrwt>
<pdfrwt beam="2">0</pdfrwt>
<totfact> 0.16667079E+03</totfact>
</mgrwt>
</event>
<event>
 6    1  0.1956957E-002  0.3000000E+03  0.7818608E-02  0.1093470E+00
          1   -1    0    0  502    0  0.00000000000E+00  0.00000000000E+00  0.46198928272E+01  0.46198928272E+01  0.00000000000E+00 0.  1.
         13   -1    0    0    0    0 -0.00000000000E+00 -0.00000000000E+00 -0.10000000000E+04  0.10000000000E+04  0.00000000000E+00 0.  1.
    9000005    2    1    2  501    0  0.27949804386E+02 -0.41987187480E+02 -0.83425526409E+03  0.83578467572E+03  0.31722273215E+01 0.  0.
         13    1    3    3    0    0  0.21916881234E+02 -0.35046936179E+02 -0.68787151956E+03  0.68911237461E+03  0.00000000000E+00 0.  1.
          3    1    3    3  501    0  0.60329231515E+01 -0.69402513009E+01 -0.14638374454E+03  0.14667230112E+03  0.00000000000E+00 0.  1.
         21    1    1    2  502  501 -0.27949804386E+02  0.41987187480E+02 -0.16112484308E+03  0.16883521711E+03  0.00000000000E+00 0.  1.
<mgrwt>
<rscale>  1 0.30000000E+03</rscale>
<asrwt>0</asrwt>
<pdfrwt beam="1">  1        1 0.16799646E-01 0.30000000E+03</pdfrwt>
<pdfrwt beam="2">0</pdfrwt>
<totfact> 0.37211310E+02</totfact>
</mgrwt>
</event>
<event>
 6    1  0.1956957E-002  0.3000000E+03  0.7818608E-02  0.1093470E+00
          1   -1    0    0  502    0  0.00000000000E+00  0.00000000000E+00  0.13268048260E+01  0.13268048260E+01  0.00000000000E+00 0.  1.
         13   -1    0    0    0    0 -0.00000000000E+00 -0.00000000000E+00 -0.10000000000E+04  0.10000000000E+04  0.00000000000E+00 0.  1.
    9000005    2    1    2  501    0 -0.26599944995E+02 -0.16943703973E+02 -0.74844508650E+03  0.74911904810E+03  0.38281267513E+01 0.  0.
         13    1    3    3    0    0 -0.19803870910E+02 -0.10845067219E+02 -0.51160981347E+03  0.51210781093E+03  0.00000000000E+00 0.  1.
          3    1    3    3  501    0 -0.67960740850E+01 -0.60986367534E+01 -0.23683527303E+03  0.23701123717E+03  0.00000000000E+00 0.  1.
         21    1    1    2  502  501  0.26599944995E+02  0.16943703973E+02 -0.25022810868E+03  0.25220775672E+03  0.00000000000E+00 0.  1.
<mgrwt>
<rscale>  1 0.30000000E+03</rscale>
<asrwt>0</asrwt>
<pdfrwt beam="1">  1        1 0.48247550E-02 0.30000000E+03</pdfrwt>
<pdfrwt beam="2">0</pdfrwt>
<totfact> 0.20914771E+03</totfact>
</mgrwt>
</event>
<event>
 6    1  0.1956957E-002  0.3000000E+03  0.7818608E-02  0.1093470E+00
          1   -1    0    0  502    0  0.00000000000E+00  0.00000000000E+00  0.96418988245E+01  0.96418988245E+01  0.00000000000E+00 0.  1.
         13   -1    0    0    0    0 -0.00000000000E+00 -0.00000000000E+00 -0.10000000000E+04  0.10000000000E+04  0.00000000000E+00 0.  1.
    9000005    2    1    2  501    0 -0.33560656432E+02  0.17870756124E+02 -0.96060371533E+03  0.96136141559E+03  0.32545182667E+01 0.  0.
         13    1    3    3    0    0 -0.24191420702E+02  0.12737776371E+02 -0.72593271500E+03  0.72644737076E+03  0.00000000000E+00 0.  1.
          1    1    3    3  501    0 -0.93692357295E+01  0.51329797532E+01 -0.23467100033E+03  0.23491404482E+03  0.00000000000E+00 0.  1.
         21    1    1    2  502  501  0.33560656432E+02 -0.17870756124E+02 -0.29754385845E+02  0.48280483237E+02  0.00000000000E+00 0.  1.
<mgrwt>
<rscale>  1 0.30000000E+03</rscale>
<asrwt>0</asrwt>
<pdfrwt beam="1">  1        1 0.35061524E-01 0.30000000E+03</pdfrwt>
<pdfrwt beam="2">0</pdfrwt>
<totfact> 0.14039932E+02</totfact>
</mgrwt>
</event>
<event>
 6    1  0.1956957E-002  0.3000000E+03  0.7818608E-02  0.1093470E+00
          1   -1    0    0  502    0  0.00000000000E+00  0.00000000000E+00  0.15105334567E+01  0.15105334567E+01  0.00000000000E+00 0.  1.
         13   -1    0    0    0    0 -0.00000000000E+00 -0.00000000000E+00 -0.10000000000E+04  0.10000000000E+04  0.00000000000E+00 0.  1.
    9000005    2    1    2  501    0 -0.31387812769E+02 -0.21960938590E+02 -0.57914160964E+03  0.58041659773E+03  0.33083671121E+01 0.  0.
         13    1    3    3    0    0 -0.38553992020E+01 -0.36911790467E+01 -0.93447761938E+02  0.93600070070E+02  0.00000000000E+00 0.  1.
          3    1    3    3  501    0 -0.27532413567E+02 -0.18269759543E+02 -0.48569384770E+03  0.48681652766E+03  0.00000000000E+00 0.  1.
         21    1    1    2  502  501  0.31387812769E+02  0.21960938590E+02 -0.41934785691E+03  0.42109393573E+03  0.00000000000E+00 0.  1.
<mgrwt>
<rscale>  1 0.30000000E+03</rscale>
<asrwt>0</asrwt>
<pdfrwt beam="1">  1        1 0.54928605E-02 0.30000000E+03</pdfrwt>
<pdfrwt beam="2">0</pdfrwt>
<totfact> 0.17430554E+03</totfact>
</mgrwt>
</event>
<event>
 6    1  0.1956957E-002  0.3000000E+03  0.7818608E-02  0.1093470E+00
          1   -1    0    0  502    0  0.00000000000E+00  0.00000000000E+00  0.65661707543E+01  0.65661707543E+01  0.00000000000E+00 0.  1.
         13   -1    0    0    0    0 -0.00000000000E+00 -0.00000000000E+00 -0.10000000000E+04  0.10000000000E+04  0.00000000000E+00 0.  1.
    9000005    2    1    2  501    0  0.40339815648E+01 -0.53271243444E+02 -0.87482960607E+03  0.87648519544E+03  0.67349663452E+01 0.  0.
         13    1    3    3    0    0  0.59438015550E+00 -0.21934361248E+00 -0.69512756545E+01  0.69800882956E+01  0.00000000000E+00 0.  1.
          3    1    3    3  501    0  0.34396014093E+01 -0.53051899831E+02 -0.86787833042E+03  0.86950510714E+03  0.00000000000E+00 0.  1.
         21    1    1    2  502  501 -0.40339815648E+01  0.53271243444E+02 -0.11860422317E+03  0.13008097532E+03  0.00000000000E+00 0.  1.
<mgrwt>
<rscale>  1 0.30000000E+03</rscale>
<asrwt>0</asrwt>
<pdfrwt beam="1">  1        1 0.23877035E-01 0.30000000E+03</pdfrwt>
<pdfrwt beam="2">0</pdfrwt>
<totfact> 0.23264913E+02</totfact>
</mgrwt>
</event>
<event>
 6    1  0.1956957E-002  0.3000000E+03  0.7818608E-02  0.1093470E+00
          1   -1    0    0  502    0  0.00000000000E+00  0.00000000000E+00  0.24632777566E+01  0.24632777566E+01  0.00000000000E+00 0.  1.
         13   -1    0    0    0    0 -0.00000000000E+00 -0.00000000000E+00 -0.10000000000E+04  0.10000000000E+04  0.00000000000E+00 0.  1.
    9000005    2    1    2  501    0  0.39460448075E+02  0.16988400683E+02 -0.74910241706E+03  0.75034160730E+03  0.35162033197E+01 0.  0.
         13    1    3    3    0    0  0.13315717791E+02  0.58590185634E+01 -0.22555049776E+03  0.22601916617E+03  0.00000000000E+00 0.  1.
          1    1    3    3  501    0  0.26144730284E+02  0.11129382120E+02 -0.52355191930E+03  0.52432244113E+03  0.00000000000E+00 0.  1.
         21    1    1    2  502  501 -0.39460448075E+02 -0.16988400683E+02 -0.24843430519E+03  0.25212167046E+03  0.00000000000E+00 0.  1.
<mgrwt>
<rscale>  1 0.30000000E+03</rscale>
<asrwt>0</asrwt>
<pdfrwt beam="1">  1        1 0.89573925E-02 0.30000000E+03</pdfrwt>
<pdfrwt beam="2">0</pdfrwt>
<totfact> 0.88014785E+02</totfact>
</mgrwt>
</event>
<event>
 6    1  0.1956957E-002  0.3000000E+03  0.7818608E-02  0.1093470E+00
          1   -1    0    0  502    0  0.00000000000E+00  0.00000000000E+00  0.14237817462E+01  0.14237817462E+01  0.00000000000E+00 0.  1.
         13   -1    0    0    0    0 -0.00000000000E+00 -0.00000000000E+00 -0.10000000000E+04  0.10000000000E+04  0.00000000000E+00 0.  1.
    9000005    2    1    2  501    0  0.24599225194E+02 -0.19838089396E+02 -0.22823431889E+03  0.23043395459E+03  0.31986615002E+01 0.  0.
         13    1    3    3    0    0  0.19210351173E+02 -0.13858059165E+02 -0.16618343669E+03  0.16786309311E+03  0.00000000000E+00 0.  1.
          3    1    3    3  501    0  0.53888740205E+01 -0.59800302308E+01 -0.62050882199E+02  0.62570861480E+02  0.00000000000E+00 0.  1.
         21    1    1    2  502  501 -0.24599225194E+02  0.19838089396E+02 -0.77034189936E+03  0.77098982716E+03  0.00000000000E+00 0.  1.
<mgrwt>
<rscale>  1 0.30000000E+03</rscale>
<asrwt>0</asrwt>
<pdfrwt beam="1">  1        1 0.51773991E-02 0.30000000E+03</pdfrwt>
<pdfrwt beam="2">0</pdfrwt>
<totfact> 0.18940498E+03</totfact>
</mgrwt>
</event>
<event>
 6    1  0.1956957E-002  0.3000000E+03  0.7818608E-02  0.1093470E+00
          1   -1    0    0  502    0  0.00000000000E+00  0.00000000000E+00  0.16854823989E+02  0.16854823989E+02  0.00000000000E+00 0.  1.
         13   -1    0    0    0    0 -0.00000000000E+00 -0.00000000000E+00 -0.10000000000E+04  0.10000000000E+04  0.00000000000E+00 0.  1.
    9000005    2    1    2  501    0 -0.12174237074E+01 -0.32330700082E+02 -0.98391638976E+03  0.98449202036E+03  0.92908458026E+01 0.  0.
         13    1    3    3    0    0 -0.10955172875E+01 -0.47868407869E+01 -0.26969917718E+03  0.26974387885E+03  0.00000000000E+00 0.  1.
          3    1    3    3  501    0 -0.12190641989E+00 -0.27543859295E+02 -0.71421721258E+03  0.71474814151E+03  0.00000000000E+00 0.  1.
         21    1    1    2  502  501  0.12174237074E+01  0.32330700082E+02  0.77121375084E+00  0.32362803632E+02  0.00000000000E+00 0.  1.
<mgrwt>
<rscale>  1 0.30000000E+03</rscale>
<asrwt>0</asrwt>
<pdfrwt beam="1">  1        1 0.61290398E-01 0.30000000E+03</pdfrwt>
<pdfrwt beam="2">0</pdfrwt>
<totfact> 0.67407259E+01</totfact>
</mgrwt>
</event>
<event>
 6    1  0.1956957E-002  0.3000000E+03  0.7818608E-02  0.1093470E+00
          1   -1    0    0  502    0  0.00000000000E+00  0.00000000000E+00  0.15853258485E+01  0.15853258485E+01  0.00000000000E+00 0.  1.
         13   -1    0    0    0    0 -0.00000000000E+00 -0.00000000000E+00 -0.10000000000E+04  0.10000000000E+04  0.00000000000E+00 0.  1.
    9000005    2    1    2  501    0  0.34324662219E+02 -0.16500325043E+02 -0.35743037153E+03  0.35947060139E+03  0.34927935240E+01 0.  0.
         13    1    3    3    0    0  0.33911116482E+02 -0.16180857171E+02 -0.34726431340E+03  0.34929112116E+03  0.00000000000E+00 0.  1.
          1    1    3    3  501    0  0.41354573669E+00 -0.31946787211E+00 -0.10166058131E+02  0.10179480229E+02  0.00000000000E+00 0.  1.
         21    1    1    2  502  501 -0.34324662219E+02  0.16500325043E+02 -0.64098430262E+03  0.64211472446E+03  0.00000000000E+00 0.  1.
<mgrwt>
<rscale>  1 0.30000000E+03</rscale>
<asrwt>0</asrwt>
<pdfrwt beam="1">  1        1 0.57648334E-02 0.30000000E+03</pdfrwt>
<pdfrwt beam="2">0</pdfrwt>
<totfact> 0.16287145E+03</totfact>
</mgrwt>
</event>
<event>
 6    1  0.1956957E-002  0.3000000E+03  0.7818608E-02  0.1093470E+00
          3   -1    0    0  502    0  0.00000000000E+00  0.00000000000E+00  0.26968139446E+01  0.26968139446E+01  0.00000000000E+00 0.  1.
         13   -1    0    0    0    0 -0.00000000000E+00 -0.00000000000E+00 -0.10000000000E+04  0.10000000000E+04  0.00000000000E+00 0.  1.
    9000005    2    1    2  501    0 -0.39884385765E+02 -0.43248522314E+01 -0.81668758003E+03  0.81767933986E+03  0.33809604100E+01 0.  0.
         13    1    3    3    0    0 -0.34738202553E+02 -0.27144421967E+01 -0.71651147070E+03  0.71735820798E+03  0.00000000000E+00 0.  1.
          1    1    3    3  501    0 -0.51461832117E+01 -0.16104100347E+01 -0.10017610933E+03  0.10032113188E+03  0.00000000000E+00 0.  1.
         21    1    1    2  502  501  0.39884385765E+02  0.43248522314E+01 -0.18061560603E+03  0.18501747408E+03  0.00000000000E+00 0.  1.
<mgrwt>
<rscale>  1 0.30000000E+03</rscale>
<asrwt>0</asrwt>
<pdfrwt beam="1">  1        3 0.98066168E-02 0.30000000E+03</pdfrwt>
<pdfrwt beam="2">0</pdfrwt>
<totfact> 0.34101728E+02</totfact>
</mgrwt>
</event>
<event>
 6    1  0.1956957E-002  0.3000000E+03  0.7818608E-02  0.1093470E+00
          1   -1    0    0  502    0  0.00000000000E+00  0.00000000000E+00  0.19498454065E+01  0.19498454065E+01  0.00000000000E+00 0.  1.
         13   -1    0    0    0    0 -0.00000000000E+00 -0.00000000000E+00 -0.10000000000E+04  0.10000000000E+04  0.00000000000E+00 0.  1.
    9000005    2    1    2  501    0 -0.25184605517E+02  0.21495548745E+02 -0.83010807606E+03  0.83077489188E+03  0.33436620635E+01 0.  0.
         13    1    3    3    0    0 -0.14194416577E+02  0.12004137062E+02 -0.50690706405E+03  0.50724782144E+03  0.00000000000E+00 0.  1.
          1    1    3    3  501    0 -0.10990188940E+02  0.94914116836E+01 -0.32320101200E+03  0.32352707044E+03  0.00000000000E+00 0.  1.
         21    1    1    2  502  501  0.25184605517E+02 -0.21495548745E+02 -0.16794207854E+03  0.17117495353E+03  0.00000000000E+00 0.  1.
<mgrwt>
<rscale>  1 0.30000000E+03</rscale>
<asrwt>0</asrwt>
<pdfrwt beam="1">  1        1 0.70903619E-02 0.30000000E+03</pdfrwt>
<pdfrwt beam="2">0</pdfrwt>
<totfact> 0.12187590E+03</totfact>
</mgrwt>
</event>
<event>
 6    1  0.1956957E-002  0.3000000E+03  0.7818608E-02  0.1093470E+00
          1   -1    0    0  502    0  0.00000000000E+00  0.00000000000E+00  0.10987398821E+01  0.10987398821E+01  0.00000000000E+00 0.  1.
         13   -1    0    0    0    0 -0.00000000000E+00 -0.00000000000E+00 -0.10000000000E+04  0.10000000000E+04  0.00000000000E+00 0.  1.
    9000005    2    1    2  501    0 -0.24507058323E+02 -0.19735888544E+02 -0.34648517328E+03  0.34792429796E+03  0.30398371073E+01 0.  0.
         13    1    3    3    0    0 -0.19537439655E+01 -0.27577604463E+01 -0.38578290710E+02  0.38726049015E+02  0.00000000000E+00 0.  1.
          3    1    3    3  501    0 -0.22553314358E+02 -0.16978128098E+02 -0.30790688257E+03  0.30919824895E+03  0.00000000000E+00 0.  1.
         21    1    1    2  502  501  0.24507058323E+02  0.19735888544E+02 -0.65241608684E+03  0.65317444192E+03  0.00000000000E+00 0.  1.
<mgrwt>
<rscale>  1 0.30000000E+03</rscale>
<asrwt>0</asrwt>
<pdfrwt beam="1">  1        1 0.39954262E-02 0.30000000E+03</pdfrwt>
<pdfrwt beam="2">0</pdfrwt>
<totfact> 0.27273424E+03</totfact>
</mgrwt>
</event>
<event>
 6    1  0.1956957E-002  0.3000000E+03  0.7818608E-02  0.1093470E+00
          1   -1    0    0  502    0  0.00000000000E+00  0.00000000000E+00  0.75940739610E+01  0.75940739610E+01  0.00000000000E+00 0.  1.
         13   -1    0    0    0    0 -0.00000000000E+00 -0.00000000000E+00 -0.10000000000E+04  0.10000000000E+04  0.00000000000E+00 0.  1.
    9000005    2    1    2  501    0  0.69272477603E+02  0.11555658458E+02 -0.79435241981E+03  0.79745745001E+03  0.32261934478E+01 0.  0.
         13    1    3    3    0    0  0.63711288494E+02  0.10714355709E+02 -0.72012990744E+03  0.72302213610E+03  0.00000000000E+00 0.  1.
          3    1    3    3  501    0  0.55611891084E+01  0.84130274994E+00 -0.74222512361E+02  0.74435313903E+02  0.00000000000E+00 0.  1.
         21    1    1    2  502  501 -0.69272477603E+02 -0.11555658458E+02 -0.19805350623E+03  0.21013662395E+03  0.00000000000E+00 0.  1.
<mgrwt>
<rscale>  1 0.30000000E+03</rscale>
<asrwt>0</asrwt>
<pdfrwt beam="1">  1        1 0.27614873E-01 0.30000000E+03</pdfrwt>
<pdfrwt beam="2">0</pdfrwt>
<totfact> 0.19201252E+02</totfact>
</mgrwt>
</event>
<event>
 6    1  0.1956957E-002  0.3000000E+03  0.7818608E-02  0.1093470E+00
          1   -1    0    0  502    0  0.00000000000E+00  0.00000000000E+00  0.10016663320E+01  0.10016663320E+01  0.00000000000E+00 0.  1.
         13   -1    0    0    0    0 -0.00000000000E+00 -0.00000000000E+00 -0.10000000000E+04  0.10000000000E+04  0.00000000000E+00 0.  1.
    9000005    2    1    2  501    0 -0.22418161890E+02 -0.19989911994E+02 -0.65444827455E+03  0.65514488412E+03  0.31787674569E+01 0.  0.
         13    1    3    3    0    0 -0.64791405859E+01 -0.77287638452E+01 -0.22628338844E+03  0.22650802400E+03  0.00000000000E+00 0.  1.
          1    1    3    3  501    0 -0.15939021304E+02 -0.12261148149E+02 -0.42816488611E+03  0.42863686012E+03  0.00000000000E+00 0.  1.
         21    1    1    2  502  501  0.22418161890E+02  0.19989911994E+02 -0.34455005912E+03  0.34585678221E+03  0.00000000000E+00 0.  1.
<mgrwt>
<rscale>  1 0.30000000E+03</rscale>
<asrwt>0</asrwt>
<pdfrwt beam="1">  1        1 0.36424307E-02 0.30000000E+03</pdfrwt>
<pdfrwt beam="2">0</pdfrwt>
<totfact> 0.31065917E+03</totfact>
</mgrwt>
</event>
<event>
 6    1  0.1956957E-002  0.3000000E+03  0.7818608E-02  0.1093470E+00
          1   -1    0    0  502    0  0.00000000000E+00  0.00000000000E+00  0.39528851846E+01  0.39528851846E+01  0.00000000000E+00 0.  1.
         13   -1    0    0    0    0 -0.00000000000E+00 -0.00000000000E+00 -0.10000000000E+04  0.10000000000E+04  0.00000000000E+00 0.  1.
    9000005    2    1    2  501    0 -0.55637328894E+02  0.28527343224E+02 -0.44782475527E+03  0.45217659248E+03  0.27088156589E+01 0.  0.
         13    1    3    3    0    0 -0.25178491708E+02  0.13520073802E+02 -0.21361726948E+03  0.21552050171E+03  0.00000000000E+00 0.  1.
          3    1    3    3  501    0 -0.30458837186E+02  0.15007269423E+02 -0.23420748579E+03  0.23665609077E+03  0.00000000000E+00 0.  1.
         21    1    1    2  502  501  0.55637328894E+02 -0.28527343224E+02 -0.54822235955E+03  0.55177629270E+03  0.00000000000E+00 0.  1.
<mgrwt>
<rscale>  1 0.30000000E+03</rscale>
<asrwt>0</asrwt>
<pdfrwt beam="1">  1        1 0.14374158E-01 0.30000000E+03</pdfrwt>
<pdfrwt beam="2">0</pdfrwt>
<totfact> 0.45966639E+02</totfact>
</mgrwt>
</event>
<event>
 6    1  0.1956957E-002  0.3000000E+03  0.7818608E-02  0.1093470E+00
          3   -1    0    0  502    0  0.00000000000E+00  0.00000000000E+00  0.19183723667E+01  0.19183723667E+01  0.00000000000E+00 0.  1.
         13   -1    0    0    0    0 -0.00000000000E+00 -0.00000000000E+00 -0.10000000000E+04  0.10000000000E+04  0.00000000000E+00 0.  1.
    9000005    2    1    2  501    0  0.34199446473E+02 -0.82355390024E+01 -0.79715223964E+03  0.79793296799E+03  0.28110480761E+01 0.  0.
         13    1    3    3    0    0  0.34025223814E+02 -0.83689429169E+01 -0.79420543109E+03  0.79497800085E+03  0.00000000000E+00 0.  1.
          3    1    3    3  501    0  0.17422265922E+00  0.13340391459E+00 -0.29468085546E+01  0.29549671397E+01  0.00000000000E+00 0.  1.
         21    1    1    2  502  501 -0.34199446473E+02  0.82355390024E+01 -0.20092938799E+03  0.20398540438E+03  0.00000000000E+00 0.  1.
<mgrwt>
<rscale>  1 0.30000000E+03</rscale>
<asrwt>0</asrwt>
<pdfrwt beam="1">  1        3 0.69759142E-02 0.30000000E+03</pdfrwt>
<pdfrwt beam="2">0</pdfrwt>
<totfact> 0.58893594E+02</totfact>
</mgrwt>
</event>
<event>
 6    1  0.1956957E-002  0.3000000E+03  0.7818608E-02  0.1093470E+00
          1   -1    0    0  502    0  0.00000000000E+00  0.00000000000E+00  0.13045649201E+01  0.13045649201E+01  0.00000000000E+00 0.  1.
         13   -1    0    0    0    0 -0.00000000000E+00 -0.00000000000E+00 -0.10000000000E+04  0.10000000000E+04  0.00000000000E+00 0.  1.
    9000005    2    1    2  501    0 -0.28664922983E+02 -0.17933124814E+02 -0.66946642631E+03  0.67034381953E+03  0.56802858318E+01 0.  0.
         13    1    3    3    0    0 -0.22736931798E+02 -0.13569650424E+02 -0.56372571093E+03  0.56434721639E+03  0.00000000000E+00 0.  1.
          1    1    3    3  501    0 -0.59279911845E+01 -0.43634743896E+01 -0.10574071538E+03  0.10599660315E+03  0.00000000000E+00 0.  1.
         21    1    1    2  502  501  0.28664922983E+02  0.17933124814E+02 -0.32922900877E+03  0.33096074539E+03  0.00000000000E+00 0.  1.
<mgrwt>
<rscale>  1 0.30000000E+03</rscale>
<asrwt>0</asrwt>
<pdfrwt beam="1">  1        1 0.47438824E-02 0.30000000E+03</pdfrwt>
<pdfrwt beam="2">0</pdfrwt>
<totfact> 0.21417916E+03</totfact>
</mgrwt>
</event>
<event>
 6    1  0.1956957E-002  0.3000000E+03  0.7818608E-02  0.1093470E+00
          1   -1    0    0  502    0  0.00000000000E+00  0.00000000000E+00  0.26308241673E+01  0.26308241673E+01  0.00000000000E+00 0.  1.
         13   -1    0    0    0    0 -0.00000000000E+00 -0.00000000000E+00 -0.10000000000E+04  0.10000000000E+04  0.00000000000E+00 0.  1.
    9000005    2    1    2  501    0 -0.19180488497E+02 -0.42118747972E+02 -0.71411359623E+03  0.71561932014E+03  0.33019634978E+01 0.  0.
         13    1    3    3    0    0 -0.10703467243E+02 -0.21669692331E+02 -0.39524318180E+03  0.39598145479E+03  0.00000000000E+00 0.  1.
          3    1    3    3  501    0 -0.84770212545E+01 -0.20449055641E+02 -0.31887041443E+03  0.31963786535E+03  0.00000000000E+00 0.  1.
         21    1    1    2  502  501  0.19180488497E+02  0.42118747972E+02 -0.28325557960E+03  0.28701150403E+03  0.00000000000E+00 0.  1.
<mgrwt>
<rscale>  1 0.30000000E+03</rscale>
<asrwt>0</asrwt>
<pdfrwt beam="1">  1        1 0.95666535E-02 0.30000000E+03</pdfrwt>
<pdfrwt beam="2">0</pdfrwt>
<totfact> 0.80345715E+02</totfact>
</mgrwt>
</event>
<event>
 6    1  0.1956957E-002  0.3000000E+03  0.7818608E-02  0.1093470E+00
          3   -1    0    0  502    0  0.00000000000E+00  0.00000000000E+00  0.44395387207E+01  0.44395387207E+01  0.00000000000E+00 0.  1.
         13   -1    0    0    0    0 -0.00000000000E+00 -0.00000000000E+00 -0.10000000000E+04  0.10000000000E+04  0.00000000000E+00 0.  1.
    9000005    2    1    2  501    0 -0.35964364316E+02 -0.47813883119E+01 -0.91891296135E+03  0.91963897020E+03  0.43020707063E+01 0.  0.
         13    1    3    3    0    0 -0.26173179417E+02 -0.53928807611E+01 -0.67609984587E+03  0.67662775591E+03  0.00000000000E+00 0.  1.
          1    1    3    3  501    0 -0.97911848988E+01  0.61149244924E+00 -0.24281311548E+03  0.24301121429E+03  0.00000000000E+00 0.  1.
         21    1    1    2  502  501  0.35964364316E+02  0.47813883119E+01 -0.76647499933E+02  0.84800568517E+02  0.00000000000E+00 0.  1.
<mgrwt>
<rscale>  1 0.30000000E+03</rscale>
<asrwt>0</asrwt>
<pdfrwt beam="1">  1        3 0.16143811E-01 0.30000000E+03</pdfrwt>
<pdfrwt beam="2">0</pdfrwt>
<totfact> 0.14643506E+02</totfact>
</mgrwt>
</event>
<event>
 6    1  0.1956957E-002  0.3000000E+03  0.7818608E-02  0.1093470E+00
          1   -1    0    0  502    0  0.00000000000E+00  0.00000000000E+00  0.26147601776E+01  0.26147601776E+01  0.00000000000E+00 0.  1.
         13   -1    0    0    0    0 -0.00000000000E+00 -0.00000000000E+00 -0.10000000000E+04  0.10000000000E+04  0.00000000000E+00 0.  1.
    9000005    2    1    2  501    0  0.25865235997E+02  0.16843703589E+02 -0.89822791366E+03  0.89876440574E+03  0.33691802413E+01 0.  0.
         13    1    3    3    0    0  0.96317942038E+01  0.82480370675E+01 -0.36744206217E+03  0.36766080921E+03  0.00000000000E+00 0.  1.
          3    1    3    3  501    0  0.16233441793E+02  0.85956665216E+01 -0.53078585149E+03  0.53110359654E+03  0.00000000000E+00 0.  1.
         21    1    1    2  502  501 -0.25865235997E+02 -0.16843703589E+02 -0.99157326167E+02  0.10385035444E+03  0.00000000000E+00 0.  1.
<mgrwt>
<rscale>  1 0.30000000E+03</rscale>
<asrwt>0</asrwt>
<pdfrwt beam="1">  1        1 0.95082389E-02 0.30000000E+03</pdfrwt>
<pdfrwt beam="2">0</pdfrwt>
<totfact> 0.81029743E+02</totfact>
</mgrwt>
</event>
<event>
 6    1  0.1956957E-002  0.3000000E+03  0.7818608E-02  0.1093470E+00
          1   -1    0    0  502    0  0.00000000000E+00  0.00000000000E+00  0.19323599109E+02  0.19323599109E+02  0.00000000000E+00 0.  1.
         13   -1    0    0    0    0 -0.00000000000E+00 -0.00000000000E+00 -0.10000000000E+04  0.10000000000E+04  0.00000000000E+00 0.  1.
    9000005    2    1    2  501    0 -0.13562052959E+02 -0.35744237350E+02 -0.98034117770E+03  0.98109151626E+03  0.31872888405E+01 0.  0.
         13    1    3    3    0    0 -0.12914576192E+02 -0.31286268878E+02 -0.85721560308E+03  0.85788356265E+03  0.00000000000E+00 0.  1.
          3    1    3    3  501    0 -0.64747676757E+00 -0.44579684726E+01 -0.12312557461E+03  0.12320795361E+03  0.00000000000E+00 0.  1.
         21    1    1    2  502  501  0.13562052959E+02  0.35744237350E+02 -0.33522319409E+00  0.38232082847E+02  0.00000000000E+00 0.  1.
<mgrwt>
<rscale>  1 0.30000000E+03</rscale>
<asrwt>0</asrwt>
<pdfrwt beam="1">  1        1 0.70267781E-01 0.30000000E+03</pdfrwt>
<pdfrwt beam="2">0</pdfrwt>
<totfact> 0.56092726E+01</totfact>
</mgrwt>
</event>
<event>
 6    1  0.1956957E-002  0.3000000E+03  0.7818608E-02  0.1093470E+00
          1   -1    0    0  502    0  0.00000000000E+00  0.00000000000E+00  0.17331414586E+01  0.17331414586E+01  0.00000000000E+00 0.  1.
         13   -1    0    0    0    0 -0.00000000000E+00 -0.00000000000E+00 -0.10000000000E+04  0.10000000000E+04  0.00000000000E+00 0.  1.
    9000005    2    1    2  501    0  0.31758092247E+02 -0.23441132065E+02 -0.65778216568E+03  0.65896807736E+03  0.18671886003E+01 0.  0.
         13    1    3    3    0    0  0.17762583011E+02 -0.14114754045E+02 -0.37027307731E+03  0.37096750183E+03  0.00000000000E+00 0.  1.
          1    1    3    3  501    0  0.13995509236E+02 -0.93263780197E+01 -0.28750908838E+03  0.28800057553E+03  0.00000000000E+00 0.  1.
         21    1    1    2  502  501 -0.31758092247E+02  0.23441132065E+02 -0.34048469286E+03  0.34276506410E+03  0.00000000000E+00 0.  1.
<mgrwt>
<rscale>  1 0.30000000E+03</rscale>
<asrwt>0</asrwt>
<pdfrwt beam="1">  1        1 0.63023459E-02 0.30000000E+03</pdfrwt>
<pdfrwt beam="2">0</pdfrwt>
<totfact> 0.14372713E+03</totfact>
</mgrwt>
</event>
<event>
 6    1  0.1956957E-002  0.3000000E+03  0.7818608E-02  0.1093470E+00
          3   -1    0    0  502    0  0.00000000000E+00  0.00000000000E+00  0.27876152095E+01  0.27876152095E+01  0.00000000000E+00 0.  1.
         13   -1    0    0    0    0 -0.00000000000E+00 -0.00000000000E+00 -0.10000000000E+04  0.10000000000E+04  0.00000000000E+00 0.  1.
    9000005    2    1    2  501    0 -0.30193151790E+02 -0.10705858749E+02 -0.89703298966E+03  0.89761084479E+03  0.32866891014E+01 0.  0.
         13    1    3    3    0    0 -0.51068074708E+01 -0.16658013080E+01 -0.11932247056E+03  0.11944331859E+03  0.00000000000E+00 0.  1.
          3    1    3    3  501    0 -0.25086344319E+02 -0.90400574412E+01 -0.77771051910E+03  0.77816752620E+03  0.00000000000E+00 0.  1.
         21    1    1    2  502  501  0.30193151790E+02  0.10705858749E+02 -0.10017939513E+03  0.10517677042E+03  0.00000000000E+00 0.  1.
<mgrwt>
<rscale>  1 0.30000000E+03</rscale>
<asrwt>0</asrwt>
<pdfrwt beam="1">  1        3 0.10136804E-01 0.30000000E+03</pdfrwt>
<pdfrwt beam="2">0</pdfrwt>
<totfact> 0.32292312E+02</totfact>
</mgrwt>
</event>
<event>
 6    1  0.1956957E-002  0.3000000E+03  0.7818608E-02  0.1093470E+00
          3   -1    0    0  502    0  0.00000000000E+00  0.00000000000E+00  0.16022896575E+01  0.16022896575E+01  0.00000000000E+00 0.  1.
         13   -1    0    0    0    0 -0.00000000000E+00 -0.00000000000E+00 -0.10000000000E+04  0.10000000000E+04  0.00000000000E+00 0.  1.
    9000005    2    1    2  501    0 -0.38837497338E+01  0.30434504195E+02 -0.81931327699E+03  0.81990865513E+03  0.58833963108E+01 0.  0.
         13    1    3    3    0    0 -0.27672010250E+01  0.29629178616E+02 -0.79463696684E+03  0.79519397300E+03  0.00000000000E+00 0.  1.
          1    1    3    3  501    0 -0.11165487088E+01  0.80532557916E+00 -0.24676310150E+02  0.24714682133E+02  0.00000000000E+00 0.  1.
         21    1    1    2  502  501  0.38837497338E+01 -0.30434504195E+02 -0.17908443335E+03  0.18169363453E+03  0.00000000000E+00 0.  1.
<mgrwt>
<rscale>  1 0.30000000E+03</rscale>
<asrwt>0</asrwt>
<pdfrwt beam="1">  1        3 0.58265201E-02 0.30000000E+03</pdfrwt>
<pdfrwt beam="2">0</pdfrwt>
<totfact> 0.78060657E+02</totfact>
</mgrwt>
</event>
<event>
 6    1  0.1956957E-002  0.3000000E+03  0.7818608E-02  0.1093470E+00
          1   -1    0    0  502    0  0.00000000000E+00  0.00000000000E+00  0.14210250546E+01  0.14210250546E+01  0.00000000000E+00 0.  1.
         13   -1    0    0    0    0 -0.00000000000E+00 -0.00000000000E+00 -0.10000000000E+04  0.10000000000E+04  0.00000000000E+00 0.  1.
    9000005    2    1    2  501    0 -0.25446386805E+02  0.17188893074E+02 -0.78880934953E+03  0.78941566570E+03  0.37318502327E+01 0.  0.
         13    1    3    3    0    0 -0.47401272091E+01  0.34206443609E+01 -0.19090304382E+03  0.19099251753E+03  0.00000000000E+00 0.  1.
          3    1    3    3  501    0 -0.20706259596E+02  0.13768248713E+02 -0.59790630571E+03  0.59842314817E+03  0.00000000000E+00 0.  1.
         21    1    1    2  502  501  0.25446386805E+02 -0.17188893074E+02 -0.20976962541E+03  0.21200535935E+03  0.00000000000E+00 0.  1.
<mgrwt>
<rscale>  1 0.30000000E+03</rscale>
<asrwt>0</asrwt>
<pdfrwt beam="1">  1        1 0.51673747E-02 0.30000000E+03</pdfrwt>
<pdfrwt beam="2">0</pdfrwt>
<totfact> 0.18992144E+03</totfact>
</mgrwt>
</event>
<event>
 6    1  0.1956957E-002  0.3000000E+03  0.7818608E-02  0.1093470E+00
          1   -1    0    0  502    0  0.00000000000E+00  0.00000000000E+00  0.97337799903E+01  0.97337799903E+01  0.00000000000E+00 0.  1.
         13   -1    0    0    0    0 -0.00000000000E+00 -0.00000000000E+00 -0.10000000000E+04  0.10000000000E+04  0.00000000000E+00 0.  1.
    9000005    2    1    2  501    0 -0.39550633872E+02 -0.43757130599E+02 -0.89980337983E+03  0.90174088869E+03  0.34013035886E+01 0.  0.
         13    1    3    3    0    0 -0.91550850759E+00 -0.18759845591E+01 -0.28460047062E+02  0.28536498606E+02  0.00000000000E+00 0.  1.
          3    1    3    3  501    0 -0.38635125364E+02 -0.41881146040E+02 -0.87134333276E+03  0.87320439008E+03  0.00000000000E+00 0.  1.
         21    1    1    2  502  501  0.39550633872E+02  0.43757130599E+02 -0.90462840184E+02  0.10799289130E+03  0.00000000000E+00 0.  1.
<mgrwt>
<rscale>  1 0.30000000E+03</rscale>
<asrwt>0</asrwt>
<pdfrwt beam="1">  1        1 0.35395638E-01 0.30000000E+03</pdfrwt>
<pdfrwt beam="2">0</pdfrwt>
<totfact> 0.13867018E+02</totfact>
</mgrwt>
</event>
<event>
 6    1  0.1956957E-002  0.3000000E+03  0.7818608E-02  0.1093470E+00
          3   -1    0    0  502    0  0.00000000000E+00  0.00000000000E+00  0.64444229241E+01  0.64444229241E+01  0.00000000000E+00 0.  1.
         13   -1    0    0    0    0 -0.00000000000E+00 -0.00000000000E+00 -0.10000000000E+04  0.10000000000E+04  0.00000000000E+00 0.  1.
    9000005    2    1    2  501    0 -0.30275151785E+02 -0.58252346483E+02 -0.78627670121E+03  0.78901753161E+03  0.27737403874E+01 0.  0.
         13    1    3    3    0    0 -0.15890860885E+02 -0.32778267777E+02 -0.42484263085E+03  0.42640144851E+03  0.00000000000E+00 0.  1.
          1    1    3    3  501    0 -0.14384290900E+02 -0.25474078706E+02 -0.36143407036E+03  0.36261608310E+03  0.00000000000E+00 0.  1.
         21    1    1    2  502  501  0.30275151785E+02  0.58252346483E+02 -0.20727887586E+03  0.21742689131E+03  0.00000000000E+00 0.  1.
<mgrwt>
<rscale>  1 0.30000000E+03</rscale>
<asrwt>0</asrwt>
<pdfrwt beam="1">  1        3 0.23434315E-01 0.30000000E+03</pdfrwt>
<pdfrwt beam="2">0</pdfrwt>
<totfact> 0.74546736E+01</totfact>
</mgrwt>
</event>
<event>
 6    1  0.1956957E-002  0.3000000E+03  0.7818608E-02  0.1093470E+00
          1   -1    0    0  502    0  0.00000000000E+00  0.00000000000E+00  0.24141344562E+01  0.24141344562E+01  0.00000000000E+00 0.  1.
         13   -1    0    0    0    0 -0.00000000000E+00 -0.00000000000E+00 -0.10000000000E+04  0.10000000000E+04  0.00000000000E+00 0.  1.
    9000005    2    1    2  501    0 -0.30070092098E+02 -0.14195608899E+02 -0.86758226965E+03  0.86822523516E+03  0.32153685836E+01 0.  0.
         13    1    3    3    0    0 -0.13062116503E+02 -0.58385390563E+01 -0.33312480789E+03  0.33343191967E+03  0.00000000000E+00 0.  1.
          3    1    3    3  501    0 -0.17007975594E+02 -0.83570698425E+01 -0.53445746177E+03  0.53479331549E+03  0.00000000000E+00 0.  1.
         21    1    1    2  502  501  0.30070092098E+02  0.14195608899E+02 -0.13000359589E+03  0.13418889930E+03  0.00000000000E+00 0.  1.
<mgrwt>
<rscale>  1 0.30000000E+03</rscale>
<asrwt>0</asrwt>
<pdfrwt beam="1">  1        1 0.87786893E-02 0.30000000E+03</pdfrwt>
<pdfrwt beam="2">0</pdfrwt>
<totfact> 0.90510154E+02</totfact>
</mgrwt>
</event>
<event>
 6    1  0.1956957E-002  0.3000000E+03  0.7818608E-02  0.1093470E+00
          1   -1    0    0  502    0  0.00000000000E+00  0.00000000000E+00  0.12501712399E+01  0.12501712399E+01  0.00000000000E+00 0.  1.
         13   -1    0    0    0    0 -0.00000000000E+00 -0.00000000000E+00 -0.10000000000E+04  0.10000000000E+04  0.00000000000E+00 0.  1.
    9000005    2    1    2  501    0 -0.25838475566E+02 -0.17112008587E+02 -0.73855166263E+03  0.73921289658E+03  0.40866158044E+01 0.  0.
         13    1    3    3    0    0 -0.20746159469E+02 -0.11657147616E+02 -0.56149335765E+03  0.56199740472E+03  0.00000000000E+00 0.  1.
          1    1    3    3  501    0 -0.50923160971E+01 -0.54548609713E+01 -0.17705830498E+03  0.17721549186E+03  0.00000000000E+00 0.  1.
         21    1    1    2  502  501  0.25838475566E+02  0.17112008587E+02 -0.26019816613E+03  0.26203727466E+03  0.00000000000E+00 0.  1.
<mgrwt>
<rscale>  1 0.30000000E+03</rscale>
<asrwt>0</asrwt>
<pdfrwt beam="1">  1        1 0.45460868E-02 0.30000000E+03</pdfrwt>
<pdfrwt beam="2">0</pdfrwt>
<totfact> 0.22740402E+03</totfact>
</mgrwt>
</event>
<event>
 6    1  0.1956957E-002  0.3000000E+03  0.7818608E-02  0.1093470E+00
          1   -1    0    0  502    0  0.00000000000E+00  0.00000000000E+00  0.14738106246E+02  0.14738106246E+02  0.00000000000E+00 0.  1.
         13   -1    0    0    0    0 -0.00000000000E+00 -0.00000000000E+00 -0.10000000000E+04  0.10000000000E+04  0.00000000000E+00 0.  1.
    9000005    2    1    2  501    0  0.60161710652E+02 -0.10197878428E+03 -0.60382529428E+03  0.61534734109E+03  0.53160422074E+01 0.  0.
         13    1    3    3    0    0  0.57625087441E+02 -0.95192397332E+02 -0.56754019902E+03  0.57834602162E+03  0.00000000000E+00 0.  1.
          3    1    3    3  501    0  0.25366232107E+01 -0.67863869476E+01 -0.36285095258E+02  0.37001319476E+02  0.00000000000E+00 0.  1.
         21    1    1    2  502  501 -0.60161710652E+02  0.10197878428E+03 -0.38143659947E+03  0.39939076515E+03  0.00000000000E+00 0.  1.
<mgrwt>
<rscale>  1 0.30000000E+03</rscale>
<asrwt>0</asrwt>
<pdfrwt beam="1">  1        1 0.53593227E-01 0.30000000E+03</pdfrwt>
<pdfrwt beam="2">0</pdfrwt>
<totfact> 0.80537770E+01</totfact>
</mgrwt>
</event>
<event>
 6    1  0.1956957E-002  0.3000000E+03  0.7818608E-02  0.1093470E+00
          1   -1    0    0  502    0  0.00000000000E+00  0.00000000000E+00  0.15007781535E+01  0.15007781535E+01  0.00000000000E+00 0.  1.
         13   -1    0    0    0    0 -0.00000000000E+00 -0.00000000000E+00 -0.10000000000E+04  0.10000000000E+04  0.00000000000E+00 0.  1.
    9000005    2    1    2  501    0 -0.17410889952E+02 -0.33236274808E+02 -0.62132112139E+03  0.62246105924E+03  0.31694367710E+01 0.  0.
         13    1    3    3    0    0 -0.15054402383E+02 -0.27237139710E+02 -0.49769242599E+03  0.49866446405E+03  0.00000000000E+00 0.  1.
          1    1    3    3  501    0 -0.23564875684E+01 -0.59991350980E+01 -0.12362869540E+03  0.12379659519E+03  0.00000000000E+00 0.  1.
         21    1    1    2  502  501  0.17410889952E+02  0.33236274808E+02 -0.37717810045E+03  0.37903971891E+03  0.00000000000E+00 0.  1.
<mgrwt>
<rscale>  1 0.30000000E+03</rscale>
<asrwt>0</asrwt>
<pdfrwt beam="1">  1        1 0.54573866E-02 0.30000000E+03</pdfrwt>
<pdfrwt beam="2">0</pdfrwt>
<totfact> 0.17589868E+03</totfact>
</mgrwt>
</event>
<event>
 6    1  0.1956957E-002  0.3000000E+03  0.7818608E-02  0.1093470E+00
          1   -1    0    0  502    0  0.00000000000E+00  0.00000000000E+00  0.31157507201E+01  0.31157507201E+01  0.00000000000E+00 0.  1.
         13   -1    0    0    0    0 -0.00000000000E+00 -0.00000000000E+00 -0.10000000000E+04  0.10000000000E+04  0.00000000000E+00 0.  1.
    9000005    2    1    2  501    0  0.97224984584E+01  0.34133689739E+02 -0.88519349602E+03  0.88592163775E+03  0.54760463120E+01 0.  0.
         13    1    3    3    0    0  0.95439065296E+01  0.30475806911E+02 -0.75198117216E+03  0.75265898271E+03  0.00000000000E+00 0.  1.
          3    1    3    3  501    0  0.17859192887E+00  0.36578828278E+01 -0.13321232386E+03  0.13326265505E+03  0.00000000000E+00 0.  1.
         21    1    1    2  502  501 -0.97224984584E+01 -0.34133689739E+02 -0.11169075326E+03  0.11719411297E+03  0.00000000000E+00 0.  1.
<mgrwt>
<rscale>  1 0.30000000E+03</rscale>
<asrwt>0</asrwt>
<pdfrwt beam="1">  1        1 0.11330027E-01 0.30000000E+03</pdfrwt>
<pdfrwt beam="2">0</pdfrwt>
<totfact> 0.63640049E+02</totfact>
</mgrwt>
</event>
<event>
 6    1  0.1956957E-002  0.3000000E+03  0.7818608E-02  0.1093470E+00
          1   -1    0    0  502    0  0.00000000000E+00  0.00000000000E+00  0.68045459959E+01  0.68045459959E+01  0.00000000000E+00 0.  1.
         13   -1    0    0    0    0 -0.00000000000E+00 -0.00000000000E+00 -0.10000000000E+04  0.10000000000E+04  0.00000000000E+00 0.  1.
    9000005    2    1    2  501    0  0.60357881166E+02  0.54794191463E+02 -0.42140395685E+03  0.42923117970E+03  0.35543692128E+01 0.  0.
         13    1    3    3    0    0  0.26340544651E+02  0.21893140743E+02 -0.18177687002E+03  0.18497557779E+03  0.00000000000E+00 0.  1.
          1    1    3    3  501    0  0.34017336515E+02  0.32901050720E+02 -0.23962708682E+03  0.24425560190E+03  0.00000000000E+00 0.  1.
         21    1    1    2  502  501 -0.60357881166E+02 -0.54794191463E+02 -0.57179149716E+03  0.57757336630E+03  0.00000000000E+00 0.  1.
<mgrwt>
<rscale>  1 0.30000000E+03</rscale>
<asrwt>0</asrwt>
<pdfrwt beam="1">  1        1 0.24743856E-01 0.30000000E+03</pdfrwt>
<pdfrwt beam="2">0</pdfrwt>
<totfact> 0.22193546E+02</totfact>
</mgrwt>
</event>
<event>
 6    1  0.1956957E-002  0.3000000E+03  0.7818608E-02  0.1093470E+00
          3   -1    0    0  502    0  0.00000000000E+00  0.00000000000E+00  0.14783282085E+01  0.14783282085E+01  0.00000000000E+00 0.  1.
         13   -1    0    0    0    0 -0.00000000000E+00 -0.00000000000E+00 -0.10000000000E+04  0.10000000000E+04  0.00000000000E+00 0.  1.
    9000005    2    1    2  501    0  0.29245183692E+01  0.35887063366E+02 -0.32609618605E+03  0.32808953412E+03  0.27542186243E+01 0.  0.
         13    1    3    3    0    0  0.38498192500E+00  0.21336298999E+02 -0.19168282230E+03  0.19286702733E+03  0.00000000000E+00 0.  1.
          1    1    3    3  501    0  0.25395364442E+01  0.14550764367E+02 -0.13441336375E+03  0.13522250679E+03  0.00000000000E+00 0.  1.
         21    1    1    2  502  501 -0.29245183692E+01 -0.35887063366E+02 -0.67242548575E+03  0.67338879409E+03  0.00000000000E+00 0.  1.
<mgrwt>
<rscale>  1 0.30000000E+03</rscale>
<asrwt>0</asrwt>
<pdfrwt beam="1">  1        3 0.53757503E-02 0.30000000E+03</pdfrwt>
<pdfrwt beam="2">0</pdfrwt>
<totfact> 0.88457030E+02</totfact>
</mgrwt>
</event>
<event>
 6    1  0.1956957E-002  0.3000000E+03  0.7818608E-02  0.1093470E+00
          3   -1    0    0  502    0  0.00000000000E+00  0.00000000000E+00  0.10550309958E+01  0.10550309958E+01  0.00000000000E+00 0.  1.
         13   -1    0    0    0    0 -0.00000000000E+00 -0.00000000000E+00 -0.10000000000E+04  0.10000000000E+04  0.00000000000E+00 0.  1.
    9000005    2    1    2  501    0  0.82636209153E+01  0.29305258197E+02 -0.67149762549E+03  0.67219510889E+03  0.31808485027E+01 0.  0.
         13    1    3    3    0    0  0.73365102703E+01  0.28185810487E+02 -0.64577986523E+03  0.64643630671E+03  0.00000000000E+00 0.  1.
          3    1    3    3  501    0  0.92711064494E+00  0.11194477099E+01 -0.25717760258E+02  0.25758802185E+02  0.00000000000E+00 0.  1.
         21    1    1    2  502  501 -0.82636209153E+01 -0.29305258197E+02 -0.32744734352E+03  0.32885992210E+03  0.00000000000E+00 0.  1.
<mgrwt>
<rscale>  1 0.30000000E+03</rscale>
<asrwt>0</asrwt>
<pdfrwt beam="1">  1        3 0.38364844E-02 0.30000000E+03</pdfrwt>
<pdfrwt beam="2">0</pdfrwt>
<totfact> 0.14876851E+03</totfact>
</mgrwt>
</event>
<event>
 6    1  0.1956957E-002  0.3000000E+03  0.7818608E-02  0.1093470E+00
          3   -1    0    0  502    0  0.00000000000E+00  0.00000000000E+00  0.18258161924E+01  0.18258161924E+01  0.00000000000E+00 0.  1.
         13   -1    0    0    0    0 -0.00000000000E+00 -0.00000000000E+00 -0.10000000000E+04  0.10000000000E+04  0.00000000000E+00 0.  1.
    9000005    2    1    2  501    0 -0.32920337871E+02  0.57141805371E+00 -0.81763820808E+03  0.81831201918E+03  0.42715627447E+01 0.  0.
         13    1    3    3    0    0 -0.22794017422E+02  0.17208157965E+01 -0.52806006209E+03  0.52855459284E+03  0.00000000000E+00 0.  1.
          1    1    3    3  501    0 -0.10126320449E+02 -0.11493977428E+01 -0.28957814599E+03  0.28975742633E+03  0.00000000000E+00 0.  1.
         21    1    1    2  502  501  0.32920337871E+02 -0.57141805371E+00 -0.18053597573E+03  0.18351379702E+03  0.00000000000E+00 0.  1.
<mgrwt>
<rscale>  1 0.30000000E+03</rscale>
<asrwt>0</asrwt>
<pdfrwt beam="1">  1        3 0.66393456E-02 0.30000000E+03</pdfrwt>
<pdfrwt beam="2">0</pdfrwt>
<totfact> 0.63652817E+02</totfact>
</mgrwt>
</event>
<event>
 6    1  0.1956957E-002  0.3000000E+03  0.7818608E-02  0.1093470E+00
          1   -1    0    0  502    0  0.00000000000E+00  0.00000000000E+00  0.21690788776E+01  0.21690788776E+01  0.00000000000E+00 0.  1.
         13   -1    0    0    0    0 -0.00000000000E+00 -0.00000000000E+00 -0.10000000000E+04  0.10000000000E+04  0.00000000000E+00 0.  1.
    9000005    2    1    2  501    0  0.45868308925E+02 -0.66810663430E+01 -0.51950643054E+03  0.52160393584E+03  0.59326302018E+01 0.  0.
         13    1    3    3    0    0  0.40875367729E+02 -0.69107896259E+01 -0.44347154955E+03  0.44540495054E+03  0.00000000000E+00 0.  1.
          1    1    3    3  501    0  0.49929411959E+01  0.22972328290E+00 -0.76034880985E+02  0.76198985301E+02  0.00000000000E+00 0.  1.
         21    1    1    2  502  501 -0.45868308925E+02  0.66810663430E+01 -0.47832449059E+03  0.48056514304E+03  0.00000000000E+00 0.  1.
<mgrwt>
<rscale>  1 0.30000000E+03</rscale>
<asrwt>0</asrwt>
<pdfrwt beam="1">  1        1 0.78875762E-02 0.30000000E+03</pdfrwt>
<pdfrwt beam="2">0</pdfrwt>
<totfact> 0.10503418E+03</totfact>
</mgrwt>
</event>
<event>
 6    1  0.1956957E-002  0.3000000E+03  0.7818608E-02  0.1093470E+00
          1   -1    0    0  502    0  0.00000000000E+00  0.00000000000E+00  0.16279863436E+01  0.16279863436E+01  0.00000000000E+00 0.  1.
         13   -1    0    0    0    0 -0.00000000000E+00 -0.00000000000E+00 -0.10000000000E+04  0.10000000000E+04  0.00000000000E+00 0.  1.
    9000005    2    1    2  501    0  0.32967620752E+02 -0.23037428464E+02 -0.47186931129E+03  0.47359135624E+03  0.32463276302E+01 0.  0.
         13    1    3    3    0    0  0.14316125853E+02 -0.11978267765E+02 -0.21862690493E+03  0.21942231864E+03  0.00000000000E+00 0.  1.
          1    1    3    3  501    0  0.18651494899E+02 -0.11059160699E+02 -0.25324240636E+03  0.25416903760E+03  0.00000000000E+00 0.  1.
         21    1    1    2  502  501 -0.32967620752E+02  0.23037428464E+02 -0.52650270237E+03  0.52803663010E+03  0.00000000000E+00 0.  1.
<mgrwt>
<rscale>  1 0.30000000E+03</rscale>
<asrwt>0</asrwt>
<pdfrwt beam="1">  1        1 0.59199628E-02 0.30000000E+03</pdfrwt>
<pdfrwt beam="2">0</pdfrwt>
<totfact> 0.15691332E+03</totfact>
</mgrwt>
</event>
<event>
 6    1  0.1956957E-002  0.3000000E+03  0.7818608E-02  0.1093470E+00
          3   -1    0    0  502    0  0.00000000000E+00  0.00000000000E+00  0.20825661454E+01  0.20825661454E+01  0.00000000000E+00 0.  1.
         13   -1    0    0    0    0 -0.00000000000E+00 -0.00000000000E+00 -0.10000000000E+04  0.10000000000E+04  0.00000000000E+00 0.  1.
    9000005    2    1    2  501    0  0.21677203772E+02 -0.39386472400E+02 -0.41693980901E+03  0.41936805977E+03  0.30935167065E+01 0.  0.
         13    1    3    3    0    0  0.50603057520E-01  0.42090070415E-01 -0.14883229883E+01  0.14897776884E+01  0.00000000000E+00 0.  1.
          3    1    3    3  501    0  0.21626600715E+02 -0.39428562470E+02 -0.41545148602E+03  0.41787828208E+03  0.00000000000E+00 0.  1.
         21    1    1    2  502  501 -0.21677203772E+02  0.39386472400E+02 -0.58097762485E+03  0.58271450638E+03  0.00000000000E+00 0.  1.
<mgrwt>
<rscale>  1 0.30000000E+03</rscale>
<asrwt>0</asrwt>
<pdfrwt beam="1">  1        3 0.75729838E-02 0.30000000E+03</pdfrwt>
<pdfrwt beam="2">0</pdfrwt>
<totfact> 0.51717165E+02</totfact>
</mgrwt>
</event>
<event>
 6    1  0.1956957E-002  0.3000000E+03  0.7818608E-02  0.1093470E+00
          3   -1    0    0  502    0  0.00000000000E+00  0.00000000000E+00  0.50776027162E+01  0.50776027162E+01  0.00000000000E+00 0.  1.
         13   -1    0    0    0    0 -0.00000000000E+00 -0.00000000000E+00 -0.10000000000E+04  0.10000000000E+04  0.00000000000E+00 0.  1.
    9000005    2    1    2  501    0  0.38558280617E+02  0.25167222820E+02 -0.88081645553E+03  0.88203169237E+03  0.47061565393E+01 0.  0.
         13    1    3    3    0    0  0.26433801444E+02  0.19776786385E+02 -0.63270286378E+03  0.63356355717E+03  0.00000000000E+00 0.  1.
          3    1    3    3  501    0  0.12124479173E+02  0.53904364346E+01 -0.24811359175E+03  0.24846813520E+03  0.00000000000E+00 0.  1.
         21    1    1    2  502  501 -0.38558280617E+02 -0.25167222820E+02 -0.11410594175E+03  0.12304591034E+03  0.00000000000E+00 0.  1.
<mgrwt>
<rscale>  1 0.30000000E+03</rscale>
<asrwt>0</asrwt>
<pdfrwt beam="1">  1        3 0.18464049E-01 0.30000000E+03</pdfrwt>
<pdfrwt beam="2">0</pdfrwt>
<totfact> 0.11544427E+02</totfact>
</mgrwt>
</event>
<event>
 6    1  0.1956957E-002  0.3000000E+03  0.7818608E-02  0.1093470E+00
          1   -1    0    0  502    0  0.00000000000E+00  0.00000000000E+00  0.85493383569E+01  0.85493383569E+01  0.00000000000E+00 0.  1.
         13   -1    0    0    0    0 -0.00000000000E+00 -0.00000000000E+00 -0.10000000000E+04  0.10000000000E+04  0.00000000000E+00 0.  1.
    9000005    2    1    2  501    0 -0.11155542861E+02 -0.70295718441E+02 -0.81749306131E+03  0.82059407538E+03  0.37144432578E+01 0.  0.
         13    1    3    3    0    0 -0.72695738679E+01 -0.50533388044E+02 -0.56856140262E+03  0.57084896301E+03  0.00000000000E+00 0.  1.
          3    1    3    3  501    0 -0.38859689929E+01 -0.19762330396E+02 -0.24893165869E+03  0.24974511237E+03  0.00000000000E+00 0.  1.
         21    1    1    2  502  501  0.11155542861E+02  0.70295718441E+02 -0.17395760033E+03  0.18795526298E+03  0.00000000000E+00 0.  1.
<mgrwt>
<rscale>  1 0.30000000E+03</rscale>
<asrwt>0</asrwt>
<pdfrwt beam="1">  1        1 0.31088569E-01 0.30000000E+03</pdfrwt>
<pdfrwt beam="2">0</pdfrwt>
<totfact> 0.16435161E+02</totfact>
</mgrwt>
</event>
<event>
 6    1  0.1956957E-002  0.3000000E+03  0.7818608E-02  0.1093470E+00
          3   -1    0    0  502    0  0.00000000000E+00  0.00000000000E+00  0.22358215234E+01  0.22358215234E+01  0.00000000000E+00 0.  1.
         13   -1    0    0    0    0 -0.00000000000E+00 -0.00000000000E+00 -0.10000000000E+04  0.10000000000E+04  0.00000000000E+00 0.  1.
    9000005    2    1    2  501    0  0.32701165507E+01  0.46676902019E+02 -0.56706589168E+03  0.56900327300E+03  0.34018144738E+01 0.  0.
         13    1    3    3    0    0  0.30708136888E-01  0.19325818571E+02 -0.24642277182E+03  0.24717943013E+03  0.00000000000E+00 0.  1.
          1    1    3    3  501    0  0.32394084138E+01  0.27351083449E+02 -0.32064311985E+03  0.32182384287E+03  0.00000000000E+00 0.  1.
         21    1    1    2  502  501 -0.32701165507E+01 -0.46676902019E+02 -0.43069828680E+03  0.43323254852E+03  0.00000000000E+00 0.  1.
<mgrwt>
<rscale>  1 0.30000000E+03</rscale>
<asrwt>0</asrwt>
<pdfrwt beam="1">  1        3 0.81302772E-02 0.30000000E+03</pdfrwt>
<pdfrwt beam="2">0</pdfrwt>
<totfact> 0.46184000E+02</totfact>
</mgrwt>
</event>
<event>
 6    1  0.1956957E-002  0.3000000E+03  0.7818608E-02  0.1093470E+00
          1   -1    0    0  502    0  0.00000000000E+00  0.00000000000E+00  0.26019352842E+01  0.26019352842E+01  0.00000000000E+00 0.  1.
         13   -1    0    0    0    0 -0.00000000000E+00 -0.00000000000E+00 -0.10000000000E+04  0.10000000000E+04  0.00000000000E+00 0.  1.
    9000005    2    1    2  501    0 -0.34157617628E+02 -0.14150170709E+02 -0.84346247270E+03  0.84428852251E+03  0.52150000758E+01 0.  0.
         13    1    3    3    0    0 -0.26000012178E+01 -0.13586364197E+01 -0.10561182121E+03  0.10565255643E+03  0.00000000000E+00 0.  1.
          1    1    3    3  501    0 -0.31557616410E+02 -0.12791534289E+02 -0.73785065148E+03  0.73863596609E+03  0.00000000000E+00 0.  1.
         21    1    1    2  502  501  0.34157617628E+02  0.14150170709E+02 -0.15393559202E+03  0.15831341277E+03  0.00000000000E+00 0.  1.
<mgrwt>
<rscale>  1 0.30000000E+03</rscale>
<asrwt>0</asrwt>
<pdfrwt beam="1">  1        1 0.94616028E-02 0.30000000E+03</pdfrwt>
<pdfrwt beam="2">0</pdfrwt>
<totfact> 0.81583179E+02</totfact>
</mgrwt>
</event>
<event>
 6    1  0.1956957E-002  0.3000000E+03  0.7818608E-02  0.1093470E+00
          1   -1    0    0  502    0  0.00000000000E+00  0.00000000000E+00  0.17088732571E+01  0.17088732571E+01  0.00000000000E+00 0.  1.
         13   -1    0    0    0    0 -0.00000000000E+00 -0.00000000000E+00 -0.10000000000E+04  0.10000000000E+04  0.00000000000E+00 0.  1.
    9000005    2    1    2  501    0 -0.20423564067E+02 -0.29432601011E+02 -0.25117518748E+03  0.25373452432E+03  0.29722135431E+01 0.  0.
         13    1    3    3    0    0 -0.16383945509E+02 -0.21365592386E+02 -0.18908363272E+03  0.19099094840E+03  0.00000000000E+00 0.  1.
          1    1    3    3  501    0 -0.40396185576E+01 -0.80670086251E+01 -0.62091554758E+02  0.62743575914E+02  0.00000000000E+00 0.  1.
         21    1    1    2  502  501  0.20423564067E+02  0.29432601011E+02 -0.74711593926E+03  0.74797434894E+03  0.00000000000E+00 0.  1.
<mgrwt>
<rscale>  1 0.30000000E+03</rscale>
<asrwt>0</asrwt>
<pdfrwt beam="1">  1        1 0.62140977E-02 0.30000000E+03</pdfrwt>
<pdfrwt beam="2">0</pdfrwt>
<totfact> 0.14659635E+03</totfact>
</mgrwt>
</event>
<event>
 6    1  0.1956957E-002  0.3000000E+03  0.7818608E-02  0.1093470E+00
          1   -1    0    0  502    0  0.00000000000E+00  0.00000000000E+00  0.44411221562E+02  0.44411221562E+02  0.00000000000E+00 0.  1.
         13   -1    0    0    0    0 -0.00000000000E+00 -0.00000000000E+00 -0.10000000000E+04  0.10000000000E+04  0.00000000000E+00 0.  1.
    9000005    2    1    2  501    0  0.60721693052E+02 -0.14300135525E+02 -0.97655099112E+03  0.97860064305E+03  0.10759295145E+02 0.  0.
         13    1    3    3    0    0  0.10392992821E+02 -0.59196436239E+01 -0.22728226804E+03  0.22759676150E+03  0.00000000000E+00 0.  1.
          3    1    3    3  501    0  0.50328700231E+02 -0.83804919012E+01 -0.74926872309E+03  0.75100388156E+03  0.00000000000E+00 0.  1.
         21    1    1    2  502  501 -0.60721693052E+02  0.14300135525E+02  0.20962212686E+02  0.65810578510E+02  0.00000000000E+00 0.  1.
<mgrwt>
<rscale>  1 0.30000000E+03</rscale>
<asrwt>0</asrwt>
<pdfrwt beam="1">  1        1 0.16149569E+00 0.30000000E+03</pdfrwt>
<pdfrwt beam="2">0</pdfrwt>
<totfact> 0.15731954E+01</totfact>
</mgrwt>
</event>
<event>
 6    1  0.1956957E-002  0.3000000E+03  0.7818608E-02  0.1093470E+00
          1   -1    0    0  502    0  0.00000000000E+00  0.00000000000E+00  0.30986358307E+01  0.30986358307E+01  0.00000000000E+00 0.  1.
         13   -1    0    0    0    0 -0.00000000000E+00 -0.00000000000E+00 -0.10000000000E+04  0.10000000000E+04  0.00000000000E+00 0.  1.
    9000005    2    1    2  501    0 -0.30557767395E+02  0.25499456869E+01 -0.91696256440E+03  0.91748034877E+03  0.30929745567E+01 0.  0.
         13    1    3    3    0    0 -0.20216784705E+02  0.21536319313E+00 -0.60376637793E+03  0.60410479545E+03  0.00000000000E+00 0.  1.
          1    1    3    3  501    0 -0.10340982689E+02  0.23345824938E+01 -0.31319618647E+03  0.31337555332E+03  0.00000000000E+00 0.  1.
         21    1    1    2  502  501  0.30557767395E+02 -0.25499456869E+01 -0.79938799769E+02  0.85618287063E+02  0.00000000000E+00 0.  1.
<mgrwt>
<rscale>  1 0.30000000E+03</rscale>
<asrwt>0</asrwt>
<pdfrwt beam="1">  1        1 0.11267790E-01 0.30000000E+03</pdfrwt>
<pdfrwt beam="2">0</pdfrwt>
<totfact> 0.64123168E+02</totfact>
</mgrwt>
</event>
<event>
 6    1  0.1956957E-002  0.3000000E+03  0.7818608E-02  0.1093470E+00
          1   -1    0    0  502    0  0.00000000000E+00  0.00000000000E+00  0.15459269903E+02  0.15459269903E+02  0.00000000000E+00 0.  1.
         13   -1    0    0    0    0 -0.00000000000E+00 -0.00000000000E+00 -0.10000000000E+04  0.10000000000E+04  0.00000000000E+00 0.  1.
    9000005    2    1    2  501    0  0.73148862889E+02 -0.76077560868E+02 -0.76059735069E+03  0.76789273624E+03  0.35175396574E+01 0.  0.
         13    1    3    3    0    0  0.32731814020E+02 -0.31922027936E+02 -0.33619957815E+03  0.33929418484E+03  0.00000000000E+00 0.  1.
          1    1    3    3  501    0  0.40417048868E+02 -0.44155532932E+02 -0.42439777254E+03  0.42859855140E+03  0.00000000000E+00 0.  1.
         21    1    1    2  502  501 -0.73148862889E+02  0.76077560868E+02 -0.22394337941E+03  0.24756653366E+03  0.00000000000E+00 0.  1.
<mgrwt>
<rscale>  1 0.30000000E+03</rscale>
<asrwt>0</asrwt>
<pdfrwt beam="1">  1        1 0.56215645E-01 0.30000000E+03</pdfrwt>
<pdfrwt beam="2">0</pdfrwt>
<totfact> 0.75603895E+01</totfact>
</mgrwt>
</event>
<event>
 6    1  0.1956957E-002  0.3000000E+03  0.7818608E-02  0.1093470E+00
          3   -1    0    0  502    0  0.00000000000E+00  0.00000000000E+00  0.11582384376E+01  0.11582384376E+01  0.00000000000E+00 0.  1.
         13   -1    0    0    0    0 -0.00000000000E+00 -0.00000000000E+00 -0.10000000000E+04  0.10000000000E+04  0.00000000000E+00 0.  1.
    9000005    2    1    2  501    0 -0.49583433650E+01 -0.32916636552E+02 -0.59805007696E+03  0.59898655298E+03  0.35924891082E+01 0.  0.
         13    1    3    3    0    0 -0.20746881649E+01 -0.23066471508E+02 -0.39772450805E+03  0.39839823135E+03  0.00000000000E+00 0.  1.
          3    1    3    3  501    0 -0.28836552001E+01 -0.98501650448E+01 -0.20032556891E+03  0.20058832164E+03  0.00000000000E+00 0.  1.
         21    1    1    2  502  501  0.49583433650E+01  0.32916636552E+02 -0.40079168461E+03  0.40217168545E+03  0.00000000000E+00 0.  1.
<mgrwt>
<rscale>  1 0.30000000E+03</rscale>
<asrwt>0</asrwt>
<pdfrwt beam="1">  1        3 0.42117850E-02 0.30000000E+03</pdfrwt>
<pdfrwt beam="2">0</pdfrwt>
<totfact> 0.12889493E+03</totfact>
</mgrwt>
</event>
<event>
 6    1  0.1956957E-002  0.3000000E+03  0.7818608E-02  0.1093470E+00
          1   -1    0    0  502    0  0.00000000000E+00  0.00000000000E+00  0.31893388526E+02  0.31893388526E+02  0.00000000000E+00 0.  1.
         13   -1    0    0    0    0 -0.00000000000E+00 -0.00000000000E+00 -0.10000000000E+04  0.10000000000E+04  0.00000000000E+00 0.  1.
    9000005    2    1    2  501    0  0.66801049337E+02 -0.68230410642E+02 -0.92004649532E+03  0.92499369772E+03  0.31651457091E+01 0.  0.
         13    1    3    3    0    0  0.30376650736E+02 -0.30942792333E+02 -0.43309173536E+03  0.43525699138E+03  0.00000000000E+00 0.  1.
          1    1    3    3  501    0  0.36424398601E+02 -0.37287618309E+02 -0.48695475996E+03  0.48973670634E+03  0.00000000000E+00 0.  1.
         21    1    1    2  502  501 -0.66801049337E+02  0.68230410642E+02 -0.48060116153E+02  0.10689969080E+03  0.00000000000E+00 0.  1.
<mgrwt>
<rscale>  1 0.30000000E+03</rscale>
<asrwt>0</asrwt>
<pdfrwt beam="1">  1        1 0.11597620E+00 0.30000000E+03</pdfrwt>
<pdfrwt beam="2">0</pdfrwt>
<totfact> 0.27407763E+01</totfact>
</mgrwt>
</event>
<event>
 6    1  0.1956957E-002  0.3000000E+03  0.7818608E-02  0.1093470E+00
          3   -1    0    0  502    0  0.00000000000E+00  0.00000000000E+00  0.15059266709E+01  0.15059266709E+01  0.00000000000E+00 0.  1.
         13   -1    0    0    0    0 -0.00000000000E+00 -0.00000000000E+00 -0.10000000000E+04  0.10000000000E+04  0.00000000000E+00 0.  1.
    9000005    2    1    2  501    0  0.97022880683E+01  0.31560782734E+02 -0.75376289054E+03  0.75455741133E+03  0.10400693959E+02 0.  0.
         13    1    3    3    0    0  0.10856077285E+02  0.24529111034E+02 -0.52654492440E+03  0.52722773933E+03  0.00000000000E+00 0.  1.
          1    1    3    3  501    0 -0.11537892170E+01  0.70316717000E+01 -0.22721796613E+03  0.22732967200E+03  0.00000000000E+00 0.  1.
         21    1    1    2  502  501 -0.97022880683E+01 -0.31560782734E+02 -0.24473118279E+03  0.24694851534E+03  0.00000000000E+00 0.  1.
<mgrwt>
<rscale>  1 0.30000000E+03</rscale>
<asrwt>0</asrwt>
<pdfrwt beam="1">  1        3 0.54761085E-02 0.30000000E+03</pdfrwt>
<pdfrwt beam="2">0</pdfrwt>
<totfact> 0.85958611E+02</totfact>
</mgrwt>
</event>
<event>
 6    1  0.1956957E-002  0.3000000E+03  0.7818608E-02  0.1093470E+00
          1   -1    0    0  502    0  0.00000000000E+00  0.00000000000E+00  0.32352898905E+01  0.32352898905E+01  0.00000000000E+00 0.  1.
         13   -1    0    0    0    0 -0.00000000000E+00 -0.00000000000E+00 -0.10000000000E+04  0.10000000000E+04  0.00000000000E+00 0.  1.
    9000005    2    1    2  501    0  0.36593966339E+02 -0.21980671604E+01 -0.88183322788E+03  0.88259866412E+03  0.25710363354E+01 0.  0.
         13    1    3    3    0    0  0.17140969224E+01 -0.21615854974E+00 -0.56359790278E+02  0.56386264400E+02  0.00000000000E+00 0.  1.
          3    1    3    3  501    0  0.34879869416E+02 -0.19819086106E+01 -0.82547343760E+03  0.82621239972E+03  0.00000000000E+00 0.  1.
         21    1    1    2  502  501 -0.36593966339E+02  0.21980671604E+01 -0.11493148223E+03  0.12063662578E+03  0.00000000000E+00 0.  1.
<mgrwt>
<rscale>  1 0.30000000E+03</rscale>
<asrwt>0</asrwt>
<pdfrwt beam="1">  1        1 0.11764715E-01 0.30000000E+03</pdfrwt>
<pdfrwt beam="2">0</pdfrwt>
<totfact> 0.60436016E+02</totfact>
</mgrwt>
</event>
<event>
 6    1  0.1956957E-002  0.3000000E+03  0.7818608E-02  0.1093470E+00
          3   -1    0    0  502    0  0.00000000000E+00  0.00000000000E+00  0.14274092296E+01  0.14274092296E+01  0.00000000000E+00 0.  1.
         13   -1    0    0    0    0 -0.00000000000E+00 -0.00000000000E+00 -0.10000000000E+04  0.10000000000E+04  0.00000000000E+00 0.  1.
    9000005    2    1    2  501    0  0.33343648654E+02 -0.17378274638E+02 -0.46153544412E+03  0.46307557241E+03  0.31962853378E+01 0.  0.
         13    1    3    3    0    0  0.24554267257E+02 -0.13020397583E+02 -0.35741772842E+03  0.35849668811E+03  0.00000000000E+00 0.  1.
          3    1    3    3  501    0  0.87893813968E+01 -0.43578770546E+01 -0.10411771570E+03  0.10457888430E+03  0.00000000000E+00 0.  1.
         21    1    1    2  502  501 -0.33343648654E+02  0.17378274638E+02 -0.53703714665E+03  0.53835183682E+03  0.00000000000E+00 0.  1.
<mgrwt>
<rscale>  1 0.30000000E+03</rscale>
<asrwt>0</asrwt>
<pdfrwt beam="1">  1        3 0.51905900E-02 0.30000000E+03</pdfrwt>
<pdfrwt beam="2">0</pdfrwt>
<totfact> 0.93384877E+02</totfact>
</mgrwt>
</event>
<event>
 6    1  0.1956957E-002  0.3000000E+03  0.7818608E-02  0.1093470E+00
          1   -1    0    0  502    0  0.00000000000E+00  0.00000000000E+00  0.11997950427E+01  0.11997950427E+01  0.00000000000E+00 0.  1.
         13   -1    0    0    0    0 -0.00000000000E+00 -0.00000000000E+00 -0.10000000000E+04  0.10000000000E+04  0.00000000000E+00 0.  1.
    9000005    2    1    2  501    0  0.34229375428E+02  0.45449657839E+01 -0.52016159922E+03  0.52131728675E+03  0.33641213848E+01 0.  0.
         13    1    3    3    0    0  0.27528826096E+02  0.40928640333E+01 -0.43666875207E+03  0.43755478153E+03  0.00000000000E+00 0.  1.
          3    1    3    3  501    0  0.67005493316E+01  0.45210175066E+00 -0.83492847141E+02  0.83762505222E+02  0.00000000000E+00 0.  1.
         21    1    1    2  502  501 -0.34229375428E+02 -0.45449657839E+01 -0.47863860574E+03  0.47988250829E+03  0.00000000000E+00 0.  1.
<mgrwt>
<rscale>  1 0.30000000E+03</rscale>
<asrwt>0</asrwt>
<pdfrwt beam="1">  1        1 0.43629003E-02 0.30000000E+03</pdfrwt>
<pdfrwt beam="2">0</pdfrwt>
<totfact> 0.24095695E+03</totfact>
</mgrwt>
</event>
<event>
 6    1  0.1956957E-002  0.3000000E+03  0.7818608E-02  0.1093470E+00
          1   -1    0    0  502    0  0.00000000000E+00  0.00000000000E+00  0.18636332983E+01  0.18636332983E+01  0.00000000000E+00 0.  1.
         13   -1    0    0    0    0 -0.00000000000E+00 -0.00000000000E+00 -0.10000000000E+04  0.10000000000E+04  0.00000000000E+00 0.  1.
    9000005    2    1    2  501    0  0.49282778489E+01 -0.32377452970E+02 -0.82478430801E+03  0.82544502987E+03  0.42136933882E+01 0.  0.
         13    1    3    3    0    0  0.46200575610E+01 -0.29354966041E+02 -0.71209330224E+03  0.71271307695E+03  0.00000000000E+00 0.  1.
          1    1    3    3  501    0  0.30822028784E+00 -0.30224869293E+01 -0.11269100577E+03  0.11273195291E+03  0.00000000000E+00 0.  1.
         21    1    1    2  502  501 -0.49282778489E+01  0.32377452970E+02 -0.17335205870E+03  0.17641860343E+03  0.00000000000E+00 0.  1.
<mgrwt>
<rscale>  1 0.30000000E+03</rscale>
<asrwt>0</asrwt>
<pdfrwt beam="1">  1        1 0.67768626E-02 0.30000000E+03</pdfrwt>
<pdfrwt beam="2">0</pdfrwt>
<totfact> 0.12983348E+03</totfact>
</mgrwt>
</event>
<event>
 6    1  0.1956957E-002  0.3000000E+03  0.7818608E-02  0.1093470E+00
          1   -1    0    0  502    0  0.00000000000E+00  0.00000000000E+00  0.43288843358E+01  0.43288843358E+01  0.00000000000E+00 0.  1.
         13   -1    0    0    0    0 -0.00000000000E+00 -0.00000000000E+00 -0.10000000000E+04  0.10000000000E+04  0.00000000000E+00 0.  1.
    9000005    2    1    2  501    0 -0.17543706269E+02 -0.50709512890E+02 -0.78821038698E+03  0.79004124990E+03  0.32134200707E+01 0.  0.
         13    1    3    3    0    0 -0.57829457415E+01 -0.18588766103E+02 -0.26536314065E+03  0.26607626934E+03  0.00000000000E+00 0.  1.
          1    1    3    3  501    0 -0.11760760528E+02 -0.32120746786E+02 -0.52284724633E+03  0.52396498056E+03  0.00000000000E+00 0.  1.
         21    1    1    2  502  501  0.17543706269E+02  0.50709512890E+02 -0.20746072868E+03  0.21428763444E+03  0.00000000000E+00 0.  1.
<mgrwt>
<rscale>  1 0.30000000E+03</rscale>
<asrwt>0</asrwt>
<pdfrwt beam="1">  1        1 0.15741431E-01 0.30000000E+03</pdfrwt>
<pdfrwt beam="2">0</pdfrwt>
<totfact> 0.40632912E+02</totfact>
</mgrwt>
</event>
<event>
 6    1  0.1956957E-002  0.3000000E+03  0.7818608E-02  0.1093470E+00
          1   -1    0    0  502    0  0.00000000000E+00  0.00000000000E+00  0.39512609568E+02  0.39512609568E+02  0.00000000000E+00 0.  1.
         13   -1    0    0    0    0 -0.00000000000E+00 -0.00000000000E+00 -0.10000000000E+04  0.10000000000E+04  0.00000000000E+00 0.  1.
    9000005    2    1    2  501    0  0.18803339222E+03 -0.38771944840E+02 -0.34629924963E+03  0.39601677228E+03  0.68039208286E+01 0.  0.
         13    1    3    3    0    0  0.97465157698E+02 -0.19938943701E+02 -0.17243420542E+03  0.19907429176E+03  0.00000000000E+00 0.  1.
          3    1    3    3  501    0  0.90568234527E+02 -0.18833001139E+02 -0.17386504421E+03  0.19694248052E+03  0.00000000000E+00 0.  1.
         21    1    1    2  502  501 -0.18803339222E+03  0.38771944840E+02 -0.61418814081E+03  0.64349583729E+03  0.00000000000E+00 0.  1.
<mgrwt>
<rscale>  1 0.30000000E+03</rscale>
<asrwt>0</asrwt>
<pdfrwt beam="1">  1        1 0.14368252E+00 0.30000000E+03</pdfrwt>
<pdfrwt beam="2">0</pdfrwt>
<totfact> 0.19357490E+01</totfact>
</mgrwt>
</event>
<event>
 6    1  0.1956957E-002  0.3000000E+03  0.7818608E-02  0.1093470E+00
          1   -1    0    0  502    0  0.00000000000E+00  0.00000000000E+00  0.11425164628E+02  0.11425164628E+02  0.00000000000E+00 0.  1.
         13   -1    0    0    0    0 -0.00000000000E+00 -0.00000000000E+00 -0.10000000000E+04  0.10000000000E+04  0.00000000000E+00 0.  1.
    9000005    2    1    2  501    0  0.36611634252E+02 -0.55060747478E+02 -0.89159645286E+03  0.89405010616E+03  0.30430082247E+01 0.  0.
         13    1    3    3    0    0  0.12043201053E+02 -0.20666612374E+02 -0.31725391125E+03  0.31815435210E+03  0.00000000000E+00 0.  1.
          3    1    3    3  501    0  0.24568433199E+02 -0.34394135104E+02 -0.57434254161E+03  0.57589575406E+03  0.00000000000E+00 0.  1.
         21    1    1    2  502  501 -0.36611634252E+02  0.55060747478E+02 -0.96978382513E+02  0.11737505847E+03  0.00000000000E+00 0.  1.
<mgrwt>
<rscale>  1 0.30000000E+03</rscale>
<asrwt>0</asrwt>
<pdfrwt beam="1">  1        1 0.41546141E-01 0.30000000E+03</pdfrwt>
<pdfrwt beam="2">0</pdfrwt>
<totfact> 0.11248689E+02</totfact>
</mgrwt>
</event>
<event>
 6    1  0.1956957E-002  0.3000000E+03  0.7818608E-02  0.1093470E+00
          1   -1    0    0  502    0  0.00000000000E+00  0.00000000000E+00  0.93634807527E+01  0.93634807527E+01  0.00000000000E+00 0.  1.
         13   -1    0    0    0    0 -0.00000000000E+00 -0.00000000000E+00 -0.10000000000E+04  0.10000000000E+04  0.00000000000E+00 0.  1.
    9000005    2    1    2  501    0 -0.84992933882E+02  0.32509999985E+02 -0.66673706800E+03  0.67292395658E+03  0.27630746268E+01 0.  0.
         13    1    3    3    0    0 -0.16129938544E+02  0.56968056703E+01 -0.13276917416E+03  0.13386665799E+03  0.00000000000E+00 0.  1.
          3    1    3    3  501    0 -0.68862995339E+02  0.26813194315E+02 -0.53396789384E+03  0.53905729859E+03  0.00000000000E+00 0.  1.
         21    1    1    2  502  501  0.84992933882E+02 -0.32509999985E+02 -0.32389945124E+03  0.33643952417E+03  0.00000000000E+00 0.  1.
<mgrwt>
<rscale>  1 0.30000000E+03</rscale>
<asrwt>0</asrwt>
<pdfrwt beam="1">  1        1 0.34049093E-01 0.30000000E+03</pdfrwt>
<pdfrwt beam="2">0</pdfrwt>
<totfact> 0.14588292E+02</totfact>
</mgrwt>
</event>
<event>
 6    1  0.1956957E-002  0.3000000E+03  0.7818608E-02  0.1093470E+00
          1   -1    0    0  502    0  0.00000000000E+00  0.00000000000E+00  0.24205196463E+01  0.24205196463E+01  0.00000000000E+00 0.  1.
         13   -1    0    0    0    0 -0.00000000000E+00 -0.00000000000E+00 -0.10000000000E+04  0.10000000000E+04  0.00000000000E+00 0.  1.
    9000005    2    1    2  501    0 -0.18872717659E+02  0.45276829343E+02 -0.50663768360E+03  0.50903424243E+03  0.52864708295E+01 0.  0.
         13    1    3    3    0    0 -0.11365636573E+02  0.33439522340E+02 -0.36092384555E+03  0.36264776524E+03  0.00000000000E+00 0.  1.
          1    1    3    3  501    0 -0.75070810858E+01  0.11837307003E+02 -0.14571383805E+03  0.14638647719E+03  0.00000000000E+00 0.  1.
         21    1    1    2  502  501  0.18872717659E+02 -0.45276829343E+02 -0.49094179675E+03  0.49338627722E+03  0.00000000000E+00 0.  1.
<mgrwt>
<rscale>  1 0.30000000E+03</rscale>
<asrwt>0</asrwt>
<pdfrwt beam="1">  1        1 0.88019082E-02 0.30000000E+03</pdfrwt>
<pdfrwt beam="2">0</pdfrwt>
<totfact> 0.90178992E+02</totfact>
</mgrwt>
</event>
<event>
 6    1  0.1956957E-002  0.3000000E+03  0.7818608E-02  0.1093470E+00
          1   -1    0    0  502    0  0.00000000000E+00  0.00000000000E+00  0.32689014279E+01  0.32689014279E+01  0.00000000000E+00 0.  1.
         13   -1    0    0    0    0 -0.00000000000E+00 -0.00000000000E+00 -0.10000000000E+04  0.10000000000E+04  0.00000000000E+00 0.  1.
    9000005    2    1    2  501    0 -0.15669557697E+01  0.43709759949E+02 -0.82124060812E+03  0.82241008714E+03  0.30358763654E+01 0.  0.
         13    1    3    3    0    0 -0.77510242382E+00  0.28377172436E+01 -0.61962783838E+02  0.62032572120E+02  0.00000000000E+00 0.  1.
          3    1    3    3  501    0 -0.79185334588E+00  0.40872042705E+02 -0.75927782428E+03  0.76037751502E+03  0.00000000000E+00 0.  1.
         21    1    1    2  502  501  0.15669557697E+01 -0.43709759949E+02 -0.17549049045E+03  0.18085881428E+03  0.00000000000E+00 0.  1.
<mgrwt>
<rscale>  1 0.30000000E+03</rscale>
<asrwt>0</asrwt>
<pdfrwt beam="1">  1        1 0.11886939E-01 0.30000000E+03</pdfrwt>
<pdfrwt beam="2">0</pdfrwt>
<totfact> 0.59585540E+02</totfact>
</mgrwt>
</event>
<event>
 6    1  0.1956957E-002  0.3000000E+03  0.7818608E-02  0.1093470E+00
          1   -1    0    0  502    0  0.00000000000E+00  0.00000000000E+00  0.73729838165E+01  0.73729838165E+01  0.00000000000E+00 0.  1.
         13   -1    0    0    0    0 -0.00000000000E+00 -0.00000000000E+00 -0.10000000000E+04  0.10000000000E+04  0.00000000000E+00 0.  1.
    9000005    2    1    2  501    0  0.40632756695E+02  0.31790731350E+02 -0.89890474340E+03  0.90038917227E+03  0.30417636720E+01 0.  0.
         13    1    3    3    0    0  0.23840111356E+02  0.16744398161E+02 -0.50442191337E+03  0.50526249858E+03  0.00000000000E+00 0.  1.
          1    1    3    3  501    0  0.16792645339E+02  0.15046333189E+02 -0.39448283003E+03  0.39512667369E+03  0.00000000000E+00 0.  1.
         21    1    1    2  502  501 -0.40632756695E+02 -0.31790731350E+02 -0.93722272787E+02  0.10698381155E+03  0.00000000000E+00 0.  1.
<mgrwt>
<rscale>  1 0.30000000E+03</rscale>
<asrwt>0</asrwt>
<pdfrwt beam="1">  1        1 0.26810907E-01 0.30000000E+03</pdfrwt>
<pdfrwt beam="2">0</pdfrwt>
<totfact> 0.19962892E+02</totfact>
</mgrwt>
</event>
<event>
 6    1  0.1956957E-002  0.3000000E+03  0.7818608E-02  0.1093470E+00
          1   -1    0    0  502    0  0.00000000000E+00  0.00000000000E+00  0.21815711037E+01  0.21815711037E+01  0.00000000000E+00 0.  1.
         13   -1    0    0    0    0 -0.00000000000E+00 -0.00000000000E+00 -0.10000000000E+04  0.10000000000E+04  0.00000000000E+00 0.  1.
    9000005    2    1    2  501    0 -0.65202106598E+01  0.45701212626E+02 -0.55280859132E+03  0.55478368385E+03  0.75155334195E+01 0.  0.
         13    1    3    3    0    0 -0.33543248656E+01  0.33471060415E+02 -0.43534713996E+03  0.43664481636E+03  0.00000000000E+00 0.  1.
          3    1    3    3  501    0 -0.31658857942E+01  0.12230152211E+02 -0.11746145136E+03  0.11813886748E+03  0.00000000000E+00 0.  1.
         21    1    1    2  502  501  0.65202106598E+01 -0.45701212626E+02 -0.44500983758E+03  0.44739788726E+03  0.00000000000E+00 0.  1.
<mgrwt>
<rscale>  1 0.30000000E+03</rscale>
<asrwt>0</asrwt>
<pdfrwt beam="1">  1        1 0.79330026E-02 0.30000000E+03</pdfrwt>
<pdfrwt beam="2">0</pdfrwt>
<totfact> 0.10419734E+03</totfact>
</mgrwt>
</event>
<event>
 6    1  0.1956957E-002  0.3000000E+03  0.7818608E-02  0.1093470E+00
          1   -1    0    0  502    0  0.00000000000E+00  0.00000000000E+00  0.18163452090E+01  0.18163452090E+01  0.00000000000E+00 0.  1.
         13   -1    0    0    0    0 -0.00000000000E+00 -0.00000000000E+00 -0.10000000000E+04  0.10000000000E+04  0.00000000000E+00 0.  1.
    9000005    2    1    2  501    0 -0.36003041020E+02 -0.14494790316E+02 -0.70503209626E+03  0.70610676779E+03  0.31926244723E+01 0.  0.
         13    1    3    3    0    0 -0.24722991065E+02 -0.11460641928E+02 -0.48564200256E+03  0.48640592847E+03  0.00000000000E+00 0.  1.
          3    1    3    3  501    0 -0.11280049955E+02 -0.30341483874E+01 -0.21939009370E+03  0.21970083932E+03  0.00000000000E+00 0.  1.
         21    1    1    2  502  501  0.36003041020E+02  0.14494790316E+02 -0.29315155853E+03  0.29570957742E+03  0.00000000000E+00 0.  1.
<mgrwt>
<rscale>  1 0.30000000E+03</rscale>
<asrwt>0</asrwt>
<pdfrwt beam="1">  1        1 0.66049056E-02 0.30000000E+03</pdfrwt>
<pdfrwt beam="2">0</pdfrwt>
<totfact> 0.13458947E+03</totfact>
</mgrwt>
</event>
<event>
 6    1  0.1956957E-002  0.3000000E+03  0.7818608E-02  0.1093470E+00
          1   -1    0    0  502    0  0.00000000000E+00  0.00000000000E+00  0.11088609537E+01  0.11088609537E+01  0.00000000000E+00 0.  1.
         13   -1    0    0    0    0 -0.00000000000E+00 -0.00000000000E+00 -0.10000000000E+04  0.10000000000E+04  0.00000000000E+00 0.  1.
    9000005    2    1    2  501    0  0.23984935822E+02 -0.19564360133E+02 -0.68157180383E+03  0.68228351403E+03  0.35536485818E+01 0.  0.
         13    1    3    3    0    0  0.78119521959E+01 -0.85778116449E+01 -0.25019500068E+03  0.25046385730E+03  0.00000000000E+00 0.  1.
          3    1    3    3  501    0  0.16172983626E+02 -0.10986548488E+02 -0.43137680314E+03  0.43181965673E+03  0.00000000000E+00 0.  1.
         21    1    1    2  502  501 -0.23984935822E+02  0.19564360133E+02 -0.31731933522E+03  0.31882534692E+03  0.00000000000E+00 0.  1.
<mgrwt>
<rscale>  1 0.30000000E+03</rscale>
<asrwt>0</asrwt>
<pdfrwt beam="1">  1        1 0.40322302E-02 0.30000000E+03</pdfrwt>
<pdfrwt beam="2">0</pdfrwt>
<totfact> 0.26923584E+03</totfact>
</mgrwt>
</event>
<event>
 6    1  0.1956957E-002  0.3000000E+03  0.7818608E-02  0.1093470E+00
          1   -1    0    0  502    0  0.00000000000E+00  0.00000000000E+00  0.36818174431E+01  0.36818174431E+01  0.00000000000E+00 0.  1.
         13   -1    0    0    0    0 -0.00000000000E+00 -0.00000000000E+00 -0.10000000000E+04  0.10000000000E+04  0.00000000000E+00 0.  1.
    9000005    2    1    2  501    0 -0.52716861947E+02 -0.10961194303E+02 -0.72943351979E+03  0.73141974051E+03  0.15367839368E+01 0.  0.
         13    1    3    3    0    0 -0.44476442394E+02 -0.92108293638E+01 -0.62267396829E+03  0.62432833036E+03  0.00000000000E+00 0.  1.
          3    1    3    3  501    0 -0.82404195533E+01 -0.17503649395E+01 -0.10675955150E+03  0.10709141015E+03  0.00000000000E+00 0.  1.
         21    1    1    2  502  501  0.52716861947E+02  0.10961194303E+02 -0.26688466277E+03  0.27226207693E+03  0.00000000000E+00 0.  1.
<mgrwt>
<rscale>  1 0.30000000E+03</rscale>
<asrwt>0</asrwt>
<pdfrwt beam="1">  1        1 0.13388455E-01 0.30000000E+03</pdfrwt>
<pdfrwt beam="2">0</pdfrwt>
<totfact> 0.50636761E+02</totfact>
</mgrwt>
</event>
<event>
 6    1  0.1956957E-002  0.3000000E+03  0.7818608E-02  0.1093470E+00
          1   -1    0    0  502    0  0.00000000000E+00  0.00000000000E+00  0.10057483911E+01  0.10057483911E+01  0.00000000000E+00 0.  1.
         13   -1    0    0    0    0 -0.00000000000E+00 -0.00000000000E+00 -0.10000000000E+04  0.10000000000E+04  0.00000000000E+00 0.  1.
    9000005    2    1    2  501    0  0.25675721536E+02 -0.17673242445E+02 -0.58286509695E+03  0.58371081728E+03  0.38743761901E+01 0.  0.
         13    1    3    3    0    0  0.70973450805E+01 -0.68683129106E+01 -0.19776998682E+03  0.19801644810E+03  0.00000000000E+00 0.  1.
          3    1    3    3  501    0  0.18578376455E+02 -0.10804929534E+02 -0.38509511013E+03  0.38569436918E+03  0.00000000000E+00 0.  1.
         21    1    1    2  502  501 -0.25675721536E+02  0.17673242445E+02 -0.41612915466E+03  0.41729493111E+03  0.00000000000E+00 0.  1.
<mgrwt>
<rscale>  1 0.30000000E+03</rscale>
<asrwt>0</asrwt>
<pdfrwt beam="1">  1        1 0.36572746E-02 0.30000000E+03</pdfrwt>
<pdfrwt beam="2">0</pdfrwt>
<totfact> 0.30888654E+03</totfact>
</mgrwt>
</event>
<event>
 6    1  0.1956957E-002  0.3000000E+03  0.7818608E-02  0.1093470E+00
          1   -1    0    0  502    0  0.00000000000E+00  0.00000000000E+00  0.46623244883E+01  0.46623244883E+01  0.00000000000E+00 0.  1.
         13   -1    0    0    0    0 -0.00000000000E+00 -0.00000000000E+00 -0.10000000000E+04  0.10000000000E+04  0.00000000000E+00 0.  1.
    9000005    2    1    2  501    0 -0.30641047018E+02  0.54254926242E+02 -0.70259285056E+03  0.70535979640E+03  0.36411448525E+01 0.  0.
         13    1    3    3    0    0 -0.16474086248E+02  0.28203893871E+02 -0.34836728995E+03  0.34989516123E+03  0.00000000000E+00 0.  1.
          1    1    3    3  501    0 -0.14166960770E+02  0.26051032371E+02 -0.35422556061E+03  0.35546463517E+03  0.00000000000E+00 0.  1.
         21    1    1    2  502  501  0.30641047018E+02 -0.54254926242E+02 -0.29274482495E+03  0.29930252809E+03  0.00000000000E+00 0.  1.
<mgrwt>
<rscale>  1 0.30000000E+03</rscale>
<asrwt>0</asrwt>
<pdfrwt beam="1">  1        1 0.16953943E-01 0.30000000E+03</pdfrwt>
<pdfrwt beam="2">0</pdfrwt>
<totfact> 0.36755178E+02</totfact>
</mgrwt>
</event>
<event>
 6    1  0.1956957E-002  0.3000000E+03  0.7818608E-02  0.1093470E+00
          1   -1    0    0  502    0  0.00000000000E+00  0.00000000000E+00  0.40030577393E+01  0.40030577393E+01  0.00000000000E+00 0.  1.
         13   -1    0    0    0    0 -0.00000000000E+00 -0.00000000000E+00 -0.10000000000E+04  0.10000000000E+04  0.00000000000E+00 0.  1.
    9000005    2    1    2  501    0  0.23652142150E+02  0.22940712055E+02 -0.92634515402E+03  0.92695066191E+03  0.60402930713E+01 0.  0.
         13    1    3    3    0    0  0.68869656689E+01  0.10511238072E+02 -0.32118115472E+03  0.32142689771E+03  0.00000000000E+00 0.  1.
          3    1    3    3  501    0  0.16765176482E+02  0.12429473984E+02 -0.60516399930E+03  0.60552376420E+03  0.00000000000E+00 0.  1.
         21    1    1    2  502  501 -0.23652142150E+02 -0.22940712055E+02 -0.69651788237E+02  0.77052395826E+02  0.00000000000E+00 0.  1.
<mgrwt>
<rscale>  1 0.30000000E+03</rscale>
<asrwt>0</asrwt>
<pdfrwt beam="1">  1        1 0.14556604E-01 0.30000000E+03</pdfrwt>
<pdfrwt beam="2">0</pdfrwt>
<totfact> 0.45185121E+02</totfact>
</mgrwt>
</event>
<event>
 6    1  0.1956957E-002  0.3000000E+03  0.7818608E-02  0.1093470E+00
          3   -1    0    0  502    0  0.00000000000E+00  0.00000000000E+00  0.12176477362E+01  0.12176477362E+01  0.00000000000E+00 0.  1.
         13   -1    0    0    0    0 -0.00000000000E+00 -0.00000000000E+00 -0.10000000000E+04  0.10000000000E+04  0.00000000000E+00 0.  1.
    9000005    2    1    2  501    0  0.86517435947E+01  0.30285039617E+02 -0.71337642524E+03  0.71407904101E+03  0.33040022426E+01 0.  0.
         13    1    3    3    0    0  0.58847259380E+01  0.20602092874E+02 -0.44911360789E+03  0.44962440883E+03  0.00000000000E+00 0.  1.
          1    1    3    3  501    0  0.27670176567E+01  0.96829467434E+01 -0.26426281735E+03  0.26445463217E+03  0.00000000000E+00 0.  1.
         21    1    1    2  502  501 -0.86517435947E+01 -0.30285039617E+02 -0.28540592703E+03  0.28713860673E+03  0.00000000000E+00 0.  1.
<mgrwt>
<rscale>  1 0.30000000E+03</rscale>
<asrwt>0</asrwt>
<pdfrwt beam="1">  1        3 0.44278193E-02 0.30000000E+03</pdfrwt>
<pdfrwt beam="2">0</pdfrwt>
<totfact> 0.11934766E+03</totfact>
</mgrwt>
</event>
<event>
 6    1  0.1956957E-002  0.3000000E+03  0.7818608E-02  0.1093470E+00
          1   -1    0    0  502    0  0.00000000000E+00  0.00000000000E+00  0.33522162893E+01  0.33522162893E+01  0.00000000000E+00 0.  1.
         13   -1    0    0    0    0 -0.00000000000E+00 -0.00000000000E+00 -0.10000000000E+04  0.10000000000E+04  0.00000000000E+00 0.  1.
    9000005    2    1    2  501    0 -0.29770090214E+02  0.70776596301E+01 -0.92390688009E+03  0.92443713157E+03  0.66132899899E+01 0.  0.
         13    1    3    3    0    0  0.96628196669E-01 -0.10536198737E+00 -0.51592813954E+00  0.53536903342E+00  0.00000000000E+00 0.  1.
          1    1    3    3  501    0 -0.29866718410E+02  0.71830216175E+01 -0.92339095195E+03  0.92390176254E+03  0.00000000000E+00 0.  1.
         21    1    1    2  502  501  0.29770090214E+02 -0.70776596301E+01 -0.72740903617E+02  0.78915084719E+02  0.00000000000E+00 0.  1.
<mgrwt>
<rscale>  1 0.30000000E+03</rscale>
<asrwt>0</asrwt>
<pdfrwt beam="1">  1        1 0.12189903E-01 0.30000000E+03</pdfrwt>
<pdfrwt beam="2">0</pdfrwt>
<totfact> 0.57565035E+02</totfact>
</mgrwt>
</event>
<event>
 6    1  0.1956957E-002  0.3000000E+03  0.7818608E-02  0.1093470E+00
          1   -1    0    0  502    0  0.00000000000E+00  0.00000000000E+00  0.12442159852E+01  0.12442159852E+01  0.00000000000E+00 0.  1.
         13   -1    0    0    0    0 -0.00000000000E+00 -0.00000000000E+00 -0.10000000000E+04  0.10000000000E+04  0.00000000000E+00 0.  1.
    9000005    2    1    2  501    0 -0.15648954526E+02 -0.28511426101E+02 -0.31018421284E+03  0.31190496726E+03  0.35597069166E+01 0.  0.
         13    1    3    3    0    0 -0.10692268458E+02 -0.21989164586E+02 -0.24114614267E+03  0.24238256969E+03  0.00000000000E+00 0.  1.
          3    1    3    3  501    0 -0.49566860681E+01 -0.65222615144E+01 -0.69038070172E+02  0.69522397579E+02  0.00000000000E+00 0.  1.
         21    1    1    2  502  501  0.15648954526E+02  0.28511426101E+02 -0.68857157117E+03  0.68933924872E+03  0.00000000000E+00 0.  1.
<mgrwt>
<rscale>  1 0.30000000E+03</rscale>
<asrwt>0</asrwt>
<pdfrwt beam="1">  1        1 0.45244313E-02 0.30000000E+03</pdfrwt>
<pdfrwt beam="2">0</pdfrwt>
<totfact> 0.22893722E+03</totfact>
</mgrwt>
</event>
<event>
 6    1  0.1956957E-002  0.3000000E+03  0.7818608E-02  0.1093470E+00
          1   -1    0    0  502    0  0.00000000000E+00  0.00000000000E+00  0.36513751153E+01  0.36513751153E+01  0.00000000000E+00 0.  1.
         13   -1    0    0    0    0 -0.00000000000E+00 -0.00000000000E+00 -0.10000000000E+04  0.10000000000E+04  0.00000000000E+00 0.  1.
    9000005    2    1    2  501    0 -0.30198464710E+02 -0.18089485364E+02 -0.90597272309E+03  0.90666178610E+03  0.31372990357E+01 0.  0.
         13    1    3    3    0    0 -0.18637891359E+02 -0.12917354196E+02 -0.58079790673E+03  0.58124043002E+03  0.00000000000E+00 0.  1.
          1    1    3    3  501    0 -0.11560573351E+02 -0.51721311679E+01 -0.32517481636E+03  0.32542135608E+03  0.00000000000E+00 0.  1.
         21    1    1    2  502  501  0.30198464710E+02  0.18089485364E+02 -0.90375901797E+02  0.96989589014E+02  0.00000000000E+00 0.  1.
<mgrwt>
<rscale>  1 0.30000000E+03</rscale>
<asrwt>0</asrwt>
<pdfrwt beam="1">  1        1 0.13277756E-01 0.30000000E+03</pdfrwt>
<pdfrwt beam="2">0</pdfrwt>
<totfact> 0.51213710E+02</totfact>
</mgrwt>
</event>
<event>
 6    1  0.1956957E-002  0.3000000E+03  0.7818608E-02  0.1093470E+00
          3   -1    0    0  502    0  0.00000000000E+00  0.00000000000E+00  0.37144613292E+01  0.37144613292E+01  0.00000000000E+00 0.  1.
         13   -1    0    0    0    0 -0.00000000000E+00 -0.00000000000E+00 -0.10000000000E+04  0.10000000000E+04  0.00000000000E+00 0.  1.
    9000005    2    1    2  501    0 -0.21383112466E+02 -0.43642181499E+02 -0.80073695300E+03  0.80221724829E+03  0.33118045754E+01 0.  0.
         13    1    3    3    0    0 -0.96833785548E+01 -0.16408664354E+02 -0.32422191047E+03  0.32478124841E+03  0.00000000000E+00 0.  1.
          3    1    3    3  501    0 -0.11699733911E+02 -0.27233517145E+02 -0.47651504253E+03  0.47743599988E+03  0.00000000000E+00 0.  1.
         21    1    1    2  502  501  0.21383112466E+02  0.43642181499E+02 -0.19554858567E+03  0.20149721304E+03  0.00000000000E+00 0.  1.
<mgrwt>
<rscale>  1 0.30000000E+03</rscale>
<asrwt>0</asrwt>
<pdfrwt beam="1">  1        3 0.13507161E-01 0.30000000E+03</pdfrwt>
<pdfrwt beam="2">0</pdfrwt>
<totfact> 0.19932138E+02</totfact>
</mgrwt>
</event>
<event>
 6    1  0.1956957E-002  0.3000000E+03  0.7818608E-02  0.1093470E+00
          3   -1    0    0  502    0  0.00000000000E+00  0.00000000000E+00  0.15626368874E+01  0.15626368874E+01  0.00000000000E+00 0.  1.
         13   -1    0    0    0    0 -0.00000000000E+00 -0.00000000000E+00 -0.10000000000E+04  0.10000000000E+04  0.00000000000E+00 0.  1.
    9000005    2    1    2  501    0  0.33357494284E+02  0.20691063036E+02 -0.53430749145E+03  0.53577579692E+03  0.55105929220E+01 0.  0.
         13    1    3    3    0    0  0.20394903456E+02  0.94498247040E+01 -0.30614198979E+03  0.30696607172E+03  0.00000000000E+00 0.  1.
          1    1    3    3  501    0  0.12962590827E+02  0.11241238332E+02 -0.22816550166E+03  0.22880972521E+03  0.00000000000E+00 0.  1.
         21    1    1    2  502  501 -0.33357494284E+02 -0.20691063036E+02 -0.46412987166E+03  0.46578683996E+03  0.00000000000E+00 0.  1.
<mgrwt>
<rscale>  1 0.30000000E+03</rscale>
<asrwt>0</asrwt>
<pdfrwt beam="1">  1        3 0.56823279E-02 0.30000000E+03</pdfrwt>
<pdfrwt beam="2">0</pdfrwt>
<totfact> 0.81165418E+02</totfact>
</mgrwt>
</event>
<event>
 6    1  0.1956957E-002  0.3000000E+03  0.7818608E-02  0.1093470E+00
          1   -1    0    0  502    0  0.00000000000E+00  0.00000000000E+00  0.13659094624E+01  0.13659094624E+01  0.00000000000E+00 0.  1.
         13   -1    0    0    0    0 -0.00000000000E+00 -0.00000000000E+00 -0.10000000000E+04  0.10000000000E+04  0.00000000000E+00 0.  1.
    9000005    2    1    2  501    0 -0.19343204573E+02 -0.31243984997E+02 -0.46266348475E+03  0.46413706025E+03  0.39197463656E+01 0.  0.
         13    1    3    3    0    0 -0.13223037985E+02 -0.24456915776E+02 -0.34263165183E+03  0.34375781926E+03  0.00000000000E+00 0.  1.
          1    1    3    3  501    0 -0.61201665878E+01 -0.67870692206E+01 -0.12003183292E+03  0.12037924099E+03  0.00000000000E+00 0.  1.
         21    1    1    2  502  501  0.19343204573E+02  0.31243984997E+02 -0.53597060579E+03  0.53722884922E+03  0.00000000000E+00 0.  1.
<mgrwt>
<rscale>  1 0.30000000E+03</rscale>
<asrwt>0</asrwt>
<pdfrwt beam="1">  1        1 0.49669540E-02 0.30000000E+03</pdfrwt>
<pdfrwt beam="2">0</pdfrwt>
<totfact> 0.20077876E+03</totfact>
</mgrwt>
</event>
<event>
 6    1  0.1956957E-002  0.3000000E+03  0.7818608E-02  0.1093470E+00
          1   -1    0    0  502    0  0.00000000000E+00  0.00000000000E+00  0.17142416912E+01  0.17142416912E+01  0.00000000000E+00 0.  1.
         13   -1    0    0    0    0 -0.00000000000E+00 -0.00000000000E+00 -0.10000000000E+04  0.10000000000E+04  0.00000000000E+00 0.  1.
    9000005    2    1    2  501    0 -0.13862259389E+02 -0.33428254664E+02 -0.74217277241E+03  0.74305718690E+03  0.19870725670E+01 0.  0.
         13    1    3    3    0    0 -0.10025591204E+02 -0.22292568974E+02 -0.51273890755E+03  0.51332120395E+03  0.00000000000E+00 0.  1.
          1    1    3    3  501    0 -0.38366681850E+01 -0.11135685690E+02 -0.22943386485E+03  0.22973598295E+03  0.00000000000E+00 0.  1.
         21    1    1    2  502  501  0.13862259389E+02  0.33428254664E+02 -0.25611298590E+03  0.25865705479E+03  0.00000000000E+00 0.  1.
<mgrwt>
<rscale>  1 0.30000000E+03</rscale>
<asrwt>0</asrwt>
<pdfrwt beam="1">  1        1 0.62336193E-02 0.30000000E+03</pdfrwt>
<pdfrwt beam="2">0</pdfrwt>
<totfact> 0.14595317E+03</totfact>
</mgrwt>
</event>
<event>
 6    1  0.1956957E-002  0.3000000E+03  0.7818608E-02  0.1093470E+00
          1   -1    0    0  502    0  0.00000000000E+00  0.00000000000E+00  0.50084923004E+01  0.50084923004E+01  0.00000000000E+00 0.  1.
         13   -1    0    0    0    0 -0.00000000000E+00 -0.00000000000E+00 -0.10000000000E+04  0.10000000000E+04  0.00000000000E+00 0.  1.
    9000005    2    1    2  501    0  0.35020627347E+02 -0.61467592730E+02 -0.50249349295E+03  0.50745547620E+03  0.25769313265E+01 0.  0.
         13    1    3    3    0    0  0.32793760699E+02 -0.56542342763E+02 -0.46730839026E+03  0.47185760445E+03  0.00000000000E+00 0.  1.
          3    1    3    3  501    0  0.22268666478E+01 -0.49252499668E+01 -0.35185102687E+02  0.35597871753E+02  0.00000000000E+00 0.  1.
         21    1    1    2  502  501 -0.35020627347E+02  0.61467592730E+02 -0.49249801475E+03  0.49755301610E+03  0.00000000000E+00 0.  1.
<mgrwt>
<rscale>  1 0.30000000E+03</rscale>
<asrwt>0</asrwt>
<pdfrwt beam="1">  1        1 0.18212738E-01 0.30000000E+03</pdfrwt>
<pdfrwt beam="2">0</pdfrwt>
<totfact> 0.33377417E+02</totfact>
</mgrwt>
</event>
<event>
 6    1  0.1956957E-002  0.3000000E+03  0.7818608E-02  0.1093470E+00
          1   -1    0    0  502    0  0.00000000000E+00  0.00000000000E+00  0.15193428073E+01  0.15193428073E+01  0.00000000000E+00 0.  1.
         13   -1    0    0    0    0 -0.00000000000E+00 -0.00000000000E+00 -0.10000000000E+04  0.10000000000E+04  0.00000000000E+00 0.  1.
    9000005    2    1    2  501    0  0.26825206419E+02 -0.26205056986E+02 -0.62140206017E+03  0.62258060759E+03  0.77327782720E+01 0.  0.
         13    1    3    3    0    0  0.15959543392E+02 -0.18379403069E+02 -0.34754700866E+03  0.34839838219E+03  0.00000000000E+00 0.  1.
          1    1    3    3  501    0  0.10865663026E+02 -0.78256539178E+01 -0.27385505151E+03  0.27418222540E+03  0.00000000000E+00 0.  1.
         21    1    1    2  502  501 -0.26825206419E+02  0.26205056986E+02 -0.37707859702E+03  0.37893873521E+03  0.00000000000E+00 0.  1.
<mgrwt>
<rscale>  1 0.30000000E+03</rscale>
<asrwt>0</asrwt>
<pdfrwt beam="1">  1        1 0.55248946E-02 0.30000000E+03</pdfrwt>
<pdfrwt beam="2">0</pdfrwt>
<totfact> 0.17288806E+03</totfact>
</mgrwt>
</event>
<event>
 6    1  0.1956957E-002  0.3000000E+03  0.7818608E-02  0.1093470E+00
          1   -1    0    0  502    0  0.00000000000E+00  0.00000000000E+00  0.15203968188E+01  0.15203968188E+01  0.00000000000E+00 0.  1.
         13   -1    0    0    0    0 -0.00000000000E+00 -0.00000000000E+00 -0.10000000000E+04  0.10000000000E+04  0.00000000000E+00 0.  1.
    9000005    2    1    2  501    0  0.36124866256E+02  0.14030091190E+02 -0.48930015437E+03  0.49086830340E+03  0.59330258623E+01 0.  0.
         13    1    3    3    0    0  0.14297945445E+01  0.42452361644E+00 -0.88368594129E+01  0.89618422785E+01  0.00000000000E+00 0.  1.
          1    1    3    3  501    0  0.34695071712E+02  0.13605567573E+02 -0.48046329495E+03  0.48190646112E+03  0.00000000000E+00 0.  1.
         21    1    1    2  502  501 -0.36124866256E+02 -0.14030091190E+02 -0.50917944882E+03  0.51065209342E+03  0.00000000000E+00 0.  1.
<mgrwt>
<rscale>  1 0.30000000E+03</rscale>
<asrwt>0</asrwt>
<pdfrwt beam="1">  1        1 0.55287274E-02 0.30000000E+03</pdfrwt>
<pdfrwt beam="2">0</pdfrwt>
<totfact> 0.17271979E+03</totfact>
</mgrwt>
</event>
<event>
 6    1  0.1956957E-002  0.3000000E+03  0.7818608E-02  0.1093470E+00
          1   -1    0    0  502    0  0.00000000000E+00  0.00000000000E+00  0.16606280447E+02  0.16606280447E+02  0.00000000000E+00 0.  1.
         13   -1    0    0    0    0 -0.00000000000E+00 -0.00000000000E+00 -0.10000000000E+04  0.10000000000E+04  0.00000000000E+00 0.  1.
    9000005    2    1    2  501    0  0.11048198323E+03 -0.26915875918E+02 -0.73072902581E+03  0.73953195746E+03  0.34458599894E+01 0.  0.
         13    1    3    3    0    0  0.73328295046E+02 -0.16190576018E+02 -0.48324101435E+03  0.48904095080E+03  0.00000000000E+00 0.  1.
          1    1    3    3  501    0  0.37153688181E+02 -0.10725299899E+02 -0.24748801146E+03  0.25049100666E+03  0.00000000000E+00 0.  1.
         21    1    1    2  502  501 -0.11048198323E+03  0.26915875918E+02 -0.25266469374E+03  0.27707432299E+03  0.00000000000E+00 0.  1.
<mgrwt>
<rscale>  1 0.30000000E+03</rscale>
<asrwt>0</asrwt>
<pdfrwt beam="1">  1        1 0.60386602E-01 0.30000000E+03</pdfrwt>
<pdfrwt beam="2">0</pdfrwt>
<totfact> 0.68753740E+01</totfact>
</mgrwt>
</event>
<event>
 6    1  0.1956957E-002  0.3000000E+03  0.7818608E-02  0.1093470E+00
          3   -1    0    0  502    0  0.00000000000E+00  0.00000000000E+00  0.13563980104E+01  0.13563980104E+01  0.00000000000E+00 0.  1.
         13   -1    0    0    0    0 -0.00000000000E+00 -0.00000000000E+00 -0.10000000000E+04  0.10000000000E+04  0.00000000000E+00 0.  1.
    9000005    2    1    2  501    0 -0.30710875905E+02 -0.66021170520E+01 -0.75870089884E+03  0.75936621919E+03  0.48223547339E+01 0.  0.
         13    1    3    3    0    0 -0.64999272774E+01  0.31268836551E+00 -0.18075052441E+03  0.18086762813E+03  0.00000000000E+00 0.  1.
          1    1    3    3  501    0 -0.24210948628E+02 -0.69148054175E+01 -0.57795037442E+03  0.57849859106E+03  0.00000000000E+00 0.  1.
         21    1    1    2  502  501  0.30710875905E+02  0.66021170520E+01 -0.23994270315E+03  0.24199017882E+03  0.00000000000E+00 0.  1.
<mgrwt>
<rscale>  1 0.30000000E+03</rscale>
<asrwt>0</asrwt>
<pdfrwt beam="1">  1        3 0.49323668E-02 0.30000000E+03</pdfrwt>
<pdfrwt beam="2">0</pdfrwt>
<totfact> 0.10104133E+03</totfact>
</mgrwt>
</event>
<event>
 6    1  0.1956957E-002  0.3000000E+03  0.7818608E-02  0.1093470E+00
          1   -1    0    0  502    0  0.00000000000E+00  0.00000000000E+00  0.14646214524E+02  0.14646214524E+02  0.00000000000E+00 0.  1.
         13   -1    0    0    0    0 -0.00000000000E+00 -0.00000000000E+00 -0.10000000000E+04  0.10000000000E+04  0.00000000000E+00 0.  1.
    9000005    2    1    2  501    0  0.38226385402E+02  0.18305043596E+02 -0.96785447333E+03  0.96879256595E+03  0.45191966060E+01 0.  0.
         13    1    3    3    0    0  0.97309162152E+01  0.39815921922E+01 -0.20024307710E+03  0.20051891117E+03  0.00000000000E+00 0.  1.
          1    1    3    3  501    0  0.28495469187E+02  0.14323451403E+02 -0.76761139622E+03  0.76827365478E+03  0.00000000000E+00 0.  1.
         21    1    1    2  502  501 -0.38226385402E+02 -0.18305043596E+02 -0.17499312151E+02  0.45853648575E+02  0.00000000000E+00 0.  1.
<mgrwt>
<rscale>  1 0.30000000E+03</rscale>
<asrwt>0</asrwt>
<pdfrwt beam="1">  1        1 0.53259074E-01 0.30000000E+03</pdfrwt>
<pdfrwt beam="2">0</pdfrwt>
<totfact> 0.81206223E+01</totfact>
</mgrwt>
</event>
<event>
 6    1  0.1956957E-002  0.3000000E+03  0.7818608E-02  0.1093470E+00
          3   -1    0    0  502    0  0.00000000000E+00  0.00000000000E+00  0.39303980010E+01  0.39303980010E+01  0.00000000000E+00 0.  1.
         13   -1    0    0    0    0 -0.00000000000E+00 -0.00000000000E+00 -0.10000000000E+04  0.10000000000E+04  0.00000000000E+00 0.  1.
    9000005    2    1    2  501    0  0.39812516987E+02  0.40333365216E+02 -0.71221653334E+03  0.71447507943E+03  0.32298473006E+01 0.  0.
         13    1    3    3    0    0  0.27217453722E+02  0.25465963382E+02 -0.46266815830E+03  0.46416713561E+03  0.00000000000E+00 0.  1.
          1    1    3    3  501    0  0.12595063265E+02  0.14867401834E+02 -0.24954837503E+03  0.25030794382E+03  0.00000000000E+00 0.  1.
         21    1    1    2  502  501 -0.39812516987E+02 -0.40333365216E+02 -0.28385306866E+03  0.28945531857E+03  0.00000000000E+00 0.  1.
<mgrwt>
<rscale>  1 0.30000000E+03</rscale>
<asrwt>0</asrwt>
<pdfrwt beam="1">  1        3 0.14292387E-01 0.30000000E+03</pdfrwt>
<pdfrwt beam="2">0</pdfrwt>
<totfact> 0.18092409E+02</totfact>
</mgrwt>
</event>
<event>
 6    1  0.1956957E-002  0.3000000E+03  0.7818608E-02  0.1093470E+00
          1   -1    0    0  502    0  0.00000000000E+00  0.00000000000E+00  0.43195517622E+02  0.43195517622E+02  0.00000000000E+00 0.  1.
         13   -1    0    0    0    0 -0.00000000000E+00 -0.00000000000E+00 -0.10000000000E+04  0.10000000000E+04  0.00000000000E+00 0.  1.
    9000005    2    1    2  501    0  0.28729134212E+02  0.89743934990E+02 -0.94325439614E+03  0.94799603308E+03  0.93960561601E+01 0.  0.
         13    1    3    3    0    0  0.99264252751E+01  0.33472388852E+02 -0.39542106095E+03  0.39695938101E+03  0.00000000000E+00 0.  1.
          1    1    3    3  501    0  0.18802708936E+02  0.56271546138E+02 -0.54783333520E+03  0.55103665207E+03  0.00000000000E+00 0.  1.
         21    1    1    2  502  501 -0.28729134212E+02 -0.89743934990E+02 -0.13550086235E+02  0.95199484542E+02  0.00000000000E+00 0.  1.
<mgrwt>
<rscale>  1 0.30000000E+03</rscale>
<asrwt>0</asrwt>
<pdfrwt beam="1">  1        1 0.15707494E+00 0.30000000E+03</pdfrwt>
<pdfrwt beam="2">0</pdfrwt>
<totfact> 0.16549150E+01</totfact>
</mgrwt>
</event>
<event>
 6    1  0.1956957E-002  0.3000000E+03  0.7818608E-02  0.1093470E+00
          1   -1    0    0  502    0  0.00000000000E+00  0.00000000000E+00  0.12798334262E+02  0.12798334262E+02  0.00000000000E+00 0.  1.
         13   -1    0    0    0    0 -0.00000000000E+00 -0.00000000000E+00 -0.10000000000E+04  0.10000000000E+04  0.00000000000E+00 0.  1.
    9000005    2    1    2  501    0 -0.36792041434E+02 -0.72809999594E+02 -0.84440932053E+03  0.84834589675E+03  0.29511999768E+01 0.  0.
         13    1    3    3    0    0 -0.35527521251E+02 -0.70873224157E+02 -0.82445213369E+03  0.82825511735E+03  0.00000000000E+00 0.  1.
          3    1    3    3  501    0 -0.12645201833E+01 -0.19367754367E+01 -0.19957186832E+02  0.20090779393E+02  0.00000000000E+00 0.  1.
         21    1    1    2  502  501  0.36792041434E+02  0.72809999594E+02 -0.14279234521E+03  0.16445243752E+03  0.00000000000E+00 0.  1.
<mgrwt>
<rscale>  1 0.30000000E+03</rscale>
<asrwt>0</asrwt>
<pdfrwt beam="1">  1        1 0.46539495E-01 0.30000000E+03</pdfrwt>
<pdfrwt beam="2">0</pdfrwt>
<totfact> 0.96954358E+01</totfact>
</mgrwt>
</event>
<event>
 6    1  0.1956957E-002  0.3000000E+03  0.7818608E-02  0.1093470E+00
          1   -1    0    0  502    0  0.00000000000E+00  0.00000000000E+00  0.42007602974E+01  0.42007602974E+01  0.00000000000E+00 0.  1.
         13   -1    0    0    0    0 -0.00000000000E+00 -0.00000000000E+00 -0.10000000000E+04  0.10000000000E+04  0.00000000000E+00 0.  1.
    9000005    2    1    2  501    0 -0.41676700802E+02 -0.34112796557E+02 -0.77697768450E+03  0.77884880602E+03  0.32419342200E+01 0.  0.
         13    1    3    3    0    0 -0.14152444432E+02 -0.11394480938E+02 -0.28459850804E+03  0.28517790352E+03  0.00000000000E+00 0.  1.
          3    1    3    3  501    0 -0.27524256370E+02 -0.22718315619E+02 -0.49237917647E+03  0.49367090249E+03  0.00000000000E+00 0.  1.
         21    1    1    2  502  501  0.41676700802E+02  0.34112796557E+02 -0.21882155520E+03  0.22535195428E+03  0.00000000000E+00 0.  1.
<mgrwt>
<rscale>  1 0.30000000E+03</rscale>
<asrwt>0</asrwt>
<pdfrwt beam="1">  1        1 0.15275524E-01 0.30000000E+03</pdfrwt>
<pdfrwt beam="2">0</pdfrwt>
<totfact> 0.42322118E+02</totfact>
</mgrwt>
</event>
<event>
 6    1  0.1956957E-002  0.3000000E+03  0.7818608E-02  0.1093470E+00
          3   -1    0    0  502    0  0.00000000000E+00  0.00000000000E+00  0.22878972445E+01  0.22878972445E+01  0.00000000000E+00 0.  1.
         13   -1    0    0    0    0 -0.00000000000E+00 -0.00000000000E+00 -0.10000000000E+04  0.10000000000E+04  0.00000000000E+00 0.  1.
    9000005    2    1    2  501    0  0.18732484019E+02  0.29480185933E+02 -0.83823234243E+03  0.83902803912E+03  0.10705289341E+02 0.  0.
         13    1    3    3    0    0  0.12012965131E+02  0.21728939955E+02 -0.47252963304E+03  0.47318147921E+03  0.00000000000E+00 0.  1.
          3    1    3    3  501    0  0.67195188878E+01  0.77512459782E+01 -0.36570270939E+03  0.36584655991E+03  0.00000000000E+00 0.  1.
         21    1    1    2  502  501 -0.18732484019E+02 -0.29480185933E+02 -0.15947976033E+03  0.16325985813E+03  0.00000000000E+00 0.  1.
<mgrwt>
<rscale>  1 0.30000000E+03</rscale>
<asrwt>0</asrwt>
<pdfrwt beam="1">  1        3 0.83196439E-02 0.30000000E+03</pdfrwt>
<pdfrwt beam="2">0</pdfrwt>
<totfact> 0.44513061E+02</totfact>
</mgrwt>
</event>
<event>
 6    1  0.1956957E-002  0.3000000E+03  0.7818608E-02  0.1093470E+00
          1   -1    0    0  502    0  0.00000000000E+00  0.00000000000E+00  0.15547969561E+01  0.15547969561E+01  0.00000000000E+00 0.  1.
         13   -1    0    0    0    0 -0.00000000000E+00 -0.00000000000E+00 -0.10000000000E+04  0.10000000000E+04  0.00000000000E+00 0.  1.
    9000005    2    1    2  501    0 -0.33977613712E+02 -0.18695704457E+02 -0.58544466991E+03  0.58673742995E+03  0.33678751018E+01 0.  0.
         13    1    3    3    0    0 -0.27609927656E+02 -0.14938696869E+02 -0.49222911481E+03  0.49322912955E+03  0.00000000000E+00 0.  1.
          3    1    3    3  501    0 -0.63676860558E+01 -0.37570075884E+01 -0.93215555105E+02  0.93508300409E+02  0.00000000000E+00 0.  1.
         21    1    1    2  502  501  0.33977613712E+02  0.18695704457E+02 -0.41300053313E+03  0.41481736700E+03  0.00000000000E+00 0.  1.
<mgrwt>
<rscale>  1 0.30000000E+03</rscale>
<asrwt>0</asrwt>
<pdfrwt beam="1">  1        1 0.56538190E-02 0.30000000E+03</pdfrwt>
<pdfrwt beam="2">0</pdfrwt>
<totfact> 0.16737851E+03</totfact>
</mgrwt>
</event>
<event>
 6    1  0.1956957E-002  0.3000000E+03  0.7818608E-02  0.1093470E+00
          1   -1    0    0  502    0  0.00000000000E+00  0.00000000000E+00  0.39993801270E+01  0.39993801270E+01  0.00000000000E+00 0.  1.
         13   -1    0    0    0    0 -0.00000000000E+00 -0.00000000000E+00 -0.10000000000E+04  0.10000000000E+04  0.00000000000E+00 0.  1.
    9000005    2    1    2  501    0 -0.49867407905E+00  0.30082797418E+02 -0.93949707570E+03  0.93998474211E+03  0.33670128010E+01 0.  0.
         13    1    3    3    0    0 -0.78902231153E+00  0.29892389344E+02 -0.93207900159E+03  0.93255854653E+03  0.00000000000E+00 0.  1.
          3    1    3    3  501    0  0.29034823248E+00  0.19040807343E+00 -0.74180741060E+01  0.74261955787E+01  0.00000000000E+00 0.  1.
         21    1    1    2  502  501  0.49867407905E+00 -0.30082797418E+02 -0.56503544175E+02  0.64014638019E+02  0.00000000000E+00 0.  1.
<mgrwt>
<rscale>  1 0.30000000E+03</rscale>
<asrwt>0</asrwt>
<pdfrwt beam="1">  1        1 0.14543231E-01 0.30000000E+03</pdfrwt>
<pdfrwt beam="2">0</pdfrwt>
<totfact> 0.45241606E+02</totfact>
</mgrwt>
</event>
<event>
 6    1  0.1956957E-002  0.3000000E+03  0.7818608E-02  0.1093470E+00
          3   -1    0    0  502    0  0.00000000000E+00  0.00000000000E+00  0.28818781587E+01  0.28818781587E+01  0.00000000000E+00 0.  1.
         13   -1    0    0    0    0 -0.00000000000E+00 -0.00000000000E+00 -0.10000000000E+04  0.10000000000E+04  0.00000000000E+00 0.  1.
    9000005    2    1    2  501    0  0.31419719048E+02  0.43250072634E+02 -0.45713041638E+03  0.46025448337E+03  0.28643241381E+01 0.  0.
         13    1    3    3    0    0  0.12891334934E+02  0.16451609824E+02 -0.16866895113E+03  0.16995898639E+03  0.00000000000E+00 0.  1.
          3    1    3    3  501    0  0.18528384113E+02  0.26798462810E+02 -0.28846146525E+03  0.29029549697E+03  0.00000000000E+00 0.  1.
         21    1    1    2  502  501 -0.31419719048E+02 -0.43250072634E+02 -0.53998770546E+03  0.54262739479E+03  0.00000000000E+00 0.  1.
<mgrwt>
<rscale>  1 0.30000000E+03</rscale>
<asrwt>0</asrwt>
<pdfrwt beam="1">  1        3 0.10479579E-01 0.30000000E+03</pdfrwt>
<pdfrwt beam="2">0</pdfrwt>
<totfact> 0.30562843E+02</totfact>
</mgrwt>
</event>
<event>
 6    1  0.1956957E-002  0.3000000E+03  0.7818608E-02  0.1093470E+00
          1   -1    0    0  502    0  0.00000000000E+00  0.00000000000E+00  0.16989630958E+01  0.16989630958E+01  0.00000000000E+00 0.  1.
         13   -1    0    0    0    0 -0.00000000000E+00 -0.00000000000E+00 -0.10000000000E+04  0.10000000000E+04  0.00000000000E+00 0.  1.
    9000005    2    1    2  501    0  0.34235592817E+02 -0.21986238342E-01 -0.77739383036E+03  0.77815462699E+03  0.33733863230E+01 0.  0.
         13    1    3    3    0    0  0.68823526847E+01 -0.13329196119E+01 -0.16463648459E+03  0.16478566537E+03  0.00000000000E+00 0.  1.
          1    1    3    3  501    0  0.27353240133E+02  0.13109333735E+01 -0.61275734577E+03  0.61336896162E+03  0.00000000000E+00 0.  1.
         21    1    1    2  502  501 -0.34235592817E+02  0.21986238342E-01 -0.22090720655E+03  0.22354433610E+03  0.00000000000E+00 0.  1.
<mgrwt>
<rscale>  1 0.30000000E+03</rscale>
<asrwt>0</asrwt>
<pdfrwt beam="1">  1        1 0.61780606E-02 0.30000000E+03</pdfrwt>
<pdfrwt beam="2">0</pdfrwt>
<totfact> 0.14779662E+03</totfact>
</mgrwt>
</event>
<event>
 6    1  0.1956957E-002  0.3000000E+03  0.7818608E-02  0.1093470E+00
          1   -1    0    0  502    0  0.00000000000E+00  0.00000000000E+00  0.14112775632E+01  0.14112775632E+01  0.00000000000E+00 0.  1.
         13   -1    0    0    0    0 -0.00000000000E+00 -0.00000000000E+00 -0.10000000000E+04  0.10000000000E+04  0.00000000000E+00 0.  1.
    9000005    2    1    2  501    0  0.30210418915E+02  0.96266712727E+01 -0.76700809686E+03  0.76767012082E+03  0.32636708733E+01 0.  0.
         13    1    3    3    0    0  0.84945759106E+01  0.28117250412E+01 -0.18285198054E+03  0.18307077977E+03  0.00000000000E+00 0.  1.
          3    1    3    3  501    0  0.21715843005E+02  0.68149462314E+01 -0.58415611632E+03  0.58459934106E+03  0.00000000000E+00 0.  1.
         21    1    1    2  502  501 -0.30210418915E+02 -0.96266712727E+01 -0.23158062558E+03  0.23374115674E+03  0.00000000000E+00 0.  1.
<mgrwt>
<rscale>  1 0.30000000E+03</rscale>
<asrwt>0</asrwt>
<pdfrwt beam="1">  1        1 0.51319292E-02 0.30000000E+03</pdfrwt>
<pdfrwt beam="2">0</pdfrwt>
<totfact> 0.19176718E+03</totfact>
</mgrwt>
</event>
<event>
 6    1  0.1956957E-002  0.3000000E+03  0.7818608E-02  0.1093470E+00
          1   -1    0    0  502    0  0.00000000000E+00  0.00000000000E+00  0.79838674025E+01  0.79838674025E+01  0.00000000000E+00 0.  1.
         13   -1    0    0    0    0 -0.00000000000E+00 -0.00000000000E+00 -0.10000000000E+04  0.10000000000E+04  0.00000000000E+00 0.  1.
    9000005    2    1    2  501    0 -0.24577451305E+02  0.43977190463E+02 -0.91223254657E+03  0.91362569344E+03  0.23757743182E+01 0.  0.
         13    1    3    3    0    0 -0.54771982569E+01  0.10460173626E+02 -0.23153927354E+03  0.23184013916E+03  0.00000000000E+00 0.  1.
          3    1    3    3  501    0 -0.19100253048E+02  0.33517016837E+02 -0.68069327303E+03  0.68178555428E+03  0.00000000000E+00 0.  1.
         21    1    1    2  502  501  0.24577451305E+02 -0.43977190463E+02 -0.79783586031E+02  0.94358173964E+02  0.00000000000E+00 0.  1.
<mgrwt>
<rscale>  1 0.30000000E+03</rscale>
<asrwt>0</asrwt>
<pdfrwt beam="1">  1        1 0.29032306E-01 0.30000000E+03</pdfrwt>
<pdfrwt beam="2">0</pdfrwt>
<totfact> 0.17978804E+02</totfact>
</mgrwt>
</event>
<event>
 6    1  0.1956957E-002  0.3000000E+03  0.7818608E-02  0.1093470E+00
          1   -1    0    0  502    0  0.00000000000E+00  0.00000000000E+00  0.16799159903E+01  0.16799159903E+01  0.00000000000E+00 0.  1.
         13   -1    0    0    0    0 -0.00000000000E+00 -0.00000000000E+00 -0.10000000000E+04  0.10000000000E+04  0.00000000000E+00 0.  1.
    9000005    2    1    2  501    0  0.33258114147E+02  0.11542909454E+02 -0.24526977329E+03  0.24780717382E+03  0.34340632911E+01 0.  0.
         13    1    3    3    0    0  0.59354714621E+01  0.34954179218E+01 -0.47778957082E+02  0.48272937634E+02  0.00000000000E+00 0.  1.
          3    1    3    3  501    0  0.27322642685E+02  0.80474915321E+01 -0.19749081621E+03  0.19953423619E+03  0.00000000000E+00 0.  1.
         21    1    1    2  502  501 -0.33258114147E+02 -0.11542909454E+02 -0.75305031072E+03  0.75387274217E+03  0.00000000000E+00 0.  1.
<mgrwt>
<rscale>  1 0.30000000E+03</rscale>
<asrwt>0</asrwt>
<pdfrwt beam="1">  1        1 0.61087983E-02 0.30000000E+03</pdfrwt>
<pdfrwt beam="2">0</pdfrwt>
<totfact> 0.15015173E+03</totfact>
</mgrwt>
</event>
<event>
 6    1  0.1956957E-002  0.3000000E+03  0.7818608E-02  0.1093470E+00
          3   -1    0    0  502    0  0.00000000000E+00  0.00000000000E+00  0.11926214980E+02  0.11926214980E+02  0.00000000000E+00 0.  1.
         13   -1    0    0    0    0 -0.00000000000E+00 -0.00000000000E+00 -0.10000000000E+04  0.10000000000E+04  0.00000000000E+00 0.  1.
    9000005    2    1    2  501    0 -0.57065500587E+02  0.66043972813E+02 -0.79805705671E+03  0.80282185170E+03  0.30954985958E+01 0.  0.
         13    1    3    3    0    0 -0.25535577206E+02  0.31783930442E+02 -0.36791040863E+03  0.37016260307E+03  0.00000000000E+00 0.  1.
          1    1    3    3  501    0 -0.31529923382E+02  0.34260042371E+02 -0.43014664808E+03  0.43265924863E+03  0.00000000000E+00 0.  1.
         21    1    1    2  502  501  0.57065500587E+02 -0.66043972813E+02 -0.19001672832E+03  0.20910436328E+03  0.00000000000E+00 0.  1.
<mgrwt>
<rscale>  1 0.30000000E+03</rscale>
<asrwt>0</asrwt>
<pdfrwt beam="1">  1        3 0.43368146E-01 0.30000000E+03</pdfrwt>
<pdfrwt beam="2">0</pdfrwt>
<totfact> 0.23014143E+01</totfact>
</mgrwt>
</event>
<event>
 6    1  0.1956957E-002  0.3000000E+03  0.7818608E-02  0.1093470E+00
          1   -1    0    0  502    0  0.00000000000E+00  0.00000000000E+00  0.45001101670E+01  0.45001101670E+01  0.00000000000E+00 0.  1.
         13   -1    0    0    0    0 -0.00000000000E+00 -0.00000000000E+00 -0.10000000000E+04  0.10000000000E+04  0.00000000000E+00 0.  1.
    9000005    2    1    2  501    0  0.37754719567E+00 -0.33255962487E+02 -0.93386626926E+03  0.93446579880E+03  0.37441547191E+01 0.  0.
         13    1    3    3    0    0  0.19032357447E+01 -0.22192109248E+02 -0.63913919993E+03  0.63952719169E+03  0.00000000000E+00 0.  1.
          3    1    3    3  501    0 -0.15256885491E+01 -0.11063853240E+02 -0.29472706933E+03  0.29493860712E+03  0.00000000000E+00 0.  1.
         21    1    1    2  502  501 -0.37754719567E+00  0.33255962487E+02 -0.61633620575E+02  0.70034311362E+02  0.00000000000E+00 0.  1.
<mgrwt>
<rscale>  1 0.30000000E+03</rscale>
<asrwt>0</asrwt>
<pdfrwt beam="1">  1        1 0.16364071E-01 0.30000000E+03</pdfrwt>
<pdfrwt beam="2">0</pdfrwt>
<totfact> 0.38555095E+02</totfact>
</mgrwt>
</event>
<event>
 6    1  0.1956957E-002  0.3000000E+03  0.7818608E-02  0.1093470E+00
          1   -1    0    0  502    0  0.00000000000E+00  0.00000000000E+00  0.11258331326E+01  0.11258331326E+01  0.00000000000E+00 0.  1.
         13   -1    0    0    0    0 -0.00000000000E+00 -0.00000000000E+00 -0.10000000000E+04  0.10000000000E+04  0.00000000000E+00 0.  1.
    9000005    2    1    2  501    0  0.31533115499E+02  0.75192925811E+01 -0.61968842323E+03  0.62055690992E+03  0.51243961285E+01 0.  0.
         13    1    3    3    0    0  0.32449220753E+01  0.29973465930E+00 -0.39398569304E+02  0.39533107940E+02  0.00000000000E+00 0.  1.
          1    1    3    3  501    0  0.28288193424E+02  0.72195579218E+01 -0.58028985392E+03  0.58102380198E+03  0.00000000000E+00 0.  1.
         21    1    1    2  502  501 -0.31533115499E+02 -0.75192925811E+01 -0.37918574364E+03  0.38056892321E+03  0.00000000000E+00 0.  1.
<mgrwt>
<rscale>  1 0.30000000E+03</rscale>
<asrwt>0</asrwt>
<pdfrwt beam="1">  1        1 0.40939473E-02 0.30000000E+03</pdfrwt>
<pdfrwt beam="2">0</pdfrwt>
<totfact> 0.26353873E+03</totfact>
</mgrwt>
</event>
<event>
 6    1  0.1956957E-002  0.3000000E+03  0.7818608E-02  0.1093470E+00
          1   -1    0    0  502    0  0.00000000000E+00  0.00000000000E+00  0.91478058914E+00  0.91478058914E+00  0.00000000000E+00 0.  1.
         13   -1    0    0    0    0 -0.00000000000E+00 -0.00000000000E+00 -0.10000000000E+04  0.10000000000E+04  0.00000000000E+00 0.  1.
    9000005    2    1    2  501    0  0.94376064444E+01  0.28655714349E+02 -0.51642549697E+03  0.51731305804E+03  0.26995784342E+01 0.  0.
         13    1    3    3    0    0  0.16834083601E+01  0.66623845121E+01 -0.13593920093E+03  0.13611277523E+03  0.00000000000E+00 0.  1.
          1    1    3    3  501    0  0.77541980843E+01  0.21993329837E+02 -0.38048629603E+03  0.38120028281E+03  0.00000000000E+00 0.  1.
         21    1    1    2  502  501 -0.94376064444E+01 -0.28655714349E+02 -0.48265972245E+03  0.48360172255E+03  0.00000000000E+00 0.  1.
<mgrwt>
<rscale>  1 0.30000000E+03</rscale>
<asrwt>0</asrwt>
<pdfrwt beam="1">  1        1 0.33264819E-02 0.30000000E+03</pdfrwt>
<pdfrwt beam="2">0</pdfrwt>
<totfact> 0.35294098E+03</totfact>
</mgrwt>
</event>
<event>
 6    1  0.1956957E-002  0.3000000E+03  0.7818608E-02  0.1093470E+00
          1   -1    0    0  502    0  0.00000000000E+00  0.00000000000E+00  0.18582989863E+02  0.18582989863E+02  0.00000000000E+00 0.  1.
         13   -1    0    0    0    0 -0.00000000000E+00 -0.00000000000E+00 -0.10000000000E+04  0.10000000000E+04  0.00000000000E+00 0.  1.
    9000005    2    1    2  501    0  0.10956480349E+03  0.80946916067E+02 -0.47442211221E+03  0.49360615618E+03  0.37212196475E+01 0.  0.
         13    1    3    3    0    0  0.16043558771E+02  0.11079454670E+02 -0.63846394223E+02  0.66757113098E+02  0.00000000000E+00 0.  1.
          1    1    3    3  501    0  0.93521244722E+02  0.69867461396E+02 -0.41057571799E+03  0.42684904308E+03  0.00000000000E+00 0.  1.
         21    1    1    2  502  501 -0.10956480349E+03 -0.80946916067E+02 -0.50699489792E+03  0.52497683369E+03  0.00000000000E+00 0.  1.
<mgrwt>
<rscale>  1 0.30000000E+03</rscale>
<asrwt>0</asrwt>
<pdfrwt beam="1">  1        1 0.67574651E-01 0.30000000E+03</pdfrwt>
<pdfrwt beam="2">0</pdfrwt>
<totfact> 0.59141218E+01</totfact>
</mgrwt>
</event>
<event>
 6    1  0.1956957E-002  0.3000000E+03  0.7818608E-02  0.1093470E+00
          1   -1    0    0  502    0  0.00000000000E+00  0.00000000000E+00  0.52824481959E+01  0.52824481959E+01  0.00000000000E+00 0.  1.
         13   -1    0    0    0    0 -0.00000000000E+00 -0.00000000000E+00 -0.10000000000E+04  0.10000000000E+04  0.00000000000E+00 0.  1.
    9000005    2    1    2  501    0 -0.41382606614E+02  0.48689379152E+01 -0.90914742126E+03  0.91010643269E+03  0.29083587341E+01 0.  0.
         13    1    3    3    0    0 -0.20019873177E+02  0.37316967858E+01 -0.45417570746E+03  0.45463204257E+03  0.00000000000E+00 0.  1.
          1    1    3    3  501    0 -0.21362733437E+02  0.11372411294E+01 -0.45497171380E+03  0.45547439012E+03  0.00000000000E+00 0.  1.
         21    1    1    2  502  501  0.41382606614E+02 -0.48689379152E+01 -0.85570130546E+02  0.95176015509E+02  0.00000000000E+00 0.  1.
<mgrwt>
<rscale>  1 0.30000000E+03</rscale>
<asrwt>0</asrwt>
<pdfrwt beam="1">  1        1 0.19208943E-01 0.30000000E+03</pdfrwt>
<pdfrwt beam="2">0</pdfrwt>
<totfact> 0.31075916E+02</totfact>
</mgrwt>
</event>
<event>
 6    1  0.1956957E-002  0.3000000E+03  0.7818608E-02  0.1093470E+00
          1   -1    0    0  502    0  0.00000000000E+00  0.00000000000E+00  0.66945748633E+01  0.66945748633E+01  0.00000000000E+00 0.  1.
         13   -1    0    0    0    0 -0.00000000000E+00 -0.00000000000E+00 -0.10000000000E+04  0.10000000000E+04  0.00000000000E+00 0.  1.
    9000005    2    1    2  501    0  0.10129014808E+02  0.33911141881E+02 -0.95044884580E+03  0.95111356302E+03  0.33821298863E+01 0.  0.
         13    1    3    3    0    0  0.81074788515E+01  0.21495277595E+02 -0.61454450608E+03  0.61497376215E+03  0.00000000000E+00 0.  1.
          1    1    3    3  501    0  0.20215359568E+01  0.12415864286E+02 -0.33590433971E+03  0.33613980087E+03  0.00000000000E+00 0.  1.
         21    1    1    2  502  501 -0.10129014808E+02 -0.33911141881E+02 -0.42856579341E+02  0.55581011842E+02  0.00000000000E+00 0.  1.
<mgrwt>
<rscale>  1 0.30000000E+03</rscale>
<asrwt>0</asrwt>
<pdfrwt beam="1">  1        1 0.24343960E-01 0.30000000E+03</pdfrwt>
<pdfrwt beam="2">0</pdfrwt>
<totfact> 0.22676693E+02</totfact>
</mgrwt>
</event>
<event>
 6    1  0.1956957E-002  0.3000000E+03  0.7818608E-02  0.1093470E+00
          1   -1    0    0  502    0  0.00000000000E+00  0.00000000000E+00  0.40238993865E+01  0.40238993865E+01  0.00000000000E+00 0.  1.
         13   -1    0    0    0    0 -0.00000000000E+00 -0.00000000000E+00 -0.10000000000E+04  0.10000000000E+04  0.00000000000E+00 0.  1.
    9000005    2    1    2  501    0 -0.12291973568E+02 -0.30350875061E+02 -0.92787903843E+03  0.92846281080E+03  0.33782893979E+01 0.  0.
         13    1    3    3    0    0 -0.90521881431E+00 -0.25692521830E+01 -0.54802141594E+02  0.54869802270E+02  0.00000000000E+00 0.  1.
          1    1    3    3  501    0 -0.11386754754E+02 -0.27781622878E+02 -0.87307689684E+03  0.87359300853E+03  0.00000000000E+00 0.  1.
         21    1    1    2  502  501  0.12291973568E+02  0.30350875061E+02 -0.68097062182E+02  0.75561088590E+02  0.00000000000E+00 0.  1.
<mgrwt>
<rscale>  1 0.30000000E+03</rscale>
<asrwt>0</asrwt>
<pdfrwt beam="1">  1        1 0.14632392E-01 0.30000000E+03</pdfrwt>
<pdfrwt beam="2">0</pdfrwt>
<totfact> 0.44867349E+02</totfact>
</mgrwt>
</event>
<event>
 6    1  0.1956957E-002  0.3000000E+03  0.7818608E-02  0.1093470E+00
          1   -1    0    0  502    0  0.00000000000E+00  0.00000000000E+00  0.34315551202E+01  0.34315551202E+01  0.00000000000E+00 0.  1.
         13   -1    0    0    0    0 -0.00000000000E+00 -0.00000000000E+00 -0.10000000000E+04  0.10000000000E+04  0.00000000000E+00 0.  1.
    9000005    2    1    2  501    0 -0.21445166799E+02  0.38780205267E+02 -0.82473393717E+03  0.82597480676E+03  0.91931919748E+01 0.  0.
         13    1    3    3    0    0 -0.96680436549E+01  0.23339500347E+02 -0.53006671472E+03  0.53066837610E+03  0.00000000000E+00 0.  1.
          1    1    3    3  501    0 -0.11777123144E+02  0.15440704920E+02 -0.29466722245E+03  0.29530643065E+03  0.00000000000E+00 0.  1.
         21    1    1    2  502  501  0.21445166799E+02 -0.38780205267E+02 -0.17183450771E+03  0.17745674836E+03  0.00000000000E+00 0.  1.
<mgrwt>
<rscale>  1 0.30000000E+03</rscale>
<asrwt>0</asrwt>
<pdfrwt beam="1">  1        1 0.12478409E-01 0.30000000E+03</pdfrwt>
<pdfrwt beam="2">0</pdfrwt>
<totfact> 0.55749893E+02</totfact>
</mgrwt>
</event>
<event>
 6    1  0.1956957E-002  0.3000000E+03  0.7818608E-02  0.1093470E+00
          1   -1    0    0  502    0  0.00000000000E+00  0.00000000000E+00  0.20324565026E+01  0.20324565026E+01  0.00000000000E+00 0.  1.
         13   -1    0    0    0    0 -0.00000000000E+00 -0.00000000000E+00 -0.10000000000E+04  0.10000000000E+04  0.00000000000E+00 0.  1.
    9000005    2    1    2  501    0  0.42399872406E+01 -0.40930998995E+02 -0.70297811613E+03  0.70418671383E+03  0.27151435318E+01 0.  0.
         13    1    3    3    0    0  0.18329106403E+01 -0.15259326859E+02 -0.28492094794E+03  0.28533515941E+03  0.00000000000E+00 0.  1.
          1    1    3    3  501    0  0.24070766003E+01 -0.25671672136E+02 -0.41805716819E+03  0.41885155442E+03  0.00000000000E+00 0.  1.
         21    1    1    2  502  501 -0.42399872406E+01  0.40930998995E+02 -0.29498942737E+03  0.29784574267E+03  0.00000000000E+00 0.  1.
<mgrwt>
<rscale>  1 0.30000000E+03</rscale>
<asrwt>0</asrwt>
<pdfrwt beam="1">  1        1 0.73907665E-02 0.30000000E+03</pdfrwt>
<pdfrwt beam="2">0</pdfrwt>
<totfact> 0.11501105E+03</totfact>
</mgrwt>
</event>
<event>
 6    1  0.1956957E-002  0.3000000E+03  0.7818608E-02  0.1093470E+00
          1   -1    0    0  502    0  0.00000000000E+00  0.00000000000E+00  0.13552871726E+01  0.13552871726E+01  0.00000000000E+00 0.  1.
         13   -1    0    0    0    0 -0.00000000000E+00 -0.00000000000E+00 -0.10000000000E+04  0.10000000000E+04  0.00000000000E+00 0.  1.
    9000005    2    1    2  501    0  0.25012047070E+02  0.18433440019E+02 -0.76289842036E+03  0.76357028213E+03  0.77576903241E+01 0.  0.
         13    1    3    3    0    0  0.14042686950E+02  0.13724991269E+02 -0.40985323587E+03  0.41032334493E+03  0.00000000000E+00 0.  1.
          3    1    3    3  501    0  0.10969360120E+02  0.47084487505E+01 -0.35304518449E+03  0.35324693720E+03  0.00000000000E+00 0.  1.
         21    1    1    2  502  501 -0.25012047070E+02 -0.18433440019E+02 -0.23574629247E+03  0.23778500504E+03  0.00000000000E+00 0.  1.
<mgrwt>
<rscale>  1 0.30000000E+03</rscale>
<asrwt>0</asrwt>
<pdfrwt beam="1">  1        1 0.49283274E-02 0.30000000E+03</pdfrwt>
<pdfrwt beam="2">0</pdfrwt>
<totfact> 0.20299438E+03</totfact>
</mgrwt>
</event>
<event>
 6    1  0.1956957E-002  0.3000000E+03  0.7818608E-02  0.1093470E+00
          1   -1    0    0  502    0  0.00000000000E+00  0.00000000000E+00  0.19533623826E+01  0.19533623826E+01  0.00000000000E+00 0.  1.
         13   -1    0    0    0    0 -0.00000000000E+00 -0.00000000000E+00 -0.10000000000E+04  0.10000000000E+04  0.00000000000E+00 0.  1.
    9000005    2    1    2  501    0  0.32238793197E+02 -0.71998122425E+01 -0.83149894190E+03  0.83216139546E+03  0.33046373485E+01 0.  0.
         13    1    3    3    0    0  0.13853848428E+02 -0.29916956445E+01 -0.31641339556E+03  0.31673066831E+03  0.00000000000E+00 0.  1.
          3    1    3    3  501    0  0.18384944769E+02 -0.42081165980E+01 -0.51508554634E+03  0.51543072715E+03  0.00000000000E+00 0.  1.
         21    1    1    2  502  501 -0.32238793197E+02  0.71998122425E+01 -0.16654769572E+03  0.16979196693E+03  0.00000000000E+00 0.  1.
<mgrwt>
<rscale>  1 0.30000000E+03</rscale>
<asrwt>0</asrwt>
<pdfrwt beam="1">  1        1 0.71031509E-02 0.30000000E+03</pdfrwt>
<pdfrwt beam="2">0</pdfrwt>
<totfact> 0.12156928E+03</totfact>
</mgrwt>
</event>
<event>
 6    1  0.1956957E-002  0.3000000E+03  0.7818608E-02  0.1093470E+00
          3   -1    0    0  502    0  0.00000000000E+00  0.00000000000E+00  0.13912221487E+01  0.13912221487E+01  0.00000000000E+00 0.  1.
         13   -1    0    0    0    0 -0.00000000000E+00 -0.00000000000E+00 -0.10000000000E+04  0.10000000000E+04  0.00000000000E+00 0.  1.
    9000005    2    1    2  501    0 -0.10211257058E+02  0.32827302216E+02 -0.69196317695E+03  0.69282449339E+03  0.32922412218E+01 0.  0.
         13    1    3    3    0    0 -0.14636632150E+01  0.23592311497E+01 -0.67968388507E+02  0.68025069775E+02  0.00000000000E+00 0.  1.
          3    1    3    3  501    0 -0.87475938430E+01  0.30468071066E+02 -0.62399478844E+03  0.62479942362E+03  0.00000000000E+00 0.  1.
         21    1    1    2  502  501  0.10211257058E+02 -0.32827302216E+02 -0.30664560090E+03  0.30856672875E+03  0.00000000000E+00 0.  1.
<mgrwt>
<rscale>  1 0.30000000E+03</rscale>
<asrwt>0</asrwt>
<pdfrwt beam="1">  1        3 0.50590003E-02 0.30000000E+03</pdfrwt>
<pdfrwt beam="2">0</pdfrwt>
<totfact> 0.97163620E+02</totfact>
</mgrwt>
</event>
<event>
 6    1  0.1956957E-002  0.3000000E+03  0.7818608E-02  0.1093470E+00
          3   -1    0    0  502    0  0.00000000000E+00  0.00000000000E+00  0.15476450655E+01  0.15476450655E+01  0.00000000000E+00 0.  1.
         13   -1    0    0    0    0 -0.00000000000E+00 -0.00000000000E+00 -0.10000000000E+04  0.10000000000E+04  0.00000000000E+00 0.  1.
    9000005    2    1    2  501    0  0.15530989807E+02  0.27822415100E+02 -0.79194113208E+03  0.79259266525E+03  0.41325410342E+01 0.  0.
         13    1    3    3    0    0  0.14636579924E+02  0.27235550526E+02 -0.74845982752E+03  0.74909820324E+03  0.00000000000E+00 0.  1.
          1    1    3    3  501    0  0.89440988348E+00  0.58686457457E+00 -0.43481304564E+02  0.43494462012E+02  0.00000000000E+00 0.  1.
         21    1    1    2  502  501 -0.15530989807E+02 -0.27822415100E+02 -0.20651122285E+03  0.20895497982E+03  0.00000000000E+00 0.  1.
<mgrwt>
<rscale>  1 0.30000000E+03</rscale>
<asrwt>0</asrwt>
<pdfrwt beam="1">  1        3 0.56278121E-02 0.30000000E+03</pdfrwt>
<pdfrwt beam="2">0</pdfrwt>
<totfact> 0.82390413E+02</totfact>
</mgrwt>
</event>
<event>
 6    1  0.1956957E-002  0.3000000E+03  0.7818608E-02  0.1093470E+00
          1   -1    0    0  502    0  0.00000000000E+00  0.00000000000E+00  0.15145987261E+01  0.15145987261E+01  0.00000000000E+00 0.  1.
         13   -1    0    0    0    0 -0.00000000000E+00 -0.00000000000E+00 -0.10000000000E+04  0.10000000000E+04  0.00000000000E+00 0.  1.
    9000005    2    1    2  501    0 -0.33622978632E+02  0.18771028682E+02 -0.47038098304E+03  0.47200809946E+03  0.71077800771E+01 0.  0.
         13    1    3    3    0    0 -0.23734664444E+02  0.15988441541E+02 -0.36899051630E+03  0.37009858914E+03  0.00000000000E+00 0.  1.
          3    1    3    3  501    0 -0.98883141881E+01  0.27825871412E+01 -0.10139046674E+03  0.10190951032E+03  0.00000000000E+00 0.  1.
         21    1    1    2  502  501  0.33622978632E+02 -0.18771028682E+02 -0.52810441823E+03  0.52950649927E+03  0.00000000000E+00 0.  1.
<mgrwt>
<rscale>  1 0.30000000E+03</rscale>
<asrwt>0</asrwt>
<pdfrwt beam="1">  1        1 0.55076433E-02 0.30000000E+03</pdfrwt>
<pdfrwt beam="2">0</pdfrwt>
<totfact> 0.17364894E+03</totfact>
</mgrwt>
</event>
<event>
 6    1  0.1956957E-002  0.3000000E+03  0.7818608E-02  0.1093470E+00
          1   -1    0    0  502    0  0.00000000000E+00  0.00000000000E+00  0.12465509879E+01  0.12465509879E+01  0.00000000000E+00 0.  1.
         13   -1    0    0    0    0 -0.00000000000E+00 -0.00000000000E+00 -0.10000000000E+04  0.10000000000E+04  0.00000000000E+00 0.  1.
    9000005    2    1    2  501    0 -0.23277525684E+02  0.21570123046E+02 -0.71798104322E+03  0.71868636755E+03  0.24905960829E+01 0.  0.
         13    1    3    3    0    0 -0.85629595082E+01  0.66225415852E+01 -0.22923298377E+03  0.22948843802E+03  0.00000000000E+00 0.  1.
          3    1    3    3  501    0 -0.14714566176E+02  0.14947581461E+02 -0.48874805945E+03  0.48919792953E+03  0.00000000000E+00 0.  1.
         21    1    1    2  502  501  0.23277525684E+02 -0.21570123046E+02 -0.28077240579E+03  0.28256018344E+03  0.00000000000E+00 0.  1.
<mgrwt>
<rscale>  1 0.30000000E+03</rscale>
<asrwt>0</asrwt>
<pdfrwt beam="1">  1        1 0.45329222E-02 0.30000000E+03</pdfrwt>
<pdfrwt beam="2">0</pdfrwt>
<totfact> 0.22833395E+03</totfact>
</mgrwt>
</event>
<event>
 6    1  0.1956957E-002  0.3000000E+03  0.7818608E-02  0.1093470E+00
          1   -1    0    0  502    0  0.00000000000E+00  0.00000000000E+00  0.16452865475E+01  0.16452865475E+01  0.00000000000E+00 0.  1.
         13   -1    0    0    0    0 -0.00000000000E+00 -0.00000000000E+00 -0.10000000000E+04  0.10000000000E+04  0.00000000000E+00 0.  1.
    9000005    2    1    2  501    0 -0.34277990668E+02 -0.20272859948E+02 -0.40948597581E+03  0.41143146117E+03  0.33336706963E+01 0.  0.
         13    1    3    3    0    0 -0.23647952974E+02 -0.14762749325E+02 -0.30015181679E+03  0.30144365571E+03  0.00000000000E+00 0.  1.
          3    1    3    3  501    0 -0.10630037694E+02 -0.55101106237E+01 -0.10933415902E+03  0.10998780546E+03  0.00000000000E+00 0.  1.
         21    1    1    2  502  501  0.34277990668E+02  0.20272859948E+02 -0.58886873764E+03  0.59021382538E+03  0.00000000000E+00 0.  1.
<mgrwt>
<rscale>  1 0.30000000E+03</rscale>
<asrwt>0</asrwt>
<pdfrwt beam="1">  1        1 0.59828728E-02 0.30000000E+03</pdfrwt>
<pdfrwt beam="2">0</pdfrwt>
<totfact> 0.15460329E+03</totfact>
</mgrwt>
</event>
<event>
 6    1  0.1956957E-002  0.3000000E+03  0.7818608E-02  0.1093470E+00
          1   -1    0    0  502    0  0.00000000000E+00  0.00000000000E+00  0.24546336367E+02  0.24546336367E+02  0.00000000000E+00 0.  1.
         13   -1    0    0    0    0 -0.00000000000E+00 -0.00000000000E+00 -0.10000000000E+04  0.10000000000E+04  0.00000000000E+00 0.  1.
    9000005    2    1    2  501    0 -0.40714066911E+02 -0.10332062786E+03 -0.84905478001E+03  0.85629216802E+03  0.30773638584E+01 0.  0.
         13    1    3    3    0    0 -0.21167344584E+02 -0.56680771017E+02 -0.45415184425E+03  0.45816445073E+03  0.00000000000E+00 0.  1.
          1    1    3    3  501    0 -0.19546722328E+02 -0.46639856840E+02 -0.39490293575E+03  0.39812771728E+03  0.00000000000E+00 0.  1.
         21    1    1    2  502  501  0.40714066911E+02  0.10332062786E+03 -0.12639888363E+03  0.16825416835E+03  0.00000000000E+00 0.  1.
<mgrwt>
<rscale>  1 0.30000000E+03</rscale>
<asrwt>0</asrwt>
<pdfrwt beam="1">  1        1 0.89259593E-01 0.30000000E+03</pdfrwt>
<pdfrwt beam="2">0</pdfrwt>
<totfact> 0.40300570E+01</totfact>
</mgrwt>
</event>
<event>
 6    1  0.1956957E-002  0.3000000E+03  0.7818608E-02  0.1093470E+00
          1   -1    0    0  502    0  0.00000000000E+00  0.00000000000E+00  0.12864886085E+01  0.12864886085E+01  0.00000000000E+00 0.  1.
         13   -1    0    0    0    0 -0.00000000000E+00 -0.00000000000E+00 -0.10000000000E+04  0.10000000000E+04  0.00000000000E+00 0.  1.
    9000005    2    1    2  501    0  0.24223955749E+01 -0.34572562700E+02 -0.37675720460E+03  0.37836532373E+03  0.36327529186E+01 0.  0.
         13    1    3    3    0    0 -0.43276063304E+00 -0.17379967404E+02 -0.17981991285E+03  0.18065838371E+03  0.00000000000E+00 0.  1.
          3    1    3    3  501    0  0.28551562079E+01 -0.17192595296E+02 -0.19693729175E+03  0.19770694002E+03  0.00000000000E+00 0.  1.
         21    1    1    2  502  501 -0.24223955749E+01  0.34572562700E+02 -0.62195630679E+03  0.62292116487E+03  0.00000000000E+00 0.  1.
<mgrwt>
<rscale>  1 0.30000000E+03</rscale>
<asrwt>0</asrwt>
<pdfrwt beam="1">  1        1 0.46781503E-02 0.30000000E+03</pdfrwt>
<pdfrwt beam="2">0</pdfrwt>
<totfact> 0.21842416E+03</totfact>
</mgrwt>
</event>
<event>
 6    1  0.1956957E-002  0.3000000E+03  0.7818608E-02  0.1093470E+00
          1   -1    0    0  502    0  0.00000000000E+00  0.00000000000E+00  0.98291584825E+00  0.98291584825E+00  0.00000000000E+00 0.  1.
         13   -1    0    0    0    0 -0.00000000000E+00 -0.00000000000E+00 -0.10000000000E+04  0.10000000000E+04  0.00000000000E+00 0.  1.
    9000005    2    1    2  501    0  0.29797599317E+02  0.36103906802E+01 -0.36080006319E+03  0.36206046539E+03  0.31879710335E+01 0.  0.
         13    1    3    3    0    0  0.79043719926E+01  0.18177624226E+01 -0.11142350308E+03  0.11171830824E+03  0.00000000000E+00 0.  1.
          3    1    3    3  501    0  0.21893227325E+02  0.17926282576E+01 -0.24937656011E+03  0.25034215716E+03  0.00000000000E+00 0.  1.
         21    1    1    2  502  501 -0.29797599317E+02 -0.36103906802E+01 -0.63821702097E+03  0.63892245046E+03  0.00000000000E+00 0.  1.
<mgrwt>
<rscale>  1 0.30000000E+03</rscale>
<asrwt>0</asrwt>
<pdfrwt beam="1">  1        1 0.35742470E-02 0.30000000E+03</pdfrwt>
<pdfrwt beam="2">0</pdfrwt>
<totfact> 0.31902872E+03</totfact>
</mgrwt>
</event>
<event>
 6    1  0.1956957E-002  0.3000000E+03  0.7818608E-02  0.1093470E+00
          1   -1    0    0  502    0  0.00000000000E+00  0.00000000000E+00  0.91390635424E+01  0.91390635424E+01  0.00000000000E+00 0.  1.
         13   -1    0    0    0    0 -0.00000000000E+00 -0.00000000000E+00 -0.10000000000E+04  0.10000000000E+04  0.00000000000E+00 0.  1.
    9000005    2    1    2  501    0 -0.27842289276E+02 -0.90821634961E+02 -0.44322938143E+03  0.45332966949E+03  0.56340245500E+01 0.  0.
         13    1    3    3    0    0 -0.27626635243E+02 -0.86962057805E+02 -0.42209404062E+03  0.43184373285E+03  0.00000000000E+00 0.  1.
          1    1    3    3  501    0 -0.21565403360E+00 -0.38595771566E+01 -0.21135340806E+02  0.21485936644E+02  0.00000000000E+00 0.  1.
         21    1    1    2  502  501  0.27842289276E+02  0.90821634961E+02 -0.54763155503E+03  0.55580939405E+03  0.00000000000E+00 0.  1.
<mgrwt>
<rscale>  1 0.30000000E+03</rscale>
<asrwt>0</asrwt>
<pdfrwt beam="1">  1        1 0.33233028E-01 0.30000000E+03</pdfrwt>
<pdfrwt beam="2">0</pdfrwt>
<totfact> 0.15059082E+02</totfact>
</mgrwt>
</event>
<event>
 6    1  0.1956957E-002  0.3000000E+03  0.7818608E-02  0.1093470E+00
          1   -1    0    0  502    0  0.00000000000E+00  0.00000000000E+00  0.35139903094E+01  0.35139903094E+01  0.00000000000E+00 0.  1.
         13   -1    0    0    0    0 -0.00000000000E+00 -0.00000000000E+00 -0.10000000000E+04  0.10000000000E+04  0.00000000000E+00 0.  1.
    9000005    2    1    2  501    0 -0.86726525942E+01 -0.46192259045E+02 -0.80377032129E+03  0.80514999092E+03  0.32922318033E+01 0.  0.
         13    1    3    3    0    0 -0.17126852362E+00 -0.69676162949E+01 -0.11331173624E+03  0.11352588506E+03  0.00000000000E+00 0.  1.
          1    1    3    3  501    0 -0.85013840706E+01 -0.39224642751E+02 -0.69045858505E+03  0.69162410586E+03  0.00000000000E+00 0.  1.
         21    1    1    2  502  501  0.86726525942E+01  0.46192259045E+02 -0.19271568840E+03  0.19836399939E+03  0.00000000000E+00 0.  1.
<mgrwt>
<rscale>  1 0.30000000E+03</rscale>
<asrwt>0</asrwt>
<pdfrwt beam="1">  1        1 0.12778174E-01 0.30000000E+03</pdfrwt>
<pdfrwt beam="2">0</pdfrwt>
<totfact> 0.53968372E+02</totfact>
</mgrwt>
</event>
<event>
 6    1  0.1956957E-002  0.3000000E+03  0.7818608E-02  0.1093470E+00
          1   -1    0    0  502    0  0.00000000000E+00  0.00000000000E+00  0.16684029070E+01  0.16684029070E+01  0.00000000000E+00 0.  1.
         13   -1    0    0    0    0 -0.00000000000E+00 -0.00000000000E+00 -0.10000000000E+04  0.10000000000E+04  0.00000000000E+00 0.  1.
    9000005    2    1    2  501    0 -0.34238223052E+02  0.86055049244E+01 -0.74992228798E+03  0.75076305126E+03  0.39256197471E+01 0.  0.
         13    1    3    3    0    0 -0.18816263000E+01 -0.29200824696E+00 -0.31570160885E+02  0.31627533015E+02  0.00000000000E+00 0.  1.
          3    1    3    3  501    0 -0.32356596752E+02  0.88975131713E+01 -0.71835212709E+03  0.71913551824E+03  0.00000000000E+00 0.  1.
         21    1    1    2  502  501  0.34238223052E+02 -0.86055049244E+01 -0.24840930911E+03  0.25090535165E+03  0.00000000000E+00 0.  1.
<mgrwt>
<rscale>  1 0.30000000E+03</rscale>
<asrwt>0</asrwt>
<pdfrwt beam="1">  1        1 0.60669325E-02 0.30000000E+03</pdfrwt>
<pdfrwt beam="2">0</pdfrwt>
<totfact> 0.15160691E+03</totfact>
</mgrwt>
</event>
<event>
 6    1  0.1956957E-002  0.3000000E+03  0.7818608E-02  0.1093470E+00
          1   -1    0    0  502    0  0.00000000000E+00  0.00000000000E+00  0.62836935788E+01  0.62836935788E+01  0.00000000000E+00 0.  1.
         13   -1    0    0    0    0 -0.00000000000E+00 -0.00000000000E+00 -0.10000000000E+04  0.10000000000E+04  0.00000000000E+00 0.  1.
    9000005    2    1    2  501    0 -0.52996750692E+02  0.57529071027E+02 -0.57701576408E+03  0.58230540217E+03  0.37602931251E+01 0.  0.
         13    1    3    3    0    0 -0.31991955077E+02  0.33624535558E+02 -0.32964939088E+03  0.33290060902E+03  0.00000000000E+00 0.  1.
          1    1    3    3  501    0 -0.21004795615E+02  0.23904535469E+02 -0.24736637320E+03  0.24940479315E+03  0.00000000000E+00 0.  1.
         21    1    1    2  502  501  0.52996750692E+02 -0.57529071027E+02 -0.41670054234E+03  0.42397829141E+03  0.00000000000E+00 0.  1.
<mgrwt>
<rscale>  1 0.30000000E+03</rscale>
<asrwt>0</asrwt>
<pdfrwt beam="1">  1        1 0.22849843E-01 0.30000000E+03</pdfrwt>
<pdfrwt beam="2">0</pdfrwt>
<totfact> 0.24659309E+02</totfact>
</mgrwt>
</event>
<event>
 6    1  0.1956957E-002  0.3000000E+03  0.7818608E-02  0.1093470E+00
          1   -1    0    0  502    0  0.00000000000E+00  0.00000000000E+00  0.18957264644E+01  0.18957264644E+01  0.00000000000E+00 0.  1.
         13   -1    0    0    0    0 -0.00000000000E+00 -0.00000000000E+00 -0.10000000000E+04  0.10000000000E+04  0.00000000000E+00 0.  1.
    9000005    2    1    2  501    0  0.32860815799E+02 -0.89000564295E+00 -0.82581403754E+03  0.82649746323E+03  0.69718583015E+01 0.  0.
         13    1    3    3    0    0  0.22469595521E+02  0.19477599665E+01 -0.50676034287E+03  0.50726198517E+03  0.00000000000E+00 0.  1.
          3    1    3    3  501    0  0.10391220277E+02 -0.28377656094E+01 -0.31905369467E+03  0.31923547806E+03  0.00000000000E+00 0.  1.
         21    1    1    2  502  501 -0.32860815799E+02  0.89000564295E+00 -0.17229023600E+03  0.17539826323E+03  0.00000000000E+00 0.  1.
<mgrwt>
<rscale>  1 0.30000000E+03</rscale>
<asrwt>0</asrwt>
<pdfrwt beam="1">  1        1 0.68935653E-02 0.30000000E+03</pdfrwt>
<pdfrwt beam="2">0</pdfrwt>
<totfact> 0.12676871E+03</totfact>
</mgrwt>
</event>
<event>
 6    1  0.1956957E-002  0.3000000E+03  0.7818608E-02  0.1093470E+00
          1   -1    0    0  502    0  0.00000000000E+00  0.00000000000E+00  0.11498192611E+01  0.11498192611E+01  0.00000000000E+00 0.  1.
         13   -1    0    0    0    0 -0.00000000000E+00 -0.00000000000E+00 -0.10000000000E+04  0.10000000000E+04  0.00000000000E+00 0.  1.
    9000005    2    1    2  501    0  0.11381428446E+02 -0.30139228093E+02 -0.65297392896E+03  0.65377640127E+03  0.32742892756E+01 0.  0.
         13    1    3    3    0    0  0.10210528565E+02 -0.27443767057E+02 -0.60975044275E+03  0.61045312488E+03  0.00000000000E+00 0.  1.
          1    1    3    3  501    0  0.11708998815E+01 -0.26954610359E+01 -0.43223486210E+02  0.43323276386E+02  0.00000000000E+00 0.  1.
         21    1    1    2  502  501 -0.11381428446E+02  0.30139228093E+02 -0.34587625178E+03  0.34737341799E+03  0.00000000000E+00 0.  1.
<mgrwt>
<rscale>  1 0.30000000E+03</rscale>
<asrwt>0</asrwt>
<pdfrwt beam="1">  1        1 0.41811698E-02 0.30000000E+03</pdfrwt>
<pdfrwt beam="2">0</pdfrwt>
<totfact> 0.25583118E+03</totfact>
</mgrwt>
</event>
<event>
 6    1  0.1956957E-002  0.3000000E+03  0.7818608E-02  0.1093470E+00
          1   -1    0    0  502    0  0.00000000000E+00  0.00000000000E+00  0.23414328338E+01  0.23414328338E+01  0.00000000000E+00 0.  1.
         13   -1    0    0    0    0 -0.00000000000E+00 -0.00000000000E+00 -0.10000000000E+04  0.10000000000E+04  0.00000000000E+00 0.  1.
    9000005    2    1    2  501    0  0.32959693410E+02  0.11935330870E+02 -0.84390625492E+03  0.84464372507E+03  0.40573015690E+01 0.  0.
         13    1    3    3    0    0  0.29417195535E+02  0.10765551557E+02 -0.71958222739E+03  0.72026373674E+03  0.00000000000E+00 0.  1.
          1    1    3    3  501    0  0.35424978746E+01  0.11697793130E+01 -0.12432402753E+03  0.12437998833E+03  0.00000000000E+00 0.  1.
         21    1    1    2  502  501 -0.32959693410E+02 -0.11935330870E+02 -0.15375231225E+03  0.15769770777E+03  0.00000000000E+00 0.  1.
<mgrwt>
<rscale>  1 0.30000000E+03</rscale>
<asrwt>0</asrwt>
<pdfrwt beam="1">  1        1 0.85143192E-02 0.30000000E+03</pdfrwt>
<pdfrwt beam="2">0</pdfrwt>
<totfact> 0.94435706E+02</totfact>
</mgrwt>
</event>
<event>
 6    1  0.1956957E-002  0.3000000E+03  0.7818608E-02  0.1093470E+00
          1   -1    0    0  502    0  0.00000000000E+00  0.00000000000E+00  0.37717112361E+01  0.37717112361E+01  0.00000000000E+00 0.  1.
         13   -1    0    0    0    0 -0.00000000000E+00 -0.00000000000E+00 -0.10000000000E+04  0.10000000000E+04  0.00000000000E+00 0.  1.
    9000005    2    1    2  501    0 -0.42078057978E+01 -0.35365686939E+02 -0.90676318554E+03  0.90747819050E+03  0.53622874068E+01 0.  0.
         13    1    3    3    0    0 -0.31408598324E+01 -0.19332140771E+02 -0.43334876367E+03  0.43379113366E+03  0.00000000000E+00 0.  1.
          3    1    3    3  501    0 -0.10669459654E+01 -0.16033546168E+02 -0.47341442187E+03  0.47368705684E+03  0.00000000000E+00 0.  1.
         21    1    1    2  502  501  0.42078057978E+01  0.35365686939E+02 -0.89465103219E+02  0.96293520739E+02  0.00000000000E+00 0.  1.
<mgrwt>
<rscale>  1 0.30000000E+03</rscale>
<asrwt>0</asrwt>
<pdfrwt beam="1">  1        1 0.13715343E-01 0.30000000E+03</pdfrwt>
<pdfrwt beam="2">0</pdfrwt>
<totfact> 0.48998331E+02</totfact>
</mgrwt>
</event>
<event>
 6    1  0.1956957E-002  0.3000000E+03  0.7818608E-02  0.1093470E+00
          1   -1    0    0  502    0  0.00000000000E+00  0.00000000000E+00  0.14301594002E+01  0.14301594002E+01  0.00000000000E+00 0.  1.
         13   -1    0    0    0    0 -0.00000000000E+00 -0.00000000000E+00 -0.10000000000E+04  0.10000000000E+04  0.00000000000E+00 0.  1.
    9000005    2    1    2  501    0  0.30486103982E+02  0.18326829764E+02 -0.66757269275E+03  0.66852718989E+03  0.31667473924E+01 0.  0.
         13    1    3    3    0    0  0.29746223451E+02  0.17539307875E+02 -0.63688968395E+03  0.63782515994E+03  0.00000000000E+00 0.  1.
          1    1    3    3  501    0  0.73988053049E+00  0.78752188911E+00 -0.30683008799E+02  0.30702029947E+02  0.00000000000E+00 0.  1.
         21    1    1    2  502  501 -0.30486103982E+02 -0.18326829764E+02 -0.33099714785E+03  0.33290296951E+03  0.00000000000E+00 0.  1.
<mgrwt>
<rscale>  1 0.30000000E+03</rscale>
<asrwt>0</asrwt>
<pdfrwt beam="1">  1        1 0.52005906E-02 0.30000000E+03</pdfrwt>
<pdfrwt beam="2">0</pdfrwt>
<totfact> 0.18821935E+03</totfact>
</mgrwt>
</event>
<event>
 6    1  0.1956957E-002  0.3000000E+03  0.7818608E-02  0.1093470E+00
          1   -1    0    0  502    0  0.00000000000E+00  0.00000000000E+00  0.23571554157E+01  0.23571554157E+01  0.00000000000E+00 0.  1.
         13   -1    0    0    0    0 -0.00000000000E+00 -0.00000000000E+00 -0.10000000000E+04  0.10000000000E+04  0.00000000000E+00 0.  1.
    9000005    2    1    2  501    0 -0.45786587426E+02  0.63538090591E+01 -0.64789628797E+03  0.64956906556E+03  0.57955581884E+01 0.  0.
         13    1    3    3    0    0 -0.10712943793E+02  0.36078615443E+01 -0.13982739722E+03  0.14028358722E+03  0.00000000000E+00 0.  1.
          1    1    3    3  501    0 -0.35073643633E+02  0.27459475148E+01 -0.50806889075E+03  0.50928547834E+03  0.00000000000E+00 0.  1.
         21    1    1    2  502  501  0.45786587426E+02 -0.63538090591E+01 -0.34974655662E+03  0.35278808985E+03  0.00000000000E+00 0.  1.
<mgrwt>
<rscale>  1 0.30000000E+03</rscale>
<asrwt>0</asrwt>
<pdfrwt beam="1">  1        1 0.85714923E-02 0.30000000E+03</pdfrwt>
<pdfrwt beam="2">0</pdfrwt>
<totfact> 0.93561868E+02</totfact>
</mgrwt>
</event>
<event>
 6    1  0.1956957E-002  0.3000000E+03  0.7818608E-02  0.1093470E+00
          3   -1    0    0  502    0  0.00000000000E+00  0.00000000000E+00  0.13336872948E+01  0.13336872948E+01  0.00000000000E+00 0.  1.
         13   -1    0    0    0    0 -0.00000000000E+00 -0.00000000000E+00 -0.10000000000E+04  0.10000000000E+04  0.00000000000E+00 0.  1.
    9000005    2    1    2  501    0  0.88915074303E+01  0.32039162072E+02 -0.70480607305E+03  0.70559832035E+03  0.34383520093E+01 0.  0.
         13    1    3    3    0    0  0.40022791519E+01  0.11244872256E+02 -0.22358454264E+03  0.22390290998E+03  0.00000000000E+00 0.  1.
          3    1    3    3  501    0  0.48892282783E+01  0.20794289815E+02 -0.48122153041E+03  0.48169541037E+03  0.00000000000E+00 0.  1.
         21    1    1    2  502  501 -0.88915074303E+01 -0.32039162072E+02 -0.29386023966E+03  0.29573536695E+03  0.00000000000E+00 0.  1.
<mgrwt>
<rscale>  1 0.30000000E+03</rscale>
<asrwt>0</asrwt>
<pdfrwt beam="1">  1        3 0.48497822E-02 0.30000000E+03</pdfrwt>
<pdfrwt beam="2">0</pdfrwt>
<totfact> 0.10370884E+03</totfact>
</mgrwt>
</event>
<event>
 6    1  0.1956957E-002  0.3000000E+03  0.7818608E-02  0.1093470E+00
          3   -1    0    0  502    0  0.00000000000E+00  0.00000000000E+00  0.64049493731E+01  0.64049493731E+01  0.00000000000E+00 0.  1.
         13   -1    0    0    0    0 -0.00000000000E+00 -0.00000000000E+00 -0.10000000000E+04  0.10000000000E+04  0.00000000000E+00 0.  1.
    9000005    2    1    2  501    0  0.24560962226E+02  0.65104803420E+02 -0.74515427044E+03  0.74840359753E+03  0.33439115941E+01 0.  0.
         13    1    3    3    0    0  0.17943523486E+02  0.46496122671E+02 -0.54900649412E+03  0.55126399306E+03  0.00000000000E+00 0.  1.
          3    1    3    3  501    0  0.66174387403E+01  0.18608680749E+02 -0.19614777632E+03  0.19713960447E+03  0.00000000000E+00 0.  1.
         21    1    1    2  502  501 -0.24560962226E+02 -0.65104803420E+02 -0.24844078019E+03  0.25800135184E+03  0.00000000000E+00 0.  1.
<mgrwt>
<rscale>  1 0.30000000E+03</rscale>
<asrwt>0</asrwt>
<pdfrwt beam="1">  1        3 0.23290774E-01 0.30000000E+03</pdfrwt>
<pdfrwt beam="2">0</pdfrwt>
<totfact> 0.75410792E+01</totfact>
</mgrwt>
</event>
<event>
 6    1  0.1956957E-002  0.3000000E+03  0.7818608E-02  0.1093470E+00
          1   -1    0    0  502    0  0.00000000000E+00  0.00000000000E+00  0.98216666576E+01  0.98216666576E+01  0.00000000000E+00 0.  1.
         13   -1    0    0    0    0 -0.00000000000E+00 -0.00000000000E+00 -0.10000000000E+04  0.10000000000E+04  0.00000000000E+00 0.  1.
    9000005    2    1    2  501    0 -0.22091908699E+02  0.82769523213E+02 -0.74882086466E+03  0.75371177991E+03  0.31485579414E+01 0.  0.
         13    1    3    3    0    0 -0.69934019020E+01  0.30324740726E+02 -0.26252932809E+03  0.26436744444E+03  0.00000000000E+00 0.  1.
          1    1    3    3  501    0 -0.15098506797E+02  0.52444782487E+02 -0.48629153657E+03  0.48934433547E+03  0.00000000000E+00 0.  1.
         21    1    1    2  502  501  0.22091908699E+02 -0.82769523213E+02 -0.24135746868E+03  0.25610988675E+03  0.00000000000E+00 0.  1.
<mgrwt>
<rscale>  1 0.30000000E+03</rscale>
<asrwt>0</asrwt>
<pdfrwt beam="1">  1        1 0.35715227E-01 0.30000000E+03</pdfrwt>
<pdfrwt beam="2">0</pdfrwt>
<totfact> 0.13705154E+02</totfact>
</mgrwt>
</event>
<event>
 6    1  0.1956957E-002  0.3000000E+03  0.7818608E-02  0.1093470E+00
          1   -1    0    0  502    0  0.00000000000E+00  0.00000000000E+00  0.66618215144E+01  0.66618215144E+01  0.00000000000E+00 0.  1.
         13   -1    0    0    0    0 -0.00000000000E+00 -0.00000000000E+00 -0.10000000000E+04  0.10000000000E+04  0.00000000000E+00 0.  1.
    9000005    2    1    2  501    0  0.61251511977E+02 -0.41325072294E+02 -0.71027367665E+03  0.71411264356E+03  0.29432359358E+01 0.  0.
         13    1    3    3    0    0  0.78686297704E+01 -0.61193799617E+01 -0.88791342030E+02  0.89349116197E+02  0.00000000000E+00 0.  1.
          3    1    3    3  501    0  0.53382882207E+02 -0.35205692332E+02 -0.62148233462E+03  0.62476352736E+03  0.00000000000E+00 0.  1.
         21    1    1    2  502  501 -0.61251511977E+02  0.41325072294E+02 -0.28306450184E+03  0.29254917795E+03  0.00000000000E+00 0.  1.
<mgrwt>
<rscale>  1 0.30000000E+03</rscale>
<asrwt>0</asrwt>
<pdfrwt beam="1">  1        1 0.24224857E-01 0.30000000E+03</pdfrwt>
<pdfrwt beam="2">0</pdfrwt>
<totfact> 0.22824208E+02</totfact>
</mgrwt>
</event>
<event>
 6    1  0.1956957E-002  0.3000000E+03  0.7818608E-02  0.1093470E+00
          1   -1    0    0  502    0  0.00000000000E+00  0.00000000000E+00  0.10478601048E+01  0.10478601048E+01  0.00000000000E+00 0.  1.
         13   -1    0    0    0    0 -0.00000000000E+00 -0.00000000000E+00 -0.10000000000E+04  0.10000000000E+04  0.00000000000E+00 0.  1.
    9000005    2    1    2  501    0  0.43560794197E+01 -0.30732951434E+02 -0.36694041599E+03  0.36827435490E+03  0.41523319290E+01 0.  0.
         13    1    3    3    0    0  0.65368321064E+00 -0.77102837390E+01 -0.72400656865E+02  0.72812985734E+02  0.00000000000E+00 0.  1.
          1    1    3    3  501    0  0.37023962091E+01 -0.23022667695E+02 -0.29453975913E+03  0.29546136917E+03  0.00000000000E+00 0.  1.
         21    1    1    2  502  501 -0.43560794197E+01  0.30732951434E+02 -0.63201172390E+03  0.63277350520E+03  0.00000000000E+00 0.  1.
<mgrwt>
<rscale>  1 0.30000000E+03</rscale>
<asrwt>0</asrwt>
<pdfrwt beam="1">  1        1 0.38104084E-02 0.30000000E+03</pdfrwt>
<pdfrwt beam="2">0</pdfrwt>
<totfact> 0.29156035E+03</totfact>
</mgrwt>
</event>
<event>
 6    1  0.1956957E-002  0.3000000E+03  0.7818608E-02  0.1093470E+00
          1   -1    0    0  502    0  0.00000000000E+00  0.00000000000E+00  0.20558589766E+01  0.20558589766E+01  0.00000000000E+00 0.  1.
         13   -1    0    0    0    0 -0.00000000000E+00 -0.00000000000E+00 -0.10000000000E+04  0.10000000000E+04  0.00000000000E+00 0.  1.
    9000005    2    1    2  501    0  0.28033719807E+02  0.11925878696E+02 -0.86930336170E+03  0.86985689478E+03  0.58793460380E+01 0.  0.
         13    1    3    3    0    0  0.23906032951E+02  0.94883672276E+01 -0.66478943042E+03  0.66528679103E+03  0.00000000000E+00 0.  1.
          3    1    3    3  501    0  0.41276868559E+01  0.24375114685E+01 -0.20451393128E+03  0.20457010375E+03  0.00000000000E+00 0.  1.
         21    1    1    2  502  501 -0.28033719807E+02 -0.11925878696E+02 -0.12864077932E+03  0.13219896419E+03  0.00000000000E+00 0.  1.
<mgrwt>
<rscale>  1 0.30000000E+03</rscale>
<asrwt>0</asrwt>
<pdfrwt beam="1">  1        1 0.74758666E-02 0.30000000E+03</pdfrwt>
<pdfrwt beam="2">0</pdfrwt>
<totfact> 0.11318726E+03</totfact>
</mgrwt>
</event>
<event>
 6    1  0.1956957E-002  0.3000000E+03  0.7818608E-02  0.1093470E+00
          3   -1    0    0  502    0  0.00000000000E+00  0.00000000000E+00  0.10566793868E+01  0.10566793868E+01  0.00000000000E+00 0.  1.
         13   -1    0    0    0    0 -0.00000000000E+00 -0.00000000000E+00 -0.10000000000E+04  0.10000000000E+04  0.00000000000E+00 0.  1.
    9000005    2    1    2  501    0 -0.12406494603E+02  0.28802465062E+02 -0.61909589796E+03  0.61991685255E+03  0.58025948888E+01 0.  0.
         13    1    3    3    0    0 -0.32016033265E+01  0.14622122616E+02 -0.30133310142E+03  0.30170464820E+03  0.00000000000E+00 0.  1.
          1    1    3    3  501    0 -0.92048912765E+01  0.14180342446E+02 -0.31776279654E+03  0.31821220435E+03  0.00000000000E+00 0.  1.
         21    1    1    2  502  501  0.12406494603E+02 -0.28802465062E+02 -0.37984742265E+03  0.38113982683E+03  0.00000000000E+00 0.  1.
<mgrwt>
<rscale>  1 0.30000000E+03</rscale>
<asrwt>0</asrwt>
<pdfrwt beam="1">  1        3 0.38424786E-02 0.30000000E+03</pdfrwt>
<pdfrwt beam="2">0</pdfrwt>
<totfact> 0.14841186E+03</totfact>
</mgrwt>
</event>
<event>
 6    1  0.1956957E-002  0.3000000E+03  0.7818608E-02  0.1093470E+00
          1   -1    0    0  502    0  0.00000000000E+00  0.00000000000E+00  0.19034782418E+01  0.19034782418E+01  0.00000000000E+00 0.  1.
         13   -1    0    0    0    0 -0.00000000000E+00 -0.00000000000E+00 -0.10000000000E+04  0.10000000000E+04  0.00000000000E+00 0.  1.
    9000005    2    1    2  501    0  0.13949108032E+02  0.35194270169E+02 -0.74745743086E+03  0.74842139178E+03  0.29587949889E+01 0.  0.
         13    1    3    3    0    0  0.49236753834E+01  0.14000564854E+02 -0.31934857750E+03  0.31969324726E+03  0.00000000000E+00 0.  1.
          3    1    3    3  501    0  0.90254326491E+01  0.21193705315E+02 -0.42810885336E+03  0.42872814452E+03  0.00000000000E+00 0.  1.
         21    1    1    2  502  501 -0.13949108032E+02 -0.35194270169E+02 -0.25063909090E+03  0.25348208646E+03  0.00000000000E+00 0.  1.
<mgrwt>
<rscale>  1 0.30000000E+03</rscale>
<asrwt>0</asrwt>
<pdfrwt beam="1">  1        1 0.69217537E-02 0.30000000E+03</pdfrwt>
<pdfrwt beam="2">0</pdfrwt>
<totfact> 0.12604718E+03</totfact>
</mgrwt>
</event>
<event>
 6    1  0.1956957E-002  0.3000000E+03  0.7818608E-02  0.1093470E+00
          3   -1    0    0  502    0  0.00000000000E+00  0.00000000000E+00  0.12271422595E+01  0.12271422595E+01  0.00000000000E+00 0.  1.
         13   -1    0    0    0    0 -0.00000000000E+00 -0.00000000000E+00 -0.10000000000E+04  0.10000000000E+04  0.00000000000E+00 0.  1.
    9000005    2    1    2  501    0 -0.19487101254E+02  0.24221419178E+02 -0.72903337057E+03  0.72970216146E+03  0.30273361257E+01 0.  0.
         13    1    3    3    0    0 -0.89521205943E+00  0.23932804932E+01 -0.63846191811E+02  0.63897303581E+02  0.00000000000E+00 0.  1.
          3    1    3    3  501    0 -0.18591889195E+02  0.21828138685E+02 -0.66518717876E+03  0.66580485788E+03  0.00000000000E+00 0.  1.
         21    1    1    2  502  501  0.19487101254E+02 -0.24221419178E+02 -0.26973948717E+03  0.27152498080E+03  0.00000000000E+00 0.  1.
<mgrwt>
<rscale>  1 0.30000000E+03</rscale>
<asrwt>0</asrwt>
<pdfrwt beam="1">  1        3 0.44623449E-02 0.30000000E+03</pdfrwt>
<pdfrwt beam="2">0</pdfrwt>
<totfact> 0.11792761E+03</totfact>
</mgrwt>
</event>
<event>
 6    1  0.1956957E-002  0.3000000E+03  0.7818608E-02  0.1093470E+00
          1   -1    0    0  502    0  0.00000000000E+00  0.00000000000E+00  0.12528464802E+01  0.12528464802E+01  0.00000000000E+00 0.  1.
         13   -1    0    0    0    0 -0.00000000000E+00 -0.00000000000E+00 -0.10000000000E+04  0.10000000000E+04  0.00000000000E+00 0.  1.
    9000005    2    1    2  501    0  0.26334515342E+02 -0.15041154903E+02 -0.75442649814E+03  0.75505714041E+03  0.56746064856E+01 0.  0.
         13    1    3    3    0    0  0.14451743004E+02 -0.10925187215E+02 -0.40665235100E+03  0.40705570524E+03  0.00000000000E+00 0.  1.
          3    1    3    3  501    0  0.11882772339E+02 -0.41159676878E+01 -0.34777414714E+03  0.34800143518E+03  0.00000000000E+00 0.  1.
         21    1    1    2  502  501 -0.26334515342E+02  0.15041154903E+02 -0.24432065538E+03  0.24619570607E+03  0.00000000000E+00 0.  1.
<mgrwt>
<rscale>  1 0.30000000E+03</rscale>
<asrwt>0</asrwt>
<pdfrwt beam="1">  1        1 0.45558150E-02 0.30000000E+03</pdfrwt>
<pdfrwt beam="2">0</pdfrwt>
<totfact> 0.22672101E+03</totfact>
</mgrwt>
</event>
<event>
 6    1  0.1956957E-002  0.3000000E+03  0.7818608E-02  0.1093470E+00
          3   -1    0    0  502    0  0.00000000000E+00  0.00000000000E+00  0.15310426827E+01  0.15310426827E+01  0.00000000000E+00 0.  1.
         13   -1    0    0    0    0 -0.00000000000E+00 -0.00000000000E+00 -0.10000000000E+04  0.10000000000E+04  0.00000000000E+00 0.  1.
    9000005    2    1    2  501    0 -0.32639978559E+02 -0.19790961379E+02 -0.60150558310E+03  0.60273664600E+03  0.50445597203E+01 0.  0.
         13    1    3    3    0    0 -0.24134574118E+02 -0.16040432849E+02 -0.48178009043E+03  0.48265083516E+03  0.00000000000E+00 0.  1.
          1    1    3    3  501    0 -0.85054044407E+01 -0.37505285292E+01 -0.11972549267E+03  0.12008581083E+03  0.00000000000E+00 0.  1.
         21    1    1    2  502  501  0.32639978559E+02  0.19790961379E+02 -0.39696337422E+03  0.39879439668E+03  0.00000000000E+00 0.  1.
<mgrwt>
<rscale>  1 0.30000000E+03</rscale>
<asrwt>0</asrwt>
<pdfrwt beam="1">  1        3 0.55674397E-02 0.30000000E+03</pdfrwt>
<pdfrwt beam="2">0</pdfrwt>
<totfact> 0.83781628E+02</totfact>
</mgrwt>
</event>
<event>
 6    1  0.1956957E-002  0.3000000E+03  0.7818608E-02  0.1093470E+00
          1   -1    0    0  502    0  0.00000000000E+00  0.00000000000E+00  0.61008293293E+01  0.61008293293E+01  0.00000000000E+00 0.  1.
         13   -1    0    0    0    0 -0.00000000000E+00 -0.00000000000E+00 -0.10000000000E+04  0.10000000000E+04  0.00000000000E+00 0.  1.
    9000005    2    1    2  501    0 -0.19514758504E+02  0.57981766163E+02 -0.80952145262E+03  0.81183849659E+03  0.37485050974E+01 0.  0.
         13    1    3    3    0    0 -0.69847001549E+01  0.16272140163E+02 -0.24635931724E+03  0.24699490232E+03  0.00000000000E+00 0.  1.
          1    1    3    3  501    0 -0.12530058349E+02  0.41709626000E+02 -0.56316213538E+03  0.56484359427E+03  0.00000000000E+00 0.  1.
         21    1    1    2  502  501  0.19514758504E+02 -0.57981766163E+02 -0.18437771805E+03  0.19426233274E+03  0.00000000000E+00 0.  1.
<mgrwt>
<rscale>  1 0.30000000E+03</rscale>
<asrwt>0</asrwt>
<pdfrwt beam="1">  1        1 0.22184881E-01 0.30000000E+03</pdfrwt>
<pdfrwt beam="2">0</pdfrwt>
<totfact> 0.25644129E+02</totfact>
</mgrwt>
</event>
<event>
 6    1  0.1956957E-002  0.3000000E+03  0.7818608E-02  0.1093470E+00
          1   -1    0    0  502    0  0.00000000000E+00  0.00000000000E+00  0.54885190591E+01  0.54885190591E+01  0.00000000000E+00 0.  1.
         13   -1    0    0    0    0 -0.00000000000E+00 -0.00000000000E+00 -0.10000000000E+04  0.10000000000E+04  0.00000000000E+00 0.  1.
    9000005    2    1    2  501    0  0.36534734255E+02 -0.36215585580E+02 -0.85895133042E+03  0.86049572664E+03  0.30252402057E+01 0.  0.
         13    1    3    3    0    0  0.27570523384E+02 -0.25461397078E+02 -0.62186670491E+03  0.62299808601E+03  0.00000000000E+00 0.  1.
          3    1    3    3  501    0  0.89642108708E+01 -0.10754188503E+02 -0.23708462551E+03  0.23749764063E+03  0.00000000000E+00 0.  1.
         21    1    1    2  502  501 -0.36534734255E+02  0.36215585580E+02 -0.13556015052E+03  0.14499279242E+03  0.00000000000E+00 0.  1.
<mgrwt>
<rscale>  1 0.30000000E+03</rscale>
<asrwt>0</asrwt>
<pdfrwt beam="1">  1        1 0.19958293E-01 0.30000000E+03</pdfrwt>
<pdfrwt beam="2">0</pdfrwt>
<totfact> 0.29523943E+02</totfact>
</mgrwt>
</event>
<event>
 6    1  0.1956957E-002  0.3000000E+03  0.7818608E-02  0.1093470E+00
          1   -1    0    0  502    0  0.00000000000E+00  0.00000000000E+00  0.13607427880E+01  0.13607427880E+01  0.00000000000E+00 0.  1.
         13   -1    0    0    0    0 -0.00000000000E+00 -0.00000000000E+00 -0.10000000000E+04  0.10000000000E+04  0.00000000000E+00 0.  1.
    9000005    2    1    2  501    0  0.14609456923E+02 -0.27511838837E+02 -0.76660820643E+03  0.76724806471E+03  0.33336368574E+01 0.  0.
         13    1    3    3    0    0  0.11802574694E+02 -0.20830118294E+02 -0.55607430652E+03  0.55658946179E+03  0.00000000000E+00 0.  1.
          1    1    3    3  501    0  0.28068822286E+01 -0.66817205421E+01 -0.21053389990E+03  0.21065860293E+03  0.00000000000E+00 0.  1.
         21    1    1    2  502  501 -0.14609456923E+02  0.27511838837E+02 -0.23203105078E+03  0.23411267807E+03  0.00000000000E+00 0.  1.
<mgrwt>
<rscale>  1 0.30000000E+03</rscale>
<asrwt>0</asrwt>
<pdfrwt beam="1">  1        1 0.49481660E-02 0.30000000E+03</pdfrwt>
<pdfrwt beam="2">0</pdfrwt>
<totfact> 0.20185122E+03</totfact>
</mgrwt>
</event>
<event>
 6    1  0.1956957E-002  0.3000000E+03  0.7818608E-02  0.1093470E+00
          1   -1    0    0  502    0  0.00000000000E+00  0.00000000000E+00  0.22456146472E+01  0.22456146472E+01  0.00000000000E+00 0.  1.
         13   -1    0    0    0    0 -0.00000000000E+00 -0.00000000000E+00 -0.10000000000E+04  0.10000000000E+04  0.00000000000E+00 0.  1.
    9000005    2    1    2  501    0  0.24050283246E+02  0.33606621044E+02 -0.73861558063E+03  0.73983231236E+03  0.95421887147E+01 0.  0.
         13    1    3    3    0    0  0.65612117273E+01  0.15135006165E+02 -0.23810466349E+03  0.23867540445E+03  0.00000000000E+00 0.  1.
          3    1    3    3  501    0  0.17489071519E+02  0.18471614880E+02 -0.50051091714E+03  0.50115690792E+03  0.00000000000E+00 0.  1.
         21    1    1    2  502  501 -0.24050283246E+02 -0.33606621044E+02 -0.25913880472E+03  0.26241330228E+03  0.00000000000E+00 0.  1.
<mgrwt>
<rscale>  1 0.30000000E+03</rscale>
<asrwt>0</asrwt>
<pdfrwt beam="1">  1        1 0.81658887E-02 0.30000000E+03</pdfrwt>
<pdfrwt beam="2">0</pdfrwt>
<totfact> 0.10008396E+03</totfact>
</mgrwt>
</event>
<event>
 6    1  0.1956957E-002  0.3000000E+03  0.7818608E-02  0.1093470E+00
          3   -1    0    0  502    0  0.00000000000E+00  0.00000000000E+00  0.10735853259E+01  0.10735853259E+01  0.00000000000E+00 0.  1.
         13   -1    0    0    0    0 -0.00000000000E+00 -0.00000000000E+00 -0.10000000000E+04  0.10000000000E+04  0.00000000000E+00 0.  1.
    9000005    2    1    2  501    0 -0.18701461339E+02  0.26791480379E+02 -0.50987752230E+03  0.51093447527E+03  0.33796734067E+01 0.  0.
         13    1    3    3    0    0 -0.23861190965E+01  0.29316751727E+01 -0.44544864007E+02  0.44704957141E+02  0.00000000000E+00 0.  1.
          3    1    3    3  501    0 -0.16315342242E+02  0.23859805206E+02 -0.46533265829E+03  0.46622951813E+03  0.00000000000E+00 0.  1.
         21    1    1    2  502  501  0.18701461339E+02 -0.26791480379E+02 -0.48904889237E+03  0.49013911006E+03  0.00000000000E+00 0.  1.
<mgrwt>
<rscale>  1 0.30000000E+03</rscale>
<asrwt>0</asrwt>
<pdfrwt beam="1">  1        3 0.39039549E-02 0.30000000E+03</pdfrwt>
<pdfrwt beam="2">0</pdfrwt>
<totfact> 0.14483492E+03</totfact>
</mgrwt>
</event>
<event>
 6    1  0.1956957E-002  0.3000000E+03  0.7818608E-02  0.1093470E+00
          3   -1    0    0  502    0  0.00000000000E+00  0.00000000000E+00  0.29797270220E+01  0.29797270220E+01  0.00000000000E+00 0.  1.
         13   -1    0    0    0    0 -0.00000000000E+00 -0.00000000000E+00 -0.10000000000E+04  0.10000000000E+04  0.00000000000E+00 0.  1.
    9000005    2    1    2  501    0 -0.18104192816E+02 -0.40149284846E+02 -0.79445753392E+03  0.79568430950E+03  0.33196852540E+01 0.  0.
         13    1    3    3    0    0 -0.11230063685E+02 -0.25517507367E+02 -0.53075621794E+03  0.53148793062E+03  0.00000000000E+00 0.  1.
          3    1    3    3  501    0 -0.68741291301E+01 -0.14631777480E+02 -0.26370131598E+03  0.26419637888E+03  0.00000000000E+00 0.  1.
         21    1    1    2  502  501  0.18104192816E+02  0.40149284846E+02 -0.20256273906E+03  0.20729541752E+03  0.00000000000E+00 0.  1.
<mgrwt>
<rscale>  1 0.30000000E+03</rscale>
<asrwt>0</asrwt>
<pdfrwt beam="1">  1        3 0.10835394E-01 0.30000000E+03</pdfrwt>
<pdfrwt beam="2">0</pdfrwt>
<totfact> 0.28911665E+02</totfact>
</mgrwt>
</event>
<event>
 6    1  0.1956957E-002  0.3000000E+03  0.7818608E-02  0.1093470E+00
          1   -1    0    0  502    0  0.00000000000E+00  0.00000000000E+00  0.17881257476E+01  0.17881257476E+01  0.00000000000E+00 0.  1.
         13   -1    0    0    0    0 -0.00000000000E+00 -0.00000000000E+00 -0.10000000000E+04  0.10000000000E+04  0.00000000000E+00 0.  1.
    9000005    2    1    2  501    0 -0.27799284420E+02 -0.27253749816E+02 -0.69311246899E+03  0.69421502194E+03  0.37463217947E+01 0.  0.
         13    1    3    3    0    0 -0.15521490666E+02 -0.15049789649E+02 -0.41753742146E+03  0.41809677248E+03  0.00000000000E+00 0.  1.
          3    1    3    3  501    0 -0.12277793754E+02 -0.12203960167E+02 -0.27557504753E+03  0.27611824946E+03  0.00000000000E+00 0.  1.
         21    1    1    2  502  501  0.27799284420E+02  0.27253749816E+02 -0.30509940527E+03  0.30757310381E+03  0.00000000000E+00 0.  1.
<mgrwt>
<rscale>  1 0.30000000E+03</rscale>
<asrwt>0</asrwt>
<pdfrwt beam="1">  1        1 0.65022892E-02 0.30000000E+03</pdfrwt>
<pdfrwt beam="2">0</pdfrwt>
<totfact> 0.13757335E+03</totfact>
</mgrwt>
</event>
<event>
 6    1  0.1956957E-002  0.3000000E+03  0.7818608E-02  0.1093470E+00
          1   -1    0    0  502    0  0.00000000000E+00  0.00000000000E+00  0.26178710381E+01  0.26178710381E+01  0.00000000000E+00 0.  1.
         13   -1    0    0    0    0 -0.00000000000E+00 -0.00000000000E+00 -0.10000000000E+04  0.10000000000E+04  0.00000000000E+00 0.  1.
    9000005    2    1    2  501    0  0.24082569006E+02  0.30841415816E+02 -0.17658170679E+03  0.18088525266E+03  0.26855911167E+01 0.  0.
         13    1    3    3    0    0  0.10195551772E+02  0.11438887546E+02 -0.73021392722E+02  0.74611803485E+02  0.00000000000E+00 0.  1.
          1    1    3    3  501    0  0.13887017234E+02  0.19402528270E+02 -0.10356031407E+03  0.10627344918E+03  0.00000000000E+00 0.  1.
         21    1    1    2  502  501 -0.24082569006E+02 -0.30841415816E+02 -0.82080042217E+03  0.82173261837E+03  0.00000000000E+00 0.  1.
<mgrwt>
<rscale>  1 0.30000000E+03</rscale>
<asrwt>0</asrwt>
<pdfrwt beam="1">  1        1 0.95195511E-02 0.30000000E+03</pdfrwt>
<pdfrwt beam="2">0</pdfrwt>
<totfact> 0.80896486E+02</totfact>
</mgrwt>
</event>
<event>
 6    1  0.1956957E-002  0.3000000E+03  0.7818608E-02  0.1093470E+00
          1   -1    0    0  502    0  0.00000000000E+00  0.00000000000E+00  0.20914317397E+01  0.20914317397E+01  0.00000000000E+00 0.  1.
         13   -1    0    0    0    0 -0.00000000000E+00 -0.00000000000E+00 -0.10000000000E+04  0.10000000000E+04  0.00000000000E+00 0.  1.
    9000005    2    1    2  501    0  0.31443147867E+02 -0.23461577376E+02 -0.75577997606E+03  0.75680512491E+03  0.33923009048E+01 0.  0.
         13    1    3    3    0    0  0.13943612568E+02 -0.92155700948E+01 -0.34841146405E+03  0.34881212614E+03  0.00000000000E+00 0.  1.
          3    1    3    3  501    0  0.17499535298E+02 -0.14246007281E+02 -0.40736851202E+03  0.40799299877E+03  0.00000000000E+00 0.  1.
         21    1    1    2  502  501 -0.31443147867E+02  0.23461577376E+02 -0.24212859220E+03  0.24528630683E+03  0.00000000000E+00 0.  1.
<mgrwt>
<rscale>  1 0.30000000E+03</rscale>
<asrwt>0</asrwt>
<pdfrwt beam="1">  1        1 0.76052224E-02 0.30000000E+03</pdfrwt>
<pdfrwt beam="2">0</pdfrwt>
<totfact> 0.11050978E+03</totfact>
</mgrwt>
</event>
<event>
 6    1  0.1956957E-002  0.3000000E+03  0.7818608E-02  0.1093470E+00
          3   -1    0    0  502    0  0.00000000000E+00  0.00000000000E+00  0.19654416250E+01  0.19654416250E+01  0.00000000000E+00 0.  1.
         13   -1    0    0    0    0 -0.00000000000E+00 -0.00000000000E+00 -0.10000000000E+04  0.10000000000E+04  0.00000000000E+00 0.  1.
    9000005    2    1    2  501    0 -0.17071703369E+02  0.33357422939E+02 -0.76621444529E+03  0.76713630044E+03  0.30604825925E+01 0.  0.
         13    1    3    3    0    0 -0.16278672560E+02  0.32629327755E+02 -0.73612284101E+03  0.73702544411E+03  0.00000000000E+00 0.  1.
          1    1    3    3  501    0 -0.79303080944E+00  0.72809518353E+00 -0.30091604281E+02  0.30110856326E+02  0.00000000000E+00 0.  1.
         21    1    1    2  502  501  0.17071703369E+02 -0.33357422939E+02 -0.23182011308E+03  0.23482914119E+03  0.00000000000E+00 0.  1.
<mgrwt>
<rscale>  1 0.30000000E+03</rscale>
<asrwt>0</asrwt>
<pdfrwt beam="1">  1        3 0.71470755E-02 0.30000000E+03</pdfrwt>
<pdfrwt beam="2">0</pdfrwt>
<totfact> 0.56684736E+02</totfact>
</mgrwt>
</event>
<event>
 6    1  0.1956957E-002  0.3000000E+03  0.7818608E-02  0.1093470E+00
          1   -1    0    0  502    0  0.00000000000E+00  0.00000000000E+00  0.30017128561E+01  0.30017128561E+01  0.00000000000E+00 0.  1.
         13   -1    0    0    0    0 -0.00000000000E+00 -0.00000000000E+00 -0.10000000000E+04  0.10000000000E+04  0.00000000000E+00 0.  1.
    9000005    2    1    2  501    0 -0.25295279714E+01 -0.30088616457E+02 -0.91684456835E+03  0.91734926404E+03  0.37398350150E+01 0.  0.
         13    1    3    3    0    0 -0.34805042676E+01 -0.21053156472E+02 -0.63931771036E+03  0.63967373253E+03  0.00000000000E+00 0.  1.
          3    1    3    3  501    0  0.95097629620E+00 -0.90354599850E+01 -0.27752685799E+03  0.27767553151E+03  0.00000000000E+00 0.  1.
         21    1    1    2  502  501  0.25295279714E+01  0.30088616457E+02 -0.80153718793E+02  0.85652448817E+02  0.00000000000E+00 0.  1.
<mgrwt>
<rscale>  1 0.30000000E+03</rscale>
<asrwt>0</asrwt>
<pdfrwt beam="1">  1        1 0.10915342E-01 0.30000000E+03</pdfrwt>
<pdfrwt beam="2">0</pdfrwt>
<totfact> 0.66984889E+02</totfact>
</mgrwt>
</event>
<event>
 6    1  0.1956957E-002  0.3000000E+03  0.7818608E-02  0.1093470E+00
          1   -1    0    0  502    0  0.00000000000E+00  0.00000000000E+00  0.16171461431E+02  0.16171461431E+02  0.00000000000E+00 0.  1.
         13   -1    0    0    0    0 -0.00000000000E+00 -0.00000000000E+00 -0.10000000000E+04  0.10000000000E+04  0.00000000000E+00 0.  1.
    9000005    2    1    2  501    0  0.10520349569E+03 -0.61436033425E+02 -0.63738468874E+03  0.64893107314E+03  0.31834788963E+01 0.  0.
         13    1    3    3    0    0  0.61780837186E+02 -0.35272328910E+02 -0.36465304286E+03  0.37152772534E+03  0.00000000000E+00 0.  1.
          3    1    3    3  501    0  0.43422658504E+02 -0.26163704515E+02 -0.27273164588E+03  0.27740334780E+03  0.00000000000E+00 0.  1.
         21    1    1    2  502  501 -0.10520349569E+03  0.61436033425E+02 -0.34644384983E+03  0.36724038829E+03  0.00000000000E+00 0.  1.
<mgrwt>
<rscale>  1 0.30000000E+03</rscale>
<asrwt>0</asrwt>
<pdfrwt beam="1">  1        1 0.58805438E-01 0.30000000E+03</pdfrwt>
<pdfrwt beam="2">0</pdfrwt>
<totfact> 0.71221377E+01</totfact>
</mgrwt>
</event>
<event>
 6    1  0.1956957E-002  0.3000000E+03  0.7818608E-02  0.1093470E+00
          1   -1    0    0  502    0  0.00000000000E+00  0.00000000000E+00  0.13888253070E+01  0.13888253070E+01  0.00000000000E+00 0.  1.
         13   -1    0    0    0    0 -0.00000000000E+00 -0.00000000000E+00 -0.10000000000E+04  0.10000000000E+04  0.00000000000E+00 0.  1.
    9000005    2    1    2  501    0 -0.33703842236E+02  0.41908612900E+01 -0.70305889068E+03  0.70389148938E+03  0.42323461758E+01 0.  0.
         13    1    3    3    0    0 -0.21026300104E+02  0.59959944825E+00 -0.44229668519E+03  0.44279659274E+03  0.00000000000E+00 0.  1.
          3    1    3    3  501    0 -0.12677542132E+02  0.35912618418E+01 -0.26076220549E+03  0.26109489663E+03  0.00000000000E+00 0.  1.
         21    1    1    2  502  501  0.33703842236E+02 -0.41908612900E+01 -0.29555228401E+03  0.29749733593E+03  0.00000000000E+00 0.  1.
<mgrwt>
<rscale>  1 0.30000000E+03</rscale>
<asrwt>0</asrwt>
<pdfrwt beam="1">  1        1 0.50502845E-02 0.30000000E+03</pdfrwt>
<pdfrwt beam="2">0</pdfrwt>
<totfact> 0.19613802E+03</totfact>
</mgrwt>
</event>
<event>
 6    1  0.1956957E-002  0.3000000E+03  0.7818608E-02  0.1093470E+00
          1   -1    0    0  502    0  0.00000000000E+00  0.00000000000E+00  0.15001597409E+02  0.15001597409E+02  0.00000000000E+00 0.  1.
         13   -1    0    0    0    0 -0.00000000000E+00 -0.00000000000E+00 -0.10000000000E+04  0.10000000000E+04  0.00000000000E+00 0.  1.
    9000005    2    1    2  501    0 -0.28384669622E+02  0.23818044668E+02 -0.97621186138E+03  0.97692021052E+03  0.32420186571E+01 0.  0.
         13    1    3    3    0    0 -0.15607755969E+02  0.14302327279E+02 -0.59114782037E+03  0.59152675691E+03  0.00000000000E+00 0.  1.
          1    1    3    3  501    0 -0.12776913653E+02  0.95157173884E+01 -0.38506404101E+03  0.38539345360E+03  0.00000000000E+00 0.  1.
         21    1    1    2  502  501  0.28384669622E+02 -0.23818044668E+02 -0.87865412072E+01  0.38081386893E+02  0.00000000000E+00 0.  1.
<mgrwt>
<rscale>  1 0.30000000E+03</rscale>
<asrwt>0</asrwt>
<pdfrwt beam="1">  1        1 0.54551378E-01 0.30000000E+03</pdfrwt>
<pdfrwt beam="2">0</pdfrwt>
<totfact> 0.78671928E+01</totfact>
</mgrwt>
</event>
<event>
 6    1  0.1956957E-002  0.3000000E+03  0.7818608E-02  0.1093470E+00
          1   -1    0    0  502    0  0.00000000000E+00  0.00000000000E+00  0.16067836241E+01  0.16067836241E+01  0.00000000000E+00 0.  1.
         13   -1    0    0    0    0 -0.00000000000E+00 -0.00000000000E+00 -0.10000000000E+04  0.10000000000E+04  0.00000000000E+00 0.  1.
    9000005    2    1    2  501    0 -0.20334340609E+02  0.29967387974E+02 -0.71222212592E+03  0.71315328172E+03  0.39644448729E+01 0.  0.
         13    1    3    3    0    0 -0.94373767913E+01  0.15696676192E+02 -0.32616098909E+03  0.32667482383E+03  0.00000000000E+00 0.  1.
          1    1    3    3  501    0 -0.10896963818E+02  0.14270711782E+02 -0.38606113683E+03  0.38647845788E+03  0.00000000000E+00 0.  1.
         21    1    1    2  502  501  0.20334340609E+02 -0.29967387974E+02 -0.28617109046E+03  0.28845350191E+03  0.00000000000E+00 0.  1.
<mgrwt>
<rscale>  1 0.30000000E+03</rscale>
<asrwt>0</asrwt>
<pdfrwt beam="1">  1        1 0.58428619E-02 0.30000000E+03</pdfrwt>
<pdfrwt beam="2">0</pdfrwt>
<totfact> 0.15982677E+03</totfact>
</mgrwt>
</event>
<event>
 6    1  0.1956957E-002  0.3000000E+03  0.7818608E-02  0.1093470E+00
          3   -1    0    0  502    0  0.00000000000E+00  0.00000000000E+00  0.25257156643E+01  0.25257156643E+01  0.00000000000E+00 0.  1.
         13   -1    0    0    0    0 -0.00000000000E+00 -0.00000000000E+00 -0.10000000000E+04  0.10000000000E+04  0.00000000000E+00 0.  1.
    9000005    2    1    2  501    0  0.35072553509E+02  0.15680900613E+02 -0.82159188078E+03  0.82249628881E+03  0.33093633089E+01 0.  0.
         13    1    3    3    0    0  0.25635031097E+02  0.12979910446E+02 -0.60393686080E+03  0.60462001681E+03  0.00000000000E+00 0.  1.
          3    1    3    3  501    0  0.94375224118E+01  0.27009901672E+01 -0.21765501998E+03  0.21787627200E+03  0.00000000000E+00 0.  1.
         21    1    1    2  502  501 -0.35072553509E+02 -0.15680900613E+02 -0.17588240356E+03  0.18002942686E+03  0.00000000000E+00 0.  1.
<mgrwt>
<rscale>  1 0.30000000E+03</rscale>
<asrwt>0</asrwt>
<pdfrwt beam="1">  1        3 0.91844400E-02 0.30000000E+03</pdfrwt>
<pdfrwt beam="2">0</pdfrwt>
<totfact> 0.37952763E+02</totfact>
</mgrwt>
</event>
<event>
 6    1  0.1956957E-002  0.3000000E+03  0.7818608E-02  0.1093470E+00
          1   -1    0    0  502    0  0.00000000000E+00  0.00000000000E+00  0.14048927534E+01  0.14048927534E+01  0.00000000000E+00 0.  1.
         13   -1    0    0    0    0 -0.00000000000E+00 -0.00000000000E+00 -0.10000000000E+04  0.10000000000E+04  0.00000000000E+00 0.  1.
    9000005    2    1    2  501    0  0.10192826625E+02  0.29749823913E+02 -0.77087820935E+03  0.77152681350E+03  0.33859338559E+01 0.  0.
         13    1    3    3    0    0  0.40028368682E+01  0.76459751083E+01 -0.22940294792E+03  0.22956523290E+03  0.00000000000E+00 0.  1.
          3    1    3    3  501    0  0.61899897572E+01  0.22103848805E+02 -0.54147526143E+03  0.54196158060E+03  0.00000000000E+00 0.  1.
         21    1    1    2  502  501 -0.10192826625E+02 -0.29749823913E+02 -0.22771689789E+03  0.22987807926E+03  0.00000000000E+00 0.  1.
<mgrwt>
<rscale>  1 0.30000000E+03</rscale>
<asrwt>0</asrwt>
<pdfrwt beam="1">  1        1 0.51087117E-02 0.30000000E+03</pdfrwt>
<pdfrwt beam="2">0</pdfrwt>
<totfact> 0.19299296E+03</totfact>
</mgrwt>
</event>
<event>
 6    1  0.1956957E-002  0.3000000E+03  0.7818608E-02  0.1093470E+00
          3   -1    0    0  502    0  0.00000000000E+00  0.00000000000E+00  0.11540674916E+01  0.11540674916E+01  0.00000000000E+00 0.  1.
         13   -1    0    0    0    0 -0.00000000000E+00 -0.00000000000E+00 -0.10000000000E+04  0.10000000000E+04  0.00000000000E+00 0.  1.
    9000005    2    1    2  501    0 -0.13961389877E+02  0.26603493857E+02 -0.73124996454E+03  0.73187675993E+03  0.37966825546E+01 0.  0.
         13    1    3    3    0    0 -0.75186159466E+01  0.14271126749E+02 -0.34642543210E+03  0.34680077084E+03  0.00000000000E+00 0.  1.
          3    1    3    3  501    0 -0.64427739309E+01  0.12332367108E+02 -0.38482453244E+03  0.38507598910E+03  0.00000000000E+00 0.  1.
         21    1    1    2  502  501  0.13961389877E+02 -0.26603493857E+02 -0.26759596797E+03  0.26927730756E+03  0.00000000000E+00 0.  1.
<mgrwt>
<rscale>  1 0.30000000E+03</rscale>
<asrwt>0</asrwt>
<pdfrwt beam="1">  1        3 0.41966179E-02 0.30000000E+03</pdfrwt>
<pdfrwt beam="2">0</pdfrwt>
<totfact> 0.12961153E+03</totfact>
</mgrwt>
</event>
<event>
 6    1  0.1956957E-002  0.3000000E+03  0.7818608E-02  0.1093470E+00
          1   -1    0    0  502    0  0.00000000000E+00  0.00000000000E+00  0.34295031368E+01  0.34295031368E+01  0.00000000000E+00 0.  1.
         13   -1    0    0    0    0 -0.00000000000E+00 -0.00000000000E+00 -0.10000000000E+04  0.10000000000E+04  0.00000000000E+00 0.  1.
    9000005    2    1    2  501    0  0.34881393761E+02 -0.25106889962E+02 -0.83887379011E+03  0.83998128847E+03  0.35016718873E+01 0.  0.
         13    1    3    3    0    0  0.48273931709E+01 -0.44567514195E+01 -0.11020624022E+03  0.11040191005E+03  0.00000000000E+00 0.  1.
          1    1    3    3  501    0  0.30054000590E+02 -0.20650138542E+02 -0.72866754989E+03  0.72957937843E+03  0.00000000000E+00 0.  1.
         21    1    1    2  502  501 -0.34881393761E+02  0.25106889962E+02 -0.15769670676E+03  0.16344821466E+03  0.00000000000E+00 0.  1.
<mgrwt>
<rscale>  1 0.30000000E+03</rscale>
<asrwt>0</asrwt>
<pdfrwt beam="1">  1        1 0.12470947E-01 0.30000000E+03</pdfrwt>
<pdfrwt beam="2">0</pdfrwt>
<totfact> 0.55795562E+02</totfact>
</mgrwt>
</event>
<event>
 6    1  0.1956957E-002  0.3000000E+03  0.7818608E-02  0.1093470E+00
          1   -1    0    0  502    0  0.00000000000E+00  0.00000000000E+00  0.14168801966E+01  0.14168801966E+01  0.00000000000E+00 0.  1.
         13   -1    0    0    0    0 -0.00000000000E+00 -0.00000000000E+00 -0.10000000000E+04  0.10000000000E+04  0.00000000000E+00 0.  1.
    9000005    2    1    2  501    0  0.32444617533E+02  0.53808113172E+01 -0.74220765680E+03  0.74294060592E+03  0.26328244538E+01 0.  0.
         13    1    3    3    0    0  0.81226444888E+01  0.64246015557E+00 -0.16416432041E+03  0.16436640230E+03  0.00000000000E+00 0.  1.
          3    1    3    3  501    0  0.24321973045E+02  0.47383511616E+01 -0.57804333639E+03  0.57857420362E+03  0.00000000000E+00 0.  1.
         21    1    1    2  502  501 -0.32444617533E+02 -0.53808113172E+01 -0.25637546300E+03  0.25847627428E+03  0.00000000000E+00 0.  1.
<mgrwt>
<rscale>  1 0.30000000E+03</rscale>
<asrwt>0</asrwt>
<pdfrwt beam="1">  1        1 0.51523025E-02 0.30000000E+03</pdfrwt>
<pdfrwt beam="2">0</pdfrwt>
<totfact> 0.19070254E+03</totfact>
</mgrwt>
</event>
<event>
 6    1  0.1956957E-002  0.3000000E+03  0.7818608E-02  0.1093470E+00
          1   -1    0    0  502    0  0.00000000000E+00  0.00000000000E+00  0.18725887071E+01  0.18725887071E+01  0.00000000000E+00 0.  1.
         13   -1    0    0    0    0 -0.00000000000E+00 -0.00000000000E+00 -0.10000000000E+04  0.10000000000E+04  0.00000000000E+00 0.  1.
    9000005    2    1    2  501    0 -0.25619958880E+02  0.34360363330E+02 -0.56313657219E+03  0.56477529180E+03  0.33636925184E+01 0.  0.
         13    1    3    3    0    0 -0.92262825221E+01  0.14490035049E+02 -0.21155860023E+03  0.21225486269E+03  0.00000000000E+00 0.  1.
          3    1    3    3  501    0 -0.16393676358E+02  0.19870328281E+02 -0.35157797196E+03  0.35252042910E+03  0.00000000000E+00 0.  1.
         21    1    1    2  502  501  0.25619958880E+02 -0.34360363330E+02 -0.43499083910E+03  0.43709729691E+03  0.00000000000E+00 0.  1.
<mgrwt>
<rscale>  1 0.30000000E+03</rscale>
<asrwt>0</asrwt>
<pdfrwt beam="1">  1        1 0.68094278E-02 0.30000000E+03</pdfrwt>
<pdfrwt beam="2">0</pdfrwt>
<totfact> 0.12896547E+03</totfact>
</mgrwt>
</event>
<event>
 6    1  0.1956957E-002  0.3000000E+03  0.7818608E-02  0.1093470E+00
          3   -1    0    0  502    0  0.00000000000E+00  0.00000000000E+00  0.27817988606E+02  0.27817988606E+02  0.00000000000E+00 0.  1.
         13   -1    0    0    0    0 -0.00000000000E+00 -0.00000000000E+00 -0.10000000000E+04  0.10000000000E+04  0.00000000000E+00 0.  1.
    9000005    2    1    2  501    0 -0.44890706107E+02 -0.80002325216E+01 -0.98041673640E+03  0.98148236612E+03  0.33880357893E+01 0.  0.
         13    1    3    3    0    0 -0.11333973679E+01  0.31070508309E+00 -0.22311314047E+02  0.22342243884E+02  0.00000000000E+00 0.  1.
          1    1    3    3  501    0 -0.43757308739E+02 -0.83109376047E+01 -0.95810542235E+03  0.95914012224E+03  0.00000000000E+00 0.  1.
         21    1    1    2  502  501  0.44890706107E+02  0.80002325216E+01  0.82347250011E+01  0.46335622485E+02  0.00000000000E+00 0.  1.
<mgrwt>
<rscale>  1 0.30000000E+03</rscale>
<asrwt>0</asrwt>
<pdfrwt beam="1">  1        3 0.10115654E+00 0.30000000E+03</pdfrwt>
<pdfrwt beam="2">0</pdfrwt>
<totfact> 0.38000005E+00</totfact>
</mgrwt>
</event>
<event>
 6    1  0.1956957E-002  0.3000000E+03  0.7818608E-02  0.1093470E+00
          3   -1    0    0  502    0  0.00000000000E+00  0.00000000000E+00  0.30284727745E+01  0.30284727745E+01  0.00000000000E+00 0.  1.
         13   -1    0    0    0    0 -0.00000000000E+00 -0.00000000000E+00 -0.10000000000E+04  0.10000000000E+04  0.00000000000E+00 0.  1.
    9000005    2    1    2  501    0  0.45853008246E+02 -0.23206478107E+02 -0.32049254900E+03  0.32460025478E+03  0.29685765671E+01 0.  0.
         13    1    3    3    0    0  0.31180875208E+02 -0.16679885315E+02 -0.22732086811E+03  0.23005486874E+03  0.00000000000E+00 0.  1.
          1    1    3    3  501    0  0.14672133038E+02 -0.65265927916E+01 -0.93171680894E+02  0.94545386043E+02  0.00000000000E+00 0.  1.
         21    1    1    2  502  501 -0.45853008246E+02  0.23206478107E+02 -0.67647897822E+03  0.67842821799E+03  0.00000000000E+00 0.  1.
<mgrwt>
<rscale>  1 0.30000000E+03</rscale>
<asrwt>0</asrwt>
<pdfrwt beam="1">  1        3 0.11012651E-01 0.30000000E+03</pdfrwt>
<pdfrwt beam="2">0</pdfrwt>
<totfact> 0.28139147E+02</totfact>
</mgrwt>
</event>
<event>
 6    1  0.1956957E-002  0.3000000E+03  0.7818608E-02  0.1093470E+00
          1   -1    0    0  502    0  0.00000000000E+00  0.00000000000E+00  0.12258289213E+02  0.12258289213E+02  0.00000000000E+00 0.  1.
         13   -1    0    0    0    0 -0.00000000000E+00 -0.00000000000E+00 -0.10000000000E+04  0.10000000000E+04  0.00000000000E+00 0.  1.
    9000005    2    1    2  501    0  0.20923192167E+01 -0.67463250480E+02 -0.89504560707E+03  0.89759253317E+03  0.31699996519E+01 0.  0.
         13    1    3    3    0    0  0.28268912940E+01 -0.60475626155E+02 -0.79968881301E+03  0.80197723804E+03  0.00000000000E+00 0.  1.
          1    1    3    3  501    0 -0.73457207736E+00 -0.69876243258E+01 -0.95356794060E+02  0.95615295133E+02  0.00000000000E+00 0.  1.
         21    1    1    2  502  501 -0.20923192167E+01  0.67463250480E+02 -0.92696103714E+02  0.11466575604E+03  0.00000000000E+00 0.  1.
<mgrwt>
<rscale>  1 0.30000000E+03</rscale>
<asrwt>0</asrwt>
<pdfrwt beam="1">  1        1 0.44575691E-01 0.30000000E+03</pdfrwt>
<pdfrwt beam="2">0</pdfrwt>
<totfact> 0.10258436E+02</totfact>
</mgrwt>
</event>
<event>
 6    1  0.1956957E-002  0.3000000E+03  0.7818608E-02  0.1093470E+00
          1   -1    0    0  502    0  0.00000000000E+00  0.00000000000E+00  0.44336413713E+01  0.44336413713E+01  0.00000000000E+00 0.  1.
         13   -1    0    0    0    0 -0.00000000000E+00 -0.00000000000E+00 -0.10000000000E+04  0.10000000000E+04  0.00000000000E+00 0.  1.
    9000005    2    1    2  501    0  0.54620906344E+02  0.86393631282E+01 -0.77733035143E+03  0.77930026569E+03  0.28890922551E+01 0.  0.
         13    1    3    3    0    0  0.15294884148E+02  0.28441866980E+01 -0.23636845738E+03  0.23687986517E+03  0.00000000000E+00 0.  1.
          3    1    3    3  501    0  0.39326022195E+02  0.57951764302E+01 -0.54096189405E+03  0.54242040053E+03  0.00000000000E+00 0.  1.
         21    1    1    2  502  501 -0.54620906344E+02 -0.86393631282E+01 -0.21823600720E+03  0.22513337568E+03  0.00000000000E+00 0.  1.
<mgrwt>
<rscale>  1 0.30000000E+03</rscale>
<asrwt>0</asrwt>
<pdfrwt beam="1">  1        1 0.16122366E-01 0.30000000E+03</pdfrwt>
<pdfrwt beam="2">0</pdfrwt>
<totfact> 0.39338694E+02</totfact>
</mgrwt>
</event>
<event>
 6    1  0.1956957E-002  0.3000000E+03  0.7818608E-02  0.1093470E+00
          1   -1    0    0  502    0  0.00000000000E+00  0.00000000000E+00  0.14198568770E+01  0.14198568770E+01  0.00000000000E+00 0.  1.
         13   -1    0    0    0    0 -0.00000000000E+00 -0.00000000000E+00 -0.10000000000E+04  0.10000000000E+04  0.00000000000E+00 0.  1.
    9000005    2    1    2  501    0  0.36652578126E+02  0.80591305803E+01 -0.53416664827E+03  0.53549255003E+03  0.31467346543E+01 0.  0.
         13    1    3    3    0    0  0.18163544630E+02  0.25868442378E+01 -0.27134025733E+03  0.27195981571E+03  0.00000000000E+00 0.  1.
          1    1    3    3  501    0  0.18489033496E+02  0.54722863425E+01 -0.26282639095E+03  0.26353273431E+03  0.00000000000E+00 0.  1.
         21    1    1    2  502  501 -0.36652578126E+02 -0.80591305803E+01 -0.46441349485E+03  0.46592730685E+03  0.00000000000E+00 0.  1.
<mgrwt>
<rscale>  1 0.30000000E+03</rscale>
<asrwt>0</asrwt>
<pdfrwt beam="1">  1        1 0.51631268E-02 0.30000000E+03</pdfrwt>
<pdfrwt beam="2">0</pdfrwt>
<totfact> 0.19014102E+03</totfact>
</mgrwt>
</event>
<event>
 6    1  0.1956957E-002  0.3000000E+03  0.7818608E-02  0.1093470E+00
          1   -1    0    0  502    0  0.00000000000E+00  0.00000000000E+00  0.26526396151E+01  0.26526396151E+01  0.00000000000E+00 0.  1.
         13   -1    0    0    0    0 -0.00000000000E+00 -0.00000000000E+00 -0.10000000000E+04  0.10000000000E+04  0.00000000000E+00 0.  1.
    9000005    2    1    2  501    0 -0.51705242179E+01  0.31976432238E+02 -0.88819947265E+03  0.88879971723E+03  0.41722401098E+01 0.  0.
         13    1    3    3    0    0 -0.18776338958E+01  0.58320997711E+01 -0.20736899677E+03  0.20745948934E+03  0.00000000000E+00 0.  1.
          1    1    3    3  501    0 -0.32928903221E+01  0.26144332467E+02 -0.68083047588E+03  0.68134022788E+03  0.00000000000E+00 0.  1.
         21    1    1    2  502  501  0.51705242179E+01 -0.31976432238E+02 -0.10914788773E+03  0.11385292239E+03  0.00000000000E+00 0.  1.
<mgrwt>
<rscale>  1 0.30000000E+03</rscale>
<asrwt>0</asrwt>
<pdfrwt beam="1">  1        1 0.96459826E-02 0.30000000E+03</pdfrwt>
<pdfrwt beam="2">0</pdfrwt>
<totfact> 0.79432927E+02</totfact>
</mgrwt>
</event>
<event>
 6    1  0.1956957E-002  0.3000000E+03  0.7818608E-02  0.1093470E+00
          1   -1    0    0  502    0  0.00000000000E+00  0.00000000000E+00  0.12412247793E+01  0.12412247793E+01  0.00000000000E+00 0.  1.
         13   -1    0    0    0    0 -0.00000000000E+00 -0.00000000000E+00 -0.10000000000E+04  0.10000000000E+04  0.00000000000E+00 0.  1.
    9000005    2    1    2  501    0 -0.15165372734E+02 -0.31596376839E+02 -0.53517144242E+03  0.53633098108E+03  0.37588467803E+01 0.  0.
         13    1    3    3    0    0 -0.60078931011E+01 -0.88244720698E+01 -0.17232851165E+03  0.17265886022E+03  0.00000000000E+00 0.  1.
          1    1    3    3  501    0 -0.91574796331E+01 -0.22771904770E+02 -0.36284293077E+03  0.36367212086E+03  0.00000000000E+00 0.  1.
         21    1    1    2  502  501  0.15165372734E+02  0.31596376839E+02 -0.46358733280E+03  0.46491024370E+03  0.00000000000E+00 0.  1.
<mgrwt>
<rscale>  1 0.30000000E+03</rscale>
<asrwt>0</asrwt>
<pdfrwt beam="1">  1        1 0.45135542E-02 0.30000000E+03</pdfrwt>
<pdfrwt beam="2">0</pdfrwt>
<totfact> 0.22971403E+03</totfact>
</mgrwt>
</event>
<event>
 6    1  0.1956957E-002  0.3000000E+03  0.7818608E-02  0.1093470E+00
          3   -1    0    0  502    0  0.00000000000E+00  0.00000000000E+00  0.38450338677E+01  0.38450338677E+01  0.00000000000E+00 0.  1.
         13   -1    0    0    0    0 -0.00000000000E+00 -0.00000000000E+00 -0.10000000000E+04  0.10000000000E+04  0.00000000000E+00 0.  1.
    9000005    2    1    2  501    0 -0.17652056166E+02 -0.46877842366E+02 -0.79374613734E+03  0.79533013952E+03  0.28236669067E+01 0.  0.
         13    1    3    3    0    0 -0.48953853507E+01 -0.11517803796E+02 -0.18124484428E+03  0.18167641063E+03  0.00000000000E+00 0.  1.
          3    1    3    3  501    0 -0.12756670816E+02 -0.35360038570E+02 -0.61250129307E+03  0.61365372889E+03  0.00000000000E+00 0.  1.
         21    1    1    2  502  501  0.17652056166E+02  0.46877842366E+02 -0.20240882879E+03  0.20851489434E+03  0.00000000000E+00 0.  1.
<mgrwt>
<rscale>  1 0.30000000E+03</rscale>
<asrwt>0</asrwt>
<pdfrwt beam="1">  1        3 0.13981971E-01 0.30000000E+03</pdfrwt>
<pdfrwt beam="2">0</pdfrwt>
<totfact> 0.18787854E+02</totfact>
</mgrwt>
</event>
<event>
 6    1  0.1956957E-002  0.3000000E+03  0.7818608E-02  0.1093470E+00
          1   -1    0    0  502    0  0.00000000000E+00  0.00000000000E+00  0.13747668091E+01  0.13747668091E+01  0.00000000000E+00 0.  1.
         13   -1    0    0    0    0 -0.00000000000E+00 -0.00000000000E+00 -0.10000000000E+04  0.10000000000E+04  0.00000000000E+00 0.  1.
    9000005    2    1    2  501    0  0.14032566524E+02 -0.28597314464E+02 -0.75440580553E+03  0.75508662628E+03  0.36020068288E+01 0.  0.
         13    1    3    3    0    0  0.79978267579E+01 -0.13456813427E+02 -0.40012285982E+03  0.40042896250E+03  0.00000000000E+00 0.  1.
          3    1    3    3  501    0  0.60347397661E+01 -0.15140501037E+02 -0.35428294571E+03  0.35465766378E+03  0.00000000000E+00 0.  1.
         21    1    1    2  502  501 -0.14032566524E+02  0.28597314464E+02 -0.24421942766E+03  0.24628814053E+03  0.00000000000E+00 0.  1.
<mgrwt>
<rscale>  1 0.30000000E+03</rscale>
<asrwt>0</asrwt>
<pdfrwt beam="1">  1        1 0.49991626E-02 0.30000000E+03</pdfrwt>
<pdfrwt beam="2">0</pdfrwt>
<totfact> 0.19896287E+03</totfact>
</mgrwt>
</event>
<event>
 6    1  0.1956957E-002  0.3000000E+03  0.7818608E-02  0.1093470E+00
          1   -1    0    0  502    0  0.00000000000E+00  0.00000000000E+00  0.22522561423E+01  0.22522561423E+01  0.00000000000E+00 0.  1.
         13   -1    0    0    0    0 -0.00000000000E+00 -0.00000000000E+00 -0.10000000000E+04  0.10000000000E+04  0.00000000000E+00 0.  1.
    9000005    2    1    2  501    0 -0.17780961848E+02  0.24857791645E+02 -0.88204380157E+03  0.88257989229E+03  0.34534000742E+01 0.  0.
         13    1    3    3    0    0 -0.17541151024E+02  0.23372895636E+02 -0.82965597577E+03  0.83017047789E+03  0.00000000000E+00 0.  1.
          3    1    3    3  501    0 -0.23981082395E+00  0.14848960089E+01 -0.52387825795E+02  0.52409414393E+02  0.00000000000E+00 0.  1.
         21    1    1    2  502  501  0.17780961848E+02 -0.24857791645E+02 -0.11570394229E+03  0.11967236386E+03  0.00000000000E+00 0.  1.
<mgrwt>
<rscale>  1 0.30000000E+03</rscale>
<asrwt>0</asrwt>
<pdfrwt beam="1">  1        1 0.81900396E-02 0.30000000E+03</pdfrwt>
<pdfrwt beam="2">0</pdfrwt>
<totfact> 0.99673606E+02</totfact>
</mgrwt>
</event>
<event>
 6    1  0.1956957E-002  0.3000000E+03  0.7818608E-02  0.1093470E+00
          1   -1    0    0  502    0  0.00000000000E+00  0.00000000000E+00  0.12124200620E+02  0.12124200620E+02  0.00000000000E+00 0.  1.
         13   -1    0    0    0    0 -0.00000000000E+00 -0.00000000000E+00 -0.10000000000E+04  0.10000000000E+04  0.00000000000E+00 0.  1.
    9000005    2    1    2  501    0 -0.82653597751E+02  0.63392807454E+02 -0.65778157207E+03  0.66598482961E+03  0.29885549813E+01 0.  0.
         13    1    3    3    0    0 -0.36642172244E+02  0.29403446570E+02 -0.30347719571E+03  0.30709220077E+03  0.00000000000E+00 0.  1.
          3    1    3    3  501    0 -0.46011425507E+02  0.33989360884E+02 -0.35430437636E+03  0.35889262884E+03  0.00000000000E+00 0.  1.
         21    1    1    2  502  501  0.82653597751E+02 -0.63392807454E+02 -0.33009422731E+03  0.34613937101E+03  0.00000000000E+00 0.  1.
<mgrwt>
<rscale>  1 0.30000000E+03</rscale>
<asrwt>0</asrwt>
<pdfrwt beam="1">  1        1 0.44088095E-01 0.30000000E+03</pdfrwt>
<pdfrwt beam="2">0</pdfrwt>
<totfact> 0.10407196E+02</totfact>
</mgrwt>
</event>
<event>
 6    1  0.1956957E-002  0.3000000E+03  0.7818608E-02  0.1093470E+00
          3   -1    0    0  502    0  0.00000000000E+00  0.00000000000E+00  0.21078644356E+01  0.21078644356E+01  0.00000000000E+00 0.  1.
         13   -1    0    0    0    0 -0.00000000000E+00 -0.00000000000E+00 -0.10000000000E+04  0.10000000000E+04  0.00000000000E+00 0.  1.
    9000005    2    1    2  501    0  0.97021371460E+01 -0.37486848164E+02 -0.76741966258E+03  0.76840515574E+03  0.37615947915E+01 0.  0.
         13    1    3    3    0    0  0.35310770212E+01 -0.80283750710E+01 -0.18733764263E+03  0.18754283686E+03  0.00000000000E+00 0.  1.
          3    1    3    3  501    0  0.61710601248E+01 -0.29458473093E+02 -0.58008201996E+03  0.58086231888E+03  0.00000000000E+00 0.  1.
         21    1    1    2  502  501 -0.97021371460E+01  0.37486848164E+02 -0.23047247298E+03  0.23370270870E+03  0.00000000000E+00 0.  1.
<mgrwt>
<rscale>  1 0.30000000E+03</rscale>
<asrwt>0</asrwt>
<pdfrwt beam="1">  1        3 0.76649777E-02 0.30000000E+03</pdfrwt>
<pdfrwt beam="2">0</pdfrwt>
<totfact> 0.50733905E+02</totfact>
</mgrwt>
</event>
<event>
 6    1  0.1956957E-002  0.3000000E+03  0.7818608E-02  0.1093470E+00
          1   -1    0    0  502    0  0.00000000000E+00  0.00000000000E+00  0.16952563698E+01  0.16952563698E+01  0.00000000000E+00 0.  1.
         13   -1    0    0    0    0 -0.00000000000E+00 -0.00000000000E+00 -0.10000000000E+04  0.10000000000E+04  0.00000000000E+00 0.  1.
    9000005    2    1    2  501    0 -0.24361295091E+02  0.19287559836E+02 -0.82740057822E+03  0.82798942337E+03  0.30472469744E+01 0.  0.
         13    1    3    3    0    0 -0.91524237950E+01  0.77286863057E+01 -0.28168893873E+03  0.28194353629E+03  0.00000000000E+00 0.  1.
          1    1    3    3  501    0 -0.15208871296E+02  0.11558873530E+02 -0.54571163948E+03  0.54604588707E+03  0.00000000000E+00 0.  1.
         21    1    1    2  502  501  0.24361295091E+02 -0.19287559836E+02 -0.17090416542E+03  0.17370583300E+03  0.00000000000E+00 0.  1.
<mgrwt>
<rscale>  1 0.30000000E+03</rscale>
<asrwt>0</asrwt>
<pdfrwt beam="1">  1        1 0.61645816E-02 0.30000000E+03</pdfrwt>
<pdfrwt beam="2">0</pdfrwt>
<totfact> 0.14824992E+03</totfact>
</mgrwt>
</event>
<event>
 6    1  0.1956957E-002  0.3000000E+03  0.7818608E-02  0.1093470E+00
          3   -1    0    0  502    0  0.00000000000E+00  0.00000000000E+00  0.13778201377E+01  0.13778201377E+01  0.00000000000E+00 0.  1.
         13   -1    0    0    0    0 -0.00000000000E+00 -0.00000000000E+00 -0.10000000000E+04  0.10000000000E+04  0.00000000000E+00 0.  1.
    9000005    2    1    2  501    0 -0.30679126057E+02 -0.67422640551E+01 -0.76513627116E+03  0.76578848153E+03  0.34377475980E+01 0.  0.
         13    1    3    3    0    0 -0.16286547154E+02 -0.19818578544E+01 -0.38024838676E+03  0.38060217421E+03  0.00000000000E+00 0.  1.
          1    1    3    3  501    0 -0.14392578903E+02 -0.47604062007E+01 -0.38488788439E+03  0.38518630732E+03  0.00000000000E+00 0.  1.
         21    1    1    2  502  501  0.30679126057E+02  0.67422640551E+01 -0.23348590871E+03  0.23558933861E+03  0.00000000000E+00 0.  1.
<mgrwt>
<rscale>  1 0.30000000E+03</rscale>
<asrwt>0</asrwt>
<pdfrwt beam="1">  1        3 0.50102656E-02 0.30000000E+03</pdfrwt>
<pdfrwt beam="2">0</pdfrwt>
<totfact> 0.98626690E+02</totfact>
</mgrwt>
</event>
<event>
 6    1  0.1956957E-002  0.3000000E+03  0.7818608E-02  0.1093470E+00
          3   -1    0    0  502    0  0.00000000000E+00  0.00000000000E+00  0.11561956764E+01  0.11561956764E+01  0.00000000000E+00 0.  1.
         13   -1    0    0    0    0 -0.00000000000E+00 -0.00000000000E+00 -0.10000000000E+04  0.10000000000E+04  0.00000000000E+00 0.  1.
    9000005    2    1    2  501    0  0.30285358877E+02 -0.26041162768E+01 -0.72216621279E+03  0.72281382729E+03  0.34359332805E+01 0.  0.
         13    1    3    3    0    0  0.28238246333E+02 -0.15595276108E+01 -0.66250985044E+03  0.66311321251E+03  0.00000000000E+00 0.  1.
          3    1    3    3  501    0  0.20471125444E+01 -0.10445886660E+01 -0.59656362358E+02  0.59700614779E+02  0.00000000000E+00 0.  1.
         21    1    1    2  502  501 -0.30285358877E+02  0.26041162768E+01 -0.27667759153E+03  0.27834236839E+03  0.00000000000E+00 0.  1.
<mgrwt>
<rscale>  1 0.30000000E+03</rscale>
<asrwt>0</asrwt>
<pdfrwt beam="1">  1        3 0.42043568E-02 0.30000000E+03</pdfrwt>
<pdfrwt beam="2">0</pdfrwt>
<totfact> 0.12924508E+03</totfact>
</mgrwt>
</event>
<event>
 6    1  0.1956957E-002  0.3000000E+03  0.7818608E-02  0.1093470E+00
          3   -1    0    0  502    0  0.00000000000E+00  0.00000000000E+00  0.25247899607E+01  0.25247899607E+01  0.00000000000E+00 0.  1.
         13   -1    0    0    0    0 -0.00000000000E+00 -0.00000000000E+00 -0.10000000000E+04  0.10000000000E+04  0.00000000000E+00 0.  1.
    9000005    2    1    2  501    0 -0.18833839726E+02  0.45739060547E+02 -0.58450639873E+03  0.58660410727E+03  0.31421850913E+01 0.  0.
         13    1    3    3    0    0 -0.18703816126E+02  0.43974851506E+02 -0.56154956350E+03  0.56357921587E+03  0.00000000000E+00 0.  1.
          3    1    3    3  501    0 -0.13002360017E+00  0.17642090406E+01 -0.22956835234E+02  0.23024891392E+02  0.00000000000E+00 0.  1.
         21    1    1    2  502  501  0.18833839726E+02 -0.45739060547E+02 -0.41296881131E+03  0.41592068269E+03  0.00000000000E+00 0.  1.
<mgrwt>
<rscale>  1 0.30000000E+03</rscale>
<asrwt>0</asrwt>
<pdfrwt beam="1">  1        3 0.91810738E-02 0.30000000E+03</pdfrwt>
<pdfrwt beam="2">0</pdfrwt>
<totfact> 0.37975355E+02</totfact>
</mgrwt>
</event>
<event>
 6    1  0.1956957E-002  0.3000000E+03  0.7818608E-02  0.1093470E+00
          1   -1    0    0  502    0  0.00000000000E+00  0.00000000000E+00  0.34782334542E+01  0.34782334542E+01  0.00000000000E+00 0.  1.
         13   -1    0    0    0    0 -0.00000000000E+00 -0.00000000000E+00 -0.10000000000E+04  0.10000000000E+04  0.00000000000E+00 0.  1.
    9000005    2    1    2  501    0  0.11324215328E+02 -0.42747910452E+02 -0.82949388967E+03  0.83069532529E+03  0.62440975578E+01 0.  0.
         13    1    3    3    0    0 -0.15762970888E+00 -0.31574987929E+01 -0.87700889333E+02  0.87757852273E+02  0.00000000000E+00 0.  1.
          3    1    3    3  501    0  0.11481845037E+02 -0.39590411659E+02 -0.74179300034E+03  0.74293747302E+03  0.00000000000E+00 0.  1.
         21    1    1    2  502  501 -0.11324215328E+02  0.42747910452E+02 -0.16702787687E+03  0.17278290816E+03  0.00000000000E+00 0.  1.
<mgrwt>
<rscale>  1 0.30000000E+03</rscale>
<asrwt>0</asrwt>
<pdfrwt beam="1">  1        1 0.12648148E-01 0.30000000E+03</pdfrwt>
<pdfrwt beam="2">0</pdfrwt>
<totfact> 0.54728590E+02</totfact>
</mgrwt>
</event>
<event>
 6    1  0.1956957E-002  0.3000000E+03  0.7818608E-02  0.1093470E+00
          1   -1    0    0  502    0  0.00000000000E+00  0.00000000000E+00  0.22620570835E+01  0.22620570835E+01  0.00000000000E+00 0.  1.
         13   -1    0    0    0    0 -0.00000000000E+00 -0.00000000000E+00 -0.10000000000E+04  0.10000000000E+04  0.00000000000E+00 0.  1.
    9000005    2    1    2  501    0 -0.47403642876E+02  0.14595634568E+01 -0.46834436699E+03  0.47074837531E+03  0.28898234568E+01 0.  0.
         13    1    3    3    0    0 -0.32515351865E+02  0.14953195126E+01 -0.33343216470E+03  0.33501715261E+03  0.00000000000E+00 0.  1.
          1    1    3    3  501    0 -0.14888291011E+02 -0.35756055763E-01 -0.13491220229E+03  0.13573122270E+03  0.00000000000E+00 0.  1.
         21    1    1    2  502  501  0.47403642876E+02 -0.14595634568E+01 -0.52939357592E+03  0.53151368177E+03  0.00000000000E+00 0.  1.
<mgrwt>
<rscale>  1 0.30000000E+03</rscale>
<asrwt>0</asrwt>
<pdfrwt beam="1">  1        1 0.82256795E-02 0.30000000E+03</pdfrwt>
<pdfrwt beam="2">0</pdfrwt>
<totfact> 0.99073379E+02</totfact>
</mgrwt>
</event>
<event>
 6    1  0.1956957E-002  0.3000000E+03  0.7818608E-02  0.1093470E+00
          1   -1    0    0  502    0  0.00000000000E+00  0.00000000000E+00  0.45719946169E+01  0.45719946169E+01  0.00000000000E+00 0.  1.
         13   -1    0    0    0    0 -0.00000000000E+00 -0.00000000000E+00 -0.10000000000E+04  0.10000000000E+04  0.00000000000E+00 0.  1.
    9000005    2    1    2  501    0  0.25500346206E+02 -0.19568670411E+02 -0.93956795409E+03  0.94012398574E+03  0.34594341391E+01 0.  0.
         13    1    3    3    0    0  0.18102809542E+02 -0.15666037368E+02 -0.67977998855E+03  0.68020141816E+03  0.00000000000E+00 0.  1.
          3    1    3    3  501    0  0.73975366633E+01 -0.39026330426E+01 -0.25978796554E+03  0.25992256757E+03  0.00000000000E+00 0.  1.
         21    1    1    2  502  501 -0.25500346206E+02  0.19568670411E+02 -0.55860051292E+02  0.64448008880E+02  0.00000000000E+00 0.  1.
<mgrwt>
<rscale>  1 0.30000000E+03</rscale>
<asrwt>0</asrwt>
<pdfrwt beam="1">  1        1 0.16625470E-01 0.30000000E+03</pdfrwt>
<pdfrwt beam="2">0</pdfrwt>
<totfact> 0.37738481E+02</totfact>
</mgrwt>
</event>
<event>
 6    1  0.1956957E-002  0.3000000E+03  0.7818608E-02  0.1093470E+00
          1   -1    0    0  502    0  0.00000000000E+00  0.00000000000E+00  0.36129339554E+01  0.36129339554E+01  0.00000000000E+00 0.  1.
         13   -1    0    0    0    0 -0.00000000000E+00 -0.00000000000E+00 -0.10000000000E+04  0.10000000000E+04  0.00000000000E+00 0.  1.
    9000005    2    1    2  501    0  0.11766305485E+02 -0.39430588405E+02 -0.86390014942E+03  0.86488297928E+03  0.24253738635E+01 0.  0.
         13    1    3    3    0    0  0.10129033000E+02 -0.31984359212E+02 -0.71922450270E+03  0.72000658457E+03  0.00000000000E+00 0.  1.
          3    1    3    3  501    0  0.16372724852E+01 -0.74462291935E+01 -0.14467564672E+03  0.14487639471E+03  0.00000000000E+00 0.  1.
         21    1    1    2  502  501 -0.11766305485E+02  0.39430588405E+02 -0.13248691662E+03  0.13872995467E+03  0.00000000000E+00 0.  1.
<mgrwt>
<rscale>  1 0.30000000E+03</rscale>
<asrwt>0</asrwt>
<pdfrwt beam="1">  1        1 0.13137969E-01 0.30000000E+03</pdfrwt>
<pdfrwt beam="2">0</pdfrwt>
<totfact> 0.51959040E+02</totfact>
</mgrwt>
</event>
<event>
 6    1  0.1956957E-002  0.3000000E+03  0.7818608E-02  0.1093470E+00
          1   -1    0    0  502    0  0.00000000000E+00  0.00000000000E+00  0.41463488138E+01  0.41463488138E+01  0.00000000000E+00 0.  1.
         13   -1    0    0    0    0 -0.00000000000E+00 -0.00000000000E+00 -0.10000000000E+04  0.10000000000E+04  0.00000000000E+00 0.  1.
    9000005    2    1    2  501    0 -0.27090489736E+02  0.20121808566E+02 -0.92545407718E+03  0.92607662463E+03  0.37261105774E+01 0.  0.
         13    1    3    3    0    0 -0.16710447862E+02  0.11046639650E+02 -0.50748367479E+03  0.50787887089E+03  0.00000000000E+00 0.  1.
          3    1    3    3  501    0 -0.10380041874E+02  0.90751689164E+01 -0.41797040238E+03  0.41819775374E+03  0.00000000000E+00 0.  1.
         21    1    1    2  502  501  0.27090489736E+02 -0.20121808566E+02 -0.70399574008E+02  0.78069724187E+02  0.00000000000E+00 0.  1.
<mgrwt>
<rscale>  1 0.30000000E+03</rscale>
<asrwt>0</asrwt>
<pdfrwt beam="1">  1        1 0.15077664E-01 0.30000000E+03</pdfrwt>
<pdfrwt beam="2">0</pdfrwt>
<totfact> 0.43077463E+02</totfact>
</mgrwt>
</event>
<event>
 6    1  0.1956957E-002  0.3000000E+03  0.7818608E-02  0.1093470E+00
          1   -1    0    0  502    0  0.00000000000E+00  0.00000000000E+00  0.11537308062E+01  0.11537308062E+01  0.00000000000E+00 0.  1.
         13   -1    0    0    0    0 -0.00000000000E+00 -0.00000000000E+00 -0.10000000000E+04  0.10000000000E+04  0.00000000000E+00 0.  1.
    9000005    2    1    2  501    0 -0.21535432173E+01 -0.33749294739E+02 -0.52914739984E+03  0.53023900337E+03  0.35745340828E+01 0.  0.
         13    1    3    3    0    0 -0.55671468852E+00 -0.17747634644E+01 -0.20094101256E+02  0.20180005498E+02  0.00000000000E+00 0.  1.
          1    1    3    3  501    0 -0.15968285288E+01 -0.31974531275E+02 -0.50905329858E+03  0.51005899787E+03  0.00000000000E+00 0.  1.
         21    1    1    2  502  501  0.21535432173E+01  0.33749294739E+02 -0.46969886936E+03  0.47091472744E+03  0.00000000000E+00 0.  1.
<mgrwt>
<rscale>  1 0.30000000E+03</rscale>
<asrwt>0</asrwt>
<pdfrwt beam="1">  1        1 0.41953936E-02 0.30000000E+03</pdfrwt>
<pdfrwt beam="2">0</pdfrwt>
<totfact> 0.25461081E+03</totfact>
</mgrwt>
</event>
<event>
 6    1  0.1956957E-002  0.3000000E+03  0.7818608E-02  0.1093470E+00
          1   -1    0    0  502    0  0.00000000000E+00  0.00000000000E+00  0.12915320905E+01  0.12915320905E+01  0.00000000000E+00 0.  1.
         13   -1    0    0    0    0 -0.00000000000E+00 -0.00000000000E+00 -0.10000000000E+04  0.10000000000E+04  0.00000000000E+00 0.  1.
    9000005    2    1    2  501    0 -0.15800618872E+02  0.32135489727E+02 -0.52830451207E+03  0.52952651545E+03  0.32130723737E+01 0.  0.
         13    1    3    3    0    0 -0.48160635722E+01  0.10498974430E+02 -0.19275166707E+03  0.19309745750E+03  0.00000000000E+00 0.  1.
          1    1    3    3  501    0 -0.10984555300E+02  0.21636515297E+02 -0.33555284500E+03  0.33642905795E+03  0.00000000000E+00 0.  1.
         21    1    1    2  502  501  0.15800618872E+02 -0.32135489727E+02 -0.47040395584E+03  0.47176501664E+03  0.00000000000E+00 0.  1.
<mgrwt>
<rscale>  1 0.30000000E+03</rscale>
<asrwt>0</asrwt>
<pdfrwt beam="1">  1        1 0.46964902E-02 0.30000000E+03</pdfrwt>
<pdfrwt beam="2">0</pdfrwt>
<totfact> 0.21722529E+03</totfact>
</mgrwt>
</event>
<event>
 6    1  0.1956957E-002  0.3000000E+03  0.7818608E-02  0.1093470E+00
          3   -1    0    0  502    0  0.00000000000E+00  0.00000000000E+00  0.16664083153E+01  0.16664083153E+01  0.00000000000E+00 0.  1.
         13   -1    0    0    0    0 -0.00000000000E+00 -0.00000000000E+00 -0.10000000000E+04  0.10000000000E+04  0.00000000000E+00 0.  1.
    9000005    2    1    2  501    0  0.30137541703E+02  0.18950347388E+02 -0.74319987736E+03  0.74406089736E+03  0.36296275392E+01 0.  0.
         13    1    3    3    0    0  0.64227755199E+01  0.58633737518E+01 -0.17713500260E+03  0.17734835873E+03  0.00000000000E+00 0.  1.
          3    1    3    3  501    0  0.23714766183E+02  0.13086973637E+02 -0.56606487475E+03  0.56671253863E+03  0.00000000000E+00 0.  1.
         21    1    1    2  502  501 -0.30137541703E+02 -0.18950347388E+02 -0.25513371433E+03  0.25760551095E+03  0.00000000000E+00 0.  1.
<mgrwt>
<rscale>  1 0.30000000E+03</rscale>
<asrwt>0</asrwt>
<pdfrwt beam="1">  1        3 0.60596794E-02 0.30000000E+03</pdfrwt>
<pdfrwt beam="2">0</pdfrwt>
<totfact> 0.73428102E+02</totfact>
</mgrwt>
</event>
<event>
 6    1  0.1956957E-002  0.3000000E+03  0.7818608E-02  0.1093470E+00
          1   -1    0    0  502    0  0.00000000000E+00  0.00000000000E+00  0.73001499310E+01  0.73001499310E+01  0.00000000000E+00 0.  1.
         13   -1    0    0    0    0 -0.00000000000E+00 -0.00000000000E+00 -0.10000000000E+04  0.10000000000E+04  0.00000000000E+00 0.  1.
    9000005    2    1    2  501    0 -0.98273638257E+01  0.68239932657E+02 -0.79283316170E+03  0.79587650270E+03  0.90398987778E+01 0.  0.
         13    1    3    3    0    0 -0.40061938361E+01  0.79321227340E+01 -0.90904709722E+02  0.91338022804E+02  0.00000000000E+00 0.  1.
          1    1    3    3  501    0 -0.58211699896E+01  0.60307809923E+02 -0.70192845198E+03  0.70453847990E+03  0.00000000000E+00 0.  1.
         21    1    1    2  502  501  0.98273638257E+01 -0.68239932657E+02 -0.19986668837E+03  0.21142364723E+03  0.00000000000E+00 0.  1.
<mgrwt>
<rscale>  1 0.30000000E+03</rscale>
<asrwt>0</asrwt>
<pdfrwt beam="1">  1        1 0.26546056E-01 0.30000000E+03</pdfrwt>
<pdfrwt beam="2">0</pdfrwt>
<totfact> 0.20225815E+02</totfact>
</mgrwt>
</event>
<event>
 6    1  0.1956957E-002  0.3000000E+03  0.7818608E-02  0.1093470E+00
          3   -1    0    0  502    0  0.00000000000E+00  0.00000000000E+00  0.13692360989E+01  0.13692360989E+01  0.00000000000E+00 0.  1.
         13   -1    0    0    0    0 -0.00000000000E+00 -0.00000000000E+00 -0.10000000000E+04  0.10000000000E+04  0.00000000000E+00 0.  1.
    9000005    2    1    2  501    0 -0.24110509279E+02 -0.21139899659E+02 -0.74785513722E+03  0.74855185744E+03  0.37901178409E+01 0.  0.
         13    1    3    3    0    0 -0.18117285203E+02 -0.15567867318E+02 -0.59254224578E+03  0.59302353035E+03  0.00000000000E+00 0.  1.
          3    1    3    3  501    0 -0.59932240756E+01 -0.55720323417E+01 -0.15531289144E+03  0.15552832709E+03  0.00000000000E+00 0.  1.
         21    1    1    2  502  501  0.24110509279E+02  0.21139899659E+02 -0.25077562668E+03  0.25281737866E+03  0.00000000000E+00 0.  1.
<mgrwt>
<rscale>  1 0.30000000E+03</rscale>
<asrwt>0</asrwt>
<pdfrwt beam="1">  1        3 0.49790509E-02 0.30000000E+03</pdfrwt>
<pdfrwt beam="2">0</pdfrwt>
<totfact> 0.99582804E+02</totfact>
</mgrwt>
</event>
<event>
 6    1  0.1956957E-002  0.3000000E+03  0.7818608E-02  0.1093470E+00
          1   -1    0    0  502    0  0.00000000000E+00  0.00000000000E+00  0.12069233709E+01  0.12069233709E+01  0.00000000000E+00 0.  1.
         13   -1    0    0    0    0 -0.00000000000E+00 -0.00000000000E+00 -0.10000000000E+04  0.10000000000E+04  0.00000000000E+00 0.  1.
    9000005    2    1    2  501    0 -0.29055194568E+02 -0.17147776004E+02 -0.61542658257E+03  0.61635874640E+03  0.31583496404E+01 0.  0.
         13    1    3    3    0    0 -0.29091936112E+01 -0.10026241536E+01 -0.69367093588E+02  0.69435310437E+02  0.00000000000E+00 0.  1.
          3    1    3    3  501    0 -0.26146000956E+02 -0.16145151851E+02 -0.54605948899E+03  0.54692343596E+03  0.00000000000E+00 0.  1.
         21    1    1    2  502  501  0.29055194568E+02  0.17147776004E+02 -0.38336649406E+03  0.38484817697E+03  0.00000000000E+00 0.  1.
<mgrwt>
<rscale>  1 0.30000000E+03</rscale>
<asrwt>0</asrwt>
<pdfrwt beam="1">  1        1 0.43888215E-02 0.30000000E+03</pdfrwt>
<pdfrwt beam="2">0</pdfrwt>
<totfact> 0.23895601E+03</totfact>
</mgrwt>
</event>
<event>
 6    1  0.1956957E-002  0.3000000E+03  0.7818608E-02  0.1093470E+00
          1   -1    0    0  502    0  0.00000000000E+00  0.00000000000E+00  0.53993951665E+01  0.53993951665E+01  0.00000000000E+00 0.  1.
         13   -1    0    0    0    0 -0.00000000000E+00 -0.00000000000E+00 -0.10000000000E+04  0.10000000000E+04  0.00000000000E+00 0.  1.
    9000005    2    1    2  501    0  0.70995469383E+02  0.92272911857E+01 -0.38504257676E+03  0.39165149157E+03  0.27577814287E+01 0.  0.
         13    1    3    3    0    0  0.78760889841E+01  0.18542377106E+01 -0.45080329583E+02  0.45800732423E+02  0.00000000000E+00 0.  1.
          3    1    3    3  501    0  0.63119380399E+02  0.73730534751E+01 -0.33996224717E+03  0.34585075915E+03  0.00000000000E+00 0.  1.
         21    1    1    2  502  501 -0.70995469383E+02 -0.92272911857E+01 -0.60955802808E+03  0.61374790360E+03  0.00000000000E+00 0.  1.
<mgrwt>
<rscale>  1 0.30000000E+03</rscale>
<asrwt>0</asrwt>
<pdfrwt beam="1">  1        1 0.19634206E-01 0.30000000E+03</pdfrwt>
<pdfrwt beam="2">0</pdfrwt>
<totfact> 0.30177844E+02</totfact>
</mgrwt>
</event>
<event>
 6    1  0.1956957E-002  0.3000000E+03  0.7818608E-02  0.1093470E+00
          1   -1    0    0  502    0  0.00000000000E+00  0.00000000000E+00  0.26350034079E+01  0.26350034079E+01  0.00000000000E+00 0.  1.
         13   -1    0    0    0    0 -0.00000000000E+00 -0.00000000000E+00 -0.10000000000E+04  0.10000000000E+04  0.00000000000E+00 0.  1.
    9000005    2    1    2  501    0  0.67597310066E+01 -0.39195721684E+02 -0.81538376779E+03  0.81635788136E+03  0.27391831172E+01 0.  0.
         13    1    3    3    0    0  0.17610951858E+01 -0.12404555310E+02 -0.28236338032E+03  0.28264120895E+03  0.00000000000E+00 0.  1.
          1    1    3    3  501    0  0.49986358207E+01 -0.26791166374E+02 -0.53302038747E+03  0.53371667241E+03  0.00000000000E+00 0.  1.
         21    1    1    2  502  501 -0.67597310066E+01  0.39195721684E+02 -0.18198122880E+03  0.18627712205E+03  0.00000000000E+00 0.  1.
<mgrwt>
<rscale>  1 0.30000000E+03</rscale>
<asrwt>0</asrwt>
<pdfrwt beam="1">  1        1 0.95818508E-02 0.30000000E+03</pdfrwt>
<pdfrwt beam="2">0</pdfrwt>
<totfact> 0.80169419E+02</totfact>
</mgrwt>
</event>
<event>
 6    1  0.1956957E-002  0.3000000E+03  0.7818608E-02  0.1093470E+00
          1   -1    0    0  502    0  0.00000000000E+00  0.00000000000E+00  0.11072172181E+01  0.11072172181E+01  0.00000000000E+00 0.  1.
         13   -1    0    0    0    0 -0.00000000000E+00 -0.00000000000E+00 -0.10000000000E+04  0.10000000000E+04  0.00000000000E+00 0.  1.
    9000005    2    1    2  501    0  0.32389218986E+02 -0.46155047350E+01 -0.41585256223E+03  0.41714980168E+03  0.31998642101E+01 0.  0.
         13    1    3    3    0    0  0.25827038129E+02 -0.30186313054E+01 -0.34344368706E+03  0.34442664562E+03  0.00000000000E+00 0.  1.
          3    1    3    3  501    0  0.65621808568E+01 -0.15968734296E+01 -0.72408875173E+02  0.72723156052E+02  0.00000000000E+00 0.  1.
         21    1    1    2  502  501 -0.32389218986E+02  0.46155047350E+01 -0.58304022055E+03  0.58395741554E+03  0.00000000000E+00 0.  1.
<mgrwt>
<rscale>  1 0.30000000E+03</rscale>
<asrwt>0</asrwt>
<pdfrwt beam="1">  1        1 0.40262529E-02 0.30000000E+03</pdfrwt>
<pdfrwt beam="2">0</pdfrwt>
<totfact> 0.26979878E+03</totfact>
</mgrwt>
</event>
<event>
 6    1  0.1956957E-002  0.3000000E+03  0.7818608E-02  0.1093470E+00
          1   -1    0    0  502    0  0.00000000000E+00  0.00000000000E+00  0.16341541571E+02  0.16341541571E+02  0.00000000000E+00 0.  1.
         13   -1    0    0    0    0 -0.00000000000E+00 -0.00000000000E+00 -0.10000000000E+04  0.10000000000E+04  0.00000000000E+00 0.  1.
    9000005    2    1    2  501    0 -0.15444082580E+02 -0.69018349070E+02 -0.91512690930E+03  0.91785994217E+03  0.27497483932E+01 0.  0.
         13    1    3    3    0    0 -0.23757041175E+01 -0.15749074513E+02 -0.20273053003E+03  0.20335521907E+03  0.00000000000E+00 0.  1.
          3    1    3    3  501    0 -0.13068378463E+02 -0.53269274557E+02 -0.71239637927E+03  0.71450472310E+03  0.00000000000E+00 0.  1.
         21    1    1    2  502  501  0.15444082580E+02  0.69018349070E+02 -0.68531549130E+02  0.98481599404E+02  0.00000000000E+00 0.  1.
<mgrwt>
<rscale>  1 0.30000000E+03</rscale>
<asrwt>0</asrwt>
<pdfrwt beam="1">  1        1 0.59423913E-01 0.30000000E+03</pdfrwt>
<pdfrwt beam="2">0</pdfrwt>
<totfact> 0.70238560E+01</totfact>
</mgrwt>
</event>
<event>
 6    1  0.1956957E-002  0.3000000E+03  0.7818608E-02  0.1093470E+00
          1   -1    0    0  502    0  0.00000000000E+00  0.00000000000E+00  0.22653862427E+02  0.22653862427E+02  0.00000000000E+00 0.  1.
         13   -1    0    0    0    0 -0.00000000000E+00 -0.00000000000E+00 -0.10000000000E+04  0.10000000000E+04  0.00000000000E+00 0.  1.
    9000005    2    1    2  501    0  0.62367393677E+02  0.13424380651E+01 -0.95400507077E+03  0.95604831210E+03  0.33475507972E+01 0.  0.
         13    1    3    3    0    0  0.28645259691E+02 -0.56405049842E+00 -0.45593622717E+03  0.45683554186E+03  0.00000000000E+00 0.  1.
          1    1    3    3  501    0  0.33722133986E+02  0.19064885635E+01 -0.49806884359E+03  0.49921277025E+03  0.00000000000E+00 0.  1.
         21    1    1    2  502  501 -0.62367393677E+02 -0.13424380651E+01 -0.23341066807E+02  0.66605550322E+02  0.00000000000E+00 0.  1.
<mgrwt>
<rscale>  1 0.30000000E+03</rscale>
<asrwt>0</asrwt>
<pdfrwt beam="1">  1        1 0.82377855E-01 0.30000000E+03</pdfrwt>
<pdfrwt beam="2">0</pdfrwt>
<totfact> 0.45097045E+01</totfact>
</mgrwt>
</event>
<event>
 6    1  0.1956957E-002  0.3000000E+03  0.7818608E-02  0.1093470E+00
          1   -1    0    0  502    0  0.00000000000E+00  0.00000000000E+00  0.16340605944E+01  0.16340605944E+01  0.00000000000E+00 0.  1.
         13   -1    0    0    0    0 -0.00000000000E+00 -0.00000000000E+00 -0.10000000000E+04  0.10000000000E+04  0.00000000000E+00 0.  1.
    9000005    2    1    2  501    0 -0.32906139503E+02  0.18954418728E+02 -0.66937680374E+03  0.67046048769E+03  0.31426355126E+01 0.  0.
         13    1    3    3    0    0 -0.20601867666E+02  0.13050167720E+02 -0.40940483538E+03  0.41013054393E+03  0.00000000000E+00 0.  1.
          1    1    3    3  501    0 -0.12304271837E+02  0.59042510079E+01 -0.25997196836E+03  0.26032994376E+03  0.00000000000E+00 0.  1.
         21    1    1    2  502  501  0.32906139503E+02 -0.18954418728E+02 -0.32898913566E+03  0.33117357290E+03  0.00000000000E+00 0.  1.
<mgrwt>
<rscale>  1 0.30000000E+03</rscale>
<asrwt>0</asrwt>
<pdfrwt beam="1">  1        1 0.59420511E-02 0.30000000E+03</pdfrwt>
<pdfrwt beam="2">0</pdfrwt>
<totfact> 0.15609550E+03</totfact>
</mgrwt>
</event>
<event>
 6    1  0.1956957E-002  0.3000000E+03  0.7818608E-02  0.1093470E+00
          1   -1    0    0  502    0  0.00000000000E+00  0.00000000000E+00  0.16307344083E+01  0.16307344083E+01  0.00000000000E+00 0.  1.
         13   -1    0    0    0    0 -0.00000000000E+00 -0.00000000000E+00 -0.10000000000E+04  0.10000000000E+04  0.00000000000E+00 0.  1.
    9000005    2    1    2  501    0 -0.37550329219E+02  0.85432598238E+01 -0.64877614062E+03  0.64992294726E+03  0.25183775072E+01 0.  0.
         13    1    3    3    0    0 -0.36202820783E+02  0.85410119997E+01 -0.63134382184E+03  0.63243862508E+03  0.00000000000E+00 0.  1.
          3    1    3    3  501    0 -0.13475084363E+01  0.22478240792E-02 -0.17432318779E+02  0.17484322179E+02  0.00000000000E+00 0.  1.
         21    1    1    2  502  501  0.37550329219E+02 -0.85432598238E+01 -0.34959312497E+03  0.35170778715E+03  0.00000000000E+00 0.  1.
<mgrwt>
<rscale>  1 0.30000000E+03</rscale>
<asrwt>0</asrwt>
<pdfrwt beam="1">  1        1 0.59299558E-02 0.30000000E+03</pdfrwt>
<pdfrwt beam="2">0</pdfrwt>
<totfact> 0.15654242E+03</totfact>
</mgrwt>
</event>
<event>
 6    1  0.1956957E-002  0.3000000E+03  0.7818608E-02  0.1093470E+00
          3   -1    0    0  502    0  0.00000000000E+00  0.00000000000E+00  0.19248616917E+01  0.19248616917E+01  0.00000000000E+00 0.  1.
         13   -1    0    0    0    0 -0.00000000000E+00 -0.00000000000E+00 -0.10000000000E+04  0.10000000000E+04  0.00000000000E+00 0.  1.
    9000005    2    1    2  501    0  0.21428285376E+02 -0.29693273014E+02 -0.77384115619E+03  0.77472067904E+03  0.45971346380E+01 0.  0.
         13    1    3    3    0    0  0.66116230589E+01 -0.12924473908E+02 -0.31373835594E+03  0.31407405428E+03  0.00000000000E+00 0.  1.
          1    1    3    3  501    0  0.14816662317E+02 -0.16768799107E+02 -0.46010280025E+03  0.46064662476E+03  0.00000000000E+00 0.  1.
         21    1    1    2  502  501 -0.21428285376E+02  0.29693273014E+02 -0.22423398212E+03  0.22720418265E+03  0.00000000000E+00 0.  1.
<mgrwt>
<rscale>  1 0.30000000E+03</rscale>
<asrwt>0</asrwt>
<pdfrwt beam="1">  1        3 0.69995118E-02 0.30000000E+03</pdfrwt>
<pdfrwt beam="2">0</pdfrwt>
<totfact> 0.58581116E+02</totfact>
</mgrwt>
</event>
<event>
 6    1  0.1956957E-002  0.3000000E+03  0.7818608E-02  0.1093470E+00
          1   -1    0    0  502    0  0.00000000000E+00  0.00000000000E+00  0.39030351575E+01  0.39030351575E+01  0.00000000000E+00 0.  1.
         13   -1    0    0    0    0 -0.00000000000E+00 -0.00000000000E+00 -0.10000000000E+04  0.10000000000E+04  0.00000000000E+00 0.  1.
    9000005    2    1    2  501    0 -0.33949958912E+01  0.53813519666E+02 -0.24568633676E+03  0.25155768119E+03  0.34741905029E+01 0.  0.
         13    1    3    3    0    0 -0.16547066724E+01  0.15934593581E+02 -0.66393205608E+02  0.68298660878E+02  0.00000000000E+00 0.  1.
          1    1    3    3  501    0 -0.17402892188E+01  0.37878926086E+02 -0.17929313115E+03  0.18325902031E+03  0.00000000000E+00 0.  1.
         21    1    1    2  502  501  0.33949958912E+01 -0.53813519666E+02 -0.75041062808E+03  0.75234535397E+03  0.00000000000E+00 0.  1.
<mgrwt>
<rscale>  1 0.30000000E+03</rscale>
<asrwt>0</asrwt>
<pdfrwt beam="1">  1        1 0.14192885E-01 0.30000000E+03</pdfrwt>
<pdfrwt beam="2">0</pdfrwt>
<totfact> 0.46767104E+02</totfact>
</mgrwt>
</event>
<event>
 6    1  0.1956957E-002  0.3000000E+03  0.7818608E-02  0.1093470E+00
          1   -1    0    0  502    0  0.00000000000E+00  0.00000000000E+00  0.29544988259E+01  0.29544988259E+01  0.00000000000E+00 0.  1.
         13   -1    0    0    0    0 -0.00000000000E+00 -0.00000000000E+00 -0.10000000000E+04  0.10000000000E+04  0.00000000000E+00 0.  1.
    9000005    2    1    2  501    0  0.22736255682E+02  0.27506709747E+02 -0.87655719071E+03  0.87729229543E+03  0.39631595871E+01 0.  0.
         13    1    3    3    0    0  0.16846371993E+02  0.20475616562E+02 -0.60631101206E+03  0.60689051275E+03  0.00000000000E+00 0.  1.
          3    1    3    3  501    0  0.58898836893E+01  0.70310931848E+01 -0.27024617865E+03  0.27040178268E+03  0.00000000000E+00 0.  1.
         21    1    1    2  502  501 -0.22736255682E+02 -0.27506709747E+02 -0.12048831047E+03  0.12566220340E+03  0.00000000000E+00 0.  1.
<mgrwt>
<rscale>  1 0.30000000E+03</rscale>
<asrwt>0</asrwt>
<pdfrwt beam="1">  1        1 0.10743655E-01 0.30000000E+03</pdfrwt>
<pdfrwt beam="2">0</pdfrwt>
<totfact> 0.68461333E+02</totfact>
</mgrwt>
</event>
<event>
 6    1  0.1956957E-002  0.3000000E+03  0.7818608E-02  0.1093470E+00
          1   -1    0    0  502    0  0.00000000000E+00  0.00000000000E+00  0.37952663405E+01  0.37952663405E+01  0.00000000000E+00 0.  1.
         13   -1    0    0    0    0 -0.00000000000E+00 -0.00000000000E+00 -0.10000000000E+04  0.10000000000E+04  0.00000000000E+00 0.  1.
    9000005    2    1    2  501    0  0.45635533644E+02 -0.12440185853E+01 -0.83485705504E+03  0.83611335643E+03  0.38849642996E+01 0.  0.
         13    1    3    3    0    0  0.26936573816E+02 -0.52270985206E+00 -0.45747437697E+03  0.45826701586E+03  0.00000000000E+00 0.  1.
          1    1    3    3  501    0  0.18698959829E+02 -0.72130873320E+00 -0.37738267806E+03  0.37784634058E+03  0.00000000000E+00 0.  1.
         21    1    1    2  502  501 -0.45635533644E+02  0.12440185853E+01 -0.16134767862E+03  0.16768190991E+03  0.00000000000E+00 0.  1.
<mgrwt>
<rscale>  1 0.30000000E+03</rscale>
<asrwt>0</asrwt>
<pdfrwt beam="1">  1        1 0.13800998E-01 0.30000000E+03</pdfrwt>
<pdfrwt beam="2">0</pdfrwt>
<totfact> 0.48584428E+02</totfact>
</mgrwt>
</event>
<event>
 6    1  0.1956957E-002  0.3000000E+03  0.7818608E-02  0.1093470E+00
          1   -1    0    0  502    0  0.00000000000E+00  0.00000000000E+00  0.37470214760E+01  0.37470214760E+01  0.00000000000E+00 0.  1.
         13   -1    0    0    0    0 -0.00000000000E+00 -0.00000000000E+00 -0.10000000000E+04  0.10000000000E+04  0.00000000000E+00 0.  1.
    9000005    2    1    2  501    0  0.42026892915E+02 -0.19735627460E+02 -0.82501880700E+03  0.82632972746E+03  0.30053048398E+01 0.  0.
         13    1    3    3    0    0  0.16935304473E+02 -0.95580853125E+01 -0.35005332432E+03  0.35059305669E+03  0.00000000000E+00 0.  1.
          3    1    3    3  501    0  0.25091588442E+02 -0.10177542147E+02 -0.47496548268E+03  0.47573667077E+03  0.00000000000E+00 0.  1.
         21    1    1    2  502  501 -0.42026892915E+02  0.19735627460E+02 -0.17123417152E+03  0.17741729402E+03  0.00000000000E+00 0.  1.
<mgrwt>
<rscale>  1 0.30000000E+03</rscale>
<asrwt>0</asrwt>
<pdfrwt beam="1">  1        1 0.13625561E-01 0.30000000E+03</pdfrwt>
<pdfrwt beam="2">0</pdfrwt>
<totfact> 0.49438907E+02</totfact>
</mgrwt>
</event>
<event>
 6    1  0.1956957E-002  0.3000000E+03  0.7818608E-02  0.1093470E+00
          3   -1    0    0  502    0  0.00000000000E+00  0.00000000000E+00  0.19556306464E+01  0.19556306464E+01  0.00000000000E+00 0.  1.
         13   -1    0    0    0    0 -0.00000000000E+00 -0.00000000000E+00 -0.10000000000E+04  0.10000000000E+04  0.00000000000E+00 0.  1.
    9000005    2    1    2  501    0  0.29025176966E+02  0.24309191623E+02 -0.75677149381E+03  0.75773032859E+03  0.43312024459E+01 0.  0.
         13    1    3    3    0    0  0.49070422842E+01  0.62068925377E+01 -0.14383269134E+03  0.14405015681E+03  0.00000000000E+00 0.  1.
          3    1    3    3  501    0  0.24118134682E+02  0.18102299086E+02 -0.61293880247E+03  0.61368017177E+03  0.00000000000E+00 0.  1.
         21    1    1    2  502  501 -0.29025176966E+02 -0.24309191623E+02 -0.24127287554E+03  0.24422530206E+03  0.00000000000E+00 0.  1.
<mgrwt>
<rscale>  1 0.30000000E+03</rscale>
<asrwt>0</asrwt>
<pdfrwt beam="1">  1        3 0.71113992E-02 0.30000000E+03</pdfrwt>
<pdfrwt beam="2">0</pdfrwt>
<totfact> 0.57134321E+02</totfact>
</mgrwt>
</event>
<event>
 6    1  0.1956957E-002  0.3000000E+03  0.7818608E-02  0.1093470E+00
          1   -1    0    0  502    0  0.00000000000E+00  0.00000000000E+00  0.16799550981E+01  0.16799550981E+01  0.00000000000E+00 0.  1.
         13   -1    0    0    0    0 -0.00000000000E+00 -0.00000000000E+00 -0.10000000000E+04  0.10000000000E+04  0.00000000000E+00 0.  1.
    9000005    2    1    2  501    0 -0.31325624725E+02 -0.73292765065E+01 -0.80896164904E+03  0.80960805413E+03  0.33524072371E+01 0.  0.
         13    1    3    3    0    0 -0.29594815100E+02 -0.65145598528E+01 -0.74073780952E+03  0.74135740033E+03  0.00000000000E+00 0.  1.
          1    1    3    3  501    0 -0.17308096247E+01 -0.81471665363E+00 -0.68223839525E+02  0.68250653805E+02  0.00000000000E+00 0.  1.
         21    1    1    2  502  501  0.31325624725E+02  0.73292765065E+01 -0.18935839586E+03  0.19207190097E+03  0.00000000000E+00 0.  1.
<mgrwt>
<rscale>  1 0.30000000E+03</rscale>
<asrwt>0</asrwt>
<pdfrwt beam="1">  1        1 0.61089405E-02 0.30000000E+03</pdfrwt>
<pdfrwt beam="2">0</pdfrwt>
<totfact> 0.15014683E+03</totfact>
</mgrwt>
</event>
<event>
 6    1  0.1956957E-002  0.3000000E+03  0.7818608E-02  0.1093470E+00
          1   -1    0    0  502    0  0.00000000000E+00  0.00000000000E+00  0.20634814307E+01  0.20634814307E+01  0.00000000000E+00 0.  1.
         13   -1    0    0    0    0 -0.00000000000E+00 -0.00000000000E+00 -0.10000000000E+04  0.10000000000E+04  0.00000000000E+00 0.  1.
    9000005    2    1    2  501    0  0.11458655364E+02  0.37361276423E+02 -0.24459677257E+03  0.24771081943E+03  0.24296408060E+01 0.  0.
         13    1    3    3    0    0 -0.89961825023E-02  0.12387679541E+01 -0.91017451030E+01  0.91856622459E+01  0.00000000000E+00 0.  1.
          1    1    3    3  501    0  0.11467651546E+02  0.36122508469E+02 -0.23549502746E+03  0.23852515718E+03  0.00000000000E+00 0.  1.
         21    1    1    2  502  501 -0.11458655364E+02 -0.37361276423E+02 -0.75333974600E+03  0.75435266200E+03  0.00000000000E+00 0.  1.
<mgrwt>
<rscale>  1 0.30000000E+03</rscale>
<asrwt>0</asrwt>
<pdfrwt beam="1">  1        1 0.75035847E-02 0.30000000E+03</pdfrwt>
<pdfrwt beam="2">0</pdfrwt>
<totfact> 0.11260407E+03</totfact>
</mgrwt>
</event>
<event>
 6    1  0.1956957E-002  0.3000000E+03  0.7818608E-02  0.1093470E+00
          1   -1    0    0  502    0  0.00000000000E+00  0.00000000000E+00  0.79612518829E+01  0.79612518829E+01  0.00000000000E+00 0.  1.
         13   -1    0    0    0    0 -0.00000000000E+00 -0.00000000000E+00 -0.10000000000E+04  0.10000000000E+04  0.00000000000E+00 0.  1.
    9000005    2    1    2  501    0 -0.30352701558E+02 -0.12133201826E+02 -0.96493714527E+03  0.96549952847E+03  0.41405402052E+01 0.  0.
         13    1    3    3    0    0 -0.22173841095E+02 -0.74541790324E+01 -0.64693778148E+03  0.64736059281E+03  0.00000000000E+00 0.  1.
          1    1    3    3  501    0 -0.81788604632E+01 -0.46790227939E+01 -0.31799936379E+03  0.31813893566E+03  0.00000000000E+00 0.  1.
         21    1    1    2  502  501  0.30352701558E+02  0.12133201826E+02 -0.27101602847E+02  0.42461723414E+02  0.00000000000E+00 0.  1.
<mgrwt>
<rscale>  1 0.30000000E+03</rscale>
<asrwt>0</asrwt>
<pdfrwt beam="1">  1        1 0.28950068E-01 0.30000000E+03</pdfrwt>
<pdfrwt beam="2">0</pdfrwt>
<totfact> 0.18045893E+02</totfact>
</mgrwt>
</event>
<event>
 6    1  0.1956957E-002  0.3000000E+03  0.7818608E-02  0.1093470E+00
          1   -1    0    0  502    0  0.00000000000E+00  0.00000000000E+00  0.16482748350E+01  0.16482748350E+01  0.00000000000E+00 0.  1.
         13   -1    0    0    0    0 -0.00000000000E+00 -0.00000000000E+00 -0.10000000000E+04  0.10000000000E+04  0.00000000000E+00 0.  1.
    9000005    2    1    2  501    0 -0.12383325530E+02 -0.38113954742E+02 -0.56591659978E+03  0.56736017005E+03  0.54721428179E+01 0.  0.
         13    1    3    3    0    0 -0.71657973269E+00 -0.29095923884E+01 -0.67026673504E+02  0.67093622465E+02  0.00000000000E+00 0.  1.
          3    1    3    3  501    0 -0.11666745797E+02 -0.35204362354E+02 -0.49888992628E+03  0.50026654758E+03  0.00000000000E+00 0.  1.
         21    1    1    2  502  501  0.12383325530E+02  0.38113954742E+02 -0.43243512538E+03  0.43428810479E+03  0.00000000000E+00 0.  1.
<mgrwt>
<rscale>  1 0.30000000E+03</rscale>
<asrwt>0</asrwt>
<pdfrwt beam="1">  1        1 0.59937393E-02 0.30000000E+03</pdfrwt>
<pdfrwt beam="2">0</pdfrwt>
<totfact> 0.15421021E+03</totfact>
</mgrwt>
</event>
<event>
 6    1  0.1956957E-002  0.3000000E+03  0.7818608E-02  0.1093470E+00
          3   -1    0    0  502    0  0.00000000000E+00  0.00000000000E+00  0.17453705009E+01  0.17453705009E+01  0.00000000000E+00 0.  1.
         13   -1    0    0    0    0 -0.00000000000E+00 -0.00000000000E+00 -0.10000000000E+04  0.10000000000E+04  0.00000000000E+00 0.  1.
    9000005    2    1    2  501    0  0.21430849954E+02 -0.33034685541E+02 -0.66468175592E+03  0.66585635048E+03  0.35030060558E+01 0.  0.
         13    1    3    3    0    0  0.14029815521E+02 -0.24501949952E+02 -0.47093536584E+03  0.47178098740E+03  0.00000000000E+00 0.  1.
          3    1    3    3  501    0  0.74010344332E+01 -0.85327355885E+01 -0.19374639008E+03  0.19407536308E+03  0.00000000000E+00 0.  1.
         21    1    1    2  502  501 -0.21430849954E+02  0.33034685541E+02 -0.33357287358E+03  0.33588902002E+03  0.00000000000E+00 0.  1.
<mgrwt>
<rscale>  1 0.30000000E+03</rscale>
<asrwt>0</asrwt>
<pdfrwt beam="1">  1        3 0.63468152E-02 0.30000000E+03</pdfrwt>
<pdfrwt beam="2">0</pdfrwt>
<totfact> 0.68306185E+02</totfact>
</mgrwt>
</event>
<event>
 6    1  0.1956957E-002  0.3000000E+03  0.7818608E-02  0.1093470E+00
          1   -1    0    0  502    0  0.00000000000E+00  0.00000000000E+00  0.91491016366E+01  0.91491016366E+01  0.00000000000E+00 0.  1.
         13   -1    0    0    0    0 -0.00000000000E+00 -0.00000000000E+00 -0.10000000000E+04  0.10000000000E+04  0.00000000000E+00 0.  1.
    9000005    2    1    2  501    0  0.23813498422E+02  0.23589104392E+02 -0.96799201881E+03  0.96857747451E+03  0.32011095780E+01 0.  0.
         13    1    3    3    0    0  0.21216968537E+02  0.19752959818E+02 -0.85191163325E+03  0.85240469851E+03  0.00000000000E+00 0.  1.
          3    1    3    3  501    0  0.25965298847E+01  0.38361445737E+01 -0.11608038556E+03  0.11617277600E+03  0.00000000000E+00 0.  1.
         21    1    1    2  502  501 -0.23813498422E+02 -0.23589104392E+02 -0.22858879558E+02  0.40571627127E+02  0.00000000000E+00 0.  1.
<mgrwt>
<rscale>  1 0.30000000E+03</rscale>
<asrwt>0</asrwt>
<pdfrwt beam="1">  1        1 0.33269531E-01 0.30000000E+03</pdfrwt>
<pdfrwt beam="2">0</pdfrwt>
<totfact> 0.15037440E+02</totfact>
</mgrwt>
</event>
<event>
 6    1  0.1956957E-002  0.3000000E+03  0.7818608E-02  0.1093470E+00
          1   -1    0    0  502    0  0.00000000000E+00  0.00000000000E+00  0.37830987895E+01  0.37830987895E+01  0.00000000000E+00 0.  1.
         13   -1    0    0    0    0 -0.00000000000E+00 -0.00000000000E+00 -0.10000000000E+04  0.10000000000E+04  0.00000000000E+00 0.  1.
    9000005    2    1    2  501    0  0.34233545751E+02 -0.15206322549E+02 -0.89604921747E+03  0.89684043768E+03  0.39246173864E+01 0.  0.
         13    1    3    3    0    0  0.19361886539E+02 -0.10357974457E+02 -0.49736936143E+03  0.49785384600E+03  0.00000000000E+00 0.  1.
          3    1    3    3  501    0  0.14871659212E+02 -0.48483480917E+01 -0.39867985604E+03  0.39898659168E+03  0.00000000000E+00 0.  1.
         21    1    1    2  502  501 -0.34233545751E+02  0.15206322549E+02 -0.10016768374E+03  0.10694266111E+03  0.00000000000E+00 0.  1.
<mgrwt>
<rscale>  1 0.30000000E+03</rscale>
<asrwt>0</asrwt>
<pdfrwt beam="1">  1        1 0.13756752E-01 0.30000000E+03</pdfrwt>
<pdfrwt beam="2">0</pdfrwt>
<totfact> 0.48797458E+02</totfact>
</mgrwt>
</event>
<event>
 6    1  0.1956957E-002  0.3000000E+03  0.7818608E-02  0.1093470E+00
          1   -1    0    0  502    0  0.00000000000E+00  0.00000000000E+00  0.12353194807E+01  0.12353194807E+01  0.00000000000E+00 0.  1.
         13   -1    0    0    0    0 -0.00000000000E+00 -0.00000000000E+00 -0.10000000000E+04  0.10000000000E+04  0.00000000000E+00 0.  1.
    9000005    2    1    2  501    0 -0.19810837442E+02  0.25185908681E+02 -0.70386570636E+03  0.70460052005E+03  0.28567431431E+01 0.  0.
         13    1    3    3    0    0 -0.16611924116E+02  0.19531992925E+02 -0.54817598529E+03  0.54877533255E+03  0.00000000000E+00 0.  1.
          1    1    3    3  501    0 -0.31989133261E+01  0.56539157564E+01 -0.15568972107E+03  0.15582518749E+03  0.00000000000E+00 0.  1.
         21    1    1    2  502  501  0.19810837442E+02 -0.25185908681E+02 -0.29489897416E+03  0.29663479944E+03  0.00000000000E+00 0.  1.
<mgrwt>
<rscale>  1 0.30000000E+03</rscale>
<asrwt>0</asrwt>
<pdfrwt beam="1">  1        1 0.44920803E-02 0.30000000E+03</pdfrwt>
<pdfrwt beam="2">0</pdfrwt>
<totfact> 0.23126098E+03</totfact>
</mgrwt>
</event>
<event>
 6    1  0.1956957E-002  0.3000000E+03  0.7818608E-02  0.1093470E+00
          3   -1    0    0  502    0  0.00000000000E+00  0.00000000000E+00  0.23923155354E+01  0.23923155354E+01  0.00000000000E+00 0.  1.
         13   -1    0    0    0    0 -0.00000000000E+00 -0.00000000000E+00 -0.10000000000E+04  0.10000000000E+04  0.00000000000E+00 0.  1.
    9000005    2    1    2  501    0  0.86748943504E+01 -0.47929093107E+02 -0.45982693838E+03  0.46241029490E+03  0.31647756504E+01 0.  0.
         13    1    3    3    0    0  0.25840508089E+01 -0.80927905621E+01 -0.75671907681E+02  0.76147279595E+02  0.00000000000E+00 0.  1.
          3    1    3    3  501    0  0.60908435415E+01 -0.39836302545E+02 -0.38415503070E+03  0.38626301530E+03  0.00000000000E+00 0.  1.
         21    1    1    2  502  501 -0.86748943504E+01  0.47929093107E+02 -0.53778074608E+03  0.53998202064E+03  0.00000000000E+00 0.  1.
<mgrwt>
<rscale>  1 0.30000000E+03</rscale>
<asrwt>0</asrwt>
<pdfrwt beam="1">  1        3 0.86993476E-02 0.30000000E+03</pdfrwt>
<pdfrwt beam="2">0</pdfrwt>
<totfact> 0.41433247E+02</totfact>
</mgrwt>
</event>
<event>
 6    1  0.1956957E-002  0.3000000E+03  0.7818608E-02  0.1093470E+00
          3   -1    0    0  502    0  0.00000000000E+00  0.00000000000E+00  0.21527368531E+01  0.21527368531E+01  0.00000000000E+00 0.  1.
         13   -1    0    0    0    0 -0.00000000000E+00 -0.00000000000E+00 -0.10000000000E+04  0.10000000000E+04  0.00000000000E+00 0.  1.
    9000005    2    1    2  501    0 -0.13219932125E+02 -0.33346977332E+02 -0.81645380673E+03  0.81724634558E+03  0.28254801450E+01 0.  0.
         13    1    3    3    0    0 -0.46002608149E+01 -0.12684842516E+02 -0.27785617693E+03  0.27818361326E+03  0.00000000000E+00 0.  1.
          3    1    3    3  501    0 -0.86196713097E+01 -0.20662134816E+02 -0.53859762981E+03  0.53906273233E+03  0.00000000000E+00 0.  1.
         21    1    1    2  502  501  0.13219932125E+02  0.33346977332E+02 -0.18139345641E+03  0.18490639127E+03  0.00000000000E+00 0.  1.
<mgrwt>
<rscale>  1 0.30000000E+03</rscale>
<asrwt>0</asrwt>
<pdfrwt beam="1">  1        3 0.78281505E-02 0.30000000E+03</pdfrwt>
<pdfrwt beam="2">0</pdfrwt>
<totfact> 0.49060996E+02</totfact>
</mgrwt>
</event>
<event>
 6    1  0.1956957E-002  0.3000000E+03  0.7818608E-02  0.1093470E+00
          1   -1    0    0  502    0  0.00000000000E+00  0.00000000000E+00  0.73257930460E+01  0.73257930460E+01  0.00000000000E+00 0.  1.
         13   -1    0    0    0    0 -0.00000000000E+00 -0.00000000000E+00 -0.10000000000E+04  0.10000000000E+04  0.00000000000E+00 0.  1.
    9000005    2    1    2  501    0  0.12592917398E+01 -0.73363712274E+02 -0.75540022965E+03  0.75896565051E+03  0.39410158842E+01 0.  0.
         13    1    3    3    0    0  0.64795828701E+00 -0.37735068840E+01 -0.33169373412E+02  0.33389617199E+02  0.00000000000E+00 0.  1.
          3    1    3    3  501    0  0.61133345284E+00 -0.69590205390E+02 -0.72223085624E+03  0.72557603331E+03  0.00000000000E+00 0.  1.
         21    1    1    2  502  501 -0.12592917398E+01  0.73363712274E+02 -0.23727397730E+03  0.24836014253E+03  0.00000000000E+00 0.  1.
<mgrwt>
<rscale>  1 0.30000000E+03</rscale>
<asrwt>0</asrwt>
<pdfrwt beam="1">  1        1 0.26639304E-01 0.30000000E+03</pdfrwt>
<pdfrwt beam="2">0</pdfrwt>
<totfact> 0.20132538E+02</totfact>
</mgrwt>
</event>
<event>
 6    1  0.1956957E-002  0.3000000E+03  0.7818608E-02  0.1093470E+00
          1   -1    0    0  502    0  0.00000000000E+00  0.00000000000E+00  0.25506987565E+01  0.25506987565E+01  0.00000000000E+00 0.  1.
         13   -1    0    0    0    0 -0.00000000000E+00 -0.00000000000E+00 -0.10000000000E+04  0.10000000000E+04  0.00000000000E+00 0.  1.
    9000005    2    1    2  501    0 -0.49951350943E+02  0.20351638352E+00 -0.56771184613E+03  0.56991984086E+03  0.40872833856E+01 0.  0.
         13    1    3    3    0    0 -0.28111624503E+02 -0.18733339680E+01 -0.32371480335E+03  0.32493852761E+03  0.00000000000E+00 0.  1.
          1    1    3    3  501    0 -0.21839726440E+02  0.20768503515E+01 -0.24399704278E+03  0.24498131325E+03  0.00000000000E+00 0.  1.
         21    1    1    2  502  501  0.49951350943E+02 -0.20351638352E+00 -0.42973745511E+03  0.43263085790E+03  0.00000000000E+00 0.  1.
<mgrwt>
<rscale>  1 0.30000000E+03</rscale>
<asrwt>0</asrwt>
<pdfrwt beam="1">  1        1 0.92752878E-02 0.30000000E+03</pdfrwt>
<pdfrwt beam="2">0</pdfrwt>
<totfact> 0.83861456E+02</totfact>
</mgrwt>
</event>
<event>
 6    1  0.1956957E-002  0.3000000E+03  0.7818608E-02  0.1093470E+00
          3   -1    0    0  502    0  0.00000000000E+00  0.00000000000E+00  0.15882814933E+01  0.15882814933E+01  0.00000000000E+00 0.  1.
         13   -1    0    0    0    0 -0.00000000000E+00 -0.00000000000E+00 -0.10000000000E+04  0.10000000000E+04  0.00000000000E+00 0.  1.
    9000005    2    1    2  501    0 -0.19989391084E+02  0.22687799136E+02 -0.82496483398E+03  0.82552541279E+03  0.33042193706E+01 0.  0.
         13    1    3    3    0    0 -0.28792011556E+01  0.48789024299E+01 -0.13534809256E+03  0.13546659975E+03  0.00000000000E+00 0.  1.
          3    1    3    3  501    0 -0.17110189928E+02  0.17808896706E+02 -0.68961674142E+03  0.69005881304E+03  0.00000000000E+00 0.  1.
         21    1    1    2  502  501  0.19989391084E+02 -0.22687799136E+02 -0.17344688452E+03  0.17606286871E+03  0.00000000000E+00 0.  1.
<mgrwt>
<rscale>  1 0.30000000E+03</rscale>
<asrwt>0</asrwt>
<pdfrwt beam="1">  1        3 0.57755812E-02 0.30000000E+03</pdfrwt>
<pdfrwt beam="2">0</pdfrwt>
<totfact> 0.79135745E+02</totfact>
</mgrwt>
</event>
<event>
 6    1  0.1956957E-002  0.3000000E+03  0.7818608E-02  0.1093470E+00
          3   -1    0    0  502    0  0.00000000000E+00  0.00000000000E+00  0.19690435678E+01  0.19690435678E+01  0.00000000000E+00 0.  1.
         13   -1    0    0    0    0 -0.00000000000E+00 -0.00000000000E+00 -0.10000000000E+04  0.10000000000E+04  0.00000000000E+00 0.  1.
    9000005    2    1    2  501    0  0.36074012087E+02  0.81798098163E+01 -0.77504069374E+03  0.77593165531E+03  0.36895956774E+01 0.  0.
         13    1    3    3    0    0  0.20549596899E+02  0.27926299264E+01 -0.43667859854E+03  0.43717077113E+03  0.00000000000E+00 0.  1.
          1    1    3    3  501    0  0.15524415188E+02  0.53871798899E+01 -0.33836209521E+03  0.33876088418E+03  0.00000000000E+00 0.  1.
         21    1    1    2  502  501 -0.36074012087E+02 -0.81798098163E+01 -0.22299026269E+03  0.22603738826E+03  0.00000000000E+00 0.  1.
<mgrwt>
<rscale>  1 0.30000000E+03</rscale>
<asrwt>0</asrwt>
<pdfrwt beam="1">  1        3 0.71601735E-02 0.30000000E+03</pdfrwt>
<pdfrwt beam="2">0</pdfrwt>
<totfact> 0.56521065E+02</totfact>
</mgrwt>
</event>
<event>
 6    1  0.1956957E-002  0.3000000E+03  0.7818608E-02  0.1093470E+00
          1   -1    0    0  502    0  0.00000000000E+00  0.00000000000E+00  0.19349005765E+02  0.19349005765E+02  0.00000000000E+00 0.  1.
         13   -1    0    0    0    0 -0.00000000000E+00 -0.00000000000E+00 -0.10000000000E+04  0.10000000000E+04  0.00000000000E+00 0.  1.
    9000005    2    1    2  501    0  0.32060410178E+02  0.11313294007E+02 -0.98452648657E+03  0.98513088245E+03  0.58815208522E+01 0.  0.
         13    1    3    3    0    0  0.73310637958E+01  0.52283654273E+01 -0.23910852708E+03  0.23927801408E+03  0.00000000000E+00 0.  1.
          3    1    3    3  501    0  0.24729346382E+02  0.60849285798E+01 -0.74541795949E+03  0.74585286837E+03  0.00000000000E+00 0.  1.
         21    1    1    2  502  501 -0.32060410178E+02 -0.11313294007E+02  0.38754923341E+01  0.34218123311E+02  0.00000000000E+00 0.  1.
<mgrwt>
<rscale>  1 0.30000000E+03</rscale>
<asrwt>0</asrwt>
<pdfrwt beam="1">  1        1 0.70360169E-01 0.30000000E+03</pdfrwt>
<pdfrwt beam="2">0</pdfrwt>
<totfact> 0.55992753E+01</totfact>
</mgrwt>
</event>
<event>
 6    1  0.1956957E-002  0.3000000E+03  0.7818608E-02  0.1093470E+00
          3   -1    0    0  502    0  0.00000000000E+00  0.00000000000E+00  0.12293811926E+01  0.12293811926E+01  0.00000000000E+00 0.  1.
         13   -1    0    0    0    0 -0.00000000000E+00 -0.00000000000E+00 -0.10000000000E+04  0.10000000000E+04  0.00000000000E+00 0.  1.
    9000005    2    1    2  501    0 -0.30074986636E+02 -0.43596512060E+01 -0.74762364421E+03  0.74825050020E+03  0.37664684993E+01 0.  0.
         13    1    3    3    0    0 -0.24890332651E+02 -0.49675217292E+01 -0.63005966104E+03  0.63057067915E+03  0.00000000000E+00 0.  1.
          3    1    3    3  501    0 -0.51846539852E+01  0.60787052321E+00 -0.11756398317E+03  0.11767982105E+03  0.00000000000E+00 0.  1.
         21    1    1    2  502  501  0.30074986636E+02  0.43596512060E+01 -0.25114697460E+03  0.25297888100E+03  0.00000000000E+00 0.  1.
<mgrwt>
<rscale>  1 0.30000000E+03</rscale>
<asrwt>0</asrwt>
<pdfrwt beam="1">  1        3 0.44704865E-02 0.30000000E+03</pdfrwt>
<pdfrwt beam="2">0</pdfrwt>
<totfact> 0.11759668E+03</totfact>
</mgrwt>
</event>
<event>
 6    1  0.1956957E-002  0.3000000E+03  0.7818608E-02  0.1093470E+00
          1   -1    0    0  502    0  0.00000000000E+00  0.00000000000E+00  0.64219787058E+01  0.64219787058E+01  0.00000000000E+00 0.  1.
         13   -1    0    0    0    0 -0.00000000000E+00 -0.00000000000E+00 -0.10000000000E+04  0.10000000000E+04  0.00000000000E+00 0.  1.
    9000005    2    1    2  501    0 -0.34472022953E+02 -0.57457955103E+02 -0.77238341942E+03  0.77530125513E+03  0.51139641500E+01 0.  0.
         13    1    3    3    0    0 -0.23093765279E+02 -0.36736906164E+02 -0.52562569621E+03  0.52741377948E+03  0.00000000000E+00 0.  1.
          3    1    3    3  501    0 -0.11378257674E+02 -0.20721048939E+02 -0.24675772321E+03  0.24788747564E+03  0.00000000000E+00 0.  1.
         21    1    1    2  502  501  0.34472022953E+02  0.57457955103E+02 -0.22119460187E+03  0.23112072358E+03  0.00000000000E+00 0.  1.
<mgrwt>
<rscale>  1 0.30000000E+03</rscale>
<asrwt>0</asrwt>
<pdfrwt beam="1">  1        1 0.23352699E-01 0.30000000E+03</pdfrwt>
<pdfrwt beam="2">0</pdfrwt>
<totfact> 0.23958581E+02</totfact>
</mgrwt>
</event>
<event>
 6    1  0.1956957E-002  0.3000000E+03  0.7818608E-02  0.1093470E+00
          1   -1    0    0  502    0  0.00000000000E+00  0.00000000000E+00  0.11747070611E+01  0.11747070611E+01  0.00000000000E+00 0.  1.
         13   -1    0    0    0    0 -0.00000000000E+00 -0.00000000000E+00 -0.10000000000E+04  0.10000000000E+04  0.00000000000E+00 0.  1.
    9000005    2    1    2  501    0  0.29156766232E+02 -0.13694649539E+02 -0.66693128719E+03  0.66772112485E+03  0.40618078938E+01 0.  0.
         13    1    3    3    0    0  0.19135908082E+02 -0.95605158030E+01 -0.47907559728E+03  0.47955293175E+03  0.00000000000E+00 0.  1.
          1    1    3    3  501    0  0.10020858150E+02 -0.41341337357E+01 -0.18785568991E+03  0.18816819309E+03  0.00000000000E+00 0.  1.
         21    1    1    2  502  501 -0.29156766232E+02  0.13694649539E+02 -0.33189400574E+03  0.33345358222E+03  0.00000000000E+00 0.  1.
<mgrwt>
<rscale>  1 0.30000000E+03</rscale>
<asrwt>0</asrwt>
<pdfrwt beam="1">  1        1 0.42716710E-02 0.30000000E+03</pdfrwt>
<pdfrwt beam="2">0</pdfrwt>
<totfact> 0.24823308E+03</totfact>
</mgrwt>
</event>
<event>
 6    1  0.1956957E-002  0.3000000E+03  0.7818608E-02  0.1093470E+00
          1   -1    0    0  502    0  0.00000000000E+00  0.00000000000E+00  0.69932922447E+01  0.69932922447E+01  0.00000000000E+00 0.  1.
         13   -1    0    0    0    0 -0.00000000000E+00 -0.00000000000E+00 -0.10000000000E+04  0.10000000000E+04  0.00000000000E+00 0.  1.
    9000005    2    1    2  501    0  0.34019776467E+02  0.14821882863E+02 -0.94766618119E+03  0.94840321841E+03  0.45210975760E+01 0.  0.
         13    1    3    3    0    0  0.89835710785E+01  0.30974212086E+01 -0.29170132288E+03  0.29185606099E+03  0.00000000000E+00 0.  1.
          1    1    3    3  501    0  0.25036205388E+02  0.11724461654E+02 -0.65596485831E+03  0.65654715742E+03  0.00000000000E+00 0.  1.
         21    1    1    2  502  501 -0.34019776467E+02 -0.14821882863E+02 -0.45340526569E+02  0.58590073835E+02  0.00000000000E+00 0.  1.
<mgrwt>
<rscale>  1 0.30000000E+03</rscale>
<asrwt>0</asrwt>
<pdfrwt beam="1">  1        1 0.25430207E-01 0.30000000E+03</pdfrwt>
<pdfrwt beam="2">0</pdfrwt>
<totfact> 0.21405509E+02</totfact>
</mgrwt>
</event>
<event>
 6    1  0.1956957E-002  0.3000000E+03  0.7818608E-02  0.1093470E+00
          1   -1    0    0  502    0  0.00000000000E+00  0.00000000000E+00  0.69132385865E+02  0.69132385865E+02  0.00000000000E+00 0.  1.
         13   -1    0    0    0    0 -0.00000000000E+00 -0.00000000000E+00 -0.10000000000E+04  0.10000000000E+04  0.00000000000E+00 0.  1.
    9000005    2    1    2  501    0  0.30822163572E+02 -0.12622731668E+02 -0.99569127028E+03  0.99625272123E+03  0.30066136546E+01 0.  0.
         13    1    3    3    0    0  0.20616711576E+02 -0.82279817818E+01 -0.62039967691E+03  0.62079667169E+03  0.00000000000E+00 0.  1.
          3    1    3    3  501    0  0.10205451996E+02 -0.43947498865E+01 -0.37529159337E+03  0.37545604953E+03  0.00000000000E+00 0.  1.
         21    1    1    2  502  501 -0.30822163572E+02  0.12622731668E+02  0.64823656142E+02  0.72879664637E+02  0.00000000000E+00 0.  1.
<mgrwt>
<rscale>  1 0.30000000E+03</rscale>
<asrwt>0</asrwt>
<pdfrwt beam="1">  1        1 0.25139102E+00 0.30000000E+03</pdfrwt>
<pdfrwt beam="2">0</pdfrwt>
<totfact> 0.58777686E+00</totfact>
</mgrwt>
</event>
<event>
 6    1  0.1956957E-002  0.3000000E+03  0.7818608E-02  0.1093470E+00
          3   -1    0    0  502    0  0.00000000000E+00  0.00000000000E+00  0.20790489427E+01  0.20790489427E+01  0.00000000000E+00 0.  1.
         13   -1    0    0    0    0 -0.00000000000E+00 -0.00000000000E+00 -0.10000000000E+04  0.10000000000E+04  0.00000000000E+00 0.  1.
    9000005    2    1    2  501    0  0.22486095602E+02 -0.39191588498E+02 -0.56262294418E+03  0.56444225902E+03  0.29801581879E+01 0.  0.
         13    1    3    3    0    0  0.20988694247E+02 -0.37098676083E+02 -0.52161830851E+03  0.52335694973E+03  0.00000000000E+00 0.  1.
          1    1    3    3  501    0  0.14974013545E+01 -0.20929124151E+01 -0.41004635667E+02  0.41085309289E+02  0.00000000000E+00 0.  1.
         21    1    1    2  502  501 -0.22486095602E+02  0.39191588498E+02 -0.43529800688E+03  0.43763678992E+03  0.00000000000E+00 0.  1.
<mgrwt>
<rscale>  1 0.30000000E+03</rscale>
<asrwt>0</asrwt>
<pdfrwt beam="1">  1        3 0.75601939E-02 0.30000000E+03</pdfrwt>
<pdfrwt beam="2">0</pdfrwt>
<totfact> 0.51856255E+02</totfact>
</mgrwt>
</event>
<event>
 6    1  0.1956957E-002  0.3000000E+03  0.7818608E-02  0.1093470E+00
          1   -1    0    0  502    0  0.00000000000E+00  0.00000000000E+00  0.13998765209E+01  0.13998765209E+01  0.00000000000E+00 0.  1.
         13   -1    0    0    0    0 -0.00000000000E+00 -0.00000000000E+00 -0.10000000000E+04  0.10000000000E+04  0.00000000000E+00 0.  1.
    9000005    2    1    2  501    0  0.80611133128E+01  0.34695466170E+02 -0.65039819938E+03  0.65138082438E+03  0.32254740352E+01 0.  0.
         13    1    3    3    0    0  0.72120012843E+00  0.61403396552E+01 -0.13233501932E+03  0.13247936156E+03  0.00000000000E+00 0.  1.
          1    1    3    3  501    0  0.73399131844E+01  0.28555126515E+02 -0.51806318007E+03  0.51890146282E+03  0.00000000000E+00 0.  1.
         21    1    1    2  502  501 -0.80611133128E+01 -0.34695466170E+02 -0.34820192410E+03  0.35001905214E+03  0.00000000000E+00 0.  1.
<mgrwt>
<rscale>  1 0.30000000E+03</rscale>
<asrwt>0</asrwt>
<pdfrwt beam="1">  1        1 0.50904708E-02 0.30000000E+03</pdfrwt>
<pdfrwt beam="2">0</pdfrwt>
<totfact> 0.19396548E+03</totfact>
</mgrwt>
</event>
<event>
 6    1  0.1956957E-002  0.3000000E+03  0.7818608E-02  0.1093470E+00
          1   -1    0    0  502    0  0.00000000000E+00  0.00000000000E+00  0.86573118410E+01  0.86573118410E+01  0.00000000000E+00 0.  1.
         13   -1    0    0    0    0 -0.00000000000E+00 -0.00000000000E+00 -0.10000000000E+04  0.10000000000E+04  0.00000000000E+00 0.  1.
    9000005    2    1    2  501    0  0.23450952154E+02 -0.27568617507E+02 -0.96025002597E+03  0.96094222544E+03  0.44578508027E+01 0.  0.
         13    1    3    3    0    0  0.20413961676E+02 -0.25842291027E+02 -0.88075329827E+03  0.88136877994E+03  0.00000000000E+00 0.  1.
          1    1    3    3  501    0  0.30369904785E+01 -0.17263264799E+01 -0.79496727695E+02  0.79573445499E+02  0.00000000000E+00 0.  1.
         21    1    1    2  502  501 -0.23450952154E+02  0.27568617507E+02 -0.31092662194E+02  0.47715086404E+02  0.00000000000E+00 0.  1.
<mgrwt>
<rscale>  1 0.30000000E+03</rscale>
<asrwt>0</asrwt>
<pdfrwt beam="1">  1        1 0.31481200E-01 0.30000000E+03</pdfrwt>
<pdfrwt beam="2">0</pdfrwt>
<totfact> 0.16166959E+02</totfact>
</mgrwt>
</event>
<event>
 6    1  0.1956957E-002  0.3000000E+03  0.7818608E-02  0.1093470E+00
          1   -1    0    0  502    0  0.00000000000E+00  0.00000000000E+00  0.38607152499E+01  0.38607152499E+01  0.00000000000E+00 0.  1.
         13   -1    0    0    0    0 -0.00000000000E+00 -0.00000000000E+00 -0.10000000000E+04  0.10000000000E+04  0.00000000000E+00 0.  1.
    9000005    2    1    2  501    0 -0.51972664897E+02  0.57181372625E+01 -0.76901205275E+03  0.77079283993E+03  0.28652786681E+01 0.  0.
         13    1    3    3    0    0 -0.11498100771E+02  0.76143219707E+00 -0.15410534335E+03  0.15453557180E+03  0.00000000000E+00 0.  1.
          1    1    3    3  501    0 -0.40474564126E+02  0.49567050654E+01 -0.61490670940E+03  0.61625726813E+03  0.00000000000E+00 0.  1.
         21    1    1    2  502  501  0.51972664897E+02 -0.57181372625E+01 -0.22712723200E+03  0.23306787532E+03  0.00000000000E+00 0.  1.
<mgrwt>
<rscale>  1 0.30000000E+03</rscale>
<asrwt>0</asrwt>
<pdfrwt beam="1">  1        1 0.14038994E-01 0.30000000E+03</pdfrwt>
<pdfrwt beam="2">0</pdfrwt>
<totfact> 0.47466204E+02</totfact>
</mgrwt>
</event>
<event>
 6    1  0.1956957E-002  0.3000000E+03  0.7818608E-02  0.1093470E+00
          1   -1    0    0  502    0  0.00000000000E+00  0.00000000000E+00  0.76335520597E+01  0.76335520597E+01  0.00000000000E+00 0.  1.
         13   -1    0    0    0    0 -0.00000000000E+00 -0.00000000000E+00 -0.10000000000E+04  0.10000000000E+04  0.00000000000E+00 0.  1.
    9000005    2    1    2  501    0 -0.18896266176E+01  0.43374964491E+02 -0.93334646493E+03  0.93436475496E+03  0.41126011724E+01 0.  0.
         13    1    3    3    0    0 -0.75882570383E+00  0.39252557020E+01 -0.66137056935E+02  0.66257782553E+02  0.00000000000E+00 0.  1.
          3    1    3    3  501    0 -0.11308009138E+01  0.39449708789E+02 -0.86720940799E+03  0.86810697241E+03  0.00000000000E+00 0.  1.
         21    1    1    2  502  501  0.18896266176E+01 -0.43374964491E+02 -0.59019983012E+02  0.73268797097E+02  0.00000000000E+00 0.  1.
<mgrwt>
<rscale>  1 0.30000000E+03</rscale>
<asrwt>0</asrwt>
<pdfrwt beam="1">  1        1 0.27758430E-01 0.30000000E+03</pdfrwt>
<pdfrwt beam="2">0</pdfrwt>
<totfact> 0.19070732E+02</totfact>
</mgrwt>
</event>
<event>
 6    1  0.1956957E-002  0.3000000E+03  0.7818608E-02  0.1093470E+00
          1   -1    0    0  502    0  0.00000000000E+00  0.00000000000E+00  0.26437962375E+01  0.26437962375E+01  0.00000000000E+00 0.  1.
         13   -1    0    0    0    0 -0.00000000000E+00 -0.00000000000E+00 -0.10000000000E+04  0.10000000000E+04  0.00000000000E+00 0.  1.
    9000005    2    1    2  501    0  0.41527224448E+02 -0.23521322203E+02 -0.68443695407E+03  0.68610593153E+03  0.31051906204E+01 0.  0.
         13    1    3    3    0    0  0.60099618747E+01 -0.23971613298E+01 -0.84396614512E+02  0.84644282532E+02  0.00000000000E+00 0.  1.
          3    1    3    3  501    0  0.35517262574E+02 -0.21124160873E+02 -0.60004033956E+03  0.60146164899E+03  0.00000000000E+00 0.  1.
         21    1    1    2  502  501 -0.41527224448E+02  0.23521322203E+02 -0.31291924969E+03  0.31653786471E+03  0.00000000000E+00 0.  1.
<mgrwt>
<rscale>  1 0.30000000E+03</rscale>
<asrwt>0</asrwt>
<pdfrwt beam="1">  1        1 0.96138248E-02 0.30000000E+03</pdfrwt>
<pdfrwt beam="2">0</pdfrwt>
<totfact> 0.79800728E+02</totfact>
</mgrwt>
</event>
<event>
 6    1  0.1956957E-002  0.3000000E+03  0.7818608E-02  0.1093470E+00
          1   -1    0    0  502    0  0.00000000000E+00  0.00000000000E+00  0.19620322750E+01  0.19620322750E+01  0.00000000000E+00 0.  1.
         13   -1    0    0    0    0 -0.00000000000E+00 -0.00000000000E+00 -0.10000000000E+04  0.10000000000E+04  0.00000000000E+00 0.  1.
    9000005    2    1    2  501    0 -0.19816331929E+02  0.23047977889E+02 -0.86319746589E+03  0.86373809357E+03  0.31197547156E+01 0.  0.
         13    1    3    3    0    0 -0.16295949155E+02  0.17829235574E+02 -0.65386409945E+03  0.65431009479E+03  0.00000000000E+00 0.  1.
          3    1    3    3  501    0 -0.35203827741E+01  0.52187423152E+01 -0.20933336645E+03  0.20942799878E+03  0.00000000000E+00 0.  1.
         21    1    1    2  502  501  0.19816331929E+02 -0.23047977889E+02 -0.13484050183E+03  0.13822393870E+03  0.00000000000E+00 0.  1.
<mgrwt>
<rscale>  1 0.30000000E+03</rscale>
<asrwt>0</asrwt>
<pdfrwt beam="1">  1        1 0.71346779E-02 0.30000000E+03</pdfrwt>
<pdfrwt beam="2">0</pdfrwt>
<totfact> 0.12081908E+03</totfact>
</mgrwt>
</event>
<event>
 6    1  0.1956957E-002  0.3000000E+03  0.7818608E-02  0.1093470E+00
          1   -1    0    0  502    0  0.00000000000E+00  0.00000000000E+00  0.21522947273E+02  0.21522947273E+02  0.00000000000E+00 0.  1.
         13   -1    0    0    0    0 -0.00000000000E+00 -0.00000000000E+00 -0.10000000000E+04  0.10000000000E+04  0.00000000000E+00 0.  1.
    9000005    2    1    2  501    0  0.49059294497E+02 -0.42262445889E+02 -0.94754145036E+03  0.94975986343E+03  0.40086555025E+01 0.  0.
         13    1    3    3    0    0  0.15033975663E+02 -0.15404635080E+02 -0.30965506756E+03  0.31040229393E+03  0.00000000000E+00 0.  1.
          3    1    3    3  501    0  0.34025318834E+02 -0.26857810809E+02 -0.63788638280E+03  0.63935756950E+03  0.00000000000E+00 0.  1.
         21    1    1    2  502  501 -0.49059294497E+02  0.42262445889E+02 -0.30935602365E+02  0.71763083844E+02  0.00000000000E+00 0.  1.
<mgrwt>
<rscale>  1 0.30000000E+03</rscale>
<asrwt>0</asrwt>
<pdfrwt beam="1">  1        1 0.78265428E-01 0.30000000E+03</pdfrwt>
<pdfrwt beam="2">0</pdfrwt>
<totfact> 0.48408269E+01</totfact>
</mgrwt>
</event>
<event>
 6    1  0.1956957E-002  0.3000000E+03  0.7818608E-02  0.1093470E+00
          1   -1    0    0  502    0  0.00000000000E+00  0.00000000000E+00  0.39568369902E+02  0.39568369902E+02  0.00000000000E+00 0.  1.
         13   -1    0    0    0    0 -0.00000000000E+00 -0.00000000000E+00 -0.10000000000E+04  0.10000000000E+04  0.00000000000E+00 0.  1.
    9000005    2    1    2  501    0 -0.68105040525E+02 -0.24644683218E+02 -0.96431470484E+03  0.96703744391E+03  0.35931864506E+01 0.  0.
         13    1    3    3    0    0 -0.27150578389E+02 -0.10801639014E+02 -0.36902301681E+03  0.37017808721E+03  0.00000000000E+00 0.  1.
          1    1    3    3  501    0 -0.40954462136E+02 -0.13843044203E+02 -0.59529168803E+03  0.59685935670E+03  0.00000000000E+00 0.  1.
         21    1    1    2  502  501  0.68105040525E+02  0.24644683218E+02  0.38830747469E+01  0.72530925992E+02  0.00000000000E+00 0.  1.
<mgrwt>
<rscale>  1 0.30000000E+03</rscale>
<asrwt>0</asrwt>
<pdfrwt beam="1">  1        1 0.14388528E+00 0.30000000E+03</pdfrwt>
<pdfrwt beam="2">0</pdfrwt>
<totfact> 0.19310730E+01</totfact>
</mgrwt>
</event>
<event>
 6    1  0.1956957E-002  0.3000000E+03  0.7818608E-02  0.1093470E+00
          1   -1    0    0  502    0  0.00000000000E+00  0.00000000000E+00  0.58986705116E+01  0.58986705116E+01  0.00000000000E+00 0.  1.
         13   -1    0    0    0    0 -0.00000000000E+00 -0.00000000000E+00 -0.10000000000E+04  0.10000000000E+04  0.00000000000E+00 0.  1.
    9000005    2    1    2  501    0  0.41357918603E+02 -0.61138819636E+01 -0.91887378577E+03  0.91983450655E+03  0.43160501522E+01 0.  0.
         13    1    3    3    0    0  0.37038028691E+02 -0.61964146037E+01 -0.79710999745E+03  0.79799408467E+03  0.00000000000E+00 0.  1.
          1    1    3    3  501    0  0.43198899117E+01  0.82532640019E-01 -0.12176378832E+03  0.12184042189E+03  0.00000000000E+00 0.  1.
         21    1    1    2  502  501 -0.41357918603E+02  0.61138819636E+01 -0.75227543720E+02  0.86064163959E+02  0.00000000000E+00 0.  1.
<mgrwt>
<rscale>  1 0.30000000E+03</rscale>
<asrwt>0</asrwt>
<pdfrwt beam="1">  1        1 0.21449756E-01 0.30000000E+03</pdfrwt>
<pdfrwt beam="2">0</pdfrwt>
<totfact> 0.26818202E+02</totfact>
</mgrwt>
</event>
<event>
 6    1  0.1956957E-002  0.3000000E+03  0.7818608E-02  0.1093470E+00
          1   -1    0    0  502    0  0.00000000000E+00  0.00000000000E+00  0.57507874519E+01  0.57507874519E+01  0.00000000000E+00 0.  1.
         13   -1    0    0    0    0 -0.00000000000E+00 -0.00000000000E+00 -0.10000000000E+04  0.10000000000E+04  0.00000000000E+00 0.  1.
    9000005    2    1    2  501    0  0.43804170235E+02 -0.34310135422E+02 -0.83859937827E+03  0.84045450306E+03  0.43432428467E+01 0.  0.
         13    1    3    3    0    0  0.41340047485E+02 -0.31469521002E+02 -0.79314306015E+03  0.79484290533E+03  0.00000000000E+00 0.  1.
          3    1    3    3  501    0  0.24641227497E+01 -0.28406144198E+01 -0.45456318114E+02  0.45611597733E+02  0.00000000000E+00 0.  1.
         21    1    1    2  502  501 -0.43804170235E+02  0.34310135422E+02 -0.15564983428E+03  0.16529628439E+03  0.00000000000E+00 0.  1.
<mgrwt>
<rscale>  1 0.30000000E+03</rscale>
<asrwt>0</asrwt>
<pdfrwt beam="1">  1        1 0.20911998E-01 0.30000000E+03</pdfrwt>
<pdfrwt beam="2">0</pdfrwt>
<totfact> 0.27740141E+02</totfact>
</mgrwt>
</event>
<event>
 6    1  0.1956957E-002  0.3000000E+03  0.7818608E-02  0.1093470E+00
          1   -1    0    0  502    0  0.00000000000E+00  0.00000000000E+00  0.26951799323E+01  0.26951799323E+01  0.00000000000E+00 0.  1.
         13   -1    0    0    0    0 -0.00000000000E+00 -0.00000000000E+00 -0.10000000000E+04  0.10000000000E+04  0.00000000000E+00 0.  1.
    9000005    2    1    2  501    0 -0.44954534088E+02  0.24698887884E+02 -0.56301221873E+03  0.56538406782E+03  0.67409576964E+01 0.  0.
         13    1    3    3    0    0 -0.25451012966E+02  0.10156435650E+02 -0.29533694684E+03  0.29660549458E+03  0.00000000000E+00 0.  1.
          3    1    3    3  501    0 -0.19503521123E+02  0.14542452234E+02 -0.26767527189E+03  0.26877857324E+03  0.00000000000E+00 0.  1.
         21    1    1    2  502  501  0.44954534088E+02 -0.24698887884E+02 -0.43429260134E+03  0.43731111211E+03  0.00000000000E+00 0.  1.
<mgrwt>
<rscale>  1 0.30000000E+03</rscale>
<asrwt>0</asrwt>
<pdfrwt beam="1">  1        1 0.98006750E-02 0.30000000E+03</pdfrwt>
<pdfrwt beam="2">0</pdfrwt>
<totfact> 0.77704730E+02</totfact>
</mgrwt>
</event>
<event>
 6    1  0.1956957E-002  0.3000000E+03  0.7818608E-02  0.1093470E+00
          1   -1    0    0  502    0  0.00000000000E+00  0.00000000000E+00  0.26736350201E+01  0.26736350201E+01  0.00000000000E+00 0.  1.
         13   -1    0    0    0    0 -0.00000000000E+00 -0.00000000000E+00 -0.10000000000E+04  0.10000000000E+04  0.00000000000E+00 0.  1.
    9000005    2    1    2  501    0 -0.40944189152E+02 -0.24044477666E+02 -0.69629127093E+03  0.69791686088E+03  0.34419765964E+01 0.  0.
         13    1    3    3    0    0 -0.24707540422E+02 -0.12702623867E+02 -0.39660750066E+03  0.39757933647E+03  0.00000000000E+00 0.  1.
          3    1    3    3  501    0 -0.16236648730E+02 -0.11341853799E+02 -0.29968377026E+03  0.30033752441E+03  0.00000000000E+00 0.  1.
         21    1    1    2  502  501  0.40944189152E+02  0.24044477666E+02 -0.30103509405E+03  0.30475677414E+03  0.00000000000E+00 0.  1.
<mgrwt>
<rscale>  1 0.30000000E+03</rscale>
<asrwt>0</asrwt>
<pdfrwt beam="1">  1        1 0.97223297E-02 0.30000000E+03</pdfrwt>
<pdfrwt beam="2">0</pdfrwt>
<totfact> 0.78571602E+02</totfact>
</mgrwt>
</event>
<event>
 6    1  0.1956957E-002  0.3000000E+03  0.7818608E-02  0.1093470E+00
          1   -1    0    0  502    0  0.00000000000E+00  0.00000000000E+00  0.13468722668E+01  0.13468722668E+01  0.00000000000E+00 0.  1.
         13   -1    0    0    0    0 -0.00000000000E+00 -0.00000000000E+00 -0.10000000000E+04  0.10000000000E+04  0.00000000000E+00 0.  1.
    9000005    2    1    2  501    0 -0.24401205474E+02 -0.18114836528E+02 -0.77933647385E+03  0.77993467567E+03  0.30319481329E+01 0.  0.
         13    1    3    3    0    0 -0.93501816286E+01 -0.84702014328E+01 -0.34437578523E+03  0.34460680733E+03  0.00000000000E+00 0.  1.
          3    1    3    3  501    0 -0.15051023846E+02 -0.96446350954E+01 -0.43496068863E+03  0.43532786834E+03  0.00000000000E+00 0.  1.
         21    1    1    2  502  501  0.24401205474E+02  0.18114836528E+02 -0.21931665388E+03  0.22141219659E+03  0.00000000000E+00 0.  1.
<mgrwt>
<rscale>  1 0.30000000E+03</rscale>
<asrwt>0</asrwt>
<pdfrwt beam="1">  1        1 0.48977277E-02 0.30000000E+03</pdfrwt>
<pdfrwt beam="2">0</pdfrwt>
<totfact> 0.20477961E+03</totfact>
</mgrwt>
</event>
<event>
 6    1  0.1956957E-002  0.3000000E+03  0.7818608E-02  0.1093470E+00
          3   -1    0    0  502    0  0.00000000000E+00  0.00000000000E+00  0.38513774466E+01  0.38513774466E+01  0.00000000000E+00 0.  1.
         13   -1    0    0    0    0 -0.00000000000E+00 -0.00000000000E+00 -0.10000000000E+04  0.10000000000E+04  0.00000000000E+00 0.  1.
    9000005    2    1    2  501    0  0.19463796161E+02  0.49969614415E+02 -0.24634658221E+03  0.25213407591E+03  0.30252178181E+01 0.  0.
         13    1    3    3    0    0  0.80731922323E+01  0.19166979149E+02 -0.10198155121E+03  0.10408067213E+03  0.00000000000E+00 0.  1.
          3    1    3    3  501    0  0.11390603929E+02  0.30802635266E+02 -0.14436503100E+03  0.14805340378E+03  0.00000000000E+00 0.  1.
         21    1    1    2  502  501 -0.19463796161E+02 -0.49969614415E+02 -0.74980204034E+03  0.75171730154E+03  0.00000000000E+00 0.  1.
<mgrwt>
<rscale>  1 0.30000000E+03</rscale>
<asrwt>0</asrwt>
<pdfrwt beam="1">  1        3 0.14005038E-01 0.30000000E+03</pdfrwt>
<pdfrwt beam="2">0</pdfrwt>
<totfact> 0.18734803E+02</totfact>
</mgrwt>
</event>
<event>
 6    1  0.1956957E-002  0.3000000E+03  0.7818608E-02  0.1093470E+00
          1   -1    0    0  502    0  0.00000000000E+00  0.00000000000E+00  0.25937228970E+01  0.25937228970E+01  0.00000000000E+00 0.  1.
         13   -1    0    0    0    0 -0.00000000000E+00 -0.00000000000E+00 -0.10000000000E+04  0.10000000000E+04  0.00000000000E+00 0.  1.
    9000005    2    1    2  501    0 -0.20099371892E+01 -0.33843807123E+02 -0.13805726994E+03  0.14257618864E+03  0.10895717232E+02 0.  0.
         13    1    3    3    0    0  0.21970067224E+00 -0.29683459526E+02 -0.10265636470E+03  0.10686199161E+03  0.00000000000E+00 0.  1.
          1    1    3    3  501    0 -0.22296378614E+01 -0.41603475967E+01 -0.35400905241E+02  0.35714197023E+02  0.00000000000E+00 0.  1.
         21    1    1    2  502  501  0.20099371892E+01  0.33843807123E+02 -0.85934900716E+03  0.86001753426E+03  0.00000000000E+00 0.  1.
<mgrwt>
<rscale>  1 0.30000000E+03</rscale>
<asrwt>0</asrwt>
<pdfrwt beam="1">  1        1 0.94317395E-02 0.30000000E+03</pdfrwt>
<pdfrwt beam="2">0</pdfrwt>
<totfact> 0.81941042E+02</totfact>
</mgrwt>
</event>
<event>
 6    1  0.1956957E-002  0.3000000E+03  0.7818608E-02  0.1093470E+00
          1   -1    0    0  502    0  0.00000000000E+00  0.00000000000E+00  0.20148891455E+01  0.20148891455E+01  0.00000000000E+00 0.  1.
         13   -1    0    0    0    0 -0.00000000000E+00 -0.00000000000E+00 -0.10000000000E+04  0.10000000000E+04  0.00000000000E+00 0.  1.
    9000005    2    1    2  501    0 -0.44020462837E+02 -0.38655757471E+00 -0.59356894303E+03  0.59520979162E+03  0.35574337691E+01 0.  0.
         13    1    3    3    0    0 -0.19805098959E+02  0.49680329781E+00 -0.24509282282E+03  0.24589221329E+03  0.00000000000E+00 0.  1.
          3    1    3    3  501    0 -0.24215363879E+02 -0.88336087252E+00 -0.34847612021E+03  0.34931757833E+03  0.00000000000E+00 0.  1.
         21    1    1    2  502  501  0.44020462837E+02  0.38655757471E+00 -0.40441616783E+03  0.40680509753E+03  0.00000000000E+00 0.  1.
<mgrwt>
<rscale>  1 0.30000000E+03</rscale>
<asrwt>0</asrwt>
<pdfrwt beam="1">  1        1 0.73268851E-02 0.30000000E+03</pdfrwt>
<pdfrwt beam="2">0</pdfrwt>
<totfact> 0.11641388E+03</totfact>
</mgrwt>
</event>
<event>
 6    1  0.1956957E-002  0.3000000E+03  0.7818608E-02  0.1093470E+00
          1   -1    0    0  502    0  0.00000000000E+00  0.00000000000E+00  0.98225007603E+00  0.98225007603E+00  0.00000000000E+00 0.  1.
         13   -1    0    0    0    0 -0.00000000000E+00 -0.00000000000E+00 -0.10000000000E+04  0.10000000000E+04  0.00000000000E+00 0.  1.
    9000005    2    1    2  501    0 -0.20807040012E+02  0.21893416056E+02 -0.39525817323E+03  0.39646766710E+03  0.67329763223E+01 0.  0.
         13    1    3    3    0    0 -0.18563332581E+02  0.20843263811E+02 -0.37845747789E+03  0.37948531136E+03  0.00000000000E+00 0.  1.
          3    1    3    3  501    0 -0.22437074312E+01  0.10501522448E+01 -0.16800695335E+02  0.16982355741E+02  0.00000000000E+00 0.  1.
         21    1    1    2  502  501  0.20807040012E+02 -0.21893416056E+02 -0.60375957670E+03  0.60451458298E+03  0.00000000000E+00 0.  1.
<mgrwt>
<rscale>  1 0.30000000E+03</rscale>
<asrwt>0</asrwt>
<pdfrwt beam="1">  1        1 0.35718260E-02 0.30000000E+03</pdfrwt>
<pdfrwt beam="2">0</pdfrwt>
<totfact> 0.31933293E+03</totfact>
</mgrwt>
</event>
<event>
 6    1  0.1956957E-002  0.3000000E+03  0.7818608E-02  0.1093470E+00
          1   -1    0    0  502    0  0.00000000000E+00  0.00000000000E+00  0.52482629216E+01  0.52482629216E+01  0.00000000000E+00 0.  1.
         13   -1    0    0    0    0 -0.00000000000E+00 -0.00000000000E+00 -0.10000000000E+04  0.10000000000E+04  0.00000000000E+00 0.  1.
    9000005    2    1    2  501    0 -0.28670065191E+02 -0.23313327191E+02 -0.92965632894E+03  0.93039576781E+03  0.31481694522E+01 0.  0.
         13    1    3    3    0    0 -0.34243640592E+01 -0.16585607437E+01 -0.10529514485E+03  0.10536386773E+03  0.00000000000E+00 0.  1.
          3    1    3    3  501    0 -0.25245701132E+02 -0.21654766447E+02 -0.82436118408E+03  0.82503190008E+03  0.00000000000E+00 0.  1.
         21    1    1    2  502  501  0.28670065191E+02  0.23313327191E+02 -0.65095408142E+02  0.74852495108E+02  0.00000000000E+00 0.  1.
<mgrwt>
<rscale>  1 0.30000000E+03</rscale>
<asrwt>0</asrwt>
<pdfrwt beam="1">  1        1 0.19084633E-01 0.30000000E+03</pdfrwt>
<pdfrwt beam="2">0</pdfrwt>
<totfact> 0.31347472E+02</totfact>
</mgrwt>
</event>
<event>
 6    1  0.1956957E-002  0.3000000E+03  0.7818608E-02  0.1093470E+00
          1   -1    0    0  502    0  0.00000000000E+00  0.00000000000E+00  0.12931889299E+01  0.12931889299E+01  0.00000000000E+00 0.  1.
         13   -1    0    0    0    0 -0.00000000000E+00 -0.00000000000E+00 -0.10000000000E+04  0.10000000000E+04  0.00000000000E+00 0.  1.
    9000005    2    1    2  501    0  0.69591965024E+01 -0.32412467931E+02 -0.69206269341E+03  0.69286229977E+03  0.28976434133E+01 0.  0.
         13    1    3    3    0    0  0.22409255489E+01 -0.12927480129E+02 -0.30165218414E+03  0.30193738041E+03  0.00000000000E+00 0.  1.
          3    1    3    3  501    0  0.47182709536E+01 -0.19484987802E+02 -0.39041050927E+03  0.39092491936E+03  0.00000000000E+00 0.  1.
         21    1    1    2  502  501 -0.69591965024E+01  0.32412467931E+02 -0.30664411766E+03  0.30843088916E+03  0.00000000000E+00 0.  1.
<mgrwt>
<rscale>  1 0.30000000E+03</rscale>
<asrwt>0</asrwt>
<pdfrwt beam="1">  1        1 0.47025151E-02 0.30000000E+03</pdfrwt>
<pdfrwt beam="2">0</pdfrwt>
<totfact> 0.21683392E+03</totfact>
</mgrwt>
</event>
<event>
 6    1  0.1956957E-002  0.3000000E+03  0.7818608E-02  0.1093470E+00
          1   -1    0    0  502    0  0.00000000000E+00  0.00000000000E+00  0.46651419736E+01  0.46651419736E+01  0.00000000000E+00 0.  1.
         13   -1    0    0    0    0 -0.00000000000E+00 -0.00000000000E+00 -0.10000000000E+04  0.10000000000E+04  0.00000000000E+00 0.  1.
    9000005    2    1    2  501    0 -0.42520570488E+01  0.62540202570E+02 -0.29910449915E+03  0.30561859879E+03  0.31415892926E+01 0.  0.
         13    1    3    3    0    0 -0.12000137484E+01  0.23150753697E+02 -0.10353873741E+03  0.10610215631E+03  0.00000000000E+00 0.  1.
          3    1    3    3  501    0 -0.30520433004E+01  0.39389448873E+02 -0.19556576174E+03  0.19951644247E+03  0.00000000000E+00 0.  1.
         21    1    1    2  502  501  0.42520570488E+01 -0.62540202570E+02 -0.69623035887E+03  0.69904654319E+03  0.00000000000E+00 0.  1.
<mgrwt>
<rscale>  1 0.30000000E+03</rscale>
<asrwt>0</asrwt>
<pdfrwt beam="1">  1        1 0.16964188E-01 0.30000000E+03</pdfrwt>
<pdfrwt beam="2">0</pdfrwt>
<totfact> 0.36725243E+02</totfact>
</mgrwt>
</event>
<event>
 6    1  0.1956957E-002  0.3000000E+03  0.7818608E-02  0.1093470E+00
          1   -1    0    0  502    0  0.00000000000E+00  0.00000000000E+00  0.51000766199E+01  0.51000766199E+01  0.00000000000E+00 0.  1.
         13   -1    0    0    0    0 -0.00000000000E+00 -0.00000000000E+00 -0.10000000000E+04  0.10000000000E+04  0.00000000000E+00 0.  1.
    9000005    2    1    2  501    0 -0.40350885655E+02 -0.49405821302E+01 -0.91058073598E+03  0.91149276553E+03  0.30301086012E+01 0.  0.
         13    1    3    3    0    0 -0.38495576791E+02 -0.40620333465E+01 -0.86228975576E+03  0.86315817348E+03  0.00000000000E+00 0.  1.
          3    1    3    3  501    0 -0.18553088644E+01 -0.87854878371E+00 -0.48290980216E+02  0.48334592056E+02  0.00000000000E+00 0.  1.
         21    1    1    2  502  501  0.40350885655E+02  0.49405821302E+01 -0.84319187402E+02  0.93607311088E+02  0.00000000000E+00 0.  1.
<mgrwt>
<rscale>  1 0.30000000E+03</rscale>
<asrwt>0</asrwt>
<pdfrwt beam="1">  1        1 0.18545772E-01 0.30000000E+03</pdfrwt>
<pdfrwt beam="2">0</pdfrwt>
<totfact> 0.32575090E+02</totfact>
</mgrwt>
</event>
<event>
 6    1  0.1956957E-002  0.3000000E+03  0.7818608E-02  0.1093470E+00
          1   -1    0    0  502    0  0.00000000000E+00  0.00000000000E+00  0.18021562539E+01  0.18021562539E+01  0.00000000000E+00 0.  1.
         13   -1    0    0    0    0 -0.00000000000E+00 -0.00000000000E+00 -0.10000000000E+04  0.10000000000E+04  0.00000000000E+00 0.  1.
    9000005    2    1    2  501    0 -0.25777276142E+02  0.25982402312E+02 -0.25345519955E+03  0.25616071476E+03  0.62626200633E+01 0.  0.
         13    1    3    3    0    0 -0.25105523171E+02  0.23103080939E+02 -0.23677842950E+03  0.23922387908E+03  0.00000000000E+00 0.  1.
          1    1    3    3  501    0 -0.67175297113E+00  0.28793213729E+01 -0.16676770051E+02  0.16936835683E+02  0.00000000000E+00 0.  1.
         21    1    1    2  502  501  0.25777276142E+02 -0.25982402312E+02 -0.74474264419E+03  0.74564144149E+03  0.00000000000E+00 0.  1.
<mgrwt>
<rscale>  1 0.30000000E+03</rscale>
<asrwt>0</asrwt>
<pdfrwt beam="1">  1        1 0.65533093E-02 0.30000000E+03</pdfrwt>
<pdfrwt beam="2">0</pdfrwt>
<totfact> 0.13607564E+03</totfact>
</mgrwt>
</event>
<event>
 6    1  0.1956957E-002  0.3000000E+03  0.7818608E-02  0.1093470E+00
          3   -1    0    0  502    0  0.00000000000E+00  0.00000000000E+00  0.16110278455E+01  0.16110278455E+01  0.00000000000E+00 0.  1.
         13   -1    0    0    0    0 -0.00000000000E+00 -0.00000000000E+00 -0.10000000000E+04  0.10000000000E+04  0.00000000000E+00 0.  1.
    9000005    2    1    2  501    0  0.29939267514E+02 -0.66582938697E+01 -0.82198712663E+03  0.82256269995E+03  0.24220636984E+01 0.  0.
         13    1    3    3    0    0  0.22605144653E+02 -0.58653018803E+01 -0.60725858642E+03  0.60770748318E+03  0.00000000000E+00 0.  1.
          1    1    3    3  501    0  0.73341228613E+01 -0.79299198936E+00 -0.21472854020E+03  0.21485521677E+03  0.00000000000E+00 0.  1.
         21    1    1    2  502  501 -0.29939267514E+02  0.66582938697E+01 -0.17640184553E+03  0.17904832789E+03  0.00000000000E+00 0.  1.
<mgrwt>
<rscale>  1 0.30000000E+03</rscale>
<asrwt>0</asrwt>
<pdfrwt beam="1">  1        3 0.58582954E-02 0.30000000E+03</pdfrwt>
<pdfrwt beam="2">0</pdfrwt>
<totfact> 0.77401802E+02</totfact>
</mgrwt>
</event>
<event>
 6    1  0.1956957E-002  0.3000000E+03  0.7818608E-02  0.1093470E+00
          1   -1    0    0  502    0  0.00000000000E+00  0.00000000000E+00  0.36644204046E+01  0.36644204046E+01  0.00000000000E+00 0.  1.
         13   -1    0    0    0    0 -0.00000000000E+00 -0.00000000000E+00 -0.10000000000E+04  0.10000000000E+04  0.00000000000E+00 0.  1.
    9000005    2    1    2  501    0 -0.10463421858E+02  0.41857073718E+02 -0.84889898908E+03  0.85004461035E+03  0.92113035875E+01 0.  0.
         13    1    3    3    0    0 -0.27691282066E+01  0.23130345018E+01 -0.49611964661E+02  0.49742991840E+02  0.00000000000E+00 0.  1.
          3    1    3    3  501    0 -0.76942936518E+01  0.39544039216E+02 -0.79928702442E+03  0.80030161851E+03  0.00000000000E+00 0.  1.
         21    1    1    2  502  501  0.10463421858E+02 -0.41857073718E+02 -0.14743659052E+03  0.15361981005E+03  0.00000000000E+00 0.  1.
<mgrwt>
<rscale>  1 0.30000000E+03</rscale>
<asrwt>0</asrwt>
<pdfrwt beam="1">  1        1 0.13325193E-01 0.30000000E+03</pdfrwt>
<pdfrwt beam="2">0</pdfrwt>
<totfact> 0.50965058E+02</totfact>
</mgrwt>
</event>
<event>
 6    1  0.1956957E-002  0.3000000E+03  0.7818608E-02  0.1093470E+00
          3   -1    0    0  502    0  0.00000000000E+00  0.00000000000E+00  0.27541929387E+01  0.27541929387E+01  0.00000000000E+00 0.  1.
         13   -1    0    0    0    0 -0.00000000000E+00 -0.00000000000E+00 -0.10000000000E+04  0.10000000000E+04  0.00000000000E+00 0.  1.
    9000005    2    1    2  501    0  0.26971781893E+02  0.14062674690E+02 -0.90697350297E+03  0.90749494287E+03  0.45716961329E+01 0.  0.
         13    1    3    3    0    0  0.12184870886E+02  0.47475167437E+01 -0.33719445920E+03  0.33744794162E+03  0.00000000000E+00 0.  1.
          1    1    3    3  501    0  0.14786911007E+02  0.93151579463E+01 -0.56977904377E+03  0.57004700124E+03  0.00000000000E+00 0.  1.
         21    1    1    2  502  501 -0.26971781893E+02 -0.14062674690E+02 -0.90272304095E+02  0.95259250073E+02  0.00000000000E+00 0.  1.
<mgrwt>
<rscale>  1 0.30000000E+03</rscale>
<asrwt>0</asrwt>
<pdfrwt beam="1">  1        3 0.10015268E-01 0.30000000E+03</pdfrwt>
<pdfrwt beam="2">0</pdfrwt>
<totfact> 0.32941134E+02</totfact>
</mgrwt>
</event>
<event>
 6    1  0.1956957E-002  0.3000000E+03  0.7818608E-02  0.1093470E+00
          1   -1    0    0  502    0  0.00000000000E+00  0.00000000000E+00  0.13640108580E+01  0.13640108580E+01  0.00000000000E+00 0.  1.
         13   -1    0    0    0    0 -0.00000000000E+00 -0.00000000000E+00 -0.10000000000E+04  0.10000000000E+04  0.00000000000E+00 0.  1.
    9000005    2    1    2  501    0  0.27362116554E+01  0.34501325421E+02 -0.67243894759E+03  0.67333605743E+03  0.30789113694E+01 0.  0.
         13    1    3    3    0    0 -0.57462235866E+00  0.10723269725E+02 -0.20668077128E+03  0.20695956108E+03  0.00000000000E+00 0.  1.
          1    1    3    3  501    0  0.33108340140E+01  0.23778055696E+02 -0.46575817631E+03  0.46637649636E+03  0.00000000000E+00 0.  1.
         21    1    1    2  502  501 -0.27362116554E+01 -0.34501325421E+02 -0.32619704155E+03  0.32802795343E+03  0.00000000000E+00 0.  1.
<mgrwt>
<rscale>  1 0.30000000E+03</rscale>
<asrwt>0</asrwt>
<pdfrwt beam="1">  1        1 0.49600499E-02 0.30000000E+03</pdfrwt>
<pdfrwt beam="2">0</pdfrwt>
<totfact> 0.20117172E+03</totfact>
</mgrwt>
</event>
<event>
 6    1  0.1956957E-002  0.3000000E+03  0.7818608E-02  0.1093470E+00
          3   -1    0    0  502    0  0.00000000000E+00  0.00000000000E+00  0.12539174855E+01  0.12539174855E+01  0.00000000000E+00 0.  1.
         13   -1    0    0    0    0 -0.00000000000E+00 -0.00000000000E+00 -0.10000000000E+04  0.10000000000E+04  0.00000000000E+00 0.  1.
    9000005    2    1    2  501    0  0.11149666027E+02  0.29964660219E+02 -0.71278908706E+03  0.71351514853E+03  0.36590470980E+01 0.  0.
         13    1    3    3    0    0  0.10367483647E+02  0.26017406065E+02 -0.59786370111E+03  0.59851933573E+03  0.00000000000E+00 0.  1.
          3    1    3    3  501    0  0.78218237978E+00  0.39472541547E+01 -0.11492538595E+03  0.11499581280E+03  0.00000000000E+00 0.  1.
         21    1    1    2  502  501 -0.11149666027E+02 -0.29964660219E+02 -0.28595699545E+03  0.28773876896E+03  0.00000000000E+00 0.  1.
<mgrwt>
<rscale>  1 0.30000000E+03</rscale>
<asrwt>0</asrwt>
<pdfrwt beam="1">  1        3 0.45597096E-02 0.30000000E+03</pdfrwt>
<pdfrwt beam="2">0</pdfrwt>
<totfact> 0.11406508E+03</totfact>
</mgrwt>
</event>
<event>
 6    1  0.1956957E-002  0.3000000E+03  0.7818608E-02  0.1093470E+00
          1   -1    0    0  502    0  0.00000000000E+00  0.00000000000E+00  0.48045264853E+01  0.48045264853E+01  0.00000000000E+00 0.  1.
         13   -1    0    0    0    0 -0.00000000000E+00 -0.00000000000E+00 -0.10000000000E+04  0.10000000000E+04  0.00000000000E+00 0.  1.
    9000005    2    1    2  501    0 -0.46060486253E+02 -0.98281935536E+01 -0.86606357411E+03  0.86735195566E+03  0.38908619367E+01 0.  0.
         13    1    3    3    0    0 -0.22639835112E+02 -0.46043523997E+01 -0.38941057057E+03  0.39009531485E+03  0.00000000000E+00 0.  1.
          1    1    3    3  501    0 -0.23420651140E+02 -0.52238411539E+01 -0.47665300354E+03  0.47725664081E+03  0.00000000000E+00 0.  1.
         21    1    1    2  502  501  0.46060486253E+02  0.98281935536E+01 -0.12913189941E+03  0.13745257083E+03  0.00000000000E+00 0.  1.
<mgrwt>
<rscale>  1 0.30000000E+03</rscale>
<asrwt>0</asrwt>
<pdfrwt beam="1">  1        1 0.17471042E-01 0.30000000E+03</pdfrwt>
<pdfrwt beam="2">0</pdfrwt>
<totfact> 0.35296859E+02</totfact>
</mgrwt>
</event>
<event>
 6    1  0.1956957E-002  0.3000000E+03  0.7818608E-02  0.1093470E+00
          1   -1    0    0  502    0  0.00000000000E+00  0.00000000000E+00  0.32839550271E+01  0.32839550271E+01  0.00000000000E+00 0.  1.
         13   -1    0    0    0    0 -0.00000000000E+00 -0.00000000000E+00 -0.10000000000E+04  0.10000000000E+04  0.00000000000E+00 0.  1.
    9000005    2    1    2  501    0  0.28974230166E+02 -0.11166090923E+02 -0.91989504212E+03  0.92042471245E+03  0.32519504815E+01 0.  0.
         13    1    3    3    0    0  0.16501827624E+02 -0.51760372078E+01 -0.54552701410E+03  0.54580108537E+03  0.00000000000E+00 0.  1.
          1    1    3    3  501    0  0.12472402542E+02 -0.59900537152E+01 -0.37436802802E+03  0.37462362709E+03  0.00000000000E+00 0.  1.
         21    1    1    2  502  501 -0.28974230166E+02  0.11166090923E+02 -0.76821002855E+02  0.82859242573E+02  0.00000000000E+00 0.  1.
<mgrwt>
<rscale>  1 0.30000000E+03</rscale>
<asrwt>0</asrwt>
<pdfrwt beam="1">  1        1 0.11941680E-01 0.30000000E+03</pdfrwt>
<pdfrwt beam="2">0</pdfrwt>
<totfact> 0.59211386E+02</totfact>
</mgrwt>
</event>
<event>
 6    1  0.1956957E-002  0.3000000E+03  0.7818608E-02  0.1093470E+00
          1   -1    0    0  502    0  0.00000000000E+00  0.00000000000E+00  0.98277438601E+00  0.98277438601E+00  0.00000000000E+00 0.  1.
         13   -1    0    0    0    0 -0.00000000000E+00 -0.00000000000E+00 -0.10000000000E+04  0.10000000000E+04  0.00000000000E+00 0.  1.
    9000005    2    1    2  501    0  0.35088000206E+01  0.30855582210E+02 -0.50052436591E+03  0.50152355702E+03  0.60711407629E+01 0.  0.
         13    1    3    3    0    0  0.22831227697E+01  0.21701260188E+02 -0.39200445459E+03  0.39261132149E+03  0.00000000000E+00 0.  1.
          3    1    3    3  501    0  0.12256772509E+01  0.91543220224E+01 -0.10851991132E+03  0.10891223553E+03  0.00000000000E+00 0.  1.
         21    1    1    2  502  501 -0.35088000206E+01 -0.30855582210E+02 -0.49849285970E+03  0.49945921736E+03  0.00000000000E+00 0.  1.
<mgrwt>
<rscale>  1 0.30000000E+03</rscale>
<asrwt>0</asrwt>
<pdfrwt beam="1">  1        1 0.35737326E-02 0.30000000E+03</pdfrwt>
<pdfrwt beam="2">0</pdfrwt>
<totfact> 0.31909331E+03</totfact>
</mgrwt>
</event>
<event>
 6    1  0.1956957E-002  0.3000000E+03  0.7818608E-02  0.1093470E+00
          1   -1    0    0  502    0  0.00000000000E+00  0.00000000000E+00  0.18946034872E+01  0.18946034872E+01  0.00000000000E+00 0.  1.
         13   -1    0    0    0    0 -0.00000000000E+00 -0.00000000000E+00 -0.10000000000E+04  0.10000000000E+04  0.00000000000E+00 0.  1.
    9000005    2    1    2  501    0  0.43330046169E+02  0.53606327911E+00 -0.46174151469E+03  0.46378309647E+03  0.34283982359E+01 0.  0.
         13    1    3    3    0    0  0.95816218914E+01  0.14951261751E+01 -0.99124005945E+02  0.99597246122E+02  0.00000000000E+00 0.  1.
          1    1    3    3  501    0  0.33748424277E+02 -0.95906289601E+00 -0.36261750874E+03  0.36418585034E+03  0.00000000000E+00 0.  1.
         21    1    1    2  502  501 -0.43330046169E+02 -0.53606327911E+00 -0.53636388182E+03  0.53811150702E+03  0.00000000000E+00 0.  1.
<mgrwt>
<rscale>  1 0.30000000E+03</rscale>
<asrwt>0</asrwt>
<pdfrwt beam="1">  1        1 0.68894818E-02 0.30000000E+03</pdfrwt>
<pdfrwt beam="2">0</pdfrwt>
<totfact> 0.12687383E+03</totfact>
</mgrwt>
</event>
<event>
 6    1  0.1956957E-002  0.3000000E+03  0.7818608E-02  0.1093470E+00
          1   -1    0    0  502    0  0.00000000000E+00  0.00000000000E+00  0.19497293041E+01  0.19497293041E+01  0.00000000000E+00 0.  1.
         13   -1    0    0    0    0 -0.00000000000E+00 -0.00000000000E+00 -0.10000000000E+04  0.10000000000E+04  0.00000000000E+00 0.  1.
    9000005    2    1    2  501    0  0.92121151758E+01  0.37351283333E+02 -0.74447608285E+03  0.74547390164E+03  0.25920383624E+01 0.  0.
         13    1    3    3    0    0  0.58407052915E+01  0.18946476384E+02 -0.39511320769E+03  0.39561032557E+03  0.00000000000E+00 0.  1.
          1    1    3    3  501    0  0.33714098843E+01  0.18404806950E+02 -0.34936287515E+03  0.34986357607E+03  0.00000000000E+00 0.  1.
         21    1    1    2  502  501 -0.92121151758E+01 -0.37351283333E+02 -0.25357418785E+03  0.25647582766E+03  0.00000000000E+00 0.  1.
<mgrwt>
<rscale>  1 0.30000000E+03</rscale>
<asrwt>0</asrwt>
<pdfrwt beam="1">  1        1 0.70899397E-02 0.30000000E+03</pdfrwt>
<pdfrwt beam="2">0</pdfrwt>
<totfact> 0.12188605E+03</totfact>
</mgrwt>
</event>
<event>
 6    1  0.1956957E-002  0.3000000E+03  0.7818608E-02  0.1093470E+00
          1   -1    0    0  502    0  0.00000000000E+00  0.00000000000E+00  0.44975554569E+01  0.44975554569E+01  0.00000000000E+00 0.  1.
         13   -1    0    0    0    0 -0.00000000000E+00 -0.00000000000E+00 -0.10000000000E+04  0.10000000000E+04  0.00000000000E+00 0.  1.
    9000005    2    1    2  501    0 -0.53787006636E+02 -0.30319498725E+02 -0.69051549489E+03  0.69332340238E+03  0.85660676919E+01 0.  0.
         13    1    3    3    0    0 -0.50095850079E+00 -0.18333531922E+01 -0.23565317516E+02  0.23641834383E+02  0.00000000000E+00 0.  1.
          3    1    3    3  501    0 -0.53286048135E+02 -0.28486145533E+02 -0.66695017738E+03  0.66968156800E+03  0.00000000000E+00 0.  1.
         21    1    1    2  502  501  0.53787006636E+02  0.30319498725E+02 -0.30498694965E+03  0.31117415308E+03  0.00000000000E+00 0.  1.
<mgrwt>
<rscale>  1 0.30000000E+03</rscale>
<asrwt>0</asrwt>
<pdfrwt beam="1">  1        1 0.16354782E-01 0.30000000E+03</pdfrwt>
<pdfrwt beam="2">0</pdfrwt>
<totfact> 0.38584697E+02</totfact>
</mgrwt>
</event>
<event>
 6    1  0.1956957E-002  0.3000000E+03  0.7818608E-02  0.1093470E+00
          3   -1    0    0  502    0  0.00000000000E+00  0.00000000000E+00  0.19105059300E+01  0.19105059300E+01  0.00000000000E+00 0.  1.
         13   -1    0    0    0    0 -0.00000000000E+00 -0.00000000000E+00 -0.10000000000E+04  0.10000000000E+04  0.00000000000E+00 0.  1.
    9000005    2    1    2  501    0 -0.18796746547E+02 -0.32729844718E+02 -0.75106741918E+03  0.75202159882E+03  0.31074933326E+01 0.  0.
         13    1    3    3    0    0 -0.12979484552E+02 -0.21086657812E+02 -0.46649379975E+03  0.46715048899E+03  0.00000000000E+00 0.  1.
          1    1    3    3  501    0 -0.58172619953E+01 -0.11643186907E+02 -0.28457361943E+03  0.28487110983E+03  0.00000000000E+00 0.  1.
         21    1    1    2  502  501  0.18796746547E+02  0.32729844718E+02 -0.24702207489E+03  0.24988890711E+03  0.00000000000E+00 0.  1.
<mgrwt>
<rscale>  1 0.30000000E+03</rscale>
<asrwt>0</asrwt>
<pdfrwt beam="1">  1        3 0.69473089E-02 0.30000000E+03</pdfrwt>
<pdfrwt beam="2">0</pdfrwt>
<totfact> 0.59275909E+02</totfact>
</mgrwt>
</event>
<event>
 6    1  0.1956957E-002  0.3000000E+03  0.7818608E-02  0.1093470E+00
          3   -1    0    0  502    0  0.00000000000E+00  0.00000000000E+00  0.21189936838E+01  0.21189936838E+01  0.00000000000E+00 0.  1.
         13   -1    0    0    0    0 -0.00000000000E+00 -0.00000000000E+00 -0.10000000000E+04  0.10000000000E+04  0.00000000000E+00 0.  1.
    9000005    2    1    2  501    0  0.33343948608E+02 -0.29594388977E+02 -0.62135746000E+03  0.62296516251E+03  0.35852236199E+01 0.  0.
         13    1    3    3    0    0  0.11307447578E+02 -0.87172889109E+01 -0.18041908322E+03  0.18098313482E+03  0.00000000000E+00 0.  1.
          1    1    3    3  501    0  0.22036501030E+02 -0.20877100066E+02 -0.44093837678E+03  0.44198202769E+03  0.00000000000E+00 0.  1.
         21    1    1    2  502  501 -0.33343948608E+02  0.29594388977E+02 -0.37652354631E+03  0.37915383118E+03  0.00000000000E+00 0.  1.
<mgrwt>
<rscale>  1 0.30000000E+03</rscale>
<asrwt>0</asrwt>
<pdfrwt beam="1">  1        3 0.77054478E-02 0.30000000E+03</pdfrwt>
<pdfrwt beam="2">0</pdfrwt>
<totfact> 0.50310682E+02</totfact>
</mgrwt>
</event>
<event>
 6    1  0.1956957E-002  0.3000000E+03  0.7818608E-02  0.1093470E+00
          1   -1    0    0  502    0  0.00000000000E+00  0.00000000000E+00  0.16284930060E+01  0.16284930060E+01  0.00000000000E+00 0.  1.
         13   -1    0    0    0    0 -0.00000000000E+00 -0.00000000000E+00 -0.10000000000E+04  0.10000000000E+04  0.00000000000E+00 0.  1.
    9000005    2    1    2  501    0 -0.21092599018E+02  0.22336817542E+02 -0.82116825328E+03  0.82178182421E+03  0.80146897126E+01 0.  0.
         13    1    3    3    0    0 -0.66133820739E+01  0.25976959564E+01 -0.15208907643E+03  0.15225495728E+03  0.00000000000E+00 0.  1.
          3    1    3    3  501    0 -0.14479216944E+02  0.19739121585E+02 -0.66907917685E+03  0.66952686693E+03  0.00000000000E+00 0.  1.
         21    1    1    2  502  501  0.21092599018E+02 -0.22336817542E+02 -0.17720325371E+03  0.17984666880E+03  0.00000000000E+00 0.  1.
<mgrwt>
<rscale>  1 0.30000000E+03</rscale>
<asrwt>0</asrwt>
<pdfrwt beam="1">  1        1 0.59218052E-02 0.30000000E+03</pdfrwt>
<pdfrwt beam="2">0</pdfrwt>
<totfact> 0.15684482E+03</totfact>
</mgrwt>
</event>
<event>
 6    1  0.1956957E-002  0.3000000E+03  0.7818608E-02  0.1093470E+00
          1   -1    0    0  502    0  0.00000000000E+00  0.00000000000E+00  0.18778224287E+01  0.18778224287E+01  0.00000000000E+00 0.  1.
         13   -1    0    0    0    0 -0.00000000000E+00 -0.00000000000E+00 -0.10000000000E+04  0.10000000000E+04  0.00000000000E+00 0.  1.
    9000005    2    1    2  501    0 -0.13416029776E+02  0.32115640519E+02 -0.79693538946E+03  0.79770258414E+03  0.34631696627E+01 0.  0.
         13    1    3    3    0    0 -0.83159224955E+01  0.16732962492E+02 -0.39883801227E+03  0.39927547712E+03  0.00000000000E+00 0.  1.
          1    1    3    3  501    0 -0.51001072807E+01  0.15382678027E+02 -0.39809737720E+03  0.39842710702E+03  0.00000000000E+00 0.  1.
         21    1    1    2  502  501  0.13416029776E+02 -0.32115640519E+02 -0.20118678811E+03  0.20417523829E+03  0.00000000000E+00 0.  1.
<mgrwt>
<rscale>  1 0.30000000E+03</rscale>
<asrwt>0</asrwt>
<pdfrwt beam="1">  1        1 0.68284596E-02 0.30000000E+03</pdfrwt>
<pdfrwt beam="2">0</pdfrwt>
<totfact> 0.12846282E+03</totfact>
</mgrwt>
</event>
<event>
 6    1  0.1956957E-002  0.3000000E+03  0.7818608E-02  0.1093470E+00
          3   -1    0    0  502    0  0.00000000000E+00  0.00000000000E+00  0.38462367127E+01  0.38462367127E+01  0.00000000000E+00 0.  1.
         13   -1    0    0    0    0 -0.00000000000E+00 -0.00000000000E+00 -0.10000000000E+04  0.10000000000E+04  0.00000000000E+00 0.  1.
    9000005    2    1    2  501    0  0.54702288919E+02  0.82098550011E+01 -0.72466434694E+03  0.72677901505E+03  0.30949727969E+01 0.  0.
         13    1    3    3    0    0  0.40067388441E+02  0.59798156025E+01 -0.51222131865E+03  0.51382081808E+03  0.00000000000E+00 0.  1.
          1    1    3    3  501    0  0.14634900478E+02  0.22300393986E+01 -0.21244302829E+03  0.21295819697E+03  0.00000000000E+00 0.  1.
         21    1    1    2  502  501 -0.54702288919E+02 -0.82098550011E+01 -0.27148941634E+03  0.27706722166E+03  0.00000000000E+00 0.  1.
<mgrwt>
<rscale>  1 0.30000000E+03</rscale>
<asrwt>0</asrwt>
<pdfrwt beam="1">  1        3 0.13986345E-01 0.30000000E+03</pdfrwt>
<pdfrwt beam="2">0</pdfrwt>
<totfact> 0.18777777E+02</totfact>
</mgrwt>
</event>
<event>
 6    1  0.1956957E-002  0.3000000E+03  0.7818608E-02  0.1093470E+00
          1   -1    0    0  502    0  0.00000000000E+00  0.00000000000E+00  0.18405951724E+01  0.18405951724E+01  0.00000000000E+00 0.  1.
         13   -1    0    0    0    0 -0.00000000000E+00 -0.00000000000E+00 -0.10000000000E+04  0.10000000000E+04  0.00000000000E+00 0.  1.
    9000005    2    1    2  501    0  0.84379944907E+01 -0.35748033106E+02 -0.75728486618E+03  0.75818168401E+03  0.31584482518E+01 0.  0.
         13    1    3    3    0    0  0.87118606700E+01 -0.34923487233E+02 -0.74093296285E+03  0.74180671465E+03  0.00000000000E+00 0.  1.
          1    1    3    3  501    0 -0.27386617934E+00 -0.82454587307E+00 -0.16351903339E+02  0.16374969356E+02  0.00000000000E+00 0.  1.
         21    1    1    2  502  501 -0.84379944907E+01  0.35748033106E+02 -0.24087453864E+03  0.24365891116E+03  0.00000000000E+00 0.  1.
<mgrwt>
<rscale>  1 0.30000000E+03</rscale>
<asrwt>0</asrwt>
<pdfrwt beam="1">  1        1 0.66930875E-02 0.30000000E+03</pdfrwt>
<pdfrwt beam="2">0</pdfrwt>
<totfact> 0.13211357E+03</totfact>
</mgrwt>
</event>
<event>
 6    1  0.1956957E-002  0.3000000E+03  0.7818608E-02  0.1093470E+00
          1   -1    0    0  502    0  0.00000000000E+00  0.00000000000E+00  0.79255086245E+01  0.79255086245E+01  0.00000000000E+00 0.  1.
         13   -1    0    0    0    0 -0.00000000000E+00 -0.00000000000E+00 -0.10000000000E+04  0.10000000000E+04  0.00000000000E+00 0.  1.
    9000005    2    1    2  501    0  0.29869383225E+02 -0.82912495030E+01 -0.96844738249E+03  0.96894903948E+03  0.33141495234E+01 0.  0.
         13    1    3    3    0    0  0.23027894095E+01 -0.38523505476E+00 -0.50753854348E+02  0.50807528737E+02  0.00000000000E+00 0.  1.
          1    1    3    3  501    0  0.27566593815E+02 -0.79060144482E+01 -0.91769352814E+03  0.91814151075E+03  0.00000000000E+00 0.  1.
         21    1    1    2  502  501 -0.29869383225E+02  0.82912495030E+01 -0.23627108884E+02  0.38976469142E+02  0.00000000000E+00 0.  1.
<mgrwt>
<rscale>  1 0.30000000E+03</rscale>
<asrwt>0</asrwt>
<pdfrwt beam="1">  1        1 0.28820092E-01 0.30000000E+03</pdfrwt>
<pdfrwt beam="2">0</pdfrwt>
<totfact> 0.18152842E+02</totfact>
</mgrwt>
</event>
<event>
 6    1  0.1956957E-002  0.3000000E+03  0.7818608E-02  0.1093470E+00
          3   -1    0    0  502    0  0.00000000000E+00  0.00000000000E+00  0.28679165734E+01  0.28679165734E+01  0.00000000000E+00 0.  1.
         13   -1    0    0    0    0 -0.00000000000E+00 -0.00000000000E+00 -0.10000000000E+04  0.10000000000E+04  0.00000000000E+00 0.  1.
    9000005    2    1    2  501    0 -0.70055393469E+01  0.38494843594E+02 -0.84070520318E+03  0.84162183313E+03  0.33377788481E+01 0.  0.
         13    1    3    3    0    0 -0.46255132290E+01  0.31754131855E+02 -0.67411496318E+03  0.67487828817E+03  0.00000000000E+00 0.  1.
          1    1    3    3  501    0 -0.23800261178E+01  0.67407117389E+01 -0.16659024000E+03  0.16674354495E+03  0.00000000000E+00 0.  1.
         21    1    1    2  502  501  0.70055393469E+01 -0.38494843594E+02 -0.15642688024E+03  0.16124608345E+03  0.00000000000E+00 0.  1.
<mgrwt>
<rscale>  1 0.30000000E+03</rscale>
<asrwt>0</asrwt>
<pdfrwt beam="1">  1        3 0.10428810E-01 0.30000000E+03</pdfrwt>
<pdfrwt beam="2">0</pdfrwt>
<totfact> 0.30810044E+02</totfact>
</mgrwt>
</event>
<event>
 6    1  0.1956957E-002  0.3000000E+03  0.7818608E-02  0.1093470E+00
          1   -1    0    0  502    0  0.00000000000E+00  0.00000000000E+00  0.94288415361E+01  0.94288415361E+01  0.00000000000E+00 0.  1.
         13   -1    0    0    0    0 -0.00000000000E+00 -0.00000000000E+00 -0.10000000000E+04  0.10000000000E+04  0.00000000000E+00 0.  1.
    9000005    2    1    2  501    0 -0.31806557831E+02 -0.32498778453E+02 -0.94121437361E+03  0.94231759112E+03  0.31808350654E+01 0.  0.
         13    1    3    3    0    0 -0.96617287721E+01 -0.88483829835E+01 -0.24589615423E+03  0.24624492188E+03  0.00000000000E+00 0.  1.
          3    1    3    3  501    0 -0.22144829059E+02 -0.23650395469E+02 -0.69531821938E+03  0.69607266924E+03  0.00000000000E+00 0.  1.
         21    1    1    2  502  501  0.31806557831E+02  0.32498778453E+02 -0.49356784853E+02  0.67111250421E+02  0.00000000000E+00 0.  1.
<mgrwt>
<rscale>  1 0.30000000E+03</rscale>
<asrwt>0</asrwt>
<pdfrwt beam="1">  1        1 0.34286769E-01 0.30000000E+03</pdfrwt>
<pdfrwt beam="2">0</pdfrwt>
<totfact> 0.14456138E+02</totfact>
</mgrwt>
</event>
<event>
 6    1  0.1956957E-002  0.3000000E+03  0.7818608E-02  0.1093470E+00
          1   -1    0    0  502    0  0.00000000000E+00  0.00000000000E+00  0.16168981419E+02  0.16168981419E+02  0.00000000000E+00 0.  1.
         13   -1    0    0    0    0 -0.00000000000E+00 -0.00000000000E+00 -0.10000000000E+04  0.10000000000E+04  0.00000000000E+00 0.  1.
    9000005    2    1    2  501    0  0.45343343306E+02  0.25467809061E+02 -0.95555131781E+03  0.95697126561E+03  0.33247809211E+01 0.  0.
         13    1    3    3    0    0  0.96262809551E+01  0.57076617848E+01 -0.23132317409E+03  0.23159372521E+03  0.00000000000E+00 0.  1.
          3    1    3    3  501    0  0.35717062351E+02  0.19760147276E+02 -0.72422814372E+03  0.72537754040E+03  0.00000000000E+00 0.  1.
         21    1    1    2  502  501 -0.45343343306E+02 -0.25467809061E+02 -0.28279700775E+02  0.59197715804E+02  0.00000000000E+00 0.  1.
<mgrwt>
<rscale>  1 0.30000000E+03</rscale>
<asrwt>0</asrwt>
<pdfrwt beam="1">  1        1 0.58796420E-01 0.30000000E+03</pdfrwt>
<pdfrwt beam="2">0</pdfrwt>
<totfact> 0.71235880E+01</totfact>
</mgrwt>
</event>
<event>
 6    1  0.1956957E-002  0.3000000E+03  0.7818608E-02  0.1093470E+00
          1   -1    0    0  502    0  0.00000000000E+00  0.00000000000E+00  0.19009337083E+01  0.19009337083E+01  0.00000000000E+00 0.  1.
         13   -1    0    0    0    0 -0.00000000000E+00 -0.00000000000E+00 -0.10000000000E+04  0.10000000000E+04  0.00000000000E+00 0.  1.
    9000005    2    1    2  501    0 -0.13830207139E+02  0.27525219406E+02 -0.85299846277E+03  0.85356652275E+03  0.45297829653E+01 0.  0.
         13    1    3    3    0    0 -0.32996221828E+01  0.68824493422E+01 -0.26953065008E+03  0.26963869705E+03  0.00000000000E+00 0.  1.
          1    1    3    3  501    0 -0.10530584956E+02  0.20642770063E+02 -0.58346781269E+03  0.58392782570E+03  0.00000000000E+00 0.  1.
         21    1    1    2  502  501  0.13830207139E+02 -0.27525219406E+02 -0.14510060352E+03  0.14833441096E+03  0.00000000000E+00 0.  1.
<mgrwt>
<rscale>  1 0.30000000E+03</rscale>
<asrwt>0</asrwt>
<pdfrwt beam="1">  1        1 0.69125008E-02 0.30000000E+03</pdfrwt>
<pdfrwt beam="2">0</pdfrwt>
<totfact> 0.12628324E+03</totfact>
</mgrwt>
</event>
<event>
 6    1  0.1956957E-002  0.3000000E+03  0.7818608E-02  0.1093470E+00
          1   -1    0    0  502    0  0.00000000000E+00  0.00000000000E+00  0.14149147875E+01  0.14149147875E+01  0.00000000000E+00 0.  1.
         13   -1    0    0    0    0 -0.00000000000E+00 -0.00000000000E+00 -0.10000000000E+04  0.10000000000E+04  0.00000000000E+00 0.  1.
    9000005    2    1    2  501    0 -0.17615203522E+02 -0.24573613129E+02 -0.79653566889E+03  0.79711580932E+03  0.32223906239E+01 0.  0.
         13    1    3    3    0    0 -0.15330262261E+02 -0.20410717260E+02 -0.64229180111E+03  0.64279885819E+03  0.00000000000E+00 0.  1.
          3    1    3    3  501    0 -0.22849412611E+01 -0.41628958687E+01 -0.15424386778E+03  0.15431695113E+03  0.00000000000E+00 0.  1.
         21    1    1    2  502  501  0.17615203522E+02  0.24573613129E+02 -0.20204941632E+03  0.20429910547E+03  0.00000000000E+00 0.  1.
<mgrwt>
<rscale>  1 0.30000000E+03</rscale>
<asrwt>0</asrwt>
<pdfrwt beam="1">  1        1 0.51451555E-02 0.30000000E+03</pdfrwt>
<pdfrwt beam="2">0</pdfrwt>
<totfact> 0.19107486E+03</totfact>
</mgrwt>
</event>
<event>
 6    1  0.1956957E-002  0.3000000E+03  0.7818608E-02  0.1093470E+00
          3   -1    0    0  502    0  0.00000000000E+00  0.00000000000E+00  0.19830580372E+01  0.19830580372E+01  0.00000000000E+00 0.  1.
         13   -1    0    0    0    0 -0.00000000000E+00 -0.00000000000E+00 -0.10000000000E+04  0.10000000000E+04  0.00000000000E+00 0.  1.
    9000005    2    1    2  501    0  0.34314030138E+02 -0.28299687753E+02 -0.50710617216E+03  0.50906145281E+03  0.29270980732E+01 0.  0.
         13    1    3    3    0    0  0.30862599486E+02 -0.25796693921E+02 -0.44830977540E+03  0.45011067992E+03  0.00000000000E+00 0.  1.
          3    1    3    3  501    0  0.34514306520E+01 -0.25029938326E+01 -0.58796396762E+02  0.58950772886E+02  0.00000000000E+00 0.  1.
         21    1    1    2  502  501 -0.34314030138E+02  0.28299687753E+02 -0.49091076980E+03  0.49292160523E+03  0.00000000000E+00 0.  1.
<mgrwt>
<rscale>  1 0.30000000E+03</rscale>
<asrwt>0</asrwt>
<pdfrwt beam="1">  1        3 0.72111353E-02 0.30000000E+03</pdfrwt>
<pdfrwt beam="2">0</pdfrwt>
<totfact> 0.55891218E+02</totfact>
</mgrwt>
</event>
<event>
 6    1  0.1956957E-002  0.3000000E+03  0.7818608E-02  0.1093470E+00
          1   -1    0    0  502    0  0.00000000000E+00  0.00000000000E+00  0.12956909434E+01  0.12956909434E+01  0.00000000000E+00 0.  1.
         13   -1    0    0    0    0 -0.00000000000E+00 -0.00000000000E+00 -0.10000000000E+04  0.10000000000E+04  0.00000000000E+00 0.  1.
    9000005    2    1    2  501    0  0.63739103543E+01  0.35238699567E+02 -0.54182007038E+03  0.54301019015E+03  0.29470777041E+01 0.  0.
         13    1    3    3    0    0  0.54391688351E+01  0.22824191770E+02 -0.36221715978E+03  0.36297630656E+03  0.00000000000E+00 0.  1.
          1    1    3    3  501    0  0.93474151914E+00  0.12414507797E+02 -0.17960291060E+03  0.18003388359E+03  0.00000000000E+00 0.  1.
         21    1    1    2  502  501 -0.63739103543E+01 -0.35238699567E+02 -0.45688423868E+03  0.45828550079E+03  0.00000000000E+00 0.  1.
<mgrwt>
<rscale>  1 0.30000000E+03</rscale>
<asrwt>0</asrwt>
<pdfrwt beam="1">  1        1 0.47116134E-02 0.30000000E+03</pdfrwt>
<pdfrwt beam="2">0</pdfrwt>
<totfact> 0.21624520E+03</totfact>
</mgrwt>
</event>
<event>
 6    1  0.1956957E-002  0.3000000E+03  0.7818608E-02  0.1093470E+00
          1   -1    0    0  502    0  0.00000000000E+00  0.00000000000E+00  0.47223183902E+01  0.47223183902E+01  0.00000000000E+00 0.  1.
         13   -1    0    0    0    0 -0.00000000000E+00 -0.00000000000E+00 -0.10000000000E+04  0.10000000000E+04  0.00000000000E+00 0.  1.
    9000005    2    1    2  501    0 -0.21496991028E+02  0.24665811892E+02 -0.93935265085E+03  0.93992932521E+03  0.36346713273E+01 0.  0.
         13    1    3    3    0    0 -0.98750510239E+01  0.13798360800E+02 -0.50811451335E+03  0.50839774790E+03  0.00000000000E+00 0.  1.
          3    1    3    3  501    0 -0.11621940004E+02  0.10867451092E+02 -0.43123813750E+03  0.43153157731E+03  0.00000000000E+00 0.  1.
         21    1    1    2  502  501  0.21496991028E+02 -0.24665811892E+02 -0.55925030763E+02  0.64792993181E+02  0.00000000000E+00 0.  1.
<mgrwt>
<rscale>  1 0.30000000E+03</rscale>
<asrwt>0</asrwt>
<pdfrwt beam="1">  1        1 0.17172103E-01 0.30000000E+03</pdfrwt>
<pdfrwt beam="2">0</pdfrwt>
<totfact> 0.36127045E+02</totfact>
</mgrwt>
</event>
<event>
 6    1  0.1956957E-002  0.3000000E+03  0.7818608E-02  0.1093470E+00
          1   -1    0    0  502    0  0.00000000000E+00  0.00000000000E+00  0.15421673783E+01  0.15421673783E+01  0.00000000000E+00 0.  1.
         13   -1    0    0    0    0 -0.00000000000E+00 -0.00000000000E+00 -0.10000000000E+04  0.10000000000E+04  0.00000000000E+00 0.  1.
    9000005    2    1    2  501    0  0.30683417121E+02 -0.68941514305E+01 -0.79866587440E+03  0.79929027497E+03  0.29602922367E+01 0.  0.
         13    1    3    3    0    0  0.42358783478E+01 -0.99858830118E-02 -0.97260471402E+02  0.97352668491E+02  0.00000000000E+00 0.  1.
          3    1    3    3  501    0  0.26447538773E+02 -0.68841655474E+01 -0.70140540299E+03  0.70193760648E+03  0.00000000000E+00 0.  1.
         21    1    1    2  502  501 -0.30683417121E+02  0.68941514305E+01 -0.19979195822E+03  0.20225189241E+03  0.00000000000E+00 0.  1.
<mgrwt>
<rscale>  1 0.30000000E+03</rscale>
<asrwt>0</asrwt>
<pdfrwt beam="1">  1        1 0.56078932E-02 0.30000000E+03</pdfrwt>
<pdfrwt beam="2">0</pdfrwt>
<totfact> 0.16930612E+03</totfact>
</mgrwt>
</event>
<event>
 6    1  0.1956957E-002  0.3000000E+03  0.7818608E-02  0.1093470E+00
          3   -1    0    0  502    0  0.00000000000E+00  0.00000000000E+00  0.16800037006E+01  0.16800037006E+01  0.00000000000E+00 0.  1.
         13   -1    0    0    0    0 -0.00000000000E+00 -0.00000000000E+00 -0.10000000000E+04  0.10000000000E+04  0.00000000000E+00 0.  1.
    9000005    2    1    2  501    0 -0.13533511178E+02  0.26814490096E+02 -0.83959175095E+03  0.84013487478E+03  0.31822581381E+01 0.  0.
         13    1    3    3    0    0 -0.81157380704E+01  0.13846690773E+02 -0.41328494092E+03  0.41359646812E+03  0.00000000000E+00 0.  1.
          1    1    3    3  501    0 -0.54177731075E+01  0.12967799323E+02 -0.42630681003E+03  0.42653840667E+03  0.00000000000E+00 0.  1.
         21    1    1    2  502  501  0.13533511178E+02 -0.26814490096E+02 -0.15872824535E+03  0.16154512892E+03  0.00000000000E+00 0.  1.
<mgrwt>
<rscale>  1 0.30000000E+03</rscale>
<asrwt>0</asrwt>
<pdfrwt beam="1">  1        3 0.61091172E-02 0.30000000E+03</pdfrwt>
<pdfrwt beam="2">0</pdfrwt>
<totfact> 0.72502944E+02</totfact>
</mgrwt>
</event>
<event>
 6    1  0.1956957E-002  0.3000000E+03  0.7818608E-02  0.1093470E+00
          3   -1    0    0  502    0  0.00000000000E+00  0.00000000000E+00  0.28341151565E+01  0.28341151565E+01  0.00000000000E+00 0.  1.
         13   -1    0    0    0    0 -0.00000000000E+00 -0.00000000000E+00 -0.10000000000E+04  0.10000000000E+04  0.00000000000E+00 0.  1.
    9000005    2    1    2  501    0  0.43879236157E+02  0.26886944340E+01 -0.78104666869E+03  0.78228903578E+03  0.31016764851E+01 0.  0.
         13    1    3    3    0    0  0.38524967967E+02  0.19559708488E+01 -0.66720464197E+03  0.66831881108E+03  0.00000000000E+00 0.  1.
          3    1    3    3  501    0  0.53542681893E+01  0.73272358521E+00 -0.11384202671E+03  0.11397022470E+03  0.00000000000E+00 0.  1.
         21    1    1    2  502  501 -0.43879236157E+02 -0.26886944340E+01 -0.21611921616E+03  0.22054507937E+03  0.00000000000E+00 0.  1.
<mgrwt>
<rscale>  1 0.30000000E+03</rscale>
<asrwt>0</asrwt>
<pdfrwt beam="1">  1        3 0.10305895E-01 0.30000000E+03</pdfrwt>
<pdfrwt beam="2">0</pdfrwt>
<totfact> 0.31421192E+02</totfact>
</mgrwt>
</event>
<event>
 6    1  0.1956957E-002  0.3000000E+03  0.7818608E-02  0.1093470E+00
          1   -1    0    0  502    0  0.00000000000E+00  0.00000000000E+00  0.14998283273E+01  0.14998283273E+01  0.00000000000E+00 0.  1.
         13   -1    0    0    0    0 -0.00000000000E+00 -0.00000000000E+00 -0.10000000000E+04  0.10000000000E+04  0.00000000000E+00 0.  1.
    9000005    2    1    2  501    0 -0.17382791370E+02 -0.33843918821E+02 -0.58943266039E+03  0.59066677091E+03  0.29666226468E+01 0.  0.
         13    1    3    3    0    0 -0.14865857721E+02 -0.26802073569E+02 -0.48362029343E+03  0.48459047978E+03  0.00000000000E+00 0.  1.
          3    1    3    3  501    0 -0.25169336491E+01 -0.70418452522E+01 -0.10581236696E+03  0.10607629113E+03  0.00000000000E+00 0.  1.
         21    1    1    2  502  501  0.17382791370E+02  0.33843918821E+02 -0.40906751129E+03  0.41083305742E+03  0.00000000000E+00 0.  1.
<mgrwt>
<rscale>  1 0.30000000E+03</rscale>
<asrwt>0</asrwt>
<pdfrwt beam="1">  1        1 0.54539327E-02 0.30000000E+03</pdfrwt>
<pdfrwt beam="2">0</pdfrwt>
<totfact> 0.17605513E+03</totfact>
</mgrwt>
</event>
<event>
 6    1  0.1956957E-002  0.3000000E+03  0.7818608E-02  0.1093470E+00
          1   -1    0    0  502    0  0.00000000000E+00  0.00000000000E+00  0.16363440168E+01  0.16363440168E+01  0.00000000000E+00 0.  1.
         13   -1    0    0    0    0 -0.00000000000E+00 -0.00000000000E+00 -0.10000000000E+04  0.10000000000E+04  0.00000000000E+00 0.  1.
    9000005    2    1    2  501    0 -0.29800430012E+02  0.16678352854E+02 -0.76693206371E+03  0.76769871347E+03  0.32079958430E+01 0.  0.
         13    1    3    3    0    0 -0.26170041399E+02  0.15755953100E+02 -0.67794020574E+03  0.67862805990E+03  0.00000000000E+00 0.  1.
          3    1    3    3  501    0 -0.36303886129E+01  0.92239975323E+00 -0.88991857969E+02  0.89070653571E+02  0.00000000000E+00 0.  1.
         21    1    1    2  502  501  0.29800430012E+02 -0.16678352854E+02 -0.23143159227E+03  0.23393763055E+03  0.00000000000E+00 0.  1.
<mgrwt>
<rscale>  1 0.30000000E+03</rscale>
<asrwt>0</asrwt>
<pdfrwt beam="1">  1        1 0.59503544E-02 0.30000000E+03</pdfrwt>
<pdfrwt beam="2">0</pdfrwt>
<totfact> 0.15578997E+03</totfact>
</mgrwt>
</event>
<event>
 6    1  0.1956957E-002  0.3000000E+03  0.7818608E-02  0.1093470E+00
          1   -1    0    0  502    0  0.00000000000E+00  0.00000000000E+00  0.21559657049E+01  0.21559657049E+01  0.00000000000E+00 0.  1.
         13   -1    0    0    0    0 -0.00000000000E+00 -0.00000000000E+00 -0.10000000000E+04  0.10000000000E+04  0.00000000000E+00 0.  1.
    9000005    2    1    2  501    0  0.83599194432E+01  0.45175756805E+02 -0.43116279682E+03  0.43361541116E+03  0.31984648963E+01 0.  0.
         13    1    3    3    0    0  0.68403166056E+01  0.41584262515E+02 -0.39721158593E+03  0.39944096538E+03  0.00000000000E+00 0.  1.
          3    1    3    3  501    0  0.15196028376E+01  0.35914942898E+01 -0.33951210880E+02  0.34174445778E+02  0.00000000000E+00 0.  1.
         21    1    1    2  502  501 -0.83599194432E+01 -0.45175756805E+02 -0.56668123748E+03  0.56854055455E+03  0.00000000000E+00 0.  1.
<mgrwt>
<rscale>  1 0.30000000E+03</rscale>
<asrwt>0</asrwt>
<pdfrwt beam="1">  1        1 0.78398918E-02 0.30000000E+03</pdfrwt>
<pdfrwt beam="2">0</pdfrwt>
<totfact> 0.10592531E+03</totfact>
</mgrwt>
</event>
<event>
 6    1  0.1956957E-002  0.3000000E+03  0.7818608E-02  0.1093470E+00
          3   -1    0    0  502    0  0.00000000000E+00  0.00000000000E+00  0.13359876208E+01  0.13359876208E+01  0.00000000000E+00 0.  1.
         13   -1    0    0    0    0 -0.00000000000E+00 -0.00000000000E+00 -0.10000000000E+04  0.10000000000E+04  0.00000000000E+00 0.  1.
    9000005    2    1    2  501    0 -0.30215593435E+02  0.15855553733E+02 -0.32381156994E+03  0.32562140310E+03  0.33143110378E+01 0.  0.
         13    1    3    3    0    0 -0.78856031247E+01  0.58002853711E+01 -0.89981137217E+02  0.90512049485E+02  0.00000000000E+00 0.  1.
          1    1    3    3  501    0 -0.22329990311E+02  0.10055268362E+02 -0.23383043272E+03  0.23510935361E+03  0.00000000000E+00 0.  1.
         21    1    1    2  502  501  0.30215593435E+02 -0.15855553733E+02 -0.67485244244E+03  0.67571458452E+03  0.00000000000E+00 0.  1.
<mgrwt>
<rscale>  1 0.30000000E+03</rscale>
<asrwt>0</asrwt>
<pdfrwt beam="1">  1        3 0.48581470E-02 0.30000000E+03</pdfrwt>
<pdfrwt beam="2">0</pdfrwt>
<totfact> 0.10343342E+03</totfact>
</mgrwt>
</event>
<event>
 6    1  0.1956957E-002  0.3000000E+03  0.7818608E-02  0.1093470E+00
          1   -1    0    0  502    0  0.00000000000E+00  0.00000000000E+00  0.22948270076E+01  0.22948270076E+01  0.00000000000E+00 0.  1.
         13   -1    0    0    0    0 -0.00000000000E+00 -0.00000000000E+00 -0.10000000000E+04  0.10000000000E+04  0.00000000000E+00 0.  1.
    9000005    2    1    2  501    0 -0.41649233445E+02  0.23159496199E+02 -0.54366534058E+03  0.54576093963E+03  0.34611793929E+01 0.  0.
         13    1    3    3    0    0 -0.12425456482E+02  0.87300215238E+01 -0.16993655674E+03  0.17061371152E+03  0.00000000000E+00 0.  1.
          1    1    3    3  501    0 -0.29223776963E+02  0.14429474675E+02 -0.37372878385E+03  0.37514722810E+03  0.00000000000E+00 0.  1.
         21    1    1    2  502  501  0.41649233445E+02 -0.23159496199E+02 -0.45403983241E+03  0.45653388738E+03  0.00000000000E+00 0.  1.
<mgrwt>
<rscale>  1 0.30000000E+03</rscale>
<asrwt>0</asrwt>
<pdfrwt beam="1">  1        1 0.83448431E-02 0.30000000E+03</pdfrwt>
<pdfrwt beam="2">0</pdfrwt>
<totfact> 0.97111557E+02</totfact>
</mgrwt>
</event>
<event>
 6    1  0.1956957E-002  0.3000000E+03  0.7818608E-02  0.1093470E+00
          3   -1    0    0  502    0  0.00000000000E+00  0.00000000000E+00  0.70133303529E+01  0.70133303529E+01  0.00000000000E+00 0.  1.
         13   -1    0    0    0    0 -0.00000000000E+00 -0.00000000000E+00 -0.10000000000E+04  0.10000000000E+04  0.00000000000E+00 0.  1.
    9000005    2    1    2  501    0  0.30760246438E+02  0.12560131257E+02 -0.95865585864E+03  0.95923724593E+03  0.33300180022E+01 0.  0.
         13    1    3    3    0    0  0.12476482154E+02  0.68388856773E+01 -0.39935215153E+03  0.39960552285E+03  0.00000000000E+00 0.  1.
          3    1    3    3  501    0  0.18283764284E+02  0.57212455800E+01 -0.55930370711E+03  0.55963172308E+03  0.00000000000E+00 0.  1.
         21    1    1    2  502  501 -0.30760246438E+02 -0.12560131257E+02 -0.34330811005E+02  0.47776084419E+02  0.00000000000E+00 0.  1.
<mgrwt>
<rscale>  1 0.30000000E+03</rscale>
<asrwt>0</asrwt>
<pdfrwt beam="1">  1        3 0.25503073E-01 0.30000000E+03</pdfrwt>
<pdfrwt beam="2">0</pdfrwt>
<totfact> 0.63576031E+01</totfact>
</mgrwt>
</event>
<event>
 6    1  0.1956957E-002  0.3000000E+03  0.7818608E-02  0.1093470E+00
          1   -1    0    0  502    0  0.00000000000E+00  0.00000000000E+00  0.10337633676E+01  0.10337633676E+01  0.00000000000E+00 0.  1.
         13   -1    0    0    0    0 -0.00000000000E+00 -0.00000000000E+00 -0.10000000000E+04  0.10000000000E+04  0.00000000000E+00 0.  1.
    9000005    2    1    2  501    0  0.23815137597E+02  0.21060694029E+02 -0.43607614243E+03  0.43724659452E+03  0.33865626428E+01 0.  0.
         13    1    3    3    0    0  0.60014880030E+01  0.71999658152E+01 -0.11986024583E+03  0.12022618640E+03  0.00000000000E+00 0.  1.
          3    1    3    3  501    0  0.17813649594E+02  0.13860728214E+02 -0.31621589660E+03  0.31702040812E+03  0.00000000000E+00 0.  1.
         21    1    1    2  502  501 -0.23815137597E+02 -0.21060694029E+02 -0.56289009420E+03  0.56378716885E+03  0.00000000000E+00 0.  1.
<mgrwt>
<rscale>  1 0.30000000E+03</rscale>
<asrwt>0</asrwt>
<pdfrwt beam="1">  1        1 0.37591474E-02 0.30000000E+03</pdfrwt>
<pdfrwt beam="2">0</pdfrwt>
<totfact> 0.29717192E+03</totfact>
</mgrwt>
</event>
<event>
 6    1  0.1956957E-002  0.3000000E+03  0.7818608E-02  0.1093470E+00
          3   -1    0    0  502    0  0.00000000000E+00  0.00000000000E+00  0.20934730911E+01  0.20934730911E+01  0.00000000000E+00 0.  1.
         13   -1    0    0    0    0 -0.00000000000E+00 -0.00000000000E+00 -0.10000000000E+04  0.10000000000E+04  0.00000000000E+00 0.  1.
    9000005    2    1    2  501    0 -0.22773204009E+02 -0.30603679775E+02 -0.77515471036E+03  0.77609883640E+03  0.30618350564E+01 0.  0.
         13    1    3    3    0    0 -0.12674532579E+01 -0.85775067653E+00 -0.38052922531E+02  0.38083685315E+02  0.00000000000E+00 0.  1.
          1    1    3    3  501    0 -0.21505750751E+02 -0.29745929098E+02 -0.73710178783E+03  0.73801515109E+03  0.00000000000E+00 0.  1.
         21    1    1    2  502  501  0.22773204009E+02  0.30603679775E+02 -0.22275181655E+03  0.22599463669E+03  0.00000000000E+00 0.  1.
<mgrwt>
<rscale>  1 0.30000000E+03</rscale>
<asrwt>0</asrwt>
<pdfrwt beam="1">  1        3 0.76126455E-02 0.30000000E+03</pdfrwt>
<pdfrwt beam="2">0</pdfrwt>
<totfact> 0.51289581E+02</totfact>
</mgrwt>
</event>
<event>
 6    1  0.1956957E-002  0.3000000E+03  0.7818608E-02  0.1093470E+00
          1   -1    0    0  502    0  0.00000000000E+00  0.00000000000E+00  0.20285994065E+02  0.20285994065E+02  0.00000000000E+00 0.  1.
         13   -1    0    0    0    0 -0.00000000000E+00 -0.00000000000E+00 -0.10000000000E+04  0.10000000000E+04  0.00000000000E+00 0.  1.
    9000005    2    1    2  501    0  0.92167660554E+02 -0.60305155356E+02 -0.81324583954E+03  0.82067827919E+03  0.35288795552E+01 0.  0.
         13    1    3    3    0    0  0.10229443873E+02 -0.55111583339E+01 -0.82521425595E+02  0.83335467062E+02  0.00000000000E+00 0.  1.
          1    1    3    3  501    0  0.81938216682E+02 -0.54793997022E+02 -0.73072441394E+03  0.73734281213E+03  0.00000000000E+00 0.  1.
         21    1    1    2  502  501 -0.92167660554E+02  0.60305155356E+02 -0.16646816640E+03  0.19960771488E+03  0.00000000000E+00 0.  1.
<mgrwt>
<rscale>  1 0.30000000E+03</rscale>
<asrwt>0</asrwt>
<pdfrwt beam="1">  1        1 0.73767407E-01 0.30000000E+03</pdfrwt>
<pdfrwt beam="2">0</pdfrwt>
<totfact> 0.52501233E+01</totfact>
</mgrwt>
</event>
<event>
 6    1  0.1956957E-002  0.3000000E+03  0.7818608E-02  0.1093470E+00
          1   -1    0    0  502    0  0.00000000000E+00  0.00000000000E+00  0.40651989598E+01  0.40651989598E+01  0.00000000000E+00 0.  1.
         13   -1    0    0    0    0 -0.00000000000E+00 -0.00000000000E+00 -0.10000000000E+04  0.10000000000E+04  0.00000000000E+00 0.  1.
    9000005    2    1    2  501    0 -0.17689413710E+02 -0.32949384387E+02 -0.90449129543E+03  0.90526999661E+03  0.32689396480E+01 0.  0.
         13    1    3    3    0    0 -0.15680208871E+02 -0.27338233569E+02 -0.74019251483E+03  0.74086314996E+03  0.00000000000E+00 0.  1.
          1    1    3    3  501    0 -0.20092048395E+01 -0.56111508180E+01 -0.16429878060E+03  0.16440684664E+03  0.00000000000E+00 0.  1.
         21    1    1    2  502  501  0.17689413710E+02  0.32949384387E+02 -0.91443505612E+02  0.98795202351E+02  0.00000000000E+00 0.  1.
<mgrwt>
<rscale>  1 0.30000000E+03</rscale>
<asrwt>0</asrwt>
<pdfrwt beam="1">  1        1 0.14782573E-01 0.30000000E+03</pdfrwt>
<pdfrwt beam="2">0</pdfrwt>
<totfact> 0.44249191E+02</totfact>
</mgrwt>
</event>
<event>
 6    1  0.1956957E-002  0.3000000E+03  0.7818608E-02  0.1093470E+00
          1   -1    0    0  502    0  0.00000000000E+00  0.00000000000E+00  0.26187716940E+01  0.26187716940E+01  0.00000000000E+00 0.  1.
         13   -1    0    0    0    0 -0.00000000000E+00 -0.00000000000E+00 -0.10000000000E+04  0.10000000000E+04  0.00000000000E+00 0.  1.
    9000005    2    1    2  501    0 -0.36082871573E+02  0.59408633787E+01 -0.84835969888E+03  0.84917600154E+03  0.69595572342E+01 0.  0.
         13    1    3    3    0    0 -0.33849716526E+02  0.56294231999E+01 -0.82338644660E+03  0.82410116743E+03  0.00000000000E+00 0.  1.
          3    1    3    3  501    0 -0.22331550471E+01  0.31144017872E+00 -0.24973252281E+02  0.25074834116E+02  0.00000000000E+00 0.  1.
         21    1    1    2  502  501  0.36082871573E+02 -0.59408633787E+01 -0.14902152943E+03  0.15344277015E+03  0.00000000000E+00 0.  1.
<mgrwt>
<rscale>  1 0.30000000E+03</rscale>
<asrwt>0</asrwt>
<pdfrwt beam="1">  1        1 0.95228262E-02 0.30000000E+03</pdfrwt>
<pdfrwt beam="2">0</pdfrwt>
<totfact> 0.80857976E+02</totfact>
</mgrwt>
</event>
<event>
 6    1  0.1956957E-002  0.3000000E+03  0.7818608E-02  0.1093470E+00
          3   -1    0    0  502    0  0.00000000000E+00  0.00000000000E+00  0.21853158781E+01  0.21853158781E+01  0.00000000000E+00 0.  1.
         13   -1    0    0    0    0 -0.00000000000E+00 -0.00000000000E+00 -0.10000000000E+04  0.10000000000E+04  0.00000000000E+00 0.  1.
    9000005    2    1    2  501    0  0.18370979601E+02  0.29901410165E+02 -0.82971069086E+03  0.83045721750E+03  0.27878938724E+01 0.  0.
         13    1    3    3    0    0  0.14840296470E+02  0.26002180920E+02 -0.71075469649E+03  0.71138497763E+03  0.00000000000E+00 0.  1.
          1    1    3    3  501    0  0.35306831311E+01  0.38992292451E+01 -0.11895599436E+03  0.11907223987E+03  0.00000000000E+00 0.  1.
         21    1    1    2  502  501 -0.18370979601E+02 -0.29901410165E+02 -0.16810399326E+03  0.17172809838E+03  0.00000000000E+00 0.  1.
<mgrwt>
<rscale>  1 0.30000000E+03</rscale>
<asrwt>0</asrwt>
<pdfrwt beam="1">  1        3 0.79466200E-02 0.30000000E+03</pdfrwt>
<pdfrwt beam="2">0</pdfrwt>
<totfact> 0.47900195E+02</totfact>
</mgrwt>
</event>
<event>
 6    1  0.1956957E-002  0.3000000E+03  0.7818608E-02  0.1093470E+00
          1   -1    0    0  502    0  0.00000000000E+00  0.00000000000E+00  0.23198795113E+01  0.23198795113E+01  0.00000000000E+00 0.  1.
         13   -1    0    0    0    0 -0.00000000000E+00 -0.00000000000E+00 -0.10000000000E+04  0.10000000000E+04  0.00000000000E+00 0.  1.
    9000005    2    1    2  501    0 -0.43344461622E+02 -0.13174512706E+02 -0.66752455917E+03  0.66907071626E+03  0.37783756501E+01 0.  0.
         13    1    3    3    0    0 -0.74565862565E+01 -0.14565493700E+01 -0.13028342935E+03  0.13050476688E+03  0.00000000000E+00 0.  1.
          3    1    3    3  501    0 -0.35887875366E+02 -0.11717963336E+02 -0.53724112982E+03  0.53856594939E+03  0.00000000000E+00 0.  1.
         21    1    1    2  502  501  0.43344461622E+02  0.13174512706E+02 -0.33015556131E+03  0.33324916325E+03  0.00000000000E+00 0.  1.
<mgrwt>
<rscale>  1 0.30000000E+03</rscale>
<asrwt>0</asrwt>
<pdfrwt beam="1">  1        1 0.84359433E-02 0.30000000E+03</pdfrwt>
<pdfrwt beam="2">0</pdfrwt>
<totfact> 0.95656979E+02</totfact>
</mgrwt>
</event>
<event>
 6    1  0.1956957E-002  0.3000000E+03  0.7818608E-02  0.1093470E+00
          3   -1    0    0  502    0  0.00000000000E+00  0.00000000000E+00  0.14506310434E+01  0.14506310434E+01  0.00000000000E+00 0.  1.
         13   -1    0    0    0    0 -0.00000000000E+00 -0.00000000000E+00 -0.10000000000E+04  0.10000000000E+04  0.00000000000E+00 0.  1.
    9000005    2    1    2  501    0 -0.29006497974E+01 -0.32802786931E+02 -0.74989330819E+03  0.75062345318E+03  0.33403882945E+01 0.  0.
         13    1    3    3    0    0 -0.14301744698E+01 -0.24561749798E+02 -0.52970135632E+03  0.53027243172E+03  0.00000000000E+00 0.  1.
          3    1    3    3  501    0 -0.14704753276E+01 -0.82410371332E+01 -0.22019195187E+03  0.22035102146E+03  0.00000000000E+00 0.  1.
         21    1    1    2  502  501  0.29006497974E+01  0.32802786931E+02 -0.24865606077E+03  0.25082717787E+03  0.00000000000E+00 0.  1.
<mgrwt>
<rscale>  1 0.30000000E+03</rscale>
<asrwt>0</asrwt>
<pdfrwt beam="1">  1        3 0.52750331E-02 0.30000000E+03</pdfrwt>
<pdfrwt beam="2">0</pdfrwt>
<totfact> 0.91083906E+02</totfact>
</mgrwt>
</event>
<event>
 6    1  0.1956957E-002  0.3000000E+03  0.7818608E-02  0.1093470E+00
          3   -1    0    0  502    0  0.00000000000E+00  0.00000000000E+00  0.21391819321E+01  0.21391819321E+01  0.00000000000E+00 0.  1.
         13   -1    0    0    0    0 -0.00000000000E+00 -0.00000000000E+00 -0.10000000000E+04  0.10000000000E+04  0.00000000000E+00 0.  1.
    9000005    2    1    2  501    0 -0.43180952498E+02  0.73549636176E+01 -0.64526505973E+03  0.64683303373E+03  0.10357899133E+02 0.  0.
         13    1    3    3    0    0 -0.28627568665E+02  0.97874139718E+01 -0.43588890639E+03  0.43693760410E+03  0.00000000000E+00 0.  1.
          1    1    3    3  501    0 -0.14553383833E+02 -0.24324503542E+01 -0.20937615333E+03  0.20989542963E+03  0.00000000000E+00 0.  1.
         21    1    1    2  502  501  0.43180952498E+02 -0.73549636176E+01 -0.35259575834E+03  0.35530614820E+03  0.00000000000E+00 0.  1.
<mgrwt>
<rscale>  1 0.30000000E+03</rscale>
<asrwt>0</asrwt>
<pdfrwt beam="1">  1        3 0.77788598E-02 0.30000000E+03</pdfrwt>
<pdfrwt beam="2">0</pdfrwt>
<totfact> 0.49557058E+02</totfact>
</mgrwt>
</event>
<event>
 6    1  0.1956957E-002  0.3000000E+03  0.7818608E-02  0.1093470E+00
          3   -1    0    0  502    0  0.00000000000E+00  0.00000000000E+00  0.10356513607E+01  0.10356513607E+01  0.00000000000E+00 0.  1.
         13   -1    0    0    0    0 -0.00000000000E+00 -0.00000000000E+00 -0.10000000000E+04  0.10000000000E+04  0.00000000000E+00 0.  1.
    9000005    2    1    2  501    0 -0.31150917334E+02  0.76110365591E+01 -0.49880935187E+03  0.49985372000E+03  0.38294069385E+01 0.  0.
         13    1    3    3    0    0 -0.24476305061E+02  0.49514343851E+01 -0.40544509176E+03  0.40621340283E+03  0.00000000000E+00 0.  1.
          3    1    3    3  501    0 -0.66746122731E+01  0.26596021740E+01 -0.93364260113E+02  0.93640317167E+02  0.00000000000E+00 0.  1.
         21    1    1    2  502  501  0.31150917334E+02 -0.76110365591E+01 -0.50015499677E+03  0.50118193136E+03  0.00000000000E+00 0.  1.
<mgrwt>
<rscale>  1 0.30000000E+03</rscale>
<asrwt>0</asrwt>
<pdfrwt beam="1">  1        3 0.37660129E-02 0.30000000E+03</pdfrwt>
<pdfrwt beam="2">0</pdfrwt>
<totfact> 0.15307171E+03</totfact>
</mgrwt>
</event>
<event>
 6    1  0.1956957E-002  0.3000000E+03  0.7818608E-02  0.1093470E+00
          1   -1    0    0  502    0  0.00000000000E+00  0.00000000000E+00  0.17494153584E+01  0.17494153584E+01  0.00000000000E+00 0.  1.
         13   -1    0    0    0    0 -0.00000000000E+00 -0.00000000000E+00 -0.10000000000E+04  0.10000000000E+04  0.00000000000E+00 0.  1.
    9000005    2    1    2  501    0 -0.33605895023E+02 -0.24728128891E+02 -0.51967895227E+03  0.52136244234E+03  0.34272886510E+01 0.  0.
         13    1    3    3    0    0 -0.19292561811E+02 -0.12670234288E+02 -0.27218769772E+03  0.27316456683E+03  0.00000000000E+00 0.  1.
          1    1    3    3  501    0 -0.14313333212E+02 -0.12057894603E+02 -0.24749125455E+03  0.24819787551E+03  0.00000000000E+00 0.  1.
         21    1    1    2  502  501  0.33605895023E+02  0.24728128891E+02 -0.47857163237E+03  0.48038697302E+03  0.00000000000E+00 0.  1.
<mgrwt>
<rscale>  1 0.30000000E+03</rscale>
<asrwt>0</asrwt>
<pdfrwt beam="1">  1        1 0.63615238E-02 0.30000000E+03</pdfrwt>
<pdfrwt beam="2">0</pdfrwt>
<totfact> 0.14185693E+03</totfact>
</mgrwt>
</event>
<event>
 6    1  0.1956957E-002  0.3000000E+03  0.7818608E-02  0.1093470E+00
          3   -1    0    0  502    0  0.00000000000E+00  0.00000000000E+00  0.12869284857E+02  0.12869284857E+02  0.00000000000E+00 0.  1.
         13   -1    0    0    0    0 -0.00000000000E+00 -0.00000000000E+00 -0.10000000000E+04  0.10000000000E+04  0.00000000000E+00 0.  1.
    9000005    2    1    2  501    0  0.76915018337E+02 -0.72975680030E+02 -0.67324680122E+03  0.68156205381E+03  0.49201548927E+01 0.  0.
         13    1    3    3    0    0  0.53958256479E+02 -0.53918674144E+02 -0.49026856675E+03  0.49616729478E+03  0.00000000000E+00 0.  1.
          1    1    3    3  501    0  0.22956761858E+02 -0.19057005887E+02 -0.18297823447E+03  0.18539475903E+03  0.00000000000E+00 0.  1.
         21    1    1    2  502  501 -0.76915018337E+02  0.72975680030E+02 -0.31388391393E+03  0.33130723105E+03  0.00000000000E+00 0.  1.
<mgrwt>
<rscale>  1 0.30000000E+03</rscale>
<asrwt>0</asrwt>
<pdfrwt beam="1">  1        3 0.46797498E-01 0.30000000E+03</pdfrwt>
<pdfrwt beam="2">0</pdfrwt>
<totfact> 0.19857647E+01</totfact>
</mgrwt>
</event>
<event>
 6    1  0.1956957E-002  0.3000000E+03  0.7818608E-02  0.1093470E+00
          1   -1    0    0  502    0  0.00000000000E+00  0.00000000000E+00  0.14784652363E+01  0.14784652363E+01  0.00000000000E+00 0.  1.
         13   -1    0    0    0    0 -0.00000000000E+00 -0.00000000000E+00 -0.10000000000E+04  0.10000000000E+04  0.00000000000E+00 0.  1.
    9000005    2    1    2  501    0 -0.18442632627E+02  0.23846788837E+02 -0.80993771910E+03  0.81050031055E+03  0.16865792344E+01 0.  0.
         13    1    3    3    0    0 -0.72442207253E+01  0.10138794918E+02 -0.31642574165E+03  0.31667100258E+03  0.00000000000E+00 0.  1.
          1    1    3    3  501    0 -0.11198411901E+02  0.13707993918E+02 -0.49351197744E+03  0.49382930797E+03  0.00000000000E+00 0.  1.
         21    1    1    2  502  501  0.18442632627E+02 -0.23846788837E+02 -0.18858381567E+03  0.19097815469E+03  0.00000000000E+00 0.  1.
<mgrwt>
<rscale>  1 0.30000000E+03</rscale>
<asrwt>0</asrwt>
<pdfrwt beam="1">  1        1 0.53762486E-02 0.30000000E+03</pdfrwt>
<pdfrwt beam="2">0</pdfrwt>
<totfact> 0.17963822E+03</totfact>
</mgrwt>
</event>
<event>
 6    1  0.1956957E-002  0.3000000E+03  0.7818608E-02  0.1093470E+00
          3   -1    0    0  502    0  0.00000000000E+00  0.00000000000E+00  0.30982803343E+01  0.30982803343E+01  0.00000000000E+00 0.  1.
         13   -1    0    0    0    0 -0.00000000000E+00 -0.00000000000E+00 -0.10000000000E+04  0.10000000000E+04  0.00000000000E+00 0.  1.
    9000005    2    1    2  501    0  0.31945905574E+02 -0.85983297719E+01 -0.90169902094E+03  0.90231124743E+03  0.31608083564E+01 0.  0.
         13    1    3    3    0    0  0.24377062552E+02 -0.79276071017E+01 -0.69876408592E+03  0.69923410665E+03  0.00000000000E+00 0.  1.
          1    1    3    3  501    0  0.75688430216E+01 -0.67072267027E+00 -0.20293493502E+03  0.20307714078E+03  0.00000000000E+00 0.  1.
         21    1    1    2  502  501 -0.31945905574E+02  0.85983297719E+01 -0.95202698724E+02  0.10078703291E+03  0.00000000000E+00 0.  1.
<mgrwt>
<rscale>  1 0.30000000E+03</rscale>
<asrwt>0</asrwt>
<pdfrwt beam="1">  1        3 0.11266498E-01 0.30000000E+03</pdfrwt>
<pdfrwt beam="2">0</pdfrwt>
<totfact> 0.27086409E+02</totfact>
</mgrwt>
</event>
<event>
 6    1  0.1956957E-002  0.3000000E+03  0.7818608E-02  0.1093470E+00
          1   -1    0    0  502    0  0.00000000000E+00  0.00000000000E+00  0.23006799487E+01  0.23006799487E+01  0.00000000000E+00 0.  1.
         13   -1    0    0    0    0 -0.00000000000E+00 -0.00000000000E+00 -0.10000000000E+04  0.10000000000E+04  0.00000000000E+00 0.  1.
    9000005    2    1    2  501    0  0.14040760775E+02  0.32672967246E+02 -0.83433100060E+03  0.83510656057E+03  0.54848159923E+01 0.  0.
         13    1    3    3    0    0 -0.97618238515E-01  0.36521317377E+00 -0.30489578710E+02  0.30491922207E+02  0.00000000000E+00 0.  1.
          3    1    3    3  501    0  0.14138379014E+02  0.32307754072E+02 -0.80384142189E+03  0.80461463837E+03  0.00000000000E+00 0.  1.
         21    1    1    2  502  501 -0.14040760775E+02 -0.32672967246E+02 -0.16336831945E+03  0.16719411937E+03  0.00000000000E+00 0.  1.
<mgrwt>
<rscale>  1 0.30000000E+03</rscale>
<asrwt>0</asrwt>
<pdfrwt beam="1">  1        1 0.83661265E-02 0.30000000E+03</pdfrwt>
<pdfrwt beam="2">0</pdfrwt>
<totfact> 0.96768288E+02</totfact>
</mgrwt>
</event>
<event>
 6    1  0.1956957E-002  0.3000000E+03  0.7818608E-02  0.1093470E+00
          3   -1    0    0  502    0  0.00000000000E+00  0.00000000000E+00  0.18386210206E+01  0.18386210206E+01  0.00000000000E+00 0.  1.
         13   -1    0    0    0    0 -0.00000000000E+00 -0.00000000000E+00 -0.10000000000E+04  0.10000000000E+04  0.00000000000E+00 0.  1.
    9000005    2    1    2  501    0  0.60055512431E+01  0.31210460237E+02 -0.83493504323E+03  0.83554672057E+03  0.34112115700E+01 0.  0.
         13    1    3    3    0    0  0.22020994854E+01  0.55537805684E+01 -0.13823072343E+03  0.13835977241E+03  0.00000000000E+00 0.  1.
          1    1    3    3  501    0  0.38034517577E+01  0.25656679669E+02 -0.69670431980E+03  0.69718694816E+03  0.00000000000E+00 0.  1.
         21    1    1    2  502  501 -0.60055512431E+01 -0.31210460237E+02 -0.16322633575E+03  0.16629190045E+03  0.00000000000E+00 0.  1.
<mgrwt>
<rscale>  1 0.30000000E+03</rscale>
<asrwt>0</asrwt>
<pdfrwt beam="1">  1        3 0.66859087E-02 0.30000000E+03</pdfrwt>
<pdfrwt beam="2">0</pdfrwt>
<totfact> 0.62958792E+02</totfact>
</mgrwt>
</event>
<event>
 6    1  0.1956957E-002  0.3000000E+03  0.7818608E-02  0.1093470E+00
          1   -1    0    0  502    0  0.00000000000E+00  0.00000000000E+00  0.19945735562E+01  0.19945735562E+01  0.00000000000E+00 0.  1.
         13   -1    0    0    0    0 -0.00000000000E+00 -0.00000000000E+00 -0.10000000000E+04  0.10000000000E+04  0.00000000000E+00 0.  1.
    9000005    2    1    2  501    0 -0.30652073151E+02 -0.16974569177E+02 -0.80898349366E+03  0.80975259932E+03  0.41585447218E+01 0.  0.
         13    1    3    3    0    0 -0.85934726226E+01 -0.60770800109E+01 -0.27862831774E+03  0.27882703979E+03  0.00000000000E+00 0.  1.
          1    1    3    3  501    0 -0.22058600529E+02 -0.10897489166E+02 -0.53035517593E+03  0.53092555953E+03  0.00000000000E+00 0.  1.
         21    1    1    2  502  501  0.30652073151E+02  0.16974569177E+02 -0.18902193278E+03  0.19224197424E+03  0.00000000000E+00 0.  1.
<mgrwt>
<rscale>  1 0.30000000E+03</rscale>
<asrwt>0</asrwt>
<pdfrwt beam="1">  1        1 0.72530100E-02 0.30000000E+03</pdfrwt>
<pdfrwt beam="2">0</pdfrwt>
<totfact> 0.11807358E+03</totfact>
</mgrwt>
</event>
<event>
 6    1  0.1956957E-002  0.3000000E+03  0.7818608E-02  0.1093470E+00
          1   -1    0    0  502    0  0.00000000000E+00  0.00000000000E+00  0.19855244423E+01  0.19855244423E+01  0.00000000000E+00 0.  1.
         13   -1    0    0    0    0 -0.00000000000E+00 -0.00000000000E+00 -0.10000000000E+04  0.10000000000E+04  0.00000000000E+00 0.  1.
    9000005    2    1    2  501    0  0.25707116762E+02  0.16442428947E+02 -0.86379411423E+03  0.86433991167E+03  0.34643609704E+01 0.  0.
         13    1    3    3    0    0  0.66457847261E+00  0.56697740913E+00 -0.46337902590E+02  0.46346136240E+02  0.00000000000E+00 0.  1.
          3    1    3    3  501    0  0.25042538289E+02  0.15875451538E+02 -0.81745621164E+03  0.81799377543E+03  0.00000000000E+00 0.  1.
         21    1    1    2  502  501 -0.25707116762E+02 -0.16442428947E+02 -0.13422036133E+03  0.13764561278E+03  0.00000000000E+00 0.  1.
<mgrwt>
<rscale>  1 0.30000000E+03</rscale>
<asrwt>0</asrwt>
<pdfrwt beam="1">  1        1 0.72201041E-02 0.30000000E+03</pdfrwt>
<pdfrwt beam="2">0</pdfrwt>
<totfact> 0.11882612E+03</totfact>
</mgrwt>
</event>
<event>
 6    1  0.1956957E-002  0.3000000E+03  0.7818608E-02  0.1093470E+00
          1   -1    0    0  502    0  0.00000000000E+00  0.00000000000E+00  0.32034034761E+01  0.32034034761E+01  0.00000000000E+00 0.  1.
         13   -1    0    0    0    0 -0.00000000000E+00 -0.00000000000E+00 -0.10000000000E+04  0.10000000000E+04  0.00000000000E+00 0.  1.
    9000005    2    1    2  501    0 -0.28572142413E+01  0.32515201586E+02 -0.90795585203E+03  0.90855626992E+03  0.50263679889E+01 0.  0.
         13    1    3    3    0    0 -0.13255553140E+01  0.16976223457E+02 -0.40425820614E+03  0.40461666611E+03  0.00000000000E+00 0.  1.
          3    1    3    3  501    0 -0.15316589274E+01  0.15538978129E+02 -0.50369764589E+03  0.50393960381E+03  0.00000000000E+00 0.  1.
         21    1    1    2  502  501  0.28572142413E+01 -0.32515201586E+02 -0.88840744493E+02  0.94647133551E+02  0.00000000000E+00 0.  1.
<mgrwt>
<rscale>  1 0.30000000E+03</rscale>
<asrwt>0</asrwt>
<pdfrwt beam="1">  1        1 0.11648764E-01 0.30000000E+03</pdfrwt>
<pdfrwt beam="2">0</pdfrwt>
<totfact> 0.61262644E+02</totfact>
</mgrwt>
</event>
<event>
 6    1  0.1956957E-002  0.3000000E+03  0.7818608E-02  0.1093470E+00
          1   -1    0    0  502    0  0.00000000000E+00  0.00000000000E+00  0.93974723713E+00  0.93974723713E+00  0.00000000000E+00 0.  1.
         13   -1    0    0    0    0 -0.00000000000E+00 -0.00000000000E+00 -0.10000000000E+04  0.10000000000E+04  0.00000000000E+00 0.  1.
    9000005    2    1    2  501    0 -0.11866944084E+02 -0.28162204722E+02 -0.49222842075E+03  0.49318740595E+03  0.33264186706E+01 0.  0.
         13    1    3    3    0    0 -0.27951519507E+01 -0.10396122628E+02 -0.16274402262E+03  0.16309969080E+03  0.00000000000E+00 0.  1.
          3    1    3    3  501    0 -0.90717921329E+01 -0.17766082094E+02 -0.32948439813E+03  0.33008771515E+03  0.00000000000E+00 0.  1.
         21    1    1    2  502  501  0.11866944084E+02  0.28162204722E+02 -0.50683183201E+03  0.50775234128E+03  0.00000000000E+00 0.  1.
<mgrwt>
<rscale>  1 0.30000000E+03</rscale>
<asrwt>0</asrwt>
<pdfrwt beam="1">  1        1 0.34172699E-02 0.30000000E+03</pdfrwt>
<pdfrwt beam="2">0</pdfrwt>
<totfact> 0.33982978E+03</totfact>
</mgrwt>
</event>
<event>
 6    1  0.1956957E-002  0.3000000E+03  0.7818608E-02  0.1093470E+00
          3   -1    0    0  502    0  0.00000000000E+00  0.00000000000E+00  0.16120538598E+01  0.16120538598E+01  0.00000000000E+00 0.  1.
         13   -1    0    0    0    0 -0.00000000000E+00 -0.00000000000E+00 -0.10000000000E+04  0.10000000000E+04  0.00000000000E+00 0.  1.
    9000005    2    1    2  501    0 -0.24619309162E+02 -0.31008013898E+02 -0.57753643058E+03  0.57890221785E+03  0.34412026736E+01 0.  0.
         13    1    3    3    0    0 -0.12225486524E+02 -0.13625568987E+02 -0.24756189554E+03  0.24823781093E+03  0.00000000000E+00 0.  1.
          1    1    3    3  501    0 -0.12393822638E+02 -0.17382444910E+02 -0.32997453504E+03  0.33066440692E+03  0.00000000000E+00 0.  1.
         21    1    1    2  502  501  0.24619309162E+02  0.31008013898E+02 -0.42085151556E+03  0.42270983601E+03  0.00000000000E+00 0.  1.
<mgrwt>
<rscale>  1 0.30000000E+03</rscale>
<asrwt>0</asrwt>
<pdfrwt beam="1">  1        3 0.58620264E-02 0.30000000E+03</pdfrwt>
<pdfrwt beam="2">0</pdfrwt>
<totfact> 0.77325034E+02</totfact>
</mgrwt>
</event>
<event>
 6    1  0.1956957E-002  0.3000000E+03  0.7818608E-02  0.1093470E+00
          1   -1    0    0  502    0  0.00000000000E+00  0.00000000000E+00  0.30779866587E+01  0.30779866587E+01  0.00000000000E+00 0.  1.
         13   -1    0    0    0    0 -0.00000000000E+00 -0.00000000000E+00 -0.10000000000E+04  0.10000000000E+04  0.00000000000E+00 0.  1.
    9000005    2    1    2  501    0 -0.37576534395E+02 -0.48849321300E+01 -0.86463916619E+03  0.86547489749E+03  0.31704844229E+01 0.  0.
         13    1    3    3    0    0 -0.23918689178E+02 -0.45228857577E+01 -0.56712324750E+03  0.56764543339E+03  0.00000000000E+00 0.  1.
          1    1    3    3  501    0 -0.13657845217E+02 -0.36204637231E+00 -0.29751591869E+03  0.29782946410E+03  0.00000000000E+00 0.  1.
         21    1    1    2  502  501  0.37576534395E+02  0.48849321300E+01 -0.13228284715E+03  0.13760308917E+03  0.00000000000E+00 0.  1.
<mgrwt>
<rscale>  1 0.30000000E+03</rscale>
<asrwt>0</asrwt>
<pdfrwt beam="1">  1        1 0.11192702E-01 0.30000000E+03</pdfrwt>
<pdfrwt beam="2">0</pdfrwt>
<totfact> 0.64714669E+02</totfact>
</mgrwt>
</event>
<event>
 6    1  0.1956957E-002  0.3000000E+03  0.7818608E-02  0.1093470E+00
          1   -1    0    0  502    0  0.00000000000E+00  0.00000000000E+00  0.47495009861E+01  0.47495009861E+01  0.00000000000E+00 0.  1.
         13   -1    0    0    0    0 -0.00000000000E+00 -0.00000000000E+00 -0.10000000000E+04  0.10000000000E+04  0.00000000000E+00 0.  1.
    9000005    2    1    2  501    0 -0.64164014641E+02 -0.11414463166E+02 -0.66033476389E+03  0.66355181580E+03  0.34206874762E+01 0.  0.
         13    1    3    3    0    0 -0.38161122713E+02 -0.84858851062E+01 -0.39692743838E+03  0.39884793202E+03  0.00000000000E+00 0.  1.
          1    1    3    3  501    0 -0.26002891928E+02 -0.29285780600E+01 -0.26340732551E+03  0.26470388379E+03  0.00000000000E+00 0.  1.
         21    1    1    2  502  501  0.64164014641E+02  0.11414463166E+02 -0.33491573512E+03  0.34119768519E+03  0.00000000000E+00 0.  1.
<mgrwt>
<rscale>  1 0.30000000E+03</rscale>
<asrwt>0</asrwt>
<pdfrwt beam="1">  1        1 0.17270949E-01 0.30000000E+03</pdfrwt>
<pdfrwt beam="2">0</pdfrwt>
<totfact> 0.35848716E+02</totfact>
</mgrwt>
</event>
<event>
 6    1  0.1956957E-002  0.3000000E+03  0.7818608E-02  0.1093470E+00
          1   -1    0    0  502    0  0.00000000000E+00  0.00000000000E+00  0.35653235130E+01  0.35653235130E+01  0.00000000000E+00 0.  1.
         13   -1    0    0    0    0 -0.00000000000E+00 -0.00000000000E+00 -0.10000000000E+04  0.10000000000E+04  0.00000000000E+00 0.  1.
    9000005    2    1    2  501    0 -0.41102762224E+02  0.23543189990E+02 -0.80362910070E+03  0.80502638801E+03  0.20087404165E+01 0.  0.
         13    1    3    3    0    0 -0.38839606132E+02  0.22534512449E+02 -0.76747264726E+03  0.76878513484E+03  0.00000000000E+00 0.  1.
          3    1    3    3  501    0 -0.22631560917E+01  0.10086775412E+01 -0.36156453441E+02  0.36241253170E+02  0.00000000000E+00 0.  1.
         21    1    1    2  502  501  0.41102762224E+02 -0.23543189990E+02 -0.19280557578E+03  0.19853893550E+03  0.00000000000E+00 0.  1.
<mgrwt>
<rscale>  1 0.30000000E+03</rscale>
<asrwt>0</asrwt>
<pdfrwt beam="1">  1        1 0.12964840E-01 0.30000000E+03</pdfrwt>
<pdfrwt beam="2">0</pdfrwt>
<totfact> 0.52909102E+02</totfact>
</mgrwt>
</event>
<event>
 6    1  0.1956957E-002  0.3000000E+03  0.7818608E-02  0.1093470E+00
          1   -1    0    0  502    0  0.00000000000E+00  0.00000000000E+00  0.30275449076E+02  0.30275449076E+02  0.00000000000E+00 0.  1.
         13   -1    0    0    0    0 -0.00000000000E+00 -0.00000000000E+00 -0.10000000000E+04  0.10000000000E+04  0.00000000000E+00 0.  1.
    9000005    2    1    2  501    0 -0.28943324210E+02  0.96244201185E+01 -0.99201995101E+03  0.99249409992E+03  0.32572527428E+01 0.  0.
         13    1    3    3    0    0 -0.70322434255E+01  0.12115519577E+01 -0.26052074115E+03  0.26061845076E+03  0.00000000000E+00 0.  1.
          1    1    3    3  501    0 -0.21911080784E+02  0.84128681608E+01 -0.73149920986E+03  0.73187564917E+03  0.00000000000E+00 0.  1.
         21    1    1    2  502  501  0.28943324210E+02 -0.96244201185E+01  0.22295400087E+02  0.37781349155E+02  0.00000000000E+00 0.  1.
<mgrwt>
<rscale>  1 0.30000000E+03</rscale>
<asrwt>0</asrwt>
<pdfrwt beam="1">  1        1 0.11009277E+00 0.30000000E+03</pdfrwt>
<pdfrwt beam="2">0</pdfrwt>
<totfact> 0.29671848E+01</totfact>
</mgrwt>
</event>
<event>
 6    1  0.1956957E-002  0.3000000E+03  0.7818608E-02  0.1093470E+00
          1   -1    0    0  502    0  0.00000000000E+00  0.00000000000E+00  0.19809529956E+01  0.19809529956E+01  0.00000000000E+00 0.  1.
         13   -1    0    0    0    0 -0.00000000000E+00 -0.00000000000E+00 -0.10000000000E+04  0.10000000000E+04  0.00000000000E+00 0.  1.
    9000005    2    1    2  501    0  0.35756627385E+02 -0.14386193973E+02 -0.74854625639E+03  0.74954844274E+03  0.39838515955E+01 0.  0.
         13    1    3    3    0    0  0.35704243167E+02 -0.14214060976E+02 -0.73737139032E+03  0.73837212825E+03  0.00000000000E+00 0.  1.
          1    1    3    3  501    0  0.52384217845E-01 -0.17213299660E+00 -0.11174866067E+02  0.11176314486E+02  0.00000000000E+00 0.  1.
         21    1    1    2  502  501 -0.35756627385E+02  0.14386193973E+02 -0.24947279061E+03  0.25243251026E+03  0.00000000000E+00 0.  1.
<mgrwt>
<rscale>  1 0.30000000E+03</rscale>
<asrwt>0</asrwt>
<pdfrwt beam="1">  1        1 0.72034806E-02 0.30000000E+03</pdfrwt>
<pdfrwt beam="2">0</pdfrwt>
<totfact> 0.11920945E+03</totfact>
</mgrwt>
</event>
<event>
 6    1  0.1956957E-002  0.3000000E+03  0.7818608E-02  0.1093470E+00
          3   -1    0    0  502    0  0.00000000000E+00  0.00000000000E+00  0.19143054628E+01  0.19143054628E+01  0.00000000000E+00 0.  1.
         13   -1    0    0    0    0 -0.00000000000E+00 -0.00000000000E+00 -0.10000000000E+04  0.10000000000E+04  0.00000000000E+00 0.  1.
    9000005    2    1    2  501    0 -0.22629427376E+02  0.25869332702E+02 -0.19199808185E+03  0.19509428050E+03  0.41474680072E+01 0.  0.
         13    1    3    3    0    0 -0.24003036795E+01  0.50083604617E+01 -0.32296768747E+02  0.32770816343E+02  0.00000000000E+00 0.  1.
          1    1    3    3  501    0 -0.20229123696E+02  0.20860972240E+02 -0.15970131310E+03  0.16232346415E+03  0.00000000000E+00 0.  1.
         21    1    1    2  502  501  0.22629427376E+02 -0.25869332702E+02 -0.80608761269E+03  0.80682002496E+03  0.00000000000E+00 0.  1.
<mgrwt>
<rscale>  1 0.30000000E+03</rscale>
<asrwt>0</asrwt>
<pdfrwt beam="1">  1        3 0.69611255E-02 0.30000000E+03</pdfrwt>
<pdfrwt beam="2">0</pdfrwt>
<totfact> 0.59090763E+02</totfact>
</mgrwt>
</event>
<event>
 6    1  0.1956957E-002  0.3000000E+03  0.7818608E-02  0.1093470E+00
          3   -1    0    0  502    0  0.00000000000E+00  0.00000000000E+00  0.24456547999E+01  0.24456547999E+01  0.00000000000E+00 0.  1.
         13   -1    0    0    0    0 -0.00000000000E+00 -0.00000000000E+00 -0.10000000000E+04  0.10000000000E+04  0.00000000000E+00 0.  1.
    9000005    2    1    2  501    0  0.40179270770E+02 -0.27189235283E+01 -0.20965800746E+03  0.21352081341E+03  0.35904485101E+01 0.  0.
         13    1    3    3    0    0  0.32955490326E+02 -0.95219745262E+00 -0.16808004188E+03  0.17128301580E+03  0.00000000000E+00 0.  1.
          1    1    3    3  501    0  0.72237804443E+01 -0.17667260757E+01 -0.41577965581E+02  0.42237797608E+02  0.00000000000E+00 0.  1.
         21    1    1    2  502  501 -0.40179270770E+02  0.27189235283E+01 -0.78789633774E+03  0.78892484139E+03  0.00000000000E+00 0.  1.
<mgrwt>
<rscale>  1 0.30000000E+03</rscale>
<asrwt>0</asrwt>
<pdfrwt beam="1">  1        3 0.88933089E-02 0.30000000E+03</pdfrwt>
<pdfrwt beam="2">0</pdfrwt>
<totfact> 0.39985167E+02</totfact>
</mgrwt>
</event>
<event>
 6    1  0.1956957E-002  0.3000000E+03  0.7818608E-02  0.1093470E+00
          1   -1    0    0  502    0  0.00000000000E+00  0.00000000000E+00  0.16223990891E+01  0.16223990891E+01  0.00000000000E+00 0.  1.
         13   -1    0    0    0    0 -0.00000000000E+00 -0.00000000000E+00 -0.10000000000E+04  0.10000000000E+04  0.00000000000E+00 0.  1.
    9000005    2    1    2  501    0  0.25899422543E+02  0.18838352754E+02 -0.80255065189E+03  0.80319392940E+03  0.26973587963E+01 0.  0.
         13    1    3    3    0    0  0.10825526017E+02  0.74181561376E+01 -0.29739570590E+03  0.29768511374E+03  0.00000000000E+00 0.  1.
          1    1    3    3  501    0  0.15073896526E+02  0.11420196617E+02 -0.50515494599E+03  0.50550881566E+03  0.00000000000E+00 0.  1.
         21    1    1    2  502  501 -0.25899422543E+02 -0.18838352754E+02 -0.19582694902E+03  0.19842846969E+03  0.00000000000E+00 0.  1.
<mgrwt>
<rscale>  1 0.30000000E+03</rscale>
<asrwt>0</asrwt>
<pdfrwt beam="1">  1        1 0.58996455E-02 0.30000000E+03</pdfrwt>
<pdfrwt beam="2">0</pdfrwt>
<totfact> 0.15767212E+03</totfact>
</mgrwt>
</event>
<event>
 6    1  0.1956957E-002  0.3000000E+03  0.7818608E-02  0.1093470E+00
          1   -1    0    0  502    0  0.00000000000E+00  0.00000000000E+00  0.13110524679E+01  0.13110524679E+01  0.00000000000E+00 0.  1.
         13   -1    0    0    0    0 -0.00000000000E+00 -0.00000000000E+00 -0.10000000000E+04  0.10000000000E+04  0.00000000000E+00 0.  1.
    9000005    2    1    2  501    0  0.23870793298E+02  0.26874764727E+02 -0.53938952034E+03  0.54060720880E+03  0.47991459327E+01 0.  0.
         13    1    3    3    0    0  0.20380454638E+02  0.20073680062E+02 -0.41947322119E+03  0.42044749834E+03  0.00000000000E+00 0.  1.
          3    1    3    3  501    0  0.34903386599E+01  0.68010846647E+01 -0.11991629914E+03  0.12015971046E+03  0.00000000000E+00 0.  1.
         21    1    1    2  502  501 -0.23870793298E+02 -0.26874764727E+02 -0.45929942720E+03  0.46070384367E+03  0.00000000000E+00 0.  1.
<mgrwt>
<rscale>  1 0.30000000E+03</rscale>
<asrwt>0</asrwt>
<pdfrwt beam="1">  1        1 0.47674736E-02 0.30000000E+03</pdfrwt>
<pdfrwt beam="2">0</pdfrwt>
<totfact> 0.21269011E+03</totfact>
</mgrwt>
</event>
<event>
 6    1  0.1956957E-002  0.3000000E+03  0.7818608E-02  0.1093470E+00
          1   -1    0    0  502    0  0.00000000000E+00  0.00000000000E+00  0.17908601915E+01  0.17908601915E+01  0.00000000000E+00 0.  1.
         13   -1    0    0    0    0 -0.00000000000E+00 -0.00000000000E+00 -0.10000000000E+04  0.10000000000E+04  0.00000000000E+00 0.  1.
    9000005    2    1    2  501    0 -0.11862950777E+02  0.37742765621E+02 -0.67546497087E+03  0.67663083106E+03  0.33329742507E+01 0.  0.
         13    1    3    3    0    0 -0.86352963961E+00  0.66546784321E+01 -0.10713425288E+03  0.10734420603E+03  0.00000000000E+00 0.  1.
          1    1    3    3  501    0 -0.10999421137E+02  0.31088087189E+02 -0.56833071799E+03  0.56928662503E+03  0.00000000000E+00 0.  1.
         21    1    1    2  502  501  0.11862950777E+02 -0.37742765621E+02 -0.32274416894E+03  0.32516002913E+03  0.00000000000E+00 0.  1.
<mgrwt>
<rscale>  1 0.30000000E+03</rscale>
<asrwt>0</asrwt>
<pdfrwt beam="1">  1        1 0.65122326E-02 0.30000000E+03</pdfrwt>
<pdfrwt beam="2">0</pdfrwt>
<totfact> 0.13727922E+03</totfact>
</mgrwt>
</event>
<event>
 6    1  0.1956957E-002  0.3000000E+03  0.7818608E-02  0.1093470E+00
          3   -1    0    0  502    0  0.00000000000E+00  0.00000000000E+00  0.96944488545E+00  0.96944488545E+00  0.00000000000E+00 0.  1.
         13   -1    0    0    0    0 -0.00000000000E+00 -0.00000000000E+00 -0.10000000000E+04  0.10000000000E+04  0.00000000000E+00 0.  1.
    9000005    2    1    2  501    0 -0.14229485496E+02 -0.26429672760E+02 -0.62742044915E+03  0.62814900994E+03  0.37084787060E+01 0.  0.
         13    1    3    3    0    0 -0.29724696923E+01 -0.88398877245E+01 -0.20797429987E+03  0.20818330528E+03  0.00000000000E+00 0.  1.
          3    1    3    3  501    0 -0.11257015804E+02 -0.17589785036E+02 -0.41944614929E+03  0.41996570467E+03  0.00000000000E+00 0.  1.
         21    1    1    2  502  501  0.14229485496E+02  0.26429672760E+02 -0.37161010596E+03  0.37282043494E+03  0.00000000000E+00 0.  1.
<mgrwt>
<rscale>  1 0.30000000E+03</rscale>
<asrwt>0</asrwt>
<pdfrwt beam="1">  1        3 0.35252616E-02 0.30000000E+03</pdfrwt>
<pdfrwt beam="2">0</pdfrwt>
<totfact> 0.16948261E+03</totfact>
</mgrwt>
</event>
<event>
 6    1  0.1956957E-002  0.3000000E+03  0.7818608E-02  0.1093470E+00
          1   -1    0    0  502    0  0.00000000000E+00  0.00000000000E+00  0.12601178522E+01  0.12601178522E+01  0.00000000000E+00 0.  1.
         13   -1    0    0    0    0 -0.00000000000E+00 -0.00000000000E+00 -0.10000000000E+04  0.10000000000E+04  0.00000000000E+00 0.  1.
    9000005    2    1    2  501    0 -0.18795129230E+02  0.27664417255E+02 -0.66477276394E+03  0.66562249644E+03  0.34501046899E+01 0.  0.
         13    1    3    3    0    0 -0.12994769680E+02  0.17071966863E+02 -0.40134494060E+03  0.40191799840E+03  0.00000000000E+00 0.  1.
          1    1    3    3  501    0 -0.58003595502E+01  0.10592450393E+02 -0.26342782335E+03  0.26370449804E+03  0.00000000000E+00 0.  1.
         21    1    1    2  502  501  0.18795129230E+02 -0.27664417255E+02 -0.33396711820E+03  0.33563762141E+03  0.00000000000E+00 0.  1.
<mgrwt>
<rscale>  1 0.30000000E+03</rscale>
<asrwt>0</asrwt>
<pdfrwt beam="1">  1        1 0.45822564E-02 0.30000000E+03</pdfrwt>
<pdfrwt beam="2">0</pdfrwt>
<totfact> 0.22488228E+03</totfact>
</mgrwt>
</event>
<event>
 6    1  0.1956957E-002  0.3000000E+03  0.7818608E-02  0.1093470E+00
          1   -1    0    0  502    0  0.00000000000E+00  0.00000000000E+00  0.19739647707E+01  0.19739647707E+01  0.00000000000E+00 0.  1.
         13   -1    0    0    0    0 -0.00000000000E+00 -0.00000000000E+00 -0.10000000000E+04  0.10000000000E+04  0.00000000000E+00 0.  1.
    9000005    2    1    2  501    0 -0.33099642628E+02  0.20751744224E+02 -0.73705089701E+03  0.73809095282E+03  0.28299493412E+01 0.  0.
         13    1    3    3    0    0 -0.14342335670E+02  0.90376202378E+01 -0.34650299464E+03  0.34691743465E+03  0.00000000000E+00 0.  1.
          1    1    3    3  501    0 -0.18757306958E+02  0.11714123986E+02 -0.39054790237E+03  0.39117351817E+03  0.00000000000E+00 0.  1.
         21    1    1    2  502  501  0.33099642628E+02 -0.20751744224E+02 -0.26097513822E+03  0.26388301195E+03  0.00000000000E+00 0.  1.
<mgrwt>
<rscale>  1 0.30000000E+03</rscale>
<asrwt>0</asrwt>
<pdfrwt beam="1">  1        1 0.71780688E-02 0.30000000E+03</pdfrwt>
<pdfrwt beam="2">0</pdfrwt>
<totfact> 0.11979960E+03</totfact>
</mgrwt>
</event>
<event>
 6    1  0.1956957E-002  0.3000000E+03  0.7818608E-02  0.1093470E+00
          1   -1    0    0  502    0  0.00000000000E+00  0.00000000000E+00  0.99459598994E+00  0.99459598994E+00  0.00000000000E+00 0.  1.
         13   -1    0    0    0    0 -0.00000000000E+00 -0.00000000000E+00 -0.10000000000E+04  0.10000000000E+04  0.00000000000E+00 0.  1.
    9000005    2    1    2  501    0 -0.44703283135E+01 -0.30789626254E+02 -0.57340965561E+03  0.57426315119E+03  0.33983457965E+01 0.  0.
         13    1    3    3    0    0 -0.48981411213E+01 -0.29896663828E+02 -0.55225168692E+03  0.55308202647E+03  0.00000000000E+00 0.  1.
          1    1    3    3  501    0  0.42781280781E+00 -0.89296242592E+00 -0.21157968686E+02  0.21181124725E+02  0.00000000000E+00 0.  1.
         21    1    1    2  502  501  0.44703283135E+01  0.30789626254E+02 -0.42559574840E+03  0.42673144480E+03  0.00000000000E+00 0.  1.
<mgrwt>
<rscale>  1 0.30000000E+03</rscale>
<asrwt>0</asrwt>
<pdfrwt beam="1">  1        1 0.36167203E-02 0.30000000E+03</pdfrwt>
<pdfrwt beam="2">0</pdfrwt>
<totfact> 0.31377076E+03</totfact>
</mgrwt>
</event>
<event>
 6    1  0.1956957E-002  0.3000000E+03  0.7818608E-02  0.1093470E+00
          1   -1    0    0  502    0  0.00000000000E+00  0.00000000000E+00  0.16081463541E+01  0.16081463541E+01  0.00000000000E+00 0.  1.
         13   -1    0    0    0    0 -0.00000000000E+00 -0.00000000000E+00 -0.10000000000E+04  0.10000000000E+04  0.00000000000E+00 0.  1.
    9000005    2    1    2  501    0  0.21860922148E+02  0.29732065267E+02 -0.69359312975E+03  0.69458346052E+03  0.35858570745E+01 0.  0.
         13    1    3    3    0    0  0.13383139486E+02  0.17159509283E+02 -0.37729047827E+03  0.37791753357E+03  0.00000000000E+00 0.  1.
          1    1    3    3  501    0  0.84777826629E+01  0.12572555984E+02 -0.31630265148E+03  0.31666592696E+03  0.00000000000E+00 0.  1.
         21    1    1    2  502  501 -0.21860922148E+02 -0.29732065267E+02 -0.30479872389E+03  0.30702468583E+03  0.00000000000E+00 0.  1.
<mgrwt>
<rscale>  1 0.30000000E+03</rscale>
<asrwt>0</asrwt>
<pdfrwt beam="1">  1        1 0.58478173E-02 0.30000000E+03</pdfrwt>
<pdfrwt beam="2">0</pdfrwt>
<totfact> 0.15963672E+03</totfact>
</mgrwt>
</event>
<event>
 6    1  0.1956957E-002  0.3000000E+03  0.7818608E-02  0.1093470E+00
          1   -1    0    0  502    0  0.00000000000E+00  0.00000000000E+00  0.41602120131E+02  0.41602120131E+02  0.00000000000E+00 0.  1.
         13   -1    0    0    0    0 -0.00000000000E+00 -0.00000000000E+00 -0.10000000000E+04  0.10000000000E+04  0.00000000000E+00 0.  1.
    9000005    2    1    2  501    0 -0.15744472577E+03  0.82040860473E+02 -0.73554037155E+03  0.75667228056E+03  0.37091153939E+01 0.  0.
         13    1    3    3    0    0 -0.30015799347E+01  0.11492102859E+01 -0.11976100256E+02  0.12399884828E+02  0.00000000000E+00 0.  1.
          3    1    3    3  501    0 -0.15444314584E+03  0.80891650187E+02 -0.72356427129E+03  0.74427239574E+03  0.00000000000E+00 0.  1.
         21    1    1    2  502  501  0.15744472577E+03 -0.82040860473E+02 -0.22285750832E+03  0.28492983957E+03  0.00000000000E+00 0.  1.
<mgrwt>
<rscale>  1 0.30000000E+03</rscale>
<asrwt>0</asrwt>
<pdfrwt beam="1">  1        1 0.15128076E+00 0.30000000E+03</pdfrwt>
<pdfrwt beam="2">0</pdfrwt>
<totfact> 0.17698038E+01</totfact>
</mgrwt>
</event>
<event>
 6    1  0.1956957E-002  0.3000000E+03  0.7818608E-02  0.1093470E+00
          1   -1    0    0  502    0  0.00000000000E+00  0.00000000000E+00  0.80206008404E+02  0.80206008404E+02  0.00000000000E+00 0.  1.
         13   -1    0    0    0    0 -0.00000000000E+00 -0.00000000000E+00 -0.10000000000E+04  0.10000000000E+04  0.00000000000E+00 0.  1.
    9000005    2    1    2  501    0 -0.16988260088E+02 -0.28040521062E+02 -0.99636556979E+03  0.99691088016E+03  0.34759908724E+01 0.  0.
         13    1    3    3    0    0 -0.66137468147E+01 -0.78497785954E+01 -0.31776153735E+03  0.31792727988E+03  0.00000000000E+00 0.  1.
          3    1    3    3  501    0 -0.10374513273E+02 -0.20190742467E+02 -0.67860403244E+03  0.67898360028E+03  0.00000000000E+00 0.  1.
         21    1    1    2  502  501  0.16988260088E+02  0.28040521062E+02  0.76571578195E+02  0.83295128246E+02  0.00000000000E+00 0.  1.
<mgrwt>
<rscale>  1 0.30000000E+03</rscale>
<asrwt>0</asrwt>
<pdfrwt beam="1">  1        1 0.29165883E+00 0.30000000E+03</pdfrwt>
<pdfrwt beam="2">0</pdfrwt>
<totfact> 0.38052118E+00</totfact>
</mgrwt>
</event>
<event>
 6    1  0.1956957E-002  0.3000000E+03  0.7818608E-02  0.1093470E+00
          1   -1    0    0  502    0  0.00000000000E+00  0.00000000000E+00  0.80609166972E+01  0.80609166972E+01  0.00000000000E+00 0.  1.
         13   -1    0    0    0    0 -0.00000000000E+00 -0.00000000000E+00 -0.10000000000E+04  0.10000000000E+04  0.00000000000E+00 0.  1.
    9000005    2    1    2  501    0 -0.43647746845E+02  0.14918632034E+02 -0.92836274922E+03  0.92951385028E+03  0.33033843862E+01 0.  0.
         13    1    3    3    0    0 -0.32625094260E+02  0.97958484123E+01 -0.67020778276E+03  0.67107289283E+03  0.00000000000E+00 0.  1.
          3    1    3    3  501    0 -0.11022652585E+02  0.51227836218E+01 -0.25815496646E+03  0.25844095745E+03  0.00000000000E+00 0.  1.
         21    1    1    2  502  501  0.43647746845E+02 -0.14918632034E+02 -0.63576334086E+02  0.78547066414E+02  0.00000000000E+00 0.  1.
<mgrwt>
<rscale>  1 0.30000000E+03</rscale>
<asrwt>0</asrwt>
<pdfrwt beam="1">  1        1 0.29312486E-01 0.30000000E+03</pdfrwt>
<pdfrwt beam="2">0</pdfrwt>
<totfact> 0.17753545E+02</totfact>
</mgrwt>
</event>
<event>
 6    1  0.1956957E-002  0.3000000E+03  0.7818608E-02  0.1093470E+00
          3   -1    0    0  502    0  0.00000000000E+00  0.00000000000E+00  0.25465526251E+01  0.25465526251E+01  0.00000000000E+00 0.  1.
         13   -1    0    0    0    0 -0.00000000000E+00 -0.00000000000E+00 -0.10000000000E+04  0.10000000000E+04  0.00000000000E+00 0.  1.
    9000005    2    1    2  501    0 -0.30922574780E+02  0.13868637842E+02 -0.86954987779E+03  0.87022925270E+03  0.57807910868E+01 0.  0.
         13    1    3    3    0    0 -0.13204839621E+01  0.21661911429E+01 -0.70310742123E+02  0.70356495933E+02  0.00000000000E+00 0.  1.
          1    1    3    3  501    0 -0.29602090818E+02  0.11702446699E+02 -0.79923913567E+03  0.79987275677E+03  0.00000000000E+00 0.  1.
         21    1    1    2  502  501  0.30922574780E+02 -0.13868637842E+02 -0.12790356959E+03  0.13231729992E+03  0.00000000000E+00 0.  1.
<mgrwt>
<rscale>  1 0.30000000E+03</rscale>
<asrwt>0</asrwt>
<pdfrwt beam="1">  1        3 0.92602109E-02 0.30000000E+03</pdfrwt>
<pdfrwt beam="2">0</pdfrwt>
<totfact> 0.37449585E+02</totfact>
</mgrwt>
</event>
<event>
 6    1  0.1956957E-002  0.3000000E+03  0.7818608E-02  0.1093470E+00
          3   -1    0    0  502    0  0.00000000000E+00  0.00000000000E+00  0.14173270649E+01  0.14173270649E+01  0.00000000000E+00 0.  1.
         13   -1    0    0    0    0 -0.00000000000E+00 -0.00000000000E+00 -0.10000000000E+04  0.10000000000E+04  0.00000000000E+00 0.  1.
    9000005    2    1    2  501    0  0.35263724908E+02 -0.11863574323E+02 -0.56955704702E+03  0.57078144562E+03  0.34574805236E+01 0.  0.
         13    1    3    3    0    0  0.33727056785E+02 -0.12047931805E+02 -0.54421668356E+03  0.54539386290E+03  0.00000000000E+00 0.  1.
          1    1    3    3  501    0  0.15366681229E+01  0.18435748194E+00 -0.25340363452E+02  0.25387582722E+02  0.00000000000E+00 0.  1.
         21    1    1    2  502  501 -0.35263724908E+02  0.11863574323E+02 -0.42902562592E+03  0.43063588144E+03  0.00000000000E+00 0.  1.
<mgrwt>
<rscale>  1 0.30000000E+03</rscale>
<asrwt>0</asrwt>
<pdfrwt beam="1">  1        3 0.51539275E-02 0.30000000E+03</pdfrwt>
<pdfrwt beam="2">0</pdfrwt>
<totfact> 0.94413358E+02</totfact>
</mgrwt>
</event>
<event>
 6    1  0.1956957E-002  0.3000000E+03  0.7818608E-02  0.1093470E+00
          1   -1    0    0  502    0  0.00000000000E+00  0.00000000000E+00  0.17372858825E+01  0.17372858825E+01  0.00000000000E+00 0.  1.
         13   -1    0    0    0    0 -0.00000000000E+00 -0.00000000000E+00 -0.10000000000E+04  0.10000000000E+04  0.00000000000E+00 0.  1.
    9000005    2    1    2  501    0 -0.18958872576E+02  0.34692970007E+02 -0.65632873989E+03  0.65752531086E+03  0.30130714908E+01 0.  0.
         13    1    3    3    0    0 -0.14748333871E+01  0.13600054194E+01 -0.31303872987E+02  0.31368092264E+02  0.00000000000E+00 0.  1.
          1    1    3    3  501    0 -0.17484039189E+02  0.33332964587E+02 -0.62502486690E+03  0.62615721859E+03  0.00000000000E+00 0.  1.
         21    1    1    2  502  501  0.18958872576E+02 -0.34692970007E+02 -0.34193397423E+03  0.34421197503E+03  0.00000000000E+00 0.  1.
<mgrwt>
<rscale>  1 0.30000000E+03</rscale>
<asrwt>0</asrwt>
<pdfrwt beam="1">  1        1 0.63174165E-02 0.30000000E+03</pdfrwt>
<pdfrwt beam="2">0</pdfrwt>
<totfact> 0.14324683E+03</totfact>
</mgrwt>
</event>
<event>
 6    1  0.1956957E-002  0.3000000E+03  0.7818608E-02  0.1093470E+00
          1   -1    0    0  502    0  0.00000000000E+00  0.00000000000E+00  0.22602016176E+01  0.22602016176E+01  0.00000000000E+00 0.  1.
         13   -1    0    0    0    0 -0.00000000000E+00 -0.00000000000E+00 -0.10000000000E+04  0.10000000000E+04  0.00000000000E+00 0.  1.
    9000005    2    1    2  501    0  0.37357393395E+02 -0.24045037522E+02 -0.67583689961E+03  0.67730602807E+03  0.37685685600E+01 0.  0.
         13    1    3    3    0    0  0.12522348693E+02 -0.90077770215E+01 -0.21066655685E+03  0.21123055517E+03  0.00000000000E+00 0.  1.
          3    1    3    3  501    0  0.24835044702E+02 -0.15037260501E+02 -0.46517034276E+03  0.46607547290E+03  0.00000000000E+00 0.  1.
         21    1    1    2  502  501 -0.37357393395E+02  0.24045037522E+02 -0.32190289877E+03  0.32495417355E+03  0.00000000000E+00 0.  1.
<mgrwt>
<rscale>  1 0.30000000E+03</rscale>
<asrwt>0</asrwt>
<pdfrwt beam="1">  1        1 0.82189323E-02 0.30000000E+03</pdfrwt>
<pdfrwt beam="2">0</pdfrwt>
<totfact> 0.99186526E+02</totfact>
</mgrwt>
</event>
<event>
 6    1  0.1956957E-002  0.3000000E+03  0.7818608E-02  0.1093470E+00
          3   -1    0    0  502    0  0.00000000000E+00  0.00000000000E+00  0.41281515277E+01  0.41281515277E+01  0.00000000000E+00 0.  1.
         13   -1    0    0    0    0 -0.00000000000E+00 -0.00000000000E+00 -0.10000000000E+04  0.10000000000E+04  0.00000000000E+00 0.  1.
    9000005    2    1    2  501    0 -0.18089663147E+02 -0.61607002202E+02 -0.49865934267E+03  0.50278701562E+03  0.33142728831E+01 0.  0.
         13    1    3    3    0    0 -0.13552474259E+02 -0.42937573375E+02 -0.35886402261E+03  0.36167760711E+03  0.00000000000E+00 0.  1.
          1    1    3    3  501    0 -0.45371888875E+01 -0.18669428827E+02 -0.13979532007E+03  0.14110940850E+03  0.00000000000E+00 0.  1.
         21    1    1    2  502  501  0.18089663147E+02  0.61607002202E+02 -0.49721250580E+03  0.50134113591E+03  0.00000000000E+00 0.  1.
<mgrwt>
<rscale>  1 0.30000000E+03</rscale>
<asrwt>0</asrwt>
<pdfrwt beam="1">  1        3 0.15011492E-01 0.30000000E+03</pdfrwt>
<pdfrwt beam="2">0</pdfrwt>
<totfact> 0.16622233E+02</totfact>
</mgrwt>
</event>
<event>
 6    1  0.1956957E-002  0.3000000E+03  0.7818608E-02  0.1093470E+00
          1   -1    0    0  502    0  0.00000000000E+00  0.00000000000E+00  0.68577417605E+01  0.68577417605E+01  0.00000000000E+00 0.  1.
         13   -1    0    0    0    0 -0.00000000000E+00 -0.00000000000E+00 -0.10000000000E+04  0.10000000000E+04  0.00000000000E+00 0.  1.
    9000005    2    1    2  501    0  0.15218791927E+02 -0.58872525838E+02 -0.83821302873E+03  0.84042261301E+03  0.33913119360E+01 0.  0.
         13    1    3    3    0    0  0.89987918253E+01 -0.30909285541E+02 -0.42440205620E+03  0.42562127237E+03  0.00000000000E+00 0.  1.
          3    1    3    3  501    0  0.62200001019E+01 -0.27963240297E+02 -0.41381097253E+03  0.41480134064E+03  0.00000000000E+00 0.  1.
         21    1    1    2  502  501 -0.15218791927E+02  0.58872525838E+02 -0.15492922951E+03  0.16643512875E+03  0.00000000000E+00 0.  1.
<mgrwt>
<rscale>  1 0.30000000E+03</rscale>
<asrwt>0</asrwt>
<pdfrwt beam="1">  1        1 0.24937295E-01 0.30000000E+03</pdfrwt>
<pdfrwt beam="2">0</pdfrwt>
<totfact> 0.21966326E+02</totfact>
</mgrwt>
</event>
<event>
 6    1  0.1956957E-002  0.3000000E+03  0.7818608E-02  0.1093470E+00
          3   -1    0    0  502    0  0.00000000000E+00  0.00000000000E+00  0.26069279560E+01  0.26069279560E+01  0.00000000000E+00 0.  1.
         13   -1    0    0    0    0 -0.00000000000E+00 -0.00000000000E+00 -0.10000000000E+04  0.10000000000E+04  0.00000000000E+00 0.  1.
    9000005    2    1    2  501    0  0.49308106035E+02 -0.12897853962E+02 -0.47418070204E+03  0.47691801987E+03  0.24115417657E+01 0.  0.
         13    1    3    3    0    0  0.41440738095E+01 -0.41573906119E+00 -0.37544904885E+02  0.37775204427E+02  0.00000000000E+00 0.  1.
          3    1    3    3  501    0  0.45164032225E+02 -0.12482114901E+02 -0.43663579716E+03  0.43914281544E+03  0.00000000000E+00 0.  1.
         21    1    1    2  502  501 -0.49308106035E+02  0.12897853962E+02 -0.52321237000E+03  0.52568890808E+03  0.00000000000E+00 0.  1.
<mgrwt>
<rscale>  1 0.30000000E+03</rscale>
<asrwt>0</asrwt>
<pdfrwt beam="1">  1        3 0.94797580E-02 0.30000000E+03</pdfrwt>
<pdfrwt beam="2">0</pdfrwt>
<totfact> 0.36047341E+02</totfact>
</mgrwt>
</event>
<event>
 6    1  0.1956957E-002  0.3000000E+03  0.7818608E-02  0.1093470E+00
          1   -1    0    0  502    0  0.00000000000E+00  0.00000000000E+00  0.12654048443E+01  0.12654048443E+01  0.00000000000E+00 0.  1.
         13   -1    0    0    0    0 -0.00000000000E+00 -0.00000000000E+00 -0.10000000000E+04  0.10000000000E+04  0.00000000000E+00 0.  1.
    9000005    2    1    2  501    0 -0.25810114434E+02 -0.19740116043E+02 -0.30205220185E+03  0.30382566456E+03  0.43206033277E+01 0.  0.
         13    1    3    3    0    0 -0.15920007131E+02 -0.99086627220E+01 -0.16245846778E+03  0.16353709664E+03  0.00000000000E+00 0.  1.
          1    1    3    3  501    0 -0.98901073032E+01 -0.98314533213E+01 -0.13959373407E+03  0.14028856791E+03  0.00000000000E+00 0.  1.
         21    1    1    2  502  501  0.25810114434E+02  0.19740116043E+02 -0.69668239331E+03  0.69743974029E+03  0.00000000000E+00 0.  1.
<mgrwt>
<rscale>  1 0.30000000E+03</rscale>
<asrwt>0</asrwt>
<pdfrwt beam="1">  1        1 0.46014819E-02 0.30000000E+03</pdfrwt>
<pdfrwt beam="2">0</pdfrwt>
<totfact> 0.22356139E+03</totfact>
</mgrwt>
</event>
<event>
 6    1  0.1956957E-002  0.3000000E+03  0.7818608E-02  0.1093470E+00
          1   -1    0    0  502    0  0.00000000000E+00  0.00000000000E+00  0.16259683559E+01  0.16259683559E+01  0.00000000000E+00 0.  1.
         13   -1    0    0    0    0 -0.00000000000E+00 -0.00000000000E+00 -0.10000000000E+04  0.10000000000E+04  0.00000000000E+00 0.  1.
    9000005    2    1    2  501    0 -0.26446244431E+01  0.34620955492E+02 -0.75290187906E+03  0.75371029258E+03  0.35158302218E+01 0.  0.
         13    1    3    3    0    0 -0.56771913283E+00  0.75977215334E+01 -0.19884702598E+03  0.19899293309E+03  0.00000000000E+00 0.  1.
          1    1    3    3  501    0 -0.20769053102E+01  0.27023233959E+02 -0.55405485308E+03  0.55471735950E+03  0.00000000000E+00 0.  1.
         21    1    1    2  502  501  0.26446244431E+01 -0.34620955492E+02 -0.24547215259E+03  0.24791567577E+03  0.00000000000E+00 0.  1.
<mgrwt>
<rscale>  1 0.30000000E+03</rscale>
<asrwt>0</asrwt>
<pdfrwt beam="1">  1        1 0.59126247E-02 0.30000000E+03</pdfrwt>
<pdfrwt beam="2">0</pdfrwt>
<totfact> 0.15718665E+03</totfact>
</mgrwt>
</event>
<event>
 6    1  0.1956957E-002  0.3000000E+03  0.7818608E-02  0.1093470E+00
          3   -1    0    0  502    0  0.00000000000E+00  0.00000000000E+00  0.12117090501E+02  0.12117090501E+02  0.00000000000E+00 0.  1.
         13   -1    0    0    0    0 -0.00000000000E+00 -0.00000000000E+00 -0.10000000000E+04  0.10000000000E+04  0.00000000000E+00 0.  1.
    9000005    2    1    2  501    0 -0.10145756449E+03  0.41899295480E+02 -0.47871486300E+03  0.49125118844E+03  0.10517686581E+02 0.  0.
         13    1    3    3    0    0 -0.58608654706E+02  0.25281704227E+02 -0.30066526726E+03  0.30736581123E+03  0.00000000000E+00 0.  1.
          1    1    3    3  501    0 -0.42848909787E+02  0.16617591253E+02 -0.17804959574E+03  0.18388537721E+03  0.00000000000E+00 0.  1.
         21    1    1    2  502  501  0.10145756449E+03 -0.41899295480E+02 -0.50916804650E+03  0.52086590206E+03  0.00000000000E+00 0.  1.
<mgrwt>
<rscale>  1 0.30000000E+03</rscale>
<asrwt>0</asrwt>
<pdfrwt beam="1">  1        3 0.44062240E-01 0.30000000E+03</pdfrwt>
<pdfrwt beam="2">0</pdfrwt>
<totfact> 0.22316296E+01</totfact>
</mgrwt>
</event>
<event>
 6    1  0.1956957E-002  0.3000000E+03  0.7818608E-02  0.1093470E+00
          1   -1    0    0  502    0  0.00000000000E+00  0.00000000000E+00  0.12875330705E+01  0.12875330705E+01  0.00000000000E+00 0.  1.
         13   -1    0    0    0    0 -0.00000000000E+00 -0.00000000000E+00 -0.10000000000E+04  0.10000000000E+04  0.00000000000E+00 0.  1.
    9000005    2    1    2  501    0 -0.35108403570E+02 -0.14004982984E+01 -0.58523858562E+03  0.58632342387E+03  0.60327346433E+01 0.  0.
         13    1    3    3    0    0 -0.28615779474E+02 -0.63851522268E+00 -0.43336744984E+03  0.43431165897E+03  0.00000000000E+00 0.  1.
          1    1    3    3  501    0 -0.64926240967E+01 -0.76198307571E+00 -0.15187113577E+03  0.15201176490E+03  0.00000000000E+00 0.  1.
         21    1    1    2  502  501  0.35108403570E+02  0.14004982984E+01 -0.41347388131E+03  0.41496410920E+03  0.00000000000E+00 0.  1.
<mgrwt>
<rscale>  1 0.30000000E+03</rscale>
<asrwt>0</asrwt>
<pdfrwt beam="1">  1        1 0.46819483E-02 0.30000000E+03</pdfrwt>
<pdfrwt beam="2">0</pdfrwt>
<totfact> 0.21817495E+03</totfact>
</mgrwt>
</event>
<event>
 6    1  0.1956957E-002  0.3000000E+03  0.7818608E-02  0.1093470E+00
          1   -1    0    0  502    0  0.00000000000E+00  0.00000000000E+00  0.31799263603E+01  0.31799263603E+01  0.00000000000E+00 0.  1.
         13   -1    0    0    0    0 -0.00000000000E+00 -0.00000000000E+00 -0.10000000000E+04  0.10000000000E+04  0.00000000000E+00 0.  1.
    9000005    2    1    2  501    0 -0.17902054738E+02  0.31346181255E+02 -0.88360582666E+03  0.88435008010E+03  0.35694008072E+01 0.  0.
         13    1    3    3    0    0 -0.10319066866E+02  0.20078090086E+02 -0.58541372456E+03  0.58584882158E+03  0.00000000000E+00 0.  1.
          1    1    3    3  501    0 -0.75829878715E+01  0.11268091169E+02 -0.29819210210E+03  0.29850125852E+03  0.00000000000E+00 0.  1.
         21    1    1    2  502  501  0.17902054738E+02 -0.31346181255E+02 -0.11321424698E+03  0.11882984626E+03  0.00000000000E+00 0.  1.
<mgrwt>
<rscale>  1 0.30000000E+03</rscale>
<asrwt>0</asrwt>
<pdfrwt beam="1">  1        1 0.11563393E-01 0.30000000E+03</pdfrwt>
<pdfrwt beam="2">0</pdfrwt>
<totfact> 0.61883996E+02</totfact>
</mgrwt>
</event>
<event>
 6    1  0.1956957E-002  0.3000000E+03  0.7818608E-02  0.1093470E+00
          1   -1    0    0  502    0  0.00000000000E+00  0.00000000000E+00  0.71599075027E+01  0.71599075027E+01  0.00000000000E+00 0.  1.
         13   -1    0    0    0    0 -0.00000000000E+00 -0.00000000000E+00 -0.10000000000E+04  0.10000000000E+04  0.00000000000E+00 0.  1.
    9000005    2    1    2  501    0 -0.28802361269E+02 -0.47440083627E+02 -0.87645478748E+03  0.87821931353E+03  0.40038254123E+01 0.  0.
         13    1    3    3    0    0 -0.15427432454E+02 -0.29197512194E+02 -0.51915461743E+03  0.52020382274E+03  0.00000000000E+00 0.  1.
          1    1    3    3  501    0 -0.13374928814E+02 -0.18242571433E+02 -0.35730017004E+03  0.35801549079E+03  0.00000000000E+00 0.  1.
         21    1    1    2  502  501  0.28802361269E+02  0.47440083627E+02 -0.11638530502E+03  0.12894059397E+03  0.00000000000E+00 0.  1.
<mgrwt>
<rscale>  1 0.30000000E+03</rscale>
<asrwt>0</asrwt>
<pdfrwt beam="1">  1        1 0.26036082E-01 0.30000000E+03</pdfrwt>
<pdfrwt beam="2">0</pdfrwt>
<totfact> 0.20750050E+02</totfact>
</mgrwt>
</event>
<event>
 6    1  0.1956957E-002  0.3000000E+03  0.7818608E-02  0.1093470E+00
          3   -1    0    0  502    0  0.00000000000E+00  0.00000000000E+00  0.25038869129E+01  0.25038869129E+01  0.00000000000E+00 0.  1.
         13   -1    0    0    0    0 -0.00000000000E+00 -0.00000000000E+00 -0.10000000000E+04  0.10000000000E+04  0.00000000000E+00 0.  1.
    9000005    2    1    2  501    0 -0.31538043083E+02 -0.86436603263E+01 -0.87791625831E+03  0.87853331502E+03  0.38036799124E+01 0.  0.
         13    1    3    3    0    0 -0.29850664110E+02 -0.85461747241E+01 -0.80743364986E+03  0.80803044384E+03  0.00000000000E+00 0.  1.
          1    1    3    3  501    0 -0.16873789728E+01 -0.97485602206E-01 -0.70482608453E+02  0.70502871187E+02  0.00000000000E+00 0.  1.
         21    1    1    2  502  501  0.31538043083E+02  0.86436603263E+01 -0.11957985478E+03  0.12397057189E+03  0.00000000000E+00 0.  1.
<mgrwt>
<rscale>  1 0.30000000E+03</rscale>
<asrwt>0</asrwt>
<pdfrwt beam="1">  1        3 0.91050625E-02 0.30000000E+03</pdfrwt>
<pdfrwt beam="2">0</pdfrwt>
<totfact> 0.38490996E+02</totfact>
</mgrwt>
</event>
<event>
 6    1  0.1956957E-002  0.3000000E+03  0.7818608E-02  0.1093470E+00
          3   -1    0    0  502    0  0.00000000000E+00  0.00000000000E+00  0.98179334470E+00  0.98179334470E+00  0.00000000000E+00 0.  1.
         13   -1    0    0    0    0 -0.00000000000E+00 -0.00000000000E+00 -0.10000000000E+04  0.10000000000E+04  0.00000000000E+00 0.  1.
    9000005    2    1    2  501    0  0.17721545939E+02 -0.25462914097E+02 -0.56012834170E+03  0.56099687685E+03  0.33650367036E+01 0.  0.
         13    1    3    3    0    0  0.12204666719E+02 -0.14923619162E+02 -0.33428511294E+03  0.33484056659E+03  0.00000000000E+00 0.  1.
          3    1    3    3  501    0  0.55168792202E+01 -0.10539294935E+02 -0.22584322876E+03  0.22615631026E+03  0.00000000000E+00 0.  1.
         21    1    1    2  502  501 -0.17721545939E+02  0.25462914097E+02 -0.43888986496E+03  0.43998491650E+03  0.00000000000E+00 0.  1.
<mgrwt>
<rscale>  1 0.30000000E+03</rscale>
<asrwt>0</asrwt>
<pdfrwt beam="1">  1        3 0.35701651E-02 0.30000000E+03</pdfrwt>
<pdfrwt beam="2">0</pdfrwt>
<totfact> 0.16620215E+03</totfact>
</mgrwt>
</event>
<event>
 6    1  0.1956957E-002  0.3000000E+03  0.7818608E-02  0.1093470E+00
          1   -1    0    0  502    0  0.00000000000E+00  0.00000000000E+00  0.75848688897E+01  0.75848688897E+01  0.00000000000E+00 0.  1.
         13   -1    0    0    0    0 -0.00000000000E+00 -0.00000000000E+00 -0.10000000000E+04  0.10000000000E+04  0.00000000000E+00 0.  1.
    9000005    2    1    2  501    0 -0.71008196144E+02  0.20320678199E+02 -0.76293487522E+03  0.76651168140E+03  0.39293786725E+01 0.  0.
         13    1    3    3    0    0 -0.30673287087E+01  0.90689032218E+00 -0.42364782357E+02  0.42485359121E+02  0.00000000000E+00 0.  1.
          3    1    3    3  501    0 -0.67940867435E+02  0.19413787876E+02 -0.72057009286E+03  0.72402632228E+03  0.00000000000E+00 0.  1.
         21    1    1    2  502  501  0.71008196144E+02 -0.20320678199E+02 -0.22948025589E+03  0.24107318749E+03  0.00000000000E+00 0.  1.
<mgrwt>
<rscale>  1 0.30000000E+03</rscale>
<asrwt>0</asrwt>
<pdfrwt beam="1">  1        1 0.27581400E-01 0.30000000E+03</pdfrwt>
<pdfrwt beam="2">0</pdfrwt>
<totfact> 0.19231917E+02</totfact>
</mgrwt>
</event>
<event>
 6    1  0.1956957E-002  0.3000000E+03  0.7818608E-02  0.1093470E+00
          3   -1    0    0  502    0  0.00000000000E+00  0.00000000000E+00  0.15461335078E+02  0.15461335078E+02  0.00000000000E+00 0.  1.
         13   -1    0    0    0    0 -0.00000000000E+00 -0.00000000000E+00 -0.10000000000E+04  0.10000000000E+04  0.00000000000E+00 0.  1.
    9000005    2    1    2  501    0 -0.45887914900E+02  0.74468167340E+02 -0.85306717279E+03  0.85755008810E+03  0.41645664965E+01 0.  0.
         13    1    3    3    0    0 -0.39244922357E+02  0.63941029702E+02 -0.71678023053E+03  0.72069585686E+03  0.00000000000E+00 0.  1.
          1    1    3    3  501    0 -0.66429925434E+01  0.10527137638E+02 -0.13628694226E+03  0.13685423124E+03  0.00000000000E+00 0.  1.
         21    1    1    2  502  501  0.45887914900E+02 -0.74468167340E+02 -0.13147149213E+03  0.15791124698E+03  0.00000000000E+00 0.  1.
<mgrwt>
<rscale>  1 0.30000000E+03</rscale>
<asrwt>0</asrwt>
<pdfrwt beam="1">  1        3 0.56223155E-01 0.30000000E+03</pdfrwt>
<pdfrwt beam="2">0</pdfrwt>
<totfact> 0.13865537E+01</totfact>
</mgrwt>
</event>
<event>
 6    1  0.1956957E-002  0.3000000E+03  0.7818608E-02  0.1093470E+00
          1   -1    0    0  502    0  0.00000000000E+00  0.00000000000E+00  0.67044915051E+01  0.67044915051E+01  0.00000000000E+00 0.  1.
         13   -1    0    0    0    0 -0.00000000000E+00 -0.00000000000E+00 -0.10000000000E+04  0.10000000000E+04  0.00000000000E+00 0.  1.
    9000005    2    1    2  501    0 -0.69626181115E+02 -0.40990200510E+01 -0.23328691161E+03  0.24350224151E+03  0.24395550403E+01 0.  0.
         13    1    3    3    0    0 -0.27204841698E+02 -0.23217867012E+01 -0.88012583619E+02  0.92150469237E+02  0.00000000000E+00 0.  1.
          1    1    3    3  501    0 -0.42421339417E+02 -0.17772333498E+01 -0.14527432800E+03  0.15135177227E+03  0.00000000000E+00 0.  1.
         21    1    1    2  502  501  0.69626181115E+02  0.40990200510E+01 -0.76000859688E+03  0.76320224999E+03  0.00000000000E+00 0.  1.
<mgrwt>
<rscale>  1 0.30000000E+03</rscale>
<asrwt>0</asrwt>
<pdfrwt beam="1">  1        1 0.24380021E-01 0.30000000E+03</pdfrwt>
<pdfrwt beam="2">0</pdfrwt>
<totfact> 0.22632363E+02</totfact>
</mgrwt>
</event>
<event>
 6    1  0.1956957E-002  0.3000000E+03  0.7818608E-02  0.1093470E+00
          1   -1    0    0  502    0  0.00000000000E+00  0.00000000000E+00  0.15487566349E+01  0.15487566349E+01  0.00000000000E+00 0.  1.
         13   -1    0    0    0    0 -0.00000000000E+00 -0.00000000000E+00 -0.10000000000E+04  0.10000000000E+04  0.00000000000E+00 0.  1.
    9000005    2    1    2  501    0  0.31282523763E+02  0.21132543613E+02 -0.62308901211E+03  0.62429289472E+03  0.87476110725E+01 0.  0.
         13    1    3    3    0    0  0.30858125464E+02  0.20808626466E+02 -0.62156071984E+03  0.62267403293E+03  0.00000000000E+00 0.  1.
          3    1    3    3  501    0  0.42439829934E+00  0.32391714710E+00 -0.15282922656E+01  0.16188617865E+01  0.00000000000E+00 0.  1.
         21    1    1    2  502  501 -0.31282523763E+02 -0.21132543613E+02 -0.37536223126E+03  0.37725586191E+03  0.00000000000E+00 0.  1.
<mgrwt>
<rscale>  1 0.30000000E+03</rscale>
<asrwt>0</asrwt>
<pdfrwt beam="1">  1        1 0.56318542E-02 0.30000000E+03</pdfrwt>
<pdfrwt beam="2">0</pdfrwt>
<totfact> 0.16829569E+03</totfact>
</mgrwt>
</event>
<event>
 6    1  0.1956957E-002  0.3000000E+03  0.7818608E-02  0.1093470E+00
          1   -1    0    0  502    0  0.00000000000E+00  0.00000000000E+00  0.27899216102E+01  0.27899216102E+01  0.00000000000E+00 0.  1.
         13   -1    0    0    0    0 -0.00000000000E+00 -0.00000000000E+00 -0.10000000000E+04  0.10000000000E+04  0.00000000000E+00 0.  1.
    9000005    2    1    2  501    0  0.13243302942E+02  0.41805003998E+02 -0.77759170076E+03  0.77883618705E+03  0.37295751360E+01 0.  0.
         13    1    3    3    0    0  0.59117966480E+01  0.21257953761E+02 -0.42092822907E+03  0.42150613752E+03  0.00000000000E+00 0.  1.
          1    1    3    3  501    0  0.73315062944E+01  0.20547050236E+02 -0.35666347169E+03  0.35733004953E+03  0.00000000000E+00 0.  1.
         21    1    1    2  502  501 -0.13243302942E+02 -0.41805003998E+02 -0.21961837763E+03  0.22395373456E+03  0.00000000000E+00 0.  1.
<mgrwt>
<rscale>  1 0.30000000E+03</rscale>
<asrwt>0</asrwt>
<pdfrwt beam="1">  1        1 0.10145191E-01 0.30000000E+03</pdfrwt>
<pdfrwt beam="2">0</pdfrwt>
<totfact> 0.74085294E+02</totfact>
</mgrwt>
</event>
<event>
 6    1  0.1956957E-002  0.3000000E+03  0.7818608E-02  0.1093470E+00
          1   -1    0    0  502    0  0.00000000000E+00  0.00000000000E+00  0.91731942521E+00  0.91731942521E+00  0.00000000000E+00 0.  1.
         13   -1    0    0    0    0 -0.00000000000E+00 -0.00000000000E+00 -0.10000000000E+04  0.10000000000E+04  0.00000000000E+00 0.  1.
    9000005    2    1    2  501    0 -0.30118424437E+02 -0.11667455289E+01 -0.47004488024E+03  0.47102159858E+03  0.32674308656E+01 0.  0.
         13    1    3    3    0    0 -0.25271738704E+02 -0.20749407638E+01 -0.40091953935E+03  0.40172060340E+03  0.00000000000E+00 0.  1.
          1    1    3    3  501    0 -0.48466857333E+01  0.90819523493E+00 -0.69125340888E+02  0.69300995188E+02  0.00000000000E+00 0.  1.
         21    1    1    2  502  501  0.30118424437E+02  0.11667455289E+01 -0.52903780033E+03  0.52989572084E+03  0.00000000000E+00 0.  1.
<mgrwt>
<rscale>  1 0.30000000E+03</rscale>
<asrwt>0</asrwt>
<pdfrwt beam="1">  1        1 0.33357140E-02 0.30000000E+03</pdfrwt>
<pdfrwt beam="2">0</pdfrwt>
<totfact> 0.35156862E+03</totfact>
</mgrwt>
</event>
<event>
 6    1  0.1956957E-002  0.3000000E+03  0.7818608E-02  0.1093470E+00
          1   -1    0    0  502    0  0.00000000000E+00  0.00000000000E+00  0.69873370584E+01  0.69873370584E+01  0.00000000000E+00 0.  1.
         13   -1    0    0    0    0 -0.00000000000E+00 -0.00000000000E+00 -0.10000000000E+04  0.10000000000E+04  0.00000000000E+00 0.  1.
    9000005    2    1    2  501    0  0.35090395357E+02 -0.33677775922E+01 -0.95301718059E+03  0.95367395805E+03  0.30974186831E+01 0.  0.
         13    1    3    3    0    0  0.33123893416E+02 -0.37212487449E+01 -0.88516667887E+03  0.88579404457E+03  0.00000000000E+00 0.  1.
          1    1    3    3  501    0  0.19665019409E+01  0.35347115270E+00 -0.67850501712E+02  0.67879913481E+02  0.00000000000E+00 0.  1.
         21    1    1    2  502  501 -0.35090395357E+02  0.33677775922E+01 -0.39995482355E+02  0.53313379006E+02  0.00000000000E+00 0.  1.
<mgrwt>
<rscale>  1 0.30000000E+03</rscale>
<asrwt>0</asrwt>
<pdfrwt beam="1">  1        1 0.25408552E-01 0.30000000E+03</pdfrwt>
<pdfrwt beam="2">0</pdfrwt>
<totfact> 0.21429616E+02</totfact>
</mgrwt>
</event>
<event>
 6    1  0.1956957E-002  0.3000000E+03  0.7818608E-02  0.1093470E+00
          1   -1    0    0  502    0  0.00000000000E+00  0.00000000000E+00  0.86516918549E+01  0.86516918549E+01  0.00000000000E+00 0.  1.
         13   -1    0    0    0    0 -0.00000000000E+00 -0.00000000000E+00 -0.10000000000E+04  0.10000000000E+04  0.00000000000E+00 0.  1.
    9000005    2    1    2  501    0 -0.17365001629E+02 -0.33954177616E+02 -0.95563200242E+03  0.95640148655E+03  0.41048727458E+01 0.  0.
         13    1    3    3    0    0 -0.72715578679E+01 -0.16906066418E+02 -0.41929682008E+03  0.41970050508E+03  0.00000000000E+00 0.  1.
          1    1    3    3  501    0 -0.10093443761E+02 -0.17048111198E+02 -0.53633518234E+03  0.53670098147E+03  0.00000000000E+00 0.  1.
         21    1    1    2  502  501  0.17365001629E+02  0.33954177616E+02 -0.35716305728E+02  0.52250205301E+02  0.00000000000E+00 0.  1.
<mgrwt>
<rscale>  1 0.30000000E+03</rscale>
<asrwt>0</asrwt>
<pdfrwt beam="1">  1        1 0.31460764E-01 0.30000000E+03</pdfrwt>
<pdfrwt beam="2">0</pdfrwt>
<totfact> 0.16180728E+02</totfact>
</mgrwt>
</event>
<event>
 6    1  0.1956957E-002  0.3000000E+03  0.7818608E-02  0.1093470E+00
          3   -1    0    0  502    0  0.00000000000E+00  0.00000000000E+00  0.10697439188E+01  0.10697439188E+01  0.00000000000E+00 0.  1.
         13   -1    0    0    0    0 -0.00000000000E+00 -0.00000000000E+00 -0.10000000000E+04  0.10000000000E+04  0.00000000000E+00 0.  1.
    9000005    2    1    2  501    0  0.23933486077E+02  0.20964366272E+02 -0.61010170008E+03  0.61094160808E+03  0.36397303854E+01 0.  0.
         13    1    3    3    0    0  0.99544146545E+01  0.64172229505E+01 -0.23128674531E+03  0.23158978750E+03  0.00000000000E+00 0.  1.
          3    1    3    3  501    0  0.13979071422E+02  0.14547143321E+02 -0.37881495477E+03  0.37935182057E+03  0.00000000000E+00 0.  1.
         21    1    1    2  502  501 -0.23933486077E+02 -0.20964366272E+02 -0.38882855601E+03  0.39012813584E+03  0.00000000000E+00 0.  1.
<mgrwt>
<rscale>  1 0.30000000E+03</rscale>
<asrwt>0</asrwt>
<pdfrwt beam="1">  1        3 0.38899861E-02 0.30000000E+03</pdfrwt>
<pdfrwt beam="2">0</pdfrwt>
<totfact> 0.14563496E+03</totfact>
</mgrwt>
</event>
<event>
 6    1  0.1956957E-002  0.3000000E+03  0.7818608E-02  0.1093470E+00
          3   -1    0    0  502    0  0.00000000000E+00  0.00000000000E+00  0.10782971589E+01  0.10782971589E+01  0.00000000000E+00 0.  1.
         13   -1    0    0    0    0 -0.00000000000E+00 -0.00000000000E+00 -0.10000000000E+04  0.10000000000E+04  0.00000000000E+00 0.  1.
    9000005    2    1    2  501    0  0.29856865757E+02 -0.54086050117E+01 -0.68837726708E+03  0.68905500953E+03  0.35859285830E+01 0.  0.
         13    1    3    3    0    0  0.31372356987E+01 -0.14528180912E+01 -0.96038035374E+02  0.96100245404E+02  0.00000000000E+00 0.  1.
          3    1    3    3  501    0  0.26719630058E+02 -0.39557869205E+01 -0.59233923171E+03  0.59295476413E+03  0.00000000000E+00 0.  1.
         21    1    1    2  502  501 -0.29856865757E+02  0.54086050117E+01 -0.31054443576E+03  0.31202328763E+03  0.00000000000E+00 0.  1.
<mgrwt>
<rscale>  1 0.30000000E+03</rscale>
<asrwt>0</asrwt>
<pdfrwt beam="1">  1        3 0.39210888E-02 0.30000000E+03</pdfrwt>
<pdfrwt beam="2">0</pdfrwt>
<totfact> 0.14386356E+03</totfact>
</mgrwt>
</event>
<event>
 6    1  0.1956957E-002  0.3000000E+03  0.7818608E-02  0.1093470E+00
          1   -1    0    0  502    0  0.00000000000E+00  0.00000000000E+00  0.13565815733E+01  0.13565815733E+01  0.00000000000E+00 0.  1.
         13   -1    0    0    0    0 -0.00000000000E+00 -0.00000000000E+00 -0.10000000000E+04  0.10000000000E+04  0.00000000000E+00 0.  1.
    9000005    2    1    2  501    0  0.99884931948E+01 -0.28889069111E+02 -0.77799029545E+03  0.77859628666E+03  0.29882229178E+01 0.  0.
         13    1    3    3    0    0  0.58396954223E+00 -0.43545743741E+01 -0.97621425847E+02  0.97720244181E+02  0.00000000000E+00 0.  1.
          3    1    3    3  501    0  0.94045236526E+01 -0.24534494737E+02 -0.68036886961E+03  0.68087604248E+03  0.00000000000E+00 0.  1.
         21    1    1    2  502  501 -0.99884931948E+01  0.28889069111E+02 -0.22065312297E+03  0.22276029491E+03  0.00000000000E+00 0.  1.
<mgrwt>
<rscale>  1 0.30000000E+03</rscale>
<asrwt>0</asrwt>
<pdfrwt beam="1">  1        1 0.49330343E-02 0.30000000E+03</pdfrwt>
<pdfrwt beam="2">0</pdfrwt>
<totfact> 0.20272215E+03</totfact>
</mgrwt>
</event>
<event>
 6    1  0.1956957E-002  0.3000000E+03  0.7818608E-02  0.1093470E+00
          1   -1    0    0  502    0  0.00000000000E+00  0.00000000000E+00  0.24649131410E+01  0.24649131410E+01  0.00000000000E+00 0.  1.
         13   -1    0    0    0    0 -0.00000000000E+00 -0.00000000000E+00 -0.10000000000E+04  0.10000000000E+04  0.00000000000E+00 0.  1.
    9000005    2    1    2  501    0 -0.36185050034E+01 -0.32381977312E+02 -0.87671998699E+03  0.87733308510E+03  0.37041309426E+01 0.  0.
         13    1    3    3    0    0  0.12157835381E+00 -0.14080832609E+02 -0.39632879816E+03  0.39657887095E+03  0.00000000000E+00 0.  1.
          3    1    3    3  501    0 -0.37400833572E+01 -0.18301144703E+02 -0.48039118883E+03  0.48075421415E+03  0.00000000000E+00 0.  1.
         21    1    1    2  502  501  0.36185050034E+01  0.32381977312E+02 -0.12081509987E+03  0.12513182804E+03  0.00000000000E+00 0.  1.
<mgrwt>
<rscale>  1 0.30000000E+03</rscale>
<asrwt>0</asrwt>
<pdfrwt beam="1">  1        1 0.89633394E-02 0.30000000E+03</pdfrwt>
<pdfrwt beam="2">0</pdfrwt>
<totfact> 0.87933811E+02</totfact>
</mgrwt>
</event>
<event>
 6    1  0.1956957E-002  0.3000000E+03  0.7818608E-02  0.1093470E+00
          3   -1    0    0  502    0  0.00000000000E+00  0.00000000000E+00  0.57845452820E+01  0.57845452820E+01  0.00000000000E+00 0.  1.
         13   -1    0    0    0    0 -0.00000000000E+00 -0.00000000000E+00 -0.10000000000E+04  0.10000000000E+04  0.00000000000E+00 0.  1.
    9000005    2    1    2  501    0  0.34459093796E+02 -0.23644260885E+02 -0.91717690709E+03  0.91814084592E+03  0.47596030288E+01 0.  0.
         13    1    3    3    0    0  0.15940617024E+02 -0.92311585972E+01 -0.44522759947E+03  0.44560849732E+03  0.00000000000E+00 0.  1.
          3    1    3    3  501    0  0.18518476772E+02 -0.14413102287E+02 -0.47194930762E+03  0.47253234859E+03  0.00000000000E+00 0.  1.
         21    1    1    2  502  501 -0.34459093796E+02  0.23644260885E+02 -0.77038547627E+02  0.87643699366E+02  0.00000000000E+00 0.  1.
<mgrwt>
<rscale>  1 0.30000000E+03</rscale>
<asrwt>0</asrwt>
<pdfrwt beam="1">  1        3 0.21034754E-01 0.30000000E+03</pdfrwt>
<pdfrwt beam="2">0</pdfrwt>
<totfact> 0.91141869E+01</totfact>
</mgrwt>
</event>
<event>
 6    1  0.1956957E-002  0.3000000E+03  0.7818608E-02  0.1093470E+00
          1   -1    0    0  502    0  0.00000000000E+00  0.00000000000E+00  0.36186620453E+02  0.36186620453E+02  0.00000000000E+00 0.  1.
         13   -1    0    0    0    0 -0.00000000000E+00 -0.00000000000E+00 -0.10000000000E+04  0.10000000000E+04  0.00000000000E+00 0.  1.
    9000005    2    1    2  501    0  0.48597277609E+02 -0.10998075149E+03 -0.88334565317E+03  0.89150588201E+03  0.50728291228E+01 0.  0.
         13    1    3    3    0    0  0.84953756685E+01 -0.20328084740E+02 -0.17648855381E+03  0.17785840453E+03  0.00000000000E+00 0.  1.
          3    1    3    3  501    0  0.40101901941E+02 -0.89652666745E+02 -0.70685709936E+03  0.71364747748E+03  0.00000000000E+00 0.  1.
         21    1    1    2  502  501 -0.48597277609E+02  0.10998075149E+03 -0.80467726379E+02  0.14468073844E+03  0.00000000000E+00 0.  1.
<mgrwt>
<rscale>  1 0.30000000E+03</rscale>
<asrwt>0</asrwt>
<pdfrwt beam="1">  1        1 0.13158799E+00 0.30000000E+03</pdfrwt>
<pdfrwt beam="2">0</pdfrwt>
<totfact> 0.22430113E+01</totfact>
</mgrwt>
</event>
<event>
 6    1  0.1956957E-002  0.3000000E+03  0.7818608E-02  0.1093470E+00
          1   -1    0    0  502    0  0.00000000000E+00  0.00000000000E+00  0.46399750635E+01  0.46399750635E+01  0.00000000000E+00 0.  1.
         13   -1    0    0    0    0 -0.00000000000E+00 -0.00000000000E+00 -0.10000000000E+04  0.10000000000E+04  0.00000000000E+00 0.  1.
    9000005    2    1    2  501    0 -0.44249823962E+02 -0.18164623174E+02 -0.85519648687E+03  0.85653927332E+03  0.32396167280E+01 0.  0.
         13    1    3    3    0    0 -0.36320428939E+02 -0.13600635864E+02 -0.68491038590E+03  0.68600757108E+03  0.00000000000E+00 0.  1.
          1    1    3    3  501    0 -0.79293950223E+01 -0.45639873095E+01 -0.17028610097E+03  0.17053170224E+03  0.00000000000E+00 0.  1.
         21    1    1    2  502  501  0.44249823962E+02  0.18164623174E+02 -0.14016353806E+03  0.14810070175E+03  0.00000000000E+00 0.  1.
<mgrwt>
<rscale>  1 0.30000000E+03</rscale>
<asrwt>0</asrwt>
<pdfrwt beam="1">  1        1 0.16872672E-01 0.30000000E+03</pdfrwt>
<pdfrwt beam="2">0</pdfrwt>
<totfact> 0.36994178E+02</totfact>
</mgrwt>
</event>
<event>
 6    1  0.1956957E-002  0.3000000E+03  0.7818608E-02  0.1093470E+00
          1   -1    0    0  502    0  0.00000000000E+00  0.00000000000E+00  0.62988388548E+02  0.62988388548E+02  0.00000000000E+00 0.  1.
         13   -1    0    0    0    0 -0.00000000000E+00 -0.00000000000E+00 -0.10000000000E+04  0.10000000000E+04  0.00000000000E+00 0.  1.
    9000005    2    1    2  501    0 -0.59070829426E+02 -0.27137614581E+02 -0.98185977954E+03  0.98401262521E+03  0.25311807350E+01 0.  0.
         13    1    3    3    0    0 -0.25233205700E+02 -0.10923953639E+02 -0.43185330195E+03  0.43272776874E+03  0.00000000000E+00 0.  1.
          3    1    3    3  501    0 -0.33837623727E+02 -0.16213660942E+02 -0.55000647759E+03  0.55128485647E+03  0.00000000000E+00 0.  1.
         21    1    1    2  502  501  0.59070829426E+02  0.27137614581E+02  0.44848168088E+02  0.78975763340E+02  0.00000000000E+00 0.  1.
<mgrwt>
<rscale>  1 0.30000000E+03</rscale>
<asrwt>0</asrwt>
<pdfrwt beam="1">  1        1 0.22904917E+00 0.30000000E+03</pdfrwt>
<pdfrwt beam="2">0</pdfrwt>
<totfact> 0.74766657E+00</totfact>
</mgrwt>
</event>
<event>
 6    1  0.1956957E-002  0.3000000E+03  0.7818608E-02  0.1093470E+00
          1   -1    0    0  502    0  0.00000000000E+00  0.00000000000E+00  0.22045752021E+01  0.22045752021E+01  0.00000000000E+00 0.  1.
         13   -1    0    0    0    0 -0.00000000000E+00 -0.00000000000E+00 -0.10000000000E+04  0.10000000000E+04  0.00000000000E+00 0.  1.
    9000005    2    1    2  501    0 -0.36567685343E+02 -0.19467956182E+02 -0.73404760279E+03  0.73522309542E+03  0.33045359040E+01 0.  0.
         13    1    3    3    0    0 -0.44079464653E+01 -0.21432293439E+01 -0.69869799281E+02  0.70041503950E+02  0.00000000000E+00 0.  1.
          1    1    3    3  501    0 -0.32159738878E+02 -0.17324726838E+02 -0.66417780351E+03  0.66518159147E+03  0.00000000000E+00 0.  1.
         21    1    1    2  502  501  0.36567685343E+02  0.19467956182E+02 -0.26374782201E+03  0.26698147978E+03  0.00000000000E+00 0.  1.
<mgrwt>
<rscale>  1 0.30000000E+03</rscale>
<asrwt>0</asrwt>
<pdfrwt beam="1">  1        1 0.80166540E-02 0.30000000E+03</pdfrwt>
<pdfrwt beam="2">0</pdfrwt>
<totfact> 0.10268641E+03</totfact>
</mgrwt>
</event>
<event>
 6    1  0.1956957E-002  0.3000000E+03  0.7818608E-02  0.1093470E+00
          1   -1    0    0  502    0  0.00000000000E+00  0.00000000000E+00  0.18607384812E+02  0.18607384812E+02  0.00000000000E+00 0.  1.
         13   -1    0    0    0    0 -0.00000000000E+00 -0.00000000000E+00 -0.10000000000E+04  0.10000000000E+04  0.00000000000E+00 0.  1.
    9000005    2    1    2  501    0 -0.33493504540E+02 -0.12672179986E+02 -0.98213191785E+03  0.98278915537E+03  0.30034758092E+01 0.  0.
         13    1    3    3    0    0 -0.17929532617E+02 -0.72116464347E+01 -0.56908239457E+03  0.56941043878E+03  0.00000000000E+00 0.  1.
          1    1    3    3  501    0 -0.15563971923E+02 -0.54605335509E+01 -0.41304952328E+03  0.41337871659E+03  0.00000000000E+00 0.  1.
         21    1    1    2  502  501  0.33493504540E+02  0.12672179986E+02  0.73930265788E+00  0.35818229443E+02  0.00000000000E+00 0.  1.
<mgrwt>
<rscale>  1 0.30000000E+03</rscale>
<asrwt>0</asrwt>
<pdfrwt beam="1">  1        1 0.67663360E-01 0.30000000E+03</pdfrwt>
<pdfrwt beam="2">0</pdfrwt>
<totfact> 0.59036565E+01</totfact>
</mgrwt>
</event>
<event>
 6    1  0.1956957E-002  0.3000000E+03  0.7818608E-02  0.1093470E+00
          1   -1    0    0  502    0  0.00000000000E+00  0.00000000000E+00  0.17144166527E+01  0.17144166527E+01  0.00000000000E+00 0.  1.
         13   -1    0    0    0    0 -0.00000000000E+00 -0.00000000000E+00 -0.10000000000E+04  0.10000000000E+04  0.00000000000E+00 0.  1.
    9000005    2    1    2  501    0 -0.13183830576E+02  0.34202689595E+02 -0.72632165676E+03  0.72729135871E+03  0.81199763360E+01 0.  0.
         13    1    3    3    0    0 -0.13896558081E+02  0.31914799780E+02 -0.69845648158E+03  0.69932333397E+03  0.00000000000E+00 0.  1.
          3    1    3    3  501    0  0.71272750460E+00  0.22878898149E+01 -0.27865175182E+02  0.27968024747E+02  0.00000000000E+00 0.  1.
         21    1    1    2  502  501  0.13183830576E+02 -0.34202689595E+02 -0.27196392659E+03  0.27442305794E+03  0.00000000000E+00 0.  1.
<mgrwt>
<rscale>  1 0.30000000E+03</rscale>
<asrwt>0</asrwt>
<pdfrwt beam="1">  1        1 0.62342555E-02 0.30000000E+03</pdfrwt>
<pdfrwt beam="2">0</pdfrwt>
<totfact> 0.14593229E+03</totfact>
</mgrwt>
</event>
<event>
 6    1  0.1956957E-002  0.3000000E+03  0.7818608E-02  0.1093470E+00
          3   -1    0    0  502    0  0.00000000000E+00  0.00000000000E+00  0.32265278344E+02  0.32265278344E+02  0.00000000000E+00 0.  1.
         13   -1    0    0    0    0 -0.00000000000E+00 -0.00000000000E+00 -0.10000000000E+04  0.10000000000E+04  0.00000000000E+00 0.  1.
    9000005    2    1    2  501    0 -0.19070302982E+02 -0.26770665955E+02 -0.99128002448E+03  0.99183352972E+03  0.41615787418E+01 0.  0.
         13    1    3    3    0    0 -0.15890470373E+02 -0.24537737527E+02 -0.86618707658E+03  0.86668025202E+03  0.00000000000E+00 0.  1.
          1    1    3    3  501    0 -0.31798326098E+01 -0.22329284286E+01 -0.12509294790E+03  0.12515327770E+03  0.00000000000E+00 0.  1.
         21    1    1    2  502  501  0.19070302982E+02  0.26770665955E+02  0.23545302824E+02  0.40431748622E+02  0.00000000000E+00 0.  1.
<mgrwt>
<rscale>  1 0.30000000E+03</rscale>
<asrwt>0</asrwt>
<pdfrwt beam="1">  1        3 0.11732853E+00 0.30000000E+03</pdfrwt>
<pdfrwt beam="2">0</pdfrwt>
<totfact> 0.24836235E+00</totfact>
</mgrwt>
</event>
<event>
 6    1  0.1956957E-002  0.3000000E+03  0.7818608E-02  0.1093470E+00
          1   -1    0    0  502    0  0.00000000000E+00  0.00000000000E+00  0.10157627913E+01  0.10157627913E+01  0.00000000000E+00 0.  1.
         13   -1    0    0    0    0 -0.00000000000E+00 -0.00000000000E+00 -0.10000000000E+04  0.10000000000E+04  0.00000000000E+00 0.  1.
    9000005    2    1    2  501    0  0.48944016121E+01  0.29713858301E+02 -0.66087006181E+03  0.66156316794E+03  0.31173775172E+01 0.  0.
         13    1    3    3    0    0  0.52564075664E+01  0.27382023362E+02 -0.60032764383E+03  0.60097477898E+03  0.00000000000E+00 0.  1.
          3    1    3    3  501    0 -0.36200595430E+00  0.23318349389E+01 -0.60542417982E+02  0.60588388967E+02  0.00000000000E+00 0.  1.
         21    1    1    2  502  501 -0.48944016121E+01 -0.29713858301E+02 -0.33811417540E+03  0.33945259485E+03  0.00000000000E+00 0.  1.
<mgrwt>
<rscale>  1 0.30000000E+03</rscale>
<asrwt>0</asrwt>
<pdfrwt beam="1">  1        1 0.36936907E-02 0.30000000E+03</pdfrwt>
<pdfrwt beam="2">0</pdfrwt>
<totfact> 0.30460997E+03</totfact>
</mgrwt>
</event>
<event>
 6    1  0.1956957E-002  0.3000000E+03  0.7818608E-02  0.1093470E+00
          1   -1    0    0  502    0  0.00000000000E+00  0.00000000000E+00  0.66356341501E+01  0.66356341501E+01  0.00000000000E+00 0.  1.
         13   -1    0    0    0    0 -0.00000000000E+00 -0.00000000000E+00 -0.10000000000E+04  0.10000000000E+04  0.00000000000E+00 0.  1.
    9000005    2    1    2  501    0 -0.36660929823E+02  0.49061149405E+01 -0.94501770815E+03  0.94576287300E+03  0.63913603009E+01 0.  0.
         13    1    3    3    0    0 -0.34864377304E+02  0.53803779097E+01 -0.85732478120E+03  0.85805026294E+03  0.00000000000E+00 0.  1.
          1    1    3    3  501    0 -0.17965525195E+01 -0.47426296922E+00 -0.87692926955E+02  0.87712610064E+02  0.00000000000E+00 0.  1.
         21    1    1    2  502  501  0.36660929823E+02 -0.49061149405E+01 -0.48346657695E+02  0.60872761147E+02  0.00000000000E+00 0.  1.
<mgrwt>
<rscale>  1 0.30000000E+03</rscale>
<asrwt>0</asrwt>
<pdfrwt beam="1">  1        1 0.24129630E-01 0.30000000E+03</pdfrwt>
<pdfrwt beam="2">0</pdfrwt>
<totfact> 0.22943382E+02</totfact>
</mgrwt>
</event>
<event>
 6    1  0.1956957E-002  0.3000000E+03  0.7818608E-02  0.1093470E+00
          1   -1    0    0  502    0  0.00000000000E+00  0.00000000000E+00  0.20933035878E+01  0.20933035878E+01  0.00000000000E+00 0.  1.
         13   -1    0    0    0    0 -0.00000000000E+00 -0.00000000000E+00 -0.10000000000E+04  0.10000000000E+04  0.00000000000E+00 0.  1.
    9000005    2    1    2  501    0  0.27005380270E+02 -0.25811872598E+02 -0.78785584519E+03  0.78874639494E+03  0.29153730146E+01 0.  0.
         13    1    3    3    0    0  0.43944657929E+01 -0.57854338284E+01 -0.15493190108E+03  0.15510214875E+03  0.00000000000E+00 0.  1.
          3    1    3    3  501    0  0.22610914477E+02 -0.20026438769E+02 -0.63292394411E+03  0.63364424619E+03  0.00000000000E+00 0.  1.
         21    1    1    2  502  501 -0.27005380270E+02  0.25811872598E+02 -0.21005085123E+03  0.21334690865E+03  0.00000000000E+00 0.  1.
<mgrwt>
<rscale>  1 0.30000000E+03</rscale>
<asrwt>0</asrwt>
<pdfrwt beam="1">  1        1 0.76120291E-02 0.30000000E+03</pdfrwt>
<pdfrwt beam="2">0</pdfrwt>
<totfact> 0.11037195E+03</totfact>
</mgrwt>
</event>
<event>
 6    1  0.1956957E-002  0.3000000E+03  0.7818608E-02  0.1093470E+00
          3   -1    0    0  502    0  0.00000000000E+00  0.00000000000E+00  0.25732142784E+01  0.25732142784E+01  0.00000000000E+00 0.  1.
         13   -1    0    0    0    0 -0.00000000000E+00 -0.00000000000E+00 -0.10000000000E+04  0.10000000000E+04  0.00000000000E+00 0.  1.
    9000005    2    1    2  501    0  0.12874059411E+02  0.43739685042E+02 -0.28067659432E+03  0.28437425973E+03  0.32353577107E+01 0.  0.
         13    1    3    3    0    0  0.24446795822E+00  0.31317948691E+00 -0.46752630063E+01  0.46921136124E+01  0.00000000000E+00 0.  1.
          3    1    3    3  501    0  0.12629591453E+02  0.43426505555E+02 -0.27600133132E+03  0.27968214611E+03  0.00000000000E+00 0.  1.
         21    1    1    2  502  501 -0.12874059411E+02 -0.43739685042E+02 -0.71675019140E+03  0.71819895455E+03  0.00000000000E+00 0.  1.
<mgrwt>
<rscale>  1 0.30000000E+03</rscale>
<asrwt>0</asrwt>
<pdfrwt beam="1">  1        3 0.93571626E-02 0.30000000E+03</pdfrwt>
<pdfrwt beam="2">0</pdfrwt>
<totfact> 0.36820366E+02</totfact>
</mgrwt>
</event>
<event>
 6    1  0.1956957E-002  0.3000000E+03  0.7818608E-02  0.1093470E+00
          1   -1    0    0  502    0  0.00000000000E+00  0.00000000000E+00  0.17291928711E+02  0.17291928711E+02  0.00000000000E+00 0.  1.
         13   -1    0    0    0    0 -0.00000000000E+00 -0.00000000000E+00 -0.10000000000E+04  0.10000000000E+04  0.00000000000E+00 0.  1.
    9000005    2    1    2  501    0 -0.88136115869E+02 -0.84563508409E+02 -0.67975920495E+03  0.69064689585E+03  0.12633927319E+01 0.  0.
         13    1    3    3    0    0 -0.18602488155E+02 -0.18565434410E+02 -0.14601388349E+03  0.14836031172E+03  0.00000000000E+00 0.  1.
          3    1    3    3  501    0 -0.69533627714E+02 -0.65998073999E+02 -0.53374532146E+03  0.54228658414E+03  0.00000000000E+00 0.  1.
         21    1    1    2  502  501  0.88136115869E+02  0.84563508409E+02 -0.30294886634E+03  0.32664503286E+03  0.00000000000E+00 0.  1.
<mgrwt>
<rscale>  1 0.30000000E+03</rscale>
<asrwt>0</asrwt>
<pdfrwt beam="1">  1        1 0.62879873E-01 0.30000000E+03</pdfrwt>
<pdfrwt beam="2">0</pdfrwt>
<totfact> 0.65143745E+01</totfact>
</mgrwt>
</event>
<event>
 6    1  0.1956957E-002  0.3000000E+03  0.7818608E-02  0.1093470E+00
          1   -1    0    0  502    0  0.00000000000E+00  0.00000000000E+00  0.32523454896E+01  0.32523454896E+01  0.00000000000E+00 0.  1.
         13   -1    0    0    0    0 -0.00000000000E+00 -0.00000000000E+00 -0.10000000000E+04  0.10000000000E+04  0.00000000000E+00 0.  1.
    9000005    2    1    2  501    0  0.45588791365E+02 -0.32574346602E+02 -0.59017232010E+03  0.59283435307E+03  0.31267886831E+01 0.  0.
         13    1    3    3    0    0  0.87453931983E+01 -0.62786142921E+01 -0.12698436730E+03  0.12743991698E+03  0.00000000000E+00 0.  1.
          1    1    3    3  501    0  0.36843398166E+02 -0.26295732310E+02 -0.46318795280E+03  0.46539443609E+03  0.00000000000E+00 0.  1.
         21    1    1    2  502  501 -0.45588791365E+02  0.32574346602E+02 -0.40657533441E+03  0.41041799242E+03  0.00000000000E+00 0.  1.
<mgrwt>
<rscale>  1 0.30000000E+03</rscale>
<asrwt>0</asrwt>
<pdfrwt beam="1">  1        1 0.11826736E-01 0.30000000E+03</pdfrwt>
<pdfrwt beam="2">0</pdfrwt>
<totfact> 0.60001826E+02</totfact>
</mgrwt>
</event>
<event>
 6    1  0.1956957E-002  0.3000000E+03  0.7818608E-02  0.1093470E+00
          3   -1    0    0  502    0  0.00000000000E+00  0.00000000000E+00  0.15062667865E+01  0.15062667865E+01  0.00000000000E+00 0.  1.
         13   -1    0    0    0    0 -0.00000000000E+00 -0.00000000000E+00 -0.10000000000E+04  0.10000000000E+04  0.00000000000E+00 0.  1.
    9000005    2    1    2  501    0 -0.28978951079E+02 -0.22821165184E+02 -0.65334670589E+03  0.65439381289E+03  0.29595698546E+01 0.  0.
         13    1    3    3    0    0 -0.25530894572E+01 -0.10310417727E+01 -0.48102942447E+02  0.48181681010E+02  0.00000000000E+00 0.  1.
          3    1    3    3  501    0 -0.26425861622E+02 -0.21790123411E+02 -0.60524376345E+03  0.60621213188E+03  0.00000000000E+00 0.  1.
         21    1    1    2  502  501  0.28978951079E+02  0.22821165184E+02 -0.34514702732E+03  0.34711245390E+03  0.00000000000E+00 0.  1.
<mgrwt>
<rscale>  1 0.30000000E+03</rscale>
<asrwt>0</asrwt>
<pdfrwt beam="1">  1        3 0.54773453E-02 0.30000000E+03</pdfrwt>
<pdfrwt beam="2">0</pdfrwt>
<totfact> 0.85928529E+02</totfact>
</mgrwt>
</event>
<event>
 6    1  0.1956957E-002  0.3000000E+03  0.7818608E-02  0.1093470E+00
          1   -1    0    0  502    0  0.00000000000E+00  0.00000000000E+00  0.87209162657E+01  0.87209162657E+01  0.00000000000E+00 0.  1.
         13   -1    0    0    0    0 -0.00000000000E+00 -0.00000000000E+00 -0.10000000000E+04  0.10000000000E+04  0.00000000000E+00 0.  1.
    9000005    2    1    2  501    0 -0.25936777634E+02 -0.18332577384E+02 -0.96991584197E+03  0.97044314300E+03  0.37885956991E+01 0.  0.
         13    1    3    3    0    0 -0.26028132522E+02 -0.18397566848E+02 -0.96604933706E+03  0.96657501301E+03  0.00000000000E+00 0.  1.
          3    1    3    3  501    0  0.91354887689E-01  0.64989463707E-01 -0.38665049181E+01  0.38681299910E+01  0.00000000000E+00 0.  1.
         21    1    1    2  502  501  0.25936777634E+02  0.18332577384E+02 -0.21363241760E+02  0.38277773265E+02  0.00000000000E+00 0.  1.
<mgrwt>
<rscale>  1 0.30000000E+03</rscale>
<asrwt>0</asrwt>
<pdfrwt beam="1">  1        1 0.31712490E-01 0.30000000E+03</pdfrwt>
<pdfrwt beam="2">0</pdfrwt>
<totfact> 0.16012564E+02</totfact>
</mgrwt>
</event>
<event>
 6    1  0.1956957E-002  0.3000000E+03  0.7818608E-02  0.1093470E+00
          1   -1    0    0  502    0  0.00000000000E+00  0.00000000000E+00  0.14186765380E+01  0.14186765380E+01  0.00000000000E+00 0.  1.
         13   -1    0    0    0    0 -0.00000000000E+00 -0.00000000000E+00 -0.10000000000E+04  0.10000000000E+04  0.00000000000E+00 0.  1.
    9000005    2    1    2  501    0  0.32713109154E+02 -0.81081781941E+01 -0.72163811383E+03  0.72243224062E+03  0.32992261231E+01 0.  0.
         13    1    3    3    0    0  0.39777708081E+01 -0.30681635926E+00 -0.68986593403E+02  0.69101858631E+02  0.00000000000E+00 0.  1.
          1    1    3    3  501    0  0.28735338346E+02 -0.78013618348E+01 -0.65265152042E+03  0.65333038199E+03  0.00000000000E+00 0.  1.
         21    1    1    2  502  501 -0.32713109154E+02  0.81081781941E+01 -0.27694320963E+03  0.27898643592E+03  0.00000000000E+00 0.  1.
<mgrwt>
<rscale>  1 0.30000000E+03</rscale>
<asrwt>0</asrwt>
<pdfrwt beam="1">  1        1 0.51588347E-02 0.30000000E+03</pdfrwt>
<pdfrwt beam="2">0</pdfrwt>
<totfact> 0.19036334E+03</totfact>
</mgrwt>
</event>
<event>
 6    1  0.1956957E-002  0.3000000E+03  0.7818608E-02  0.1093470E+00
          1   -1    0    0  502    0  0.00000000000E+00  0.00000000000E+00  0.18649643133E+01  0.18649643133E+01  0.00000000000E+00 0.  1.
         13   -1    0    0    0    0 -0.00000000000E+00 -0.00000000000E+00 -0.10000000000E+04  0.10000000000E+04  0.00000000000E+00 0.  1.
    9000005    2    1    2  501    0 -0.41869415154E+02  0.79707646937E+01 -0.45575706817E+03  0.45781492924E+03  0.79638705008E+01 0.  0.
         13    1    3    3    0    0 -0.40901837453E+02  0.78453691732E+01 -0.45256019641E+03  0.45447248707E+03  0.00000000000E+00 0.  1.
          3    1    3    3  501    0 -0.96757770109E+00  0.12539552054E+00 -0.31968717555E+01  0.33424421708E+01  0.00000000000E+00 0.  1.
         21    1    1    2  502  501  0.41869415154E+02 -0.79707646937E+01 -0.54237796752E+03  0.54405003508E+03  0.00000000000E+00 0.  1.
<mgrwt>
<rscale>  1 0.30000000E+03</rscale>
<asrwt>0</asrwt>
<pdfrwt beam="1">  1        1 0.67817027E-02 0.30000000E+03</pdfrwt>
<pdfrwt beam="2">0</pdfrwt>
<totfact> 0.12970383E+03</totfact>
</mgrwt>
</event>
<event>
 6    1  0.1956957E-002  0.3000000E+03  0.7818608E-02  0.1093470E+00
          1   -1    0    0  502    0  0.00000000000E+00  0.00000000000E+00  0.18443070125E+01  0.18443070125E+01  0.00000000000E+00 0.  1.
         13   -1    0    0    0    0 -0.00000000000E+00 -0.00000000000E+00 -0.10000000000E+04  0.10000000000E+04  0.00000000000E+00 0.  1.
    9000005    2    1    2  501    0 -0.36060125955E+02 -0.15550137729E+02 -0.70034165682E+03  0.70145233042E+03  0.38465694080E+01 0.  0.
         13    1    3    3    0    0 -0.14632544866E+02 -0.69914510677E+01 -0.25780090814E+03  0.25831047210E+03  0.00000000000E+00 0.  1.
          1    1    3    3  501    0 -0.21427581089E+02 -0.85586866615E+01 -0.44254074868E+03  0.44314185832E+03  0.00000000000E+00 0.  1.
         21    1    1    2  502  501  0.36060125955E+02  0.15550137729E+02 -0.29781403616E+03  0.30039197660E+03  0.00000000000E+00 0.  1.
<mgrwt>
<rscale>  1 0.30000000E+03</rscale>
<asrwt>0</asrwt>
<pdfrwt beam="1">  1        1 0.67065851E-02 0.30000000E+03</pdfrwt>
<pdfrwt beam="2">0</pdfrwt>
<totfact> 0.13174154E+03</totfact>
</mgrwt>
</event>
<event>
 6    1  0.1956957E-002  0.3000000E+03  0.7818608E-02  0.1093470E+00
          1   -1    0    0  502    0  0.00000000000E+00  0.00000000000E+00  0.17342991392E+02  0.17342991392E+02  0.00000000000E+00 0.  1.
         13   -1    0    0    0    0 -0.00000000000E+00 -0.00000000000E+00 -0.10000000000E+04  0.10000000000E+04  0.00000000000E+00 0.  1.
    9000005    2    1    2  501    0  0.10664290291E+03 -0.33192693023E+02 -0.76075050799E+03  0.76891401034E+03  0.35994823750E+01 0.  0.
         13    1    3    3    0    0  0.47902380762E+02 -0.14606228817E+02 -0.32898893641E+03  0.33277875575E+03  0.00000000000E+00 0.  1.
          1    1    3    3  501    0  0.58740522150E+02 -0.18586464206E+02 -0.43176157158E+03  0.43613525458E+03  0.00000000000E+00 0.  1.
         21    1    1    2  502  501 -0.10664290291E+03  0.33192693023E+02 -0.22190650062E+03  0.24842898106E+03  0.00000000000E+00 0.  1.
<mgrwt>
<rscale>  1 0.30000000E+03</rscale>
<asrwt>0</asrwt>
<pdfrwt beam="1">  1        1 0.63065556E-01 0.30000000E+03</pdfrwt>
<pdfrwt beam="2">0</pdfrwt>
<totfact> 0.64887584E+01</totfact>
</mgrwt>
</event>
<event>
 6    1  0.1956957E-002  0.3000000E+03  0.7818608E-02  0.1093470E+00
          1   -1    0    0  502    0  0.00000000000E+00  0.00000000000E+00  0.86393777768E+01  0.86393777768E+01  0.00000000000E+00 0.  1.
         13   -1    0    0    0    0 -0.00000000000E+00 -0.00000000000E+00 -0.10000000000E+04  0.10000000000E+04  0.00000000000E+00 0.  1.
    9000005    2    1    2  501    0  0.31004909126E+02 -0.65956266108E+01 -0.96975811383E+03  0.97027956744E+03  0.26139953117E+01 0.  0.
         13    1    3    3    0    0  0.12918616902E+01 -0.42570313212E+00 -0.28602001738E+02  0.28634326135E+02  0.00000000000E+00 0.  1.
          1    1    3    3  501    0  0.29713047436E+02 -0.61699234786E+01 -0.94115611209E+03  0.94164524130E+03  0.00000000000E+00 0.  1.
         21    1    1    2  502  501 -0.31004909126E+02  0.65956266108E+01 -0.21602508396E+02  0.38359810340E+02  0.00000000000E+00 0.  1.
<mgrwt>
<rscale>  1 0.30000000E+03</rscale>
<asrwt>0</asrwt>
<pdfrwt beam="1">  1        1 0.31415985E-01 0.30000000E+03</pdfrwt>
<pdfrwt beam="2">0</pdfrwt>
<totfact> 0.16210969E+02</totfact>
</mgrwt>
</event>
<event>
 6    1  0.1956957E-002  0.3000000E+03  0.7818608E-02  0.1093470E+00
          1   -1    0    0  502    0  0.00000000000E+00  0.00000000000E+00  0.10523544420E+02  0.10523544420E+02  0.00000000000E+00 0.  1.
         13   -1    0    0    0    0 -0.00000000000E+00 -0.00000000000E+00 -0.10000000000E+04  0.10000000000E+04  0.00000000000E+00 0.  1.
    9000005    2    1    2  501    0  0.84463232467E+01 -0.46426542668E+02 -0.94334571045E+03  0.94453256104E+03  0.37236020114E+01 0.  0.
         13    1    3    3    0    0  0.12250575417E+01 -0.16493914965E+02 -0.33592575091E+03  0.33633266288E+03  0.00000000000E+00 0.  1.
          3    1    3    3  501    0  0.72212657050E+01 -0.29932627702E+02 -0.60741995954E+03  0.60819989816E+03  0.00000000000E+00 0.  1.
         21    1    1    2  502  501 -0.84463232467E+01  0.46426542668E+02 -0.46130745131E+02  0.65990983375E+02  0.00000000000E+00 0.  1.
<mgrwt>
<rscale>  1 0.30000000E+03</rscale>
<asrwt>0</asrwt>
<pdfrwt beam="1">  1        1 0.38267515E-01 0.30000000E+03</pdfrwt>
<pdfrwt beam="2">0</pdfrwt>
<totfact> 0.12524223E+02</totfact>
</mgrwt>
</event>
<event>
 6    1  0.1956957E-002  0.3000000E+03  0.7818608E-02  0.1093470E+00
          1   -1    0    0  502    0  0.00000000000E+00  0.00000000000E+00  0.99217458544E+00  0.99217458544E+00  0.00000000000E+00 0.  1.
         13   -1    0    0    0    0 -0.00000000000E+00 -0.00000000000E+00 -0.10000000000E+04  0.10000000000E+04  0.00000000000E+00 0.  1.
    9000005    2    1    2  501    0  0.29174609084E+02 -0.10787352618E+02 -0.57015636950E+03  0.57101415651E+03  0.33699342453E+01 0.  0.
         13    1    3    3    0    0  0.12709798346E+02 -0.64146864748E+01 -0.25087416373E+03  0.25127780086E+03  0.00000000000E+00 0.  1.
          3    1    3    3  501    0  0.16464810738E+02 -0.43726661430E+01 -0.31928220577E+03  0.31973635565E+03  0.00000000000E+00 0.  1.
         21    1    1    2  502  501 -0.29174609084E+02  0.10787352618E+02 -0.42885145591E+03  0.42997801808E+03  0.00000000000E+00 0.  1.
<mgrwt>
<rscale>  1 0.30000000E+03</rscale>
<asrwt>0</asrwt>
<pdfrwt beam="1">  1        1 0.36079152E-02 0.30000000E+03</pdfrwt>
<pdfrwt beam="2">0</pdfrwt>
<totfact> 0.31484861E+03</totfact>
</mgrwt>
</event>
<event>
 6    1  0.1956957E-002  0.3000000E+03  0.7818608E-02  0.1093470E+00
          1   -1    0    0  502    0  0.00000000000E+00  0.00000000000E+00  0.84201544902E+01  0.84201544902E+01  0.00000000000E+00 0.  1.
         13   -1    0    0    0    0 -0.00000000000E+00 -0.00000000000E+00 -0.10000000000E+04  0.10000000000E+04  0.00000000000E+00 0.  1.
    9000005    2    1    2  501    0  0.80083529948E+02 -0.74293144372E+01 -0.73834757650E+03  0.74272267887E+03  0.33567105532E+01 0.  0.
         13    1    3    3    0    0  0.32615383791E+02 -0.35051150870E+01 -0.31579899913E+03  0.31749812116E+03  0.00000000000E+00 0.  1.
          3    1    3    3  501    0  0.47468146158E+02 -0.39241993502E+01 -0.42254857737E+03  0.42522455771E+03  0.00000000000E+00 0.  1.
         21    1    1    2  502  501 -0.80083529948E+02  0.74293144372E+01 -0.25323226901E+03  0.26569747562E+03  0.00000000000E+00 0.  1.
<mgrwt>
<rscale>  1 0.30000000E+03</rscale>
<asrwt>0</asrwt>
<pdfrwt beam="1">  1        1 0.30618808E-01 0.30000000E+03</pdfrwt>
<pdfrwt beam="2">0</pdfrwt>
<totfact> 0.16766562E+02</totfact>
</mgrwt>
</event>
<event>
 6    1  0.1956957E-002  0.3000000E+03  0.7818608E-02  0.1093470E+00
          1   -1    0    0  502    0  0.00000000000E+00  0.00000000000E+00  0.16936196152E+02  0.16936196152E+02  0.00000000000E+00 0.  1.
         13   -1    0    0    0    0 -0.00000000000E+00 -0.00000000000E+00 -0.10000000000E+04  0.10000000000E+04  0.00000000000E+00 0.  1.
    9000005    2    1    2  501    0 -0.79216440904E+02 -0.14202963357E+02 -0.89108606014E+03  0.89471969148E+03  0.34628111789E+01 0.  0.
         13    1    3    3    0    0 -0.76192055289E+02 -0.13928920650E+02 -0.85008249551E+03  0.85360382689E+03  0.00000000000E+00 0.  1.
          1    1    3    3  501    0 -0.30243856155E+01 -0.27404270696E+00 -0.41003564637E+02  0.41115864587E+02  0.00000000000E+00 0.  1.
         21    1    1    2  502  501  0.79216440904E+02  0.14202963357E+02 -0.91977743704E+02  0.12221650467E+03  0.00000000000E+00 0.  1.
<mgrwt>
<rscale>  1 0.30000000E+03</rscale>
<asrwt>0</asrwt>
<pdfrwt beam="1">  1        1 0.61586298E-01 0.30000000E+03</pdfrwt>
<pdfrwt beam="2">0</pdfrwt>
<totfact> 0.66976015E+01</totfact>
</mgrwt>
</event>
<event>
 6    1  0.1956957E-002  0.3000000E+03  0.7818608E-02  0.1093470E+00
          1   -1    0    0  502    0  0.00000000000E+00  0.00000000000E+00  0.23249589948E+01  0.23249589948E+01  0.00000000000E+00 0.  1.
         13   -1    0    0    0    0 -0.00000000000E+00 -0.00000000000E+00 -0.10000000000E+04  0.10000000000E+04  0.00000000000E+00 0.  1.
    9000005    2    1    2  501    0  0.32968200065E+02  0.34101529730E+02 -0.41237443946E+03  0.41510557008E+03  0.31842499990E+01 0.  0.
         13    1    3    3    0    0  0.25806587323E+02  0.28253093652E+02 -0.33758300600E+03  0.33974476183E+03  0.00000000000E+00 0.  1.
          3    1    3    3  501    0  0.71616127422E+01  0.58484360779E+01 -0.74791433458E+02  0.75360808251E+02  0.00000000000E+00 0.  1.
         21    1    1    2  502  501 -0.32968200065E+02 -0.34101529730E+02 -0.58530060155E+03  0.58721938891E+03  0.00000000000E+00 0.  1.
<mgrwt>
<rscale>  1 0.30000000E+03</rscale>
<asrwt>0</asrwt>
<pdfrwt beam="1">  1        1 0.84544142E-02 0.30000000E+03</pdfrwt>
<pdfrwt beam="2">0</pdfrwt>
<totfact> 0.95366688E+02</totfact>
</mgrwt>
</event>
<event>
 6    1  0.1956957E-002  0.3000000E+03  0.7818608E-02  0.1093470E+00
          3   -1    0    0  502    0  0.00000000000E+00  0.00000000000E+00  0.68912700930E+01  0.68912700930E+01  0.00000000000E+00 0.  1.
         13   -1    0    0    0    0 -0.00000000000E+00 -0.00000000000E+00 -0.10000000000E+04  0.10000000000E+04  0.00000000000E+00 0.  1.
    9000005    2    1    2  501    0  0.36181518262E+01  0.31986408842E+02 -0.96058955873E+03  0.96113410817E+03  0.32019018315E+01 0.  0.
         13    1    3    3    0    0  0.24203566314E+01  0.91255946258E+01 -0.29440979902E+03  0.29456113858E+03  0.00000000000E+00 0.  1.
          1    1    3    3  501    0  0.11977951948E+01  0.22860814216E+02 -0.66617975971E+03  0.66657296959E+03  0.00000000000E+00 0.  1.
         21    1    1    2  502  501 -0.36181518262E+01 -0.31986408842E+02 -0.32519171181E+02  0.45757161926E+02  0.00000000000E+00 0.  1.
<mgrwt>
<rscale>  1 0.30000000E+03</rscale>
<asrwt>0</asrwt>
<pdfrwt beam="1">  1        3 0.25059217E-01 0.30000000E+03</pdfrwt>
<pdfrwt beam="2">0</pdfrwt>
<totfact> 0.65713948E+01</totfact>
</mgrwt>
</event>
<event>
 6    1  0.1956957E-002  0.3000000E+03  0.7818608E-02  0.1093470E+00
          1   -1    0    0  502    0  0.00000000000E+00  0.00000000000E+00  0.18318112988E+01  0.18318112988E+01  0.00000000000E+00 0.  1.
         13   -1    0    0    0    0 -0.00000000000E+00 -0.00000000000E+00 -0.10000000000E+04  0.10000000000E+04  0.00000000000E+00 0.  1.
    9000005    2    1    2  501    0 -0.19532307391E+02 -0.29199174516E+02 -0.78483671598E+03  0.78562723207E+03  0.27155480398E+01 0.  0.
         13    1    3    3    0    0 -0.16893924006E+01 -0.16184006300E+01 -0.63093800740E+02  0.63137159891E+02  0.00000000000E+00 0.  1.
          3    1    3    3  501    0 -0.17842914991E+02 -0.27580773886E+02 -0.72174291524E+03  0.72249007218E+03  0.00000000000E+00 0.  1.
         21    1    1    2  502  501  0.19532307391E+02  0.29199174516E+02 -0.21333147272E+03  0.21620457922E+03  0.00000000000E+00 0.  1.
<mgrwt>
<rscale>  1 0.30000000E+03</rscale>
<asrwt>0</asrwt>
<pdfrwt beam="1">  1        1 0.66611460E-02 0.30000000E+03</pdfrwt>
<pdfrwt beam="2">0</pdfrwt>
<totfact> 0.13300122E+03</totfact>
</mgrwt>
</event>
<event>
 6    1  0.1956957E-002  0.3000000E+03  0.7818608E-02  0.1093470E+00
          1   -1    0    0  502    0  0.00000000000E+00  0.00000000000E+00  0.29153401005E+01  0.29153401005E+01  0.00000000000E+00 0.  1.
         13   -1    0    0    0    0 -0.00000000000E+00 -0.00000000000E+00 -0.10000000000E+04  0.10000000000E+04  0.00000000000E+00 0.  1.
    9000005    2    1    2  501    0  0.20839136483E+02  0.26330345690E+02 -0.89097157655E+03  0.89161599971E+03  0.46026085079E+01 0.  0.
         13    1    3    3    0    0  0.14094864115E+02  0.16327715259E+02 -0.51664464346E+03  0.51709471772E+03  0.00000000000E+00 0.  1.
          1    1    3    3  501    0  0.67442723680E+01  0.10002630431E+02 -0.37432693309E+03  0.37452128199E+03  0.00000000000E+00 0.  1.
         21    1    1    2  502  501 -0.20839136483E+02 -0.26330345690E+02 -0.10611308335E+03  0.11129934039E+03  0.00000000000E+00 0.  1.
<mgrwt>
<rscale>  1 0.30000000E+03</rscale>
<asrwt>0</asrwt>
<pdfrwt beam="1">  1        1 0.10601259E-01 0.30000000E+03</pdfrwt>
<pdfrwt beam="2">0</pdfrwt>
<totfact> 0.69729866E+02</totfact>
</mgrwt>
</event>
<event>
 6    1  0.1956957E-002  0.3000000E+03  0.7818608E-02  0.1093470E+00
          3   -1    0    0  502    0  0.00000000000E+00  0.00000000000E+00  0.23870263492E+01  0.23870263492E+01  0.00000000000E+00 0.  1.
         13   -1    0    0    0    0 -0.00000000000E+00 -0.00000000000E+00 -0.10000000000E+04  0.10000000000E+04  0.00000000000E+00 0.  1.
    9000005    2    1    2  501    0 -0.32332913274E+02  0.96565094691E+01 -0.86103025902E+03  0.86169764014E+03  0.33242472544E+01 0.  0.
         13    1    3    3    0    0 -0.50555369718E+01  0.15668931777E+01 -0.16870713021E+03  0.16879013417E+03  0.00000000000E+00 0.  1.
          1    1    3    3  501    0 -0.27277376302E+02  0.80896162913E+01 -0.69232312880E+03  0.69290750597E+03  0.00000000000E+00 0.  1.
         21    1    1    2  502  501  0.32332913274E+02 -0.96565094691E+01 -0.13658271463E+03  0.14068938621E+03  0.00000000000E+00 0.  1.
<mgrwt>
<rscale>  1 0.30000000E+03</rscale>
<asrwt>0</asrwt>
<pdfrwt beam="1">  1        3 0.86801141E-02 0.30000000E+03</pdfrwt>
<pdfrwt beam="2">0</pdfrwt>
<totfact> 0.41581224E+02</totfact>
</mgrwt>
</event>
<event>
 6    1  0.1956957E-002  0.3000000E+03  0.7818608E-02  0.1093470E+00
          1   -1    0    0  502    0  0.00000000000E+00  0.00000000000E+00  0.17659151188E+01  0.17659151188E+01  0.00000000000E+00 0.  1.
         13   -1    0    0    0    0 -0.00000000000E+00 -0.00000000000E+00 -0.10000000000E+04  0.10000000000E+04  0.00000000000E+00 0.  1.
    9000005    2    1    2  501    0 -0.20915816386E+02 -0.36365868989E+02 -0.48823307304E+03  0.49004237659E+03  0.31700858494E+01 0.  0.
         13    1    3    3    0    0 -0.42224455756E+01 -0.53280114060E+01 -0.86097382793E+02  0.86365363867E+02  0.00000000000E+00 0.  1.
          1    1    3    3  501    0 -0.16693370810E+02 -0.31037857583E+02 -0.40213569025E+03  0.40367701272E+03  0.00000000000E+00 0.  1.
         21    1    1    2  502  501  0.20915816386E+02  0.36365868989E+02 -0.51000101184E+03  0.51172353853E+03  0.00000000000E+00 0.  1.
<mgrwt>
<rscale>  1 0.30000000E+03</rscale>
<asrwt>0</asrwt>
<pdfrwt beam="1">  1        1 0.64215231E-02 0.30000000E+03</pdfrwt>
<pdfrwt beam="2">0</pdfrwt>
<totfact> 0.14000330E+03</totfact>
</mgrwt>
</event>
<event>
 6    1  0.1956957E-002  0.3000000E+03  0.7818608E-02  0.1093470E+00
          1   -1    0    0  502    0  0.00000000000E+00  0.00000000000E+00  0.11772034793E+01  0.11772034793E+01  0.00000000000E+00 0.  1.
         13   -1    0    0    0    0 -0.00000000000E+00 -0.00000000000E+00 -0.10000000000E+04  0.10000000000E+04  0.00000000000E+00 0.  1.
    9000005    2    1    2  501    0  0.27923141748E+02  0.16155763722E+02 -0.66758340351E+03  0.66837058391E+03  0.33054876782E+01 0.  0.
         13    1    3    3    0    0  0.24557350996E+02  0.15259513093E+02 -0.60470896522E+03  0.60539974302E+03  0.00000000000E+00 0.  1.
          1    1    3    3  501    0  0.33657907519E+01  0.89625062955E+00 -0.62874438283E+02  0.62970840887E+02  0.00000000000E+00 0.  1.
         21    1    1    2  502  501 -0.27923141748E+02 -0.16155763722E+02 -0.33123939301E+03  0.33280661957E+03  0.00000000000E+00 0.  1.
<mgrwt>
<rscale>  1 0.30000000E+03</rscale>
<asrwt>0</asrwt>
<pdfrwt beam="1">  1        1 0.42807490E-02 0.30000000E+03</pdfrwt>
<pdfrwt beam="2">0</pdfrwt>
<totfact> 0.24749227E+03</totfact>
</mgrwt>
</event>
<event>
 6    1  0.1956957E-002  0.3000000E+03  0.7818608E-02  0.1093470E+00
          1   -1    0    0  502    0  0.00000000000E+00  0.00000000000E+00  0.59079117524E+01  0.59079117524E+01  0.00000000000E+00 0.  1.
         13   -1    0    0    0    0 -0.00000000000E+00 -0.00000000000E+00 -0.10000000000E+04  0.10000000000E+04  0.00000000000E+00 0.  1.
    9000005    2    1    2  501    0  0.81729589322E+01 -0.31707953988E+02 -0.95204203862E+03  0.95261252474E+03  0.37930692373E+01 0.  0.
         13    1    3    3    0    0  0.74646569156E+01 -0.24857321231E+02 -0.78376695247E+03  0.78419655910E+03  0.00000000000E+00 0.  1.
          1    1    3    3  501    0  0.70830201660E+00 -0.68506327566E+01 -0.16827508615E+03  0.16841596563E+03  0.00000000000E+00 0.  1.
         21    1    1    2  502  501 -0.81729589322E+01  0.31707953988E+02 -0.42050049624E+02  0.53295387016E+02  0.00000000000E+00 0.  1.
<mgrwt>
<rscale>  1 0.30000000E+03</rscale>
<asrwt>0</asrwt>
<pdfrwt beam="1">  1        1 0.21483361E-01 0.30000000E+03</pdfrwt>
<pdfrwt beam="2">0</pdfrwt>
<totfact> 0.26762428E+02</totfact>
</mgrwt>
</event>
<event>
 6    1  0.1956957E-002  0.3000000E+03  0.7818608E-02  0.1093470E+00
          1   -1    0    0  502    0  0.00000000000E+00  0.00000000000E+00  0.38625636285E+01  0.38625636285E+01  0.00000000000E+00 0.  1.
         13   -1    0    0    0    0 -0.00000000000E+00 -0.00000000000E+00 -0.10000000000E+04  0.10000000000E+04  0.00000000000E+00 0.  1.
    9000005    2    1    2  501    0  0.39576344210E+02  0.58868065381E+01 -0.88186395124E+03  0.88278667455E+03  0.52290298354E+01 0.  0.
         13    1    3    3    0    0  0.25144878809E+02  0.59243507740E+01 -0.59306074288E+03  0.59362311916E+03  0.00000000000E+00 0.  1.
          1    1    3    3  501    0  0.14431465401E+02 -0.37544235964E-01 -0.28880320836E+03  0.28916355539E+03  0.00000000000E+00 0.  1.
         21    1    1    2  502  501 -0.39576344210E+02 -0.58868065381E+01 -0.11427348513E+03  0.12107588908E+03  0.00000000000E+00 0.  1.
<mgrwt>
<rscale>  1 0.30000000E+03</rscale>
<asrwt>0</asrwt>
<pdfrwt beam="1">  1        1 0.14045716E-01 0.30000000E+03</pdfrwt>
<pdfrwt beam="2">0</pdfrwt>
<totfact> 0.47435285E+02</totfact>
</mgrwt>
</event>
<event>
 6    1  0.1956957E-002  0.3000000E+03  0.7818608E-02  0.1093470E+00
          3   -1    0    0  502    0  0.00000000000E+00  0.00000000000E+00  0.14006576106E+01  0.14006576106E+01  0.00000000000E+00 0.  1.
         13   -1    0    0    0    0 -0.00000000000E+00 -0.00000000000E+00 -0.10000000000E+04  0.10000000000E+04  0.00000000000E+00 0.  1.
    9000005    2    1    2  501    0  0.35657884568E+02 -0.47996672928E+01 -0.63464874102E+03  0.63567594998E+03  0.32198385446E+01 0.  0.
         13    1    3    3    0    0  0.97502993819E+01 -0.30923701298E+00 -0.15423874829E+03  0.15454693604E+03  0.00000000000E+00 0.  1.
          1    1    3    3  501    0  0.25907585186E+02 -0.44904302798E+01 -0.48040999273E+03  0.48112901393E+03  0.00000000000E+00 0.  1.
         21    1    1    2  502  501 -0.35657884568E+02  0.47996672928E+01 -0.36395060137E+03  0.36572470763E+03  0.00000000000E+00 0.  1.
<mgrwt>
<rscale>  1 0.30000000E+03</rscale>
<asrwt>0</asrwt>
<pdfrwt beam="1">  1        3 0.50933111E-02 0.30000000E+03</pdfrwt>
<pdfrwt beam="2">0</pdfrwt>
<totfact> 0.96154676E+02</totfact>
</mgrwt>
</event>
<event>
 6    1  0.1956957E-002  0.3000000E+03  0.7818608E-02  0.1093470E+00
          1   -1    0    0  502    0  0.00000000000E+00  0.00000000000E+00  0.12125532503E+01  0.12125532503E+01  0.00000000000E+00 0.  1.
         13   -1    0    0    0    0 -0.00000000000E+00 -0.00000000000E+00 -0.10000000000E+04  0.10000000000E+04  0.00000000000E+00 0.  1.
    9000005    2    1    2  501    0  0.46217438635E+01 -0.33626013967E+02 -0.60725084699E+03  0.60820749186E+03  0.32699611371E+01 0.  0.
         13    1    3    3    0    0  0.12276913504E+01 -0.43953480712E+01 -0.66341866039E+02  0.66498642846E+02  0.00000000000E+00 0.  1.
          1    1    3    3  501    0  0.33940525131E+01 -0.29230665895E+02 -0.54090898095E+03  0.54170884901E+03  0.00000000000E+00 0.  1.
         21    1    1    2  502  501 -0.46217438635E+01  0.33626013967E+02 -0.39153659976E+03  0.39300506139E+03  0.00000000000E+00 0.  1.
<mgrwt>
<rscale>  1 0.30000000E+03</rscale>
<asrwt>0</asrwt>
<pdfrwt beam="1">  1        1 0.44092938E-02 0.30000000E+03</pdfrwt>
<pdfrwt beam="2">0</pdfrwt>
<totfact> 0.23739574E+03</totfact>
</mgrwt>
</event>
<event>
 6    1  0.1956957E-002  0.3000000E+03  0.7818608E-02  0.1093470E+00
          1   -1    0    0  502    0  0.00000000000E+00  0.00000000000E+00  0.62606421262E+02  0.62606421262E+02  0.00000000000E+00 0.  1.
         13   -1    0    0    0    0 -0.00000000000E+00 -0.00000000000E+00 -0.10000000000E+04  0.10000000000E+04  0.00000000000E+00 0.  1.
    9000005    2    1    2  501    0 -0.10802389891E+02 -0.24974435268E+03 -0.49118567412E+03  0.55114730514E+03  0.33244818727E+01 0.  0.
         13    1    3    3    0    0 -0.10288770763E+02 -0.24649167714E+03 -0.48456809627E+03  0.54375568560E+03  0.00000000000E+00 0.  1.
          1    1    3    3  501    0 -0.51361912816E+00 -0.32526755322E+01 -0.66175778559E+01  0.73916195388E+01  0.00000000000E+00 0.  1.
         21    1    1    2  502  501  0.10802389891E+02  0.24974435268E+03 -0.44620790462E+03  0.51145911612E+03  0.00000000000E+00 0.  1.
<mgrwt>
<rscale>  1 0.30000000E+03</rscale>
<asrwt>0</asrwt>
<pdfrwt beam="1">  1        1 0.22766019E+00 0.30000000E+03</pdfrwt>
<pdfrwt beam="2">0</pdfrwt>
<totfact> 0.75894806E+00</totfact>
</mgrwt>
</event>
<event>
 6    1  0.1956957E-002  0.3000000E+03  0.7818608E-02  0.1093470E+00
          1   -1    0    0  502    0  0.00000000000E+00  0.00000000000E+00  0.64861346957E+01  0.64861346957E+01  0.00000000000E+00 0.  1.
         13   -1    0    0    0    0 -0.00000000000E+00 -0.00000000000E+00 -0.10000000000E+04  0.10000000000E+04  0.00000000000E+00 0.  1.
    9000005    2    1    2  501    0  0.26195487697E+02  0.47068143416E+02 -0.87076371673E+03  0.87243684273E+03  0.38704633957E+01 0.  0.
         13    1    3    3    0    0  0.68448256188E+01  0.14879890072E+02 -0.24448248346E+03  0.24503050317E+03  0.00000000000E+00 0.  1.
          1    1    3    3  501    0  0.19350662078E+02  0.32188253344E+02 -0.62628123327E+03  0.62740633956E+03  0.00000000000E+00 0.  1.
         21    1    1    2  502  501 -0.26195487697E+02 -0.47068143416E+02 -0.12275014858E+03  0.13404929196E+03  0.00000000000E+00 0.  1.
<mgrwt>
<rscale>  1 0.30000000E+03</rscale>
<asrwt>0</asrwt>
<pdfrwt beam="1">  1        1 0.23585994E-01 0.30000000E+03</pdfrwt>
<pdfrwt beam="2">0</pdfrwt>
<totfact> 0.23645453E+02</totfact>
</mgrwt>
</event>
<event>
 6    1  0.1956957E-002  0.3000000E+03  0.7818608E-02  0.1093470E+00
          1   -1    0    0  502    0  0.00000000000E+00  0.00000000000E+00  0.96222925834E+01  0.96222925834E+01  0.00000000000E+00 0.  1.
         13   -1    0    0    0    0 -0.00000000000E+00 -0.00000000000E+00 -0.10000000000E+04  0.10000000000E+04  0.00000000000E+00 0.  1.
    9000005    2    1    2  501    0  0.28720319526E+02 -0.22923367032E+02 -0.96322655195E+03  0.96393287638E+03  0.32957963181E+01 0.  0.
         13    1    3    3    0    0  0.27356299389E+02 -0.21450838870E+02 -0.88963245283E+03  0.89031140998E+03  0.00000000000E+00 0.  1.
          1    1    3    3  501    0  0.13640201373E+01 -0.14725281619E+01 -0.73594099121E+02  0.73621466405E+02  0.00000000000E+00 0.  1.
         21    1    1    2  502  501 -0.28720319526E+02  0.22923367032E+02 -0.27151155463E+02  0.45689416201E+02  0.00000000000E+00 0.  1.
<mgrwt>
<rscale>  1 0.30000000E+03</rscale>
<asrwt>0</asrwt>
<pdfrwt beam="1">  1        1 0.34990229E-01 0.30000000E+03</pdfrwt>
<pdfrwt beam="2">0</pdfrwt>
<totfact> 0.14077330E+02</totfact>
</mgrwt>
</event>
<event>
 6    1  0.1956957E-002  0.3000000E+03  0.7818608E-02  0.1093470E+00
          1   -1    0    0  502    0  0.00000000000E+00  0.00000000000E+00  0.23116894162E+01  0.23116894162E+01  0.00000000000E+00 0.  1.
         13   -1    0    0    0    0 -0.00000000000E+00 -0.00000000000E+00 -0.10000000000E+04  0.10000000000E+04  0.00000000000E+00 0.  1.
    9000005    2    1    2  501    0 -0.16625603859E+02  0.43180159681E+02 -0.36633615487E+03  0.36926628708E+03  0.38046702386E+01 0.  0.
         13    1    3    3    0    0 -0.12251211842E+02  0.35534044143E+02 -0.30190049598E+03  0.30423127708E+03  0.00000000000E+00 0.  1.
          3    1    3    3  501    0 -0.43743920173E+01  0.76461155377E+01 -0.64435658893E+02  0.65035009997E+02  0.00000000000E+00 0.  1.
         21    1    1    2  502  501  0.16625603859E+02 -0.43180159681E+02 -0.63135215572E+03  0.63304540234E+03  0.00000000000E+00 0.  1.
<mgrwt>
<rscale>  1 0.30000000E+03</rscale>
<asrwt>0</asrwt>
<pdfrwt beam="1">  1        1 0.84061611E-02 0.30000000E+03</pdfrwt>
<pdfrwt beam="2">0</pdfrwt>
<totfact> 0.96128301E+02</totfact>
</mgrwt>
</event>
<event>
 6    1  0.1956957E-002  0.3000000E+03  0.7818608E-02  0.1093470E+00
          1   -1    0    0  502    0  0.00000000000E+00  0.00000000000E+00  0.94359990883E+00  0.94359990883E+00  0.00000000000E+00 0.  1.
         13   -1    0    0    0    0 -0.00000000000E+00 -0.00000000000E+00 -0.10000000000E+04  0.10000000000E+04  0.00000000000E+00 0.  1.
    9000005    2    1    2  501    0 -0.74679370939E+01 -0.29139320487E+02 -0.59143823375E+03  0.59221699249E+03  0.41123918358E+01 0.  0.
         13    1    3    3    0    0 -0.55896419087E+01 -0.24393448401E+02 -0.46076159267E+03  0.46144071093E+03  0.00000000000E+00 0.  1.
          3    1    3    3  501    0 -0.18782951852E+01 -0.47458720859E+01 -0.13067664108E+03  0.13077628156E+03  0.00000000000E+00 0.  1.
         21    1    1    2  502  501  0.74679370939E+01  0.29139320487E+02 -0.40761816634E+03  0.40872660742E+03  0.00000000000E+00 0.  1.
<mgrwt>
<rscale>  1 0.30000000E+03</rscale>
<asrwt>0</asrwt>
<pdfrwt beam="1">  1        1 0.34312796E-02 0.30000000E+03</pdfrwt>
<pdfrwt beam="2">0</pdfrwt>
<totfact> 0.33788041E+03</totfact>
</mgrwt>
</event>
<event>
 6    1  0.1956957E-002  0.3000000E+03  0.7818608E-02  0.1093470E+00
          1   -1    0    0  502    0  0.00000000000E+00  0.00000000000E+00  0.66568548080E+01  0.66568548080E+01  0.00000000000E+00 0.  1.
         13   -1    0    0    0    0 -0.00000000000E+00 -0.00000000000E+00 -0.10000000000E+04  0.10000000000E+04  0.00000000000E+00 0.  1.
    9000005    2    1    2  501    0  0.50079968599E+02  0.33139649117E+02 -0.83730065953E+03  0.83945788074E+03  0.33014369286E+01 0.  0.
         13    1    3    3    0    0  0.21409773743E+02  0.13950740606E+02 -0.37911908345E+03  0.37997931656E+03  0.00000000000E+00 0.  1.
          3    1    3    3  501    0  0.28670194856E+02  0.19188908512E+02 -0.45818157608E+03  0.45947856418E+03  0.00000000000E+00 0.  1.
         21    1    1    2  502  501 -0.50079968599E+02 -0.33139649117E+02 -0.15604248566E+03  0.16719897407E+03  0.00000000000E+00 0.  1.
<mgrwt>
<rscale>  1 0.30000000E+03</rscale>
<asrwt>0</asrwt>
<pdfrwt beam="1">  1        1 0.24206796E-01 0.30000000E+03</pdfrwt>
<pdfrwt beam="2">0</pdfrwt>
<totfact> 0.22846726E+02</totfact>
</mgrwt>
</event>
<event>
 6    1  0.1956957E-002  0.3000000E+03  0.7818608E-02  0.1093470E+00
          1   -1    0    0  502    0  0.00000000000E+00  0.00000000000E+00  0.39631008265E+01  0.39631008265E+01  0.00000000000E+00 0.  1.
         13   -1    0    0    0    0 -0.00000000000E+00 -0.00000000000E+00 -0.10000000000E+04  0.10000000000E+04  0.00000000000E+00 0.  1.
    9000005    2    1    2  501    0  0.51962046776E+02  0.34183237166E+02 -0.57410639211E+03  0.57747288898E+03  0.28705468826E+01 0.  0.
         13    1    3    3    0    0  0.34008017630E+02  0.23265200135E+02 -0.36955196876E+03  0.37184199927E+03  0.00000000000E+00 0.  1.
          1    1    3    3  501    0  0.17954029146E+02  0.10918037031E+02 -0.20455442334E+03  0.20563088971E+03  0.00000000000E+00 0.  1.
         21    1    1    2  502  501 -0.51962046776E+02 -0.34183237166E+02 -0.42193050707E+03  0.42649021185E+03  0.00000000000E+00 0.  1.
<mgrwt>
<rscale>  1 0.30000000E+03</rscale>
<asrwt>0</asrwt>
<pdfrwt beam="1">  1        1 0.14411306E-01 0.30000000E+03</pdfrwt>
<pdfrwt beam="2">0</pdfrwt>
<totfact> 0.45805586E+02</totfact>
</mgrwt>
</event>
<event>
 6    1  0.1956957E-002  0.3000000E+03  0.7818608E-02  0.1093470E+00
          1   -1    0    0  502    0  0.00000000000E+00  0.00000000000E+00  0.79356414370E+01  0.79356414370E+01  0.00000000000E+00 0.  1.
         13   -1    0    0    0    0 -0.00000000000E+00 -0.00000000000E+00 -0.10000000000E+04  0.10000000000E+04  0.00000000000E+00 0.  1.
    9000005    2    1    2  501    0 -0.49326396078E+02  0.11961908948E+02 -0.91015712221E+03  0.91157706121E+03  0.32512776506E+01 0.  0.
         13    1    3    3    0    0 -0.12651339512E+02  0.34512100393E+01 -0.21132497106E+03  0.21173145878E+03  0.00000000000E+00 0.  1.
          3    1    3    3  501    0 -0.36675056565E+02  0.85106989091E+01 -0.69883215115E+03  0.69984560243E+03  0.00000000000E+00 0.  1.
         21    1    1    2  502  501  0.49326396078E+02 -0.11961908948E+02 -0.81907236356E+02  0.96358580226E+02  0.00000000000E+00 0.  1.
<mgrwt>
<rscale>  1 0.30000000E+03</rscale>
<asrwt>0</asrwt>
<pdfrwt beam="1">  1        1 0.28856939E-01 0.30000000E+03</pdfrwt>
<pdfrwt beam="2">0</pdfrwt>
<totfact> 0.18122409E+02</totfact>
</mgrwt>
</event>
<event>
 6    1  0.1956957E-002  0.3000000E+03  0.7818608E-02  0.1093470E+00
          1   -1    0    0  502    0  0.00000000000E+00  0.00000000000E+00  0.19471267718E+01  0.19471267718E+01  0.00000000000E+00 0.  1.
         13   -1    0    0    0    0 -0.00000000000E+00 -0.00000000000E+00 -0.10000000000E+04  0.10000000000E+04  0.00000000000E+00 0.  1.
    9000005    2    1    2  501    0  0.41431172132E+02  0.60839716415E+01 -0.65564591243E+03  0.65698903723E+03  0.30782824901E+01 0.  0.
         13    1    3    3    0    0  0.32270212711E+02  0.37766382220E+01 -0.49398880309E+03  0.49505612531E+03  0.00000000000E+00 0.  1.
          3    1    3    3  501    0  0.91609594216E+01  0.23073334196E+01 -0.16165710934E+03  0.16193291193E+03  0.00000000000E+00 0.  1.
         21    1    1    2  502  501 -0.41431172132E+02 -0.60839716415E+01 -0.34240696080E+03  0.34495808954E+03  0.00000000000E+00 0.  1.
<mgrwt>
<rscale>  1 0.30000000E+03</rscale>
<asrwt>0</asrwt>
<pdfrwt beam="1">  1        1 0.70804759E-02 0.30000000E+03</pdfrwt>
<pdfrwt beam="2">0</pdfrwt>
<totfact> 0.12211385E+03</totfact>
</mgrwt>
</event>
<event>
 6    1  0.1956957E-002  0.3000000E+03  0.7818608E-02  0.1093470E+00
          1   -1    0    0  502    0  0.00000000000E+00  0.00000000000E+00  0.95611336265E+01  0.95611336265E+01  0.00000000000E+00 0.  1.
         13   -1    0    0    0    0 -0.00000000000E+00 -0.00000000000E+00 -0.10000000000E+04  0.10000000000E+04  0.00000000000E+00 0.  1.
    9000005    2    1    2  501    0  0.28190979128E+02  0.47435258456E+02 -0.91174963682E+03  0.91345270582E+03  0.79756170184E+01 0.  0.
         13    1    3    3    0    0  0.14161630743E+02  0.17783727165E+02 -0.41344983931E+03  0.41407436815E+03  0.00000000000E+00 0.  1.
          1    1    3    3  501    0  0.14029348385E+02  0.29651531291E+02 -0.49829979751E+03  0.49937833766E+03  0.00000000000E+00 0.  1.
         21    1    1    2  502  501 -0.28190979128E+02 -0.47435258456E+02 -0.78689229551E+02  0.96108427811E+02  0.00000000000E+00 0.  1.
<mgrwt>
<rscale>  1 0.30000000E+03</rscale>
<asrwt>0</asrwt>
<pdfrwt beam="1">  1        1 0.34767832E-01 0.30000000E+03</pdfrwt>
<pdfrwt beam="2">0</pdfrwt>
<totfact> 0.14195145E+02</totfact>
</mgrwt>
</event>
<event>
 6    1  0.1956957E-002  0.3000000E+03  0.7818608E-02  0.1093470E+00
          1   -1    0    0  502    0  0.00000000000E+00  0.00000000000E+00  0.12840795665E+01  0.12840795665E+01  0.00000000000E+00 0.  1.
         13   -1    0    0    0    0 -0.00000000000E+00 -0.00000000000E+00 -0.10000000000E+04  0.10000000000E+04  0.00000000000E+00 0.  1.
    9000005    2    1    2  501    0 -0.34507180684E+02 -0.82965556886E+01 -0.43828150126E+03  0.43972703300E+03  0.31001368548E+01 0.  0.
         13    1    3    3    0    0 -0.24953192377E+02 -0.46286628318E+01 -0.31763292417E+03  0.31864519586E+03  0.00000000000E+00 0.  1.
          3    1    3    3  501    0 -0.95539883070E+01 -0.36678928568E+01 -0.12064857709E+03  0.12108183714E+03  0.00000000000E+00 0.  1.
         21    1    1    2  502  501  0.34507180684E+02  0.82965556886E+01 -0.56043441917E+03  0.56155704657E+03  0.00000000000E+00 0.  1.
<mgrwt>
<rscale>  1 0.30000000E+03</rscale>
<asrwt>0</asrwt>
<pdfrwt beam="1">  1        1 0.46693901E-02 0.30000000E+03</pdfrwt>
<pdfrwt beam="2">0</pdfrwt>
<totfact> 0.21900082E+03</totfact>
</mgrwt>
</event>
<event>
 6    1  0.1956957E-002  0.3000000E+03  0.7818608E-02  0.1093470E+00
          1   -1    0    0  502    0  0.00000000000E+00  0.00000000000E+00  0.17436752000E+01  0.17436752000E+01  0.00000000000E+00 0.  1.
         13   -1    0    0    0    0 -0.00000000000E+00 -0.00000000000E+00 -0.10000000000E+04  0.10000000000E+04  0.00000000000E+00 0.  1.
    9000005    2    1    2  501    0  0.38524517640E+02 -0.13058414997E+02 -0.60743798348E+03  0.60881411845E+03  0.43665064875E+01 0.  0.
         13    1    3    3    0    0  0.75044384581E+01 -0.17416630157E+01 -0.13949962794E+03  0.13971219053E+03  0.00000000000E+00 0.  1.
          1    1    3    3  501    0  0.31020079181E+02 -0.11316751982E+02 -0.46793835554E+03  0.46910192792E+03  0.00000000000E+00 0.  1.
         21    1    1    2  502  501 -0.38524517640E+02  0.13058414997E+02 -0.39081834132E+03  0.39292955675E+03  0.00000000000E+00 0.  1.
<mgrwt>
<rscale>  1 0.30000000E+03</rscale>
<asrwt>0</asrwt>
<pdfrwt beam="1">  1        1 0.63406505E-02 0.30000000E+03</pdfrwt>
<pdfrwt beam="2">0</pdfrwt>
<totfact> 0.14251177E+03</totfact>
</mgrwt>
</event>
<event>
 6    1  0.1956957E-002  0.3000000E+03  0.7818608E-02  0.1093470E+00
          1   -1    0    0  502    0  0.00000000000E+00  0.00000000000E+00  0.52675946538E+01  0.52675946538E+01  0.00000000000E+00 0.  1.
         13   -1    0    0    0    0 -0.00000000000E+00 -0.00000000000E+00 -0.10000000000E+04  0.10000000000E+04  0.00000000000E+00 0.  1.
    9000005    2    1    2  501    0  0.25486886291E+02  0.37982748111E+02 -0.88755486668E+03  0.88873736115E+03  0.28609790576E+01 0.  0.
         13    1    3    3    0    0  0.23464437134E+01  0.27704960682E+01 -0.58652718115E+02  0.58764979272E+02  0.00000000000E+00 0.  1.
          3    1    3    3  501    0  0.23140442578E+02  0.35212252043E+02 -0.82890214857E+03  0.82997238188E+03  0.00000000000E+00 0.  1.
         21    1    1    2  502  501 -0.25486886291E+02 -0.37982748111E+02 -0.10717753866E+03  0.11653023350E+03  0.00000000000E+00 0.  1.
<mgrwt>
<rscale>  1 0.30000000E+03</rscale>
<asrwt>0</asrwt>
<pdfrwt beam="1">  1        1 0.19154930E-01 0.30000000E+03</pdfrwt>
<pdfrwt beam="2">0</pdfrwt>
<totfact> 0.31193391E+02</totfact>
</mgrwt>
</event>
<event>
 6    1  0.1956957E-002  0.3000000E+03  0.7818608E-02  0.1093470E+00
          1   -1    0    0  502    0  0.00000000000E+00  0.00000000000E+00  0.50068290231E+01  0.50068290231E+01  0.00000000000E+00 0.  1.
         13   -1    0    0    0    0 -0.00000000000E+00 -0.00000000000E+00 -0.10000000000E+04  0.10000000000E+04  0.00000000000E+00 0.  1.
    9000005    2    1    2  501    0 -0.32419264793E+02  0.62833973875E+02 -0.48794210670E+03  0.49304989842E+03  0.34037984423E+01 0.  0.
         13    1    3    3    0    0 -0.60812998977E+00  0.20378813160E+01 -0.11973250726E+02  0.12160654394E+02  0.00000000000E+00 0.  1.
          3    1    3    3  501    0 -0.31811134804E+02  0.60796092559E+02 -0.47596885597E+03  0.48088924403E+03  0.00000000000E+00 0.  1.
         21    1    1    2  502  501  0.32419264793E+02 -0.62833973875E+02 -0.50705106428E+03  0.51195693060E+03  0.00000000000E+00 0.  1.
<mgrwt>
<rscale>  1 0.30000000E+03</rscale>
<asrwt>0</asrwt>
<pdfrwt beam="1">  1        1 0.18206689E-01 0.30000000E+03</pdfrwt>
<pdfrwt beam="2">0</pdfrwt>
<totfact> 0.33392313E+02</totfact>
</mgrwt>
</event>
<event>
 6    1  0.1956957E-002  0.3000000E+03  0.7818608E-02  0.1093470E+00
          1   -1    0    0  502    0  0.00000000000E+00  0.00000000000E+00  0.22774535348E+01  0.22774535348E+01  0.00000000000E+00 0.  1.
         13   -1    0    0    0    0 -0.00000000000E+00 -0.00000000000E+00 -0.10000000000E+04  0.10000000000E+04  0.00000000000E+00 0.  1.
    9000005    2    1    2  501    0 -0.67308463422E+01 -0.31408706681E+02 -0.86916884345E+03  0.86977135667E+03  0.39904020515E+01 0.  0.
         13    1    3    3    0    0 -0.62774277779E+01 -0.30506826970E+02 -0.85472178639E+03  0.85528907670E+03  0.00000000000E+00 0.  1.
          3    1    3    3  501    0 -0.45341856428E+00 -0.90187971133E+00 -0.14447057061E+02  0.14482279970E+02  0.00000000000E+00 0.  1.
         21    1    1    2  502  501  0.67308463422E+01  0.31408706681E+02 -0.12855370301E+03  0.13250609687E+03  0.00000000000E+00 0.  1.
<mgrwt>
<rscale>  1 0.30000000E+03</rscale>
<asrwt>0</asrwt>
<pdfrwt beam="1">  1        1 0.82816667E-02 0.30000000E+03</pdfrwt>
<pdfrwt beam="2">0</pdfrwt>
<totfact> 0.98143116E+02</totfact>
</mgrwt>
</event>
<event>
 6    1  0.1956957E-002  0.3000000E+03  0.7818608E-02  0.1093470E+00
          3   -1    0    0  502    0  0.00000000000E+00  0.00000000000E+00  0.13385918867E+01  0.13385918867E+01  0.00000000000E+00 0.  1.
         13   -1    0    0    0    0 -0.00000000000E+00 -0.00000000000E+00 -0.10000000000E+04  0.10000000000E+04  0.00000000000E+00 0.  1.
    9000005    2    1    2  501    0 -0.21489231063E+02 -0.22626340073E+02 -0.23971845626E+03  0.24175440137E+03  0.25522524859E+01 0.  0.
         13    1    3    3    0    0 -0.11785866250E+02 -0.12956243983E+02 -0.14376075712E+03  0.14482377632E+03  0.00000000000E+00 0.  1.
          1    1    3    3  501    0 -0.97033648138E+01 -0.96700960899E+01 -0.95957699139E+02  0.96930625043E+02  0.00000000000E+00 0.  1.
         21    1    1    2  502  501  0.21489231063E+02  0.22626340073E+02 -0.75894295186E+03  0.75958419052E+03  0.00000000000E+00 0.  1.
<mgrwt>
<rscale>  1 0.30000000E+03</rscale>
<asrwt>0</asrwt>
<pdfrwt beam="1">  1        3 0.48676171E-02 0.30000000E+03</pdfrwt>
<pdfrwt beam="2">0</pdfrwt>
<totfact> 0.10312305E+03</totfact>
</mgrwt>
</event>
<event>
 6    1  0.1956957E-002  0.3000000E+03  0.7818608E-02  0.1093470E+00
          1   -1    0    0  502    0  0.00000000000E+00  0.00000000000E+00  0.32925379023E+01  0.32925379023E+01  0.00000000000E+00 0.  1.
         13   -1    0    0    0    0 -0.00000000000E+00 -0.00000000000E+00 -0.10000000000E+04  0.10000000000E+04  0.00000000000E+00 0.  1.
    9000005    2    1    2  501    0 -0.25223616842E+02 -0.41426476874E+02 -0.76600034653E+03  0.76754233747E+03  0.35107098653E+01 0.  0.
         13    1    3    3    0    0 -0.11790838221E+02 -0.19816176363E+02 -0.33683048948E+03  0.33761884331E+03  0.00000000000E+00 0.  1.
          1    1    3    3  501    0 -0.13432778621E+02 -0.21610300511E+02 -0.42916985705E+03  0.42992349416E+03  0.00000000000E+00 0.  1.
         21    1    1    2  502  501  0.25223616842E+02  0.41426476874E+02 -0.23070711557E+03  0.23575020044E+03  0.00000000000E+00 0.  1.
<mgrwt>
<rscale>  1 0.30000000E+03</rscale>
<asrwt>0</asrwt>
<pdfrwt beam="1">  1        1 0.11972890E-01 0.30000000E+03</pdfrwt>
<pdfrwt beam="2">0</pdfrwt>
<totfact> 0.58999892E+02</totfact>
</mgrwt>
</event>
<event>
 6    1  0.1956957E-002  0.3000000E+03  0.7818608E-02  0.1093470E+00
          3   -1    0    0  502    0  0.00000000000E+00  0.00000000000E+00  0.20924444072E+01  0.20924444072E+01  0.00000000000E+00 0.  1.
         13   -1    0    0    0    0 -0.00000000000E+00 -0.00000000000E+00 -0.10000000000E+04  0.10000000000E+04  0.00000000000E+00 0.  1.
    9000005    2    1    2  501    0  0.32833617197E+02  0.11737633702E+02 -0.82300802973E+03  0.82375102294E+03  0.27771091439E+01 0.  0.
         13    1    3    3    0    0  0.46280690523E+01  0.11142660471E+01 -0.13262708093E+03  0.13271248325E+03  0.00000000000E+00 0.  1.
          3    1    3    3  501    0  0.28205548144E+02  0.10623367655E+02 -0.69038094879E+03  0.69103853969E+03  0.00000000000E+00 0.  1.
         21    1    1    2  502  501 -0.32833617197E+02 -0.11737633702E+02 -0.17489952587E+03  0.17834142147E+03  0.00000000000E+00 0.  1.
<mgrwt>
<rscale>  1 0.30000000E+03</rscale>
<asrwt>0</asrwt>
<pdfrwt beam="1">  1        3 0.76089048E-02 0.30000000E+03</pdfrwt>
<pdfrwt beam="2">0</pdfrwt>
<totfact> 0.51329669E+02</totfact>
</mgrwt>
</event>
<event>
 6    1  0.1956957E-002  0.3000000E+03  0.7818608E-02  0.1093470E+00
          1   -1    0    0  502    0  0.00000000000E+00  0.00000000000E+00  0.83928889560E+01  0.83928889560E+01  0.00000000000E+00 0.  1.
         13   -1    0    0    0    0 -0.00000000000E+00 -0.00000000000E+00 -0.10000000000E+04  0.10000000000E+04  0.00000000000E+00 0.  1.
    9000005    2    1    2  501    0 -0.19815218313E+02  0.35991262495E+02 -0.94643349534E+03  0.94733005731E+03  0.31404663337E+01 0.  0.
         13    1    3    3    0    0 -0.11440313277E+02  0.19369556016E+02 -0.48534941211E+03  0.48587046865E+03  0.00000000000E+00 0.  1.
          1    1    3    3  501    0 -0.83749050354E+01  0.16621706478E+02 -0.46108408323E+03  0.46145958866E+03  0.00000000000E+00 0.  1.
         21    1    1    2  502  501  0.19815218313E+02 -0.35991262495E+02 -0.45173615701E+02  0.61062831643E+02  0.00000000000E+00 0.  1.
<mgrwt>
<rscale>  1 0.30000000E+03</rscale>
<asrwt>0</asrwt>
<pdfrwt beam="1">  1        1 0.30519661E-01 0.30000000E+03</pdfrwt>
<pdfrwt beam="2">0</pdfrwt>
<totfact> 0.16838025E+02</totfact>
</mgrwt>
</event>
<event>
 6    1  0.1956957E-002  0.3000000E+03  0.7818608E-02  0.1093470E+00
          3   -1    0    0  502    0  0.00000000000E+00  0.00000000000E+00  0.12458425447E+01  0.12458425447E+01  0.00000000000E+00 0.  1.
         13   -1    0    0    0    0 -0.00000000000E+00 -0.00000000000E+00 -0.10000000000E+04  0.10000000000E+04  0.00000000000E+00 0.  1.
    9000005    2    1    2  501    0 -0.15093211635E+02 -0.31357827369E+02 -0.57349542298E+03  0.57456550597E+03  0.41715816013E+01 0.  0.
         13    1    3    3    0    0 -0.99899324728E+01 -0.17989920035E+02 -0.36508669713E+03  0.36566614882E+03  0.00000000000E+00 0.  1.
          1    1    3    3  501    0 -0.51032791623E+01 -0.13367907334E+02 -0.20840872585E+03  0.20889935715E+03  0.00000000000E+00 0.  1.
         21    1    1    2  502  501  0.15093211635E+02  0.31357827369E+02 -0.42525873448E+03  0.42668033658E+03  0.00000000000E+00 0.  1.
<mgrwt>
<rscale>  1 0.30000000E+03</rscale>
<asrwt>0</asrwt>
<pdfrwt beam="1">  1        3 0.45303461E-02 0.30000000E+03</pdfrwt>
<pdfrwt beam="2">0</pdfrwt>
<totfact> 0.11520844E+03</totfact>
</mgrwt>
</event>
<event>
 6    1  0.1956957E-002  0.3000000E+03  0.7818608E-02  0.1093470E+00
          3   -1    0    0  502    0  0.00000000000E+00  0.00000000000E+00  0.47025254787E+01  0.47025254787E+01  0.00000000000E+00 0.  1.
         13   -1    0    0    0    0 -0.00000000000E+00 -0.00000000000E+00 -0.10000000000E+04  0.10000000000E+04  0.00000000000E+00 0.  1.
    9000005    2    1    2  501    0 -0.13080802790E+02  0.36395762957E+02 -0.91242036930E+03  0.91324557641E+03  0.32853551095E+01 0.  0.
         13    1    3    3    0    0 -0.12328759174E+02  0.35531848468E+02 -0.89277228829E+03  0.89356413832E+03  0.00000000000E+00 0.  1.
          1    1    3    3  501    0 -0.75204361570E+00  0.86391448989E+00 -0.19648081014E+02  0.19681438093E+02  0.00000000000E+00 0.  1.
         21    1    1    2  502  501  0.13080802790E+02 -0.36395762957E+02 -0.82877105221E+02  0.91456949067E+02  0.00000000000E+00 0.  1.
<mgrwt>
<rscale>  1 0.30000000E+03</rscale>
<asrwt>0</asrwt>
<pdfrwt beam="1">  1        3 0.17100129E-01 0.30000000E+03</pdfrwt>
<pdfrwt beam="2">0</pdfrwt>
<totfact> 0.13232962E+02</totfact>
</mgrwt>
</event>
<event>
 6    1  0.1956957E-002  0.3000000E+03  0.7818608E-02  0.1093470E+00
          1   -1    0    0  502    0  0.00000000000E+00  0.00000000000E+00  0.52279590545E+01  0.52279590545E+01  0.00000000000E+00 0.  1.
         13   -1    0    0    0    0 -0.00000000000E+00 -0.00000000000E+00 -0.10000000000E+04  0.10000000000E+04  0.00000000000E+00 0.  1.
    9000005    2    1    2  501    0 -0.72073080352E+02  0.34733524180E+01 -0.46970260722E+03  0.47522371066E+03  0.32315400859E+01 0.  0.
         13    1    3    3    0    0 -0.48415053383E+02  0.86733311142E+00 -0.31755830205E+03  0.32122896019E+03  0.00000000000E+00 0.  1.
          3    1    3    3  501    0 -0.23658026969E+02  0.26060193066E+01 -0.15214430517E+03  0.15399475047E+03  0.00000000000E+00 0.  1.
         21    1    1    2  502  501  0.72073080352E+02 -0.34733524180E+01 -0.52506943372E+03  0.53000424839E+03  0.00000000000E+00 0.  1.
<mgrwt>
<rscale>  1 0.30000000E+03</rscale>
<asrwt>0</asrwt>
<pdfrwt beam="1">  1        1 0.19010800E-01 0.30000000E+03</pdfrwt>
<pdfrwt beam="2">0</pdfrwt>
<totfact> 0.31510767E+02</totfact>
</mgrwt>
</event>
<event>
 6    1  0.1956957E-002  0.3000000E+03  0.7818608E-02  0.1093470E+00
          1   -1    0    0  502    0  0.00000000000E+00  0.00000000000E+00  0.12432880110E+02  0.12432880110E+02  0.00000000000E+00 0.  1.
         13   -1    0    0    0    0 -0.00000000000E+00 -0.00000000000E+00 -0.10000000000E+04  0.10000000000E+04  0.00000000000E+00 0.  1.
    9000005    2    1    2  501    0 -0.82920405739E+02  0.73981932309E+02 -0.53382151108E+03  0.54527744825E+03  0.36013730606E+01 0.  0.
         13    1    3    3    0    0 -0.55231111335E+02  0.51524162247E+02 -0.36206232489E+03  0.36985719144E+03  0.00000000000E+00 0.  1.
          3    1    3    3  501    0 -0.27689294404E+02  0.22457770062E+02 -0.17175918619E+03  0.17542025682E+03  0.00000000000E+00 0.  1.
         21    1    1    2  502  501  0.82920405739E+02 -0.73981932309E+02 -0.45374560881E+03  0.46715543185E+03  0.00000000000E+00 0.  1.
<mgrwt>
<rscale>  1 0.30000000E+03</rscale>
<asrwt>0</asrwt>
<pdfrwt beam="1">  1        1 0.45210568E-01 0.30000000E+03</pdfrwt>
<pdfrwt beam="2">0</pdfrwt>
<totfact> 0.10070275E+02</totfact>
</mgrwt>
</event>
<event>
 6    1  0.1956957E-002  0.3000000E+03  0.7818608E-02  0.1093470E+00
          1   -1    0    0  502    0  0.00000000000E+00  0.00000000000E+00  0.51935846006E+01  0.51935846006E+01  0.00000000000E+00 0.  1.
         13   -1    0    0    0    0 -0.00000000000E+00 -0.00000000000E+00 -0.10000000000E+04  0.10000000000E+04  0.00000000000E+00 0.  1.
    9000005    2    1    2  501    0  0.27603290874E+02  0.16233180552E+02 -0.94763889839E+03  0.94818277441E+03  0.23736315858E+01 0.  0.
         13    1    3    3    0    0  0.21741875219E+02  0.12491860288E+02 -0.76847464714E+03  0.76888363164E+03  0.00000000000E+00 0.  1.
          3    1    3    3  501    0  0.58614156550E+01  0.37413202636E+01 -0.17916425125E+03  0.17929914277E+03  0.00000000000E+00 0.  1.
         21    1    1    2  502  501 -0.27603290874E+02 -0.16233180552E+02 -0.47167517014E+02  0.57010810195E+02  0.00000000000E+00 0.  1.
<mgrwt>
<rscale>  1 0.30000000E+03</rscale>
<asrwt>0</asrwt>
<pdfrwt beam="1">  1        1 0.18885802E-01 0.30000000E+03</pdfrwt>
<pdfrwt beam="2">0</pdfrwt>
<totfact> 0.31790704E+02</totfact>
</mgrwt>
</event>
<event>
 6    1  0.1956957E-002  0.3000000E+03  0.7818608E-02  0.1093470E+00
          3   -1    0    0  502    0  0.00000000000E+00  0.00000000000E+00  0.15501408278E+01  0.15501408278E+01  0.00000000000E+00 0.  1.
         13   -1    0    0    0    0 -0.00000000000E+00 -0.00000000000E+00 -0.10000000000E+04  0.10000000000E+04  0.00000000000E+00 0.  1.
    9000005    2    1    2  501    0  0.35882228196E+02 -0.14226528728E+02 -0.40702190770E+03  0.40886392520E+03  0.35982714193E+01 0.  0.
         13    1    3    3    0    0  0.28900182233E+02 -0.10487298836E+02 -0.33501880159E+03  0.33642651707E+03  0.00000000000E+00 0.  1.
          1    1    3    3  501    0  0.69820459624E+01 -0.37392298921E+01 -0.72003106116E+02  0.72437408129E+02  0.00000000000E+00 0.  1.
         21    1    1    2  502  501 -0.35882228196E+02  0.14226528728E+02 -0.59142795147E+03  0.59268621563E+03  0.00000000000E+00 0.  1.
<mgrwt>
<rscale>  1 0.30000000E+03</rscale>
<asrwt>0</asrwt>
<pdfrwt beam="1">  1        3 0.56368876E-02 0.30000000E+03</pdfrwt>
<pdfrwt beam="2">0</pdfrwt>
<totfact> 0.82184454E+02</totfact>
</mgrwt>
</event>
<event>
 6    1  0.1956957E-002  0.3000000E+03  0.7818608E-02  0.1093470E+00
          3   -1    0    0  502    0  0.00000000000E+00  0.00000000000E+00  0.31609512341E+01  0.31609512341E+01  0.00000000000E+00 0.  1.
         13   -1    0    0    0    0 -0.00000000000E+00 -0.00000000000E+00 -0.10000000000E+04  0.10000000000E+04  0.00000000000E+00 0.  1.
    9000005    2    1    2  501    0  0.26372484428E+01  0.39321705093E+02 -0.85587808559E+03  0.85679447724E+03  0.40407004931E+01 0.  0.
         13    1    3    3    0    0  0.19911281197E+01  0.68134329928E+01 -0.15781198039E+03  0.15797154369E+03  0.00000000000E+00 0.  1.
          1    1    3    3  501    0  0.64612032309E+00  0.32508272100E+02 -0.69806610520E+03  0.69882293355E+03  0.00000000000E+00 0.  1.
         21    1    1    2  502  501 -0.26372484428E+01 -0.39321705093E+02 -0.14096096318E+03  0.14636647400E+03  0.00000000000E+00 0.  1.
<mgrwt>
<rscale>  1 0.30000000E+03</rscale>
<asrwt>0</asrwt>
<pdfrwt beam="1">  1        3 0.11494392E-01 0.30000000E+03</pdfrwt>
<pdfrwt beam="2">0</pdfrwt>
<totfact> 0.26191670E+02</totfact>
</mgrwt>
</event>
<event>
 6    1  0.1956957E-002  0.3000000E+03  0.7818608E-02  0.1093470E+00
          3   -1    0    0  502    0  0.00000000000E+00  0.00000000000E+00  0.66826822147E+01  0.66826822147E+01  0.00000000000E+00 0.  1.
         13   -1    0    0    0    0 -0.00000000000E+00 -0.00000000000E+00 -0.10000000000E+04  0.10000000000E+04  0.00000000000E+00 0.  1.
    9000005    2    1    2  501    0  0.38831252987E+02  0.38391162525E+02 -0.87110825603E+03  0.87282902203E+03  0.43772609360E+01 0.  0.
         13    1    3    3    0    0  0.32262241031E+02  0.30737363876E+02 -0.73267517124E+03  0.73402898055E+03  0.00000000000E+00 0.  1.
          1    1    3    3  501    0  0.65690119568E+01  0.76537986496E+01 -0.13843308479E+03  0.13880004149E+03  0.00000000000E+00 0.  1.
         21    1    1    2  502  501 -0.38831252987E+02 -0.38391162525E+02 -0.12220906176E+03  0.13385366018E+03  0.00000000000E+00 0.  1.
<mgrwt>
<rscale>  1 0.30000000E+03</rscale>
<asrwt>0</asrwt>
<pdfrwt beam="1">  1        3 0.24300714E-01 0.30000000E+03</pdfrwt>
<pdfrwt beam="2">0</pdfrwt>
<totfact> 0.69629842E+01</totfact>
</mgrwt>
</event>
<event>
 6    1  0.1956957E-002  0.3000000E+03  0.7818608E-02  0.1093470E+00
          1   -1    0    0  502    0  0.00000000000E+00  0.00000000000E+00  0.23212513205E+01  0.23212513205E+01  0.00000000000E+00 0.  1.
         13   -1    0    0    0    0 -0.00000000000E+00 -0.00000000000E+00 -0.10000000000E+04  0.10000000000E+04  0.00000000000E+00 0.  1.
    9000005    2    1    2  501    0  0.35231246553E+02 -0.31359626534E+02 -0.59659659165E+03  0.59847528613E+03  0.45285797435E+01 0.  0.
         13    1    3    3    0    0  0.19013596710E+02 -0.14812230832E+02 -0.28364792959E+03  0.28467010205E+03  0.00000000000E+00 0.  1.
          1    1    3    3  501    0  0.16217649843E+02 -0.16547395702E+02 -0.31294866206E+03  0.31380518408E+03  0.00000000000E+00 0.  1.
         21    1    1    2  502  501 -0.35231246553E+02  0.31359626534E+02 -0.40108215703E+03  0.40384596519E+03  0.00000000000E+00 0.  1.
<mgrwt>
<rscale>  1 0.30000000E+03</rscale>
<asrwt>0</asrwt>
<pdfrwt beam="1">  1        1 0.84409317E-02 0.30000000E+03</pdfrwt>
<pdfrwt beam="2">0</pdfrwt>
<totfact> 0.95578428E+02</totfact>
</mgrwt>
</event>
<event>
 6    1  0.1956957E-002  0.3000000E+03  0.7818608E-02  0.1093470E+00
          1   -1    0    0  502    0  0.00000000000E+00  0.00000000000E+00  0.14418374965E+01  0.14418374965E+01  0.00000000000E+00 0.  1.
         13   -1    0    0    0    0 -0.00000000000E+00 -0.00000000000E+00 -0.10000000000E+04  0.10000000000E+04  0.00000000000E+00 0.  1.
    9000005    2    1    2  501    0 -0.10001267461E+02 -0.36343623372E+02 -0.44799747741E+03  0.44959226353E+03  0.32525919489E+01 0.  0.
         13    1    3    3    0    0 -0.52754151166E+01 -0.15189290622E+02 -0.17652204358E+03  0.17725286013E+03  0.00000000000E+00 0.  1.
          1    1    3    3  501    0 -0.47258523440E+01 -0.21154332750E+02 -0.27147543383E+03  0.27233940340E+03  0.00000000000E+00 0.  1.
         21    1    1    2  502  501  0.10001267461E+02  0.36343623372E+02 -0.55056068510E+03  0.55184957396E+03  0.00000000000E+00 0.  1.
<mgrwt>
<rscale>  1 0.30000000E+03</rscale>
<asrwt>0</asrwt>
<pdfrwt beam="1">  1        1 0.52430565E-02 0.30000000E+03</pdfrwt>
<pdfrwt beam="2">0</pdfrwt>
<totfact> 0.18608113E+03</totfact>
</mgrwt>
</event>
<event>
 6    1  0.1956957E-002  0.3000000E+03  0.7818608E-02  0.1093470E+00
          3   -1    0    0  502    0  0.00000000000E+00  0.00000000000E+00  0.25368296677E+01  0.25368296677E+01  0.00000000000E+00 0.  1.
         13   -1    0    0    0    0 -0.00000000000E+00 -0.00000000000E+00 -0.10000000000E+04  0.10000000000E+04  0.00000000000E+00 0.  1.
    9000005    2    1    2  501    0  0.42716732511E+02  0.18221353983E+02 -0.69184216292E+03  0.69340750859E+03  0.34143227497E+01 0.  0.
         13    1    3    3    0    0  0.25164743258E+02  0.11254231030E+02 -0.43419881501E+03  0.43507302028E+03  0.00000000000E+00 0.  1.
          1    1    3    3  501    0  0.17551989253E+02  0.69671229524E+01 -0.25764334791E+03  0.25833448832E+03  0.00000000000E+00 0.  1.
         21    1    1    2  502  501 -0.42716732511E+02 -0.18221353983E+02 -0.30562100741E+03  0.30912932107E+03  0.00000000000E+00 0.  1.
<mgrwt>
<rscale>  1 0.30000000E+03</rscale>
<asrwt>0</asrwt>
<pdfrwt beam="1">  1        3 0.92248546E-02 0.30000000E+03</pdfrwt>
<pdfrwt beam="2">0</pdfrwt>
<totfact> 0.37683110E+02</totfact>
</mgrwt>
</event>
<event>
 6    1  0.1956957E-002  0.3000000E+03  0.7818608E-02  0.1093470E+00
          3   -1    0    0  502    0  0.00000000000E+00  0.00000000000E+00  0.30174285266E+01  0.30174285266E+01  0.00000000000E+00 0.  1.
         13   -1    0    0    0    0 -0.00000000000E+00 -0.00000000000E+00 -0.10000000000E+04  0.10000000000E+04  0.00000000000E+00 0.  1.
    9000005    2    1    2  501    0  0.17025285299E+02  0.45511210609E+02 -0.72958952468E+03  0.73124514865E+03  0.75803881822E+01 0.  0.
         13    1    3    3    0    0  0.14376504204E+02  0.38341622344E+02 -0.65035198342E+03  0.65163982860E+03  0.00000000000E+00 0.  1.
          1    1    3    3  501    0  0.26487810953E+01  0.71695882643E+01 -0.79237541258E+02  0.79605320060E+02  0.00000000000E+00 0.  1.
         21    1    1    2  502  501 -0.17025285299E+02 -0.45511210609E+02 -0.26739304680E+03  0.27177227987E+03  0.00000000000E+00 0.  1.
<mgrwt>
<rscale>  1 0.30000000E+03</rscale>
<asrwt>0</asrwt>
<pdfrwt beam="1">  1        3 0.10972491E-01 0.30000000E+03</pdfrwt>
<pdfrwt beam="2">0</pdfrwt>
<totfact> 0.28311401E+02</totfact>
</mgrwt>
</event>
<event>
 6    1  0.1956957E-002  0.3000000E+03  0.7818608E-02  0.1093470E+00
          1   -1    0    0  502    0  0.00000000000E+00  0.00000000000E+00  0.31263730521E+01  0.31263730521E+01  0.00000000000E+00 0.  1.
         13   -1    0    0    0    0 -0.00000000000E+00 -0.00000000000E+00 -0.10000000000E+04  0.10000000000E+04  0.00000000000E+00 0.  1.
    9000005    2    1    2  501    0 -0.25698324082E+02 -0.27420485285E+02 -0.86964314267E+03  0.87046182239E+03  0.35073871194E+01 0.  0.
         13    1    3    3    0    0 -0.80246984867E+00 -0.64062158702E+00 -0.40228024132E+02  0.40241126717E+02  0.00000000000E+00 0.  1.
          3    1    3    3  501    0 -0.24895854234E+02 -0.26779863698E+02 -0.82941511854E+03  0.83022069567E+03  0.00000000000E+00 0.  1.
         21    1    1    2  502  501  0.25698324082E+02  0.27420485285E+02 -0.12723048428E+03  0.13266455067E+03  0.00000000000E+00 0.  1.
<mgrwt>
<rscale>  1 0.30000000E+03</rscale>
<asrwt>0</asrwt>
<pdfrwt beam="1">  1        1 0.11368653E-01 0.30000000E+03</pdfrwt>
<pdfrwt beam="2">0</pdfrwt>
<totfact> 0.63343399E+02</totfact>
</mgrwt>
</event>
<event>
 6    1  0.1956957E-002  0.3000000E+03  0.7818608E-02  0.1093470E+00
          1   -1    0    0  502    0  0.00000000000E+00  0.00000000000E+00  0.12146256425E+01  0.12146256425E+01  0.00000000000E+00 0.  1.
         13   -1    0    0    0    0 -0.00000000000E+00 -0.00000000000E+00 -0.10000000000E+04  0.10000000000E+04  0.00000000000E+00 0.  1.
    9000005    2    1    2  501    0  0.28273318104E+02 -0.19168679933E+02 -0.40702195828E+03  0.40846614660E+03  0.33014518052E+01 0.  0.
         13    1    3    3    0    0  0.23660751231E+02 -0.16062755203E+02 -0.32493044751E+03  0.32618650949E+03  0.00000000000E+00 0.  1.
          1    1    3    3  501    0  0.46125668729E+01 -0.31059247297E+01 -0.82091510774E+02  0.82279637109E+02  0.00000000000E+00 0.  1.
         21    1    1    2  502  501 -0.28273318104E+02  0.19168679933E+02 -0.59176341607E+03  0.59274847904E+03  0.00000000000E+00 0.  1.
<mgrwt>
<rscale>  1 0.30000000E+03</rscale>
<asrwt>0</asrwt>
<pdfrwt beam="1">  1        1 0.44168298E-02 0.30000000E+03</pdfrwt>
<pdfrwt beam="2">0</pdfrwt>
<totfact> 0.23682579E+03</totfact>
</mgrwt>
</event>
<event>
 6    1  0.1956957E-002  0.3000000E+03  0.7818608E-02  0.1093470E+00
          1   -1    0    0  502    0  0.00000000000E+00  0.00000000000E+00  0.12368667115E+01  0.12368667115E+01  0.00000000000E+00 0.  1.
         13   -1    0    0    0    0 -0.00000000000E+00 -0.00000000000E+00 -0.10000000000E+04  0.10000000000E+04  0.00000000000E+00 0.  1.
    9000005    2    1    2  501    0 -0.33871151374E+02 -0.90960320760E+01 -0.48505549650E+03  0.48633344976E+03  0.33759404972E+01 0.  0.
         13    1    3    3    0    0 -0.19339493284E+02 -0.34866684383E+01 -0.27478511481E+03  0.27548690020E+03  0.00000000000E+00 0.  1.
          3    1    3    3  501    0 -0.14531658091E+02 -0.56093636377E+01 -0.21027038168E+03  0.21084654956E+03  0.00000000000E+00 0.  1.
         21    1    1    2  502  501  0.33871151374E+02  0.90960320760E+01 -0.51370763679E+03  0.51490341696E+03  0.00000000000E+00 0.  1.
<mgrwt>
<rscale>  1 0.30000000E+03</rscale>
<asrwt>0</asrwt>
<pdfrwt beam="1">  1        1 0.44977066E-02 0.30000000E+03</pdfrwt>
<pdfrwt beam="2">0</pdfrwt>
<totfact> 0.23085394E+03</totfact>
</mgrwt>
</event>
<event>
 6    1  0.1956957E-002  0.3000000E+03  0.7818608E-02  0.1093470E+00
          1   -1    0    0  502    0  0.00000000000E+00  0.00000000000E+00  0.18861765574E+02  0.18861765574E+02  0.00000000000E+00 0.  1.
         13   -1    0    0    0    0 -0.00000000000E+00 -0.00000000000E+00 -0.10000000000E+04  0.10000000000E+04  0.00000000000E+00 0.  1.
    9000005    2    1    2  501    0  0.37232773741E+02 -0.88052580382E+02 -0.85628176608E+03  0.86160823131E+03  0.32779532097E+01 0.  0.
         13    1    3    3    0    0  0.24231617631E+02 -0.58347560240E+02 -0.57920495492E+03  0.58264053144E+03  0.00000000000E+00 0.  1.
          3    1    3    3  501    0  0.13001156110E+02 -0.29705020141E+02 -0.27707681117E+03  0.27896769987E+03  0.00000000000E+00 0.  1.
         21    1    1    2  502  501 -0.37232773741E+02  0.88052580382E+02 -0.12485646834E+03  0.15725353427E+03  0.00000000000E+00 0.  1.
<mgrwt>
<rscale>  1 0.30000000E+03</rscale>
<asrwt>0</asrwt>
<pdfrwt beam="1">  1        1 0.68588383E-01 0.30000000E+03</pdfrwt>
<pdfrwt beam="2">0</pdfrwt>
<totfact> 0.57962818E+01</totfact>
</mgrwt>
</event>
<event>
 6    1  0.1956957E-002  0.3000000E+03  0.7818608E-02  0.1093470E+00
          3   -1    0    0  502    0  0.00000000000E+00  0.00000000000E+00  0.25892207019E+01  0.25892207019E+01  0.00000000000E+00 0.  1.
         13   -1    0    0    0    0 -0.00000000000E+00 -0.00000000000E+00 -0.10000000000E+04  0.10000000000E+04  0.00000000000E+00 0.  1.
    9000005    2    1    2  501    0  0.37819303767E+02  0.78553610616E+01 -0.82473102168E+03  0.82564203896E+03  0.33929256382E+01 0.  0.
         13    1    3    3    0    0  0.24519905962E+01 -0.69125833713E-01 -0.66565121537E+02  0.66610302818E+02  0.00000000000E+00 0.  1.
          3    1    3    3  501    0  0.35367313171E+02  0.79244868953E+01 -0.75816590014E+03  0.75903173614E+03  0.00000000000E+00 0.  1.
         21    1    1    2  502  501 -0.37819303767E+02 -0.78553610616E+01 -0.17267975762E+03  0.17694718174E+03  0.00000000000E+00 0.  1.
<mgrwt>
<rscale>  1 0.30000000E+03</rscale>
<asrwt>0</asrwt>
<pdfrwt beam="1">  1        3 0.94153679E-02 0.30000000E+03</pdfrwt>
<pdfrwt beam="2">0</pdfrwt>
<totfact> 0.36450264E+02</totfact>
</mgrwt>
</event>
<event>
 6    1  0.1956957E-002  0.3000000E+03  0.7818608E-02  0.1093470E+00
          3   -1    0    0  502    0  0.00000000000E+00  0.00000000000E+00  0.18984546383E+01  0.18984546383E+01  0.00000000000E+00 0.  1.
         13   -1    0    0    0    0 -0.00000000000E+00 -0.00000000000E+00 -0.10000000000E+04  0.10000000000E+04  0.00000000000E+00 0.  1.
    9000005    2    1    2  501    0  0.50049585735E+01  0.33764891038E+02 -0.80997145591E+03  0.81069686460E+03  0.32449039736E+01 0.  0.
         13    1    3    3    0    0  0.21062056974E+00  0.40544806655E+01 -0.12188218137E+03  0.12194978192E+03  0.00000000000E+00 0.  1.
          1    1    3    3  501    0  0.47943380038E+01  0.29710410372E+02 -0.68808927454E+03  0.68874708268E+03  0.00000000000E+00 0.  1.
         21    1    1    2  502  501 -0.50049585735E+01 -0.33764891038E+02 -0.18813008945E+03  0.19120159004E+03  0.00000000000E+00 0.  1.
<mgrwt>
<rscale>  1 0.30000000E+03</rscale>
<asrwt>0</asrwt>
<pdfrwt beam="1">  1        3 0.69034860E-02 0.30000000E+03</pdfrwt>
<pdfrwt beam="2">0</pdfrwt>
<totfact> 0.59869233E+02</totfact>
</mgrwt>
</event>
<event>
 6    1  0.1956957E-002  0.3000000E+03  0.7818608E-02  0.1093470E+00
          3   -1    0    0  502    0  0.00000000000E+00  0.00000000000E+00  0.93985553224E+00  0.93985553224E+00  0.00000000000E+00 0.  1.
         13   -1    0    0    0    0 -0.00000000000E+00 -0.00000000000E+00 -0.10000000000E+04  0.10000000000E+04  0.00000000000E+00 0.  1.
    9000005    2    1    2  501    0  0.13200589815E+02 -0.27535499432E+02 -0.48593621658E+03  0.48690812045E+03  0.36127380026E+01 0.  0.
         13    1    3    3    0    0  0.94715994688E+01 -0.17396881594E+02 -0.33586538499E+03  0.33644898502E+03  0.00000000000E+00 0.  1.
          3    1    3    3  501    0  0.37289903459E+01 -0.10138617838E+02 -0.15007083159E+03  0.15045913543E+03  0.00000000000E+00 0.  1.
         21    1    1    2  502  501 -0.13200589815E+02  0.27535499432E+02 -0.51312392788E+03  0.51403173508E+03  0.00000000000E+00 0.  1.
<mgrwt>
<rscale>  1 0.30000000E+03</rscale>
<asrwt>0</asrwt>
<pdfrwt beam="1">  1        3 0.34176637E-02 0.30000000E+03</pdfrwt>
<pdfrwt beam="2">0</pdfrwt>
<totfact> 0.17779025E+03</totfact>
</mgrwt>
</event>
<event>
 6    1  0.1956957E-002  0.3000000E+03  0.7818608E-02  0.1093470E+00
          1   -1    0    0  502    0  0.00000000000E+00  0.00000000000E+00  0.28205318475E+01  0.28205318475E+01  0.00000000000E+00 0.  1.
         13   -1    0    0    0    0 -0.00000000000E+00 -0.00000000000E+00 -0.10000000000E+04  0.10000000000E+04  0.00000000000E+00 0.  1.
    9000005    2    1    2  501    0  0.46003855494E+02  0.83272417944E+01 -0.26838337669E+03  0.27252645368E+03  0.74386420378E+01 0.  0.
         13    1    3    3    0    0  0.55103952884E+01  0.27174990859E+01 -0.25715063599E+02  0.26438868233E+02  0.00000000000E+00 0.  1.
          3    1    3    3  501    0  0.40493460206E+02  0.56097427086E+01 -0.24266831309E+03  0.24608758545E+03  0.00000000000E+00 0.  1.
         21    1    1    2  502  501 -0.46003855494E+02 -0.83272417944E+01 -0.72879609146E+03  0.73029407817E+03  0.00000000000E+00 0.  1.
<mgrwt>
<rscale>  1 0.30000000E+03</rscale>
<asrwt>0</asrwt>
<pdfrwt beam="1">  1        1 0.10256501E-01 0.30000000E+03</pdfrwt>
<pdfrwt beam="2">0</pdfrwt>
<totfact> 0.72978857E+02</totfact>
</mgrwt>
</event>
<event>
 6    1  0.1956957E-002  0.3000000E+03  0.7818608E-02  0.1093470E+00
          3   -1    0    0  502    0  0.00000000000E+00  0.00000000000E+00  0.10931447846E+01  0.10931447846E+01  0.00000000000E+00 0.  1.
         13   -1    0    0    0    0 -0.00000000000E+00 -0.00000000000E+00 -0.10000000000E+04  0.10000000000E+04  0.00000000000E+00 0.  1.
    9000005    2    1    2  501    0 -0.14733865350E+02  0.27363352540E+02 -0.33504880842E+03  0.33650805155E+03  0.37583089463E+01 0.  0.
         13    1    3    3    0    0 -0.36973045702E+01  0.48452390114E+01 -0.54081993894E+02  0.54424337072E+02  0.00000000000E+00 0.  1.
          1    1    3    3  501    0 -0.11036560780E+02  0.22518113528E+02 -0.28096681453E+03  0.28208371448E+03  0.00000000000E+00 0.  1.
         21    1    1    2  502  501  0.14733865350E+02 -0.27363352540E+02 -0.66385804679E+03  0.66458509323E+03  0.00000000000E+00 0.  1.
<mgrwt>
<rscale>  1 0.30000000E+03</rscale>
<asrwt>0</asrwt>
<pdfrwt beam="1">  1        3 0.39750803E-02 0.30000000E+03</pdfrwt>
<pdfrwt beam="2">0</pdfrwt>
<totfact> 0.14087247E+03</totfact>
</mgrwt>
</event>
<event>
 6    1  0.1956957E-002  0.3000000E+03  0.7818608E-02  0.1093470E+00
          1   -1    0    0  502    0  0.00000000000E+00  0.00000000000E+00  0.11314337605E+01  0.11314337605E+01  0.00000000000E+00 0.  1.
         13   -1    0    0    0    0 -0.00000000000E+00 -0.00000000000E+00 -0.10000000000E+04  0.10000000000E+04  0.00000000000E+00 0.  1.
    9000005    2    1    2  501    0 -0.17016970514E+02 -0.26788763555E+02 -0.66378861495E+03  0.66455189057E+03  0.25835604152E+01 0.  0.
         13    1    3    3    0    0 -0.67039168025E+01 -0.83661124282E+01 -0.23065393699E+03  0.23090295144E+03  0.00000000000E+00 0.  1.
          3    1    3    3  501    0 -0.10313053712E+02 -0.18422651126E+02 -0.43313467796E+03  0.43364893913E+03  0.00000000000E+00 0.  1.
         21    1    1    2  502  501  0.17016970514E+02  0.26788763555E+02 -0.33507995129E+03  0.33657954319E+03  0.00000000000E+00 0.  1.
<mgrwt>
<rscale>  1 0.30000000E+03</rscale>
<asrwt>0</asrwt>
<pdfrwt beam="1">  1        1 0.41143133E-02 0.30000000E+03</pdfrwt>
<pdfrwt beam="2">0</pdfrwt>
<totfact> 0.26170382E+03</totfact>
</mgrwt>
</event>
<event>
 6    1  0.1956957E-002  0.3000000E+03  0.7818608E-02  0.1093470E+00
          1   -1    0    0  502    0  0.00000000000E+00  0.00000000000E+00  0.13374420546E+01  0.13374420546E+01  0.00000000000E+00 0.  1.
         13   -1    0    0    0    0 -0.00000000000E+00 -0.00000000000E+00 -0.10000000000E+04  0.10000000000E+04  0.00000000000E+00 0.  1.
    9000005    2    1    2  501    0  0.34354371536E+02  0.46217606413E+01 -0.34501879568E+03  0.34677518263E+03  0.36707492777E+01 0.  0.
         13    1    3    3    0    0  0.32238127993E+02  0.35113078281E+01 -0.31684457863E+03  0.31849978522E+03  0.00000000000E+00 0.  1.
          3    1    3    3  501    0  0.21162435423E+01  0.11104528132E+01 -0.28174217052E+02  0.28275397409E+02  0.00000000000E+00 0.  1.
         21    1    1    2  502  501 -0.34354371536E+02 -0.46217606413E+01 -0.65364376226E+03  0.65456225942E+03  0.00000000000E+00 0.  1.
<mgrwt>
<rscale>  1 0.30000000E+03</rscale>
<asrwt>0</asrwt>
<pdfrwt beam="1">  1        1 0.48634359E-02 0.30000000E+03</pdfrwt>
<pdfrwt beam="2">0</pdfrwt>
<totfact> 0.20681256E+03</totfact>
</mgrwt>
</event>
<event>
 6    1  0.1956957E-002  0.3000000E+03  0.7818608E-02  0.1093470E+00
          1   -1    0    0  502    0  0.00000000000E+00  0.00000000000E+00  0.29294266200E+01  0.29294266200E+01  0.00000000000E+00 0.  1.
         13   -1    0    0    0    0 -0.00000000000E+00 -0.00000000000E+00 -0.10000000000E+04  0.10000000000E+04  0.00000000000E+00 0.  1.
    9000005    2    1    2  501    0  0.21482982421E+02 -0.45514747248E+02 -0.68204759863E+03  0.68391126825E+03  0.35475750352E+01 0.  0.
         13    1    3    3    0    0  0.21264542486E+02 -0.45494686841E+02 -0.68003317817E+03  0.68188493950E+03  0.00000000000E+00 0.  1.
          1    1    3    3  501    0  0.21843993579E+00 -0.20060406906E-01 -0.20144204578E+01  0.20263287508E+01  0.00000000000E+00 0.  1.
         21    1    1    2  502  501 -0.21482982421E+02  0.45514747248E+02 -0.31502297475E+03  0.31901815837E+03  0.00000000000E+00 0.  1.
<mgrwt>
<rscale>  1 0.30000000E+03</rscale>
<asrwt>0</asrwt>
<pdfrwt beam="1">  1        1 0.10652483E-01 0.30000000E+03</pdfrwt>
<pdfrwt beam="2">0</pdfrwt>
<totfact> 0.69268812E+02</totfact>
</mgrwt>
</event>
<event>
 6    1  0.1956957E-002  0.3000000E+03  0.7818608E-02  0.1093470E+00
          1   -1    0    0  502    0  0.00000000000E+00  0.00000000000E+00  0.99708694331E+00  0.99708694331E+00  0.00000000000E+00 0.  1.
         13   -1    0    0    0    0 -0.00000000000E+00 -0.00000000000E+00 -0.10000000000E+04  0.10000000000E+04  0.00000000000E+00 0.  1.
    9000005    2    1    2  501    0  0.29678618505E+02 -0.48189529113E+01 -0.62730310963E+03  0.62808317387E+03  0.86740550666E+01 0.  0.
         13    1    3    3    0    0  0.16648541265E+02 -0.35870100577E+00 -0.41488849493E+03  0.41522254975E+03  0.00000000000E+00 0.  1.
          1    1    3    3  501    0  0.13030077240E+02 -0.44602519055E+01 -0.21241461470E+03  0.21286062412E+03  0.00000000000E+00 0.  1.
         21    1    1    2  502  501 -0.29678618505E+02  0.48189529113E+01 -0.37169980342E+03  0.37291391308E+03  0.00000000000E+00 0.  1.
<mgrwt>
<rscale>  1 0.30000000E+03</rscale>
<asrwt>0</asrwt>
<pdfrwt beam="1">  1        1 0.36257783E-02 0.30000000E+03</pdfrwt>
<pdfrwt beam="2">0</pdfrwt>
<totfact> 0.31266848E+03</totfact>
</mgrwt>
</event>
<event>
 6    1  0.1956957E-002  0.3000000E+03  0.7818608E-02  0.1093470E+00
          3   -1    0    0  502    0  0.00000000000E+00  0.00000000000E+00  0.20239077954E+02  0.20239077954E+02  0.00000000000E+00 0.  1.
         13   -1    0    0    0    0 -0.00000000000E+00 -0.00000000000E+00 -0.10000000000E+04  0.10000000000E+04  0.00000000000E+00 0.  1.
    9000005    2    1    2  501    0 -0.16089935119E+02 -0.48160892445E+02 -0.96639064319E+03  0.96773077452E+03  0.36904104513E+01 0.  0.
         13    1    3    3    0    0 -0.42282354180E+01 -0.15938980831E+02 -0.34033367520E+03  0.34073294464E+03  0.00000000000E+00 0.  1.
          3    1    3    3  501    0 -0.11861699701E+02 -0.32221911614E+02 -0.62605696799E+03  0.62699782988E+03  0.00000000000E+00 0.  1.
         21    1    1    2  502  501  0.16089935119E+02  0.48160892445E+02 -0.13370278858E+02  0.52508303438E+02  0.00000000000E+00 0.  1.
<mgrwt>
<rscale>  1 0.30000000E+03</rscale>
<asrwt>0</asrwt>
<pdfrwt beam="1">  1        3 0.73596802E-01 0.30000000E+03</pdfrwt>
<pdfrwt beam="2">0</pdfrwt>
<totfact> 0.80255813E+00</totfact>
</mgrwt>
</event>
<event>
 6    1  0.1956957E-002  0.3000000E+03  0.7818608E-02  0.1093470E+00
          1   -1    0    0  502    0  0.00000000000E+00  0.00000000000E+00  0.18069763682E+01  0.18069763682E+01  0.00000000000E+00 0.  1.
         13   -1    0    0    0    0 -0.00000000000E+00 -0.00000000000E+00 -0.10000000000E+04  0.10000000000E+04  0.00000000000E+00 0.  1.
    9000005    2    1    2  501    0 -0.13653846673E+02 -0.39180080053E+02 -0.59781816411E+03  0.59928799006E+03  0.61669674731E+01 0.  0.
         13    1    3    3    0    0 -0.13739072748E+02 -0.39310131718E+02 -0.59721798432E+03  0.59866799594E+03  0.00000000000E+00 0.  1.
          1    1    3    3  501    0  0.85226075116E-01  0.13005166550E+00 -0.60017979192E+00  0.61999411466E+00  0.00000000000E+00 0.  1.
         21    1    1    2  502  501  0.13653846673E+02  0.39180080053E+02 -0.40037485952E+03  0.40251898631E+03  0.00000000000E+00 0.  1.
<mgrwt>
<rscale>  1 0.30000000E+03</rscale>
<asrwt>0</asrwt>
<pdfrwt beam="1">  1        1 0.65708370E-02 0.30000000E+03</pdfrwt>
<pdfrwt beam="2">0</pdfrwt>
<totfact> 0.13556760E+03</totfact>
</mgrwt>
</event>
<event>
 6    1  0.1956957E-002  0.3000000E+03  0.7818608E-02  0.1093470E+00
          1   -1    0    0  502    0  0.00000000000E+00  0.00000000000E+00  0.12409912602E+01  0.12409912602E+01  0.00000000000E+00 0.  1.
         13   -1    0    0    0    0 -0.00000000000E+00 -0.00000000000E+00 -0.10000000000E+04  0.10000000000E+04  0.00000000000E+00 0.  1.
    9000005    2    1    2  501    0 -0.29024566120E+02  0.14070656304E+02 -0.69935479465E+03  0.70010432424E+03  0.29201398871E+01 0.  0.
         13    1    3    3    0    0 -0.16396787541E+02  0.77890396449E+01 -0.36205674940E+03  0.36251153577E+03  0.00000000000E+00 0.  1.
          1    1    3    3  501    0 -0.12627778579E+02  0.62816166592E+01 -0.33729804525E+03  0.33759278847E+03  0.00000000000E+00 0.  1.
         21    1    1    2  502  501  0.29024566120E+02 -0.14070656304E+02 -0.29940421409E+03  0.30113666702E+03  0.00000000000E+00 0.  1.
<mgrwt>
<rscale>  1 0.30000000E+03</rscale>
<asrwt>0</asrwt>
<pdfrwt beam="1">  1        1 0.45127050E-02 0.30000000E+03</pdfrwt>
<pdfrwt beam="2">0</pdfrwt>
<totfact> 0.22977486E+03</totfact>
</mgrwt>
</event>
<event>
 6    1  0.1956957E-002  0.3000000E+03  0.7818608E-02  0.1093470E+00
          1   -1    0    0  502    0  0.00000000000E+00  0.00000000000E+00  0.42537663682E+01  0.42537663682E+01  0.00000000000E+00 0.  1.
         13   -1    0    0    0    0 -0.00000000000E+00 -0.00000000000E+00 -0.10000000000E+04  0.10000000000E+04  0.00000000000E+00 0.  1.
    9000005    2    1    2  501    0  0.34780102680E+02 -0.72422468136E+01 -0.91881267244E+03  0.91951370194E+03  0.51590058629E+01 0.  0.
         13    1    3    3    0    0  0.18326984475E+02 -0.26374509867E+01 -0.53659212192E+03  0.53691148229E+03  0.00000000000E+00 0.  1.
          3    1    3    3  501    0  0.16453118205E+02 -0.46047958269E+01 -0.38222055052E+03  0.38260221965E+03  0.00000000000E+00 0.  1.
         21    1    1    2  502  501 -0.34780102680E+02  0.72422468136E+01 -0.76933561194E+02  0.84740064429E+02  0.00000000000E+00 0.  1.
<mgrwt>
<rscale>  1 0.30000000E+03</rscale>
<asrwt>0</asrwt>
<pdfrwt beam="1">  1        1 0.15468274E-01 0.30000000E+03</pdfrwt>
<pdfrwt beam="2">0</pdfrwt>
<totfact> 0.41608489E+02</totfact>
</mgrwt>
</event>
<event>
 6    1  0.1956957E-002  0.3000000E+03  0.7818608E-02  0.1093470E+00
          3   -1    0    0  502    0  0.00000000000E+00  0.00000000000E+00  0.10732680095E+01  0.10732680095E+01  0.00000000000E+00 0.  1.
         13   -1    0    0    0    0 -0.00000000000E+00 -0.00000000000E+00 -0.10000000000E+04  0.10000000000E+04  0.00000000000E+00 0.  1.
    9000005    2    1    2  501    0  0.30092861339E+02  0.63032139851E+01 -0.67001434942E+03  0.67072698573E+03  0.31859288703E+01 0.  0.
         13    1    3    3    0    0  0.49239166880E+01 -0.15403966899E+00 -0.10751266528E+03  0.10762547040E+03  0.00000000000E+00 0.  1.
          3    1    3    3  501    0  0.25168944651E+02  0.64572536541E+01 -0.56250168414E+03  0.56310151533E+03  0.00000000000E+00 0.  1.
         21    1    1    2  502  501 -0.30092861339E+02 -0.63032139851E+01 -0.32891238257E+03  0.33034628228E+03  0.00000000000E+00 0.  1.
<mgrwt>
<rscale>  1 0.30000000E+03</rscale>
<asrwt>0</asrwt>
<pdfrwt beam="1">  1        3 0.39028010E-02 0.30000000E+03</pdfrwt>
<pdfrwt beam="2">0</pdfrwt>
<totfact> 0.14490073E+03</totfact>
</mgrwt>
</event>
<event>
 6    1  0.1956957E-002  0.3000000E+03  0.7818608E-02  0.1093470E+00
          1   -1    0    0  502    0  0.00000000000E+00  0.00000000000E+00  0.17987610543E+01  0.17987610543E+01  0.00000000000E+00 0.  1.
         13   -1    0    0    0    0 -0.00000000000E+00 -0.00000000000E+00 -0.10000000000E+04  0.10000000000E+04  0.00000000000E+00 0.  1.
    9000005    2    1    2  501    0  0.13329987108E+01 -0.42099603860E+02 -0.55077244953E+03  0.55239173493E+03  0.34905770794E+01 0.  0.
         13    1    3    3    0    0  0.15006567015E+01 -0.12042858076E+02 -0.17339773244E+03  0.17382190891E+03  0.00000000000E+00 0.  1.
          1    1    3    3  501    0 -0.16765799070E+00 -0.30056745784E+02 -0.37737471709E+03  0.37856982602E+03  0.00000000000E+00 0.  1.
         21    1    1    2  502  501 -0.13329987108E+01  0.42099603860E+02 -0.44742878942E+03  0.44940702612E+03  0.00000000000E+00 0.  1.
<mgrwt>
<rscale>  1 0.30000000E+03</rscale>
<asrwt>0</asrwt>
<pdfrwt beam="1">  1        1 0.65409631E-02 0.30000000E+03</pdfrwt>
<pdfrwt beam="2">0</pdfrwt>
<totfact> 0.13643547E+03</totfact>
</mgrwt>
</event>
<event>
 6    1  0.1956957E-002  0.3000000E+03  0.7818608E-02  0.1093470E+00
          1   -1    0    0  502    0  0.00000000000E+00  0.00000000000E+00  0.36371594861E+01  0.36371594861E+01  0.00000000000E+00 0.  1.
         13   -1    0    0    0    0 -0.00000000000E+00 -0.00000000000E+00 -0.10000000000E+04  0.10000000000E+04  0.00000000000E+00 0.  1.
    9000005    2    1    2  501    0 -0.32624704085E+02  0.13426068858E+02 -0.90509857349E+03  0.90579137737E+03  0.31560974042E+01 0.  0.
         13    1    3    3    0    0 -0.12563560649E+02  0.66476238505E+01 -0.34511775913E+03  0.34541033805E+03  0.00000000000E+00 0.  1.
          1    1    3    3  501    0 -0.20061143437E+02  0.67784450073E+01 -0.55998081436E+03  0.56038103933E+03  0.00000000000E+00 0.  1.
         21    1    1    2  502  501  0.32624704085E+02 -0.13426068858E+02 -0.91264267025E+02  0.97845782113E+02  0.00000000000E+00 0.  1.
<mgrwt>
<rscale>  1 0.30000000E+03</rscale>
<asrwt>0</asrwt>
<pdfrwt beam="1">  1        1 0.13226062E-01 0.30000000E+03</pdfrwt>
<pdfrwt beam="2">0</pdfrwt>
<totfact> 0.51487121E+02</totfact>
</mgrwt>
</event>
<event>
 6    1  0.1956957E-002  0.3000000E+03  0.7818608E-02  0.1093470E+00
          1   -1    0    0  502    0  0.00000000000E+00  0.00000000000E+00  0.26894399310E+02  0.26894399310E+02  0.00000000000E+00 0.  1.
         13   -1    0    0    0    0 -0.00000000000E+00 -0.00000000000E+00 -0.10000000000E+04  0.10000000000E+04  0.00000000000E+00 0.  1.
    9000005    2    1    2  501    0  0.15749775230E+03  0.32634079874E+02 -0.38672285344E+03  0.41885225322E+03  0.34813078680E+01 0.  0.
         13    1    3    3    0    0  0.86687079851E+02  0.17370566650E+02 -0.21680556802E+03  0.23413893466E+03  0.00000000000E+00 0.  1.
          3    1    3    3  501    0  0.70810672451E+02  0.15263513224E+02 -0.16991728542E+03  0.18471331856E+03  0.00000000000E+00 0.  1.
         21    1    1    2  502  501 -0.15749775230E+03 -0.32634079874E+02 -0.58638274725E+03  0.60804214609E+03  0.00000000000E+00 0.  1.
<mgrwt>
<rscale>  1 0.30000000E+03</rscale>
<asrwt>0</asrwt>
<pdfrwt beam="1">  1        1 0.97798022E-01 0.30000000E+03</pdfrwt>
<pdfrwt beam="2">0</pdfrwt>
<totfact> 0.35355619E+01</totfact>
</mgrwt>
</event>
<event>
 6    1  0.1956957E-002  0.3000000E+03  0.7818608E-02  0.1093470E+00
          1   -1    0    0  502    0  0.00000000000E+00  0.00000000000E+00  0.12333876494E+01  0.12333876494E+01  0.00000000000E+00 0.  1.
         13   -1    0    0    0    0 -0.00000000000E+00 -0.00000000000E+00 -0.10000000000E+04  0.10000000000E+04  0.00000000000E+00 0.  1.
    9000005    2    1    2  501    0  0.28949574908E+02  0.13166721923E+02 -0.28927637483E+03  0.29103071405E+03  0.25719702394E+01 0.  0.
         13    1    3    3    0    0  0.95783483481E+01  0.39584477712E+01 -0.10503080872E+03  0.10554091550E+03  0.00000000000E+00 0.  1.
          3    1    3    3  501    0  0.19371226560E+02  0.92082741522E+01 -0.18424556611E+03  0.18548979854E+03  0.00000000000E+00 0.  1.
         21    1    1    2  502  501 -0.28949574908E+02 -0.13166721923E+02 -0.70949023752E+03  0.71020267360E+03  0.00000000000E+00 0.  1.
<mgrwt>
<rscale>  1 0.30000000E+03</rscale>
<asrwt>0</asrwt>
<pdfrwt beam="1">  1        1 0.44850555E-02 0.30000000E+03</pdfrwt>
<pdfrwt beam="2">0</pdfrwt>
<totfact> 0.23177093E+03</totfact>
</mgrwt>
</event>
<event>
 6    1  0.1956957E-002  0.3000000E+03  0.7818608E-02  0.1093470E+00
          1   -1    0    0  502    0  0.00000000000E+00  0.00000000000E+00  0.14597516441E+01  0.14597516441E+01  0.00000000000E+00 0.  1.
         13   -1    0    0    0    0 -0.00000000000E+00 -0.00000000000E+00 -0.10000000000E+04  0.10000000000E+04  0.00000000000E+00 0.  1.
    9000005    2    1    2  501    0  0.11248575346E+02 -0.29316153128E+02 -0.77975662261E+03  0.78043431832E+03  0.84479243683E+01 0.  0.
         13    1    3    3    0    0  0.79072057069E+01 -0.15042503844E+02 -0.32805303846E+03  0.32849291753E+03  0.00000000000E+00 0.  1.
          1    1    3    3  501    0  0.33413696386E+01 -0.14273649284E+02 -0.45170358414E+03  0.45194140078E+03  0.00000000000E+00 0.  1.
         21    1    1    2  502  501 -0.11248575346E+02  0.29316153128E+02 -0.21878362575E+03  0.22102543333E+03  0.00000000000E+00 0.  1.
<mgrwt>
<rscale>  1 0.30000000E+03</rscale>
<asrwt>0</asrwt>
<pdfrwt beam="1">  1        1 0.53081990E-02 0.30000000E+03</pdfrwt>
<pdfrwt beam="2">0</pdfrwt>
<totfact> 0.18288121E+03</totfact>
</mgrwt>
</event>
<event>
 6    1  0.1956957E-002  0.3000000E+03  0.7818608E-02  0.1093470E+00
          1   -1    0    0  502    0  0.00000000000E+00  0.00000000000E+00  0.25486950094E+01  0.25486950094E+01  0.00000000000E+00 0.  1.
         13   -1    0    0    0    0 -0.00000000000E+00 -0.00000000000E+00 -0.10000000000E+04  0.10000000000E+04  0.00000000000E+00 0.  1.
    9000005    2    1    2  501    0 -0.41330174029E+02 -0.19826746769E+02 -0.70738874003E+03  0.70888634679E+03  0.44429680712E+01 0.  0.
         13    1    3    3    0    0 -0.21492143031E+02 -0.83007669459E+01 -0.37421969704E+03  0.37492825526E+03  0.00000000000E+00 0.  1.
          1    1    3    3  501    0 -0.19838030997E+02 -0.11525979823E+02 -0.33316904300E+03  0.33395809153E+03  0.00000000000E+00 0.  1.
         21    1    1    2  502  501  0.41330174029E+02  0.19826746769E+02 -0.29006256496E+03  0.29366234822E+03  0.00000000000E+00 0.  1.
<mgrwt>
<rscale>  1 0.30000000E+03</rscale>
<asrwt>0</asrwt>
<pdfrwt beam="1">  1        1 0.92680014E-02 0.30000000E+03</pdfrwt>
<pdfrwt beam="2">0</pdfrwt>
<totfact> 0.83952806E+02</totfact>
</mgrwt>
</event>
<event>
 6    1  0.1956957E-002  0.3000000E+03  0.7818608E-02  0.1093470E+00
          1   -1    0    0  502    0  0.00000000000E+00  0.00000000000E+00  0.97464133584E+00  0.97464133584E+00  0.00000000000E+00 0.  1.
         13   -1    0    0    0    0 -0.00000000000E+00 -0.00000000000E+00 -0.10000000000E+04  0.10000000000E+04  0.00000000000E+00 0.  1.
    9000005    2    1    2  501    0  0.29629220737E+02  0.86710455735E+01 -0.56437386163E+03  0.56522815354E+03  0.34542886031E+01 0.  0.
         13    1    3    3    0    0  0.19124258292E+02  0.64335356449E+01 -0.39363250700E+03  0.39414930953E+03  0.00000000000E+00 0.  1.
          3    1    3    3  501    0  0.10504962445E+02  0.22375099286E+01 -0.17074135462E+03  0.17107884400E+03  0.00000000000E+00 0.  1.
         21    1    1    2  502  501 -0.29629220737E+02 -0.86710455735E+01 -0.43465149704E+03  0.43574648780E+03  0.00000000000E+00 0.  1.
<mgrwt>
<rscale>  1 0.30000000E+03</rscale>
<asrwt>0</asrwt>
<pdfrwt beam="1">  1        1 0.35441578E-02 0.30000000E+03</pdfrwt>
<pdfrwt beam="2">0</pdfrwt>
<totfact> 0.32284504E+03</totfact>
</mgrwt>
</event>
<event>
 6    1  0.1956957E-002  0.3000000E+03  0.7818608E-02  0.1093470E+00
          3   -1    0    0  502    0  0.00000000000E+00  0.00000000000E+00  0.11658665037E+01  0.11658665037E+01  0.00000000000E+00 0.  1.
         13   -1    0    0    0    0 -0.00000000000E+00 -0.00000000000E+00 -0.10000000000E+04  0.10000000000E+04  0.00000000000E+00 0.  1.
    9000005    2    1    2  501    0  0.33135389888E+02  0.35685045515E+01 -0.39688126770E+03  0.39829113580E+03  0.32248896673E+01 0.  0.
         13    1    3    3    0    0  0.43883254054E+01 -0.26044607516E+00 -0.43333095506E+02  0.43555509389E+02  0.00000000000E+00 0.  1.
          1    1    3    3  501    0  0.28747064482E+02  0.38289506267E+01 -0.35354817220E+03  0.35473562641E+03  0.00000000000E+00 0.  1.
         21    1    1    2  502  501 -0.33135389888E+02 -0.35685045515E+01 -0.60195286579E+03  0.60287473071E+03  0.00000000000E+00 0.  1.
<mgrwt>
<rscale>  1 0.30000000E+03</rscale>
<asrwt>0</asrwt>
<pdfrwt beam="1">  1        3 0.42395235E-02 0.30000000E+03</pdfrwt>
<pdfrwt beam="2">0</pdfrwt>
<totfact> 0.12760097E+03</totfact>
</mgrwt>
</event>
<event>
 6    1  0.1956957E-002  0.3000000E+03  0.7818608E-02  0.1093470E+00
          1   -1    0    0  502    0  0.00000000000E+00  0.00000000000E+00  0.30703070290E+01  0.30703070290E+01  0.00000000000E+00 0.  1.
         13   -1    0    0    0    0 -0.00000000000E+00 -0.00000000000E+00 -0.10000000000E+04  0.10000000000E+04  0.00000000000E+00 0.  1.
    9000005    2    1    2  501    0  0.10266434173E+02 -0.38722177745E+02 -0.84473577804E+03  0.84569243545E+03  0.35148201751E+01 0.  0.
         13    1    3    3    0    0  0.95201371801E+01 -0.32714283861E+02 -0.73610062560E+03  0.73688872185E+03  0.00000000000E+00 0.  1.
          3    1    3    3  501    0  0.74629699281E+00 -0.60078938837E+01 -0.10863515244E+03  0.10880371360E+03  0.00000000000E+00 0.  1.
         21    1    1    2  502  501 -0.10266434173E+02  0.38722177745E+02 -0.15219391493E+03  0.15737787158E+03  0.00000000000E+00 0.  1.
<mgrwt>
<rscale>  1 0.30000000E+03</rscale>
<asrwt>0</asrwt>
<pdfrwt beam="1">  1        1 0.11164776E-01 0.30000000E+03</pdfrwt>
<pdfrwt beam="2">0</pdfrwt>
<totfact> 0.64937100E+02</totfact>
</mgrwt>
</event>
<event>
 6    1  0.1956957E-002  0.3000000E+03  0.7818608E-02  0.1093470E+00
          1   -1    0    0  502    0  0.00000000000E+00  0.00000000000E+00  0.33353072085E+01  0.33353072085E+01  0.00000000000E+00 0.  1.
         13   -1    0    0    0    0 -0.00000000000E+00 -0.00000000000E+00 -0.10000000000E+04  0.10000000000E+04  0.00000000000E+00 0.  1.
    9000005    2    1    2  501    0  0.17629504730E+02  0.41282067699E+02 -0.81378915491E+03  0.81503110941E+03  0.28128487011E+01 0.  0.
         13    1    3    3    0    0  0.17445291176E+02  0.39505978721E+02 -0.77903846070E+03  0.78023456972E+03  0.00000000000E+00 0.  1.
          3    1    3    3  501    0  0.18421355406E+00  0.17760889777E+01 -0.34750694209E+02  0.34796539694E+02  0.00000000000E+00 0.  1.
         21    1    1    2  502  501 -0.17629504730E+02 -0.41282067699E+02 -0.18287553789E+03  0.18830419780E+03  0.00000000000E+00 0.  1.
<mgrwt>
<rscale>  1 0.30000000E+03</rscale>
<asrwt>0</asrwt>
<pdfrwt beam="1">  1        1 0.12128415E-01 0.30000000E+03</pdfrwt>
<pdfrwt beam="2">0</pdfrwt>
<totfact> 0.57965358E+02</totfact>
</mgrwt>
</event>
<event>
 6    1  0.1956957E-002  0.3000000E+03  0.7818608E-02  0.1093470E+00
          3   -1    0    0  502    0  0.00000000000E+00  0.00000000000E+00  0.10028041026E+01  0.10028041026E+01  0.00000000000E+00 0.  1.
         13   -1    0    0    0    0 -0.00000000000E+00 -0.00000000000E+00 -0.10000000000E+04  0.10000000000E+04  0.00000000000E+00 0.  1.
    9000005    2    1    2  501    0  0.20053116316E+02  0.24332791932E+02 -0.47148275414E+03  0.47254684709E+03  0.32129438502E+01 0.  0.
         13    1    3    3    0    0  0.17126392017E+02  0.21398041613E+02 -0.39283050881E+03  0.39378547223E+03  0.00000000000E+00 0.  1.
          1    1    3    3  501    0  0.29267242991E+01  0.29347503189E+01 -0.78652245328E+02  0.78761374859E+02  0.00000000000E+00 0.  1.
         21    1    1    2  502  501 -0.20053116316E+02 -0.24332791932E+02 -0.52751444176E+03  0.52845595701E+03  0.00000000000E+00 0.  1.
<mgrwt>
<rscale>  1 0.30000000E+03</rscale>
<asrwt>0</asrwt>
<pdfrwt beam="1">  1        3 0.36465681E-02 0.30000000E+03</pdfrwt>
<pdfrwt beam="2">0</pdfrwt>
<totfact> 0.16086108E+03</totfact>
</mgrwt>
</event>
<event>
 6    1  0.1956957E-002  0.3000000E+03  0.7818608E-02  0.1093470E+00
          1   -1    0    0  502    0  0.00000000000E+00  0.00000000000E+00  0.25535615856E+01  0.25535615856E+01  0.00000000000E+00 0.  1.
         13   -1    0    0    0    0 -0.00000000000E+00 -0.00000000000E+00 -0.10000000000E+04  0.10000000000E+04  0.00000000000E+00 0.  1.
    9000005    2    1    2  501    0  0.48679375306E+02  0.22966091147E+01 -0.36900167825E+03  0.37222208326E+03  0.34763082807E+01 0.  0.
         13    1    3    3    0    0  0.37530217415E+02  0.21519046931E+01 -0.29486720478E+03  0.29725379118E+03  0.00000000000E+00 0.  1.
          1    1    3    3  501    0  0.11149157891E+02  0.14470442162E+00 -0.74134473469E+02  0.74968292081E+02  0.00000000000E+00 0.  1.
         21    1    1    2  502  501 -0.48679375306E+02 -0.22966091147E+01 -0.62844476016E+03  0.63033147833E+03  0.00000000000E+00 0.  1.
<mgrwt>
<rscale>  1 0.30000000E+03</rscale>
<asrwt>0</asrwt>
<pdfrwt beam="1">  1        1 0.92856981E-02 0.30000000E+03</pdfrwt>
<pdfrwt beam="2">0</pdfrwt>
<totfact> 0.83731242E+02</totfact>
</mgrwt>
</event>
<event>
 6    1  0.1956957E-002  0.3000000E+03  0.7818608E-02  0.1093470E+00
          1   -1    0    0  502    0  0.00000000000E+00  0.00000000000E+00  0.13876380759E+01  0.13876380759E+01  0.00000000000E+00 0.  1.
         13   -1    0    0    0    0 -0.00000000000E+00 -0.00000000000E+00 -0.10000000000E+04  0.10000000000E+04  0.00000000000E+00 0.  1.
    9000005    2    1    2  501    0  0.19140967209E+02  0.26072513384E+02 -0.74565722826E+03  0.74637302628E+03  0.46732996665E+01 0.  0.
         13    1    3    3    0    0  0.18296911905E+02  0.24986519022E+02 -0.68436401323E+03  0.68506438071E+03  0.00000000000E+00 0.  1.
          3    1    3    3  501    0  0.84405530312E+00  0.10859943614E+01 -0.61293215033E+02  0.61308645575E+02  0.00000000000E+00 0.  1.
         21    1    1    2  502  501 -0.19140967209E+02 -0.26072513384E+02 -0.25295513366E+03  0.25501461179E+03  0.00000000000E+00 0.  1.
<mgrwt>
<rscale>  1 0.30000000E+03</rscale>
<asrwt>0</asrwt>
<pdfrwt beam="1">  1        1 0.50459673E-02 0.30000000E+03</pdfrwt>
<pdfrwt beam="2">0</pdfrwt>
<totfact> 0.19637390E+03</totfact>
</mgrwt>
</event>
<event>
 6    1  0.1956957E-002  0.3000000E+03  0.7818608E-02  0.1093470E+00
          1   -1    0    0  502    0  0.00000000000E+00  0.00000000000E+00  0.12950808215E+01  0.12950808215E+01  0.00000000000E+00 0.  1.
         13   -1    0    0    0    0 -0.00000000000E+00 -0.00000000000E+00 -0.10000000000E+04  0.10000000000E+04  0.00000000000E+00 0.  1.
    9000005    2    1    2  501    0 -0.31514241221E+02  0.63911753393E+01 -0.72013205250E+03  0.72087247729E+03  0.57411631660E+01 0.  0.
         13    1    3    3    0    0 -0.22203025179E+02  0.63981864965E+01 -0.47092098630E+03  0.47148752524E+03  0.00000000000E+00 0.  1.
          3    1    3    3  501    0 -0.93112160420E+01 -0.70111572629E-02 -0.24921106619E+03  0.24938495204E+03  0.00000000000E+00 0.  1.
         21    1    1    2  502  501  0.31514241221E+02 -0.63911753393E+01 -0.27857286668E+03  0.28042260354E+03  0.00000000000E+00 0.  1.
<mgrwt>
<rscale>  1 0.30000000E+03</rscale>
<asrwt>0</asrwt>
<pdfrwt beam="1">  1        1 0.47093947E-02 0.30000000E+03</pdfrwt>
<pdfrwt beam="2">0</pdfrwt>
<totfact> 0.21638851E+03</totfact>
</mgrwt>
</event>
<event>
 6    1  0.1956957E-002  0.3000000E+03  0.7818608E-02  0.1093470E+00
          1   -1    0    0  502    0  0.00000000000E+00  0.00000000000E+00  0.28251197879E+01  0.28251197879E+01  0.00000000000E+00 0.  1.
         13   -1    0    0    0    0 -0.00000000000E+00 -0.00000000000E+00 -0.10000000000E+04  0.10000000000E+04  0.00000000000E+00 0.  1.
    9000005    2    1    2  501    0  0.26393996853E+02  0.22145348825E+02 -0.88022833817E+03  0.88090894678E+03  0.34037716950E+01 0.  0.
         13    1    3    3    0    0  0.19492844767E+02  0.16264259663E+02 -0.60842263002E+03  0.60895204561E+03  0.00000000000E+00 0.  1.
          1    1    3    3  501    0  0.69011520851E+01  0.58810891620E+01 -0.27180570815E+03  0.27195690117E+03  0.00000000000E+00 0.  1.
         21    1    1    2  502  501 -0.26393996853E+02 -0.22145348825E+02 -0.11694654205E+03  0.12191617301E+03  0.00000000000E+00 0.  1.
<mgrwt>
<rscale>  1 0.30000000E+03</rscale>
<asrwt>0</asrwt>
<pdfrwt beam="1">  1        1 0.10273185E-01 0.30000000E+03</pdfrwt>
<pdfrwt beam="2">0</pdfrwt>
<totfact> 0.72815529E+02</totfact>
</mgrwt>
</event>
<event>
 6    1  0.1956957E-002  0.3000000E+03  0.7818608E-02  0.1093470E+00
          3   -1    0    0  502    0  0.00000000000E+00  0.00000000000E+00  0.20904785503E+01  0.20904785503E+01  0.00000000000E+00 0.  1.
         13   -1    0    0    0    0 -0.00000000000E+00 -0.00000000000E+00 -0.10000000000E+04  0.10000000000E+04  0.00000000000E+00 0.  1.
    9000005    2    1    2  501    0 -0.14753263515E+02  0.29072493449E+02 -0.84994707265E+03  0.85057891162E+03  0.34043974729E+01 0.  0.
         13    1    3    3    0    0 -0.12094194809E+02  0.20672458782E+02 -0.60875109581E+03  0.60922205865E+03  0.00000000000E+00 0.  1.
          3    1    3    3  501    0 -0.26590687053E+01  0.84000346667E+01 -0.24119597685E+03  0.24135685297E+03  0.00000000000E+00 0.  1.
         21    1    1    2  502  501  0.14753263515E+02 -0.29072493449E+02 -0.14796244880E+03  0.15151156693E+03  0.00000000000E+00 0.  1.
<mgrwt>
<rscale>  1 0.30000000E+03</rscale>
<asrwt>0</asrwt>
<pdfrwt beam="1">  1        3 0.76017562E-02 0.30000000E+03</pdfrwt>
<pdfrwt beam="2">0</pdfrwt>
<totfact> 0.51406417E+02</totfact>
</mgrwt>
</event>
<event>
 6    1  0.1956957E-002  0.3000000E+03  0.7818608E-02  0.1093470E+00
          3   -1    0    0  502    0  0.00000000000E+00  0.00000000000E+00  0.96377553318E+00  0.96377553318E+00  0.00000000000E+00 0.  1.
         13   -1    0    0    0    0 -0.00000000000E+00 -0.00000000000E+00 -0.10000000000E+04  0.10000000000E+04  0.00000000000E+00 0.  1.
    9000005    2    1    2  501    0 -0.22545062137E+02  0.21207729916E+02 -0.49580039988E+03  0.49677696216E+03  0.33564823538E+01 0.  0.
         13    1    3    3    0    0 -0.15983412334E+02  0.16971865325E+02 -0.37684660446E+03  0.37756704964E+03  0.00000000000E+00 0.  1.
          3    1    3    3  501    0 -0.65616498023E+01  0.42358645910E+01 -0.11895379543E+03  0.11920991252E+03  0.00000000000E+00 0.  1.
         21    1    1    2  502  501  0.22545062137E+02 -0.21207729916E+02 -0.50323582458E+03  0.50418681337E+03  0.00000000000E+00 0.  1.
<mgrwt>
<rscale>  1 0.30000000E+03</rscale>
<asrwt>0</asrwt>
<pdfrwt beam="1">  1        3 0.35046457E-02 0.30000000E+03</pdfrwt>
<pdfrwt beam="2">0</pdfrwt>
<totfact> 0.17102449E+03</totfact>
</mgrwt>
</event>
<event>
 6    1  0.1956957E-002  0.3000000E+03  0.7818608E-02  0.1093470E+00
          3   -1    0    0  502    0  0.00000000000E+00  0.00000000000E+00  0.10546694275E+01  0.10546694275E+01  0.00000000000E+00 0.  1.
         13   -1    0    0    0    0 -0.00000000000E+00 -0.00000000000E+00 -0.10000000000E+04  0.10000000000E+04  0.00000000000E+00 0.  1.
    9000005    2    1    2  501    0  0.18765060068E+02  0.25119005420E+02 -0.37553714498E+03  0.37685850013E+03  0.33301563792E+01 0.  0.
         13    1    3    3    0    0  0.13674413742E+02  0.18194660295E+02 -0.28942068615E+03  0.29031425874E+03  0.00000000000E+00 0.  1.
          3    1    3    3  501    0  0.50906463256E+01  0.69243451250E+01 -0.86116458836E+02  0.86544241391E+02  0.00000000000E+00 0.  1.
         21    1    1    2  502  501 -0.18765060068E+02 -0.25119005420E+02 -0.62340818559E+03  0.62419616930E+03  0.00000000000E+00 0.  1.
<mgrwt>
<rscale>  1 0.30000000E+03</rscale>
<asrwt>0</asrwt>
<pdfrwt beam="1">  1        3 0.38351696E-02 0.30000000E+03</pdfrwt>
<pdfrwt beam="2">0</pdfrwt>
<totfact> 0.14884694E+03</totfact>
</mgrwt>
</event>
<event>
 6    1  0.1956957E-002  0.3000000E+03  0.7818608E-02  0.1093470E+00
          3   -1    0    0  502    0  0.00000000000E+00  0.00000000000E+00  0.81075935194E+01  0.81075935194E+01  0.00000000000E+00 0.  1.
         13   -1    0    0    0    0 -0.00000000000E+00 -0.00000000000E+00 -0.10000000000E+04  0.10000000000E+04  0.00000000000E+00 0.  1.
    9000005    2    1    2  501    0  0.39227733156E+02  0.27174882979E+02 -0.92335912655E+03  0.92459651777E+03  0.30585604771E+01 0.  0.
         13    1    3    3    0    0  0.17346827759E+02  0.12865483720E+02 -0.44401019730E+03  0.44453513743E+03  0.00000000000E+00 0.  1.
          3    1    3    3  501    0  0.21880905397E+02  0.14309399258E+02 -0.47934892925E+03  0.48006138035E+03  0.00000000000E+00 0.  1.
         21    1    1    2  502  501 -0.39227733156E+02 -0.27174882979E+02 -0.68533279935E+02  0.83511075745E+02  0.00000000000E+00 0.  1.
<mgrwt>
<rscale>  1 0.30000000E+03</rscale>
<asrwt>0</asrwt>
<pdfrwt beam="1">  1        3 0.29482220E-01 0.30000000E+03</pdfrwt>
<pdfrwt beam="2">0</pdfrwt>
<totfact> 0.48336781E+01</totfact>
</mgrwt>
</event>
<event>
 6    1  0.1956957E-002  0.3000000E+03  0.7818608E-02  0.1093470E+00
          1   -1    0    0  502    0  0.00000000000E+00  0.00000000000E+00  0.31327248002E+01  0.31327248002E+01  0.00000000000E+00 0.  1.
         13   -1    0    0    0    0 -0.00000000000E+00 -0.00000000000E+00 -0.10000000000E+04  0.10000000000E+04  0.00000000000E+00 0.  1.
    9000005    2    1    2  501    0  0.40380802168E+02 -0.18118837023E+02 -0.80517264293E+03  0.80639499715E+03  0.33173892231E+01 0.  0.
         13    1    3    3    0    0  0.79174682838E+01 -0.42573945185E+01 -0.14319330885E+03  0.14347520836E+03  0.00000000000E+00 0.  1.
          3    1    3    3  501    0  0.32463333884E+02 -0.13861442505E+02 -0.66197933408E+03  0.66291978880E+03  0.00000000000E+00 0.  1.
         21    1    1    2  502  501 -0.40380802168E+02  0.18118837023E+02 -0.19169463227E+03  0.19673772765E+03  0.00000000000E+00 0.  1.
<mgrwt>
<rscale>  1 0.30000000E+03</rscale>
<asrwt>0</asrwt>
<pdfrwt beam="1">  1        1 0.11391751E-01 0.30000000E+03</pdfrwt>
<pdfrwt beam="2">0</pdfrwt>
<totfact> 0.63167169E+02</totfact>
</mgrwt>
</event>
<event>
 6    1  0.1956957E-002  0.3000000E+03  0.7818608E-02  0.1093470E+00
          3   -1    0    0  502    0  0.00000000000E+00  0.00000000000E+00  0.11540606220E+01  0.11540606220E+01  0.00000000000E+00 0.  1.
         13   -1    0    0    0    0 -0.00000000000E+00 -0.00000000000E+00 -0.10000000000E+04  0.10000000000E+04  0.00000000000E+00 0.  1.
    9000005    2    1    2  501    0 -0.24605562245E+02 -0.22033886553E+02 -0.38783029931E+03  0.38924635659E+03  0.30755817563E+01 0.  0.
         13    1    3    3    0    0 -0.12582167977E+02 -0.12454098556E+02 -0.19279028664E+03  0.19360142083E+03  0.00000000000E+00 0.  1.
          1    1    3    3  501    0 -0.12023394268E+02 -0.95797879972E+01 -0.19504001267E+03  0.19564493576E+03  0.00000000000E+00 0.  1.
         21    1    1    2  502  501  0.24605562245E+02  0.22033886553E+02 -0.61101564006E+03  0.61190770403E+03  0.00000000000E+00 0.  1.
<mgrwt>
<rscale>  1 0.30000000E+03</rscale>
<asrwt>0</asrwt>
<pdfrwt beam="1">  1        3 0.41965929E-02 0.30000000E+03</pdfrwt>
<pdfrwt beam="2">0</pdfrwt>
<totfact> 0.12961272E+03</totfact>
</mgrwt>
</event>
<event>
 6    1  0.1956957E-002  0.3000000E+03  0.7818608E-02  0.1093470E+00
          1   -1    0    0  502    0  0.00000000000E+00  0.00000000000E+00  0.15963640310E+01  0.15963640310E+01  0.00000000000E+00 0.  1.
         13   -1    0    0    0    0 -0.00000000000E+00 -0.00000000000E+00 -0.10000000000E+04  0.10000000000E+04  0.00000000000E+00 0.  1.
    9000005    2    1    2  501    0  0.10698288495E+02 -0.28241206133E+02 -0.82664003144E+03  0.82719809873E+03  0.33066381730E+01 0.  0.
         13    1    3    3    0    0  0.34328982855E+01 -0.13200691468E+02 -0.35138821538E+03  0.35165284152E+03  0.00000000000E+00 0.  1.
          3    1    3    3  501    0  0.72653902095E+01 -0.15040514665E+02 -0.47525181607E+03  0.47554525720E+03  0.00000000000E+00 0.  1.
         21    1    1    2  502  501 -0.10698288495E+02  0.28241206133E+02 -0.17176360453E+03  0.17439826530E+03  0.00000000000E+00 0.  1.
<mgrwt>
<rscale>  1 0.30000000E+03</rscale>
<asrwt>0</asrwt>
<pdfrwt beam="1">  1        1 0.58049724E-02 0.30000000E+03</pdfrwt>
<pdfrwt beam="2">0</pdfrwt>
<totfact> 0.16129290E+03</totfact>
</mgrwt>
</event>
<event>
 6    1  0.1956957E-002  0.3000000E+03  0.7818608E-02  0.1093470E+00
          1   -1    0    0  502    0  0.00000000000E+00  0.00000000000E+00  0.34971598102E+01  0.34971598102E+01  0.00000000000E+00 0.  1.
         13   -1    0    0    0    0 -0.00000000000E+00 -0.00000000000E+00 -0.10000000000E+04  0.10000000000E+04  0.00000000000E+00 0.  1.
    9000005    2    1    2  501    0  0.52530110564E+02  0.19160377064E+02 -0.66071306822E+03  0.66308372951E+03  0.34265532528E+01 0.  0.
         13    1    3    3    0    0  0.13092238776E+02  0.32518040133E+01 -0.15549372517E+03  0.15607779955E+03  0.00000000000E+00 0.  1.
          3    1    3    3  501    0  0.39437871788E+02  0.15908573051E+02 -0.50521934305E+03  0.50700592996E+03  0.00000000000E+00 0.  1.
         21    1    1    2  502  501 -0.52530110564E+02 -0.19160377064E+02 -0.33578977197E+03  0.34041343030E+03  0.00000000000E+00 0.  1.
<mgrwt>
<rscale>  1 0.30000000E+03</rscale>
<asrwt>0</asrwt>
<pdfrwt beam="1">  1        1 0.12716972E-01 0.30000000E+03</pdfrwt>
<pdfrwt beam="2">0</pdfrwt>
<totfact> 0.54323862E+02</totfact>
</mgrwt>
</event>
<event>
 6    1  0.1956957E-002  0.3000000E+03  0.7818608E-02  0.1093470E+00
          1   -1    0    0  502    0  0.00000000000E+00  0.00000000000E+00  0.29529588993E+01  0.29529588993E+01  0.00000000000E+00 0.  1.
         13   -1    0    0    0    0 -0.00000000000E+00 -0.00000000000E+00 -0.10000000000E+04  0.10000000000E+04  0.00000000000E+00 0.  1.
    9000005    2    1    2  501    0 -0.37131880569E+02 -0.29247336575E+02 -0.74536968803E+03  0.74687548371E+03  0.35823288207E+01 0.  0.
         13    1    3    3    0    0 -0.36351928005E+02 -0.27963225970E+02 -0.71594896260E+03  0.71741642143E+03  0.00000000000E+00 0.  1.
          1    1    3    3  501    0 -0.77995256414E+00 -0.12841106050E+01 -0.29420725424E+02  0.29459062282E+02  0.00000000000E+00 0.  1.
         21    1    1    2  502  501  0.37131880569E+02  0.29247336575E+02 -0.25167735307E+03  0.25607747519E+03  0.00000000000E+00 0.  1.
<mgrwt>
<rscale>  1 0.30000000E+03</rscale>
<asrwt>0</asrwt>
<pdfrwt beam="1">  1        1 0.10738055E-01 0.30000000E+03</pdfrwt>
<pdfrwt beam="2">0</pdfrwt>
<totfact> 0.68510450E+02</totfact>
</mgrwt>
</event>
<event>
 6    1  0.1956957E-002  0.3000000E+03  0.7818608E-02  0.1093470E+00
          1   -1    0    0  502    0  0.00000000000E+00  0.00000000000E+00  0.82779819673E+01  0.82779819673E+01  0.00000000000E+00 0.  1.
         13   -1    0    0    0    0 -0.00000000000E+00 -0.00000000000E+00 -0.10000000000E+04  0.10000000000E+04  0.00000000000E+00 0.  1.
    9000005    2    1    2  501    0  0.17392016673E+02 -0.36442981252E+02 -0.94760423243E+03  0.94847035592E+03  0.34149114865E+01 0.  0.
         13    1    3    3    0    0  0.11244634966E+02 -0.21776982724E+02 -0.53948758695E+03  0.54004401234E+03  0.00000000000E+00 0.  1.
          1    1    3    3  501    0  0.61473817071E+01 -0.14665998528E+02 -0.40811664548E+03  0.40842634358E+03  0.00000000000E+00 0.  1.
         21    1    1    2  502  501 -0.17392016673E+02  0.36442981252E+02 -0.44117785603E+02  0.59807626044E+02  0.00000000000E+00 0.  1.
<mgrwt>
<rscale>  1 0.30000000E+03</rscale>
<asrwt>0</asrwt>
<pdfrwt beam="1">  1        1 0.30101816E-01 0.30000000E+03</pdfrwt>
<pdfrwt beam="2">0</pdfrwt>
<totfact> 0.17145228E+02</totfact>
</mgrwt>
</event>
<event>
 6    1  0.1956957E-002  0.3000000E+03  0.7818608E-02  0.1093470E+00
          1   -1    0    0  502    0  0.00000000000E+00  0.00000000000E+00  0.11600032750E+01  0.11600032750E+01  0.00000000000E+00 0.  1.
         13   -1    0    0    0    0 -0.00000000000E+00 -0.00000000000E+00 -0.10000000000E+04  0.10000000000E+04  0.00000000000E+00 0.  1.
    9000005    2    1    2  501    0  0.32452653007E+02 -0.88122965777E+01 -0.56342477289E+03  0.56444814358E+03  0.48374391171E+01 0.  0.
         13    1    3    3    0    0  0.20003740817E+01  0.31591033204E+00 -0.49141259056E+02  0.49182971010E+02  0.00000000000E+00 0.  1.
          3    1    3    3  501    0  0.30452278925E+02 -0.91282069098E+01 -0.51428351384E+03  0.51526517257E+03  0.00000000000E+00 0.  1.
         21    1    1    2  502  501 -0.32452653007E+02  0.88122965777E+01 -0.43541522383E+03  0.43671185970E+03  0.00000000000E+00 0.  1.
<mgrwt>
<rscale>  1 0.30000000E+03</rscale>
<asrwt>0</asrwt>
<pdfrwt beam="1">  1        1 0.42182026E-02 0.30000000E+03</pdfrwt>
<pdfrwt beam="2">0</pdfrwt>
<totfact> 0.25267454E+03</totfact>
</mgrwt>
</event>
<event>
 6    1  0.1956957E-002  0.3000000E+03  0.7818608E-02  0.1093470E+00
          1   -1    0    0  502    0  0.00000000000E+00  0.00000000000E+00  0.17103315683E+02  0.17103315683E+02  0.00000000000E+00 0.  1.
         13   -1    0    0    0    0 -0.00000000000E+00 -0.00000000000E+00 -0.10000000000E+04  0.10000000000E+04  0.00000000000E+00 0.  1.
    9000005    2    1    2  501    0  0.12974165962E+03  0.12288828655E+02 -0.44984549307E+03  0.46835247419E+03  0.30263663133E+01 0.  0.
         13    1    3    3    0    0  0.96808699471E+01  0.16290630442E+00 -0.34343442110E+02  0.35682177587E+02  0.00000000000E+00 0.  1.
          3    1    3    3  501    0  0.12006078967E+03  0.12125922350E+02 -0.41550205096E+03  0.43267029661E+03  0.00000000000E+00 0.  1.
         21    1    1    2  502  501 -0.12974165962E+03 -0.12288828655E+02 -0.53305119124E+03  0.54875084149E+03  0.00000000000E+00 0.  1.
<mgrwt>
<rscale>  1 0.30000000E+03</rscale>
<asrwt>0</asrwt>
<pdfrwt beam="1">  1        1 0.62194006E-01 0.30000000E+03</pdfrwt>
<pdfrwt beam="2">0</pdfrwt>
<totfact> 0.66104673E+01</totfact>
</mgrwt>
</event>
<event>
 6    1  0.1956957E-002  0.3000000E+03  0.7818608E-02  0.1093470E+00
          3   -1    0    0  502    0  0.00000000000E+00  0.00000000000E+00  0.13242944134E+01  0.13242944134E+01  0.00000000000E+00 0.  1.
         13   -1    0    0    0    0 -0.00000000000E+00 -0.00000000000E+00 -0.10000000000E+04  0.10000000000E+04  0.00000000000E+00 0.  1.
    9000005    2    1    2  501    0  0.25364153386E+02  0.17610040383E+02 -0.23637621282E+03  0.23839967791E+03  0.26904720266E+01 0.  0.
         13    1    3    3    0    0  0.14394086171E+02  0.83703738182E+01 -0.12811889979E+03  0.12919638291E+03  0.00000000000E+00 0.  1.
          1    1    3    3  501    0  0.10970067216E+02  0.92396665649E+01 -0.10825731303E+03  0.10920329500E+03  0.00000000000E+00 0.  1.
         21    1    1    2  502  501 -0.25364153386E+02 -0.17610040383E+02 -0.76229949276E+03  0.76292461650E+03  0.00000000000E+00 0.  1.
<mgrwt>
<rscale>  1 0.30000000E+03</rscale>
<asrwt>0</asrwt>
<pdfrwt beam="1">  1        3 0.48156262E-02 0.30000000E+03</pdfrwt>
<pdfrwt beam="2">0</pdfrwt>
<totfact> 0.10484610E+03</totfact>
</mgrwt>
</event>
<event>
 6    1  0.1956957E-002  0.3000000E+03  0.7818608E-02  0.1093470E+00
          1   -1    0    0  502    0  0.00000000000E+00  0.00000000000E+00  0.14297778104E+02  0.14297778104E+02  0.00000000000E+00 0.  1.
         13   -1    0    0    0    0 -0.00000000000E+00 -0.00000000000E+00 -0.10000000000E+04  0.10000000000E+04  0.00000000000E+00 0.  1.
    9000005    2    1    2  501    0  0.49791271360E+02 -0.27119392251E+02 -0.93926698517E+03  0.94101160376E+03  0.81078263772E+01 0.  0.
         13    1    3    3    0    0  0.24150318107E+02 -0.11330768096E+02 -0.50276046058E+03  0.50346768009E+03  0.00000000000E+00 0.  1.
          3    1    3    3  501    0  0.25640953253E+02 -0.15788624155E+02 -0.43650652459E+03  0.43754392367E+03  0.00000000000E+00 0.  1.
         21    1    1    2  502  501 -0.49791271360E+02  0.27119392251E+02 -0.46435236727E+02  0.73286174341E+02  0.00000000000E+00 0.  1.
<mgrwt>
<rscale>  1 0.30000000E+03</rscale>
<asrwt>0</asrwt>
<pdfrwt beam="1">  1        1 0.51992030E-01 0.30000000E+03</pdfrwt>
<pdfrwt beam="2">0</pdfrwt>
<totfact> 0.83827669E+01</totfact>
</mgrwt>
</event>
<event>
 6    1  0.1956957E-002  0.3000000E+03  0.7818608E-02  0.1093470E+00
          1   -1    0    0  502    0  0.00000000000E+00  0.00000000000E+00  0.23512834360E+01  0.23512834360E+01  0.00000000000E+00 0.  1.
         13   -1    0    0    0    0 -0.00000000000E+00 -0.00000000000E+00 -0.10000000000E+04  0.10000000000E+04  0.00000000000E+00 0.  1.
    9000005    2    1    2  501    0 -0.35154917149E+02  0.22781024682E+02 -0.75060126325E+03  0.75177736725E+03  0.34799751574E+01 0.  0.
         13    1    3    3    0    0 -0.29333144765E+02  0.19676634278E+02 -0.61067364093E+03  0.61169428560E+03  0.00000000000E+00 0.  1.
          3    1    3    3  501    0 -0.58217723842E+01  0.31043904047E+01 -0.13992762233E+03  0.14008308165E+03  0.00000000000E+00 0.  1.
         21    1    1    2  502  501  0.35154917149E+02 -0.22781024682E+02 -0.24704745331E+03  0.25057391619E+03  0.00000000000E+00 0.  1.
<mgrwt>
<rscale>  1 0.30000000E+03</rscale>
<asrwt>0</asrwt>
<pdfrwt beam="1">  1        1 0.85501396E-02 0.30000000E+03</pdfrwt>
<pdfrwt beam="2">0</pdfrwt>
<totfact> 0.93886567E+02</totfact>
</mgrwt>
</event>
<event>
 6    1  0.1956957E-002  0.3000000E+03  0.7818608E-02  0.1093470E+00
          1   -1    0    0  502    0  0.00000000000E+00  0.00000000000E+00  0.79715300217E+01  0.79715300217E+01  0.00000000000E+00 0.  1.
         13   -1    0    0    0    0 -0.00000000000E+00 -0.00000000000E+00 -0.10000000000E+04  0.10000000000E+04  0.00000000000E+00 0.  1.
    9000005    2    1    2  501    0 -0.46874288013E+02  0.45126783615E+02 -0.84101487565E+03  0.84353694987E+03  0.38651343616E+01 0.  0.
         13    1    3    3    0    0 -0.40445559579E+02  0.40335977033E+02 -0.72709933424E+03  0.72933961649E+03  0.00000000000E+00 0.  1.
          1    1    3    3  501    0 -0.64287284334E+01  0.47908065821E+01 -0.11391554141E+03  0.11419733338E+03  0.00000000000E+00 0.  1.
         21    1    1    2  502  501  0.46874288013E+02 -0.45126783615E+02 -0.15101359433E+03  0.16443458015E+03  0.00000000000E+00 0.  1.
<mgrwt>
<rscale>  1 0.30000000E+03</rscale>
<asrwt>0</asrwt>
<pdfrwt beam="1">  1        1 0.28987443E-01 0.30000000E+03</pdfrwt>
<pdfrwt beam="2">0</pdfrwt>
<totfact> 0.18015347E+02</totfact>
</mgrwt>
</event>
<event>
 6    1  0.1956957E-002  0.3000000E+03  0.7818608E-02  0.1093470E+00
          3   -1    0    0  502    0  0.00000000000E+00  0.00000000000E+00  0.13920264549E+01  0.13920264549E+01  0.00000000000E+00 0.  1.
         13   -1    0    0    0    0 -0.00000000000E+00 -0.00000000000E+00 -0.10000000000E+04  0.10000000000E+04  0.00000000000E+00 0.  1.
    9000005    2    1    2  501    0  0.92706327361E+01 -0.34327065431E+02 -0.64835957205E+03  0.64934340083E+03  0.35249800083E+01 0.  0.
         13    1    3    3    0    0  0.21356346998E+01 -0.79028299933E+01 -0.17799660461E+03  0.17818475498E+03  0.00000000000E+00 0.  1.
          1    1    3    3  501    0  0.71349980363E+01 -0.26424235437E+02 -0.47036296744E+03  0.47115864584E+03  0.00000000000E+00 0.  1.
         21    1    1    2  502  501 -0.92706327361E+01  0.34327065431E+02 -0.35024840150E+03  0.35204862563E+03  0.00000000000E+00 0.  1.
<mgrwt>
<rscale>  1 0.30000000E+03</rscale>
<asrwt>0</asrwt>
<pdfrwt beam="1">  1        3 0.50619251E-02 0.30000000E+03</pdfrwt>
<pdfrwt beam="2">0</pdfrwt>
<totfact> 0.97076943E+02</totfact>
</mgrwt>
</event>
<event>
 6    1  0.1956957E-002  0.3000000E+03  0.7818608E-02  0.1093470E+00
          1   -1    0    0  502    0  0.00000000000E+00  0.00000000000E+00  0.12904975513E+01  0.12904975513E+01  0.00000000000E+00 0.  1.
         13   -1    0    0    0    0 -0.00000000000E+00 -0.00000000000E+00 -0.10000000000E+04  0.10000000000E+04  0.00000000000E+00 0.  1.
    9000005    2    1    2  501    0  0.28004731860E+02 -0.18477078056E+02 -0.67588766317E+03  0.67672986017E+03  0.36746434429E+01 0.  0.
         13    1    3    3    0    0  0.23362760074E+02 -0.16884417986E+02 -0.56936078652E+03  0.57008999935E+03  0.00000000000E+00 0.  1.
          1    1    3    3  501    0  0.46419717865E+01 -0.15926600698E+01 -0.10652687664E+03  0.10663986082E+03  0.00000000000E+00 0.  1.
         21    1    1    2  502  501 -0.28004731860E+02  0.18477078056E+02 -0.32282183928E+03  0.32456063738E+03  0.00000000000E+00 0.  1.
<mgrwt>
<rscale>  1 0.30000000E+03</rscale>
<asrwt>0</asrwt>
<pdfrwt beam="1">  1        1 0.46927283E-02 0.30000000E+03</pdfrwt>
<pdfrwt beam="2">0</pdfrwt>
<totfact> 0.21747029E+03</totfact>
</mgrwt>
</event>
<event>
 6    1  0.1956957E-002  0.3000000E+03  0.7818608E-02  0.1093470E+00
          3   -1    0    0  502    0  0.00000000000E+00  0.00000000000E+00  0.99208898341E+00  0.99208898341E+00  0.00000000000E+00 0.  1.
         13   -1    0    0    0    0 -0.00000000000E+00 -0.00000000000E+00 -0.10000000000E+04  0.10000000000E+04  0.00000000000E+00 0.  1.
    9000005    2    1    2  501    0  0.39964001225E+01  0.30249040590E+02 -0.61750929103E+03  0.61827525799E+03  0.39489833032E+01 0.  0.
         13    1    3    3    0    0  0.23926180046E+01  0.89101903469E+01 -0.21435158553E+03  0.21455003689E+03  0.00000000000E+00 0.  1.
          3    1    3    3  501    0  0.16037821179E+01  0.21338850243E+02 -0.40315770550E+03  0.40372522110E+03  0.00000000000E+00 0.  1.
         21    1    1    2  502  501 -0.39964001225E+01 -0.30249040590E+02 -0.38149861999E+03  0.38271683099E+03  0.00000000000E+00 0.  1.
<mgrwt>
<rscale>  1 0.30000000E+03</rscale>
<asrwt>0</asrwt>
<pdfrwt beam="1">  1        3 0.36076039E-02 0.30000000E+03</pdfrwt>
<pdfrwt beam="2">0</pdfrwt>
<totfact> 0.16354800E+03</totfact>
</mgrwt>
</event>
<event>
 6    1  0.1956957E-002  0.3000000E+03  0.7818608E-02  0.1093470E+00
          3   -1    0    0  502    0  0.00000000000E+00  0.00000000000E+00  0.13142181563E+01  0.13142181563E+01  0.00000000000E+00 0.  1.
         13   -1    0    0    0    0 -0.00000000000E+00 -0.00000000000E+00 -0.10000000000E+04  0.10000000000E+04  0.00000000000E+00 0.  1.
    9000005    2    1    2  501    0  0.11698937485E+02  0.31639682397E+02 -0.68063433846E+03  0.68147886164E+03  0.35215804319E+01 0.  0.
         13    1    3    3    0    0  0.82327088782E+01  0.25845174244E+02 -0.55768339496E+03  0.55834265424E+03  0.00000000000E+00 0.  1.
          1    1    3    3  501    0  0.34662286064E+01  0.57945081531E+01 -0.12295094350E+03  0.12313620740E+03  0.00000000000E+00 0.  1.
         21    1    1    2  502  501 -0.11698937485E+02 -0.31639682397E+02 -0.31805144339E+03  0.31983535652E+03  0.00000000000E+00 0.  1.
<mgrwt>
<rscale>  1 0.30000000E+03</rscale>
<asrwt>0</asrwt>
<pdfrwt beam="1">  1        3 0.47789852E-02 0.30000000E+03</pdfrwt>
<pdfrwt beam="2">0</pdfrwt>
<totfact> 0.10608910E+03</totfact>
</mgrwt>
</event>
<event>
 6    1  0.1956957E-002  0.3000000E+03  0.7818608E-02  0.1093470E+00
          3   -1    0    0  502    0  0.00000000000E+00  0.00000000000E+00  0.10607125330E+01  0.10607125330E+01  0.00000000000E+00 0.  1.
         13   -1    0    0    0    0 -0.00000000000E+00 -0.00000000000E+00 -0.10000000000E+04  0.10000000000E+04  0.00000000000E+00 0.  1.
    9000005    2    1    2  501    0  0.53933849524E+01 -0.31017150304E+02 -0.37984811875E+03  0.38116957096E+03  0.38074001128E+01 0.  0.
         13    1    3    3    0    0  0.53922608858E+01 -0.20614219432E+02 -0.25680515365E+03  0.25768761992E+03  0.00000000000E+00 0.  1.
          1    1    3    3  501    0  0.11240665993E-02 -0.10402930872E+02 -0.12304296510E+03  0.12348195104E+03  0.00000000000E+00 0.  1.
         21    1    1    2  502  501 -0.53933849524E+01  0.31017150304E+02 -0.61909116872E+03  0.61989114157E+03  0.00000000000E+00 0.  1.
<mgrwt>
<rscale>  1 0.30000000E+03</rscale>
<asrwt>0</asrwt>
<pdfrwt beam="1">  1        3 0.38571446E-02 0.30000000E+03</pdfrwt>
<pdfrwt beam="2">0</pdfrwt>
<totfact> 0.14754522E+03</totfact>
</mgrwt>
</event>
<event>
 6    1  0.1956957E-002  0.3000000E+03  0.7818608E-02  0.1093470E+00
          3   -1    0    0  502    0  0.00000000000E+00  0.00000000000E+00  0.58155450281E+01  0.58155450281E+01  0.00000000000E+00 0.  1.
         13   -1    0    0    0    0 -0.00000000000E+00 -0.00000000000E+00 -0.10000000000E+04  0.10000000000E+04  0.00000000000E+00 0.  1.
    9000005    2    1    2  501    0  0.23527317704E+02  0.29276765886E+02 -0.93473710901E+03  0.93549733515E+03  0.33372751635E+01 0.  0.
         13    1    3    3    0    0  0.18410021824E+01  0.30849834903E+01 -0.11259604810E+03  0.11265334642E+03  0.00000000000E+00 0.  1.
          1    1    3    3  501    0  0.21686315522E+02  0.26191782396E+02 -0.82214106091E+03  0.82284398873E+03  0.00000000000E+00 0.  1.
         21    1    1    2  502  501 -0.23527317704E+02 -0.29276765886E+02 -0.59447345961E+02  0.70318209882E+02  0.00000000000E+00 0.  1.
<mgrwt>
<rscale>  1 0.30000000E+03</rscale>
<asrwt>0</asrwt>
<pdfrwt beam="1">  1        3 0.21147481E-01 0.30000000E+03</pdfrwt>
<pdfrwt beam="2">0</pdfrwt>
<totfact> 0.90249020E+01</totfact>
</mgrwt>
</event>
<event>
 6    1  0.1956957E-002  0.3000000E+03  0.7818608E-02  0.1093470E+00
          1   -1    0    0  502    0  0.00000000000E+00  0.00000000000E+00  0.23413680075E+02  0.23413680075E+02  0.00000000000E+00 0.  1.
         13   -1    0    0    0    0 -0.00000000000E+00 -0.00000000000E+00 -0.10000000000E+04  0.10000000000E+04  0.00000000000E+00 0.  1.
    9000005    2    1    2  501    0 -0.12430915940E+03 -0.11711559716E+02 -0.78405081536E+03  0.79393634294E+03  0.30508737553E+01 0.  0.
         13    1    3    3    0    0 -0.85635397856E+02 -0.71491036621E+01 -0.54634397490E+03  0.55306081940E+03  0.00000000000E+00 0.  1.
          1    1    3    3  501    0 -0.38673761543E+02 -0.45624560544E+01 -0.23770684046E+03  0.24087552353E+03  0.00000000000E+00 0.  1.
         21    1    1    2  502  501  0.12430915940E+03  0.11711559716E+02 -0.19253550456E+03  0.22947733714E+03  0.00000000000E+00 0.  1.
<mgrwt>
<rscale>  1 0.30000000E+03</rscale>
<asrwt>0</asrwt>
<pdfrwt beam="1">  1        1 0.85140834E-01 0.30000000E+03</pdfrwt>
<pdfrwt beam="2">0</pdfrwt>
<totfact> 0.43069338E+01</totfact>
</mgrwt>
</event>
<event>
 6    1  0.1956957E-002  0.3000000E+03  0.7818608E-02  0.1093470E+00
          3   -1    0    0  502    0  0.00000000000E+00  0.00000000000E+00  0.10935356400E+01  0.10935356400E+01  0.00000000000E+00 0.  1.
         13   -1    0    0    0    0 -0.00000000000E+00 -0.00000000000E+00 -0.10000000000E+04  0.10000000000E+04  0.00000000000E+00 0.  1.
    9000005    2    1    2  501    0 -0.45603655439E+00  0.30535845333E+02 -0.68929203158E+03  0.68997660778E+03  0.34012725649E+01 0.  0.
         13    1    3    3    0    0 -0.72761583564E-01  0.51151790272E+00 -0.26175637566E+02  0.26180736177E+02  0.00000000000E+00 0.  1.
          3    1    3    3  501    0 -0.38327497082E+00  0.30024327430E+02 -0.66311639402E+03  0.66379587160E+03  0.00000000000E+00 0.  1.
         21    1    1    2  502  501  0.45603655439E+00 -0.30535845333E+02 -0.30961443278E+03  0.31111692786E+03  0.00000000000E+00 0.  1.
<mgrwt>
<rscale>  1 0.30000000E+03</rscale>
<asrwt>0</asrwt>
<pdfrwt beam="1">  1        3 0.39765016E-02 0.30000000E+03</pdfrwt>
<pdfrwt beam="2">0</pdfrwt>
<totfact> 0.14079513E+03</totfact>
</mgrwt>
</event>
<event>
 6    1  0.1956957E-002  0.3000000E+03  0.7818608E-02  0.1093470E+00
          1   -1    0    0  502    0  0.00000000000E+00  0.00000000000E+00  0.19516462508E+01  0.19516462508E+01  0.00000000000E+00 0.  1.
         13   -1    0    0    0    0 -0.00000000000E+00 -0.00000000000E+00 -0.10000000000E+04  0.10000000000E+04  0.00000000000E+00 0.  1.
    9000005    2    1    2  501    0  0.11606973870E+02  0.30591923276E+02 -0.83533236061E+03  0.83597850976E+03  0.30542580312E+01 0.  0.
         13    1    3    3    0    0  0.36370878085E+01  0.12390170180E+02 -0.30115332193E+03  0.30143003837E+03  0.00000000000E+00 0.  1.
          1    1    3    3  501    0  0.79698860619E+01  0.18201753096E+02 -0.53417903868E+03  0.53454847139E+03  0.00000000000E+00 0.  1.
         21    1    1    2  502  501 -0.11606973870E+02 -0.30591923276E+02 -0.16271599314E+03  0.16597313649E+03  0.00000000000E+00 0.  1.
<mgrwt>
<rscale>  1 0.30000000E+03</rscale>
<asrwt>0</asrwt>
<pdfrwt beam="1">  1        1 0.70969104E-02 0.30000000E+03</pdfrwt>
<pdfrwt beam="2">0</pdfrwt>
<totfact> 0.12171873E+03</totfact>
</mgrwt>
</event>
<event>
 6    1  0.1956957E-002  0.3000000E+03  0.7818608E-02  0.1093470E+00
          1   -1    0    0  502    0  0.00000000000E+00  0.00000000000E+00  0.11537799971E+01  0.11537799971E+01  0.00000000000E+00 0.  1.
         13   -1    0    0    0    0 -0.00000000000E+00 -0.00000000000E+00 -0.10000000000E+04  0.10000000000E+04  0.00000000000E+00 0.  1.
    9000005    2    1    2  501    0  0.19501985022E+01  0.33492806921E+02 -0.56983843415E+03  0.57083616275E+03  0.35372702155E+01 0.  0.
         13    1    3    3    0    0  0.15569023286E+01  0.62584392539E+01 -0.12172963996E+03  0.12190035788E+03  0.00000000000E+00 0.  1.
          3    1    3    3  501    0  0.39329617360E+00  0.27234367667E+02 -0.44810879419E+03  0.44893580487E+03  0.00000000000E+00 0.  1.
         21    1    1    2  502  501 -0.19501985022E+01 -0.33492806921E+02 -0.42900778585E+03  0.43031761724E+03  0.00000000000E+00 0.  1.
<mgrwt>
<rscale>  1 0.30000000E+03</rscale>
<asrwt>0</asrwt>
<pdfrwt beam="1">  1        1 0.41955725E-02 0.30000000E+03</pdfrwt>
<pdfrwt beam="2">0</pdfrwt>
<totfact> 0.25459553E+03</totfact>
</mgrwt>
</event>
<event>
 6    1  0.1956957E-002  0.3000000E+03  0.7818608E-02  0.1093470E+00
          3   -1    0    0  502    0  0.00000000000E+00  0.00000000000E+00  0.17735000300E+01  0.17735000300E+01  0.00000000000E+00 0.  1.
         13   -1    0    0    0    0 -0.00000000000E+00 -0.00000000000E+00 -0.10000000000E+04  0.10000000000E+04  0.00000000000E+00 0.  1.
    9000005    2    1    2  501    0  0.11609166650E+02 -0.40088503717E+02 -0.46327707466E+03  0.46519848335E+03  0.64900022643E+01 0.  0.
         13    1    3    3    0    0  0.12346670922E+02 -0.36603646615E+02 -0.41775072004E+03  0.41953299193E+03  0.00000000000E+00 0.  1.
          3    1    3    3  501    0 -0.73750427242E+00 -0.34848571024E+01 -0.45526354619E+02  0.45665491418E+02  0.00000000000E+00 0.  1.
         21    1    1    2  502  501 -0.11609166650E+02  0.40088503717E+02 -0.53494942531E+03  0.53657501668E+03  0.00000000000E+00 0.  1.
<mgrwt>
<rscale>  1 0.30000000E+03</rscale>
<asrwt>0</asrwt>
<pdfrwt beam="1">  1        3 0.64491046E-02 0.30000000E+03</pdfrwt>
<pdfrwt beam="2">0</pdfrwt>
<totfact> 0.66618956E+02</totfact>
</mgrwt>
</event>
<event>
 6    1  0.1956957E-002  0.3000000E+03  0.7818608E-02  0.1093470E+00
          1   -1    0    0  502    0  0.00000000000E+00  0.00000000000E+00  0.18206538843E+01  0.18206538843E+01  0.00000000000E+00 0.  1.
         13   -1    0    0    0    0 -0.00000000000E+00 -0.00000000000E+00 -0.10000000000E+04  0.10000000000E+04  0.00000000000E+00 0.  1.
    9000005    2    1    2  501    0 -0.29544051491E+02  0.18291010751E+02 -0.78918206928E+03  0.78995448439E+03  0.35123890483E+01 0.  0.
         13    1    3    3    0    0 -0.15570735255E+02  0.11029405045E+02 -0.40300727546E+03  0.40345874590E+03  0.00000000000E+00 0.  1.
          1    1    3    3  501    0 -0.13973316235E+02  0.72616057065E+01 -0.38617479383E+03  0.38649573849E+03  0.00000000000E+00 0.  1.
         21    1    1    2  502  501  0.29544051491E+02 -0.18291010751E+02 -0.20899727683E+03  0.21186616949E+03  0.00000000000E+00 0.  1.
<mgrwt>
<rscale>  1 0.30000000E+03</rscale>
<asrwt>0</asrwt>
<pdfrwt beam="1">  1        1 0.66205735E-02 0.30000000E+03</pdfrwt>
<pdfrwt beam="2">0</pdfrwt>
<totfact> 0.13414372E+03</totfact>
</mgrwt>
</event>
<event>
 6    1  0.1956957E-002  0.3000000E+03  0.7818608E-02  0.1093470E+00
          3   -1    0    0  502    0  0.00000000000E+00  0.00000000000E+00  0.17465344070E+01  0.17465344070E+01  0.00000000000E+00 0.  1.
         13   -1    0    0    0    0 -0.00000000000E+00 -0.00000000000E+00 -0.10000000000E+04  0.10000000000E+04  0.00000000000E+00 0.  1.
    9000005    2    1    2  501    0 -0.38576298637E+02 -0.11136791661E+01 -0.68337083074E+03  0.68450775237E+03  0.81116981764E+01 0.  0.
         13    1    3    3    0    0 -0.18745748547E+02 -0.44408220301E+01 -0.35377913313E+03  0.35430325856E+03  0.00000000000E+00 0.  1.
          1    1    3    3  501    0 -0.19830550090E+02  0.33271428640E+01 -0.32959169762E+03  0.33020449381E+03  0.00000000000E+00 0.  1.
         21    1    1    2  502  501  0.38576298637E+02  0.11136791661E+01 -0.31488263485E+03  0.31723878204E+03  0.00000000000E+00 0.  1.
<mgrwt>
<rscale>  1 0.30000000E+03</rscale>
<asrwt>0</asrwt>
<pdfrwt beam="1">  1        3 0.63510476E-02 0.30000000E+03</pdfrwt>
<pdfrwt beam="2">0</pdfrwt>
<totfact> 0.68235021E+02</totfact>
</mgrwt>
</event>
<event>
 6    1  0.1956957E-002  0.3000000E+03  0.7818608E-02  0.1093470E+00
          1   -1    0    0  502    0  0.00000000000E+00  0.00000000000E+00  0.18535977805E+01  0.18535977805E+01  0.00000000000E+00 0.  1.
         13   -1    0    0    0    0 -0.00000000000E+00 -0.00000000000E+00 -0.10000000000E+04  0.10000000000E+04  0.00000000000E+00 0.  1.
    9000005    2    1    2  501    0 -0.35420890174E+02 -0.10773381537E+02 -0.75392627601E+03  0.75484312178E+03  0.35501581495E+01 0.  0.
         13    1    3    3    0    0 -0.26886158498E+02 -0.96010045801E+01 -0.56626630288E+03  0.56698551180E+03  0.00000000000E+00 0.  1.
          1    1    3    3  501    0 -0.85347316758E+01 -0.11723769571E+01 -0.18765997313E+03  0.18785760998E+03  0.00000000000E+00 0.  1.
         21    1    1    2  502  501  0.35420890174E+02  0.10773381537E+02 -0.24422012621E+03  0.24701047600E+03  0.00000000000E+00 0.  1.
<mgrwt>
<rscale>  1 0.30000000E+03</rscale>
<asrwt>0</asrwt>
<pdfrwt beam="1">  1        1 0.67403698E-02 0.30000000E+03</pdfrwt>
<pdfrwt beam="2">0</pdfrwt>
<totfact> 0.13081826E+03</totfact>
</mgrwt>
</event>
<event>
 6    1  0.1956957E-002  0.3000000E+03  0.7818608E-02  0.1093470E+00
          1   -1    0    0  502    0  0.00000000000E+00  0.00000000000E+00  0.33743163063E+01  0.33743163063E+01  0.00000000000E+00 0.  1.
         13   -1    0    0    0    0 -0.00000000000E+00 -0.00000000000E+00 -0.10000000000E+04  0.10000000000E+04  0.00000000000E+00 0.  1.
    9000005    2    1    2  501    0 -0.47629786987E+01 -0.43800320022E+02 -0.82502416074E+03  0.82620706008E+03  0.34765377394E+01 0.  0.
         13    1    3    3    0    0 -0.36716766300E+01 -0.26040881203E+02 -0.51951955579E+03  0.52018475329E+03  0.00000000000E+00 0.  1.
          1    1    3    3  501    0 -0.10913020687E+01 -0.17759438819E+02 -0.30550460495E+03  0.30602230679E+03  0.00000000000E+00 0.  1.
         21    1    1    2  502  501  0.47629786987E+01  0.43800320022E+02 -0.17160152295E+03  0.17716725623E+03  0.00000000000E+00 0.  1.
<mgrwt>
<rscale>  1 0.30000000E+03</rscale>
<asrwt>0</asrwt>
<pdfrwt beam="1">  1        1 0.12270267E-01 0.30000000E+03</pdfrwt>
<pdfrwt beam="2">0</pdfrwt>
<totfact> 0.57049047E+02</totfact>
</mgrwt>
</event>
<event>
 6    1  0.1956957E-002  0.3000000E+03  0.7818608E-02  0.1093470E+00
          3   -1    0    0  502    0  0.00000000000E+00  0.00000000000E+00  0.10761139180E+01  0.10761139180E+01  0.00000000000E+00 0.  1.
         13   -1    0    0    0    0 -0.00000000000E+00 -0.00000000000E+00 -0.10000000000E+04  0.10000000000E+04  0.00000000000E+00 0.  1.
    9000005    2    1    2  501    0  0.30697455912E+02  0.91004513011E+01 -0.39827191083E+03  0.39957137796E+03  0.34086816146E+01 0.  0.
         13    1    3    3    0    0  0.23795276520E+02  0.78875132147E+01 -0.32482210872E+03  0.32578801445E+03  0.00000000000E+00 0.  1.
          1    1    3    3  501    0  0.69021793924E+01  0.12129380864E+01 -0.73449802116E+02  0.73783363505E+02  0.00000000000E+00 0.  1.
         21    1    1    2  502  501 -0.30697455912E+02 -0.91004513011E+01 -0.60065197525E+03  0.60150473596E+03  0.00000000000E+00 0.  1.
<mgrwt>
<rscale>  1 0.30000000E+03</rscale>
<asrwt>0</asrwt>
<pdfrwt beam="1">  1        3 0.39131498E-02 0.30000000E+03</pdfrwt>
<pdfrwt beam="2">0</pdfrwt>
<totfact> 0.14431229E+03</totfact>
</mgrwt>
</event>
<event>
 6    1  0.1956957E-002  0.3000000E+03  0.7818608E-02  0.1093470E+00
          1   -1    0    0  502    0  0.00000000000E+00  0.00000000000E+00  0.13294061437E+02  0.13294061437E+02  0.00000000000E+00 0.  1.
         13   -1    0    0    0    0 -0.00000000000E+00 -0.00000000000E+00 -0.10000000000E+04  0.10000000000E+04  0.00000000000E+00 0.  1.
    9000005    2    1    2  501    0 -0.20044918471E+02 -0.97665455921E+02 -0.74757345442E+03  0.75420974117E+03  0.50915500357E+01 0.  0.
         13    1    3    3    0    0 -0.12394296798E+02 -0.68424183296E+02 -0.53366619099E+03  0.53817756443E+03  0.00000000000E+00 0.  1.
          3    1    3    3  501    0 -0.76506216730E+01 -0.29241272625E+02 -0.21390726343E+03  0.21603217673E+03  0.00000000000E+00 0.  1.
         21    1    1    2  502  501  0.20044918471E+02  0.97665455921E+02 -0.23913248414E+03  0.25908432027E+03  0.00000000000E+00 0.  1.
<mgrwt>
<rscale>  1 0.30000000E+03</rscale>
<asrwt>0</asrwt>
<pdfrwt beam="1">  1        1 0.48342144E-01 0.30000000E+03</pdfrwt>
<pdfrwt beam="2">0</pdfrwt>
<totfact> 0.92243912E+01</totfact>
</mgrwt>
</event>
<event>
 6    1  0.1956957E-002  0.3000000E+03  0.7818608E-02  0.1093470E+00
          3   -1    0    0  502    0  0.00000000000E+00  0.00000000000E+00  0.20452761469E+01  0.20452761469E+01  0.00000000000E+00 0.  1.
         13   -1    0    0    0    0 -0.00000000000E+00 -0.00000000000E+00 -0.10000000000E+04  0.10000000000E+04  0.00000000000E+00 0.  1.
    9000005    2    1    2  501    0  0.14551710822E+02 -0.36598189506E+02 -0.74456351975E+03  0.74561149897E+03  0.32392411488E+01 0.  0.
         13    1    3    3    0    0  0.78165737448E+01 -0.23751104366E+02 -0.47849641691E+03  0.47914928236E+03  0.00000000000E+00 0.  1.
          1    1    3    3  501    0  0.67351370775E+01 -0.12847085139E+02 -0.26606710284E+03  0.26646221661E+03  0.00000000000E+00 0.  1.
         21    1    1    2  502  501 -0.14551710822E+02  0.36598189506E+02 -0.25339120410E+03  0.25643377718E+03  0.00000000000E+00 0.  1.
<mgrwt>
<rscale>  1 0.30000000E+03</rscale>
<asrwt>0</asrwt>
<pdfrwt beam="1">  1        3 0.74373835E-02 0.30000000E+03</pdfrwt>
<pdfrwt beam="2">0</pdfrwt>
<totfact> 0.53222566E+02</totfact>
</mgrwt>
</event>
<event>
 6    1  0.1956957E-002  0.3000000E+03  0.7818608E-02  0.1093470E+00
          3   -1    0    0  502    0  0.00000000000E+00  0.00000000000E+00  0.12595916232E+01  0.12595916232E+01  0.00000000000E+00 0.  1.
         13   -1    0    0    0    0 -0.00000000000E+00 -0.00000000000E+00 -0.10000000000E+04  0.10000000000E+04  0.00000000000E+00 0.  1.
    9000005    2    1    2  501    0  0.27897734595E+02  0.13063258756E+02 -0.74699548684E+03  0.74763696281E+03  0.31366352463E+01 0.  0.
         13    1    3    3    0    0  0.73209038137E+01  0.27216863752E+01 -0.16153445151E+03  0.16172316542E+03  0.00000000000E+00 0.  1.
          1    1    3    3  501    0  0.20576830781E+02  0.10341572381E+02 -0.58546103533E+03  0.58591379739E+03  0.00000000000E+00 0.  1.
         21    1    1    2  502  501 -0.27897734595E+02 -0.13063258756E+02 -0.25174492154E+03  0.25362262881E+03  0.00000000000E+00 0.  1.
<mgrwt>
<rscale>  1 0.30000000E+03</rscale>
<asrwt>0</asrwt>
<pdfrwt beam="1">  1        3 0.45803428E-02 0.30000000E+03</pdfrwt>
<pdfrwt beam="2">0</pdfrwt>
<totfact> 0.11327280E+03</totfact>
</mgrwt>
</event>
<event>
 6    1  0.1956957E-002  0.3000000E+03  0.7818608E-02  0.1093470E+00
          3   -1    0    0  502    0  0.00000000000E+00  0.00000000000E+00  0.22356140656E+01  0.22356140656E+01  0.00000000000E+00 0.  1.
         13   -1    0    0    0    0 -0.00000000000E+00 -0.00000000000E+00 -0.10000000000E+04  0.10000000000E+04  0.00000000000E+00 0.  1.
    9000005    2    1    2  501    0 -0.65456763055E+01 -0.31574935840E+02 -0.86512524787E+03  0.86573300091E+03  0.34802172488E+01 0.  0.
         13    1    3    3    0    0  0.30720921187E+00 -0.12948604497E+01 -0.26681813525E+02  0.26714981080E+02  0.00000000000E+00 0.  1.
          3    1    3    3  501    0 -0.68528855174E+01 -0.30280075390E+02 -0.83844343435E+03  0.83901801983E+03  0.00000000000E+00 0.  1.
         21    1    1    2  502  501  0.65456763055E+01  0.31574935840E+02 -0.13263913806E+03  0.13650261315E+03  0.00000000000E+00 0.  1.
<mgrwt>
<rscale>  1 0.30000000E+03</rscale>
<asrwt>0</asrwt>
<pdfrwt beam="1">  1        3 0.81295228E-02 0.30000000E+03</pdfrwt>
<pdfrwt beam="2">0</pdfrwt>
<totfact> 0.46190851E+02</totfact>
</mgrwt>
</event>
<event>
 6    1  0.1956957E-002  0.3000000E+03  0.7818608E-02  0.1093470E+00
          3   -1    0    0  502    0  0.00000000000E+00  0.00000000000E+00  0.32790805663E+01  0.32790805663E+01  0.00000000000E+00 0.  1.
         13   -1    0    0    0    0 -0.00000000000E+00 -0.00000000000E+00 -0.10000000000E+04  0.10000000000E+04  0.00000000000E+00 0.  1.
    9000005    2    1    2  501    0 -0.34710581991E+02 -0.44159287800E+02 -0.59446486800E+03  0.59712049317E+03  0.30881831897E+01 0.  0.
         13    1    3    3    0    0 -0.16606208336E+02 -0.21825888395E+02 -0.30597352761E+03  0.30720015488E+03  0.00000000000E+00 0.  1.
          1    1    3    3  501    0 -0.18104373655E+02 -0.22333399405E+02 -0.28849134039E+03  0.28992033829E+03  0.00000000000E+00 0.  1.
         21    1    1    2  502  501  0.34710581991E+02  0.44159287800E+02 -0.40225605144E+03  0.40615858740E+03  0.00000000000E+00 0.  1.
<mgrwt>
<rscale>  1 0.30000000E+03</rscale>
<asrwt>0</asrwt>
<pdfrwt beam="1">  1        3 0.11923954E-01 0.30000000E+03</pdfrwt>
<pdfrwt beam="2">0</pdfrwt>
<totfact> 0.24623892E+02</totfact>
</mgrwt>
</event>
<event>
 6    1  0.1956957E-002  0.3000000E+03  0.7818608E-02  0.1093470E+00
          3   -1    0    0  502    0  0.00000000000E+00  0.00000000000E+00  0.24525393778E+01  0.24525393778E+01  0.00000000000E+00 0.  1.
         13   -1    0    0    0    0 -0.00000000000E+00 -0.00000000000E+00 -0.10000000000E+04  0.10000000000E+04  0.00000000000E+00 0.  1.
    9000005    2    1    2  501    0  0.11265959223E+01 -0.49445007102E+02 -0.49100841915E+03  0.49350472430E+03  0.34010698290E+01 0.  0.
         13    1    3    3    0    0 -0.73069358373E+00 -0.30804969948E+02 -0.29716110967E+03  0.29875442287E+03  0.00000000000E+00 0.  1.
          1    1    3    3  501    0  0.18572895060E+01 -0.18640037155E+02 -0.19384730949E+03  0.19475030142E+03  0.00000000000E+00 0.  1.
         21    1    1    2  502  501 -0.11265959223E+01  0.49445007102E+02 -0.50653904147E+03  0.50894781508E+03  0.00000000000E+00 0.  1.
<mgrwt>
<rscale>  1 0.30000000E+03</rscale>
<asrwt>0</asrwt>
<pdfrwt beam="1">  1        3 0.89183438E-02 0.30000000E+03</pdfrwt>
<pdfrwt beam="2">0</pdfrwt>
<totfact> 0.39803935E+02</totfact>
</mgrwt>
</event>
<event>
 6    1  0.1956957E-002  0.3000000E+03  0.7818608E-02  0.1093470E+00
          3   -1    0    0  502    0  0.00000000000E+00  0.00000000000E+00  0.17932698125E+01  0.17932698125E+01  0.00000000000E+00 0.  1.
         13   -1    0    0    0    0 -0.00000000000E+00 -0.00000000000E+00 -0.10000000000E+04  0.10000000000E+04  0.00000000000E+00 0.  1.
    9000005    2    1    2  501    0  0.27899145998E+02  0.20525663208E+02 -0.22273335738E+03  0.22554677730E+03  0.78444289229E+01 0.  0.
         13    1    3    3    0    0  0.32111200588E+01  0.73963009823E+00 -0.11707896568E+02  0.12162778744E+02  0.00000000000E+00 0.  1.
          3    1    3    3  501    0  0.24688025939E+02  0.19786033110E+02 -0.21102546081E+03  0.21338399856E+03  0.00000000000E+00 0.  1.
         21    1    1    2  502  501 -0.27899145998E+02 -0.20525663208E+02 -0.77547337281E+03  0.77624649251E+03  0.00000000000E+00 0.  1.
<mgrwt>
<rscale>  1 0.30000000E+03</rscale>
<asrwt>0</asrwt>
<pdfrwt beam="1">  1        3 0.65209949E-02 0.30000000E+03</pdfrwt>
<pdfrwt beam="2">0</pdfrwt>
<totfact> 0.65472661E+02</totfact>
</mgrwt>
</event>
<event>
 6    1  0.1956957E-002  0.3000000E+03  0.7818608E-02  0.1093470E+00
          1   -1    0    0  502    0  0.00000000000E+00  0.00000000000E+00  0.51509988023E+01  0.51509988023E+01  0.00000000000E+00 0.  1.
         13   -1    0    0    0    0 -0.00000000000E+00 -0.00000000000E+00 -0.10000000000E+04  0.10000000000E+04  0.00000000000E+00 0.  1.
    9000005    2    1    2  501    0  0.21393282343E+02 -0.27993817334E+02 -0.93523345554E+03  0.93590260804E+03  0.32785739495E+01 0.  0.
         13    1    3    3    0    0  0.83760867281E+01 -0.11719994031E+02 -0.34207289227E+03  0.34237608082E+03  0.00000000000E+00 0.  1.
          1    1    3    3  501    0  0.13017195615E+02 -0.16273823303E+02 -0.59316056327E+03  0.59352652723E+03  0.00000000000E+00 0.  1.
         21    1    1    2  502  501 -0.21393282343E+02  0.27993817334E+02 -0.59615545660E+02  0.69248390759E+02  0.00000000000E+00 0.  1.
<mgrwt>
<rscale>  1 0.30000000E+03</rscale>
<asrwt>0</asrwt>
<pdfrwt beam="1">  1        1 0.18730944E-01 0.30000000E+03</pdfrwt>
<pdfrwt beam="2">0</pdfrwt>
<totfact> 0.32143712E+02</totfact>
</mgrwt>
</event>
<event>
 6    1  0.1956957E-002  0.3000000E+03  0.7818608E-02  0.1093470E+00
          1   -1    0    0  502    0  0.00000000000E+00  0.00000000000E+00  0.89585300332E+01  0.89585300332E+01  0.00000000000E+00 0.  1.
         13   -1    0    0    0    0 -0.00000000000E+00 -0.00000000000E+00 -0.10000000000E+04  0.10000000000E+04  0.00000000000E+00 0.  1.
    9000005    2    1    2  501    0 -0.75790791694E+02 -0.14883729254E+02 -0.78705519381E+03  0.79083890606E+03  0.21278468688E+01 0.  0.
         13    1    3    3    0    0 -0.62953555754E+02 -0.11671841193E+02 -0.64781608947E+03  0.65097240174E+03  0.00000000000E+00 0.  1.
          1    1    3    3  501    0 -0.12837235940E+02 -0.32118880614E+01 -0.13923910434E+03  0.13986650431E+03  0.00000000000E+00 0.  1.
         21    1    1    2  502  501  0.75790791694E+02  0.14883729254E+02 -0.20398627616E+03  0.21811962397E+03  0.00000000000E+00 0.  1.
<mgrwt>
<rscale>  1 0.30000000E+03</rscale>
<asrwt>0</asrwt>
<pdfrwt beam="1">  1        1 0.32576542E-01 0.30000000E+03</pdfrwt>
<pdfrwt beam="2">0</pdfrwt>
<totfact> 0.15458114E+02</totfact>
</mgrwt>
</event>
<event>
 6    1  0.1956957E-002  0.3000000E+03  0.7818608E-02  0.1093470E+00
          1   -1    0    0  502    0  0.00000000000E+00  0.00000000000E+00  0.20623861478E+01  0.20623861478E+01  0.00000000000E+00 0.  1.
         13   -1    0    0    0    0 -0.00000000000E+00 -0.00000000000E+00 -0.10000000000E+04  0.10000000000E+04  0.00000000000E+00 0.  1.
    9000005    2    1    2  501    0 -0.12791553271E+02 -0.35387035772E+02 -0.77888186271E+03  0.77979838042E+03  0.35625698217E+01 0.  0.
         13    1    3    3    0    0 -0.93258650498E-01 -0.30905172046E+01 -0.65405810615E+02  0.65478851975E+02  0.00000000000E+00 0.  1.
          3    1    3    3  501    0 -0.12698294621E+02 -0.32296518567E+02 -0.71347605210E+03  0.71431952844E+03  0.00000000000E+00 0.  1.
         21    1    1    2  502  501  0.12791553271E+02  0.35387035772E+02 -0.21905575114E+03  0.22226400573E+03  0.00000000000E+00 0.  1.
<mgrwt>
<rscale>  1 0.30000000E+03</rscale>
<asrwt>0</asrwt>
<pdfrwt beam="1">  1        1 0.74996018E-02 0.30000000E+03</pdfrwt>
<pdfrwt beam="2">0</pdfrwt>
<totfact> 0.11268755E+03</totfact>
</mgrwt>
</event>
<event>
 6    1  0.1956957E-002  0.3000000E+03  0.7818608E-02  0.1093470E+00
          1   -1    0    0  502    0  0.00000000000E+00  0.00000000000E+00  0.99539891774E+00  0.99539891774E+00  0.00000000000E+00 0.  1.
         13   -1    0    0    0    0 -0.00000000000E+00 -0.00000000000E+00 -0.10000000000E+04  0.10000000000E+04  0.00000000000E+00 0.  1.
    9000005    2    1    2  501    0 -0.28535808471E+02 -0.12640005529E+02 -0.43657558847E+03  0.43770110964E+03  0.31551271474E+01 0.  0.
         13    1    3    3    0    0 -0.25986507978E+01 -0.27266487423E+00 -0.41107589215E+02  0.41190547741E+02  0.00000000000E+00 0.  1.
          1    1    3    3  501    0 -0.25937157673E+02 -0.12367340655E+02 -0.39546799926E+03  0.39651056190E+03  0.00000000000E+00 0.  1.
         21    1    1    2  502  501  0.28535808471E+02  0.12640005529E+02 -0.56242901261E+03  0.56329428927E+03  0.00000000000E+00 0.  1.
<mgrwt>
<rscale>  1 0.30000000E+03</rscale>
<asrwt>0</asrwt>
<pdfrwt beam="1">  1        1 0.36196401E-02 0.30000000E+03</pdfrwt>
<pdfrwt beam="2">0</pdfrwt>
<totfact> 0.31341473E+03</totfact>
</mgrwt>
</event>
<event>
 6    1  0.1956957E-002  0.3000000E+03  0.7818608E-02  0.1093470E+00
          1   -1    0    0  502    0  0.00000000000E+00  0.00000000000E+00  0.13466166643E+01  0.13466166643E+01  0.00000000000E+00 0.  1.
         13   -1    0    0    0    0 -0.00000000000E+00 -0.00000000000E+00 -0.10000000000E+04  0.10000000000E+04  0.00000000000E+00 0.  1.
    9000005    2    1    2  501    0  0.33965344410E+02  0.33586555969E+00 -0.68509447321E+03  0.68595329469E+03  0.48711237983E+01 0.  0.
         13    1    3    3    0    0  0.19275294211E+02 -0.17818204913E+01 -0.41530000717E+03  0.41575089634E+03  0.00000000000E+00 0.  1.
          3    1    3    3  501    0  0.14690050199E+02  0.21176860510E+01 -0.26979446603E+03  0.27020239835E+03  0.00000000000E+00 0.  1.
         21    1    1    2  502  501 -0.33965344410E+02 -0.33586555969E+00 -0.31355891013E+03  0.31539332198E+03  0.00000000000E+00 0.  1.
<mgrwt>
<rscale>  1 0.30000000E+03</rscale>
<asrwt>0</asrwt>
<pdfrwt beam="1">  1        1 0.48967982E-02 0.30000000E+03</pdfrwt>
<pdfrwt beam="2">0</pdfrwt>
<totfact> 0.20483426E+03</totfact>
</mgrwt>
</event>
<event>
 6    1  0.1956957E-002  0.3000000E+03  0.7818608E-02  0.1093470E+00
          1   -1    0    0  502    0  0.00000000000E+00  0.00000000000E+00  0.43609135213E+01  0.43609135213E+01  0.00000000000E+00 0.  1.
         13   -1    0    0    0    0 -0.00000000000E+00 -0.00000000000E+00 -0.10000000000E+04  0.10000000000E+04  0.00000000000E+00 0.  1.
    9000005    2    1    2  501    0  0.40015858882E+02 -0.47771684534E+02 -0.66332997113E+03  0.66625922623E+03  0.33620131124E+01 0.  0.
         13    1    3    3    0    0  0.16609722051E+02 -0.22246896021E+02 -0.28858166287E+03  0.28991409657E+03  0.00000000000E+00 0.  1.
          1    1    3    3  501    0  0.23406136831E+02 -0.25524788513E+02 -0.37474830826E+03  0.37634512965E+03  0.00000000000E+00 0.  1.
         21    1    1    2  502  501 -0.40015858882E+02  0.47771684534E+02 -0.33230911535E+03  0.33810168730E+03  0.00000000000E+00 0.  1.
<mgrwt>
<rscale>  1 0.30000000E+03</rscale>
<asrwt>0</asrwt>
<pdfrwt beam="1">  1        1 0.15857901E-01 0.30000000E+03</pdfrwt>
<pdfrwt beam="2">0</pdfrwt>
<totfact> 0.40229230E+02</totfact>
</mgrwt>
</event>
<event>
 6    1  0.1956957E-002  0.3000000E+03  0.7818608E-02  0.1093470E+00
          1   -1    0    0  502    0  0.00000000000E+00  0.00000000000E+00  0.29887743423E+01  0.29887743423E+01  0.00000000000E+00 0.  1.
         13   -1    0    0    0    0 -0.00000000000E+00 -0.00000000000E+00 -0.10000000000E+04  0.10000000000E+04  0.00000000000E+00 0.  1.
    9000005    2    1    2  501    0 -0.32788114894E+02 -0.35225569528E+02 -0.73336988901E+03  0.73499128254E+03  0.80554370013E+01 0.  0.
         13    1    3    3    0    0 -0.26927363514E+02 -0.31641433647E+02 -0.65729074846E+03  0.65860260494E+03  0.00000000000E+00 0.  1.
          3    1    3    3  501    0 -0.58607513807E+01 -0.35841358811E+01 -0.76079140557E+02  0.76388677594E+02  0.00000000000E+00 0.  1.
         21    1    1    2  502  501  0.32788114894E+02  0.35225569528E+02 -0.26364133664E+03  0.26799749181E+03  0.00000000000E+00 0.  1.
<mgrwt>
<rscale>  1 0.30000000E+03</rscale>
<asrwt>0</asrwt>
<pdfrwt beam="1">  1        1 0.10868293E-01 0.30000000E+03</pdfrwt>
<pdfrwt beam="2">0</pdfrwt>
<totfact> 0.67383891E+02</totfact>
</mgrwt>
</event>
<event>
 6    1  0.1956957E-002  0.3000000E+03  0.7818608E-02  0.1093470E+00
          1   -1    0    0  502    0  0.00000000000E+00  0.00000000000E+00  0.11085292650E+01  0.11085292650E+01  0.00000000000E+00 0.  1.
         13   -1    0    0    0    0 -0.00000000000E+00 -0.00000000000E+00 -0.10000000000E+04  0.10000000000E+04  0.00000000000E+00 0.  1.
    9000005    2    1    2  501    0  0.24031107248E+02  0.21797471987E+02 -0.59192283751E+03  0.59284869494E+03  0.66562463808E+01 0.  0.
         13    1    3    3    0    0  0.20050151313E+02  0.14401224259E+02 -0.42961018208E+03  0.43031884966E+03  0.00000000000E+00 0.  1.
          1    1    3    3  501    0  0.39809559351E+01  0.73962477283E+01 -0.16231265544E+03  0.16252984528E+03  0.00000000000E+00 0.  1.
         21    1    1    2  502  501 -0.24031107248E+02 -0.21797471987E+02 -0.40696863322E+03  0.40825983433E+03  0.00000000000E+00 0.  1.
<mgrwt>
<rscale>  1 0.30000000E+03</rscale>
<asrwt>0</asrwt>
<pdfrwt beam="1">  1        1 0.40310240E-02 0.30000000E+03</pdfrwt>
<pdfrwt beam="2">0</pdfrwt>
<totfact> 0.26934927E+03</totfact>
</mgrwt>
</event>
<event>
 6    1  0.1956957E-002  0.3000000E+03  0.7818608E-02  0.1093470E+00
          3   -1    0    0  502    0  0.00000000000E+00  0.00000000000E+00  0.10599428160E+01  0.10599428160E+01  0.00000000000E+00 0.  1.
         13   -1    0    0    0    0 -0.00000000000E+00 -0.00000000000E+00 -0.10000000000E+04  0.10000000000E+04  0.00000000000E+00 0.  1.
    9000005    2    1    2  501    0  0.18937590851E+01 -0.29942259110E+02 -0.69109746312E+03  0.69175881458E+03  0.37985290554E+01 0.  0.
         13    1    3    3    0    0  0.51303948257E+00 -0.18990540450E+01 -0.29253250269E+02  0.29319315597E+02  0.00000000000E+00 0.  1.
          1    1    3    3  501    0  0.13807196025E+01 -0.28043205065E+02 -0.66184421285E+03  0.66243949899E+03  0.00000000000E+00 0.  1.
         21    1    1    2  502  501 -0.18937590851E+01  0.29942259110E+02 -0.30784259407E+03  0.30930112823E+03  0.00000000000E+00 0.  1.
<mgrwt>
<rscale>  1 0.30000000E+03</rscale>
<asrwt>0</asrwt>
<pdfrwt beam="1">  1        3 0.38543456E-02 0.30000000E+03</pdfrwt>
<pdfrwt beam="2">0</pdfrwt>
<totfact> 0.14770996E+03</totfact>
</mgrwt>
</event>
<event>
 6    1  0.1956957E-002  0.3000000E+03  0.7818608E-02  0.1093470E+00
          1   -1    0    0  502    0  0.00000000000E+00  0.00000000000E+00  0.19690928618E+01  0.19690928618E+01  0.00000000000E+00 0.  1.
         13   -1    0    0    0    0 -0.00000000000E+00 -0.00000000000E+00 -0.10000000000E+04  0.10000000000E+04  0.00000000000E+00 0.  1.
    9000005    2    1    2  501    0  0.19357383200E+02  0.34755029516E+02 -0.28016401927E+03  0.28300074234E+03  0.38629144198E+01 0.  0.
         13    1    3    3    0    0  0.16053360499E+02  0.31369027705E+02 -0.24670122854E+03  0.24920518142E+03  0.00000000000E+00 0.  1.
          1    1    3    3  501    0  0.33040227014E+01  0.33860018118E+01 -0.33462790726E+02  0.33795560913E+02  0.00000000000E+00 0.  1.
         21    1    1    2  502  501 -0.19357383200E+02 -0.34755029516E+02 -0.71786688787E+03  0.71896835053E+03  0.00000000000E+00 0.  1.
<mgrwt>
<rscale>  1 0.30000000E+03</rscale>
<asrwt>0</asrwt>
<pdfrwt beam="1">  1        1 0.71603528E-02 0.30000000E+03</pdfrwt>
<pdfrwt beam="2">0</pdfrwt>
<totfact> 0.12021403E+03</totfact>
</mgrwt>
</event>
<event>
 6    1  0.1956957E-002  0.3000000E+03  0.7818608E-02  0.1093470E+00
          1   -1    0    0  502    0  0.00000000000E+00  0.00000000000E+00  0.13404221163E+02  0.13404221163E+02  0.00000000000E+00 0.  1.
         13   -1    0    0    0    0 -0.00000000000E+00 -0.00000000000E+00 -0.10000000000E+04  0.10000000000E+04  0.00000000000E+00 0.  1.
    9000005    2    1    2  501    0  0.21150813876E+02 -0.80221068094E+02 -0.84668312586E+03  0.85074406268E+03  0.32199193382E+01 0.  0.
         13    1    3    3    0    0  0.13515060232E+02 -0.56962016459E+02 -0.59912182691E+03  0.60197532478E+03  0.00000000000E+00 0.  1.
          1    1    3    3  501    0  0.76357536444E+01 -0.23259051635E+02 -0.24756129896E+03  0.24876873790E+03  0.00000000000E+00 0.  1.
         21    1    1    2  502  501 -0.21150813876E+02  0.80221068094E+02 -0.13991265298E+03  0.16266015848E+03  0.00000000000E+00 0.  1.
<mgrwt>
<rscale>  1 0.30000000E+03</rscale>
<asrwt>0</asrwt>
<pdfrwt beam="1">  1        1 0.48742725E-01 0.30000000E+03</pdfrwt>
<pdfrwt beam="2">0</pdfrwt>
<totfact> 0.91250736E+01</totfact>
</mgrwt>
</event>
<event>
 6    1  0.1956957E-002  0.3000000E+03  0.7818608E-02  0.1093470E+00
          3   -1    0    0  502    0  0.00000000000E+00  0.00000000000E+00  0.16372557476E+01  0.16372557476E+01  0.00000000000E+00 0.  1.
         13   -1    0    0    0    0 -0.00000000000E+00 -0.00000000000E+00 -0.10000000000E+04  0.10000000000E+04  0.00000000000E+00 0.  1.
    9000005    2    1    2  501    0  0.37600433378E+02 -0.49207980405E+01 -0.67237037433E+03  0.67344671339E+03  0.32478699533E+01 0.  0.
         13    1    3    3    0    0  0.23875558816E+02 -0.46490685251E+01 -0.42299072383E+03  0.42368951909E+03  0.00000000000E+00 0.  1.
          3    1    3    3  501    0  0.13724874562E+02 -0.27172951542E+00 -0.24937965050E+03  0.24975719430E+03  0.00000000000E+00 0.  1.
         21    1    1    2  502  501 -0.37600433378E+02  0.49207980405E+01 -0.32599236993E+03  0.32819054236E+03  0.00000000000E+00 0.  1.
<mgrwt>
<rscale>  1 0.30000000E+03</rscale>
<asrwt>0</asrwt>
<pdfrwt beam="1">  1        3 0.59536698E-02 0.30000000E+03</pdfrwt>
<pdfrwt beam="2">0</pdfrwt>
<totfact> 0.75477519E+02</totfact>
</mgrwt>
</event>
<event>
 6    1  0.1956957E-002  0.3000000E+03  0.7818608E-02  0.1093470E+00
          1   -1    0    0  502    0  0.00000000000E+00  0.00000000000E+00  0.16460883305E+01  0.16460883305E+01  0.00000000000E+00 0.  1.
         13   -1    0    0    0    0 -0.00000000000E+00 -0.00000000000E+00 -0.10000000000E+04  0.10000000000E+04  0.00000000000E+00 0.  1.
    9000005    2    1    2  501    0 -0.26105410144E+02  0.22521857370E+02 -0.75786703017E+03  0.75870027817E+03  0.86573776498E+01 0.  0.
         13    1    3    3    0    0 -0.24493542882E+02  0.18537750463E+02 -0.61257129712E+03  0.61334099479E+03  0.00000000000E+00 0.  1.
          1    1    3    3  501    0 -0.16118672626E+01  0.39841069067E+01 -0.14529573304E+03  0.14535928338E+03  0.00000000000E+00 0.  1.
         21    1    1    2  502  501  0.26105410144E+02 -0.22521857370E+02 -0.24048688150E+03  0.24294581016E+03  0.00000000000E+00 0.  1.
<mgrwt>
<rscale>  1 0.30000000E+03</rscale>
<asrwt>0</asrwt>
<pdfrwt beam="1">  1        1 0.59857884E-02 0.30000000E+03</pdfrwt>
<pdfrwt beam="2">0</pdfrwt>
<totfact> 0.15449765E+03</totfact>
</mgrwt>
</event>
<event>
 6    1  0.1956957E-002  0.3000000E+03  0.7818608E-02  0.1093470E+00
          1   -1    0    0  502    0  0.00000000000E+00  0.00000000000E+00  0.74004938307E+01  0.74004938307E+01  0.00000000000E+00 0.  1.
         13   -1    0    0    0    0 -0.00000000000E+00 -0.00000000000E+00 -0.10000000000E+04  0.10000000000E+04  0.00000000000E+00 0.  1.
    9000005    2    1    2  501    0  0.15895054558E+02 -0.32265468688E+02 -0.95383481346E+03  0.95451935703E+03  0.35550436443E+01 0.  0.
         13    1    3    3    0    0  0.13484527043E+02 -0.26877083821E+02 -0.75988125215E+03  0.76047598744E+03  0.00000000000E+00 0.  1.
          1    1    3    3  501    0  0.24105275155E+01 -0.53883848666E+01 -0.19395356132E+03  0.19404336959E+03  0.00000000000E+00 0.  1.
         21    1    1    2  502  501 -0.15895054558E+02  0.32265468688E+02 -0.38764692706E+02  0.52881136803E+02  0.00000000000E+00 0.  1.
<mgrwt>
<rscale>  1 0.30000000E+03</rscale>
<asrwt>0</asrwt>
<pdfrwt beam="1">  1        1 0.26910943E-01 0.30000000E+03</pdfrwt>
<pdfrwt beam="2">0</pdfrwt>
<totfact> 0.19865180E+02</totfact>
</mgrwt>
</event>
<event>
 6    1  0.1956957E-002  0.3000000E+03  0.7818608E-02  0.1093470E+00
          3   -1    0    0  502    0  0.00000000000E+00  0.00000000000E+00  0.19239090870E+01  0.19239090870E+01  0.00000000000E+00 0.  1.
         13   -1    0    0    0    0 -0.00000000000E+00 -0.00000000000E+00 -0.10000000000E+04  0.10000000000E+04  0.00000000000E+00 0.  1.
    9000005    2    1    2  501    0  0.30610114412E+02  0.15025058827E+02 -0.81380381704E+03  0.81452326231E+03  0.29598488024E+01 0.  0.
         13    1    3    3    0    0  0.18122277100E+02  0.79522308784E+01 -0.49973419833E+03  0.50012590803E+03  0.00000000000E+00 0.  1.
          1    1    3    3  501    0  0.12487837312E+02  0.70728279489E+01 -0.31406961871E+03  0.31439735427E+03  0.00000000000E+00 0.  1.
         21    1    1    2  502  501 -0.30610114412E+02 -0.15025058827E+02 -0.18427227387E+03  0.18740064678E+03  0.00000000000E+00 0.  1.
<mgrwt>
<rscale>  1 0.30000000E+03</rscale>
<asrwt>0</asrwt>
<pdfrwt beam="1">  1        3 0.69960478E-02 0.30000000E+03</pdfrwt>
<pdfrwt beam="2">0</pdfrwt>
<totfact> 0.58626823E+02</totfact>
</mgrwt>
</event>
<event>
 6    1  0.1956957E-002  0.3000000E+03  0.7818608E-02  0.1093470E+00
          3   -1    0    0  502    0  0.00000000000E+00  0.00000000000E+00  0.41671842431E+01  0.41671842431E+01  0.00000000000E+00 0.  1.
         13   -1    0    0    0    0 -0.00000000000E+00 -0.00000000000E+00 -0.10000000000E+04  0.10000000000E+04  0.00000000000E+00 0.  1.
    9000005    2    1    2  501    0  0.21149224944E+02 -0.42897481971E+02 -0.83509556088E+03  0.83646522009E+03  0.14088806598E+01 0.  0.
         13    1    3    3    0    0  0.49153789220E+01 -0.90187409999E+01 -0.17245467430E+03  0.17276027706E+03  0.00000000000E+00 0.  1.
          3    1    3    3  501    0  0.16233846022E+02 -0.33878740971E+02 -0.66264088657E+03  0.66370494303E+03  0.00000000000E+00 0.  1.
         21    1    1    2  502  501 -0.21149224944E+02  0.42897481971E+02 -0.16073725488E+03  0.16770196415E+03  0.00000000000E+00 0.  1.
<mgrwt>
<rscale>  1 0.30000000E+03</rscale>
<asrwt>0</asrwt>
<pdfrwt beam="1">  1        3 0.15153429E-01 0.30000000E+03</pdfrwt>
<pdfrwt beam="2">0</pdfrwt>
<totfact> 0.16353163E+02</totfact>
</mgrwt>
</event>
<event>
 6    1  0.1956957E-002  0.3000000E+03  0.7818608E-02  0.1093470E+00
          1   -1    0    0  502    0  0.00000000000E+00  0.00000000000E+00  0.50235346258E+01  0.50235346258E+01  0.00000000000E+00 0.  1.
         13   -1    0    0    0    0 -0.00000000000E+00 -0.00000000000E+00 -0.10000000000E+04  0.10000000000E+04  0.00000000000E+00 0.  1.
    9000005    2    1    2  501    0  0.35929843240E+02  0.76535379034E-01 -0.93057621491E+03  0.93127835341E+03  0.40398362714E+01 0.  0.
         13    1    3    3    0    0  0.22359247135E+02 -0.13871703446E+00 -0.62790746016E+03  0.62830544618E+03  0.00000000000E+00 0.  1.
          1    1    3    3  501    0  0.13570596106E+02  0.21525241349E+00 -0.30266875476E+03  0.30297290723E+03  0.00000000000E+00 0.  1.
         21    1    1    2  502  501 -0.35929843240E+02 -0.76535379034E-01 -0.64400250460E+02  0.73745181213E+02  0.00000000000E+00 0.  1.
<mgrwt>
<rscale>  1 0.30000000E+03</rscale>
<asrwt>0</asrwt>
<pdfrwt beam="1">  1        1 0.18267437E-01 0.30000000E+03</pdfrwt>
<pdfrwt beam="2">0</pdfrwt>
<totfact> 0.33243233E+02</totfact>
</mgrwt>
</event>
<event>
 6    1  0.1956957E-002  0.3000000E+03  0.7818608E-02  0.1093470E+00
          3   -1    0    0  502    0  0.00000000000E+00  0.00000000000E+00  0.10654881849E+01  0.10654881849E+01  0.00000000000E+00 0.  1.
         13   -1    0    0    0    0 -0.00000000000E+00 -0.00000000000E+00 -0.10000000000E+04  0.10000000000E+04  0.00000000000E+00 0.  1.
    9000005    2    1    2  501    0  0.30659921188E+01  0.29848611963E+02 -0.69471700334E+03  0.69537179769E+03  0.31436210287E+01 0.  0.
         13    1    3    3    0    0  0.88012516491E+00  0.53021301135E+01 -0.99836362513E+02  0.99980930601E+02  0.00000000000E+00 0.  1.
          1    1    3    3  501    0  0.21858669539E+01  0.24546481849E+02 -0.59488064082E+03  0.59539086709E+03  0.00000000000E+00 0.  1.
         21    1    1    2  502  501 -0.30659921188E+01 -0.29848611963E+02 -0.30421750848E+03  0.30569369049E+03  0.00000000000E+00 0.  1.
<mgrwt>
<rscale>  1 0.30000000E+03</rscale>
<asrwt>0</asrwt>
<pdfrwt beam="1">  1        3 0.38745107E-02 0.30000000E+03</pdfrwt>
<pdfrwt beam="2">0</pdfrwt>
<totfact> 0.14652993E+03</totfact>
</mgrwt>
</event>
<event>
 6    1  0.1956957E-002  0.3000000E+03  0.7818608E-02  0.1093470E+00
          1   -1    0    0  502    0  0.00000000000E+00  0.00000000000E+00  0.16693947769E+01  0.16693947769E+01  0.00000000000E+00 0.  1.
         13   -1    0    0    0    0 -0.00000000000E+00 -0.00000000000E+00 -0.10000000000E+04  0.10000000000E+04  0.00000000000E+00 0.  1.
    9000005    2    1    2  501    0  0.67255258046E+01  0.29769400975E+02 -0.83180643089E+03  0.83237157858E+03  0.30093895938E+01 0.  0.
         13    1    3    3    0    0  0.70325561651E+01  0.28685461099E+02 -0.80422977906E+03  0.80477192424E+03  0.00000000000E+00 0.  1.
          3    1    3    3  501    0 -0.30703036045E+00  0.10839398757E+01 -0.27576651832E+02  0.27599654338E+02  0.00000000000E+00 0.  1.
         21    1    1    2  502  501 -0.67255258046E+01 -0.29769400975E+02 -0.16652417433E+03  0.16929781619E+03  0.00000000000E+00 0.  1.
<mgrwt>
<rscale>  1 0.30000000E+03</rscale>
<asrwt>0</asrwt>
<pdfrwt beam="1">  1        1 0.60705393E-02 0.30000000E+03</pdfrwt>
<pdfrwt beam="2">0</pdfrwt>
<totfact> 0.15148059E+03</totfact>
</mgrwt>
</event>
<event>
 6    1  0.1956957E-002  0.3000000E+03  0.7818608E-02  0.1093470E+00
          1   -1    0    0  502    0  0.00000000000E+00  0.00000000000E+00  0.31907970907E+01  0.31907970907E+01  0.00000000000E+00 0.  1.
         13   -1    0    0    0    0 -0.00000000000E+00 -0.00000000000E+00 -0.10000000000E+04  0.10000000000E+04  0.00000000000E+00 0.  1.
    9000005    2    1    2  501    0  0.51459146049E+02 -0.13701036956E+02 -0.66490947052E+03  0.66704619355E+03  0.32028461974E+01 0.  0.
         13    1    3    3    0    0  0.15274415878E+02 -0.36011206779E+01 -0.21373250260E+03  0.21430785921E+03  0.00000000000E+00 0.  1.
          3    1    3    3  501    0  0.36184730171E+02 -0.10099916278E+02 -0.45117696792E+03  0.45273833434E+03  0.00000000000E+00 0.  1.
         21    1    1    2  502  501 -0.51459146049E+02  0.13701036956E+02 -0.33189973239E+03  0.33614460354E+03  0.00000000000E+00 0.  1.
<mgrwt>
<rscale>  1 0.30000000E+03</rscale>
<asrwt>0</asrwt>
<pdfrwt beam="1">  1        1 0.11602923E-01 0.30000000E+03</pdfrwt>
<pdfrwt beam="2">0</pdfrwt>
<totfact> 0.61594925E+02</totfact>
</mgrwt>
</event>
<event>
 6    1  0.1956957E-002  0.3000000E+03  0.7818608E-02  0.1093470E+00
          1   -1    0    0  502    0  0.00000000000E+00  0.00000000000E+00  0.19902318708E+01  0.19902318708E+01  0.00000000000E+00 0.  1.
         13   -1    0    0    0    0 -0.00000000000E+00 -0.00000000000E+00 -0.10000000000E+04  0.10000000000E+04  0.00000000000E+00 0.  1.
    9000005    2    1    2  501    0  0.12631047300E+02  0.41595097619E+02 -0.39553545830E+03  0.39794967901E+03  0.50943837788E+01 0.  0.
         13    1    3    3    0    0  0.70138675612E+01  0.26808593614E+02 -0.23120119240E+03  0.23285593485E+03  0.00000000000E+00 0.  1.
          3    1    3    3  501    0  0.56171797391E+01  0.14786504005E+02 -0.16433426591E+03  0.16509374416E+03  0.00000000000E+00 0.  1.
         21    1    1    2  502  501 -0.12631047300E+02 -0.41595097619E+02 -0.60247430983E+03  0.60404055286E+03  0.00000000000E+00 0.  1.
<mgrwt>
<rscale>  1 0.30000000E+03</rscale>
<asrwt>0</asrwt>
<pdfrwt beam="1">  1        1 0.72372221E-02 0.30000000E+03</pdfrwt>
<pdfrwt beam="2">0</pdfrwt>
<totfact> 0.11843361E+03</totfact>
</mgrwt>
</event>
<event>
 6    1  0.1956957E-002  0.3000000E+03  0.7818608E-02  0.1093470E+00
          1   -1    0    0  502    0  0.00000000000E+00  0.00000000000E+00  0.14854573652E+01  0.14854573652E+01  0.00000000000E+00 0.  1.
         13   -1    0    0    0    0 -0.00000000000E+00 -0.00000000000E+00 -0.10000000000E+04  0.10000000000E+04  0.00000000000E+00 0.  1.
    9000005    2    1    2  501    0 -0.30090490425E+02 -0.11702838671E+02 -0.77202332799E+03  0.77270463571E+03  0.31687594259E+01 0.  0.
         13    1    3    3    0    0 -0.22403022622E+02 -0.71990300074E+01 -0.55840597451E+03  0.55890156005E+03  0.00000000000E+00 0.  1.
          3    1    3    3  501    0 -0.76874678032E+01 -0.45038086638E+01 -0.21361735348E+03  0.21380307566E+03  0.00000000000E+00 0.  1.
         21    1    1    2  502  501  0.30090490425E+02  0.11702838671E+02 -0.22649121464E+03  0.22878082165E+03  0.00000000000E+00 0.  1.
<mgrwt>
<rscale>  1 0.30000000E+03</rscale>
<asrwt>0</asrwt>
<pdfrwt beam="1">  1        1 0.54016745E-02 0.30000000E+03</pdfrwt>
<pdfrwt beam="2">0</pdfrwt>
<totfact> 0.17845178E+03</totfact>
</mgrwt>
</event>
<event>
 6    1  0.1956957E-002  0.3000000E+03  0.7818608E-02  0.1093470E+00
          1   -1    0    0  502    0  0.00000000000E+00  0.00000000000E+00  0.61399568544E+01  0.61399568544E+01  0.00000000000E+00 0.  1.
         13   -1    0    0    0    0 -0.00000000000E+00 -0.00000000000E+00 -0.10000000000E+04  0.10000000000E+04  0.00000000000E+00 0.  1.
    9000005    2    1    2  501    0 -0.34518013409E+02 -0.46260693212E+02 -0.83679377864E+03  0.83880389848E+03  0.60503843042E+01 0.  0.
         13    1    3    3    0    0 -0.25721679915E+02 -0.35043471749E+02 -0.59043592570E+03  0.59203397882E+03  0.00000000000E+00 0.  1.
          3    1    3    3  501    0 -0.87963334937E+01 -0.11217221463E+02 -0.24635785295E+03  0.24676991966E+03  0.00000000000E+00 0.  1.
         21    1    1    2  502  501  0.34518013409E+02  0.46260693212E+02 -0.15706626450E+03  0.16733605837E+03  0.00000000000E+00 0.  1.
<mgrwt>
<rscale>  1 0.30000000E+03</rscale>
<asrwt>0</asrwt>
<pdfrwt beam="1">  1        1 0.22327163E-01 0.30000000E+03</pdfrwt>
<pdfrwt beam="2">0</pdfrwt>
<totfact> 0.25427529E+02</totfact>
</mgrwt>
</event>
<event>
 6    1  0.1956957E-002  0.3000000E+03  0.7818608E-02  0.1093470E+00
          1   -1    0    0  502    0  0.00000000000E+00  0.00000000000E+00  0.98274605126E+01  0.98274605126E+01  0.00000000000E+00 0.  1.
         13   -1    0    0    0    0 -0.00000000000E+00 -0.00000000000E+00 -0.10000000000E+04  0.10000000000E+04  0.00000000000E+00 0.  1.
    9000005    2    1    2  501    0 -0.13123217780E+02 -0.52370560151E+02 -0.91853731130E+03  0.92012517329E+03  0.21558892593E+01 0.  0.
         13    1    3    3    0    0 -0.13212024487E+01 -0.34762907903E+01 -0.57894835496E+02  0.58014154744E+02  0.00000000000E+00 0.  1.
          3    1    3    3  501    0 -0.11802015331E+02 -0.48894269361E+02 -0.86064247580E+03  0.86211101854E+03  0.00000000000E+00 0.  1.
         21    1    1    2  502  501  0.13123217780E+02  0.52370560151E+02 -0.71635228192E+02  0.89702287225E+02  0.00000000000E+00 0.  1.
<mgrwt>
<rscale>  1 0.30000000E+03</rscale>
<asrwt>0</asrwt>
<pdfrwt beam="1">  1        1 0.35736295E-01 0.30000000E+03</pdfrwt>
<pdfrwt beam="2">0</pdfrwt>
<totfact> 0.13694602E+02</totfact>
</mgrwt>
</event>
<event>
 6    1  0.1956957E-002  0.3000000E+03  0.7818608E-02  0.1093470E+00
          1   -1    0    0  502    0  0.00000000000E+00  0.00000000000E+00  0.18292605949E+01  0.18292605949E+01  0.00000000000E+00 0.  1.
         13   -1    0    0    0    0 -0.00000000000E+00 -0.00000000000E+00 -0.10000000000E+04  0.10000000000E+04  0.00000000000E+00 0.  1.
    9000005    2    1    2  501    0 -0.26215701016E+01 -0.30801422719E+02 -0.84482003141E+03  0.84539384288E+03  0.37767507143E+01 0.  0.
         13    1    3    3    0    0 -0.18528201644E+01 -0.21447179872E+02 -0.63307543072E+03  0.63344132755E+03  0.00000000000E+00 0.  1.
          1    1    3    3  501    0 -0.76874993722E+00 -0.93542428467E+01 -0.21174460069E+03  0.21195251533E+03  0.00000000000E+00 0.  1.
         21    1    1    2  502  501  0.26215701016E+01  0.30801422719E+02 -0.15335070800E+03  0.15643541771E+03  0.00000000000E+00 0.  1.
<mgrwt>
<rscale>  1 0.30000000E+03</rscale>
<asrwt>0</asrwt>
<pdfrwt beam="1">  1        1 0.66518707E-02 0.30000000E+03</pdfrwt>
<pdfrwt beam="2">0</pdfrwt>
<totfact> 0.13326092E+03</totfact>
</mgrwt>
</event>
<event>
 6    1  0.1956957E-002  0.3000000E+03  0.7818608E-02  0.1093470E+00
          1   -1    0    0  502    0  0.00000000000E+00  0.00000000000E+00  0.55828933303E+01  0.55828933303E+01  0.00000000000E+00 0.  1.
         13   -1    0    0    0    0 -0.00000000000E+00 -0.00000000000E+00 -0.10000000000E+04  0.10000000000E+04  0.00000000000E+00 0.  1.
    9000005    2    1    2  501    0 -0.28783494307E+02  0.12011157458E+02 -0.95408595934E+03  0.95459898516E+03  0.25391333857E+01 0.  0.
         13    1    3    3    0    0 -0.24773451258E+02  0.97074473764E+01 -0.83256393506E+03  0.83298899416E+03  0.00000000000E+00 0.  1.
          3    1    3    3  501    0 -0.40100430487E+01  0.23037100813E+01 -0.12152202428E+03  0.12160999100E+03  0.00000000000E+00 0.  1.
         21    1    1    2  502  501  0.28783494307E+02 -0.12011157458E+02 -0.40331147326E+02  0.50983908173E+02  0.00000000000E+00 0.  1.
<mgrwt>
<rscale>  1 0.30000000E+03</rscale>
<asrwt>0</asrwt>
<pdfrwt beam="1">  1        1 0.20301473E-01 0.30000000E+03</pdfrwt>
<pdfrwt beam="2">0</pdfrwt>
<totfact> 0.28858669E+02</totfact>
</mgrwt>
</event>
<event>
 6    1  0.1956957E-002  0.3000000E+03  0.7818608E-02  0.1093470E+00
          1   -1    0    0  502    0  0.00000000000E+00  0.00000000000E+00  0.22586068742E+01  0.22586068742E+01  0.00000000000E+00 0.  1.
         13   -1    0    0    0    0 -0.00000000000E+00 -0.00000000000E+00 -0.10000000000E+04  0.10000000000E+04  0.00000000000E+00 0.  1.
    9000005    2    1    2  501    0  0.49901168898E+01  0.33374006655E+02 -0.85139719601E+03  0.85207422148E+03  0.38167984506E+01 0.  0.
         13    1    3    3    0    0  0.27078710479E+01  0.10045835655E+02 -0.29538096798E+03  0.29556415145E+03  0.00000000000E+00 0.  1.
          1    1    3    3  501    0  0.22822458418E+01  0.23328171000E+02 -0.55601622803E+03  0.55651007002E+03  0.00000000000E+00 0.  1.
         21    1    1    2  502  501 -0.49901168898E+01 -0.33374006655E+02 -0.14634419712E+03  0.15018438540E+03  0.00000000000E+00 0.  1.
<mgrwt>
<rscale>  1 0.30000000E+03</rscale>
<asrwt>0</asrwt>
<pdfrwt beam="1">  1        1 0.82131332E-02 0.30000000E+03</pdfrwt>
<pdfrwt beam="2">0</pdfrwt>
<totfact> 0.99283955E+02</totfact>
</mgrwt>
</event>
<event>
 6    1  0.1956957E-002  0.3000000E+03  0.7818608E-02  0.1093470E+00
          1   -1    0    0  502    0  0.00000000000E+00  0.00000000000E+00  0.38836228013E+02  0.38836228013E+02  0.00000000000E+00 0.  1.
         13   -1    0    0    0    0 -0.00000000000E+00 -0.00000000000E+00 -0.10000000000E+04  0.10000000000E+04  0.00000000000E+00 0.  1.
    9000005    2    1    2  501    0  0.54086758676E+02  0.10803745277E+03 -0.89092100554E+03  0.89908103168E+03  0.29991240484E+01 0.  0.
         13    1    3    3    0    0  0.32545274068E+02  0.62589631911E+02 -0.51260470540E+03  0.51743621915E+03  0.00000000000E+00 0.  1.
          3    1    3    3  501    0  0.21541484609E+02  0.45447820855E+02 -0.37831630014E+03  0.38164481253E+03  0.00000000000E+00 0.  1.
         21    1    1    2  502  501 -0.54086758676E+02 -0.10803745277E+03 -0.70242766443E+02  0.13975519633E+03  0.00000000000E+00 0.  1.
<mgrwt>
<rscale>  1 0.30000000E+03</rscale>
<asrwt>0</asrwt>
<pdfrwt beam="1">  1        1 0.14122295E+00 0.30000000E+03</pdfrwt>
<pdfrwt beam="2">0</pdfrwt>
<totfact> 0.19936273E+01</totfact>
</mgrwt>
</event>
<event>
 6    1  0.1956957E-002  0.3000000E+03  0.7818608E-02  0.1093470E+00
          1   -1    0    0  502    0  0.00000000000E+00  0.00000000000E+00  0.13466982758E+01  0.13466982758E+01  0.00000000000E+00 0.  1.
         13   -1    0    0    0    0 -0.00000000000E+00 -0.00000000000E+00 -0.10000000000E+04  0.10000000000E+04  0.00000000000E+00 0.  1.
    9000005    2    1    2  501    0  0.42196631304E+01 -0.30881621289E+02 -0.76292315615E+03  0.76356490414E+03  0.28531654064E+01 0.  0.
         13    1    3    3    0    0  0.95619196370E-01 -0.13350804162E-01 -0.81249001557E+00  0.81820614767E+00  0.00000000000E+00 0.  1.
          1    1    3    3  501    0  0.41240439341E+01 -0.30868270484E+02 -0.76211066614E+03  0.76274669799E+03  0.00000000000E+00 0.  1.
         21    1    1    2  502  501 -0.42196631304E+01  0.30881621289E+02 -0.23573014557E+03  0.23778179413E+03  0.00000000000E+00 0.  1.
<mgrwt>
<rscale>  1 0.30000000E+03</rscale>
<asrwt>0</asrwt>
<pdfrwt beam="1">  1        1 0.48970950E-02 0.30000000E+03</pdfrwt>
<pdfrwt beam="2">0</pdfrwt>
<totfact> 0.20481681E+03</totfact>
</mgrwt>
</event>
<event>
 6    1  0.1956957E-002  0.3000000E+03  0.7818608E-02  0.1093470E+00
          1   -1    0    0  502    0  0.00000000000E+00  0.00000000000E+00  0.10041886578E+01  0.10041886578E+01  0.00000000000E+00 0.  1.
         13   -1    0    0    0    0 -0.00000000000E+00 -0.00000000000E+00 -0.10000000000E+04  0.10000000000E+04  0.00000000000E+00 0.  1.
    9000005    2    1    2  501    0  0.53189511997E+01  0.31125018880E+02 -0.48564729814E+03  0.48668546058E+03  0.35187085031E+01 0.  0.
         13    1    3    3    0    0  0.32992689117E+00  0.18982658200E+01 -0.19083160820E+02  0.19180179659E+02  0.00000000000E+00 0.  1.
          1    1    3    3  501    0  0.49890243085E+01  0.29226753060E+02 -0.46656413732E+03  0.46750528092E+03  0.00000000000E+00 0.  1.
         21    1    1    2  502  501 -0.53189511997E+01 -0.31125018880E+02 -0.51334851320E+03  0.51431872808E+03  0.00000000000E+00 0.  1.
<mgrwt>
<rscale>  1 0.30000000E+03</rscale>
<asrwt>0</asrwt>
<pdfrwt beam="1">  1        1 0.36516028E-02 0.30000000E+03</pdfrwt>
<pdfrwt beam="2">0</pdfrwt>
<totfact> 0.30956181E+03</totfact>
</mgrwt>
</event>
<event>
 6    1  0.1956957E-002  0.3000000E+03  0.7818608E-02  0.1093470E+00
          1   -1    0    0  502    0  0.00000000000E+00  0.00000000000E+00  0.27586930043E+01  0.27586930043E+01  0.00000000000E+00 0.  1.
         13   -1    0    0    0    0 -0.00000000000E+00 -0.00000000000E+00 -0.10000000000E+04  0.10000000000E+04  0.00000000000E+00 0.  1.
    9000005    2    1    2  501    0 -0.31642758160E+02 -0.15477789075E+02 -0.86929661478E+03  0.87005349204E+03  0.86976107197E+01 0.  0.
         13    1    3    3    0    0 -0.26308421864E+02 -0.88551970273E+01 -0.65270685542E+03  0.65329685954E+03  0.00000000000E+00 0.  1.
          1    1    3    3  501    0 -0.53343362956E+01 -0.66225920479E+01 -0.21658975936E+03  0.21675663250E+03  0.00000000000E+00 0.  1.
         21    1    1    2  502  501  0.31642758160E+02  0.15477789075E+02 -0.12794469221E+03  0.13270520097E+03  0.00000000000E+00 0.  1.
<mgrwt>
<rscale>  1 0.30000000E+03</rscale>
<asrwt>0</asrwt>
<pdfrwt beam="1">  1        1 0.10031632E-01 0.30000000E+03</pdfrwt>
<pdfrwt beam="2">0</pdfrwt>
<totfact> 0.75244918E+02</totfact>
</mgrwt>
</event>
<event>
 6    1  0.1956957E-002  0.3000000E+03  0.7818608E-02  0.1093470E+00
          3   -1    0    0  502    0  0.00000000000E+00  0.00000000000E+00  0.33593776961E+01  0.33593776961E+01  0.00000000000E+00 0.  1.
         13   -1    0    0    0    0 -0.00000000000E+00 -0.00000000000E+00 -0.10000000000E+04  0.10000000000E+04  0.00000000000E+00 0.  1.
    9000005    2    1    2  501    0  0.14056562352E+02  0.47201809410E+02 -0.76250187370E+03  0.76409686213E+03  0.30511580710E+01 0.  0.
         13    1    3    3    0    0  0.42702948516E+01  0.19371120841E+02 -0.30010005921E+03  0.30075491896E+03  0.00000000000E+00 0.  1.
          3    1    3    3  501    0  0.97862675003E+01  0.27830688569E+02 -0.46240181449E+03  0.46334194318E+03  0.00000000000E+00 0.  1.
         21    1    1    2  502  501 -0.14056562352E+02 -0.47201809410E+02 -0.23413874860E+03  0.23926251556E+03  0.00000000000E+00 0.  1.
<mgrwt>
<rscale>  1 0.30000000E+03</rscale>
<asrwt>0</asrwt>
<pdfrwt beam="1">  1        3 0.12215945E-01 0.30000000E+03</pdfrwt>
<pdfrwt beam="2">0</pdfrwt>
<totfact> 0.23639211E+02</totfact>
</mgrwt>
</event>
<event>
 6    1  0.1956957E-002  0.3000000E+03  0.7818608E-02  0.1093470E+00
          3   -1    0    0  502    0  0.00000000000E+00  0.00000000000E+00  0.33026481680E+01  0.33026481680E+01  0.00000000000E+00 0.  1.
         13   -1    0    0    0    0 -0.00000000000E+00 -0.00000000000E+00 -0.10000000000E+04  0.10000000000E+04  0.00000000000E+00 0.  1.
    9000005    2    1    2  501    0  0.50148984831E+02  0.75947867739E+01 -0.26378076963E+03  0.26863311843E+03  0.32949085807E+01 0.  0.
         13    1    3    3    0    0  0.44529225991E+02  0.59465947416E+01 -0.23685620385E+03  0.24107898137E+03  0.00000000000E+00 0.  1.
          3    1    3    3  501    0  0.56197588400E+01  0.16481920323E+01 -0.26924565787E+02  0.27554137062E+02  0.00000000000E+00 0.  1.
         21    1    1    2  502  501 -0.50148984831E+02 -0.75947867739E+01 -0.73291658220E+03  0.73466952974E+03  0.00000000000E+00 0.  1.
<mgrwt>
<rscale>  1 0.30000000E+03</rscale>
<asrwt>0</asrwt>
<pdfrwt beam="1">  1        3 0.12009655E-01 0.30000000E+03</pdfrwt>
<pdfrwt beam="2">0</pdfrwt>
<totfact> 0.24328409E+02</totfact>
</mgrwt>
</event>
<event>
 6    1  0.1956957E-002  0.3000000E+03  0.7818608E-02  0.1093470E+00
          1   -1    0    0  502    0  0.00000000000E+00  0.00000000000E+00  0.17846475302E+01  0.17846475302E+01  0.00000000000E+00 0.  1.
         13   -1    0    0    0    0 -0.00000000000E+00 -0.00000000000E+00 -0.10000000000E+04  0.10000000000E+04  0.00000000000E+00 0.  1.
    9000005    2    1    2  501    0  0.16081836826E+02 -0.38952286215E+02 -0.47714588827E+03  0.47901386353E+03  0.31900923274E+01 0.  0.
         13    1    3    3    0    0  0.10874441074E+02 -0.26200486343E+02 -0.33767581340E+03  0.33886527398E+03  0.00000000000E+00 0.  1.
          1    1    3    3  501    0  0.52073957520E+01 -0.12751799872E+02 -0.13947007486E+03  0.14014858955E+03  0.00000000000E+00 0.  1.
         21    1    1    2  502  501 -0.16081836826E+02  0.38952286215E+02 -0.52106946420E+03  0.52277078400E+03  0.00000000000E+00 0.  1.
<mgrwt>
<rscale>  1 0.30000000E+03</rscale>
<asrwt>0</asrwt>
<pdfrwt beam="1">  1        1 0.64896411E-02 0.30000000E+03</pdfrwt>
<pdfrwt beam="2">0</pdfrwt>
<totfact> 0.13794905E+03</totfact>
</mgrwt>
</event>
<event>
 6    1  0.1956957E-002  0.3000000E+03  0.7818608E-02  0.1093470E+00
          1   -1    0    0  502    0  0.00000000000E+00  0.00000000000E+00  0.44540326112E+01  0.44540326112E+01  0.00000000000E+00 0.  1.
         13   -1    0    0    0    0 -0.00000000000E+00 -0.00000000000E+00 -0.10000000000E+04  0.10000000000E+04  0.00000000000E+00 0.  1.
    9000005    2    1    2  501    0  0.35114341250E+02 -0.14261606085E+02 -0.91107940421E+03  0.91187427962E+03  0.35511516812E+01 0.  0.
         13    1    3    3    0    0  0.47469158412E+01 -0.27509599391E+01 -0.15716502917E+03  0.15726076238E+03  0.00000000000E+00 0.  1.
          3    1    3    3  501    0  0.30367425409E+02 -0.11510646146E+02 -0.75391437505E+03  0.75461351724E+03  0.00000000000E+00 0.  1.
         21    1    1    2  502  501 -0.35114341250E+02  0.14261606085E+02 -0.84466563176E+02  0.92579752993E+02  0.00000000000E+00 0.  1.
<mgrwt>
<rscale>  1 0.30000000E+03</rscale>
<asrwt>0</asrwt>
<pdfrwt beam="1">  1        1 0.16196516E-01 0.30000000E+03</pdfrwt>
<pdfrwt beam="2">0</pdfrwt>
<totfact> 0.39095300E+02</totfact>
</mgrwt>
</event>
<event>
 6    1  0.1956957E-002  0.3000000E+03  0.7818608E-02  0.1093470E+00
          1   -1    0    0  502    0  0.00000000000E+00  0.00000000000E+00  0.58634576353E+01  0.58634576353E+01  0.00000000000E+00 0.  1.
         13   -1    0    0    0    0 -0.00000000000E+00 -0.00000000000E+00 -0.10000000000E+04  0.10000000000E+04  0.00000000000E+00 0.  1.
    9000005    2    1    2  501    0 -0.14405583109E+01 -0.47403473195E+02 -0.89188201092E+03  0.89314631750E+03  0.27674145607E+01 0.  0.
         13    1    3    3    0    0 -0.54948033325E+00 -0.11341929968E+02 -0.19242096476E+03  0.19275572361E+03  0.00000000000E+00 0.  1.
          3    1    3    3  501    0 -0.89107797761E+00 -0.36061543227E+02 -0.69946104615E+03  0.70039059389E+03  0.00000000000E+00 0.  1.
         21    1    1    2  502  501  0.14405583109E+01  0.47403473195E+02 -0.10225453145E+03  0.11271714014E+03  0.00000000000E+00 0.  1.
<mgrwt>
<rscale>  1 0.30000000E+03</rscale>
<asrwt>0</asrwt>
<pdfrwt beam="1">  1        1 0.21321709E-01 0.30000000E+03</pdfrwt>
<pdfrwt beam="2">0</pdfrwt>
<totfact> 0.27032659E+02</totfact>
</mgrwt>
</event>
<event>
 6    1  0.1956957E-002  0.3000000E+03  0.7818608E-02  0.1093470E+00
          1   -1    0    0  502    0  0.00000000000E+00  0.00000000000E+00  0.56527962382E+01  0.56527962382E+01  0.00000000000E+00 0.  1.
         13   -1    0    0    0    0 -0.00000000000E+00 -0.00000000000E+00 -0.10000000000E+04  0.10000000000E+04  0.00000000000E+00 0.  1.
    9000005    2    1    2  501    0 -0.69638904769E+02 -0.21451423101E+01 -0.68565817924E+03  0.68919886190E+03  0.37086120517E+01 0.  0.
         13    1    3    3    0    0 -0.50419960146E+02 -0.32095575015E+01 -0.49583431946E+03  0.49840159108E+03  0.00000000000E+00 0.  1.
          3    1    3    3  501    0 -0.19218944623E+02  0.10644151913E+01 -0.18982385978E+03  0.19079727083E+03  0.00000000000E+00 0.  1.
         21    1    1    2  502  501  0.69638904769E+02  0.21451423101E+01 -0.30868902453E+03  0.31645393433E+03  0.00000000000E+00 0.  1.
<mgrwt>
<rscale>  1 0.30000000E+03</rscale>
<asrwt>0</asrwt>
<pdfrwt beam="1">  1        1 0.20555666E-01 0.30000000E+03</pdfrwt>
<pdfrwt beam="2">0</pdfrwt>
<totfact> 0.28383202E+02</totfact>
</mgrwt>
</event>
<event>
 6    1  0.1956957E-002  0.3000000E+03  0.7818608E-02  0.1093470E+00
          1   -1    0    0  502    0  0.00000000000E+00  0.00000000000E+00  0.26234208527E+01  0.26234208527E+01  0.00000000000E+00 0.  1.
         13   -1    0    0    0    0 -0.00000000000E+00 -0.00000000000E+00 -0.10000000000E+04  0.10000000000E+04  0.00000000000E+00 0.  1.
    9000005    2    1    2  501    0  0.34071542552E+02  0.14376507135E+02 -0.84536518676E+03  0.84617848682E+03  0.28598252250E+01 0.  0.
         13    1    3    3    0    0  0.30907394867E+02  0.12158099445E+02 -0.74995757677E+03  0.75069264909E+03  0.00000000000E+00 0.  1.
          1    1    3    3  501    0  0.31641476850E+01  0.22184076904E+01 -0.95407609987E+02  0.95485837728E+02  0.00000000000E+00 0.  1.
         21    1    1    2  502  501 -0.34071542552E+02 -0.14376507135E+02 -0.15201139239E+03  0.15644493403E+03  0.00000000000E+00 0.  1.
<mgrwt>
<rscale>  1 0.30000000E+03</rscale>
<asrwt>0</asrwt>
<pdfrwt beam="1">  1        1 0.95397323E-02 0.30000000E+03</pdfrwt>
<pdfrwt beam="2">0</pdfrwt>
<totfact> 0.80659699E+02</totfact>
</mgrwt>
</event>
<event>
 6    1  0.1956957E-002  0.3000000E+03  0.7818608E-02  0.1093470E+00
          3   -1    0    0  502    0  0.00000000000E+00  0.00000000000E+00  0.17548633266E+02  0.17548633266E+02  0.00000000000E+00 0.  1.
         13   -1    0    0    0    0 -0.00000000000E+00 -0.00000000000E+00 -0.10000000000E+04  0.10000000000E+04  0.00000000000E+00 0.  1.
    9000005    2    1    2  501    0  0.32445113564E+02 -0.34465513193E+02 -0.96640142056E+03  0.96756705900E+03  0.37082346159E+01 0.  0.
         13    1    3    3    0    0  0.24913722687E+02 -0.25135548181E+02 -0.74796565837E+03  0.74880245423E+03  0.00000000000E+00 0.  1.
          1    1    3    3  501    0  0.75313908770E+01 -0.93299650121E+01 -0.21843576219E+03  0.21876460477E+03  0.00000000000E+00 0.  1.
         21    1    1    2  502  501 -0.32445113564E+02  0.34465513193E+02 -0.16049946171E+02  0.49981574264E+02  0.00000000000E+00 0.  1.
<mgrwt>
<rscale>  1 0.30000000E+03</rscale>
<asrwt>0</asrwt>
<pdfrwt beam="1">  1        3 0.63813346E-01 0.30000000E+03</pdfrwt>
<pdfrwt beam="2">0</pdfrwt>
<totfact> 0.10786853E+01</totfact>
</mgrwt>
</event>
<event>
 6    1  0.1956957E-002  0.3000000E+03  0.7818608E-02  0.1093470E+00
          1   -1    0    0  502    0  0.00000000000E+00  0.00000000000E+00  0.15925309326E+01  0.15925309326E+01  0.00000000000E+00 0.  1.
         13   -1    0    0    0    0 -0.00000000000E+00 -0.00000000000E+00 -0.10000000000E+04  0.10000000000E+04  0.00000000000E+00 0.  1.
    9000005    2    1    2  501    0 -0.60047039166E+01  0.35664175779E+02 -0.70965993850E+03  0.71058887750E+03  0.33666912346E+01 0.  0.
         13    1    3    3    0    0 -0.43072821026E+01  0.16324271304E+02 -0.34334338669E+03  0.34375822274E+03  0.00000000000E+00 0.  1.
          1    1    3    3  501    0 -0.16974218140E+01  0.19339904475E+02 -0.36631655181E+03  0.36683065476E+03  0.00000000000E+00 0.  1.
         21    1    1    2  502  501  0.60047039166E+01 -0.35664175779E+02 -0.28874753057E+03  0.29100365343E+03  0.00000000000E+00 0.  1.
<mgrwt>
<rscale>  1 0.30000000E+03</rscale>
<asrwt>0</asrwt>
<pdfrwt beam="1">  1        1 0.57910338E-02 0.30000000E+03</pdfrwt>
<pdfrwt beam="2">0</pdfrwt>
<totfact> 0.16183807E+03</totfact>
</mgrwt>
</event>
<event>
 6    1  0.1956957E-002  0.3000000E+03  0.7818608E-02  0.1093470E+00
          3   -1    0    0  502    0  0.00000000000E+00  0.00000000000E+00  0.24901205280E+02  0.24901205280E+02  0.00000000000E+00 0.  1.
         13   -1    0    0    0    0 -0.00000000000E+00 -0.00000000000E+00 -0.10000000000E+04  0.10000000000E+04  0.00000000000E+00 0.  1.
    9000005    2    1    2  501    0  0.74732808711E+02 -0.12482982624E+03 -0.68577809501E+03  0.70105873509E+03  0.49270921294E+01 0.  0.
         13    1    3    3    0    0  0.16994061197E+02 -0.32537230947E+02 -0.17375353301E+03  0.17758873767E+03  0.00000000000E+00 0.  1.
          1    1    3    3  501    0  0.57738747514E+02 -0.92292595291E+02 -0.51202456200E+03  0.52346999742E+03  0.00000000000E+00 0.  1.
         21    1    1    2  502  501 -0.74732808711E+02  0.12482982624E+03 -0.28932069971E+03  0.32384247019E+03  0.00000000000E+00 0.  1.
<mgrwt>
<rscale>  1 0.30000000E+03</rscale>
<asrwt>0</asrwt>
<pdfrwt beam="1">  1        3 0.90550028E-01 0.30000000E+03</pdfrwt>
<pdfrwt beam="2">0</pdfrwt>
<totfact> 0.50277145E+00</totfact>
</mgrwt>
</event>
<event>
 6    1  0.1956957E-002  0.3000000E+03  0.7818608E-02  0.1093470E+00
          1   -1    0    0  502    0  0.00000000000E+00  0.00000000000E+00  0.80135851139E+01  0.80135851139E+01  0.00000000000E+00 0.  1.
         13   -1    0    0    0    0 -0.00000000000E+00 -0.00000000000E+00 -0.10000000000E+04  0.10000000000E+04  0.00000000000E+00 0.  1.
    9000005    2    1    2  501    0 -0.28212029693E+02  0.13659600743E+02 -0.96807892116E+03  0.96859187069E+03  0.33031899057E+01 0.  0.
         13    1    3    3    0    0 -0.27875309199E+02  0.13855528562E+02 -0.95612438320E+03  0.95663098668E+03  0.00000000000E+00 0.  1.
          3    1    3    3  501    0 -0.33672049349E+00 -0.19592781909E+00 -0.11954537957E+02  0.11960884004E+02  0.00000000000E+00 0.  1.
         21    1    1    2  502  501  0.28212029693E+02 -0.13659600743E+02 -0.23907493729E+02  0.39421714425E+02  0.00000000000E+00 0.  1.
<mgrwt>
<rscale>  1 0.30000000E+03</rscale>
<asrwt>0</asrwt>
<pdfrwt beam="1">  1        1 0.29140371E-01 0.30000000E+03</pdfrwt>
<pdfrwt beam="2">0</pdfrwt>
<totfact> 0.17891321E+02</totfact>
</mgrwt>
</event>
<event>
 6    1  0.1956957E-002  0.3000000E+03  0.7818608E-02  0.1093470E+00
          1   -1    0    0  502    0  0.00000000000E+00  0.00000000000E+00  0.68742117750E+01  0.68742117750E+01  0.00000000000E+00 0.  1.
         13   -1    0    0    0    0 -0.00000000000E+00 -0.00000000000E+00 -0.10000000000E+04  0.10000000000E+04  0.00000000000E+00 0.  1.
    9000005    2    1    2  501    0  0.53190927195E+01  0.77099316783E+02 -0.67854752617E+03  0.68294199610E+03  0.32291434388E+01 0.  0.
         13    1    3    3    0    0  0.40875407418E+01  0.65903969599E+02 -0.57010440277E+03  0.57391556108E+03  0.00000000000E+00 0.  1.
          1    1    3    3  501    0  0.12315519777E+01  0.11195347184E+02 -0.10844312340E+03  0.10902643501E+03  0.00000000000E+00 0.  1.
         21    1    1    2  502  501 -0.53190927195E+01 -0.77099316783E+02 -0.31457826206E+03  0.32393221568E+03  0.00000000000E+00 0.  1.
<mgrwt>
<rscale>  1 0.30000000E+03</rscale>
<asrwt>0</asrwt>
<pdfrwt beam="1">  1        1 0.24997186E-01 0.30000000E+03</pdfrwt>
<pdfrwt beam="2">0</pdfrwt>
<totfact> 0.21896807E+02</totfact>
</mgrwt>
</event>
<event>
 6    1  0.1956957E-002  0.3000000E+03  0.7818608E-02  0.1093470E+00
          1   -1    0    0  502    0  0.00000000000E+00  0.00000000000E+00  0.29352438137E+01  0.29352438137E+01  0.00000000000E+00 0.  1.
         13   -1    0    0    0    0 -0.00000000000E+00 -0.00000000000E+00 -0.10000000000E+04  0.10000000000E+04  0.00000000000E+00 0.  1.
    9000005    2    1    2  501    0  0.41976725011E+02 -0.18030038876E+02 -0.76767816043E+03  0.76904352088E+03  0.33243436868E+01 0.  0.
         13    1    3    3    0    0  0.24379262172E+02 -0.11012947791E+02 -0.42289892280E+03  0.42374418268E+03  0.00000000000E+00 0.  1.
          3    1    3    3  501    0  0.17597462839E+02 -0.70170910849E+01 -0.34477923763E+03  0.34529933821E+03  0.00000000000E+00 0.  1.
         21    1    1    2  502  501 -0.41976725011E+02  0.18030038876E+02 -0.22938659575E+03  0.23389172293E+03  0.00000000000E+00 0.  1.
<mgrwt>
<rscale>  1 0.30000000E+03</rscale>
<asrwt>0</asrwt>
<pdfrwt beam="1">  1        1 0.10673636E-01 0.30000000E+03</pdfrwt>
<pdfrwt beam="2">0</pdfrwt>
<totfact> 0.69079975E+02</totfact>
</mgrwt>
</event>
<event>
 6    1  0.1956957E-002  0.3000000E+03  0.7818608E-02  0.1093470E+00
          1   -1    0    0  502    0  0.00000000000E+00  0.00000000000E+00  0.23917943214E+02  0.23917943214E+02  0.00000000000E+00 0.  1.
         13   -1    0    0    0    0 -0.00000000000E+00 -0.00000000000E+00 -0.10000000000E+04  0.10000000000E+04  0.00000000000E+00 0.  1.
    9000005    2    1    2  501    0 -0.21186386468E+02 -0.10157723657E+03 -0.86763690807E+03  0.87382747636E+03  0.37223963388E+01 0.  0.
         13    1    3    3    0    0 -0.86489398599E+00 -0.41565489193E+01 -0.29785015704E+02  0.30086078193E+02  0.00000000000E+00 0.  1.
          3    1    3    3  501    0 -0.20321492483E+02 -0.97420687649E+02 -0.83785189237E+03  0.84374139817E+03  0.00000000000E+00 0.  1.
         21    1    1    2  502  501  0.21186386468E+02  0.10157723657E+03 -0.10844514871E+03  0.15009046685E+03  0.00000000000E+00 0.  1.
<mgrwt>
<rscale>  1 0.30000000E+03</rscale>
<asrwt>0</asrwt>
<pdfrwt beam="1">  1        1 0.86974522E-01 0.30000000E+03</pdfrwt>
<pdfrwt beam="2">0</pdfrwt>
<totfact> 0.41801358E+01</totfact>
</mgrwt>
</event>
<event>
 6    1  0.1956957E-002  0.3000000E+03  0.7818608E-02  0.1093470E+00
          1   -1    0    0  502    0  0.00000000000E+00  0.00000000000E+00  0.21368806799E+02  0.21368806799E+02  0.00000000000E+00 0.  1.
         13   -1    0    0    0    0 -0.00000000000E+00 -0.00000000000E+00 -0.10000000000E+04  0.10000000000E+04  0.00000000000E+00 0.  1.
    9000005    2    1    2  501    0  0.12455655965E+03  0.10505769460E+02 -0.75405258925E+03  0.76434690677E+03  0.24857167255E+01 0.  0.
         13    1    3    3    0    0  0.10630567014E+03  0.82591803238E+01 -0.63987365523E+03  0.64869669663E+03  0.00000000000E+00 0.  1.
          3    1    3    3  501    0  0.18250889508E+02  0.22465891362E+01 -0.11417893402E+03  0.11565021014E+03  0.00000000000E+00 0.  1.
         21    1    1    2  502  501 -0.12455655965E+03 -0.10505769460E+02 -0.22457860395E+03  0.25702190003E+03  0.00000000000E+00 0.  1.
<mgrwt>
<rscale>  1 0.30000000E+03</rscale>
<asrwt>0</asrwt>
<pdfrwt beam="1">  1        1 0.77704916E-01 0.30000000E+03</pdfrwt>
<pdfrwt beam="2">0</pdfrwt>
<totfact> 0.48889644E+01</totfact>
</mgrwt>
</event>
<event>
 6    1  0.1956957E-002  0.3000000E+03  0.7818608E-02  0.1093470E+00
          1   -1    0    0  502    0  0.00000000000E+00  0.00000000000E+00  0.15288131403E+01  0.15288131403E+01  0.00000000000E+00 0.  1.
         13   -1    0    0    0    0 -0.00000000000E+00 -0.00000000000E+00 -0.10000000000E+04  0.10000000000E+04  0.00000000000E+00 0.  1.
    9000005    2    1    2  501    0 -0.32991882823E+02  0.13119377271E+02 -0.70771885044E+03  0.70861670427E+03  0.33286488582E+01 0.  0.
         13    1    3    3    0    0 -0.89378751251E+01  0.51349575013E+01 -0.21144325243E+03  0.21169436081E+03  0.00000000000E+00 0.  1.
          1    1    3    3  501    0 -0.24054007698E+02  0.79844197699E+01 -0.49627559801E+03  0.49692234346E+03  0.00000000000E+00 0.  1.
         21    1    1    2  502  501  0.32991882823E+02 -0.13119377271E+02 -0.29075233642E+03  0.29291210887E+03  0.00000000000E+00 0.  1.
<mgrwt>
<rscale>  1 0.30000000E+03</rscale>
<asrwt>0</asrwt>
<pdfrwt beam="1">  1        1 0.55593322E-02 0.30000000E+03</pdfrwt>
<pdfrwt beam="2">0</pdfrwt>
<totfact> 0.17138619E+03</totfact>
</mgrwt>
</event>
<event>
 6    1  0.1956957E-002  0.3000000E+03  0.7818608E-02  0.1093470E+00
          1   -1    0    0  502    0  0.00000000000E+00  0.00000000000E+00  0.25537993480E+01  0.25537993480E+01  0.00000000000E+00 0.  1.
         13   -1    0    0    0    0 -0.00000000000E+00 -0.00000000000E+00 -0.10000000000E+04  0.10000000000E+04  0.00000000000E+00 0.  1.
    9000005    2    1    2  501    0 -0.18635878993E+02  0.30198209221E+02 -0.85538078988E+03  0.85612358128E+03  0.34731684806E+01 0.  0.
         13    1    3    3    0    0 -0.11652200192E+02  0.19041545608E+02 -0.57731198210E+03  0.57774343692E+03  0.00000000000E+00 0.  1.
          1    1    3    3  501    0 -0.69836788013E+01  0.11156663613E+02 -0.27806880778E+03  0.27838014436E+03  0.00000000000E+00 0.  1.
         21    1    1    2  502  501  0.18635878993E+02 -0.30198209221E+02 -0.14206541077E+03  0.14643021807E+03  0.00000000000E+00 0.  1.
<mgrwt>
<rscale>  1 0.30000000E+03</rscale>
<asrwt>0</asrwt>
<pdfrwt beam="1">  1        1 0.92865627E-02 0.30000000E+03</pdfrwt>
<pdfrwt beam="2">0</pdfrwt>
<totfact> 0.83720443E+02</totfact>
</mgrwt>
</event>
<event>
 6    1  0.1956957E-002  0.3000000E+03  0.7818608E-02  0.1093470E+00
          1   -1    0    0  502    0  0.00000000000E+00  0.00000000000E+00  0.13543228015E+02  0.13543228015E+02  0.00000000000E+00 0.  1.
         13   -1    0    0    0    0 -0.00000000000E+00 -0.00000000000E+00 -0.10000000000E+04  0.10000000000E+04  0.00000000000E+00 0.  1.
    9000005    2    1    2  501    0  0.88287287671E+01  0.46641306105E+02 -0.95591027057E+03  0.95709460858E+03  0.35052130675E+01 0.  0.
         13    1    3    3    0    0  0.36826536129E+00  0.38986510741E+01 -0.98735963035E+02  0.98813589632E+02  0.00000000000E+00 0.  1.
          3    1    3    3  501    0  0.84604634058E+01  0.42742655031E+02 -0.85717430753E+03  0.85828101895E+03  0.00000000000E+00 0.  1.
         21    1    1    2  502  501 -0.88287287671E+01 -0.46641306105E+02 -0.30546501419E+02  0.56448619432E+02  0.00000000000E+00 0.  1.
<mgrwt>
<rscale>  1 0.30000000E+03</rscale>
<asrwt>0</asrwt>
<pdfrwt beam="1">  1        1 0.49248206E-01 0.30000000E+03</pdfrwt>
<pdfrwt beam="2">0</pdfrwt>
<totfact> 0.90023508E+01</totfact>
</mgrwt>
</event>
<event>
 6    1  0.1956957E-002  0.3000000E+03  0.7818608E-02  0.1093470E+00
          3   -1    0    0  502    0  0.00000000000E+00  0.00000000000E+00  0.36634157585E+01  0.36634157585E+01  0.00000000000E+00 0.  1.
         13   -1    0    0    0    0 -0.00000000000E+00 -0.00000000000E+00 -0.10000000000E+04  0.10000000000E+04  0.00000000000E+00 0.  1.
    9000005    2    1    2  501    0 -0.54266602249E+01  0.41185794335E+02 -0.86308598909E+03  0.86408748874E+03  0.20113002472E+01 0.  0.
         13    1    3    3    0    0 -0.46788908308E+01  0.35379780981E+02 -0.75529061646E+03  0.75613327941E+03  0.00000000000E+00 0.  1.
          3    1    3    3  501    0 -0.74776939410E+00  0.58060133544E+01 -0.10779537264E+03  0.10795420933E+03  0.00000000000E+00 0.  1.
         21    1    1    2  502  501  0.54266602249E+01 -0.41185794335E+02 -0.13325059515E+03  0.13957592702E+03  0.00000000000E+00 0.  1.
<mgrwt>
<rscale>  1 0.30000000E+03</rscale>
<asrwt>0</asrwt>
<pdfrwt beam="1">  1        3 0.13321540E-01 0.30000000E+03</pdfrwt>
<pdfrwt beam="2">0</pdfrwt>
<totfact> 0.20408295E+02</totfact>
</mgrwt>
</event>
<event>
 6    1  0.1956957E-002  0.3000000E+03  0.7818608E-02  0.1093470E+00
          1   -1    0    0  502    0  0.00000000000E+00  0.00000000000E+00  0.85532194434E+01  0.85532194434E+01  0.00000000000E+00 0.  1.
         13   -1    0    0    0    0 -0.00000000000E+00 -0.00000000000E+00 -0.10000000000E+04  0.10000000000E+04  0.00000000000E+00 0.  1.
    9000005    2    1    2  501    0  0.24153860017E+01  0.31779873552E+02 -0.96909631830E+03  0.96962588181E+03  0.32987983405E+01 0.  0.
         13    1    3    3    0    0  0.68911157189E+00  0.12004266558E+01 -0.51216651211E+02  0.51235351664E+02  0.00000000000E+00 0.  1.
          3    1    3    3  501    0  0.17262744298E+01  0.30579446896E+02 -0.91787966709E+03  0.91839053014E+03  0.00000000000E+00 0.  1.
         21    1    1    2  502  501 -0.24153860017E+01 -0.31779873552E+02 -0.22350462256E+02  0.38927337638E+02  0.00000000000E+00 0.  1.
<mgrwt>
<rscale>  1 0.30000000E+03</rscale>
<asrwt>0</asrwt>
<pdfrwt beam="1">  1        1 0.31102682E-01 0.30000000E+03</pdfrwt>
<pdfrwt beam="2">0</pdfrwt>
<totfact> 0.16425384E+02</totfact>
</mgrwt>
</event>
<event>
 6    1  0.1956957E-002  0.3000000E+03  0.7818608E-02  0.1093470E+00
          1   -1    0    0  502    0  0.00000000000E+00  0.00000000000E+00  0.15062321423E+01  0.15062321423E+01  0.00000000000E+00 0.  1.
         13   -1    0    0    0    0 -0.00000000000E+00 -0.00000000000E+00 -0.10000000000E+04  0.10000000000E+04  0.00000000000E+00 0.  1.
    9000005    2    1    2  501    0  0.14174445514E+02  0.32206786093E+02 -0.70939554385E+03  0.71027440850E+03  0.30831418588E+01 0.  0.
         13    1    3    3    0    0  0.38902265165E+01  0.12534512161E+02 -0.26253321969E+03  0.26286106463E+03  0.00000000000E+00 0.  1.
          1    1    3    3  501    0  0.10284218997E+02  0.19672273932E+02 -0.44686232415E+03  0.44741334387E+03  0.00000000000E+00 0.  1.
         21    1    1    2  502  501 -0.14174445514E+02 -0.32206786093E+02 -0.28909822401E+03  0.29123182364E+03  0.00000000000E+00 0.  1.
<mgrwt>
<rscale>  1 0.30000000E+03</rscale>
<asrwt>0</asrwt>
<pdfrwt beam="1">  1        1 0.54772193E-02 0.30000000E+03</pdfrwt>
<pdfrwt beam="2">0</pdfrwt>
<totfact> 0.17500492E+03</totfact>
</mgrwt>
</event>
<event>
 6    1  0.1956957E-002  0.3000000E+03  0.7818608E-02  0.1093470E+00
          1   -1    0    0  502    0  0.00000000000E+00  0.00000000000E+00  0.18614423094E+01  0.18614423094E+01  0.00000000000E+00 0.  1.
         13   -1    0    0    0    0 -0.00000000000E+00 -0.00000000000E+00 -0.10000000000E+04  0.10000000000E+04  0.00000000000E+00 0.  1.
    9000005    2    1    2  501    0  0.32912840757E+02 -0.15692933521E+02 -0.76629065213E+03  0.76716381863E+03  0.30721034816E+01 0.  0.
         13    1    3    3    0    0  0.11306222560E+02 -0.43565094982E+01 -0.23162433013E+03  0.23194102731E+03  0.00000000000E+00 0.  1.
          3    1    3    3  501    0  0.21606618197E+02 -0.11336424022E+02 -0.53466632200E+03  0.53522279132E+03  0.00000000000E+00 0.  1.
         21    1    1    2  502  501 -0.32912840757E+02  0.15692933521E+02 -0.23184790556E+03  0.23469762368E+03  0.00000000000E+00 0.  1.
<mgrwt>
<rscale>  1 0.30000000E+03</rscale>
<asrwt>0</asrwt>
<pdfrwt beam="1">  1        1 0.67688954E-02 0.30000000E+03</pdfrwt>
<pdfrwt beam="2">0</pdfrwt>
<totfact> 0.13004738E+03</totfact>
</mgrwt>
</event>
<event>
 6    1  0.1956957E-002  0.3000000E+03  0.7818608E-02  0.1093470E+00
          3   -1    0    0  502    0  0.00000000000E+00  0.00000000000E+00  0.17263805624E+01  0.17263805624E+01  0.00000000000E+00 0.  1.
         13   -1    0    0    0    0 -0.00000000000E+00 -0.00000000000E+00 -0.10000000000E+04  0.10000000000E+04  0.00000000000E+00 0.  1.
    9000005    2    1    2  501    0 -0.37982613816E+02 -0.74434431269E+01 -0.68017150266E+03  0.68127819365E+03  0.29360369049E+01 0.  0.
         13    1    3    3    0    0 -0.33584996062E+02 -0.73835336376E+01 -0.59394818923E+03  0.59494278718E+03  0.00000000000E+00 0.  1.
          1    1    3    3  501    0 -0.43976177542E+01 -0.59909489349E-01 -0.86223313428E+02  0.86335406465E+02  0.00000000000E+00 0.  1.
         21    1    1    2  502  501  0.37982613816E+02  0.74434431269E+01 -0.31810211678E+03  0.32044818692E+03  0.00000000000E+00 0.  1.
<mgrwt>
<rscale>  1 0.30000000E+03</rscale>
<asrwt>0</asrwt>
<pdfrwt beam="1">  1        3 0.62777607E-02 0.30000000E+03</pdfrwt>
<pdfrwt beam="2">0</pdfrwt>
<totfact> 0.69484307E+02</totfact>
</mgrwt>
</event>
<event>
 6    1  0.1956957E-002  0.3000000E+03  0.7818608E-02  0.1093470E+00
          1   -1    0    0  502    0  0.00000000000E+00  0.00000000000E+00  0.82463631508E+01  0.82463631508E+01  0.00000000000E+00 0.  1.
         13   -1    0    0    0    0 -0.00000000000E+00 -0.00000000000E+00 -0.10000000000E+04  0.10000000000E+04  0.00000000000E+00 0.  1.
    9000005    2    1    2  501    0 -0.17382089373E+02  0.62105621171E+02 -0.85020279174E+03  0.85269609165E+03  0.93055051255E+01 0.  0.
         13    1    3    3    0    0 -0.17263007557E+02  0.57629792164E+02 -0.75746056533E+03  0.75984584779E+03  0.00000000000E+00 0.  1.
          1    1    3    3  501    0 -0.11908181598E+00  0.44758290067E+01 -0.92742226409E+02  0.92850243862E+02  0.00000000000E+00 0.  1.
         21    1    1    2  502  501  0.17382089373E+02 -0.62105621171E+02 -0.14155084511E+03  0.15555027150E+03  0.00000000000E+00 0.  1.
<mgrwt>
<rscale>  1 0.30000000E+03</rscale>
<asrwt>0</asrwt>
<pdfrwt beam="1">  1        1 0.29986838E-01 0.30000000E+03</pdfrwt>
<pdfrwt beam="2">0</pdfrwt>
<totfact> 0.17231513E+02</totfact>
</mgrwt>
</event>
<event>
 6    1  0.1956957E-002  0.3000000E+03  0.7818608E-02  0.1093470E+00
          1   -1    0    0  502    0  0.00000000000E+00  0.00000000000E+00  0.16627695957E+01  0.16627695957E+01  0.00000000000E+00 0.  1.
         13   -1    0    0    0    0 -0.00000000000E+00 -0.00000000000E+00 -0.10000000000E+04  0.10000000000E+04  0.00000000000E+00 0.  1.
    9000005    2    1    2  501    0 -0.18765407358E+02  0.34386938585E+02 -0.63653370471E+03  0.63774465619E+03  0.29132817986E+01 0.  0.
         13    1    3    3    0    0 -0.17714105367E+02  0.32050529729E+02 -0.58216687298E+03  0.58331748987E+03  0.00000000000E+00 0.  1.
          1    1    3    3  501    0 -0.10513019907E+01  0.23364088563E+01 -0.54366831727E+02  0.54427166326E+02  0.00000000000E+00 0.  1.
         21    1    1    2  502  501  0.18765407358E+02 -0.34386938585E+02 -0.36180352569E+03  0.36391811340E+03  0.00000000000E+00 0.  1.
<mgrwt>
<rscale>  1 0.30000000E+03</rscale>
<asrwt>0</asrwt>
<pdfrwt beam="1">  1        1 0.60464476E-02 0.30000000E+03</pdfrwt>
<pdfrwt beam="2">0</pdfrwt>
<totfact> 0.15232782E+03</totfact>
</mgrwt>
</event>
<event>
 6    1  0.1956957E-002  0.3000000E+03  0.7818608E-02  0.1093470E+00
          1   -1    0    0  502    0  0.00000000000E+00  0.00000000000E+00  0.13304470907E+01  0.13304470907E+01  0.00000000000E+00 0.  1.
         13   -1    0    0    0    0 -0.00000000000E+00 -0.00000000000E+00 -0.10000000000E+04  0.10000000000E+04  0.00000000000E+00 0.  1.
    9000005    2    1    2  501    0  0.25263838198E+02  0.25116176688E+02 -0.60225091091E+03  0.60331433740E+03  0.35980777889E+01 0.  0.
         13    1    3    3    0    0  0.23841048709E+02  0.22682590033E+02 -0.56447356628E+03  0.56543196100E+03  0.00000000000E+00 0.  1.
          1    1    3    3  501    0  0.14227894889E+01  0.24335866541E+01 -0.37777344631E+02  0.37882376395E+02  0.00000000000E+00 0.  1.
         21    1    1    2  502  501 -0.25263838198E+02 -0.25116176688E+02 -0.39641864200E+03  0.39801610969E+03  0.00000000000E+00 0.  1.
<mgrwt>
<rscale>  1 0.30000000E+03</rscale>
<asrwt>0</asrwt>
<pdfrwt beam="1">  1        1 0.48379996E-02 0.30000000E+03</pdfrwt>
<pdfrwt beam="2">0</pdfrwt>
<totfact> 0.20834305E+03</totfact>
</mgrwt>
</event>
<event>
 6    1  0.1956957E-002  0.3000000E+03  0.7818608E-02  0.1093470E+00
          3   -1    0    0  502    0  0.00000000000E+00  0.00000000000E+00  0.61807829922E+01  0.61807829922E+01  0.00000000000E+00 0.  1.
         13   -1    0    0    0    0 -0.00000000000E+00 -0.00000000000E+00 -0.10000000000E+04  0.10000000000E+04  0.00000000000E+00 0.  1.
    9000005    2    1    2  501    0  0.68662203758E+02  0.29255058115E+02 -0.65456179419E+03  0.65881072731E+03  0.31741692794E+01 0.  0.
         13    1    3    3    0    0  0.50493317968E+02  0.19991038288E+02 -0.47417293280E+03  0.47727265475E+03  0.00000000000E+00 0.  1.
          1    1    3    3  501    0  0.18168885790E+02  0.92640198264E+01 -0.18038886138E+03  0.18153807255E+03  0.00000000000E+00 0.  1.
         21    1    1    2  502  501 -0.68662203758E+02 -0.29255058115E+02 -0.33925742282E+03  0.34737005569E+03  0.00000000000E+00 0.  1.
<mgrwt>
<rscale>  1 0.30000000E+03</rscale>
<asrwt>0</asrwt>
<pdfrwt beam="1">  1        3 0.22475622E-01 0.30000000E+03</pdfrwt>
<pdfrwt beam="2">0</pdfrwt>
<totfact> 0.80607315E+01</totfact>
</mgrwt>
</event>
<event>
 6    1  0.1956957E-002  0.3000000E+03  0.7818608E-02  0.1093470E+00
          1   -1    0    0  502    0  0.00000000000E+00  0.00000000000E+00  0.11276453761E+02  0.11276453761E+02  0.00000000000E+00 0.  1.
         13   -1    0    0    0    0 -0.00000000000E+00 -0.00000000000E+00 -0.10000000000E+04  0.10000000000E+04  0.00000000000E+00 0.  1.
    9000005    2    1    2  501    0  0.26615575641E+02  0.10259573909E+03 -0.46692753306E+03  0.47882424566E+03  0.41306843821E+01 0.  0.
         13    1    3    3    0    0  0.60515701380E+01  0.27436475120E+02 -0.13063938934E+03  0.13362646338E+03  0.00000000000E+00 0.  1.
          3    1    3    3  501    0  0.20564005503E+02  0.75159263969E+02 -0.33628814372E+03  0.34519778228E+03  0.00000000000E+00 0.  1.
         21    1    1    2  502  501 -0.26615575641E+02 -0.10259573909E+03 -0.52179601318E+03  0.53245220811E+03  0.00000000000E+00 0.  1.
<mgrwt>
<rscale>  1 0.30000000E+03</rscale>
<asrwt>0</asrwt>
<pdfrwt beam="1">  1        1 0.41005373E-01 0.30000000E+03</pdfrwt>
<pdfrwt beam="2">0</pdfrwt>
<totfact> 0.11443175E+02</totfact>
</mgrwt>
</event>
<event>
 6    1  0.1956957E-002  0.3000000E+03  0.7818608E-02  0.1093470E+00
          3   -1    0    0  502    0  0.00000000000E+00  0.00000000000E+00  0.23653725638E+01  0.23653725638E+01  0.00000000000E+00 0.  1.
         13   -1    0    0    0    0 -0.00000000000E+00 -0.00000000000E+00 -0.10000000000E+04  0.10000000000E+04  0.00000000000E+00 0.  1.
    9000005    2    1    2  501    0  0.10849571245E+02  0.46606334455E+02 -0.41281172874E+03  0.41558799873E+03  0.31619128747E+01 0.  0.
         13    1    3    3    0    0  0.47373089585E+01  0.27238303677E+02 -0.23832075759E+03  0.23991905048E+03  0.00000000000E+00 0.  1.
          1    1    3    3  501    0  0.61122622868E+01  0.19368030778E+02 -0.17449097115E+03  0.17566894825E+03  0.00000000000E+00 0.  1.
         21    1    1    2  502  501 -0.10849571245E+02 -0.46606334455E+02 -0.58482289869E+03  0.58677737383E+03  0.00000000000E+00 0.  1.
<mgrwt>
<rscale>  1 0.30000000E+03</rscale>
<asrwt>0</asrwt>
<pdfrwt beam="1">  1        3 0.86013729E-02 0.30000000E+03</pdfrwt>
<pdfrwt beam="2">0</pdfrwt>
<totfact> 0.42195619E+02</totfact>
</mgrwt>
</event>
<event>
 6    1  0.1956957E-002  0.3000000E+03  0.7818608E-02  0.1093470E+00
          1   -1    0    0  502    0  0.00000000000E+00  0.00000000000E+00  0.21376648077E+01  0.21376648077E+01  0.00000000000E+00 0.  1.
         13   -1    0    0    0    0 -0.00000000000E+00 -0.00000000000E+00 -0.10000000000E+04  0.10000000000E+04  0.00000000000E+00 0.  1.
    9000005    2    1    2  501    0  0.27902725960E+02  0.33876244740E+02 -0.34890460189E+03  0.35169758172E+03  0.55322413532E+01 0.  0.
         13    1    3    3    0    0  0.92781025645E+01  0.14672733488E+02 -0.12467961726E+03  0.12588240248E+03  0.00000000000E+00 0.  1.
          3    1    3    3  501    0  0.18624623395E+02  0.19203511252E+02 -0.22422498463E+03  0.22581517924E+03  0.00000000000E+00 0.  1.
         21    1    1    2  502  501 -0.27902725960E+02 -0.33876244740E+02 -0.64895773330E+03  0.65044008309E+03  0.00000000000E+00 0.  1.
<mgrwt>
<rscale>  1 0.30000000E+03</rscale>
<asrwt>0</asrwt>
<pdfrwt beam="1">  1        1 0.77733430E-02 0.30000000E+03</pdfrwt>
<pdfrwt beam="2">0</pdfrwt>
<totfact> 0.10719124E+03</totfact>
</mgrwt>
</event>
<event>
 6    1  0.1956957E-002  0.3000000E+03  0.7818608E-02  0.1093470E+00
          3   -1    0    0  502    0  0.00000000000E+00  0.00000000000E+00  0.10468703096E+01  0.10468703096E+01  0.00000000000E+00 0.  1.
         13   -1    0    0    0    0 -0.00000000000E+00 -0.00000000000E+00 -0.10000000000E+04  0.10000000000E+04  0.00000000000E+00 0.  1.
    9000005    2    1    2  501    0  0.32202603378E+02 -0.19849984284E+01 -0.51633061990E+03  0.51734713407E+03  0.31305270617E+01 0.  0.
         13    1    3    3    0    0  0.26217312949E+02 -0.39163949548E+00 -0.41586288144E+03  0.41668865720E+03  0.00000000000E+00 0.  1.
          1    1    3    3  501    0  0.59852904290E+01 -0.15933589329E+01 -0.10046773846E+03  0.10065847687E+03  0.00000000000E+00 0.  1.
         21    1    1    2  502  501 -0.32202603378E+02  0.19849984284E+01 -0.48262250979E+03  0.48369973624E+03  0.00000000000E+00 0.  1.
<mgrwt>
<rscale>  1 0.30000000E+03</rscale>
<asrwt>0</asrwt>
<pdfrwt beam="1">  1        3 0.38068092E-02 0.30000000E+03</pdfrwt>
<pdfrwt beam="2">0</pdfrwt>
<totfact> 0.15055554E+03</totfact>
</mgrwt>
</event>
<event>
 6    1  0.1956957E-002  0.3000000E+03  0.7818608E-02  0.1093470E+00
          3   -1    0    0  502    0  0.00000000000E+00  0.00000000000E+00  0.25484630021E+01  0.25484630021E+01  0.00000000000E+00 0.  1.
         13   -1    0    0    0    0 -0.00000000000E+00 -0.00000000000E+00 -0.10000000000E+04  0.10000000000E+04  0.00000000000E+00 0.  1.
    9000005    2    1    2  501    0  0.37224916060E+02  0.77778578330E+01 -0.82809735530E+03  0.82897707047E+03  0.34005965014E+01 0.  0.
         13    1    3    3    0    0  0.29181262632E+00 -0.53715408758E-01 -0.15824597947E+02  0.15827379446E+02  0.00000000000E+00 0.  1.
          1    1    3    3  501    0  0.36933103433E+02  0.78315732418E+01 -0.81227275735E+03  0.81314969102E+03  0.00000000000E+00 0.  1.
         21    1    1    2  502  501 -0.37224916060E+02 -0.77778578330E+01 -0.16935418170E+03  0.17357139253E+03  0.00000000000E+00 0.  1.
<mgrwt>
<rscale>  1 0.30000000E+03</rscale>
<asrwt>0</asrwt>
<pdfrwt beam="1">  1        3 0.92671577E-02 0.30000000E+03</pdfrwt>
<pdfrwt beam="2">0</pdfrwt>
<totfact> 0.37403960E+02</totfact>
</mgrwt>
</event>
<event>
 6    1  0.1956957E-002  0.3000000E+03  0.7818608E-02  0.1093470E+00
          1   -1    0    0  502    0  0.00000000000E+00  0.00000000000E+00  0.71147915456E+01  0.71147915456E+01  0.00000000000E+00 0.  1.
         13   -1    0    0    0    0 -0.00000000000E+00 -0.00000000000E+00 -0.10000000000E+04  0.10000000000E+04  0.00000000000E+00 0.  1.
    9000005    2    1    2  501    0 -0.50809495999E+02 -0.46475643534E+02 -0.78709545922E+03  0.79011015745E+03  0.36343731514E+01 0.  0.
         13    1    3    3    0    0 -0.35078110798E+02 -0.30843479218E+02 -0.51704412946E+03  0.51914971432E+03  0.00000000000E+00 0.  1.
          3    1    3    3  501    0 -0.15731385200E+02 -0.15632164315E+02 -0.27005132975E+03  0.27096044313E+03  0.00000000000E+00 0.  1.
         21    1    1    2  502  501  0.50809495999E+02  0.46475643534E+02 -0.20578974924E+03  0.21700463409E+03  0.00000000000E+00 0.  1.
<mgrwt>
<rscale>  1 0.30000000E+03</rscale>
<asrwt>0</asrwt>
<pdfrwt beam="1">  1        1 0.25872024E-01 0.30000000E+03</pdfrwt>
<pdfrwt beam="2">0</pdfrwt>
<totfact> 0.20923941E+02</totfact>
</mgrwt>
</event>
<event>
 6    1  0.1956957E-002  0.3000000E+03  0.7818608E-02  0.1093470E+00
          3   -1    0    0  502    0  0.00000000000E+00  0.00000000000E+00  0.11148318826E+01  0.11148318826E+01  0.00000000000E+00 0.  1.
         13   -1    0    0    0    0 -0.00000000000E+00 -0.00000000000E+00 -0.10000000000E+04  0.10000000000E+04  0.00000000000E+00 0.  1.
    9000005    2    1    2  501    0  0.28021152553E+02  0.13438135337E+02 -0.32257146500E+03  0.32408751080E+03  0.38204908997E+01 0.  0.
         13    1    3    3    0    0  0.25377333346E+02  0.12567165485E+02 -0.30274998298E+03  0.30407152923E+03  0.00000000000E+00 0.  1.
          3    1    3    3  501    0  0.26438192075E+01  0.87096985236E+00 -0.19821482024E+02  0.20015981567E+02  0.00000000000E+00 0.  1.
         21    1    1    2  502  501 -0.28021152553E+02 -0.13438135337E+02 -0.67631370311E+03  0.67702732108E+03  0.00000000000E+00 0.  1.
<mgrwt>
<rscale>  1 0.30000000E+03</rscale>
<asrwt>0</asrwt>
<pdfrwt beam="1">  1        3 0.40539427E-02 0.30000000E+03</pdfrwt>
<pdfrwt beam="2">0</pdfrwt>
<totfact> 0.13668503E+03</totfact>
</mgrwt>
</event>
<event>
 6    1  0.1956957E-002  0.3000000E+03  0.7818608E-02  0.1093470E+00
          3   -1    0    0  502    0  0.00000000000E+00  0.00000000000E+00  0.16648557855E+01  0.16648557855E+01  0.00000000000E+00 0.  1.
         13   -1    0    0    0    0 -0.00000000000E+00 -0.00000000000E+00 -0.10000000000E+04  0.10000000000E+04  0.00000000000E+00 0.  1.
    9000005    2    1    2  501    0 -0.58476378118E+01  0.39692126868E+02 -0.58185912463E+03  0.58326082295E+03  0.48463254977E+01 0.  0.
         13    1    3    3    0    0 -0.26053533857E+01  0.28434578305E+02 -0.38940971982E+03  0.39045517412E+03  0.00000000000E+00 0.  1.
          1    1    3    3  501    0 -0.32422844261E+01  0.11257548563E+02 -0.19244940481E+03  0.19280564883E+03  0.00000000000E+00 0.  1.
         21    1    1    2  502  501  0.58476378118E+01 -0.39692126868E+02 -0.41647601959E+03  0.41840403284E+03  0.00000000000E+00 0.  1.
<mgrwt>
<rscale>  1 0.30000000E+03</rscale>
<asrwt>0</asrwt>
<pdfrwt beam="1">  1        3 0.60540338E-02 0.30000000E+03</pdfrwt>
<pdfrwt beam="2">0</pdfrwt>
<totfact> 0.73534963E+02</totfact>
</mgrwt>
</event>
<event>
 6    1  0.1956957E-002  0.3000000E+03  0.7818608E-02  0.1093470E+00
          1   -1    0    0  502    0  0.00000000000E+00  0.00000000000E+00  0.53215944234E+01  0.53215944234E+01  0.00000000000E+00 0.  1.
         13   -1    0    0    0    0 -0.00000000000E+00 -0.00000000000E+00 -0.10000000000E+04  0.10000000000E+04  0.00000000000E+00 0.  1.
    9000005    2    1    2  501    0  0.21578893388E+02  0.29729062355E+02 -0.93157726253E+03  0.93230639024E+03  0.30892441119E+01 0.  0.
         13    1    3    3    0    0  0.61012653420E+01  0.73217287664E+01 -0.21249216089E+03  0.21270578645E+03  0.00000000000E+00 0.  1.
          1    1    3    3  501    0  0.15477628046E+02  0.22407333588E+02 -0.71908510164E+03  0.71960060379E+03  0.00000000000E+00 0.  1.
         21    1    1    2  502  501 -0.21578893388E+02 -0.29729062355E+02 -0.63101143048E+02  0.73015204185E+02  0.00000000000E+00 0.  1.
<mgrwt>
<rscale>  1 0.30000000E+03</rscale>
<asrwt>0</asrwt>
<pdfrwt beam="1">  1        1 0.19351293E-01 0.30000000E+03</pdfrwt>
<pdfrwt beam="2">0</pdfrwt>
<totfact> 0.30770058E+02</totfact>
</mgrwt>
</event>
<event>
 6    1  0.1956957E-002  0.3000000E+03  0.7818608E-02  0.1093470E+00
          1   -1    0    0  502    0  0.00000000000E+00  0.00000000000E+00  0.15210934577E+01  0.15210934577E+01  0.00000000000E+00 0.  1.
         13   -1    0    0    0    0 -0.00000000000E+00 -0.00000000000E+00 -0.10000000000E+04  0.10000000000E+04  0.00000000000E+00 0.  1.
    9000005    2    1    2  501    0 -0.11523379772E+02  0.36967371683E+02 -0.55217347655E+03  0.55353904952E+03  0.32490439924E+01 0.  0.
         13    1    3    3    0    0 -0.65123896194E+01  0.18543309468E+02 -0.25916863326E+03  0.25991276615E+03  0.00000000000E+00 0.  1.
          1    1    3    3  501    0 -0.50109901529E+01  0.18424062215E+02 -0.29300484329E+03  0.29362628336E+03  0.00000000000E+00 0.  1.
         21    1    1    2  502  501  0.11523379772E+02 -0.36967371683E+02 -0.44630542999E+03  0.44798204394E+03  0.00000000000E+00 0.  1.
<mgrwt>
<rscale>  1 0.30000000E+03</rscale>
<asrwt>0</asrwt>
<pdfrwt beam="1">  1        1 0.55312606E-02 0.30000000E+03</pdfrwt>
<pdfrwt beam="2">0</pdfrwt>
<totfact> 0.17260873E+03</totfact>
</mgrwt>
</event>
<event>
 6    1  0.1956957E-002  0.3000000E+03  0.7818608E-02  0.1093470E+00
          1   -1    0    0  502    0  0.00000000000E+00  0.00000000000E+00  0.14670278585E+01  0.14670278585E+01  0.00000000000E+00 0.  1.
         13   -1    0    0    0    0 -0.00000000000E+00 -0.00000000000E+00 -0.10000000000E+04  0.10000000000E+04  0.00000000000E+00 0.  1.
    9000005    2    1    2  501    0  0.18810164208E+02  0.27793768628E+02 -0.74019089408E+03  0.74095417760E+03  0.20537219103E+01 0.  0.
         13    1    3    3    0    0  0.18258715503E+02  0.26395698736E+02 -0.70063551393E+03  0.70137025670E+03  0.00000000000E+00 0.  1.
          1    1    3    3  501    0  0.55144870492E+00  0.13980698921E+01 -0.39555380156E+02  0.39583920907E+02  0.00000000000E+00 0.  1.
         21    1    1    2  502  501 -0.18810164208E+02 -0.27793768628E+02 -0.25834207806E+03  0.26051285025E+03  0.00000000000E+00 0.  1.
<mgrwt>
<rscale>  1 0.30000000E+03</rscale>
<asrwt>0</asrwt>
<pdfrwt beam="1">  1        1 0.53346580E-02 0.30000000E+03</pdfrwt>
<pdfrwt beam="2">0</pdfrwt>
<totfact> 0.18160840E+03</totfact>
</mgrwt>
</event>
<event>
 6    1  0.1956957E-002  0.3000000E+03  0.7818608E-02  0.1093470E+00
          3   -1    0    0  502    0  0.00000000000E+00  0.00000000000E+00  0.47702065315E+01  0.47702065315E+01  0.00000000000E+00 0.  1.
         13   -1    0    0    0    0 -0.00000000000E+00 -0.00000000000E+00 -0.10000000000E+04  0.10000000000E+04  0.00000000000E+00 0.  1.
    9000005    2    1    2  501    0  0.16734505562E+02  0.63512112794E+02 -0.34516109976E+03  0.35139195568E+03  0.51273365420E+01 0.  0.
         13    1    3    3    0    0  0.15180581850E+01  0.10906785843E+02 -0.65598187265E+02  0.66516048067E+02  0.00000000000E+00 0.  1.
          1    1    3    3  501    0  0.15216447377E+02  0.52605326951E+02 -0.27956291249E+03  0.28487590761E+03  0.00000000000E+00 0.  1.
         21    1    1    2  502  501 -0.16734505562E+02 -0.63512112794E+02 -0.65006869371E+03  0.65337825086E+03  0.00000000000E+00 0.  1.
<mgrwt>
<rscale>  1 0.30000000E+03</rscale>
<asrwt>0</asrwt>
<pdfrwt beam="1">  1        3 0.17346242E-01 0.30000000E+03</pdfrwt>
<pdfrwt beam="2">0</pdfrwt>
<totfact> 0.12902501E+02</totfact>
</mgrwt>
</event>
<event>
 6    1  0.1956957E-002  0.3000000E+03  0.7818608E-02  0.1093470E+00
          1   -1    0    0  502    0  0.00000000000E+00  0.00000000000E+00  0.13539413495E+01  0.13539413495E+01  0.00000000000E+00 0.  1.
         13   -1    0    0    0    0 -0.00000000000E+00 -0.00000000000E+00 -0.10000000000E+04  0.10000000000E+04  0.00000000000E+00 0.  1.
    9000005    2    1    2  501    0  0.15987130905E+02  0.28262472997E+02 -0.73357350865E+03  0.73429999081E+03  0.34681662936E+01 0.  0.
         13    1    3    3    0    0  0.13988643394E+02  0.22649836066E+02 -0.57890823301E+03  0.57952000782E+03  0.00000000000E+00 0.  1.
          3    1    3    3  501    0  0.19984875110E+01  0.56126369305E+01 -0.15466527564E+03  0.15477998299E+03  0.00000000000E+00 0.  1.
         21    1    1    2  502  501 -0.15987130905E+02 -0.28262472997E+02 -0.26507255000E+03  0.26705395054E+03  0.00000000000E+00 0.  1.
<mgrwt>
<rscale>  1 0.30000000E+03</rscale>
<asrwt>0</asrwt>
<pdfrwt beam="1">  1        1 0.49234335E-02 0.30000000E+03</pdfrwt>
<pdfrwt beam="2">0</pdfrwt>
<totfact> 0.20327810E+03</totfact>
</mgrwt>
</event>
<event>
 6    1  0.1956957E-002  0.3000000E+03  0.7818608E-02  0.1093470E+00
          1   -1    0    0  502    0  0.00000000000E+00  0.00000000000E+00  0.12970489678E+02  0.12970489678E+02  0.00000000000E+00 0.  1.
         13   -1    0    0    0    0 -0.00000000000E+00 -0.00000000000E+00 -0.10000000000E+04  0.10000000000E+04  0.00000000000E+00 0.  1.
    9000005    2    1    2  501    0  0.64356731846E+02  0.93102255120E+02 -0.54911587505E+03  0.56066730508E+03  0.31247253332E+01 0.  0.
         13    1    3    3    0    0  0.30827909189E+01  0.39188067968E+01 -0.21545674872E+02  0.22115079748E+02  0.00000000000E+00 0.  1.
          3    1    3    3  501    0  0.61273940927E+02  0.89183448323E+02 -0.52757020018E+03  0.53855222533E+03  0.00000000000E+00 0.  1.
         21    1    1    2  502  501 -0.64356731846E+02 -0.93102255120E+02 -0.43791363527E+03  0.45230318460E+03  0.00000000000E+00 0.  1.
<mgrwt>
<rscale>  1 0.30000000E+03</rscale>
<asrwt>0</asrwt>
<pdfrwt beam="1">  1        1 0.47165516E-01 0.30000000E+03</pdfrwt>
<pdfrwt beam="2">0</pdfrwt>
<totfact> 0.95272064E+01</totfact>
</mgrwt>
</event>
<event>
 6    1  0.1956957E-002  0.3000000E+03  0.7818608E-02  0.1093470E+00
          1   -1    0    0  502    0  0.00000000000E+00  0.00000000000E+00  0.19131495397E+01  0.19131495397E+01  0.00000000000E+00 0.  1.
         13   -1    0    0    0    0 -0.00000000000E+00 -0.00000000000E+00 -0.10000000000E+04  0.10000000000E+04  0.00000000000E+00 0.  1.
    9000005    2    1    2  501    0  0.22241559330E+02  0.30333580083E+02 -0.75376291866E+03  0.75471080996E+03  0.38802172155E+01 0.  0.
         13    1    3    3    0    0  0.74295185526E+01  0.90718291504E+01 -0.20250509021E+03  0.20284429346E+03  0.00000000000E+00 0.  1.
          3    1    3    3  501    0  0.14812040777E+02  0.21261750932E+02 -0.55125782845E+03  0.55186651649E+03  0.00000000000E+00 0.  1.
         21    1    1    2  502  501 -0.22241559330E+02 -0.30333580083E+02 -0.24432393180E+03  0.24720233958E+03  0.00000000000E+00 0.  1.
<mgrwt>
<rscale>  1 0.30000000E+03</rscale>
<asrwt>0</asrwt>
<pdfrwt beam="1">  1        1 0.69569221E-02 0.30000000E+03</pdfrwt>
<pdfrwt beam="2">0</pdfrwt>
<totfact> 0.12515690E+03</totfact>
</mgrwt>
</event>
<event>
 6    1  0.1956957E-002  0.3000000E+03  0.7818608E-02  0.1093470E+00
          1   -1    0    0  502    0  0.00000000000E+00  0.00000000000E+00  0.25676688396E+01  0.25676688396E+01  0.00000000000E+00 0.  1.
         13   -1    0    0    0    0 -0.00000000000E+00 -0.00000000000E+00 -0.10000000000E+04  0.10000000000E+04  0.00000000000E+00 0.  1.
    9000005    2    1    2  501    0 -0.34336159088E+02 -0.19225864794E+02 -0.81421299400E+03  0.81516988014E+03  0.32447187791E+01 0.  0.
         13    1    3    3    0    0 -0.32100469976E+02 -0.18478738453E+02 -0.77697995264E+03  0.77786229549E+03  0.00000000000E+00 0.  1.
          3    1    3    3  501    0 -0.22356891121E+01 -0.74712634055E+00 -0.37233041356E+02  0.37307584647E+02  0.00000000000E+00 0.  1.
         21    1    1    2  502  501  0.34336159088E+02  0.19225864794E+02 -0.18321933716E+03  0.18739778870E+03  0.00000000000E+00 0.  1.
<mgrwt>
<rscale>  1 0.30000000E+03</rscale>
<asrwt>0</asrwt>
<pdfrwt beam="1">  1        1 0.93369973E-02 0.30000000E+03</pdfrwt>
<pdfrwt beam="2">0</pdfrwt>
<totfact> 0.83094699E+02</totfact>
</mgrwt>
</event>
<event>
 6    1  0.1956957E-002  0.3000000E+03  0.7818608E-02  0.1093470E+00
          1   -1    0    0  502    0  0.00000000000E+00  0.00000000000E+00  0.11841596856E+01  0.11841596856E+01  0.00000000000E+00 0.  1.
         13   -1    0    0    0    0 -0.00000000000E+00 -0.00000000000E+00 -0.10000000000E+04  0.10000000000E+04  0.00000000000E+00 0.  1.
    9000005    2    1    2  501    0  0.30550760616E+02  0.91136920618E+01 -0.68582271366E+03  0.68657153169E+03  0.33563681355E+01 0.  0.
         13    1    3    3    0    0  0.23754443274E+01  0.16738464446E+01 -0.57351910080E+02  0.57425482910E+02  0.00000000000E+00 0.  1.
          1    1    3    3  501    0  0.28175316289E+02  0.74398456172E+01 -0.62847080358E+03  0.62914604878E+03  0.00000000000E+00 0.  1.
         21    1    1    2  502  501 -0.30550760616E+02 -0.91136920618E+01 -0.31299312666E+03  0.31461262799E+03  0.00000000000E+00 0.  1.
<mgrwt>
<rscale>  1 0.30000000E+03</rscale>
<asrwt>0</asrwt>
<pdfrwt beam="1">  1        1 0.43060443E-02 0.30000000E+03</pdfrwt>
<pdfrwt beam="2">0</pdfrwt>
<totfact> 0.24544789E+03</totfact>
</mgrwt>
</event>
<event>
 6    1  0.1956957E-002  0.3000000E+03  0.7818608E-02  0.1093470E+00
          1   -1    0    0  502    0  0.00000000000E+00  0.00000000000E+00  0.60259121368E+01  0.60259121368E+01  0.00000000000E+00 0.  1.
         13   -1    0    0    0    0 -0.00000000000E+00 -0.00000000000E+00 -0.10000000000E+04  0.10000000000E+04  0.00000000000E+00 0.  1.
    9000005    2    1    2  501    0  0.49517578327E+01 -0.49545644253E+02 -0.88278137057E+03  0.88419360464E+03  0.40114209243E+01 0.  0.
         13    1    3    3    0    0  0.79632045475E+00 -0.20119321389E+02 -0.38438548545E+03  0.38491248700E+03  0.00000000000E+00 0.  1.
          3    1    3    3  501    0  0.41554373780E+01 -0.29426322864E+02 -0.49839588511E+03  0.49928111764E+03  0.00000000000E+00 0.  1.
         21    1    1    2  502  501 -0.49517578327E+01  0.49545644253E+02 -0.11119271730E+03  0.12183230750E+03  0.00000000000E+00 0.  1.
<mgrwt>
<rscale>  1 0.30000000E+03</rscale>
<asrwt>0</asrwt>
<pdfrwt beam="1">  1        1 0.21912454E-01 0.30000000E+03</pdfrwt>
<pdfrwt beam="2">0</pdfrwt>
<totfact> 0.26068239E+02</totfact>
</mgrwt>
</event>
<event>
 6    1  0.1956957E-002  0.3000000E+03  0.7818608E-02  0.1093470E+00
          1   -1    0    0  502    0  0.00000000000E+00  0.00000000000E+00  0.17729515745E+01  0.17729515745E+01  0.00000000000E+00 0.  1.
         13   -1    0    0    0    0 -0.00000000000E+00 -0.00000000000E+00 -0.10000000000E+04  0.10000000000E+04  0.00000000000E+00 0.  1.
    9000005    2    1    2  501    0  0.30207615386E+02 -0.17002897680E+02 -0.78097978081E+03  0.78177755653E+03  0.67179829248E+01 0.  0.
         13    1    3    3    0    0  0.16869260877E+02 -0.71294182837E+01 -0.35068104151E+03  0.35115892903E+03  0.00000000000E+00 0.  1.
          3    1    3    3  501    0  0.13338354509E+02 -0.98734793967E+01 -0.43029873930E+03  0.43061862749E+03  0.00000000000E+00 0.  1.
         21    1    1    2  502  501 -0.30207615386E+02  0.17002897680E+02 -0.21724726761E+03  0.21999539505E+03  0.00000000000E+00 0.  1.
<mgrwt>
<rscale>  1 0.30000000E+03</rscale>
<asrwt>0</asrwt>
<pdfrwt beam="1">  1        1 0.64471102E-02 0.30000000E+03</pdfrwt>
<pdfrwt beam="2">0</pdfrwt>
<totfact> 0.13922550E+03</totfact>
</mgrwt>
</event>
<event>
 6    1  0.1956957E-002  0.3000000E+03  0.7818608E-02  0.1093470E+00
          1   -1    0    0  502    0  0.00000000000E+00  0.00000000000E+00  0.11897464341E+01  0.11897464341E+01  0.00000000000E+00 0.  1.
         13   -1    0    0    0    0 -0.00000000000E+00 -0.00000000000E+00 -0.10000000000E+04  0.10000000000E+04  0.00000000000E+00 0.  1.
    9000005    2    1    2  501    0  0.11178897591E+02  0.32475667861E+02 -0.53894600728E+03  0.54004469142E+03  0.24152040299E+01 0.  0.
         13    1    3    3    0    0  0.59290539368E+01  0.20441618301E+02 -0.32496989003E+03  0.32566615247E+03  0.00000000000E+00 0.  1.
          3    1    3    3  501    0  0.52498436540E+01  0.12034049560E+02 -0.21397611725E+03  0.21437853895E+03  0.00000000000E+00 0.  1.
         21    1    1    2  502  501 -0.11178897591E+02 -0.32475667861E+02 -0.45986424628E+03  0.46114505502E+03  0.00000000000E+00 0.  1.
<mgrwt>
<rscale>  1 0.30000000E+03</rscale>
<asrwt>0</asrwt>
<pdfrwt beam="1">  1        1 0.43263598E-02 0.30000000E+03</pdfrwt>
<pdfrwt beam="2">0</pdfrwt>
<totfact> 0.24382685E+03</totfact>
</mgrwt>
</event>
<event>
 6    1  0.1956957E-002  0.3000000E+03  0.7818608E-02  0.1093470E+00
          1   -1    0    0  502    0  0.00000000000E+00  0.00000000000E+00  0.12329046428E+01  0.12329046428E+01  0.00000000000E+00 0.  1.
         13   -1    0    0    0    0 -0.00000000000E+00 -0.00000000000E+00 -0.10000000000E+04  0.10000000000E+04  0.00000000000E+00 0.  1.
    9000005    2    1    2  501    0 -0.33724818391E+02 -0.34732976240E+01 -0.62355373483E+03  0.62449095969E+03  0.45023701459E+01 0.  0.
         13    1    3    3    0    0 -0.18737247358E+02 -0.31540199725E+01 -0.38233964428E+03  0.38281148868E+03  0.00000000000E+00 0.  1.
          3    1    3    3  501    0 -0.14987571033E+02 -0.31927765144E+00 -0.24121409055E+03  0.24167947101E+03  0.00000000000E+00 0.  1.
         21    1    1    2  502  501  0.33724818391E+02  0.34732976240E+01 -0.37521336052E+03  0.37674194495E+03  0.00000000000E+00 0.  1.
<mgrwt>
<rscale>  1 0.30000000E+03</rscale>
<asrwt>0</asrwt>
<pdfrwt beam="1">  1        1 0.44832991E-02 0.30000000E+03</pdfrwt>
<pdfrwt beam="2">0</pdfrwt>
<totfact> 0.23189874E+03</totfact>
</mgrwt>
</event>
<event>
 6    1  0.1956957E-002  0.3000000E+03  0.7818608E-02  0.1093470E+00
          1   -1    0    0  502    0  0.00000000000E+00  0.00000000000E+00  0.12524776628E+01  0.12524776628E+01  0.00000000000E+00 0.  1.
         13   -1    0    0    0    0 -0.00000000000E+00 -0.00000000000E+00 -0.10000000000E+04  0.10000000000E+04  0.00000000000E+00 0.  1.
    9000005    2    1    2  501    0  0.34346195681E+02 -0.79422375084E+01 -0.51626561194E+03  0.51748441944E+03  0.41475292438E+01 0.  0.
         13    1    3    3    0    0  0.22672455482E+02 -0.65608174162E+01 -0.36542926676E+03  0.36619070656E+03  0.00000000000E+00 0.  1.
          3    1    3    3  501    0  0.11673740199E+02 -0.13814200922E+01 -0.15083634517E+03  0.15129371288E+03  0.00000000000E+00 0.  1.
         21    1    1    2  502  501 -0.34346195681E+02  0.79422375084E+01 -0.48248191040E+03  0.48376805822E+03  0.00000000000E+00 0.  1.
<mgrwt>
<rscale>  1 0.30000000E+03</rscale>
<asrwt>0</asrwt>
<pdfrwt beam="1">  1        1 0.45544738E-02 0.30000000E+03</pdfrwt>
<pdfrwt beam="2">0</pdfrwt>
<totfact> 0.22681496E+03</totfact>
</mgrwt>
</event>
<event>
 6    1  0.1956957E-002  0.3000000E+03  0.7818608E-02  0.1093470E+00
          3   -1    0    0  502    0  0.00000000000E+00  0.00000000000E+00  0.17010263082E+01  0.17010263082E+01  0.00000000000E+00 0.  1.
         13   -1    0    0    0    0 -0.00000000000E+00 -0.00000000000E+00 -0.10000000000E+04  0.10000000000E+04  0.00000000000E+00 0.  1.
    9000005    2    1    2  501    0 -0.37713848152E+02  0.49654861944E+01 -0.30698708880E+03  0.30934337842E+03  0.22940547581E+01 0.  0.
         13    1    3    3    0    0 -0.31804282278E+02  0.37008245250E+01 -0.25242061747E+03  0.25444326793E+03  0.00000000000E+00 0.  1.
          3    1    3    3  501    0 -0.59095658745E+01  0.12646616694E+01 -0.54566471334E+02  0.54900110490E+02  0.00000000000E+00 0.  1.
         21    1    1    2  502  501  0.37713848152E+02 -0.49654861944E+01 -0.69131188489E+03  0.69235764788E+03  0.00000000000E+00 0.  1.
<mgrwt>
<rscale>  1 0.30000000E+03</rscale>
<asrwt>0</asrwt>
<pdfrwt beam="1">  1        3 0.61855633E-02 0.30000000E+03</pdfrwt>
<pdfrwt beam="2">0</pdfrwt>
<totfact> 0.71108939E+02</totfact>
</mgrwt>
</event>
<event>
 6    1  0.1956957E-002  0.3000000E+03  0.7818608E-02  0.1093470E+00
          3   -1    0    0  502    0  0.00000000000E+00  0.00000000000E+00  0.11935880799E+01  0.11935880799E+01  0.00000000000E+00 0.  1.
         13   -1    0    0    0    0 -0.00000000000E+00 -0.00000000000E+00 -0.10000000000E+04  0.10000000000E+04  0.00000000000E+00 0.  1.
    9000005    2    1    2  501    0 -0.23635489159E+02 -0.20886252877E+02 -0.70177738483E+03  0.70249455086E+03  0.34963138217E+01 0.  0.
         13    1    3    3    0    0 -0.44109778038E+01 -0.51087390380E+01 -0.17582695588E+03  0.17595645584E+03  0.00000000000E+00 0.  1.
          3    1    3    3  501    0 -0.19224511355E+02 -0.15777513839E+02 -0.52595042896E+03  0.52653809501E+03  0.00000000000E+00 0.  1.
         21    1    1    2  502  501  0.23635489159E+02  0.20886252877E+02 -0.29702902709E+03  0.29869903722E+03  0.00000000000E+00 0.  1.
<mgrwt>
<rscale>  1 0.30000000E+03</rscale>
<asrwt>0</asrwt>
<pdfrwt beam="1">  1        3 0.43403294E-02 0.30000000E+03</pdfrwt>
<pdfrwt beam="2">0</pdfrwt>
<totfact> 0.12307177E+03</totfact>
</mgrwt>
</event>
<event>
 6    1  0.1956957E-002  0.3000000E+03  0.7818608E-02  0.1093470E+00
          3   -1    0    0  502    0  0.00000000000E+00  0.00000000000E+00  0.38116069839E+01  0.38116069839E+01  0.00000000000E+00 0.  1.
         13   -1    0    0    0    0 -0.00000000000E+00 -0.00000000000E+00 -0.10000000000E+04  0.10000000000E+04  0.00000000000E+00 0.  1.
    9000005    2    1    2  501    0 -0.21738073389E+02 -0.34305408881E+02 -0.87601074718E+03  0.87695707821E+03  0.30794357855E+01 0.  0.
         13    1    3    3    0    0 -0.66615277361E+00 -0.24219818877E+01 -0.53920743842E+02  0.53979221672E+02  0.00000000000E+00 0.  1.
          1    1    3    3  501    0 -0.21071920615E+02 -0.31883426993E+02 -0.82209000334E+03  0.82297785654E+03  0.00000000000E+00 0.  1.
         21    1    1    2  502  501  0.21738073389E+02  0.34305408881E+02 -0.12017764583E+03  0.12685452878E+03  0.00000000000E+00 0.  1.
<mgrwt>
<rscale>  1 0.30000000E+03</rscale>
<asrwt>0</asrwt>
<pdfrwt beam="1">  1        3 0.13860418E-01 0.30000000E+03</pdfrwt>
<pdfrwt beam="2">0</pdfrwt>
<totfact> 0.19071171E+02</totfact>
</mgrwt>
</event>
<event>
 6    1  0.1956957E-002  0.3000000E+03  0.7818608E-02  0.1093470E+00
          1   -1    0    0  502    0  0.00000000000E+00  0.00000000000E+00  0.10189101104E+01  0.10189101104E+01  0.00000000000E+00 0.  1.
         13   -1    0    0    0    0 -0.00000000000E+00 -0.00000000000E+00 -0.10000000000E+04  0.10000000000E+04  0.00000000000E+00 0.  1.
    9000005    2    1    2  501    0  0.19731929993E+02  0.22863361554E+02 -0.34167529059E+03  0.34301967291E+03  0.28999036463E+01 0.  0.
         13    1    3    3    0    0 -0.29732873143E-02  0.54293242462E+00 -0.55159523028E+01  0.55426089763E+01  0.00000000000E+00 0.  1.
          3    1    3    3  501    0  0.19734903280E+02  0.22320429129E+02 -0.33615933829E+03  0.33747706394E+03  0.00000000000E+00 0.  1.
         21    1    1    2  502  501 -0.19731929993E+02 -0.22863361554E+02 -0.65730579930E+03  0.65799923720E+03  0.00000000000E+00 0.  1.
<mgrwt>
<rscale>  1 0.30000000E+03</rscale>
<asrwt>0</asrwt>
<pdfrwt beam="1">  1        1 0.37051355E-02 0.30000000E+03</pdfrwt>
<pdfrwt beam="2">0</pdfrwt>
<totfact> 0.30328671E+03</totfact>
</mgrwt>
</event>
<event>
 6    1  0.1956957E-002  0.3000000E+03  0.7818608E-02  0.1093470E+00
          1   -1    0    0  502    0  0.00000000000E+00  0.00000000000E+00  0.77820830323E+01  0.77820830323E+01  0.00000000000E+00 0.  1.
         13   -1    0    0    0    0 -0.00000000000E+00 -0.00000000000E+00 -0.10000000000E+04  0.10000000000E+04  0.00000000000E+00 0.  1.
    9000005    2    1    2  501    0 -0.18417693637E+02 -0.68005594665E+02 -0.79922330921E+03  0.80232919070E+03  0.32031107836E+01 0.  0.
         13    1    3    3    0    0 -0.14339679856E+02 -0.48280140735E+02 -0.57964255262E+03  0.58182650955E+03  0.00000000000E+00 0.  1.
          1    1    3    3  501    0 -0.40780137804E+01 -0.19725453930E+02 -0.21958075659E+03  0.22050268115E+03  0.00000000000E+00 0.  1.
         21    1    1    2  502  501  0.18417693637E+02  0.68005594665E+02 -0.19299460776E+03  0.20545289234E+03  0.00000000000E+00 0.  1.
<mgrwt>
<rscale>  1 0.30000000E+03</rscale>
<asrwt>0</asrwt>
<pdfrwt beam="1">  1        1 0.28298543E-01 0.30000000E+03</pdfrwt>
<pdfrwt beam="2">0</pdfrwt>
<totfact> 0.18593630E+02</totfact>
</mgrwt>
</event>
<event>
 6    1  0.1956957E-002  0.3000000E+03  0.7818608E-02  0.1093470E+00
          3   -1    0    0  502    0  0.00000000000E+00  0.00000000000E+00  0.11050179356E+01  0.11050179356E+01  0.00000000000E+00 0.  1.
         13   -1    0    0    0    0 -0.00000000000E+00 -0.00000000000E+00 -0.10000000000E+04  0.10000000000E+04  0.00000000000E+00 0.  1.
    9000005    2    1    2  501    0  0.30766381545E+02 -0.12174908053E+02 -0.53457534215E+03  0.53560794315E+03  0.32052637722E+01 0.  0.
         13    1    3    3    0    0  0.67560619179E+00  0.40709091602E-01 -0.65592095065E+01  0.65940374815E+01  0.00000000000E+00 0.  1.
          1    1    3    3  501    0  0.30090775354E+02 -0.12215617145E+02 -0.52801613264E+03  0.52901390567E+03  0.00000000000E+00 0.  1.
         21    1    1    2  502  501 -0.30766381545E+02  0.12174908053E+02 -0.46431963992E+03  0.46549707478E+03  0.00000000000E+00 0.  1.
<mgrwt>
<rscale>  1 0.30000000E+03</rscale>
<asrwt>0</asrwt>
<pdfrwt beam="1">  1        3 0.40182555E-02 0.30000000E+03</pdfrwt>
<pdfrwt beam="2">0</pdfrwt>
<totfact> 0.13855408E+03</totfact>
</mgrwt>
</event>
<event>
 6    1  0.1956957E-002  0.3000000E+03  0.7818608E-02  0.1093470E+00
          3   -1    0    0  502    0  0.00000000000E+00  0.00000000000E+00  0.15852274601E+01  0.15852274601E+01  0.00000000000E+00 0.  1.
         13   -1    0    0    0    0 -0.00000000000E+00 -0.00000000000E+00 -0.10000000000E+04  0.10000000000E+04  0.00000000000E+00 0.  1.
    9000005    2    1    2  501    0  0.65477856876E+01  0.29499425574E+02 -0.82357353186E+03  0.82415200326E+03  0.63302839604E+01 0.  0.
         13    1    3    3    0    0  0.27010640551E+01  0.41570450960E+01 -0.97198843848E+02  0.97325186958E+02  0.00000000000E+00 0.  1.
          1    1    3    3  501    0  0.38467216324E+01  0.25342380478E+02 -0.72637468801E+03  0.72682681630E+03  0.00000000000E+00 0.  1.
         21    1    1    2  502  501 -0.65477856876E+01 -0.29499425574E+02 -0.17484124068E+03  0.17743322420E+03  0.00000000000E+00 0.  1.
<mgrwt>
<rscale>  1 0.30000000E+03</rscale>
<asrwt>0</asrwt>
<pdfrwt beam="1">  1        3 0.57644756E-02 0.30000000E+03</pdfrwt>
<pdfrwt beam="2">0</pdfrwt>
<totfact> 0.79373232E+02</totfact>
</mgrwt>
</event>
<event>
 6    1  0.1956957E-002  0.3000000E+03  0.7818608E-02  0.1093470E+00
          1   -1    0    0  502    0  0.00000000000E+00  0.00000000000E+00  0.11430250904E+01  0.11430250904E+01  0.00000000000E+00 0.  1.
         13   -1    0    0    0    0 -0.00000000000E+00 -0.00000000000E+00 -0.10000000000E+04  0.10000000000E+04  0.00000000000E+00 0.  1.
    9000005    2    1    2  501    0 -0.19470012940E+02 -0.27269496228E+02 -0.55842637146E+03  0.55943970465E+03  0.31723767840E+01 0.  0.
         13    1    3    3    0    0 -0.94232113297E+01 -0.15838512568E+02 -0.29965356062E+03  0.30021977247E+03  0.00000000000E+00 0.  1.
          3    1    3    3  501    0 -0.10046801611E+02 -0.11430983660E+02 -0.25877281084E+03  0.25921993218E+03  0.00000000000E+00 0.  1.
         21    1    1    2  502  501  0.19470012940E+02  0.27269496228E+02 -0.44043060345E+03  0.44170332044E+03  0.00000000000E+00 0.  1.
<mgrwt>
<rscale>  1 0.30000000E+03</rscale>
<asrwt>0</asrwt>
<pdfrwt beam="1">  1        1 0.41564636E-02 0.30000000E+03</pdfrwt>
<pdfrwt beam="2">0</pdfrwt>
<totfact> 0.25797485E+03</totfact>
</mgrwt>
</event>
<event>
 6    1  0.1956957E-002  0.3000000E+03  0.7818608E-02  0.1093470E+00
          3   -1    0    0  502    0  0.00000000000E+00  0.00000000000E+00  0.50263625621E+01  0.50263625621E+01  0.00000000000E+00 0.  1.
         13   -1    0    0    0    0 -0.00000000000E+00 -0.00000000000E+00 -0.10000000000E+04  0.10000000000E+04  0.00000000000E+00 0.  1.
    9000005    2    1    2  501    0  0.29360533497E+02 -0.19572447981E+02 -0.93329667507E+03  0.93396885533E+03  0.31650245405E+01 0.  0.
         13    1    3    3    0    0  0.30554661850E+00 -0.34901772545E+00 -0.59737116833E+01  0.59916945336E+01  0.00000000000E+00 0.  1.
          1    1    3    3  501    0  0.29054986879E+02 -0.19223430256E+02 -0.92732296339E+03  0.92797716080E+03  0.00000000000E+00 0.  1.
         21    1    1    2  502  501 -0.29360533497E+02  0.19572447981E+02 -0.61676962365E+02  0.71057507230E+02  0.00000000000E+00 0.  1.
<mgrwt>
<rscale>  1 0.30000000E+03</rscale>
<asrwt>0</asrwt>
<pdfrwt beam="1">  1        3 0.18277721E-01 0.30000000E+03</pdfrwt>
<pdfrwt beam="2">0</pdfrwt>
<totfact> 0.11755792E+02</totfact>
</mgrwt>
</event>
<event>
 6    1  0.1956957E-002  0.3000000E+03  0.7818608E-02  0.1093470E+00
          1   -1    0    0  502    0  0.00000000000E+00  0.00000000000E+00  0.26402298916E+01  0.26402298916E+01  0.00000000000E+00 0.  1.
         13   -1    0    0    0    0 -0.00000000000E+00 -0.00000000000E+00 -0.10000000000E+04  0.10000000000E+04  0.00000000000E+00 0.  1.
    9000005    2    1    2  501    0 -0.36072500099E+02 -0.20226650417E+02 -0.79584015485E+03  0.79692076561E+03  0.32881512062E+01 0.  0.
         13    1    3    3    0    0 -0.32405247036E+02 -0.18846875643E+02 -0.70462874869E+03  0.70562523923E+03  0.00000000000E+00 0.  1.
          3    1    3    3  501    0 -0.36672530623E+01 -0.13797747744E+01 -0.91211406156E+02  0.91295526377E+02  0.00000000000E+00 0.  1.
         21    1    1    2  502  501  0.36072500099E+02  0.20226650417E+02 -0.20151961526E+03  0.20571946428E+03  0.00000000000E+00 0.  1.
<mgrwt>
<rscale>  1 0.30000000E+03</rscale>
<asrwt>0</asrwt>
<pdfrwt beam="1">  1        1 0.96008562E-02 0.30000000E+03</pdfrwt>
<pdfrwt beam="2">0</pdfrwt>
<totfact> 0.79949906E+02</totfact>
</mgrwt>
</event>
<event>
 6    1  0.1956957E-002  0.3000000E+03  0.7818608E-02  0.1093470E+00
          1   -1    0    0  502    0  0.00000000000E+00  0.00000000000E+00  0.13528214805E+01  0.13528214805E+01  0.00000000000E+00 0.  1.
         13   -1    0    0    0    0 -0.00000000000E+00 -0.00000000000E+00 -0.10000000000E+04  0.10000000000E+04  0.00000000000E+00 0.  1.
    9000005    2    1    2  501    0 -0.35590899703E+02  0.53028875891E+01 -0.42238993473E+03  0.42397318573E+03  0.67210489571E+01 0.  0.
         13    1    3    3    0    0 -0.13216991415E+01  0.14542660036E+01 -0.15393255304E+02  0.15518185689E+02  0.00000000000E+00 0.  1.
          3    1    3    3  501    0 -0.34269200562E+02  0.38486215855E+01 -0.40699667943E+03  0.40845500004E+03  0.00000000000E+00 0.  1.
         21    1    1    2  502  501  0.35590899703E+02 -0.53028875891E+01 -0.57625724379E+03  0.57737963575E+03  0.00000000000E+00 0.  1.
<mgrwt>
<rscale>  1 0.30000000E+03</rscale>
<asrwt>0</asrwt>
<pdfrwt beam="1">  1        1 0.49193612E-02 0.30000000E+03</pdfrwt>
<pdfrwt beam="2">0</pdfrwt>
<totfact> 0.20351470E+03</totfact>
</mgrwt>
</event>
<event>
 6    1  0.1956957E-002  0.3000000E+03  0.7818608E-02  0.1093470E+00
          1   -1    0    0  502    0  0.00000000000E+00  0.00000000000E+00  0.33655569468E+01  0.33655569468E+01  0.00000000000E+00 0.  1.
         13   -1    0    0    0    0 -0.00000000000E+00 -0.00000000000E+00 -0.10000000000E+04  0.10000000000E+04  0.00000000000E+00 0.  1.
    9000005    2    1    2  501    0  0.33924535524E+02 -0.54347617267E+01 -0.90236864611E+03  0.90303385099E+03  0.45334113353E+01 0.  0.
         13    1    3    3    0    0  0.30115281187E+02 -0.46188007664E+01 -0.75668211044E+03  0.75729523948E+03  0.00000000000E+00 0.  1.
          3    1    3    3  501    0  0.38092543371E+01 -0.81596096038E+00 -0.14568653567E+03  0.14573861151E+03  0.00000000000E+00 0.  1.
         21    1    1    2  502  501 -0.33924535524E+02  0.54347617267E+01 -0.94265796947E+02  0.10033170595E+03  0.00000000000E+00 0.  1.
<mgrwt>
<rscale>  1 0.30000000E+03</rscale>
<asrwt>0</asrwt>
<pdfrwt beam="1">  1        1 0.12238415E-01 0.30000000E+03</pdfrwt>
<pdfrwt beam="2">0</pdfrwt>
<totfact> 0.57252583E+02</totfact>
</mgrwt>
</event>
<event>
 6    1  0.1956957E-002  0.3000000E+03  0.7818608E-02  0.1093470E+00
          1   -1    0    0  502    0  0.00000000000E+00  0.00000000000E+00  0.40416636609E+01  0.40416636609E+01  0.00000000000E+00 0.  1.
         13   -1    0    0    0    0 -0.00000000000E+00 -0.00000000000E+00 -0.10000000000E+04  0.10000000000E+04  0.00000000000E+00 0.  1.
    9000005    2    1    2  501    0  0.43499361847E+02 -0.23602500536E+02 -0.81296881597E+03  0.81447785626E+03  0.25710076208E+01 0.  0.
         13    1    3    3    0    0  0.30996390447E+02 -0.15524108205E+02 -0.56367382076E+03  0.56473883377E+03  0.00000000000E+00 0.  1.
          1    1    3    3  501    0  0.12502971400E+02 -0.80783923309E+01 -0.24929499521E+03  0.24973902249E+03  0.00000000000E+00 0.  1.
         21    1    1    2  502  501 -0.43499361847E+02  0.23602500536E+02 -0.18298952037E+03  0.18956380740E+03  0.00000000000E+00 0.  1.
<mgrwt>
<rscale>  1 0.30000000E+03</rscale>
<asrwt>0</asrwt>
<pdfrwt beam="1">  1        1 0.14696990E-01 0.30000000E+03</pdfrwt>
<pdfrwt beam="2">0</pdfrwt>
<totfact> 0.44599601E+02</totfact>
</mgrwt>
</event>
<event>
 6    1  0.1956957E-002  0.3000000E+03  0.7818608E-02  0.1093470E+00
          1   -1    0    0  502    0  0.00000000000E+00  0.00000000000E+00  0.44296352202E+01  0.44296352202E+01  0.00000000000E+00 0.  1.
         13   -1    0    0    0    0 -0.00000000000E+00 -0.00000000000E+00 -0.10000000000E+04  0.10000000000E+04  0.00000000000E+00 0.  1.
    9000005    2    1    2  501    0 -0.53921386417E+02  0.27842258164E+02 -0.70353176202E+03  0.70615249437E+03  0.34202162557E+01 0.  0.
         13    1    3    3    0    0 -0.32227622611E+02  0.18508618461E+02 -0.42836985927E+03  0.42997898198E+03  0.00000000000E+00 0.  1.
          1    1    3    3  501    0 -0.21693763806E+02  0.93336397032E+01 -0.27516190275E+03  0.27617351239E+03  0.00000000000E+00 0.  1.
         21    1    1    2  502  501  0.53921386417E+02 -0.27842258164E+02 -0.29203860276E+03  0.29827714085E+03  0.00000000000E+00 0.  1.
<mgrwt>
<rscale>  1 0.30000000E+03</rscale>
<asrwt>0</asrwt>
<pdfrwt beam="1">  1        1 0.16107798E-01 0.30000000E+03</pdfrwt>
<pdfrwt beam="2">0</pdfrwt>
<totfact> 0.39386830E+02</totfact>
</mgrwt>
</event>
<event>
 6    1  0.1956957E-002  0.3000000E+03  0.7818608E-02  0.1093470E+00
          3   -1    0    0  502    0  0.00000000000E+00  0.00000000000E+00  0.11013857285E+01  0.11013857285E+01  0.00000000000E+00 0.  1.
         13   -1    0    0    0    0 -0.00000000000E+00 -0.00000000000E+00 -0.10000000000E+04  0.10000000000E+04  0.00000000000E+00 0.  1.
    9000005    2    1    2  501    0 -0.49441381505E+01  0.32437213875E+02 -0.43504878226E+03  0.43629765840E+03  0.34038849130E+01 0.  0.
         13    1    3    3    0    0 -0.26428316902E+01  0.11877719361E+02 -0.14274533899E+03  0.14326303284E+03  0.00000000000E+00 0.  1.
          1    1    3    3  501    0 -0.23013064602E+01  0.20559494514E+02 -0.29230344328E+03  0.29303462556E+03  0.00000000000E+00 0.  1.
         21    1    1    2  502  501  0.49441381505E+01 -0.32437213875E+02 -0.56384983201E+03  0.56480372732E+03  0.00000000000E+00 0.  1.
<mgrwt>
<rscale>  1 0.30000000E+03</rscale>
<asrwt>0</asrwt>
<pdfrwt beam="1">  1        3 0.40050475E-02 0.30000000E+03</pdfrwt>
<pdfrwt beam="2">0</pdfrwt>
<totfact> 0.13925656E+03</totfact>
</mgrwt>
</event>
<event>
 6    1  0.1956957E-002  0.3000000E+03  0.7818608E-02  0.1093470E+00
          1   -1    0    0  502    0  0.00000000000E+00  0.00000000000E+00  0.18760003460E+01  0.18760003460E+01  0.00000000000E+00 0.  1.
         13   -1    0    0    0    0 -0.00000000000E+00 -0.00000000000E+00 -0.10000000000E+04  0.10000000000E+04  0.00000000000E+00 0.  1.
    9000005    2    1    2  501    0  0.19972487648E+01 -0.32857841895E+02 -0.82423580126E+03  0.82489935692E+03  0.32659143171E+01 0.  0.
         13    1    3    3    0    0  0.23483830682E+01 -0.16588002499E+02 -0.39473622604E+03  0.39509159049E+03  0.00000000000E+00 0.  1.
          1    1    3    3  501    0 -0.35113430338E+00 -0.16269839396E+02 -0.42949957522E+03  0.42980776643E+03  0.00000000000E+00 0.  1.
         21    1    1    2  502  501 -0.19972487648E+01  0.32857841895E+02 -0.17388819840E+03  0.17697664342E+03  0.00000000000E+00 0.  1.
<mgrwt>
<rscale>  1 0.30000000E+03</rscale>
<asrwt>0</asrwt>
<pdfrwt beam="1">  1        1 0.68218338E-02 0.30000000E+03</pdfrwt>
<pdfrwt beam="2">0</pdfrwt>
<totfact> 0.12863743E+03</totfact>
</mgrwt>
</event>
<event>
 6    1  0.1956957E-002  0.3000000E+03  0.7818608E-02  0.1093470E+00
          1   -1    0    0  502    0  0.00000000000E+00  0.00000000000E+00  0.11297571381E+01  0.11297571381E+01  0.00000000000E+00 0.  1.
         13   -1    0    0    0    0 -0.00000000000E+00 -0.00000000000E+00 -0.10000000000E+04  0.10000000000E+04  0.00000000000E+00 0.  1.
    9000005    2    1    2  501    0 -0.28732362623E+02  0.16834807515E+02 -0.55948500592E+03  0.56048438288E+03  0.32112623070E+01 0.  0.
         13    1    3    3    0    0 -0.20879375444E+02  0.12811078737E+02 -0.43250726179E+03  0.43320041962E+03  0.00000000000E+00 0.  1.
          1    1    3    3  501    0 -0.78529871787E+01  0.40237287780E+01 -0.12697774412E+03  0.12728396326E+03  0.00000000000E+00 0.  1.
         21    1    1    2  502  501  0.28732362623E+02 -0.16834807515E+02 -0.43938523695E+03  0.44064537425E+03  0.00000000000E+00 0.  1.
<mgrwt>
<rscale>  1 0.30000000E+03</rscale>
<asrwt>0</asrwt>
<pdfrwt beam="1">  1        1 0.41082164E-02 0.30000000E+03</pdfrwt>
<pdfrwt beam="2">0</pdfrwt>
<totfact> 0.26225083E+03</totfact>
</mgrwt>
</event>
<event>
 6    1  0.1956957E-002  0.3000000E+03  0.7818608E-02  0.1093470E+00
          1   -1    0    0  502    0  0.00000000000E+00  0.00000000000E+00  0.15348833638E+01  0.15348833638E+01  0.00000000000E+00 0.  1.
         13   -1    0    0    0    0 -0.00000000000E+00 -0.00000000000E+00 -0.10000000000E+04  0.10000000000E+04  0.00000000000E+00 0.  1.
    9000005    2    1    2  501    0 -0.21770697088E+02 -0.29414796238E+02 -0.65784937871E+03  0.65895894373E+03  0.11040424354E+02 0.  0.
         13    1    3    3    0    0 -0.14647041411E+02 -0.26970103872E+02 -0.52558045080E+03  0.52647576638E+03  0.00000000000E+00 0.  1.
          1    1    3    3  501    0 -0.71236556770E+01 -0.24446923662E+01 -0.13226892791E+03  0.13248317736E+03  0.00000000000E+00 0.  1.
         21    1    1    2  502  501  0.21770697088E+02  0.29414796238E+02 -0.34061573793E+03  0.34257593963E+03  0.00000000000E+00 0.  1.
<mgrwt>
<rscale>  1 0.30000000E+03</rscale>
<asrwt>0</asrwt>
<pdfrwt beam="1">  1        1 0.55814058E-02 0.30000000E+03</pdfrwt>
<pdfrwt beam="2">0</pdfrwt>
<totfact> 0.17043527E+03</totfact>
</mgrwt>
</event>
<event>
 6    1  0.1956957E-002  0.3000000E+03  0.7818608E-02  0.1093470E+00
          1   -1    0    0  502    0  0.00000000000E+00  0.00000000000E+00  0.19145303057E+01  0.19145303057E+01  0.00000000000E+00 0.  1.
         13   -1    0    0    0    0 -0.00000000000E+00 -0.00000000000E+00 -0.10000000000E+04  0.10000000000E+04  0.00000000000E+00 0.  1.
    9000005    2    1    2  501    0  0.23948666494E+02  0.31920336948E+02 -0.70350282455E+03  0.70464128671E+03  0.32668407906E+01 0.  0.
         13    1    3    3    0    0  0.17021919949E+02  0.23186485342E+02 -0.53129392747E+03  0.53207198406E+03  0.00000000000E+00 0.  1.
          3    1    3    3  501    0  0.69267465448E+01  0.87338516061E+01 -0.17220889708E+03  0.17256930265E+03  0.00000000000E+00 0.  1.
         21    1    1    2  502  501 -0.23948666494E+02 -0.31920336948E+02 -0.29458264515E+03  0.29727324360E+03  0.00000000000E+00 0.  1.
<mgrwt>
<rscale>  1 0.30000000E+03</rscale>
<asrwt>0</asrwt>
<pdfrwt beam="1">  1        1 0.69619431E-02 0.30000000E+03</pdfrwt>
<pdfrwt beam="2">0</pdfrwt>
<totfact> 0.12503068E+03</totfact>
</mgrwt>
</event>
<event>
 6    1  0.1956957E-002  0.3000000E+03  0.7818608E-02  0.1093470E+00
          1   -1    0    0  502    0  0.00000000000E+00  0.00000000000E+00  0.19387109450E+01  0.19387109450E+01  0.00000000000E+00 0.  1.
         13   -1    0    0    0    0 -0.00000000000E+00 -0.00000000000E+00 -0.10000000000E+04  0.10000000000E+04  0.00000000000E+00 0.  1.
    9000005    2    1    2  501    0 -0.34275651320E+02  0.60670429943E+01 -0.80511680803E+03  0.80587953100E+03  0.41369823007E+01 0.  0.
         13    1    3    3    0    0 -0.14613217027E+02  0.24224169175E+01 -0.39031418609E+03  0.39059515880E+03  0.00000000000E+00 0.  1.
          3    1    3    3  501    0 -0.19662434293E+02  0.36446260768E+01 -0.41480262195E+03  0.41528437220E+03  0.00000000000E+00 0.  1.
         21    1    1    2  502  501  0.34275651320E+02 -0.60670429943E+01 -0.19294448102E+03  0.19605917995E+03  0.00000000000E+00 0.  1.
<mgrwt>
<rscale>  1 0.30000000E+03</rscale>
<asrwt>0</asrwt>
<pdfrwt beam="1">  1        1 0.70498728E-02 0.30000000E+03</pdfrwt>
<pdfrwt beam="2">0</pdfrwt>
<totfact> 0.12285555E+03</totfact>
</mgrwt>
</event>
<event>
 6    1  0.1956957E-002  0.3000000E+03  0.7818608E-02  0.1093470E+00
          3   -1    0    0  502    0  0.00000000000E+00  0.00000000000E+00  0.17062189603E+01  0.17062189603E+01  0.00000000000E+00 0.  1.
         13   -1    0    0    0    0 -0.00000000000E+00 -0.00000000000E+00 -0.10000000000E+04  0.10000000000E+04  0.00000000000E+00 0.  1.
    9000005    2    1    2  501    0 -0.40885198491E+02 -0.34303358871E+00 -0.53812939159E+03  0.53972896579E+03  0.72385975036E+01 0.  0.
         13    1    3    3    0    0 -0.26238221219E+01 -0.18120362087E+01 -0.48502041110E+02  0.48606747573E+02  0.00000000000E+00 0.  1.
          1    1    3    3  501    0 -0.38261376369E+02  0.14690026200E+01 -0.48962735048E+03  0.49112221822E+03  0.00000000000E+00 0.  1.
         21    1    1    2  502  501  0.40885198491E+02  0.34303358871E+00 -0.46016438945E+03  0.46197725317E+03  0.00000000000E+00 0.  1.
<mgrwt>
<rscale>  1 0.30000000E+03</rscale>
<asrwt>0</asrwt>
<pdfrwt beam="1">  1        3 0.62044457E-02 0.30000000E+03</pdfrwt>
<pdfrwt beam="2">0</pdfrwt>
<totfact> 0.70771262E+02</totfact>
</mgrwt>
</event>
<event>
 6    1  0.1956957E-002  0.3000000E+03  0.7818608E-02  0.1093470E+00
          1   -1    0    0  502    0  0.00000000000E+00  0.00000000000E+00  0.16165230336E+01  0.16165230336E+01  0.00000000000E+00 0.  1.
         13   -1    0    0    0    0 -0.00000000000E+00 -0.00000000000E+00 -0.10000000000E+04  0.10000000000E+04  0.00000000000E+00 0.  1.
    9000005    2    1    2  501    0 -0.32121536445E+02  0.18705305787E+02 -0.68868970176E+03  0.68970000220E+03  0.33024467050E+01 0.  0.
         13    1    3    3    0    0 -0.16247512379E+02  0.10911403639E+02 -0.38154557667E+03  0.38204720581E+03  0.00000000000E+00 0.  1.
          3    1    3    3  501    0 -0.15874024066E+02  0.77939021482E+01 -0.30714412509E+03  0.30765279640E+03  0.00000000000E+00 0.  1.
         21    1    1    2  502  501  0.32121536445E+02 -0.18705305787E+02 -0.30969377520E+03  0.31191652083E+03  0.00000000000E+00 0.  1.
<mgrwt>
<rscale>  1 0.30000000E+03</rscale>
<asrwt>0</asrwt>
<pdfrwt beam="1">  1        1 0.58782780E-02 0.30000000E+03</pdfrwt>
<pdfrwt beam="2">0</pdfrwt>
<totfact> 0.15847700E+03</totfact>
</mgrwt>
</event>
<event>
 6    1  0.1956957E-002  0.3000000E+03  0.7818608E-02  0.1093470E+00
          1   -1    0    0  502    0  0.00000000000E+00  0.00000000000E+00  0.21442896487E+02  0.21442896487E+02  0.00000000000E+00 0.  1.
         13   -1    0    0    0    0 -0.00000000000E+00 -0.00000000000E+00 -0.10000000000E+04  0.10000000000E+04  0.00000000000E+00 0.  1.
    9000005    2    1    2  501    0 -0.47453274806E+02  0.18755246567E+02 -0.96798422573E+03  0.96933379643E+03  0.33128673578E+01 0.  0.
         13    1    3    3    0    0 -0.47205106820E+02  0.18328290510E+02 -0.95825335744E+03  0.95959040501E+03  0.00000000000E+00 0.  1.
          3    1    3    3  501    0 -0.24816798554E+00  0.42695605733E+00 -0.97308682879E+01  0.97433914250E+01  0.00000000000E+00 0.  1.
         21    1    1    2  502  501  0.47453274806E+02 -0.18755246567E+02 -0.10572877785E+02  0.52109100052E+02  0.00000000000E+00 0.  1.
<mgrwt>
<rscale>  1 0.30000000E+03</rscale>
<asrwt>0</asrwt>
<pdfrwt beam="1">  1        1 0.77974333E-01 0.30000000E+03</pdfrwt>
<pdfrwt beam="2">0</pdfrwt>
<totfact> 0.48657308E+01</totfact>
</mgrwt>
</event>
<event>
 6    1  0.1956957E-002  0.3000000E+03  0.7818608E-02  0.1093470E+00
          1   -1    0    0  502    0  0.00000000000E+00  0.00000000000E+00  0.42671678230E+01  0.42671678230E+01  0.00000000000E+00 0.  1.
         13   -1    0    0    0    0 -0.00000000000E+00 -0.00000000000E+00 -0.10000000000E+04  0.10000000000E+04  0.00000000000E+00 0.  1.
    9000005    2    1    2  501    0 -0.19387553224E+02  0.55685370005E+02 -0.71354624438E+03  0.71598604117E+03  0.33212387587E+01 0.  0.
         13    1    3    3    0    0 -0.14961073484E+02  0.45834928853E+02 -0.59322672502E+03  0.59518284729E+03  0.00000000000E+00 0.  1.
          3    1    3    3  501    0 -0.44264797404E+01  0.98504411519E+01 -0.12031951936E+03  0.12080319388E+03  0.00000000000E+00 0.  1.
         21    1    1    2  502  501  0.19387553224E+02 -0.55685370005E+02 -0.28218658780E+03  0.28828112665E+03  0.00000000000E+00 0.  1.
<mgrwt>
<rscale>  1 0.30000000E+03</rscale>
<asrwt>0</asrwt>
<pdfrwt beam="1">  1        1 0.15517007E-01 0.30000000E+03</pdfrwt>
<pdfrwt beam="2">0</pdfrwt>
<totfact> 0.41431422E+02</totfact>
</mgrwt>
</event>
<event>
 6    1  0.1956957E-002  0.3000000E+03  0.7818608E-02  0.1093470E+00
          3   -1    0    0  502    0  0.00000000000E+00  0.00000000000E+00  0.57815861626E+01  0.57815861626E+01  0.00000000000E+00 0.  1.
         13   -1    0    0    0    0 -0.00000000000E+00 -0.00000000000E+00 -0.10000000000E+04  0.10000000000E+04  0.00000000000E+00 0.  1.
    9000005    2    1    2  501    0  0.42938119715E+02  0.13669210600E+02 -0.90210784021E+03  0.90323946205E+03  0.35271798531E+01 0.  0.
         13    1    3    3    0    0  0.22461361633E+02  0.89565217727E+01 -0.48997161941E+03  0.49056795643E+03  0.00000000000E+00 0.  1.
          1    1    3    3  501    0  0.20476758083E+02  0.47126888272E+01 -0.41213622079E+03  0.41267150561E+03  0.00000000000E+00 0.  1.
         21    1    1    2  502  501 -0.42938119715E+02 -0.13669210600E+02 -0.92110573631E+02  0.10254212411E+03  0.00000000000E+00 0.  1.
<mgrwt>
<rscale>  1 0.30000000E+03</rscale>
<asrwt>0</asrwt>
<pdfrwt beam="1">  1        3 0.21023994E-01 0.30000000E+03</pdfrwt>
<pdfrwt beam="2">0</pdfrwt>
<totfact> 0.91227750E+01</totfact>
</mgrwt>
</event>
<event>
 6    1  0.1956957E-002  0.3000000E+03  0.7818608E-02  0.1093470E+00
          1   -1    0    0  502    0  0.00000000000E+00  0.00000000000E+00  0.22715430750E+01  0.22715430750E+01  0.00000000000E+00 0.  1.
         13   -1    0    0    0    0 -0.00000000000E+00 -0.00000000000E+00 -0.10000000000E+04  0.10000000000E+04  0.00000000000E+00 0.  1.
    9000005    2    1    2  501    0  0.72793933240E+01  0.30280090970E+02 -0.87804759215E+03  0.87860512536E+03  0.30852485245E+01 0.  0.
         13    1    3    3    0    0  0.40296978591E+01  0.18024719795E+02 -0.47813207978E+03  0.47848867772E+03  0.00000000000E+00 0.  1.
          3    1    3    3  501    0  0.32496954649E+01  0.12255371175E+02 -0.39991551237E+03  0.40011644764E+03  0.00000000000E+00 0.  1.
         21    1    1    2  502  501 -0.72793933240E+01 -0.30280090970E+02 -0.11968086478E+03  0.12366641771E+03  0.00000000000E+00 0.  1.
<mgrwt>
<rscale>  1 0.30000000E+03</rscale>
<asrwt>0</asrwt>
<pdfrwt beam="1">  1        1 0.82601741E-02 0.30000000E+03</pdfrwt>
<pdfrwt beam="2">0</pdfrwt>
<totfact> 0.98498420E+02</totfact>
</mgrwt>
</event>
<event>
 6    1  0.1956957E-002  0.3000000E+03  0.7818608E-02  0.1093470E+00
          1   -1    0    0  502    0  0.00000000000E+00  0.00000000000E+00  0.99794058217E+00  0.99794058217E+00  0.00000000000E+00 0.  1.
         13   -1    0    0    0    0 -0.00000000000E+00 -0.00000000000E+00 -0.10000000000E+04  0.10000000000E+04  0.00000000000E+00 0.  1.
    9000005    2    1    2  501    0 -0.23829022668E+02  0.18858775047E+02 -0.38923499887E+03  0.39047411316E+03  0.65324564606E+01 0.  0.
         13    1    3    3    0    0 -0.10569872235E+02  0.12337591807E+02 -0.19161987988E+03  0.19230734967E+03  0.00000000000E+00 0.  1.
          1    1    3    3  501    0 -0.13259150433E+02  0.65211832398E+01 -0.19761511899E+03  0.19816676349E+03  0.00000000000E+00 0.  1.
         21    1    1    2  502  501  0.23829022668E+02 -0.18858775047E+02 -0.60976706055E+03  0.61052382742E+03  0.00000000000E+00 0.  1.
<mgrwt>
<rscale>  1 0.30000000E+03</rscale>
<asrwt>0</asrwt>
<pdfrwt beam="1">  1        1 0.36288825E-02 0.30000000E+03</pdfrwt>
<pdfrwt beam="2">0</pdfrwt>
<totfact> 0.31229226E+03</totfact>
</mgrwt>
</event>
<event>
 6    1  0.1956957E-002  0.3000000E+03  0.7818608E-02  0.1093470E+00
          1   -1    0    0  502    0  0.00000000000E+00  0.00000000000E+00  0.22252207479E+01  0.22252207479E+01  0.00000000000E+00 0.  1.
         13   -1    0    0    0    0 -0.00000000000E+00 -0.00000000000E+00 -0.10000000000E+04  0.10000000000E+04  0.00000000000E+00 0.  1.
    9000005    2    1    2  501    0  0.41469400360E+02  0.15167930488E+02 -0.32780977879E+03  0.33080666342E+03  0.49010417748E+01 0.  0.
         13    1    3    3    0    0  0.24216498232E+02  0.10277638259E+02 -0.17975631089E+03  0.18167113128E+03  0.00000000000E+00 0.  1.
          1    1    3    3  501    0  0.17252902128E+02  0.48902922288E+01 -0.14805346790E+03  0.14913553214E+03  0.00000000000E+00 0.  1.
         21    1    1    2  502  501 -0.41469400360E+02 -0.15167930488E+02 -0.66996500046E+03  0.67141855733E+03  0.00000000000E+00 0.  1.
<mgrwt>
<rscale>  1 0.30000000E+03</rscale>
<asrwt>0</asrwt>
<pdfrwt beam="1">  1        1 0.80917289E-02 0.30000000E+03</pdfrwt>
<pdfrwt beam="2">0</pdfrwt>
<totfact> 0.10136264E+03</totfact>
</mgrwt>
</event>
<event>
 6    1  0.1956957E-002  0.3000000E+03  0.7818608E-02  0.1093470E+00
          3   -1    0    0  502    0  0.00000000000E+00  0.00000000000E+00  0.38401801844E+01  0.38401801844E+01  0.00000000000E+00 0.  1.
         13   -1    0    0    0    0 -0.00000000000E+00 -0.00000000000E+00 -0.10000000000E+04  0.10000000000E+04  0.00000000000E+00 0.  1.
    9000005    2    1    2  501    0 -0.48082467867E+02  0.38913094397E+02 -0.49363441912E+03  0.49752216650E+03  0.52166840423E+01 0.  0.
         13    1    3    3    0    0 -0.84464574832E+01  0.57114271990E+01 -0.96107430045E+02  0.96646785537E+02  0.00000000000E+00 0.  1.
          3    1    3    3  501    0 -0.39636010384E+02  0.33201667198E+02 -0.39752698907E+03  0.40087538096E+03  0.00000000000E+00 0.  1.
         21    1    1    2  502  501  0.48082467867E+02 -0.38913094397E+02 -0.50252540070E+03  0.50631801368E+03  0.00000000000E+00 0.  1.
<mgrwt>
<rscale>  1 0.30000000E+03</rscale>
<asrwt>0</asrwt>
<pdfrwt beam="1">  1        3 0.13964321E-01 0.30000000E+03</pdfrwt>
<pdfrwt beam="2">0</pdfrwt>
<totfact> 0.18828598E+02</totfact>
</mgrwt>
</event>
<event>
 6    1  0.1956957E-002  0.3000000E+03  0.7818608E-02  0.1093470E+00
          3   -1    0    0  502    0  0.00000000000E+00  0.00000000000E+00  0.11393959304E+01  0.11393959304E+01  0.00000000000E+00 0.  1.
         13   -1    0    0    0    0 -0.00000000000E+00 -0.00000000000E+00 -0.10000000000E+04  0.10000000000E+04  0.00000000000E+00 0.  1.
    9000005    2    1    2  501    0  0.51528470577E+01  0.29765429624E+02 -0.72150148721E+03  0.72214009066E+03  0.30629831728E+01 0.  0.
         13    1    3    3    0    0  0.19450124594E+01  0.46401546790E+01 -0.11615552337E+03  0.11626443876E+03  0.00000000000E+00 0.  1.
          1    1    3    3  501    0  0.32078345982E+01  0.25125274945E+02 -0.60534596383E+03  0.60587565191E+03  0.00000000000E+00 0.  1.
         21    1    1    2  502  501 -0.51528470577E+01 -0.29765429624E+02 -0.27735911686E+03  0.27899930527E+03  0.00000000000E+00 0.  1.
<mgrwt>
<rscale>  1 0.30000000E+03</rscale>
<asrwt>0</asrwt>
<pdfrwt beam="1">  1        3 0.41432667E-02 0.30000000E+03</pdfrwt>
<pdfrwt beam="2">0</pdfrwt>
<totfact> 0.13218472E+03</totfact>
</mgrwt>
</event>
<event>
 6    1  0.1956957E-002  0.3000000E+03  0.7818608E-02  0.1093470E+00
          1   -1    0    0  502    0  0.00000000000E+00  0.00000000000E+00  0.29644240283E+01  0.29644240283E+01  0.00000000000E+00 0.  1.
         13   -1    0    0    0    0 -0.00000000000E+00 -0.00000000000E+00 -0.10000000000E+04  0.10000000000E+04  0.00000000000E+00 0.  1.
    9000005    2    1    2  501    0  0.43051695106E+02  0.70709170397E+01 -0.79827537165E+03  0.79947224939E+03  0.29769503418E+01 0.  0.
         13    1    3    3    0    0  0.41005144842E+02  0.69473714430E+01 -0.77024066680E+03  0.77136267259E+03  0.00000000000E+00 0.  1.
          1    1    3    3  501    0  0.20465502647E+01  0.12354559665E+00 -0.28034704856E+02  0.28109576799E+02  0.00000000000E+00 0.  1.
         21    1    1    2  502  501 -0.43051695106E+02 -0.70709170397E+01 -0.19876020432E+03  0.20349217464E+03  0.00000000000E+00 0.  1.
<mgrwt>
<rscale>  1 0.30000000E+03</rscale>
<asrwt>0</asrwt>
<pdfrwt beam="1">  1        1 0.10779746E-01 0.30000000E+03</pdfrwt>
<pdfrwt beam="2">0</pdfrwt>
<totfact> 0.68146239E+02</totfact>
</mgrwt>
</event>
<event>
 6    1  0.1956957E-002  0.3000000E+03  0.7818608E-02  0.1093470E+00
          3   -1    0    0  502    0  0.00000000000E+00  0.00000000000E+00  0.27072082344E+01  0.27072082344E+01  0.00000000000E+00 0.  1.
         13   -1    0    0    0    0 -0.00000000000E+00 -0.00000000000E+00 -0.10000000000E+04  0.10000000000E+04  0.00000000000E+00 0.  1.
    9000005    2    1    2  501    0 -0.29991571539E+02 -0.12621097075E+02 -0.88965888573E+03  0.89026235871E+03  0.39176438642E+01 0.  0.
         13    1    3    3    0    0 -0.50836081740E+01 -0.33504937857E+01 -0.19588257160E+03  0.19597716892E+03  0.00000000000E+00 0.  1.
          1    1    3    3  501    0 -0.24907963365E+02 -0.92706032892E+01 -0.69377631412E+03  0.69428518979E+03  0.00000000000E+00 0.  1.
         21    1    1    2  502  501  0.29991571539E+02  0.12621097075E+02 -0.10763390604E+03  0.11244484952E+03  0.00000000000E+00 0.  1.
<mgrwt>
<rscale>  1 0.30000000E+03</rscale>
<asrwt>0</asrwt>
<pdfrwt beam="1">  1        3 0.98444143E-02 0.30000000E+03</pdfrwt>
<pdfrwt beam="2">0</pdfrwt>
<totfact> 0.33886968E+02</totfact>
</mgrwt>
</event>
<event>
 6    1  0.1956957E-002  0.3000000E+03  0.7818608E-02  0.1093470E+00
          1   -1    0    0  502    0  0.00000000000E+00  0.00000000000E+00  0.44109294195E+01  0.44109294195E+01  0.00000000000E+00 0.  1.
         13   -1    0    0    0    0 -0.00000000000E+00 -0.00000000000E+00 -0.10000000000E+04  0.10000000000E+04  0.00000000000E+00 0.  1.
    9000005    2    1    2  501    0  0.77424185836E+01 -0.52684148135E+02 -0.79557610217E+03  0.79743085299E+03  0.10911756557E+02 0.  0.
         13    1    3    3    0    0 -0.38019206689E+00 -0.13640172988E+02 -0.14790440267E+03  0.14853252571E+03  0.00000000000E+00 0.  1.
          1    1    3    3  501    0  0.81226106505E+01 -0.39043975146E+02 -0.64767169951E+03  0.64889832728E+03  0.00000000000E+00 0.  1.
         21    1    1    2  502  501 -0.77424185836E+01  0.52684148135E+02 -0.20001296841E+03  0.20698007643E+03  0.00000000000E+00 0.  1.
<mgrwt>
<rscale>  1 0.30000000E+03</rscale>
<asrwt>0</asrwt>
<pdfrwt beam="1">  1        1 0.16039777E-01 0.30000000E+03</pdfrwt>
<pdfrwt beam="2">0</pdfrwt>
<totfact> 0.39612990E+02</totfact>
</mgrwt>
</event>
<event>
 6    1  0.1956957E-002  0.3000000E+03  0.7818608E-02  0.1093470E+00
          3   -1    0    0  502    0  0.00000000000E+00  0.00000000000E+00  0.10118061651E+01  0.10118061651E+01  0.00000000000E+00 0.  1.
         13   -1    0    0    0    0 -0.00000000000E+00 -0.00000000000E+00 -0.10000000000E+04  0.10000000000E+04  0.00000000000E+00 0.  1.
    9000005    2    1    2  501    0  0.30321420789E+02  0.70143683530E+01 -0.40277734964E+03  0.40398922648E+03  0.30185765312E+01 0.  0.
         13    1    3    3    0    0  0.11247188794E+02  0.25112282567E+01 -0.16842986480E+03  0.16882365024E+03  0.00000000000E+00 0.  1.
          3    1    3    3  501    0  0.19074231994E+02  0.45031400962E+01 -0.23434748484E+03  0.23516557623E+03  0.00000000000E+00 0.  1.
         21    1    1    2  502  501 -0.30321420789E+02 -0.70143683530E+01 -0.59621084420E+03  0.59702257969E+03  0.00000000000E+00 0.  1.
<mgrwt>
<rscale>  1 0.30000000E+03</rscale>
<asrwt>0</asrwt>
<pdfrwt beam="1">  1        3 0.36793029E-02 0.30000000E+03</pdfrwt>
<pdfrwt beam="2">0</pdfrwt>
<totfact> 0.15866090E+03</totfact>
</mgrwt>
</event>
<event>
 6    1  0.1956957E-002  0.3000000E+03  0.7818608E-02  0.1093470E+00
          3   -1    0    0  502    0  0.00000000000E+00  0.00000000000E+00  0.11686190799E+01  0.11686190799E+01  0.00000000000E+00 0.  1.
         13   -1    0    0    0    0 -0.00000000000E+00 -0.00000000000E+00 -0.10000000000E+04  0.10000000000E+04  0.00000000000E+00 0.  1.
    9000005    2    1    2  501    0  0.33078877438E+02 -0.41483728372E+01 -0.39630397836E+03  0.39771962209E+03  0.35543499291E+01 0.  0.
         13    1    3    3    0    0  0.14741476063E+02 -0.16586811638E+00 -0.16763639028E+03  0.16828338592E+03  0.00000000000E+00 0.  1.
          3    1    3    3  501    0  0.18337401375E+02 -0.39825047209E+01 -0.22866758807E+03  0.22943623617E+03  0.00000000000E+00 0.  1.
         21    1    1    2  502  501 -0.33078877438E+02  0.41483728372E+01 -0.60252740256E+03  0.60344899699E+03  0.00000000000E+00 0.  1.
<mgrwt>
<rscale>  1 0.30000000E+03</rscale>
<asrwt>0</asrwt>
<pdfrwt beam="1">  1        3 0.42495329E-02 0.30000000E+03</pdfrwt>
<pdfrwt beam="2">0</pdfrwt>
<totfact> 0.12713924E+03</totfact>
</mgrwt>
</event>
<event>
 6    1  0.1956957E-002  0.3000000E+03  0.7818608E-02  0.1093470E+00
          1   -1    0    0  502    0  0.00000000000E+00  0.00000000000E+00  0.55349078930E+01  0.55349078930E+01  0.00000000000E+00 0.  1.
         13   -1    0    0    0    0 -0.00000000000E+00 -0.00000000000E+00 -0.10000000000E+04  0.10000000000E+04  0.00000000000E+00 0.  1.
    9000005    2    1    2  501    0 -0.63240869202E+02  0.37853887260E+02 -0.56387450660E+03  0.56868187008E+03  0.35051173597E+01 0.  0.
         13    1    3    3    0    0 -0.42051958792E+02  0.23239752446E+02 -0.36879280410E+03  0.37190937833E+03  0.00000000000E+00 0.  1.
          3    1    3    3  501    0 -0.21188910410E+02  0.14614134814E+02 -0.19508170249E+03  0.19677249175E+03  0.00000000000E+00 0.  1.
         21    1    1    2  502  501  0.63240869202E+02 -0.37853887260E+02 -0.43059058551E+03  0.43685303782E+03  0.00000000000E+00 0.  1.
<mgrwt>
<rscale>  1 0.30000000E+03</rscale>
<asrwt>0</asrwt>
<pdfrwt beam="1">  1        1 0.20126980E-01 0.30000000E+03</pdfrwt>
<pdfrwt beam="2">0</pdfrwt>
<totfact> 0.29193501E+02</totfact>
</mgrwt>
</event>
<event>
 6    1  0.1956957E-002  0.3000000E+03  0.7818608E-02  0.1093470E+00
          1   -1    0    0  502    0  0.00000000000E+00  0.00000000000E+00  0.27297159847E+01  0.27297159847E+01  0.00000000000E+00 0.  1.
         13   -1    0    0    0    0 -0.00000000000E+00 -0.00000000000E+00 -0.10000000000E+04  0.10000000000E+04  0.00000000000E+00 0.  1.
    9000005    2    1    2  501    0 -0.42969339880E+02  0.86251173090E+01 -0.77114956000E+03  0.77240095389E+03  0.32913318671E+01 0.  0.
         13    1    3    3    0    0 -0.38264020843E+02  0.71832271961E+01 -0.69947368128E+03  0.70055632525E+03  0.00000000000E+00 0.  1.
          1    1    3    3  501    0 -0.47053190375E+01  0.14418901129E+01 -0.71675878715E+02  0.71844628636E+02  0.00000000000E+00 0.  1.
         21    1    1    2  502  501  0.42969339880E+02 -0.86251173090E+01 -0.22612072402E+03  0.23032876210E+03  0.00000000000E+00 0.  1.
<mgrwt>
<rscale>  1 0.30000000E+03</rscale>
<asrwt>0</asrwt>
<pdfrwt beam="1">  1        1 0.99262609E-02 0.30000000E+03</pdfrwt>
<pdfrwt beam="2">0</pdfrwt>
<totfact> 0.76349881E+02</totfact>
</mgrwt>
</event>
<event>
 6    1  0.1956957E-002  0.3000000E+03  0.7818608E-02  0.1093470E+00
          3   -1    0    0  502    0  0.00000000000E+00  0.00000000000E+00  0.11598968062E+01  0.11598968062E+01  0.00000000000E+00 0.  1.
         13   -1    0    0    0    0 -0.00000000000E+00 -0.00000000000E+00 -0.10000000000E+04  0.10000000000E+04  0.00000000000E+00 0.  1.
    9000005    2    1    2  501    0  0.25457040316E+02 -0.22325599141E+02 -0.45977632896E+03  0.46103375786E+03  0.33704507862E+01 0.  0.
         13    1    3    3    0    0  0.21968781343E+02 -0.18010627960E+02 -0.39500814381E+03  0.39602833705E+03  0.00000000000E+00 0.  1.
          3    1    3    3  501    0  0.34882589732E+01 -0.43149711818E+01 -0.64768185152E+02  0.65005420811E+02  0.00000000000E+00 0.  1.
         21    1    1    2  502  501 -0.25457040316E+02  0.22325599141E+02 -0.53906377423E+03  0.54012613894E+03  0.00000000000E+00 0.  1.
<mgrwt>
<rscale>  1 0.30000000E+03</rscale>
<asrwt>0</asrwt>
<pdfrwt beam="1">  1        3 0.42178155E-02 0.30000000E+03</pdfrwt>
<pdfrwt beam="2">0</pdfrwt>
<totfact> 0.12861180E+03</totfact>
</mgrwt>
</event>
<event>
 6    1  0.1956957E-002  0.3000000E+03  0.7818608E-02  0.1093470E+00
          1   -1    0    0  502    0  0.00000000000E+00  0.00000000000E+00  0.10151672417E+01  0.10151672417E+01  0.00000000000E+00 0.  1.
         13   -1    0    0    0    0 -0.00000000000E+00 -0.00000000000E+00 -0.10000000000E+04  0.10000000000E+04  0.00000000000E+00 0.  1.
    9000005    2    1    2  501    0  0.13475237958E+02  0.28617059165E+02 -0.54511716784E+03  0.54604662396E+03  0.36973985562E+01 0.  0.
         13    1    3    3    0    0  0.10169100909E+02  0.17710800674E+02 -0.36059486782E+03  0.36117273122E+03  0.00000000000E+00 0.  1.
          1    1    3    3  501    0  0.33061370482E+01  0.10906258491E+02 -0.18452230002E+03  0.18487389275E+03  0.00000000000E+00 0.  1.
         21    1    1    2  502  501 -0.13475237958E+02 -0.28617059165E+02 -0.45386766492E+03  0.45496854328E+03  0.00000000000E+00 0.  1.
<mgrwt>
<rscale>  1 0.30000000E+03</rscale>
<asrwt>0</asrwt>
<pdfrwt beam="1">  1        1 0.36915250E-02 0.30000000E+03</pdfrwt>
<pdfrwt beam="2">0</pdfrwt>
<totfact> 0.30486147E+03</totfact>
</mgrwt>
</event>
<event>
 6    1  0.1956957E-002  0.3000000E+03  0.7818608E-02  0.1093470E+00
          3   -1    0    0  502    0  0.00000000000E+00  0.00000000000E+00  0.71731532718E+01  0.71731532718E+01  0.00000000000E+00 0.  1.
         13   -1    0    0    0    0 -0.00000000000E+00 -0.00000000000E+00 -0.10000000000E+04  0.10000000000E+04  0.00000000000E+00 0.  1.
    9000005    2    1    2  501    0 -0.83070776339E+02 -0.16133725840E+02 -0.48095630857E+03  0.48835478541E+03  0.32209771198E+01 0.  0.
         13    1    3    3    0    0 -0.69148884507E+02 -0.14577563367E+02 -0.39904370923E+03  0.40525295244E+03  0.00000000000E+00 0.  1.
          1    1    3    3  501    0 -0.13921891832E+02 -0.15561624734E+01 -0.81912599336E+02  0.83101832975E+02  0.00000000000E+00 0.  1.
         21    1    1    2  502  501  0.83070776339E+02  0.16133725840E+02 -0.51187053816E+03  0.51881836786E+03  0.00000000000E+00 0.  1.
<mgrwt>
<rscale>  1 0.30000000E+03</rscale>
<asrwt>0</asrwt>
<pdfrwt beam="1">  1        3 0.26084249E-01 0.30000000E+03</pdfrwt>
<pdfrwt beam="2">0</pdfrwt>
<totfact> 0.60933911E+01</totfact>
</mgrwt>
</event>
<event>
 6    1  0.1956957E-002  0.3000000E+03  0.7818608E-02  0.1093470E+00
          1   -1    0    0  502    0  0.00000000000E+00  0.00000000000E+00  0.10534470043E+01  0.10534470043E+01  0.00000000000E+00 0.  1.
         13   -1    0    0    0    0 -0.00000000000E+00 -0.00000000000E+00 -0.10000000000E+04  0.10000000000E+04  0.00000000000E+00 0.  1.
    9000005    2    1    2  501    0  0.23413283808E+02  0.20942205216E+02 -0.37910119038E+03  0.38041262384E+03  0.30486084885E+01 0.  0.
         13    1    3    3    0    0  0.12611871543E+01  0.13492848156E+01 -0.32303155298E+02  0.32355911434E+02  0.00000000000E+00 0.  1.
          3    1    3    3  501    0  0.22152096653E+02  0.19592920400E+02 -0.34679803508E+03  0.34805671240E+03  0.00000000000E+00 0.  1.
         21    1    1    2  502  501 -0.23413283808E+02 -0.20942205216E+02 -0.61984536262E+03  0.62064082317E+03  0.00000000000E+00 0.  1.
<mgrwt>
<rscale>  1 0.30000000E+03</rscale>
<asrwt>0</asrwt>
<pdfrwt beam="1">  1        1 0.38307245E-02 0.30000000E+03</pdfrwt>
<pdfrwt beam="2">0</pdfrwt>
<totfact> 0.28938613E+03</totfact>
</mgrwt>
</event>
<event>
 6    1  0.1956957E-002  0.3000000E+03  0.7818608E-02  0.1093470E+00
          1   -1    0    0  502    0  0.00000000000E+00  0.00000000000E+00  0.21951165293E+02  0.21951165293E+02  0.00000000000E+00 0.  1.
         13   -1    0    0    0    0 -0.00000000000E+00 -0.00000000000E+00 -0.10000000000E+04  0.10000000000E+04  0.00000000000E+00 0.  1.
    9000005    2    1    2  501    0  0.37744016525E+02  0.84103599681E+02 -0.88902421108E+03  0.89379731293E+03  0.34003609509E+01 0.  0.
         13    1    3    3    0    0  0.16336772430E+02  0.40392765088E+02 -0.42440675946E+03  0.42663750782E+03  0.00000000000E+00 0.  1.
          1    1    3    3  501    0  0.21407244095E+02  0.43710834594E+02 -0.46461745162E+03  0.46715980511E+03  0.00000000000E+00 0.  1.
         21    1    1    2  502  501 -0.37744016525E+02 -0.84103599681E+02 -0.89024623625E+02  0.12815385236E+03  0.00000000000E+00 0.  1.
<mgrwt>
<rscale>  1 0.30000000E+03</rscale>
<asrwt>0</asrwt>
<pdfrwt beam="1">  1        1 0.79822588E-01 0.30000000E+03</pdfrwt>
<pdfrwt beam="2">0</pdfrwt>
<totfact> 0.47110160E+01</totfact>
</mgrwt>
</event>
<event>
 6    1  0.1956957E-002  0.3000000E+03  0.7818608E-02  0.1093470E+00
          1   -1    0    0  502    0  0.00000000000E+00  0.00000000000E+00  0.27687972859E+01  0.27687972859E+01  0.00000000000E+00 0.  1.
         13   -1    0    0    0    0 -0.00000000000E+00 -0.00000000000E+00 -0.10000000000E+04  0.10000000000E+04  0.00000000000E+00 0.  1.
    9000005    2    1    2  501    0 -0.16380616858E+02 -0.25494105867E+02 -0.90846263692E+03  0.90897043741E+03  0.21492696640E+01 0.  0.
         13    1    3    3    0    0 -0.15098196404E+02 -0.22238085609E+02 -0.80555654196E+03  0.80600485748E+03  0.00000000000E+00 0.  1.
          1    1    3    3  501    0 -0.12824204537E+01 -0.32560202580E+01 -0.10290609496E+03  0.10296557993E+03  0.00000000000E+00 0.  1.
         21    1    1    2  502  501  0.16380616858E+02  0.25494105867E+02 -0.88768565796E+02  0.93798359880E+02  0.00000000000E+00 0.  1.
<mgrwt>
<rscale>  1 0.30000000E+03</rscale>
<asrwt>0</asrwt>
<pdfrwt beam="1">  1        1 0.10068375E-01 0.30000000E+03</pdfrwt>
<pdfrwt beam="2">0</pdfrwt>
<totfact> 0.74866229E+02</totfact>
</mgrwt>
</event>
<event>
 6    1  0.1956957E-002  0.3000000E+03  0.7818608E-02  0.1093470E+00
          1   -1    0    0  502    0  0.00000000000E+00  0.00000000000E+00  0.15176998343E+01  0.15176998343E+01  0.00000000000E+00 0.  1.
         13   -1    0    0    0    0 -0.00000000000E+00 -0.00000000000E+00 -0.10000000000E+04  0.10000000000E+04  0.00000000000E+00 0.  1.
    9000005    2    1    2  501    0 -0.10727906601E+02  0.34573065397E+02 -0.68261775404E+03  0.68358563739E+03  0.34555295060E+01 0.  0.
         13    1    3    3    0    0 -0.64884284270E+01  0.15917662970E+02 -0.30642562170E+03  0.30690736930E+03  0.00000000000E+00 0.  1.
          1    1    3    3  501    0 -0.42394781745E+01  0.18655402427E+02 -0.37619213234E+03  0.37667826809E+03  0.00000000000E+00 0.  1.
         21    1    1    2  502  501  0.10727906601E+02 -0.34573065397E+02 -0.31586454612E+03  0.31793206244E+03  0.00000000000E+00 0.  1.
<mgrwt>
<rscale>  1 0.30000000E+03</rscale>
<asrwt>0</asrwt>
<pdfrwt beam="1">  1        1 0.55189201E-02 0.30000000E+03</pdfrwt>
<pdfrwt beam="2">0</pdfrwt>
<totfact> 0.17315092E+03</totfact>
</mgrwt>
</event>
<event>
 6    1  0.1956957E-002  0.3000000E+03  0.7818608E-02  0.1093470E+00
          1   -1    0    0  502    0  0.00000000000E+00  0.00000000000E+00  0.12484799356E+01  0.12484799356E+01  0.00000000000E+00 0.  1.
         13   -1    0    0    0    0 -0.00000000000E+00 -0.00000000000E+00 -0.10000000000E+04  0.10000000000E+04  0.00000000000E+00 0.  1.
    9000005    2    1    2  501    0  0.30711646048E+02  0.48332153221E+01 -0.73586117586E+03  0.73652617591E+03  0.35457703626E+01 0.  0.
         13    1    3    3    0    0  0.27361050137E+02  0.31623079186E+01 -0.65149152825E+03  0.65207349175E+03  0.00000000000E+00 0.  1.
          3    1    3    3  501    0  0.33505959106E+01  0.16709074036E+01 -0.84369647610E+02  0.84452684163E+02  0.00000000000E+00 0.  1.
         21    1    1    2  502  501 -0.30711646048E+02 -0.48332153221E+01 -0.26289034420E+03  0.26472230402E+03  0.00000000000E+00 0.  1.
<mgrwt>
<rscale>  1 0.30000000E+03</rscale>
<asrwt>0</asrwt>
<pdfrwt beam="1">  1        1 0.45399366E-02 0.30000000E+03</pdfrwt>
<pdfrwt beam="2">0</pdfrwt>
<totfact> 0.22783765E+03</totfact>
</mgrwt>
</event>
<event>
 6    1  0.1956957E-002  0.3000000E+03  0.7818608E-02  0.1093470E+00
          1   -1    0    0  502    0  0.00000000000E+00  0.00000000000E+00  0.43841119532E+01  0.43841119532E+01  0.00000000000E+00 0.  1.
         13   -1    0    0    0    0 -0.00000000000E+00 -0.00000000000E+00 -0.10000000000E+04  0.10000000000E+04  0.00000000000E+00 0.  1.
    9000005    2    1    2  501    0  0.36024253851E+02 -0.42488117417E+01 -0.91787785085E+03  0.91859948807E+03  0.30775222850E+01 0.  0.
         13    1    3    3    0    0  0.28442561087E+02 -0.35230488111E+01 -0.75469712445E+03  0.75524111435E+03  0.00000000000E+00 0.  1.
          3    1    3    3  501    0  0.75816927645E+01 -0.72576293064E+00 -0.16318072640E+03  0.16335837372E+03  0.00000000000E+00 0.  1.
         21    1    1    2  502  501 -0.36024253851E+02  0.42488117417E+01 -0.77738037197E+02  0.85784623878E+02  0.00000000000E+00 0.  1.
<mgrwt>
<rscale>  1 0.30000000E+03</rscale>
<asrwt>0</asrwt>
<pdfrwt beam="1">  1        1 0.15942259E-01 0.30000000E+03</pdfrwt>
<pdfrwt beam="2">0</pdfrwt>
<totfact> 0.39941292E+02</totfact>
</mgrwt>
</event>
<event>
 6    1  0.1956957E-002  0.3000000E+03  0.7818608E-02  0.1093470E+00
          1   -1    0    0  502    0  0.00000000000E+00  0.00000000000E+00  0.10732592856E+01  0.10732592856E+01  0.00000000000E+00 0.  1.
         13   -1    0    0    0    0 -0.00000000000E+00 -0.00000000000E+00 -0.10000000000E+04  0.10000000000E+04  0.00000000000E+00 0.  1.
    9000005    2    1    2  501    0 -0.28300763322E+02  0.13923403593E+02 -0.37044492450E+03  0.37180051422E+03  0.33743018576E+01 0.  0.
         13    1    3    3    0    0 -0.47840294442E+01  0.27719628233E+01 -0.51721689807E+02  0.52016381190E+02  0.00000000000E+00 0.  1.
          1    1    3    3  501    0 -0.23516733878E+02  0.11151440770E+02 -0.31872323469E+03  0.31978413303E+03  0.00000000000E+00 0.  1.
         21    1    1    2  502  501  0.28300763322E+02 -0.13923403593E+02 -0.62848181622E+03  0.62927274507E+03  0.00000000000E+00 0.  1.
<mgrwt>
<rscale>  1 0.30000000E+03</rscale>
<asrwt>0</asrwt>
<pdfrwt beam="1">  1        1 0.39027693E-02 0.30000000E+03</pdfrwt>
<pdfrwt beam="2">0</pdfrwt>
<totfact> 0.28189433E+03</totfact>
</mgrwt>
</event>
<event>
 6    1  0.1956957E-002  0.3000000E+03  0.7818608E-02  0.1093470E+00
          1   -1    0    0  502    0  0.00000000000E+00  0.00000000000E+00  0.68188758002E+01  0.68188758002E+01  0.00000000000E+00 0.  1.
         13   -1    0    0    0    0 -0.00000000000E+00 -0.00000000000E+00 -0.10000000000E+04  0.10000000000E+04  0.00000000000E+00 0.  1.
    9000005    2    1    2  501    0 -0.39492547765E+02  0.31601836591E+02 -0.89446308458E+03  0.89589733258E+03  0.30795184713E+01 0.  0.
         13    1    3    3    0    0 -0.10867190654E+02  0.70396116908E+01 -0.22226650351E+03  0.22264332586E+03  0.00000000000E+00 0.  1.
          3    1    3    3  501    0 -0.28625357111E+02  0.24562224901E+02 -0.67219658107E+03  0.67325400672E+03  0.00000000000E+00 0.  1.
         21    1    1    2  502  501  0.39492547765E+02 -0.31601836591E+02 -0.98718039616E+02  0.11092154322E+03  0.00000000000E+00 0.  1.
<mgrwt>
<rscale>  1 0.30000000E+03</rscale>
<asrwt>0</asrwt>
<pdfrwt beam="1">  1        1 0.24795964E-01 0.30000000E+03</pdfrwt>
<pdfrwt beam="2">0</pdfrwt>
<totfact> 0.22131930E+02</totfact>
</mgrwt>
</event>
<event>
 6    1  0.1956957E-002  0.3000000E+03  0.7818608E-02  0.1093470E+00
          3   -1    0    0  502    0  0.00000000000E+00  0.00000000000E+00  0.15671323881E+01  0.15671323881E+01  0.00000000000E+00 0.  1.
         13   -1    0    0    0    0 -0.00000000000E+00 -0.00000000000E+00 -0.10000000000E+04  0.10000000000E+04  0.00000000000E+00 0.  1.
    9000005    2    1    2  501    0 -0.72174067868E+01  0.38530935776E+02 -0.43572463203E+03  0.43749507815E+03  0.30437611053E+01 0.  0.
         13    1    3    3    0    0 -0.62149668393E+01  0.36339737386E+02 -0.40371084454E+03  0.40539073537E+03  0.00000000000E+00 0.  1.
          3    1    3    3  501    0 -0.10024399474E+01  0.21911983903E+01 -0.32013787489E+02  0.32104342785E+02  0.00000000000E+00 0.  1.
         21    1    1    2  502  501  0.72174067868E+01 -0.38530935776E+02 -0.56270823559E+03  0.56407205423E+03  0.00000000000E+00 0.  1.
<mgrwt>
<rscale>  1 0.30000000E+03</rscale>
<asrwt>0</asrwt>
<pdfrwt beam="1">  1        3 0.56986752E-02 0.30000000E+03</pdfrwt>
<pdfrwt beam="2">0</pdfrwt>
<totfact> 0.80803707E+02</totfact>
</mgrwt>
</event>
<event>
 6    1  0.1956957E-002  0.3000000E+03  0.7818608E-02  0.1093470E+00
          1   -1    0    0  502    0  0.00000000000E+00  0.00000000000E+00  0.22943902997E+01  0.22943902997E+01  0.00000000000E+00 0.  1.
         13   -1    0    0    0    0 -0.00000000000E+00 -0.00000000000E+00 -0.10000000000E+04  0.10000000000E+04  0.00000000000E+00 0.  1.
    9000005    2    1    2  501    0 -0.15532162319E+02 -0.30658906276E+02 -0.84764855452E+03  0.84835175030E+03  0.33769303651E+01 0.  0.
         13    1    3    3    0    0 -0.10022057020E+02 -0.22988911709E+02 -0.62550902455E+03  0.62601155859E+03  0.00000000000E+00 0.  1.
          3    1    3    3  501    0 -0.55101052986E+01 -0.76699945670E+01 -0.22213952996E+03  0.22234019171E+03  0.00000000000E+00 0.  1.
         21    1    1    2  502  501  0.15532162319E+02  0.30658906276E+02 -0.15005705518E+03  0.15394264000E+03  0.00000000000E+00 0.  1.
<mgrwt>
<rscale>  1 0.30000000E+03</rscale>
<asrwt>0</asrwt>
<pdfrwt beam="1">  1        1 0.83432550E-02 0.30000000E+03</pdfrwt>
<pdfrwt beam="2">0</pdfrwt>
<totfact> 0.97137255E+02</totfact>
</mgrwt>
</event>
<event>
 6    1  0.1956957E-002  0.3000000E+03  0.7818608E-02  0.1093470E+00
          1   -1    0    0  502    0  0.00000000000E+00  0.00000000000E+00  0.23191549585E+01  0.23191549585E+01  0.00000000000E+00 0.  1.
         13   -1    0    0    0    0 -0.00000000000E+00 -0.00000000000E+00 -0.10000000000E+04  0.10000000000E+04  0.00000000000E+00 0.  1.
    9000005    2    1    2  501    0  0.23084377353E+02  0.25170443998E+02 -0.85048903241E+03  0.85121697286E+03  0.85029940762E+01 0.  0.
         13    1    3    3    0    0  0.48658702745E+01  0.10340494586E+02 -0.23063747129E+03  0.23092043151E+03  0.00000000000E+00 0.  1.
          1    1    3    3  501    0  0.18218507079E+02  0.14829949413E+02 -0.61985156112E+03  0.62029654136E+03  0.00000000000E+00 0.  1.
         21    1    1    2  502  501 -0.23084377353E+02 -0.25170443998E+02 -0.14719181263E+03  0.15110218210E+03  0.00000000000E+00 0.  1.
<mgrwt>
<rscale>  1 0.30000000E+03</rscale>
<asrwt>0</asrwt>
<pdfrwt beam="1">  1        1 0.84333085E-02 0.30000000E+03</pdfrwt>
<pdfrwt beam="2">0</pdfrwt>
<totfact> 0.95698513E+02</totfact>
</mgrwt>
</event>
<event>
 6    1  0.1956957E-002  0.3000000E+03  0.7818608E-02  0.1093470E+00
          1   -1    0    0  502    0  0.00000000000E+00  0.00000000000E+00  0.46394883940E+01  0.46394883940E+01  0.00000000000E+00 0.  1.
         13   -1    0    0    0    0 -0.00000000000E+00 -0.00000000000E+00 -0.10000000000E+04  0.10000000000E+04  0.00000000000E+00 0.  1.
    9000005    2    1    2  501    0  0.36957586439E+02  0.22699349414E+02 -0.88488779981E+03  0.88595779768E+03  0.36982912661E+01 0.  0.
         13    1    3    3    0    0  0.48311954076E+01  0.41214635120E+01 -0.14774764793E+03  0.14788405721E+03  0.00000000000E+00 0.  1.
          1    1    3    3  501    0  0.32126391031E+02  0.18577885902E+02 -0.73714015188E+03  0.73807374046E+03  0.00000000000E+00 0.  1.
         21    1    1    2  502  501 -0.36957586439E+02 -0.22699349414E+02 -0.11047271180E+03  0.11868169072E+03  0.00000000000E+00 0.  1.
<mgrwt>
<rscale>  1 0.30000000E+03</rscale>
<asrwt>0</asrwt>
<pdfrwt beam="1">  1        1 0.16870902E-01 0.30000000E+03</pdfrwt>
<pdfrwt beam="2">0</pdfrwt>
<totfact> 0.36999413E+02</totfact>
</mgrwt>
</event>
<event>
 6    1  0.1956957E-002  0.3000000E+03  0.7818608E-02  0.1093470E+00
          1   -1    0    0  502    0  0.00000000000E+00  0.00000000000E+00  0.21201036723E+01  0.21201036723E+01  0.00000000000E+00 0.  1.
         13   -1    0    0    0    0 -0.00000000000E+00 -0.00000000000E+00 -0.10000000000E+04  0.10000000000E+04  0.00000000000E+00 0.  1.
    9000005    2    1    2  501    0  0.56931728454E+01 -0.29717520571E+02 -0.87641657035E+03  0.87694469553E+03  0.32327989595E+01 0.  0.
         13    1    3    3    0    0  0.53667151340E+01 -0.20317580901E+02 -0.59486782772E+03  0.59523889169E+03  0.00000000000E+00 0.  1.
          1    1    3    3  501    0  0.32645771139E+00 -0.93999396702E+01 -0.28154874262E+03  0.28170580383E+03  0.00000000000E+00 0.  1.
         21    1    1    2  502  501 -0.56931728454E+01  0.29717520571E+02 -0.12146332598E+03  0.12517540815E+03  0.00000000000E+00 0.  1.
<mgrwt>
<rscale>  1 0.30000000E+03</rscale>
<asrwt>0</asrwt>
<pdfrwt beam="1">  1        1 0.77094842E-02 0.30000000E+03</pdfrwt>
<pdfrwt beam="2">0</pdfrwt>
<totfact> 0.10843102E+03</totfact>
</mgrwt>
</event>
<event>
 6    1  0.1956957E-002  0.3000000E+03  0.7818608E-02  0.1093470E+00
          1   -1    0    0  502    0  0.00000000000E+00  0.00000000000E+00  0.20050300260E+01  0.20050300260E+01  0.00000000000E+00 0.  1.
         13   -1    0    0    0    0 -0.00000000000E+00 -0.00000000000E+00 -0.10000000000E+04  0.10000000000E+04  0.00000000000E+00 0.  1.
    9000005    2    1    2  501    0 -0.30831123028E+02 -0.23007848615E+02 -0.75363466852E+03  0.75463511235E+03  0.53870167198E+01 0.  0.
         13    1    3    3    0    0 -0.17981523674E+02 -0.10618008243E+02 -0.43477781669E+03  0.43527902221E+03  0.00000000000E+00 0.  1.
          1    1    3    3  501    0 -0.12849599354E+02 -0.12389840372E+02 -0.31885685183E+03  0.31935609013E+03  0.00000000000E+00 0.  1.
         21    1    1    2  502  501  0.30831123028E+02  0.23007848615E+02 -0.24436030146E+03  0.24736991768E+03  0.00000000000E+00 0.  1.
<mgrwt>
<rscale>  1 0.30000000E+03</rscale>
<asrwt>0</asrwt>
<pdfrwt beam="1">  1        1 0.72910337E-02 0.30000000E+03</pdfrwt>
<pdfrwt beam="2">0</pdfrwt>
<totfact> 0.11721424E+03</totfact>
</mgrwt>
</event>
<event>
 6    1  0.1956957E-002  0.3000000E+03  0.7818608E-02  0.1093470E+00
          1   -1    0    0  502    0  0.00000000000E+00  0.00000000000E+00  0.15916797379E+01  0.15916797379E+01  0.00000000000E+00 0.  1.
         13   -1    0    0    0    0 -0.00000000000E+00 -0.00000000000E+00 -0.10000000000E+04  0.10000000000E+04  0.00000000000E+00 0.  1.
    9000005    2    1    2  501    0  0.27153271059E+02  0.29005225517E+02 -0.53467796916E+03  0.53616237064E+03  0.33096443851E+01 0.  0.
         13    1    3    3    0    0  0.42063460520E+01  0.58270352005E+01 -0.10906165845E+03  0.10929818402E+03  0.00000000000E+00 0.  1.
          1    1    3    3  501    0  0.22946925007E+02  0.23178190316E+02 -0.42561631071E+03  0.42686418662E+03  0.00000000000E+00 0.  1.
         21    1    1    2  502  501 -0.27153271059E+02 -0.29005225517E+02 -0.46373035110E+03  0.46542930910E+03  0.00000000000E+00 0.  1.
<mgrwt>
<rscale>  1 0.30000000E+03</rscale>
<asrwt>0</asrwt>
<pdfrwt beam="1">  1        1 0.57879385E-02 0.30000000E+03</pdfrwt>
<pdfrwt beam="2">0</pdfrwt>
<totfact> 0.16195957E+03</totfact>
</mgrwt>
</event>
<event>
 6    1  0.1956957E-002  0.3000000E+03  0.7818608E-02  0.1093470E+00
          1   -1    0    0  502    0  0.00000000000E+00  0.00000000000E+00  0.35231154457E+01  0.35231154457E+01  0.00000000000E+00 0.  1.
         13   -1    0    0    0    0 -0.00000000000E+00 -0.00000000000E+00 -0.10000000000E+04  0.10000000000E+04  0.00000000000E+00 0.  1.
    9000005    2    1    2  501    0 -0.25557264284E+02 -0.26229137068E+02 -0.89299355405E+03  0.89375089181E+03  0.34680906878E+01 0.  0.
         13    1    3    3    0    0 -0.14492319741E+02 -0.12599261132E+02 -0.48335291954E+03  0.48373423855E+03  0.00000000000E+00 0.  1.
          1    1    3    3  501    0 -0.11064944543E+02 -0.13629875936E+02 -0.40964063450E+03  0.41001665326E+03  0.00000000000E+00 0.  1.
         21    1    1    2  502  501  0.25557264284E+02  0.26229137068E+02 -0.10348333051E+03  0.10977222364E+03  0.00000000000E+00 0.  1.
<mgrwt>
<rscale>  1 0.30000000E+03</rscale>
<asrwt>0</asrwt>
<pdfrwt beam="1">  1        1 0.12811356E-01 0.30000000E+03</pdfrwt>
<pdfrwt beam="2">0</pdfrwt>
<totfact> 0.53777347E+02</totfact>
</mgrwt>
</event>
<event>
 6    1  0.1956957E-002  0.3000000E+03  0.7818608E-02  0.1093470E+00
          3   -1    0    0  502    0  0.00000000000E+00  0.00000000000E+00  0.15013841385E+01  0.15013841385E+01  0.00000000000E+00 0.  1.
         13   -1    0    0    0    0 -0.00000000000E+00 -0.00000000000E+00 -0.10000000000E+04  0.10000000000E+04  0.00000000000E+00 0.  1.
    9000005    2    1    2  501    0 -0.30503753965E+02  0.15332073672E+02 -0.73503480933E+03  0.73583480957E+03  0.33383475322E+01 0.  0.
         13    1    3    3    0    0 -0.40554863813E+01  0.33807092160E+01 -0.11340718851E+03  0.11353002497E+03  0.00000000000E+00 0.  1.
          3    1    3    3  501    0 -0.26448267584E+02  0.11951364456E+02 -0.62162762082E+03  0.62230478460E+03  0.00000000000E+00 0.  1.
         21    1    1    2  502  501  0.30503753965E+02 -0.15332073672E+02 -0.26346380654E+03  0.26566657457E+03  0.00000000000E+00 0.  1.
<mgrwt>
<rscale>  1 0.30000000E+03</rscale>
<asrwt>0</asrwt>
<pdfrwt beam="1">  1        3 0.54595902E-02 0.30000000E+03</pdfrwt>
<pdfrwt beam="2">0</pdfrwt>
<totfact> 0.86361999E+02</totfact>
</mgrwt>
</event>
<event>
 6    1  0.1956957E-002  0.3000000E+03  0.7818608E-02  0.1093470E+00
          3   -1    0    0  502    0  0.00000000000E+00  0.00000000000E+00  0.26865817671E+01  0.26865817671E+01  0.00000000000E+00 0.  1.
         13   -1    0    0    0    0 -0.00000000000E+00 -0.00000000000E+00 -0.10000000000E+04  0.10000000000E+04  0.00000000000E+00 0.  1.
    9000005    2    1    2  501    0  0.37654681835E+02  0.18481464809E+02 -0.79276187878E+03  0.79387860324E+03  0.35214519471E+01 0.  0.
         13    1    3    3    0    0  0.13415228680E+02  0.52368444109E+01 -0.29384089758E+03  0.29419358591E+03  0.00000000000E+00 0.  1.
          1    1    3    3  501    0  0.24239453156E+02  0.13244620398E+02 -0.49892098120E+03  0.49968501732E+03  0.00000000000E+00 0.  1.
         21    1    1    2  502  501 -0.37654681835E+02 -0.18481464809E+02 -0.20455153945E+03  0.20880797853E+03  0.00000000000E+00 0.  1.
<mgrwt>
<rscale>  1 0.30000000E+03</rscale>
<asrwt>0</asrwt>
<pdfrwt beam="1">  1        3 0.97694088E-02 0.30000000E+03</pdfrwt>
<pdfrwt beam="2">0</pdfrwt>
<totfact> 0.34315144E+02</totfact>
</mgrwt>
</event>
<event>
 6    1  0.1956957E-002  0.3000000E+03  0.7818608E-02  0.1093470E+00
          3   -1    0    0  502    0  0.00000000000E+00  0.00000000000E+00  0.15851109989E+01  0.15851109989E+01  0.00000000000E+00 0.  1.
         13   -1    0    0    0    0 -0.00000000000E+00 -0.00000000000E+00 -0.10000000000E+04  0.10000000000E+04  0.00000000000E+00 0.  1.
    9000005    2    1    2  501    0 -0.19374544606E+02 -0.34689109690E+02 -0.48370453571E+03  0.48534344754E+03  0.30784557940E+01 0.  0.
         13    1    3    3    0    0 -0.10680640927E+02 -0.19206055990E+02 -0.24874698785E+03  0.24971586382E+03  0.00000000000E+00 0.  1.
          1    1    3    3  501    0 -0.86939036786E+01 -0.15483053701E+02 -0.23495754786E+03  0.23562758372E+03  0.00000000000E+00 0.  1.
         21    1    1    2  502  501  0.19374544606E+02  0.34689109690E+02 -0.51471035329E+03  0.51624166346E+03  0.00000000000E+00 0.  1.
<mgrwt>
<rscale>  1 0.30000000E+03</rscale>
<asrwt>0</asrwt>
<pdfrwt beam="1">  1        3 0.57640522E-02 0.30000000E+03</pdfrwt>
<pdfrwt beam="2">0</pdfrwt>
<totfact> 0.79382310E+02</totfact>
</mgrwt>
</event>
<event>
 6    1  0.1956957E-002  0.3000000E+03  0.7818608E-02  0.1093470E+00
          1   -1    0    0  502    0  0.00000000000E+00  0.00000000000E+00  0.12082604011E+01  0.12082604011E+01  0.00000000000E+00 0.  1.
         13   -1    0    0    0    0 -0.00000000000E+00 -0.00000000000E+00 -0.10000000000E+04  0.10000000000E+04  0.00000000000E+00 0.  1.
    9000005    2    1    2  501    0  0.87904007572E+01 -0.33405946147E+02 -0.53147181366E+03  0.53261340175E+03  0.46388161573E+01 0.  0.
         13    1    3    3    0    0  0.89128778443E+01 -0.32329380945E+02 -0.50025810861E+03  0.50138089662E+03  0.00000000000E+00 0.  1.
          3    1    3    3  501    0 -0.12247708713E+00 -0.10765652017E+01 -0.31213705056E+02  0.31232505129E+02  0.00000000000E+00 0.  1.
         21    1    1    2  502  501 -0.87904007572E+01  0.33405946147E+02 -0.46731992593E+03  0.46859485866E+03  0.00000000000E+00 0.  1.
<mgrwt>
<rscale>  1 0.30000000E+03</rscale>
<asrwt>0</asrwt>
<pdfrwt beam="1">  1        1 0.43936835E-02 0.30000000E+03</pdfrwt>
<pdfrwt beam="2">0</pdfrwt>
<totfact> 0.23858387E+03</totfact>
</mgrwt>
</event>
<event>
 6    1  0.1956957E-002  0.3000000E+03  0.7818608E-02  0.1093470E+00
          1   -1    0    0  502    0  0.00000000000E+00  0.00000000000E+00  0.20576192456E+01  0.20576192456E+01  0.00000000000E+00 0.  1.
         13   -1    0    0    0    0 -0.00000000000E+00 -0.00000000000E+00 -0.10000000000E+04  0.10000000000E+04  0.00000000000E+00 0.  1.
    9000005    2    1    2  501    0  0.23203397263E+02 -0.26820692187E+02 -0.81099838230E+03  0.81177938683E+03  0.31063823368E+01 0.  0.
         13    1    3    3    0    0  0.17678900781E+02 -0.22304055694E+02 -0.65320064726E+03  0.65382038819E+03  0.00000000000E+00 0.  1.
          1    1    3    3  501    0  0.55244964816E+01 -0.45166364937E+01 -0.15779773504E+03  0.15795899863E+03  0.00000000000E+00 0.  1.
         21    1    1    2  502  501 -0.23203397263E+02  0.26820692187E+02 -0.18694399846E+03  0.19027823242E+03  0.00000000000E+00 0.  1.
<mgrwt>
<rscale>  1 0.30000000E+03</rscale>
<asrwt>0</asrwt>
<pdfrwt beam="1">  1        1 0.74822676E-02 0.30000000E+03</pdfrwt>
<pdfrwt beam="2">0</pdfrwt>
<totfact> 0.11305212E+03</totfact>
</mgrwt>
</event>
<event>
 6    1  0.1956957E-002  0.3000000E+03  0.7818608E-02  0.1093470E+00
          1   -1    0    0  502    0  0.00000000000E+00  0.00000000000E+00  0.59024567814E+01  0.59024567814E+01  0.00000000000E+00 0.  1.
         13   -1    0    0    0    0 -0.00000000000E+00 -0.00000000000E+00 -0.10000000000E+04  0.10000000000E+04  0.00000000000E+00 0.  1.
    9000005    2    1    2  501    0  0.50658175534E+02 -0.36363584024E+02 -0.79075712009E+03  0.79321515422E+03  0.22128995468E+01 0.  0.
         13    1    3    3    0    0  0.18566145341E+02 -0.12324759611E+02 -0.29117397410E+03  0.29202548629E+03  0.00000000000E+00 0.  1.
          3    1    3    3  501    0  0.32092030193E+02 -0.24038824413E+02 -0.49958314599E+03  0.50118966793E+03  0.00000000000E+00 0.  1.
         21    1    1    2  502  501 -0.50658175534E+02  0.36363584024E+02 -0.20334042313E+03  0.21268730256E+03  0.00000000000E+00 0.  1.
<mgrwt>
<rscale>  1 0.30000000E+03</rscale>
<asrwt>0</asrwt>
<pdfrwt beam="1">  1        1 0.21463524E-01 0.30000000E+03</pdfrwt>
<pdfrwt beam="2">0</pdfrwt>
<totfact> 0.26795325E+02</totfact>
</mgrwt>
</event>
<event>
 6    1  0.1956957E-002  0.3000000E+03  0.7818608E-02  0.1093470E+00
          1   -1    0    0  502    0  0.00000000000E+00  0.00000000000E+00  0.11838234239E+01  0.11838234239E+01  0.00000000000E+00 0.  1.
         13   -1    0    0    0    0 -0.00000000000E+00 -0.00000000000E+00 -0.10000000000E+04  0.10000000000E+04  0.00000000000E+00 0.  1.
    9000005    2    1    2  501    0  0.31690058445E+02 -0.11292118603E+02 -0.59623005430E+03  0.59719451961E+03  0.43868957920E+01 0.  0.
         13    1    3    3    0    0  0.12966808082E+02 -0.24517519329E+01 -0.24329439849E+03  0.24365203372E+03  0.00000000000E+00 0.  1.
          3    1    3    3  501    0  0.18723250363E+02 -0.88403666697E+01 -0.35293565581E+03  0.35354248589E+03  0.00000000000E+00 0.  1.
         21    1    1    2  502  501 -0.31690058445E+02  0.11292118603E+02 -0.40258612228E+03  0.40398930382E+03  0.00000000000E+00 0.  1.
<mgrwt>
<rscale>  1 0.30000000E+03</rscale>
<asrwt>0</asrwt>
<pdfrwt beam="1">  1        1 0.43048215E-02 0.30000000E+03</pdfrwt>
<pdfrwt beam="2">0</pdfrwt>
<totfact> 0.24554605E+03</totfact>
</mgrwt>
</event>
<event>
 6    1  0.1956957E-002  0.3000000E+03  0.7818608E-02  0.1093470E+00
          1   -1    0    0  502    0  0.00000000000E+00  0.00000000000E+00  0.15372207834E+01  0.15372207834E+01  0.00000000000E+00 0.  1.
         13   -1    0    0    0    0 -0.00000000000E+00 -0.00000000000E+00 -0.10000000000E+04  0.10000000000E+04  0.00000000000E+00 0.  1.
    9000005    2    1    2  501    0  0.18153923271E+02  0.32516803096E+02 -0.65361101769E+03  0.65468041338E+03  0.34890979763E+01 0.  0.
         13    1    3    3    0    0  0.42453523410E+01  0.72125706339E+01 -0.12309722498E+03  0.12338140455E+03  0.00000000000E+00 0.  1.
          1    1    3    3  501    0  0.13908570930E+02  0.25304232462E+02 -0.53051379271E+03  0.53129900883E+03  0.00000000000E+00 0.  1.
         21    1    1    2  502  501 -0.18153923271E+02 -0.32516803096E+02 -0.34485176153E+03  0.34685680741E+03  0.00000000000E+00 0.  1.
<mgrwt>
<rscale>  1 0.30000000E+03</rscale>
<asrwt>0</asrwt>
<pdfrwt beam="1">  1        1 0.55899055E-02 0.30000000E+03</pdfrwt>
<pdfrwt beam="2">0</pdfrwt>
<totfact> 0.17007152E+03</totfact>
</mgrwt>
</event>
<event>
 6    1  0.1956957E-002  0.3000000E+03  0.7818608E-02  0.1093470E+00
          1   -1    0    0  502    0  0.00000000000E+00  0.00000000000E+00  0.20513892367E+02  0.20513892367E+02  0.00000000000E+00 0.  1.
         13   -1    0    0    0    0 -0.00000000000E+00 -0.00000000000E+00 -0.10000000000E+04  0.10000000000E+04  0.00000000000E+00 0.  1.
    9000005    2    1    2  501    0 -0.51946894756E+01 -0.49209846974E+02 -0.96856536693E+03  0.96983987126E+03  0.46810280575E+01 0.  0.
         13    1    3    3    0    0 -0.37816477709E+01 -0.17899604612E+02 -0.38168144838E+03  0.38211964716E+03  0.00000000000E+00 0.  1.
          3    1    3    3  501    0 -0.14130417048E+01 -0.31310242362E+02 -0.58688391855E+03  0.58772022410E+03  0.00000000000E+00 0.  1.
         21    1    1    2  502  501  0.51946894756E+01  0.49209846974E+02 -0.10920740701E+02  0.50674021109E+02  0.00000000000E+00 0.  1.
<mgrwt>
<rscale>  1 0.30000000E+03</rscale>
<asrwt>0</asrwt>
<pdfrwt beam="1">  1        1 0.74596130E-01 0.30000000E+03</pdfrwt>
<pdfrwt beam="2">0</pdfrwt>
<totfact> 0.51705800E+01</totfact>
</mgrwt>
</event>
<event>
 6    1  0.1956957E-002  0.3000000E+03  0.7818608E-02  0.1093470E+00
          3   -1    0    0  502    0  0.00000000000E+00  0.00000000000E+00  0.20843853253E+01  0.20843853253E+01  0.00000000000E+00 0.  1.
         13   -1    0    0    0    0 -0.00000000000E+00 -0.00000000000E+00 -0.10000000000E+04  0.10000000000E+04  0.00000000000E+00 0.  1.
    9000005    2    1    2  501    0  0.37542287589E+02 -0.21295237324E+01 -0.78260951839E+03  0.78351935307E+03  0.33106082851E+01 0.  0.
         13    1    3    3    0    0  0.13114088198E+02  0.83302456216E+00 -0.27075327644E+03  0.27107196451E+03  0.00000000000E+00 0.  1.
          3    1    3    3  501    0  0.24428199390E+02 -0.29625482946E+01 -0.51185624195E+03  0.51244738856E+03  0.00000000000E+00 0.  1.
         21    1    1    2  502  501 -0.37542287589E+02  0.21295237324E+01 -0.21530609629E+03  0.21856503226E+03  0.00000000000E+00 0.  1.
<mgrwt>
<rscale>  1 0.30000000E+03</rscale>
<asrwt>0</asrwt>
<pdfrwt beam="1">  1        3 0.75795990E-02 0.30000000E+03</pdfrwt>
<pdfrwt beam="2">0</pdfrwt>
<totfact> 0.51645456E+02</totfact>
</mgrwt>
</event>
<event>
 6    1  0.1956957E-002  0.3000000E+03  0.7818608E-02  0.1093470E+00
          1   -1    0    0  502    0  0.00000000000E+00  0.00000000000E+00  0.27254092830E+01  0.27254092830E+01  0.00000000000E+00 0.  1.
         13   -1    0    0    0    0 -0.00000000000E+00 -0.00000000000E+00 -0.10000000000E+04  0.10000000000E+04  0.00000000000E+00 0.  1.
    9000005    2    1    2  501    0 -0.42018088465E+02  0.25950893801E+01 -0.79376190619E+03  0.79490417117E+03  0.65133232081E+01 0.  0.
         13    1    3    3    0    0 -0.20675485971E+02  0.41691768315E+01 -0.42213711135E+03  0.42266369437E+03  0.00000000000E+00 0.  1.
          1    1    3    3  501    0 -0.21342602494E+02 -0.15740874514E+01 -0.37162479483E+03  0.37224047680E+03  0.00000000000E+00 0.  1.
         21    1    1    2  502  501  0.42018088465E+02 -0.25950893801E+01 -0.20351268453E+03  0.20782123812E+03  0.00000000000E+00 0.  1.
<mgrwt>
<rscale>  1 0.30000000E+03</rscale>
<asrwt>0</asrwt>
<pdfrwt beam="1">  1        1 0.99106001E-02 0.30000000E+03</pdfrwt>
<pdfrwt beam="2">0</pdfrwt>
<totfact> 0.76516551E+02</totfact>
</mgrwt>
</event>
<event>
 6    1  0.1956957E-002  0.3000000E+03  0.7818608E-02  0.1093470E+00
          1   -1    0    0  502    0  0.00000000000E+00  0.00000000000E+00  0.24317642437E+01  0.24317642437E+01  0.00000000000E+00 0.  1.
         13   -1    0    0    0    0 -0.00000000000E+00 -0.00000000000E+00 -0.10000000000E+04  0.10000000000E+04  0.00000000000E+00 0.  1.
    9000005    2    1    2  501    0  0.39617223107E+01 -0.48558050719E+02 -0.57139900598E+03  0.57348678882E+03  0.40857536323E+01 0.  0.
         13    1    3    3    0    0 -0.82400674192E+00 -0.50091413375E+01 -0.57463432746E+02  0.57687230710E+02  0.00000000000E+00 0.  1.
          1    1    3    3  501    0  0.47857290526E+01 -0.43548909381E+02 -0.51393557324E+03  0.51579955811E+03  0.00000000000E+00 0.  1.
         21    1    1    2  502  501 -0.39617223107E+01  0.48558050719E+02 -0.42616922977E+03  0.42894497542E+03  0.00000000000E+00 0.  1.
<mgrwt>
<rscale>  1 0.30000000E+03</rscale>
<asrwt>0</asrwt>
<pdfrwt beam="1">  1        1 0.88427977E-02 0.30000000E+03</pdfrwt>
<pdfrwt beam="2">0</pdfrwt>
<totfact> 0.89600914E+02</totfact>
</mgrwt>
</event>
<event>
 6    1  0.1956957E-002  0.3000000E+03  0.7818608E-02  0.1093470E+00
          3   -1    0    0  502    0  0.00000000000E+00  0.00000000000E+00  0.40788403479E+01  0.40788403479E+01  0.00000000000E+00 0.  1.
         13   -1    0    0    0    0 -0.00000000000E+00 -0.00000000000E+00 -0.10000000000E+04  0.10000000000E+04  0.00000000000E+00 0.  1.
    9000005    2    1    2  501    0 -0.44362711824E+02 -0.48390191918E+01 -0.85700637224E+03  0.85817207399E+03  0.28142868655E+01 0.  0.
         13    1    3    3    0    0 -0.71881511863E+00 -0.45276044812E+00 -0.17172099788E+02  0.17193100312E+02  0.00000000000E+00 0.  1.
          3    1    3    3  501    0 -0.43643896705E+02 -0.43862587437E+01 -0.83983427245E+03  0.84097897367E+03  0.00000000000E+00 0.  1.
         21    1    1    2  502  501  0.44362711824E+02  0.48390191918E+01 -0.13891478742E+03  0.14590676636E+03  0.00000000000E+00 0.  1.
<mgrwt>
<rscale>  1 0.30000000E+03</rscale>
<asrwt>0</asrwt>
<pdfrwt beam="1">  1        3 0.14832178E-01 0.30000000E+03</pdfrwt>
<pdfrwt beam="2">0</pdfrwt>
<totfact> 0.16971674E+02</totfact>
</mgrwt>
</event>
<event>
 6    1  0.1956957E-002  0.3000000E+03  0.7818608E-02  0.1093470E+00
          1   -1    0    0  502    0  0.00000000000E+00  0.00000000000E+00  0.98579808148E+00  0.98579808148E+00  0.00000000000E+00 0.  1.
         13   -1    0    0    0    0 -0.00000000000E+00 -0.00000000000E+00 -0.10000000000E+04  0.10000000000E+04  0.00000000000E+00 0.  1.
    9000005    2    1    2  501    0 -0.12727926130E+02  0.27249755955E+02 -0.64016663503E+03  0.64088008365E+03  0.30678514549E+01 0.  0.
         13    1    3    3    0    0 -0.12617586070E+01  0.12157239453E+01 -0.44713122738E+02  0.44747439753E+02  0.00000000000E+00 0.  1.
          1    1    3    3  501    0 -0.11466167523E+02  0.26034032010E+02 -0.59545351229E+03  0.59613264389E+03  0.00000000000E+00 0.  1.
         21    1    1    2  502  501  0.12727926130E+02 -0.27249755955E+02 -0.35884756689E+03  0.36010571443E+03  0.00000000000E+00 0.  1.
<mgrwt>
<rscale>  1 0.30000000E+03</rscale>
<asrwt>0</asrwt>
<pdfrwt beam="1">  1        1 0.35847279E-02 0.30000000E+03</pdfrwt>
<pdfrwt beam="2">0</pdfrwt>
<totfact> 0.31771738E+03</totfact>
</mgrwt>
</event>
<event>
 6    1  0.1956957E-002  0.3000000E+03  0.7818608E-02  0.1093470E+00
          3   -1    0    0  502    0  0.00000000000E+00  0.00000000000E+00  0.68905081603E+01  0.68905081603E+01  0.00000000000E+00 0.  1.
         13   -1    0    0    0    0 -0.00000000000E+00 -0.00000000000E+00 -0.10000000000E+04  0.10000000000E+04  0.00000000000E+00 0.  1.
    9000005    2    1    2  501    0 -0.42290215020E+02  0.28072944400E+02 -0.89453460318E+03  0.89601417539E+03  0.85260615026E+01 0.  0.
         13    1    3    3    0    0 -0.27914906893E+01  0.78577707213E+00 -0.91413870395E+02  0.91459857678E+02  0.00000000000E+00 0.  1.
          1    1    3    3  501    0 -0.39498724330E+02  0.27287167328E+02 -0.80312073278E+03  0.80455431771E+03  0.00000000000E+00 0.  1.
         21    1    1    2  502  501  0.42290215020E+02 -0.28072944400E+02 -0.98574888661E+02  0.11087633277E+03  0.00000000000E+00 0.  1.
<mgrwt>
<rscale>  1 0.30000000E+03</rscale>
<asrwt>0</asrwt>
<pdfrwt beam="1">  1        3 0.25056446E-01 0.30000000E+03</pdfrwt>
<pdfrwt beam="2">0</pdfrwt>
<totfact> 0.65727638E+01</totfact>
</mgrwt>
</event>
<event>
 6    1  0.1956957E-002  0.3000000E+03  0.7818608E-02  0.1093470E+00
          1   -1    0    0  502    0  0.00000000000E+00  0.00000000000E+00  0.71880052168E+01  0.71880052168E+01  0.00000000000E+00 0.  1.
         13   -1    0    0    0    0 -0.00000000000E+00 -0.00000000000E+00 -0.10000000000E+04  0.10000000000E+04  0.00000000000E+00 0.  1.
    9000005    2    1    2  501    0 -0.27156715452E+02 -0.68592630815E+02 -0.74437219223E+03  0.74802633427E+03  0.33166242940E+01 0.  0.
         13    1    3    3    0    0 -0.73651766594E+01 -0.19034341638E+02 -0.22120913370E+03  0.22214867278E+03  0.00000000000E+00 0.  1.
          3    1    3    3  501    0 -0.19791538793E+02 -0.49558289177E+02 -0.52316305854E+03  0.52587766149E+03  0.00000000000E+00 0.  1.
         21    1    1    2  502  501  0.27156715452E+02  0.68592630815E+02 -0.24843980255E+03  0.25916167095E+03  0.00000000000E+00 0.  1.
<mgrwt>
<rscale>  1 0.30000000E+03</rscale>
<asrwt>0</asrwt>
<pdfrwt beam="1">  1        1 0.26138256E-01 0.30000000E+03</pdfrwt>
<pdfrwt beam="2">0</pdfrwt>
<totfact> 0.20643066E+02</totfact>
</mgrwt>
</event>
<event>
 6    1  0.1956957E-002  0.3000000E+03  0.7818608E-02  0.1093470E+00
          1   -1    0    0  502    0  0.00000000000E+00  0.00000000000E+00  0.27996513330E+01  0.27996513330E+01  0.00000000000E+00 0.  1.
         13   -1    0    0    0    0 -0.00000000000E+00 -0.00000000000E+00 -0.10000000000E+04  0.10000000000E+04  0.00000000000E+00 0.  1.
    9000005    2    1    2  501    0 -0.31820396923E+02  0.42044444688E+02 -0.53522394650E+03  0.53782387869E+03  0.30949294758E+01 0.  0.
         13    1    3    3    0    0 -0.15314851464E+02  0.19454704856E+02 -0.26631160209E+03  0.26746008977E+03  0.00000000000E+00 0.  1.
          3    1    3    3  501    0 -0.16505545459E+02  0.22589739832E+02 -0.26891234441E+03  0.27036378891E+03  0.00000000000E+00 0.  1.
         21    1    1    2  502  501  0.31820396923E+02 -0.42044444688E+02 -0.46197640217E+03  0.46497577265E+03  0.00000000000E+00 0.  1.
<mgrwt>
<rscale>  1 0.30000000E+03</rscale>
<asrwt>0</asrwt>
<pdfrwt beam="1">  1        1 0.10180572E-01 0.30000000E+03</pdfrwt>
<pdfrwt beam="2">0</pdfrwt>
<totfact> 0.73730416E+02</totfact>
</mgrwt>
</event>
<event>
 6    1  0.1956957E-002  0.3000000E+03  0.7818608E-02  0.1093470E+00
          3   -1    0    0  502    0  0.00000000000E+00  0.00000000000E+00  0.20994998445E+01  0.20994998445E+01  0.00000000000E+00 0.  1.
         13   -1    0    0    0    0 -0.00000000000E+00 -0.00000000000E+00 -0.10000000000E+04  0.10000000000E+04  0.00000000000E+00 0.  1.
    9000005    2    1    2  501    0  0.23260604971E+02  0.32493475469E+02 -0.74369006510E+03  0.74476736624E+03  0.25758889607E+01 0.  0.
         13    1    3    3    0    0  0.58259884418E+01  0.99648442267E+01 -0.22349200075E+03  0.22378988954E+03  0.00000000000E+00 0.  1.
          3    1    3    3  501    0  0.17434616529E+02  0.22528631242E+02 -0.52019806435E+03  0.52097747671E+03  0.00000000000E+00 0.  1.
         21    1    1    2  502  501 -0.23260604971E+02 -0.32493475469E+02 -0.25421043506E+03  0.25733213360E+03  0.00000000000E+00 0.  1.
<mgrwt>
<rscale>  1 0.30000000E+03</rscale>
<asrwt>0</asrwt>
<pdfrwt beam="1">  1        3 0.76345610E-02 0.30000000E+03</pdfrwt>
<pdfrwt beam="2">0</pdfrwt>
<totfact> 0.51055711E+02</totfact>
</mgrwt>
</event>
<event>
 6    1  0.1956957E-002  0.3000000E+03  0.7818608E-02  0.1093470E+00
          1   -1    0    0  502    0  0.00000000000E+00  0.00000000000E+00  0.11995187925E+01  0.11995187925E+01  0.00000000000E+00 0.  1.
         13   -1    0    0    0    0 -0.00000000000E+00 -0.00000000000E+00 -0.10000000000E+04  0.10000000000E+04  0.00000000000E+00 0.  1.
    9000005    2    1    2  501    0 -0.67654936353E+01 -0.32610498137E+02 -0.63345280985E+03  0.63433695943E+03  0.34204245401E+01 0.  0.
         13    1    3    3    0    0 -0.75975075536E+00 -0.83248513136E+01 -0.13802136905E+03  0.13827428786E+03  0.00000000000E+00 0.  1.
          3    1    3    3  501    0 -0.60057428799E+01 -0.24285646823E+02 -0.49543144080E+03  0.49606267157E+03  0.00000000000E+00 0.  1.
         21    1    1    2  502  501  0.67654936353E+01  0.32610498137E+02 -0.36534767136E+03  0.36686255936E+03  0.00000000000E+00 0.  1.
<mgrwt>
<rscale>  1 0.30000000E+03</rscale>
<asrwt>0</asrwt>
<pdfrwt beam="1">  1        1 0.43618957E-02 0.30000000E+03</pdfrwt>
<pdfrwt beam="2">0</pdfrwt>
<totfact> 0.24103507E+03</totfact>
</mgrwt>
</event>
<event>
 6    1  0.1956957E-002  0.3000000E+03  0.7818608E-02  0.1093470E+00
          1   -1    0    0  502    0  0.00000000000E+00  0.00000000000E+00  0.15371968700E+02  0.15371968700E+02  0.00000000000E+00 0.  1.
         13   -1    0    0    0    0 -0.00000000000E+00 -0.00000000000E+00 -0.10000000000E+04  0.10000000000E+04  0.00000000000E+00 0.  1.
    9000005    2    1    2  501    0  0.47940384568E+01 -0.52642325332E+02 -0.95153549127E+03  0.95300760847E+03  0.30843855478E+01 0.  0.
         13    1    3    3    0    0  0.52111403282E+01 -0.49175950505E+02 -0.89262756384E+03  0.89399630750E+03  0.00000000000E+00 0.  1.
          1    1    3    3  501    0 -0.41710187136E+00 -0.34663748276E+01 -0.58907927428E+02  0.59011300971E+02  0.00000000000E+00 0.  1.
         21    1    1    2  502  501 -0.47940384568E+01  0.52642325332E+02 -0.33092540028E+02  0.62364360228E+02  0.00000000000E+00 0.  1.
<mgrwt>
<rscale>  1 0.30000000E+03</rscale>
<asrwt>0</asrwt>
<pdfrwt beam="1">  1        1 0.55898186E-01 0.30000000E+03</pdfrwt>
<pdfrwt beam="2">0</pdfrwt>
<totfact> 0.76172988E+01</totfact>
</mgrwt>
</event>
<event>
 6    1  0.1956957E-002  0.3000000E+03  0.7818608E-02  0.1093470E+00
          1   -1    0    0  502    0  0.00000000000E+00  0.00000000000E+00  0.10387086540E+01  0.10387086540E+01  0.00000000000E+00 0.  1.
         13   -1    0    0    0    0 -0.00000000000E+00 -0.00000000000E+00 -0.10000000000E+04  0.10000000000E+04  0.00000000000E+00 0.  1.
    9000005    2    1    2  501    0 -0.44025414063E+01  0.31760344415E+02 -0.46138494776E+03  0.46250697604E+03  0.29207907403E+01 0.  0.
         13    1    3    3    0    0 -0.37808498319E+01  0.17123429525E+02 -0.24539604274E+03  0.24602179671E+03  0.00000000000E+00 0.  1.
          3    1    3    3  501    0 -0.62169157440E+00  0.14636914890E+02 -0.21598890502E+03  0.21648517933E+03  0.00000000000E+00 0.  1.
         21    1    1    2  502  501  0.44025414063E+01 -0.31760344415E+02 -0.53757634358E+03  0.53853173261E+03  0.00000000000E+00 0.  1.
<mgrwt>
<rscale>  1 0.30000000E+03</rscale>
<asrwt>0</asrwt>
<pdfrwt beam="1">  1        1 0.37771303E-02 0.30000000E+03</pdfrwt>
<pdfrwt beam="2">0</pdfrwt>
<totfact> 0.29518251E+03</totfact>
</mgrwt>
</event>
<event>
 6    1  0.1956957E-002  0.3000000E+03  0.7818608E-02  0.1093470E+00
          1   -1    0    0  502    0  0.00000000000E+00  0.00000000000E+00  0.66280797365E+01  0.66280797365E+01  0.00000000000E+00 0.  1.
         13   -1    0    0    0    0 -0.00000000000E+00 -0.00000000000E+00 -0.10000000000E+04  0.10000000000E+04  0.00000000000E+00 0.  1.
    9000005    2    1    2  501    0 -0.36398659509E+02 -0.34170532840E+02 -0.89419849819E+03  0.89559720396E+03  0.33030073723E+01 0.  0.
         13    1    3    3    0    0 -0.18464650667E+01 -0.12197830905E+01 -0.51054750071E+02  0.51102688862E+02  0.00000000000E+00 0.  1.
          3    1    3    3  501    0 -0.34552194442E+02 -0.32950749750E+02 -0.84314374812E+03  0.84449451510E+03  0.00000000000E+00 0.  1.
         21    1    1    2  502  501  0.36398659509E+02  0.34170532840E+02 -0.99173422075E+02  0.11103087577E+03  0.00000000000E+00 0.  1.
<mgrwt>
<rscale>  1 0.30000000E+03</rscale>
<asrwt>0</asrwt>
<pdfrwt beam="1">  1        1 0.24102159E-01 0.30000000E+03</pdfrwt>
<pdfrwt beam="2">0</pdfrwt>
<totfact> 0.22977966E+02</totfact>
</mgrwt>
</event>
<event>
 6    1  0.1956957E-002  0.3000000E+03  0.7818608E-02  0.1093470E+00
          1   -1    0    0  502    0  0.00000000000E+00  0.00000000000E+00  0.91387780966E+00  0.91387780966E+00  0.00000000000E+00 0.  1.
         13   -1    0    0    0    0 -0.00000000000E+00 -0.00000000000E+00 -0.10000000000E+04  0.10000000000E+04  0.00000000000E+00 0.  1.
    9000005    2    1    2  501    0  0.15007891143E+02  0.26114900016E+02 -0.53465019499E+03  0.53550228011E+03  0.21531837464E+01 0.  0.
         13    1    3    3    0    0  0.12212810214E+02  0.22212151242E+02 -0.43783218741E+03  0.43856533918E+03  0.00000000000E+00 0.  1.
          1    1    3    3  501    0  0.27950809286E+01  0.39027487734E+01 -0.96818007576E+02  0.96936940928E+02  0.00000000000E+00 0.  1.
         21    1    1    2  502  501 -0.15007891143E+02 -0.26114900016E+02 -0.46443592720E+03  0.46541159770E+03  0.00000000000E+00 0.  1.
<mgrwt>
<rscale>  1 0.30000000E+03</rscale>
<asrwt>0</asrwt>
<pdfrwt beam="1">  1        1 0.33231990E-02 0.30000000E+03</pdfrwt>
<pdfrwt beam="2">0</pdfrwt>
<totfact> 0.35343118E+03</totfact>
</mgrwt>
</event>
<event>
 6    1  0.1956957E-002  0.3000000E+03  0.7818608E-02  0.1093470E+00
          1   -1    0    0  502    0  0.00000000000E+00  0.00000000000E+00  0.15215507112E+01  0.15215507112E+01  0.00000000000E+00 0.  1.
         13   -1    0    0    0    0 -0.00000000000E+00 -0.00000000000E+00 -0.10000000000E+04  0.10000000000E+04  0.00000000000E+00 0.  1.
    9000005    2    1    2  501    0 -0.27154938662E+02  0.25533257906E+02 -0.62375181424E+03  0.62494567659E+03  0.10071493007E+02 0.  0.
         13    1    3    3    0    0 -0.33527948443E+01  0.89863524401E+01 -0.14459397837E+03  0.14491174674E+03  0.00000000000E+00 0.  1.
          1    1    3    3  501    0 -0.23802143817E+02  0.16546905466E+02 -0.47915783587E+03  0.48003392985E+03  0.00000000000E+00 0.  1.
         21    1    1    2  502  501  0.27154938662E+02 -0.25533257906E+02 -0.37472663505E+03  0.37657587412E+03  0.00000000000E+00 0.  1.
<mgrwt>
<rscale>  1 0.30000000E+03</rscale>
<asrwt>0</asrwt>
<pdfrwt beam="1">  1        1 0.55329233E-02 0.30000000E+03</pdfrwt>
<pdfrwt beam="2">0</pdfrwt>
<totfact> 0.17253590E+03</totfact>
</mgrwt>
</event>
<event>
 6    1  0.1956957E-002  0.3000000E+03  0.7818608E-02  0.1093470E+00
          1   -1    0    0  502    0  0.00000000000E+00  0.00000000000E+00  0.33819566538E+01  0.33819566538E+01  0.00000000000E+00 0.  1.
         13   -1    0    0    0    0 -0.00000000000E+00 -0.00000000000E+00 -0.10000000000E+04  0.10000000000E+04  0.00000000000E+00 0.  1.
    9000005    2    1    2  501    0  0.34016847508E+02  0.14548980933E+02 -0.88527068282E+03  0.88604886901E+03  0.30980070244E+01 0.  0.
         13    1    3    3    0    0  0.67287084767E+01  0.42463017840E+01 -0.19373711767E+03  0.19390043156E+03  0.00000000000E+00 0.  1.
          1    1    3    3  501    0  0.27288139031E+02  0.10302679149E+02 -0.69153356515E+03  0.69214843744E+03  0.00000000000E+00 0.  1.
         21    1    1    2  502  501 -0.34016847508E+02 -0.14548980933E+02 -0.11134736053E+03  0.11733308765E+03  0.00000000000E+00 0.  1.
<mgrwt>
<rscale>  1 0.30000000E+03</rscale>
<asrwt>0</asrwt>
<pdfrwt beam="1">  1        1 0.12298050E-01 0.30000000E+03</pdfrwt>
<pdfrwt beam="2">0</pdfrwt>
<totfact> 0.56872555E+02</totfact>
</mgrwt>
</event>
<event>
 6    1  0.1956957E-002  0.3000000E+03  0.7818608E-02  0.1093470E+00
          3   -1    0    0  502    0  0.00000000000E+00  0.00000000000E+00  0.14207900975E+01  0.14207900975E+01  0.00000000000E+00 0.  1.
         13   -1    0    0    0    0 -0.00000000000E+00 -0.00000000000E+00 -0.10000000000E+04  0.10000000000E+04  0.00000000000E+00 0.  1.
    9000005    2    1    2  501    0 -0.21366104494E+02  0.30962146547E+02 -0.50373208730E+03  0.50514582630E+03  0.33354335387E+01 0.  0.
         13    1    3    3    0    0 -0.11190924322E+02  0.17635868200E+02 -0.25988413541E+03  0.26072212118E+03  0.00000000000E+00 0.  1.
          1    1    3    3  501    0 -0.10175180173E+02  0.13326278347E+02 -0.24384795189E+03  0.24442370512E+03  0.00000000000E+00 0.  1.
         21    1    1    2  502  501  0.21366104494E+02 -0.30962146547E+02 -0.49484712260E+03  0.49627496379E+03  0.00000000000E+00 0.  1.
<mgrwt>
<rscale>  1 0.30000000E+03</rscale>
<asrwt>0</asrwt>
<pdfrwt beam="1">  1        3 0.51665203E-02 0.30000000E+03</pdfrwt>
<pdfrwt beam="2">0</pdfrwt>
<totfact> 0.94058030E+02</totfact>
</mgrwt>
</event>
<event>
 6    1  0.1956957E-002  0.3000000E+03  0.7818608E-02  0.1093470E+00
          3   -1    0    0  502    0  0.00000000000E+00  0.00000000000E+00  0.30961752231E+01  0.30961752231E+01  0.00000000000E+00 0.  1.
         13   -1    0    0    0    0 -0.00000000000E+00 -0.00000000000E+00 -0.10000000000E+04  0.10000000000E+04  0.00000000000E+00 0.  1.
    9000005    2    1    2  501    0 -0.33423445335E+02  0.36630335157E+01 -0.89735784105E+03  0.89802502129E+03  0.82036246595E+01 0.  0.
         13    1    3    3    0    0 -0.10858924760E+01 -0.68390712549E+00 -0.88566617018E+02  0.88575914003E+02  0.00000000000E+00 0.  1.
          1    1    3    3  501    0 -0.32337552859E+02  0.43469406411E+01 -0.80879122403E+03  0.80944910728E+03  0.00000000000E+00 0.  1.
         21    1    1    2  502  501  0.33423445335E+02 -0.36630335157E+01 -0.99545983731E+02  0.10507115394E+03  0.00000000000E+00 0.  1.
<mgrwt>
<rscale>  1 0.30000000E+03</rscale>
<asrwt>0</asrwt>
<pdfrwt beam="1">  1        3 0.11258843E-01 0.30000000E+03</pdfrwt>
<pdfrwt beam="2">0</pdfrwt>
<totfact> 0.27117271E+02</totfact>
</mgrwt>
</event>
<event>
 6    1  0.1956957E-002  0.3000000E+03  0.7818608E-02  0.1093470E+00
          3   -1    0    0  502    0  0.00000000000E+00  0.00000000000E+00  0.70931700118E+01  0.70931700118E+01  0.00000000000E+00 0.  1.
         13   -1    0    0    0    0 -0.00000000000E+00 -0.00000000000E+00 -0.10000000000E+04  0.10000000000E+04  0.00000000000E+00 0.  1.
    9000005    2    1    2  501    0  0.28184066303E+02  0.50594629100E+02 -0.86198290897E+03  0.86393161379E+03  0.30232183562E+01 0.  0.
         13    1    3    3    0    0  0.11330532537E+02  0.23185017001E+02 -0.37496202379E+03  0.37584896603E+03  0.00000000000E+00 0.  1.
          1    1    3    3  501    0  0.16853533766E+02  0.27409612099E+02 -0.48702088519E+03  0.48808264776E+03  0.00000000000E+00 0.  1.
         21    1    1    2  502  501 -0.28184066303E+02 -0.50594629100E+02 -0.13092392101E+03  0.14316155622E+03  0.00000000000E+00 0.  1.
<mgrwt>
<rscale>  1 0.30000000E+03</rscale>
<asrwt>0</asrwt>
<pdfrwt beam="1">  1        3 0.25793400E-01 0.30000000E+03</pdfrwt>
<pdfrwt beam="2">0</pdfrwt>
<totfact> 0.62234962E+01</totfact>
</mgrwt>
</event>
<event>
 6    1  0.1956957E-002  0.3000000E+03  0.7818608E-02  0.1093470E+00
          1   -1    0    0  502    0  0.00000000000E+00  0.00000000000E+00  0.17979500227E+01  0.17979500227E+01  0.00000000000E+00 0.  1.
         13   -1    0    0    0    0 -0.00000000000E+00 -0.00000000000E+00 -0.10000000000E+04  0.10000000000E+04  0.00000000000E+00 0.  1.
    9000005    2    1    2  501    0  0.23719104489E+02 -0.32892323829E+02 -0.63780147528E+03  0.63912306100E+03  0.65623433045E+01 0.  0.
         13    1    3    3    0    0  0.12776551583E+02 -0.15716491038E+02 -0.36573957045E+03  0.36629998875E+03  0.00000000000E+00 0.  1.
          3    1    3    3  501    0  0.10942552905E+02 -0.17175832791E+02 -0.27206190482E+03  0.27282307225E+03  0.00000000000E+00 0.  1.
         21    1    1    2  502  501 -0.23719104489E+02  0.32892323829E+02 -0.36040057470E+03  0.36267488903E+03  0.00000000000E+00 0.  1.
<mgrwt>
<rscale>  1 0.30000000E+03</rscale>
<asrwt>0</asrwt>
<pdfrwt beam="1">  1        1 0.65380139E-02 0.30000000E+03</pdfrwt>
<pdfrwt beam="2">0</pdfrwt>
<totfact> 0.13652167E+03</totfact>
</mgrwt>
</event>
<event>
 6    1  0.1956957E-002  0.3000000E+03  0.7818608E-02  0.1093470E+00
          3   -1    0    0  502    0  0.00000000000E+00  0.00000000000E+00  0.13701661993E+01  0.13701661993E+01  0.00000000000E+00 0.  1.
         13   -1    0    0    0    0 -0.00000000000E+00 -0.00000000000E+00 -0.10000000000E+04  0.10000000000E+04  0.00000000000E+00 0.  1.
    9000005    2    1    2  501    0 -0.34146178850E+02 -0.55167788409E+00 -0.69105102972E+03  0.69190128796E+03  0.30985038527E+01 0.  0.
         13    1    3    3    0    0 -0.15887151228E+02  0.12540622159E+01 -0.31464662097E+03  0.31504994895E+03  0.00000000000E+00 0.  1.
          1    1    3    3  501    0 -0.18259027622E+02 -0.18057401000E+01 -0.37640440875E+03  0.37685133901E+03  0.00000000000E+00 0.  1.
         21    1    1    2  502  501  0.34146178850E+02  0.55167788409E+00 -0.30757880408E+03  0.30946887824E+03  0.00000000000E+00 0.  1.
<mgrwt>
<rscale>  1 0.30000000E+03</rscale>
<asrwt>0</asrwt>
<pdfrwt beam="1">  1        3 0.49824330E-02 0.30000000E+03</pdfrwt>
<pdfrwt beam="2">0</pdfrwt>
<totfact> 0.99478476E+02</totfact>
</mgrwt>
</event>
<event>
 6    1  0.1956957E-002  0.3000000E+03  0.7818608E-02  0.1093470E+00
          3   -1    0    0  502    0  0.00000000000E+00  0.00000000000E+00  0.91558495256E+01  0.91558495256E+01  0.00000000000E+00 0.  1.
         13   -1    0    0    0    0 -0.00000000000E+00 -0.00000000000E+00 -0.10000000000E+04  0.10000000000E+04  0.00000000000E+00 0.  1.
    9000005    2    1    2  501    0 -0.80624992728E+02  0.91623469466E+01 -0.76269998841E+03  0.76701106487E+03  0.32192004774E+01 0.  0.
         13    1    3    3    0    0 -0.56058571105E+02  0.52783847589E+01 -0.53847447528E+03  0.54141036679E+03  0.00000000000E+00 0.  1.
          3    1    3    3  501    0 -0.24566421622E+02  0.38839621876E+01 -0.22422551313E+03  0.22560069808E+03  0.00000000000E+00 0.  1.
         21    1    1    2  502  501  0.80624992728E+02 -0.91623469466E+01 -0.22814416206E+03  0.24214478466E+03  0.00000000000E+00 0.  1.
<mgrwt>
<rscale>  1 0.30000000E+03</rscale>
<asrwt>0</asrwt>
<pdfrwt beam="1">  1        3 0.33294068E-01 0.30000000E+03</pdfrwt>
<pdfrwt beam="2">0</pdfrwt>
<totfact> 0.38326686E+01</totfact>
</mgrwt>
</event>
<event>
 6    1  0.1956957E-002  0.3000000E+03  0.7818608E-02  0.1093470E+00
          3   -1    0    0  502    0  0.00000000000E+00  0.00000000000E+00  0.17240562550E+01  0.17240562550E+01  0.00000000000E+00 0.  1.
         13   -1    0    0    0    0 -0.00000000000E+00 -0.00000000000E+00 -0.10000000000E+04  0.10000000000E+04  0.00000000000E+00 0.  1.
    9000005    2    1    2  501    0  0.18355353496E+02 -0.34767414405E+02 -0.65872661342E+03  0.65990621028E+03  0.31245840030E+01 0.  0.
         13    1    3    3    0    0  0.46774680133E+01 -0.11951545637E+02 -0.21037546287E+03  0.21076658542E+03  0.00000000000E+00 0.  1.
          1    1    3    3  501    0  0.13677885482E+02 -0.22815868769E+02 -0.44835115055E+03  0.44913962486E+03  0.00000000000E+00 0.  1.
         21    1    1    2  502  501 -0.18355353496E+02  0.34767414405E+02 -0.33954933032E+03  0.34181784598E+03  0.00000000000E+00 0.  1.
<mgrwt>
<rscale>  1 0.30000000E+03</rscale>
<asrwt>0</asrwt>
<pdfrwt beam="1">  1        3 0.62693087E-02 0.30000000E+03</pdfrwt>
<pdfrwt beam="2">0</pdfrwt>
<totfact> 0.69630746E+02</totfact>
</mgrwt>
</event>
<event>
 6    1  0.1956957E-002  0.3000000E+03  0.7818608E-02  0.1093470E+00
          3   -1    0    0  502    0  0.00000000000E+00  0.00000000000E+00  0.11395675103E+01  0.11395675103E+01  0.00000000000E+00 0.  1.
         13   -1    0    0    0    0 -0.00000000000E+00 -0.00000000000E+00 -0.10000000000E+04  0.10000000000E+04  0.00000000000E+00 0.  1.
    9000005    2    1    2  501    0  0.27721827058E+02  0.13917901501E+02 -0.69520014355E+03  0.69589904144E+03  0.31667973640E+01 0.  0.
         13    1    3    3    0    0  0.22268639533E+02  0.97514074000E+01 -0.54852684420E+03  0.54906527941E+03  0.00000000000E+00 0.  1.
          1    1    3    3  501    0  0.54531875244E+01  0.41664941012E+01 -0.14667329936E+03  0.14683376203E+03  0.00000000000E+00 0.  1.
         21    1    1    2  502  501 -0.27721827058E+02 -0.13917901501E+02 -0.30366028894E+03  0.30524052607E+03  0.00000000000E+00 0.  1.
<mgrwt>
<rscale>  1 0.30000000E+03</rscale>
<asrwt>0</asrwt>
<pdfrwt beam="1">  1        3 0.41438906E-02 0.30000000E+03</pdfrwt>
<pdfrwt beam="2">0</pdfrwt>
<totfact> 0.13215414E+03</totfact>
</mgrwt>
</event>
<event>
 6    1  0.1956957E-002  0.3000000E+03  0.7818608E-02  0.1093470E+00
          3   -1    0    0  502    0  0.00000000000E+00  0.00000000000E+00  0.30069514008E+01  0.30069514008E+01  0.00000000000E+00 0.  1.
         13   -1    0    0    0    0 -0.00000000000E+00 -0.00000000000E+00 -0.10000000000E+04  0.10000000000E+04  0.00000000000E+00 0.  1.
    9000005    2    1    2  501    0  0.34042774994E+02  0.38159364261E+02 -0.67896765034E+03  0.68089640896E+03  0.27931923586E+01 0.  0.
         13    1    3    3    0    0  0.52318954990E+01  0.52840204572E+01 -0.11136649744E+03  0.11161447197E+03  0.00000000000E+00 0.  1.
          3    1    3    3  501    0  0.28810879495E+02  0.32875343804E+02 -0.56760115290E+03  0.56928193699E+03  0.00000000000E+00 0.  1.
         21    1    1    2  502  501 -0.34042774994E+02 -0.38159364261E+02 -0.31802539826E+03  0.32211054244E+03  0.00000000000E+00 0.  1.
<mgrwt>
<rscale>  1 0.30000000E+03</rscale>
<asrwt>0</asrwt>
<pdfrwt beam="1">  1        3 0.10934392E-01 0.30000000E+03</pdfrwt>
<pdfrwt beam="2">0</pdfrwt>
<totfact> 0.28476297E+02</totfact>
</mgrwt>
</event>
<event>
 6    1  0.1956957E-002  0.3000000E+03  0.7818608E-02  0.1093470E+00
          3   -1    0    0  502    0  0.00000000000E+00  0.00000000000E+00  0.14760463440E+02  0.14760463440E+02  0.00000000000E+00 0.  1.
         13   -1    0    0    0    0 -0.00000000000E+00 -0.00000000000E+00 -0.10000000000E+04  0.10000000000E+04  0.00000000000E+00 0.  1.
    9000005    2    1    2  501    0  0.34693891701E+01  0.52918083548E+02 -0.94909888611E+03  0.95058486962E+03  0.32463053278E+01 0.  0.
         13    1    3    3    0    0  0.30309850215E+01  0.30122856518E+02 -0.56295312909E+03  0.56376661741E+03  0.00000000000E+00 0.  1.
          1    1    3    3  501    0  0.43840414857E+00  0.22795227031E+02 -0.38614575703E+03  0.38681825221E+03  0.00000000000E+00 0.  1.
         21    1    1    2  502  501 -0.34693891701E+01 -0.52918083548E+02 -0.36140650445E+02  0.64175593820E+02  0.00000000000E+00 0.  1.
<mgrwt>
<rscale>  1 0.30000000E+03</rscale>
<asrwt>0</asrwt>
<pdfrwt beam="1">  1        3 0.53674526E-01 0.30000000E+03</pdfrwt>
<pdfrwt beam="2">0</pdfrwt>
<totfact> 0.15194973E+01</totfact>
</mgrwt>
</event>
<event>
 6    1  0.1956957E-002  0.3000000E+03  0.7818608E-02  0.1093470E+00
          1   -1    0    0  502    0  0.00000000000E+00  0.00000000000E+00  0.20293759056E+01  0.20293759056E+01  0.00000000000E+00 0.  1.
         13   -1    0    0    0    0 -0.00000000000E+00 -0.00000000000E+00 -0.10000000000E+04  0.10000000000E+04  0.00000000000E+00 0.  1.
    9000005    2    1    2  501    0  0.35661210652E+02 -0.10956063625E+02 -0.77874785911E+03  0.77965496649E+03  0.46777590537E+01 0.  0.
         13    1    3    3    0    0  0.30248730030E+02 -0.10996552251E+02 -0.66573962177E+03  0.66651718194E+03  0.00000000000E+00 0.  1.
          1    1    3    3  501    0  0.54124806215E+01  0.40488625378E-01 -0.11300823733E+03  0.11313778454E+03  0.00000000000E+00 0.  1.
         21    1    1    2  502  501 -0.35661210652E+02  0.10956063625E+02 -0.21922276499E+03  0.22237440942E+03  0.00000000000E+00 0.  1.
<mgrwt>
<rscale>  1 0.30000000E+03</rscale>
<asrwt>0</asrwt>
<pdfrwt beam="1">  1        1 0.73795643E-02 0.30000000E+03</pdfrwt>
<pdfrwt beam="2">0</pdfrwt>
<totfact> 0.11525492E+03</totfact>
</mgrwt>
</event>
<event>
 6    1  0.1956957E-002  0.3000000E+03  0.7818608E-02  0.1093470E+00
          1   -1    0    0  502    0  0.00000000000E+00  0.00000000000E+00  0.81352520035E+01  0.81352520035E+01  0.00000000000E+00 0.  1.
         13   -1    0    0    0    0 -0.00000000000E+00 -0.00000000000E+00 -0.10000000000E+04  0.10000000000E+04  0.00000000000E+00 0.  1.
    9000005    2    1    2  501    0 -0.87598127006E-01  0.89954922957E+02 -0.46194321874E+03  0.47063295154E+03  0.34557046427E+01 0.  0.
         13    1    3    3    0    0  0.11760788084E+01  0.58503692249E+02 -0.30604026107E+03  0.31158418857E+03  0.00000000000E+00 0.  1.
          1    1    3    3  501    0 -0.12636769355E+01  0.31451230708E+02 -0.15590295767E+03  0.15904876297E+03  0.00000000000E+00 0.  1.
         21    1    1    2  502  501  0.87598127006E-01 -0.89954922957E+02 -0.52992152925E+03  0.53750230046E+03  0.00000000000E+00 0.  1.
<mgrwt>
<rscale>  1 0.30000000E+03</rscale>
<asrwt>0</asrwt>
<pdfrwt beam="1">  1        1 0.29582797E-01 0.30000000E+03</pdfrwt>
<pdfrwt beam="2">0</pdfrwt>
<totfact> 0.17540949E+02</totfact>
</mgrwt>
</event>
<event>
 6    1  0.1956957E-002  0.3000000E+03  0.7818608E-02  0.1093470E+00
          1   -1    0    0  502    0  0.00000000000E+00  0.00000000000E+00  0.37947031106E+01  0.37947031106E+01  0.00000000000E+00 0.  1.
         13   -1    0    0    0    0 -0.00000000000E+00 -0.00000000000E+00 -0.10000000000E+04  0.10000000000E+04  0.00000000000E+00 0.  1.
    9000005    2    1    2  501    0  0.54025914141E+02  0.28416967436E+02 -0.55612059285E+03  0.55949652602E+03  0.63186548325E+01 0.  0.
         13    1    3    3    0    0  0.28302112258E+02  0.13111041289E+02 -0.30871996858E+03  0.31029168207E+03  0.00000000000E+00 0.  1.
          1    1    3    3  501    0  0.25723801883E+02  0.15305926147E+02 -0.24740062427E+03  0.24920484395E+03  0.00000000000E+00 0.  1.
         21    1    1    2  502  501 -0.54025914141E+02 -0.28416967436E+02 -0.44008470404E+03  0.44429817709E+03  0.00000000000E+00 0.  1.
<mgrwt>
<rscale>  1 0.30000000E+03</rscale>
<asrwt>0</asrwt>
<pdfrwt beam="1">  1        1 0.13798950E-01 0.30000000E+03</pdfrwt>
<pdfrwt beam="2">0</pdfrwt>
<totfact> 0.48594253E+02</totfact>
</mgrwt>
</event>
<event>
 6    1  0.1956957E-002  0.3000000E+03  0.7818608E-02  0.1093470E+00
          1   -1    0    0  502    0  0.00000000000E+00  0.00000000000E+00  0.13329315702E+01  0.13329315702E+01  0.00000000000E+00 0.  1.
         13   -1    0    0    0    0 -0.00000000000E+00 -0.00000000000E+00 -0.10000000000E+04  0.10000000000E+04  0.00000000000E+00 0.  1.
    9000005    2    1    2  501    0  0.34752457203E+02  0.30910126278E+01 -0.35591892608E+03  0.35763854591E+03  0.31240895521E+01 0.  0.
         13    1    3    3    0    0  0.31454389486E+02  0.36619686925E+01 -0.32487757076E+03  0.32641725539E+03  0.00000000000E+00 0.  1.
          3    1    3    3  501    0  0.32980677170E+01 -0.57095606471E+00 -0.31041355324E+02  0.31221290522E+02  0.00000000000E+00 0.  1.
         21    1    1    2  502  501 -0.34752457203E+02 -0.30910126278E+01 -0.64274814235E+03  0.64369438566E+03  0.00000000000E+00 0.  1.
<mgrwt>
<rscale>  1 0.30000000E+03</rscale>
<asrwt>0</asrwt>
<pdfrwt beam="1">  1        1 0.48470341E-02 0.30000000E+03</pdfrwt>
<pdfrwt beam="2">0</pdfrwt>
<totfact> 0.20779723E+03</totfact>
</mgrwt>
</event>
<event>
 6    1  0.1956957E-002  0.3000000E+03  0.7818608E-02  0.1093470E+00
          1   -1    0    0  502    0  0.00000000000E+00  0.00000000000E+00  0.13783183534E+01  0.13783183534E+01  0.00000000000E+00 0.  1.
         13   -1    0    0    0    0 -0.00000000000E+00 -0.00000000000E+00 -0.10000000000E+04  0.10000000000E+04  0.00000000000E+00 0.  1.
    9000005    2    1    2  501    0  0.45766413511E+01  0.35284504037E+02 -0.37083926838E+03  0.37258844863E+03  0.58691738854E+01 0.  0.
         13    1    3    3    0    0  0.26208246376E+01  0.10661236907E+02 -0.14060012730E+03  0.14102810532E+03  0.00000000000E+00 0.  1.
          3    1    3    3  501    0  0.19558167136E+01  0.24623267130E+02 -0.23023914108E+03  0.23156034330E+03  0.00000000000E+00 0.  1.
         21    1    1    2  502  501 -0.45766413511E+01 -0.35284504037E+02 -0.62778241326E+03  0.62878986973E+03  0.00000000000E+00 0.  1.
<mgrwt>
<rscale>  1 0.30000000E+03</rscale>
<asrwt>0</asrwt>
<pdfrwt beam="1">  1        1 0.50120773E-02 0.30000000E+03</pdfrwt>
<pdfrwt beam="2">0</pdfrwt>
<totfact> 0.19824266E+03</totfact>
</mgrwt>
</event>
<event>
 6    1  0.1956957E-002  0.3000000E+03  0.7818608E-02  0.1093470E+00
          1   -1    0    0  502    0  0.00000000000E+00  0.00000000000E+00  0.25087155210E+02  0.25087155210E+02  0.00000000000E+00 0.  1.
         13   -1    0    0    0    0 -0.00000000000E+00 -0.00000000000E+00 -0.10000000000E+04  0.10000000000E+04  0.00000000000E+00 0.  1.
    9000005    2    1    2  501    0 -0.66739128445E+02 -0.16721675478E+02 -0.94910796260E+03  0.95160506460E+03  0.35423989327E+01 0.  0.
         13    1    3    3    0    0 -0.66220649714E+02 -0.16902956664E+02 -0.94140802232E+03  0.94388555920E+03  0.00000000000E+00 0.  1.
          1    1    3    3  501    0 -0.51847873110E+00  0.18128118582E+00 -0.76999402874E+01  0.77195053917E+01  0.00000000000E+00 0.  1.
         21    1    1    2  502  501  0.66739128445E+02  0.16721675478E+02 -0.25804882187E+02  0.73482090614E+02  0.00000000000E+00 0.  1.
<mgrwt>
<rscale>  1 0.30000000E+03</rscale>
<asrwt>0</asrwt>
<pdfrwt beam="1">  1        1 0.91226211E-01 0.30000000E+03</pdfrwt>
<pdfrwt beam="2">0</pdfrwt>
<totfact> 0.39073534E+01</totfact>
</mgrwt>
</event>
<event>
 6    1  0.1956957E-002  0.3000000E+03  0.7818608E-02  0.1093470E+00
          1   -1    0    0  502    0  0.00000000000E+00  0.00000000000E+00  0.21821100443E+01  0.21821100443E+01  0.00000000000E+00 0.  1.
         13   -1    0    0    0    0 -0.00000000000E+00 -0.00000000000E+00 -0.10000000000E+04  0.10000000000E+04  0.00000000000E+00 0.  1.
    9000005    2    1    2  501    0  0.44459456449E+02 -0.97012087161E+00 -0.65017166357E+03  0.65170317612E+03  0.40315328940E+01 0.  0.
         13    1    3    3    0    0  0.17839699020E+02  0.82924404635E+00 -0.23831895526E+03  0.23898716900E+03  0.00000000000E+00 0.  1.
          1    1    3    3  501    0  0.26619757429E+02 -0.17993649180E+01 -0.41185270831E+03  0.41271600713E+03  0.00000000000E+00 0.  1.
         21    1    1    2  502  501 -0.44459456449E+02  0.97012087161E+00 -0.34764622639E+03  0.35047893392E+03  0.00000000000E+00 0.  1.
<mgrwt>
<rscale>  1 0.30000000E+03</rscale>
<asrwt>0</asrwt>
<pdfrwt beam="1">  1        1 0.79349623E-02 0.30000000E+03</pdfrwt>
<pdfrwt beam="2">0</pdfrwt>
<totfact> 0.10416150E+03</totfact>
</mgrwt>
</event>
<event>
 6    1  0.1956957E-002  0.3000000E+03  0.7818608E-02  0.1093470E+00
          1   -1    0    0  502    0  0.00000000000E+00  0.00000000000E+00  0.17097276098E+01  0.17097276098E+01  0.00000000000E+00 0.  1.
         13   -1    0    0    0    0 -0.00000000000E+00 -0.00000000000E+00 -0.10000000000E+04  0.10000000000E+04  0.00000000000E+00 0.  1.
    9000005    2    1    2  501    0  0.55558157376E+01  0.29851739551E+02 -0.83874431777E+03  0.83930004478E+03  0.32467099650E+01 0.  0.
         13    1    3    3    0    0  0.36503516197E+01  0.22611144778E+02 -0.59464837134E+03  0.59508929958E+03  0.00000000000E+00 0.  1.
          3    1    3    3  501    0  0.19054641179E+01  0.72405947729E+01 -0.24409594644E+03  0.24421074520E+03  0.00000000000E+00 0.  1.
         21    1    1    2  502  501 -0.55558157376E+01 -0.29851739551E+02 -0.15954595462E+03  0.16240968283E+03  0.00000000000E+00 0.  1.
<mgrwt>
<rscale>  1 0.30000000E+03</rscale>
<asrwt>0</asrwt>
<pdfrwt beam="1">  1        1 0.62172044E-02 0.30000000E+03</pdfrwt>
<pdfrwt beam="2">0</pdfrwt>
<totfact> 0.14649367E+03</totfact>
</mgrwt>
</event>
<event>
 6    1  0.1956957E-002  0.3000000E+03  0.7818608E-02  0.1093470E+00
          1   -1    0    0  502    0  0.00000000000E+00  0.00000000000E+00  0.11622714248E+01  0.11622714248E+01  0.00000000000E+00 0.  1.
         13   -1    0    0    0    0 -0.00000000000E+00 -0.00000000000E+00 -0.10000000000E+04  0.10000000000E+04  0.00000000000E+00 0.  1.
    9000005    2    1    2  501    0 -0.33944014347E+02  0.22544628586E+01 -0.50958567489E+03  0.51072894186E+03  0.30353397736E+01 0.  0.
         13    1    3    3    0    0 -0.74772343851E+01  0.95546860929E+00 -0.96243674826E+02  0.96538421876E+02  0.00000000000E+00 0.  1.
          1    1    3    3  501    0 -0.26466779962E+02  0.12989942493E+01 -0.41334200007E+03  0.41419051999E+03  0.00000000000E+00 0.  1.
         21    1    1    2  502  501  0.33944014347E+02 -0.22544628586E+01 -0.48925205368E+03  0.49043332956E+03  0.00000000000E+00 0.  1.
<mgrwt>
<rscale>  1 0.30000000E+03</rscale>
<asrwt>0</asrwt>
<pdfrwt beam="1">  1        1 0.42264505E-02 0.30000000E+03</pdfrwt>
<pdfrwt beam="2">0</pdfrwt>
<totfact> 0.25198058E+03</totfact>
</mgrwt>
</event>
<event>
 6    1  0.1956957E-002  0.3000000E+03  0.7818608E-02  0.1093470E+00
          1   -1    0    0  502    0  0.00000000000E+00  0.00000000000E+00  0.16355367608E+01  0.16355367608E+01  0.00000000000E+00 0.  1.
         13   -1    0    0    0    0 -0.00000000000E+00 -0.00000000000E+00 -0.10000000000E+04  0.10000000000E+04  0.00000000000E+00 0.  1.
    9000005    2    1    2  501    0  0.18844601507E+02  0.34598703613E+02 -0.60947255916E+03  0.61075307059E+03  0.32130319384E+01 0.  0.
         13    1    3    3    0    0  0.52740312986E+01  0.10534375251E+02 -0.16109570585E+03  0.16152589548E+03  0.00000000000E+00 0.  1.
          1    1    3    3  501    0  0.13570570209E+02  0.24064328361E+02 -0.44837685331E+03  0.44922717511E+03  0.00000000000E+00 0.  1.
         21    1    1    2  502  501 -0.18844601507E+02 -0.34598703613E+02 -0.38889190408E+03  0.39088246617E+03  0.00000000000E+00 0.  1.
<mgrwt>
<rscale>  1 0.30000000E+03</rscale>
<asrwt>0</asrwt>
<pdfrwt beam="1">  1        1 0.59474189E-02 0.30000000E+03</pdfrwt>
<pdfrwt beam="2">0</pdfrwt>
<totfact> 0.15589787E+03</totfact>
</mgrwt>
</event>
<event>
 6    1  0.1956957E-002  0.3000000E+03  0.7818608E-02  0.1093470E+00
          1   -1    0    0  502    0  0.00000000000E+00  0.00000000000E+00  0.50923425505E+01  0.50923425505E+01  0.00000000000E+00 0.  1.
         13   -1    0    0    0    0 -0.00000000000E+00 -0.00000000000E+00 -0.10000000000E+04  0.10000000000E+04  0.00000000000E+00 0.  1.
    9000005    2    1    2  501    0  0.72368549210E+01 -0.44334106587E+02 -0.88783741570E+03  0.88898066465E+03  0.36688325998E+01 0.  0.
         13    1    3    3    0    0  0.40923396572E+01 -0.28466875835E+02 -0.53446597992E+03  0.53523919321E+03  0.00000000000E+00 0.  1.
          1    1    3    3  501    0  0.31445152637E+01 -0.15867230752E+02 -0.35337143578E+03  0.35374147144E+03  0.00000000000E+00 0.  1.
         21    1    1    2  502  501 -0.72368549210E+01  0.44334106587E+02 -0.10707024175E+03  0.11611167790E+03  0.00000000000E+00 0.  1.
<mgrwt>
<rscale>  1 0.30000000E+03</rscale>
<asrwt>0</asrwt>
<pdfrwt beam="1">  1        1 0.18517648E-01 0.30000000E+03</pdfrwt>
<pdfrwt beam="2">0</pdfrwt>
<totfact> 0.32641511E+02</totfact>
</mgrwt>
</event>
<event>
 6    1  0.1956957E-002  0.3000000E+03  0.7818608E-02  0.1093470E+00
          1   -1    0    0  502    0  0.00000000000E+00  0.00000000000E+00  0.38361970612E+01  0.38361970612E+01  0.00000000000E+00 0.  1.
         13   -1    0    0    0    0 -0.00000000000E+00 -0.00000000000E+00 -0.10000000000E+04  0.10000000000E+04  0.00000000000E+00 0.  1.
    9000005    2    1    2  501    0 -0.20411819452E+02  0.46533163163E+02 -0.78471343076E+03  0.78636611281E+03  0.38101604106E+01 0.  0.
         13    1    3    3    0    0 -0.55984936477E+01  0.15533351699E+02 -0.27670060266E+03  0.27719280593E+03  0.00000000000E+00 0.  1.
          1    1    3    3  501    0 -0.14813325804E+02  0.30999811464E+02 -0.50801282809E+03  0.50917330688E+03  0.00000000000E+00 0.  1.
         21    1    1    2  502  501  0.20411819452E+02 -0.46533163163E+02 -0.21145037218E+03  0.21747008425E+03  0.00000000000E+00 0.  1.
<mgrwt>
<rscale>  1 0.30000000E+03</rscale>
<asrwt>0</asrwt>
<pdfrwt beam="1">  1        1 0.13949837E-01 0.30000000E+03</pdfrwt>
<pdfrwt beam="2">0</pdfrwt>
<totfact> 0.47879732E+02</totfact>
</mgrwt>
</event>
<event>
 6    1  0.1956957E-002  0.3000000E+03  0.7818608E-02  0.1093470E+00
          1   -1    0    0  502    0  0.00000000000E+00  0.00000000000E+00  0.13805891509E+01  0.13805891509E+01  0.00000000000E+00 0.  1.
         13   -1    0    0    0    0 -0.00000000000E+00 -0.00000000000E+00 -0.10000000000E+04  0.10000000000E+04  0.00000000000E+00 0.  1.
    9000005    2    1    2  501    0  0.22006145149E+02 -0.21690135874E+02 -0.76980329182E+03  0.77048765131E+03  0.99689669139E+01 0.  0.
         13    1    3    3    0    0  0.16191025088E+02 -0.11620522860E+02 -0.56809407619E+03  0.56844354622E+03  0.00000000000E+00 0.  1.
          1    1    3    3  501    0  0.58151200607E+01 -0.10069613014E+02 -0.20170921564E+03  0.20204410509E+03  0.00000000000E+00 0.  1.
         21    1    1    2  502  501 -0.22006145149E+02  0.21690135874E+02 -0.22881611903E+03  0.23089293784E+03  0.00000000000E+00 0.  1.
<mgrwt>
<rscale>  1 0.30000000E+03</rscale>
<asrwt>0</asrwt>
<pdfrwt beam="1">  1        1 0.50203348E-02 0.30000000E+03</pdfrwt>
<pdfrwt beam="2">0</pdfrwt>
<totfact> 0.19778452E+03</totfact>
</mgrwt>
</event>
<event>
 6    1  0.1956957E-002  0.3000000E+03  0.7818608E-02  0.1093470E+00
          1   -1    0    0  502    0  0.00000000000E+00  0.00000000000E+00  0.10188968932E+01  0.10188968932E+01  0.00000000000E+00 0.  1.
         13   -1    0    0    0    0 -0.00000000000E+00 -0.00000000000E+00 -0.10000000000E+04  0.10000000000E+04  0.00000000000E+00 0.  1.
    9000005    2    1    2  501    0 -0.68363958816E+01  0.30730906917E+02 -0.44318611099E+03  0.44433299065E+03  0.51722969959E+01 0.  0.
         13    1    3    3    0    0 -0.74633103990E+01  0.25632698519E+02 -0.38189028053E+03  0.38282231205E+03  0.00000000000E+00 0.  1.
          1    1    3    3  501    0  0.62691451734E+00  0.50982083975E+01 -0.61295830453E+02  0.61510678598E+02  0.00000000000E+00 0.  1.
         21    1    1    2  502  501  0.68363958816E+01 -0.30730906917E+02 -0.55579499212E+03  0.55668590625E+03  0.00000000000E+00 0.  1.
<mgrwt>
<rscale>  1 0.30000000E+03</rscale>
<asrwt>0</asrwt>
<pdfrwt beam="1">  1        1 0.37050874E-02 0.30000000E+03</pdfrwt>
<pdfrwt beam="2">0</pdfrwt>
<totfact> 0.30329225E+03</totfact>
</mgrwt>
</event>
<event>
 6    1  0.1956957E-002  0.3000000E+03  0.7818608E-02  0.1093470E+00
          3   -1    0    0  502    0  0.00000000000E+00  0.00000000000E+00  0.27086536955E+01  0.27086536955E+01  0.00000000000E+00 0.  1.
         13   -1    0    0    0    0 -0.00000000000E+00 -0.00000000000E+00 -0.10000000000E+04  0.10000000000E+04  0.00000000000E+00 0.  1.
    9000005    2    1    2  501    0  0.24821132252E+02 -0.43188707522E+02 -0.63974706996E+03  0.64171106006E+03  0.59513038767E+01 0.  0.
         13    1    3    3    0    0  0.20305663204E+02 -0.35038888543E+02 -0.54704375920E+03  0.54854071695E+03  0.00000000000E+00 0.  1.
          3    1    3    3  501    0  0.45154690478E+01 -0.81498189785E+01 -0.92703310753E+02  0.93170343107E+02  0.00000000000E+00 0.  1.
         21    1    1    2  502  501 -0.24821132252E+02  0.43188707522E+02 -0.35754427635E+03  0.36099759364E+03  0.00000000000E+00 0.  1.
<mgrwt>
<rscale>  1 0.30000000E+03</rscale>
<asrwt>0</asrwt>
<pdfrwt beam="1">  1        3 0.98496706E-02 0.30000000E+03</pdfrwt>
<pdfrwt beam="2">0</pdfrwt>
<totfact> 0.33857264E+02</totfact>
</mgrwt>
</event>
<event>
 6    1  0.1956957E-002  0.3000000E+03  0.7818608E-02  0.1093470E+00
          1   -1    0    0  502    0  0.00000000000E+00  0.00000000000E+00  0.56616344705E+01  0.56616344705E+01  0.00000000000E+00 0.  1.
         13   -1    0    0    0    0 -0.00000000000E+00 -0.00000000000E+00 -0.10000000000E+04  0.10000000000E+04  0.00000000000E+00 0.  1.
    9000005    2    1    2  501    0  0.50439603759E+02 -0.13618508724E+02 -0.85892341054E+03  0.86051747358E+03  0.33585334181E+01 0.  0.
         13    1    3    3    0    0  0.45361740658E+02 -0.11180966483E+02 -0.76442156775E+03  0.76584791882E+03  0.00000000000E+00 0.  1.
          1    1    3    3  501    0  0.50778631009E+01 -0.24375422416E+01 -0.94501842795E+02  0.94669554755E+02  0.00000000000E+00 0.  1.
         21    1    1    2  502  501 -0.50439603759E+02  0.13618508724E+02 -0.13541495499E+03  0.14514416089E+03  0.00000000000E+00 0.  1.
<mgrwt>
<rscale>  1 0.30000000E+03</rscale>
<asrwt>0</asrwt>
<pdfrwt beam="1">  1        1 0.20587805E-01 0.30000000E+03</pdfrwt>
<pdfrwt beam="2">0</pdfrwt>
<totfact> 0.28324097E+02</totfact>
</mgrwt>
</event>
<event>
 6    1  0.1956957E-002  0.3000000E+03  0.7818608E-02  0.1093470E+00
          3   -1    0    0  502    0  0.00000000000E+00  0.00000000000E+00  0.18836705557E+01  0.18836705557E+01  0.00000000000E+00 0.  1.
         13   -1    0    0    0    0 -0.00000000000E+00 -0.00000000000E+00 -0.10000000000E+04  0.10000000000E+04  0.00000000000E+00 0.  1.
    9000005    2    1    2  501    0  0.93126884946E+01 -0.38328607460E+02 -0.29334825807E+03  0.29601268890E+03  0.38083013898E+01 0.  0.
         13    1    3    3    0    0  0.31777249262E+01 -0.85866051863E+01 -0.77383188859E+02  0.77922946827E+02  0.00000000000E+00 0.  1.
          1    1    3    3  501    0  0.61349635684E+01 -0.29742002274E+02 -0.21596506921E+03  0.21808974207E+03  0.00000000000E+00 0.  1.
         21    1    1    2  502  501 -0.93126884946E+01  0.38328607460E+02 -0.70476807137E+03  0.70587098166E+03  0.00000000000E+00 0.  1.
<mgrwt>
<rscale>  1 0.30000000E+03</rscale>
<asrwt>0</asrwt>
<pdfrwt beam="1">  1        3 0.68497256E-02 0.30000000E+03</pdfrwt>
<pdfrwt beam="2">0</pdfrwt>
<totfact> 0.60609979E+02</totfact>
</mgrwt>
</event>
<event>
 6    1  0.1956957E-002  0.3000000E+03  0.7818608E-02  0.1093470E+00
          1   -1    0    0  502    0  0.00000000000E+00  0.00000000000E+00  0.34945367137E+01  0.34945367137E+01  0.00000000000E+00 0.  1.
         13   -1    0    0    0    0 -0.00000000000E+00 -0.00000000000E+00 -0.10000000000E+04  0.10000000000E+04  0.00000000000E+00 0.  1.
    9000005    2    1    2  501    0 -0.26091793224E+02 -0.26848574892E+02 -0.88635650174E+03  0.88715700460E+03  0.42514698472E+01 0.  0.
         13    1    3    3    0    0 -0.13088213225E+02 -0.11098011554E+02 -0.43608174013E+03  0.43641923796E+03  0.00000000000E+00 0.  1.
          1    1    3    3  501    0 -0.13003579999E+02 -0.15750563339E+02 -0.45027476160E+03  0.45073776664E+03  0.00000000000E+00 0.  1.
         21    1    1    2  502  501  0.26091793224E+02  0.26848574892E+02 -0.11014896155E+03  0.11633753211E+03  0.00000000000E+00 0.  1.
<mgrwt>
<rscale>  1 0.30000000E+03</rscale>
<asrwt>0</asrwt>
<pdfrwt beam="1">  1        1 0.12707433E-01 0.30000000E+03</pdfrwt>
<pdfrwt beam="2">0</pdfrwt>
<totfact> 0.54379639E+02</totfact>
</mgrwt>
</event>
<event>
 6    1  0.1956957E-002  0.3000000E+03  0.7818608E-02  0.1093470E+00
          1   -1    0    0  502    0  0.00000000000E+00  0.00000000000E+00  0.17125163305E+01  0.17125163305E+01  0.00000000000E+00 0.  1.
         13   -1    0    0    0    0 -0.00000000000E+00 -0.00000000000E+00 -0.10000000000E+04  0.10000000000E+04  0.00000000000E+00 0.  1.
    9000005    2    1    2  501    0 -0.36482088813E+02  0.85546044145E+00 -0.73432980953E+03  0.73524426615E+03  0.34910064794E+01 0.  0.
         13    1    3    3    0    0 -0.14933423067E+02  0.14545186760E-01 -0.33480107545E+03  0.33513395450E+03  0.00000000000E+00 0.  1.
          1    1    3    3  501    0 -0.21548665746E+02  0.84091525469E+00 -0.39952873409E+03  0.40011031166E+03  0.00000000000E+00 0.  1.
         21    1    1    2  502  501  0.36482088813E+02 -0.85546044145E+00 -0.26395767414E+03  0.26646825018E+03  0.00000000000E+00 0.  1.
<mgrwt>
<rscale>  1 0.30000000E+03</rscale>
<asrwt>0</asrwt>
<pdfrwt beam="1">  1        1 0.62273452E-02 0.30000000E+03</pdfrwt>
<pdfrwt beam="2">0</pdfrwt>
<totfact> 0.14615935E+03</totfact>
</mgrwt>
</event>
<event>
 6    1  0.1956957E-002  0.3000000E+03  0.7818608E-02  0.1093470E+00
          1   -1    0    0  502    0  0.00000000000E+00  0.00000000000E+00  0.17425083600E+01  0.17425083600E+01  0.00000000000E+00 0.  1.
         13   -1    0    0    0    0 -0.00000000000E+00 -0.00000000000E+00 -0.10000000000E+04  0.10000000000E+04  0.00000000000E+00 0.  1.
    9000005    2    1    2  501    0 -0.79701434046E+01 -0.40382670586E+02 -0.42211523416E+03  0.42413175351E+03  0.34914398398E+01 0.  0.
         13    1    3    3    0    0 -0.16997034814E+01 -0.81327109743E+01 -0.10048198568E+03  0.10082489487E+03  0.00000000000E+00 0.  1.
          3    1    3    3  501    0 -0.62704399232E+01 -0.32249959612E+02 -0.32163324848E+03  0.32330685863E+03  0.00000000000E+00 0.  1.
         21    1    1    2  502  501  0.79701434046E+01  0.40382670586E+02 -0.57614225748E+03  0.57761075485E+03  0.00000000000E+00 0.  1.
<mgrwt>
<rscale>  1 0.30000000E+03</rscale>
<asrwt>0</asrwt>
<pdfrwt beam="1">  1        1 0.63364074E-02 0.30000000E+03</pdfrwt>
<pdfrwt beam="2">0</pdfrwt>
<totfact> 0.14264552E+03</totfact>
</mgrwt>
</event>
<event>
 6    1  0.1956957E-002  0.3000000E+03  0.7818608E-02  0.1093470E+00
          1   -1    0    0  502    0  0.00000000000E+00  0.00000000000E+00  0.11851170722E+01  0.11851170722E+01  0.00000000000E+00 0.  1.
         13   -1    0    0    0    0 -0.00000000000E+00 -0.00000000000E+00 -0.10000000000E+04  0.10000000000E+04  0.00000000000E+00 0.  1.
    9000005    2    1    2  501    0  0.99177842274E+01 -0.32118358226E+02 -0.39744680887E+03  0.39887829171E+03  0.31582177442E+01 0.  0.
         13    1    3    3    0    0  0.28224032418E+01 -0.14431357222E+02 -0.17454073737E+03  0.17515906780E+03  0.00000000000E+00 0.  1.
          3    1    3    3  501    0  0.70953809856E+01 -0.17687001004E+02 -0.22290607149E+03  0.22371922391E+03  0.00000000000E+00 0.  1.
         21    1    1    2  502  501 -0.99177842274E+01  0.32118358226E+02 -0.60136807406E+03  0.60230682536E+03  0.00000000000E+00 0.  1.
<mgrwt>
<rscale>  1 0.30000000E+03</rscale>
<asrwt>0</asrwt>
<pdfrwt beam="1">  1        1 0.43095257E-02 0.30000000E+03</pdfrwt>
<pdfrwt beam="2">0</pdfrwt>
<totfact> 0.24516879E+03</totfact>
</mgrwt>
</event>
<event>
 6    1  0.1956957E-002  0.3000000E+03  0.7818608E-02  0.1093470E+00
          1   -1    0    0  502    0  0.00000000000E+00  0.00000000000E+00  0.40097302345E+01  0.40097302345E+01  0.00000000000E+00 0.  1.
         13   -1    0    0    0    0 -0.00000000000E+00 -0.00000000000E+00 -0.10000000000E+04  0.10000000000E+04  0.00000000000E+00 0.  1.
    9000005    2    1    2  501    0  0.21864910823E+01 -0.34739665292E+02 -0.91728971328E+03  0.91795508086E+03  0.30801460048E+01 0.  0.
         13    1    3    3    0    0 -0.53819446943E+00 -0.11293112096E+02 -0.27839721942E+03  0.27862669616E+03  0.00000000000E+00 0.  1.
          1    1    3    3  501    0  0.27246855517E+01 -0.23446553195E+02 -0.63889249386E+03  0.63932838470E+03  0.00000000000E+00 0.  1.
         21    1    1    2  502  501 -0.21864910823E+01  0.34739665292E+02 -0.78700556484E+02  0.86054649373E+02  0.00000000000E+00 0.  1.
<mgrwt>
<rscale>  1 0.30000000E+03</rscale>
<asrwt>0</asrwt>
<pdfrwt beam="1">  1        1 0.14580868E-01 0.30000000E+03</pdfrwt>
<pdfrwt beam="2">0</pdfrwt>
<totfact> 0.45082954E+02</totfact>
</mgrwt>
</event>
<event>
 6    1  0.1956957E-002  0.3000000E+03  0.7818608E-02  0.1093470E+00
          3   -1    0    0  502    0  0.00000000000E+00  0.00000000000E+00  0.40279890141E+01  0.40279890141E+01  0.00000000000E+00 0.  1.
         13   -1    0    0    0    0 -0.00000000000E+00 -0.00000000000E+00 -0.10000000000E+04  0.10000000000E+04  0.00000000000E+00 0.  1.
    9000005    2    1    2  501    0 -0.24841933577E+02 -0.22609586451E+02 -0.92383032022E+03  0.92444948306E+03  0.40088787619E+01 0.  0.
         13    1    3    3    0    0 -0.86588981394E+01 -0.53988827676E+01 -0.27632183974E+03  0.27651018710E+03  0.00000000000E+00 0.  1.
          1    1    3    3  501    0 -0.16183035438E+02 -0.17210703683E+02 -0.64750848048E+03  0.64793929596E+03  0.00000000000E+00 0.  1.
         21    1    1    2  502  501  0.24841933577E+02  0.22609586451E+02 -0.72141690769E+02  0.79578505957E+02  0.00000000000E+00 0.  1.
<mgrwt>
<rscale>  1 0.30000000E+03</rscale>
<asrwt>0</asrwt>
<pdfrwt beam="1">  1        3 0.14647264E-01 0.30000000E+03</pdfrwt>
<pdfrwt beam="2">0</pdfrwt>
<totfact> 0.17343621E+02</totfact>
</mgrwt>
</event>
<event>
 6    1  0.1956957E-002  0.3000000E+03  0.7818608E-02  0.1093470E+00
          1   -1    0    0  502    0  0.00000000000E+00  0.00000000000E+00  0.87994287514E+01  0.87994287514E+01  0.00000000000E+00 0.  1.
         13   -1    0    0    0    0 -0.00000000000E+00 -0.00000000000E+00 -0.10000000000E+04  0.10000000000E+04  0.00000000000E+00 0.  1.
    9000005    2    1    2  501    0 -0.44238714531E+02  0.41079190572E+01 -0.93981139282E+03  0.94086720870E+03  0.34222006913E+01 0.  0.
         13    1    3    3    0    0 -0.19786953992E+02  0.30798675543E+01 -0.44775965089E+03  0.44820722227E+03  0.00000000000E+00 0.  1.
          3    1    3    3  501    0 -0.24451760539E+02  0.10280515029E+01 -0.49205174194E+03  0.49265998643E+03  0.00000000000E+00 0.  1.
         21    1    1    2  502  501  0.44238714531E+02 -0.41079190572E+01 -0.51389178425E+02  0.67932220055E+02  0.00000000000E+00 0.  1.
<mgrwt>
<rscale>  1 0.30000000E+03</rscale>
<asrwt>0</asrwt>
<pdfrwt beam="1">  1        1 0.31997990E-01 0.30000000E+03</pdfrwt>
<pdfrwt beam="2">0</pdfrwt>
<totfact> 0.15825536E+02</totfact>
</mgrwt>
</event>
<event>
 6    1  0.1956957E-002  0.3000000E+03  0.7818608E-02  0.1093470E+00
          3   -1    0    0  502    0  0.00000000000E+00  0.00000000000E+00  0.27870105687E+01  0.27870105687E+01  0.00000000000E+00 0.  1.
         13   -1    0    0    0    0 -0.00000000000E+00 -0.00000000000E+00 -0.10000000000E+04  0.10000000000E+04  0.00000000000E+00 0.  1.
    9000005    2    1    2  501    0 -0.31998887004E+02  0.31909860802E+02 -0.75751220875E+03  0.75886359586E+03  0.26538131559E+01 0.  0.
         13    1    3    3    0    0 -0.17977703911E+02  0.18313443448E+02 -0.40841908092E+03  0.40922454192E+03  0.00000000000E+00 0.  1.
          1    1    3    3  501    0 -0.14021183093E+02  0.13596417354E+02 -0.34909312783E+03  0.34963905394E+03  0.00000000000E+00 0.  1.
         21    1    1    2  502  501  0.31998887004E+02 -0.31909860802E+02 -0.23970078068E+03  0.24392341471E+03  0.00000000000E+00 0.  1.
<mgrwt>
<rscale>  1 0.30000000E+03</rscale>
<asrwt>0</asrwt>
<pdfrwt beam="1">  1        3 0.10134605E-01 0.30000000E+03</pdfrwt>
<pdfrwt beam="2">0</pdfrwt>
<totfact> 0.32303878E+02</totfact>
</mgrwt>
</event>
<event>
 6    1  0.1956957E-002  0.3000000E+03  0.7818608E-02  0.1093470E+00
          1   -1    0    0  502    0  0.00000000000E+00  0.00000000000E+00  0.11015827318E+01  0.11015827318E+01  0.00000000000E+00 0.  1.
         13   -1    0    0    0    0 -0.00000000000E+00 -0.00000000000E+00 -0.10000000000E+04  0.10000000000E+04  0.00000000000E+00 0.  1.
    9000005    2    1    2  501    0 -0.28735430241E+02  0.12663277804E+02 -0.65903687187E+03  0.65979240677E+03  0.32152745019E+01 0.  0.
         13    1    3    3    0    0 -0.16974776957E+02  0.91925732007E+01 -0.40282086013E+03  0.40328314100E+03  0.00000000000E+00 0.  1.
          3    1    3    3  501    0 -0.11760653285E+02  0.34707046032E+01 -0.25621601174E+03  0.25650926577E+03  0.00000000000E+00 0.  1.
         21    1    1    2  502  501  0.28735430241E+02 -0.12663277804E+02 -0.33986154540E+03  0.34130917597E+03  0.00000000000E+00 0.  1.
<mgrwt>
<rscale>  1 0.30000000E+03</rscale>
<asrwt>0</asrwt>
<pdfrwt beam="1">  1        1 0.40057638E-02 0.30000000E+03</pdfrwt>
<pdfrwt beam="2">0</pdfrwt>
<totfact> 0.27174378E+03</totfact>
</mgrwt>
</event>
<event>
 6    1  0.1956957E-002  0.3000000E+03  0.7818608E-02  0.1093470E+00
          1   -1    0    0  502    0  0.00000000000E+00  0.00000000000E+00  0.96010335067E+00  0.96010335067E+00  0.00000000000E+00 0.  1.
         13   -1    0    0    0    0 -0.00000000000E+00 -0.00000000000E+00 -0.10000000000E+04  0.10000000000E+04  0.00000000000E+00 0.  1.
    9000005    2    1    2  501    0 -0.26370642705E+02 -0.15800750759E+02 -0.54760340780E+03  0.54847808383E+03  0.36934659781E+01 0.  0.
         13    1    3    3    0    0 -0.43081772997E+01 -0.18234071038E+01 -0.64686167840E+02  0.64855111710E+02  0.00000000000E+00 0.  1.
          1    1    3    3  501    0 -0.22062465405E+02 -0.13977343655E+02 -0.48291723996E+03  0.48362297212E+03  0.00000000000E+00 0.  1.
         21    1    1    2  502  501  0.26370642705E+02  0.15800750759E+02 -0.45143648885E+03  0.45248201952E+03  0.00000000000E+00 0.  1.
<mgrwt>
<rscale>  1 0.30000000E+03</rscale>
<asrwt>0</asrwt>
<pdfrwt beam="1">  1        1 0.34912923E-02 0.30000000E+03</pdfrwt>
<pdfrwt beam="2">0</pdfrwt>
<totfact> 0.32974164E+03</totfact>
</mgrwt>
</event>
<event>
 6    1  0.1956957E-002  0.3000000E+03  0.7818608E-02  0.1093470E+00
          1   -1    0    0  502    0  0.00000000000E+00  0.00000000000E+00  0.68624743841E+01  0.68624743841E+01  0.00000000000E+00 0.  1.
         13   -1    0    0    0    0 -0.00000000000E+00 -0.00000000000E+00 -0.10000000000E+04  0.10000000000E+04  0.00000000000E+00 0.  1.
    9000005    2    1    2  501    0  0.16461867512E+02 -0.41553603584E+02 -0.92037814301E+03  0.92147147480E+03  0.40072044244E+01 0.  0.
         13    1    3    3    0    0  0.16639170533E+02 -0.40213760299E+02 -0.89073688568E+03  0.89179942141E+03  0.00000000000E+00 0.  1.
          1    1    3    3  501    0 -0.17730302102E+00 -0.13398432855E+01 -0.29641257328E+02  0.29672053390E+02  0.00000000000E+00 0.  1.
         21    1    1    2  502  501 -0.16461867512E+02  0.41553603584E+02 -0.72759382609E+02  0.85390999587E+02  0.00000000000E+00 0.  1.
<mgrwt>
<rscale>  1 0.30000000E+03</rscale>
<asrwt>0</asrwt>
<pdfrwt beam="1">  1        1 0.24954505E-01 0.30000000E+03</pdfrwt>
<pdfrwt beam="2">0</pdfrwt>
<totfact> 0.21946310E+02</totfact>
</mgrwt>
</event>
<event>
 6    1  0.1956957E-002  0.3000000E+03  0.7818608E-02  0.1093470E+00
          3   -1    0    0  502    0  0.00000000000E+00  0.00000000000E+00  0.25397937698E+01  0.25397937698E+01  0.00000000000E+00 0.  1.
         13   -1    0    0    0    0 -0.00000000000E+00 -0.00000000000E+00 -0.10000000000E+04  0.10000000000E+04  0.00000000000E+00 0.  1.
    9000005    2    1    2  501    0 -0.54849261418E+01 -0.49326058158E+02 -0.41480056294E+03  0.41777026280E+03  0.30563112997E+01 0.  0.
         13    1    3    3    0    0 -0.57822169840E+01 -0.42498462941E+02 -0.35789789986E+03  0.36045868017E+03  0.00000000000E+00 0.  1.
          3    1    3    3  501    0  0.29729084221E+00 -0.68275952177E+01 -0.56902663081E+02  0.57311582634E+02  0.00000000000E+00 0.  1.
         21    1    1    2  502  501  0.54849261418E+01  0.49326058158E+02 -0.58265964329E+03  0.58476953097E+03  0.00000000000E+00 0.  1.
<mgrwt>
<rscale>  1 0.30000000E+03</rscale>
<asrwt>0</asrwt>
<pdfrwt beam="1">  1        3 0.92356332E-02 0.30000000E+03</pdfrwt>
<pdfrwt beam="2">0</pdfrwt>
<totfact> 0.37611685E+02</totfact>
</mgrwt>
</event>
<event>
 6    1  0.1956957E-002  0.3000000E+03  0.7818608E-02  0.1093470E+00
          1   -1    0    0  502    0  0.00000000000E+00  0.00000000000E+00  0.17433551804E+01  0.17433551804E+01  0.00000000000E+00 0.  1.
         13   -1    0    0    0    0 -0.00000000000E+00 -0.00000000000E+00 -0.10000000000E+04  0.10000000000E+04  0.00000000000E+00 0.  1.
    9000005    2    1    2  501    0  0.29961862331E+02 -0.21951536263E+02 -0.72707497805E+03  0.72802985618E+03  0.31408050505E+01 0.  0.
         13    1    3    3    0    0  0.26745860916E+02 -0.20598034970E+02 -0.66673050493E+03  0.66758459113E+03  0.00000000000E+00 0.  1.
          3    1    3    3  501    0  0.32160014150E+01 -0.13535012930E+01 -0.60344473119E+02  0.60445265049E+02  0.00000000000E+00 0.  1.
         21    1    1    2  502  501 -0.29961862331E+02  0.21951536263E+02 -0.27118166677E+03  0.27371349900E+03  0.00000000000E+00 0.  1.
<mgrwt>
<rscale>  1 0.30000000E+03</rscale>
<asrwt>0</asrwt>
<pdfrwt beam="1">  1        1 0.63394868E-02 0.30000000E+03</pdfrwt>
<pdfrwt beam="2">0</pdfrwt>
<totfact> 0.14254843E+03</totfact>
</mgrwt>
</event>
<event>
 6    1  0.1956957E-002  0.3000000E+03  0.7818608E-02  0.1093470E+00
          1   -1    0    0  502    0  0.00000000000E+00  0.00000000000E+00  0.14655792442E+01  0.14655792442E+01  0.00000000000E+00 0.  1.
         13   -1    0    0    0    0 -0.00000000000E+00 -0.00000000000E+00 -0.10000000000E+04  0.10000000000E+04  0.00000000000E+00 0.  1.
    9000005    2    1    2  501    0  0.30103564514E+02 -0.11062265267E+02 -0.76992631466E+03  0.77061873720E+03  0.61733141647E+01 0.  0.
         13    1    3    3    0    0  0.23678652751E+02 -0.10362473952E+02 -0.65631014552E+03  0.65681889937E+03  0.00000000000E+00 0.  1.
          3    1    3    3  501    0  0.64249117631E+01 -0.69979131480E+00 -0.11361616915E+03  0.11379983783E+03  0.00000000000E+00 0.  1.
         21    1    1    2  502  501 -0.30103564514E+02  0.11062265267E+02 -0.22860810609E+03  0.23084684204E+03  0.00000000000E+00 0.  1.
<mgrwt>
<rscale>  1 0.30000000E+03</rscale>
<asrwt>0</asrwt>
<pdfrwt beam="1">  1        1 0.53293903E-02 0.30000000E+03</pdfrwt>
<pdfrwt beam="2">0</pdfrwt>
<totfact> 0.18186059E+03</totfact>
</mgrwt>
</event>
<event>
 6    1  0.1956957E-002  0.3000000E+03  0.7818608E-02  0.1093470E+00
          1   -1    0    0  502    0  0.00000000000E+00  0.00000000000E+00  0.67991720678E+01  0.67991720678E+01  0.00000000000E+00 0.  1.
         13   -1    0    0    0    0 -0.00000000000E+00 -0.00000000000E+00 -0.10000000000E+04  0.10000000000E+04  0.00000000000E+00 0.  1.
    9000005    2    1    2  501    0  0.30955175488E+02  0.15141030497E+02 -0.39835126754E+02  0.52810894427E+02  0.38313904249E+01 0.  0.
         13    1    3    3    0    0  0.26331385103E+02  0.13249712078E+02 -0.35902530534E+02  0.46453077512E+02  0.00000000000E+00 0.  1.
          1    1    3    3  501    0  0.46237903849E+01  0.18913184190E+01 -0.39325962205E+01  0.63578169146E+01  0.00000000000E+00 0.  1.
         21    1    1    2  502  501 -0.30955175488E+02 -0.15141030497E+02 -0.95336570118E+03  0.95398827764E+03  0.00000000000E+00 0.  1.
<mgrwt>
<rscale>  1 0.30000000E+03</rscale>
<asrwt>0</asrwt>
<pdfrwt beam="1">  1        1 0.24724314E-01 0.30000000E+03</pdfrwt>
<pdfrwt beam="2">0</pdfrwt>
<totfact> 0.22216731E+02</totfact>
</mgrwt>
</event>
<event>
 6    1  0.1956957E-002  0.3000000E+03  0.7818608E-02  0.1093470E+00
          1   -1    0    0  502    0  0.00000000000E+00  0.00000000000E+00  0.27213518697E+01  0.27213518697E+01  0.00000000000E+00 0.  1.
         13   -1    0    0    0    0 -0.00000000000E+00 -0.00000000000E+00 -0.10000000000E+04  0.10000000000E+04  0.00000000000E+00 0.  1.
    9000005    2    1    2  501    0 -0.63388863082E+01 -0.49587868070E+02 -0.64016411586E+03  0.64212472502E+03  0.38638197903E+01 0.  0.
         13    1    3    3    0    0 -0.39449869260E+01 -0.31290185058E+02 -0.37948645397E+03  0.38079470499E+03  0.00000000000E+00 0.  1.
          1    1    3    3  501    0 -0.23938993821E+01 -0.18297683012E+02 -0.26067766190E+03  0.26133002003E+03  0.00000000000E+00 0.  1.
         21    1    1    2  502  501  0.63388863082E+01  0.49587868070E+02 -0.35711453227E+03  0.36059662685E+03  0.00000000000E+00 0.  1.
<mgrwt>
<rscale>  1 0.30000000E+03</rscale>
<asrwt>0</asrwt>
<pdfrwt beam="1">  1        1 0.98958458E-02 0.30000000E+03</pdfrwt>
<pdfrwt beam="2">0</pdfrwt>
<totfact> 0.76674161E+02</totfact>
</mgrwt>
</event>
<event>
 6    1  0.1956957E-002  0.3000000E+03  0.7818608E-02  0.1093470E+00
          1   -1    0    0  502    0  0.00000000000E+00  0.00000000000E+00  0.30816875797E+01  0.30816875797E+01  0.00000000000E+00 0.  1.
         13   -1    0    0    0    0 -0.00000000000E+00 -0.00000000000E+00 -0.10000000000E+04  0.10000000000E+04  0.00000000000E+00 0.  1.
    9000005    2    1    2  501    0 -0.70443213221E+01  0.33812051940E+02 -0.89100310794E+03  0.89167743336E+03  0.30380052447E+01 0.  0.
         13    1    3    3    0    0 -0.25091405865E+01  0.62308617862E+01 -0.16823855194E+03  0.16837259214E+03  0.00000000000E+00 0.  1.
          1    1    3    3  501    0 -0.45351807356E+01  0.27581190154E+02 -0.72276455601E+03  0.72330484122E+03  0.00000000000E+00 0.  1.
         21    1    1    2  502  501  0.70443213221E+01 -0.33812051940E+02 -0.10591520448E+03  0.11140425422E+03  0.00000000000E+00 0.  1.
<mgrwt>
<rscale>  1 0.30000000E+03</rscale>
<asrwt>0</asrwt>
<pdfrwt beam="1">  1        1 0.11206160E-01 0.30000000E+03</pdfrwt>
<pdfrwt beam="2">0</pdfrwt>
<totfact> 0.64607953E+02</totfact>
</mgrwt>
</event>
<event>
 6    1  0.1956957E-002  0.3000000E+03  0.7818608E-02  0.1093470E+00
          1   -1    0    0  502    0  0.00000000000E+00  0.00000000000E+00  0.46402075736E+02  0.46402075736E+02  0.00000000000E+00 0.  1.
         13   -1    0    0    0    0 -0.00000000000E+00 -0.00000000000E+00 -0.10000000000E+04  0.10000000000E+04  0.00000000000E+00 0.  1.
    9000005    2    1    2  501    0 -0.17498454569E+03  0.76639827846E+02 -0.71853101518E+03  0.74349993611E+03  0.34757422607E+01 0.  0.
         13    1    3    3    0    0 -0.70732424177E+02  0.32179926490E+02 -0.29736159816E+03  0.30734759404E+03  0.00000000000E+00 0.  1.
          1    1    3    3  501    0 -0.10425212151E+03  0.44459901356E+02 -0.42116941701E+03  0.43615234207E+03  0.00000000000E+00 0.  1.
         21    1    1    2  502  501  0.17498454569E+03 -0.76639827846E+02 -0.23506690909E+03  0.30290213962E+03  0.00000000000E+00 0.  1.
<mgrwt>
<rscale>  1 0.30000000E+03</rscale>
<asrwt>0</asrwt>
<pdfrwt beam="1">  1        1 0.16873518E+00 0.30000000E+03</pdfrwt>
<pdfrwt beam="2">0</pdfrwt>
<totfact> 0.14492197E+01</totfact>
</mgrwt>
</event>
<event>
 6    1  0.1956957E-002  0.3000000E+03  0.7818608E-02  0.1093470E+00
          1   -1    0    0  502    0  0.00000000000E+00  0.00000000000E+00  0.68646900761E+01  0.68646900761E+01  0.00000000000E+00 0.  1.
         13   -1    0    0    0    0 -0.00000000000E+00 -0.00000000000E+00 -0.10000000000E+04  0.10000000000E+04  0.00000000000E+00 0.  1.
    9000005    2    1    2  501    0 -0.36120989574E+02 -0.36284677622E+01 -0.94907460259E+03  0.94977495723E+03  0.34606974784E+01 0.  0.
         13    1    3    3    0    0 -0.20028525263E+01 -0.86408697541E+00 -0.70705821691E+02  0.70739460597E+02  0.00000000000E+00 0.  1.
          3    1    3    3  501    0 -0.34118137048E+02 -0.27643807868E+01 -0.87836878090E+03  0.87903549663E+03  0.00000000000E+00 0.  1.
         21    1    1    2  502  501  0.36120989574E+02  0.36284677622E+01 -0.44060707335E+02  0.57089732850E+02  0.00000000000E+00 0.  1.
<mgrwt>
<rscale>  1 0.30000000E+03</rscale>
<asrwt>0</asrwt>
<pdfrwt beam="1">  1        1 0.24962562E-01 0.30000000E+03</pdfrwt>
<pdfrwt beam="2">0</pdfrwt>
<totfact> 0.21936950E+02</totfact>
</mgrwt>
</event>
<event>
 6    1  0.1956957E-002  0.3000000E+03  0.7818608E-02  0.1093470E+00
          3   -1    0    0  502    0  0.00000000000E+00  0.00000000000E+00  0.35599228140E+01  0.35599228140E+01  0.00000000000E+00 0.  1.
         13   -1    0    0    0    0 -0.00000000000E+00 -0.00000000000E+00 -0.10000000000E+04  0.10000000000E+04  0.00000000000E+00 0.  1.
    9000005    2    1    2  501    0 -0.13373460440E+02 -0.55792915531E+02 -0.63470520997E+03  0.63730343751E+03  0.36426681484E+01 0.  0.
         13    1    3    3    0    0 -0.96134784561E+01 -0.45814398467E+02 -0.52218290183E+03  0.52427698885E+03  0.00000000000E+00 0.  1.
          1    1    3    3  501    0 -0.37599819837E+01 -0.99785170636E+01 -0.11252230814E+03  0.11302644866E+03  0.00000000000E+00 0.  1.
         21    1    1    2  502  501  0.13373460440E+02  0.55792915531E+02 -0.36173486721E+03  0.36625648530E+03  0.00000000000E+00 0.  1.
<mgrwt>
<rscale>  1 0.30000000E+03</rscale>
<asrwt>0</asrwt>
<pdfrwt beam="1">  1        3 0.12945201E-01 0.30000000E+03</pdfrwt>
<pdfrwt beam="2">0</pdfrwt>
<totfact> 0.21428215E+02</totfact>
</mgrwt>
</event>
<event>
 6    1  0.1956957E-002  0.3000000E+03  0.7818608E-02  0.1093470E+00
          1   -1    0    0  502    0  0.00000000000E+00  0.00000000000E+00  0.45698609315E+01  0.45698609315E+01  0.00000000000E+00 0.  1.
         13   -1    0    0    0    0 -0.00000000000E+00 -0.00000000000E+00 -0.10000000000E+04  0.10000000000E+04  0.00000000000E+00 0.  1.
    9000005    2    1    2  501    0 -0.52526711751E+02 -0.34857418825E+01 -0.81247138181E+03  0.81418836839E+03  0.46633809045E+01 0.  0.
         13    1    3    3    0    0 -0.37215020082E+02 -0.33969872259E+01 -0.60461574245E+03  0.60576950506E+03  0.00000000000E+00 0.  1.
          1    1    3    3  501    0 -0.15311691669E+02 -0.88754656610E-01 -0.20785563936E+03  0.20841886333E+03  0.00000000000E+00 0.  1.
         21    1    1    2  502  501  0.52526711751E+02  0.34857418825E+01 -0.18295875726E+03  0.19038149254E+03  0.00000000000E+00 0.  1.
<mgrwt>
<rscale>  1 0.30000000E+03</rscale>
<asrwt>0</asrwt>
<pdfrwt beam="1">  1        1 0.16617711E-01 0.30000000E+03</pdfrwt>
<pdfrwt beam="2">0</pdfrwt>
<totfact> 0.37762275E+02</totfact>
</mgrwt>
</event>
<event>
 6    1  0.3347569E-002  0.3000000E+03  0.7818608E-02  0.1093470E+00
          1   -1    0    0  502    0  0.00000000000E+00  0.00000000000E+00  0.93717594915E+02  0.93717594915E+02  0.00000000000E+00 0.  1.
         13   -1    0    0    0    0 -0.00000000000E+00 -0.00000000000E+00 -0.10000000000E+04  0.10000000000E+04  0.00000000000E+00 0.  1.
    9000005    2    1    2  501    0 -0.36071093741E+02 -0.30342122543E+03 -0.48641619969E+03  0.57443617383E+03  0.32610796459E+01 0.  0.
         13    1    3    3    0    0 -0.18421474739E+02 -0.16353930825E+03 -0.25958690425E+03  0.30735942630E+03  0.00000000000E+00 0.  1.
          3    1    3    3  501    0 -0.17649619003E+02 -0.13988191718E+03 -0.22682929544E+03  0.26707674754E+03  0.00000000000E+00 0.  1.
         21    1    1    2  502  501  0.36071093741E+02  0.30342122543E+03 -0.41986620540E+03  0.51928142108E+03  0.00000000000E+00 0.  1.
<mgrwt>
<rscale>  1 0.30000000E+03</rscale>
<asrwt>0</asrwt>
<pdfrwt beam="1">  1        1 0.34079197E+00 0.30000000E+03</pdfrwt>
<pdfrwt beam="2">0</pdfrwt>
<totfact> 0.21937684E+00</totfact>
</mgrwt>
</event>
<event>
 6    1  0.1956957E-002  0.3000000E+03  0.7818608E-02  0.1093470E+00
          1   -1    0    0  502    0  0.00000000000E+00  0.00000000000E+00  0.16589451021E+01  0.16589451021E+01  0.00000000000E+00 0.  1.
         13   -1    0    0    0    0 -0.00000000000E+00 -0.00000000000E+00 -0.10000000000E+04  0.10000000000E+04  0.00000000000E+00 0.  1.
    9000005    2    1    2  501    0 -0.32102725761E+02  0.11280263229E+02 -0.77389742046E+03  0.77465063164E+03  0.29247855849E+01 0.  0.
         13    1    3    3    0    0 -0.72196624772E+01  0.25309776955E+01 -0.20330052437E+03  0.20344442137E+03  0.00000000000E+00 0.  1.
          1    1    3    3  501    0 -0.24883063284E+02  0.87492855336E+01 -0.57059689608E+03  0.57120621027E+03  0.00000000000E+00 0.  1.
         21    1    1    2  502  501  0.32102725761E+02 -0.11280263229E+02 -0.22444363444E+03  0.22700831346E+03  0.00000000000E+00 0.  1.
<mgrwt>
<rscale>  1 0.30000000E+03</rscale>
<asrwt>0</asrwt>
<pdfrwt beam="1">  1        1 0.60325404E-02 0.30000000E+03</pdfrwt>
<pdfrwt beam="2">0</pdfrwt>
<totfact> 0.15282063E+03</totfact>
</mgrwt>
</event>
<event>
 6    1  0.1956957E-002  0.3000000E+03  0.7818608E-02  0.1093470E+00
          1   -1    0    0  502    0  0.00000000000E+00  0.00000000000E+00  0.42221116612E+01  0.42221116612E+01  0.00000000000E+00 0.  1.
         13   -1    0    0    0    0 -0.00000000000E+00 -0.00000000000E+00 -0.10000000000E+04  0.10000000000E+04  0.00000000000E+00 0.  1.
    9000005    2    1    2  501    0 -0.11950137186E+02 -0.43536491548E+02 -0.85890861468E+03  0.86009914351E+03  0.28803525676E+01 0.  0.
         13    1    3    3    0    0 -0.60397798923E+01 -0.18144982953E+02 -0.34473725137E+03  0.34526727594E+03  0.00000000000E+00 0.  1.
          1    1    3    3  501    0 -0.59103572934E+01 -0.25391508595E+02 -0.51417136330E+03  0.51483186758E+03  0.00000000000E+00 0.  1.
         21    1    1    2  502  501  0.11950137186E+02  0.43536491548E+02 -0.13686927366E+03  0.14412296815E+03  0.00000000000E+00 0.  1.
<mgrwt>
<rscale>  1 0.30000000E+03</rscale>
<asrwt>0</asrwt>
<pdfrwt beam="1">  1        1 0.15353166E-01 0.30000000E+03</pdfrwt>
<pdfrwt beam="2">0</pdfrwt>
<totfact> 0.42032080E+02</totfact>
</mgrwt>
</event>
<event>
 6    1  0.1956957E-002  0.3000000E+03  0.7818608E-02  0.1093470E+00
          1   -1    0    0  502    0  0.00000000000E+00  0.00000000000E+00  0.33199248761E+01  0.33199248761E+01  0.00000000000E+00 0.  1.
         13   -1    0    0    0    0 -0.00000000000E+00 -0.00000000000E+00 -0.10000000000E+04  0.10000000000E+04  0.00000000000E+00 0.  1.
    9000005    2    1    2  501    0 -0.53900686401E+02 -0.55399552767E+01 -0.32929564279E+03  0.33373949236E+03  0.32331555952E+01 0.  0.
         13    1    3    3    0    0 -0.10421823219E+02 -0.23554251059E+01 -0.65629608643E+02  0.66493668550E+02  0.00000000000E+00 0.  1.
          3    1    3    3  501    0 -0.43478863183E+02 -0.31845301708E+01 -0.26366603415E+03  0.26724582380E+03  0.00000000000E+00 0.  1.
         21    1    1    2  502  501  0.53900686401E+02  0.55399552767E+01 -0.66738443233E+03  0.66958043252E+03  0.00000000000E+00 0.  1.
<mgrwt>
<rscale>  1 0.30000000E+03</rscale>
<asrwt>0</asrwt>
<pdfrwt beam="1">  1        1 0.12072480E-01 0.30000000E+03</pdfrwt>
<pdfrwt beam="2">0</pdfrwt>
<totfact> 0.58333769E+02</totfact>
</mgrwt>
</event>
<event>
 6    1  0.1956957E-002  0.3000000E+03  0.7818608E-02  0.1093470E+00
          3   -1    0    0  502    0  0.00000000000E+00  0.00000000000E+00  0.16983608047E+01  0.16983608047E+01  0.00000000000E+00 0.  1.
         13   -1    0    0    0    0 -0.00000000000E+00 -0.00000000000E+00 -0.10000000000E+04  0.10000000000E+04  0.00000000000E+00 0.  1.
    9000005    2    1    2  501    0  0.39141360342E+02 -0.12699914871E+02 -0.51192847810E+03  0.51358752733E+03  0.28368302895E+01 0.  0.
         13    1    3    3    0    0  0.78036354959E+01 -0.16164997420E+01 -0.90521529570E+02  0.90871651872E+02  0.00000000000E+00 0.  1.
          3    1    3    3  501    0  0.31337724846E+02 -0.11083415129E+02 -0.42140694853E+03  0.42271587545E+03  0.00000000000E+00 0.  1.
         21    1    1    2  502  501 -0.39141360342E+02  0.12699914871E+02 -0.48637316109E+03  0.48811083348E+03  0.00000000000E+00 0.  1.
<mgrwt>
<rscale>  1 0.30000000E+03</rscale>
<asrwt>0</asrwt>
<pdfrwt beam="1">  1        3 0.61758705E-02 0.30000000E+03</pdfrwt>
<pdfrwt beam="2">0</pdfrwt>
<totfact> 0.71283285E+02</totfact>
</mgrwt>
</event>
<event>
 6    1  0.1956957E-002  0.3000000E+03  0.7818608E-02  0.1093470E+00
          3   -1    0    0  502    0  0.00000000000E+00  0.00000000000E+00  0.26614454449E+01  0.26614454449E+01  0.00000000000E+00 0.  1.
         13   -1    0    0    0    0 -0.00000000000E+00 -0.00000000000E+00 -0.10000000000E+04  0.10000000000E+04  0.00000000000E+00 0.  1.
    9000005    2    1    2  501    0 -0.26071759130E+02 -0.20748224668E+02 -0.11702548359E+03  0.12171801459E+03  0.31758173324E+01 0.  0.
         13    1    3    3    0    0 -0.30889052385E+01 -0.24316057235E+01 -0.17957356668E+02  0.18382619521E+02  0.00000000000E+00 0.  1.
          3    1    3    3  501    0 -0.22982853891E+02 -0.18316618944E+02 -0.99068126921E+02  0.10333539507E+03  0.00000000000E+00 0.  1.
         21    1    1    2  502  501  0.26071759130E+02  0.20748224668E+02 -0.88031307097E+03  0.88094343085E+03  0.00000000000E+00 0.  1.
<mgrwt>
<rscale>  1 0.30000000E+03</rscale>
<asrwt>0</asrwt>
<pdfrwt beam="1">  1        3 0.96780038E-02 0.30000000E+03</pdfrwt>
<pdfrwt beam="2">0</pdfrwt>
<totfact> 0.34848022E+02</totfact>
</mgrwt>
</event>
<event>
 6    1  0.1956957E-002  0.3000000E+03  0.7818608E-02  0.1093470E+00
          1   -1    0    0  502    0  0.00000000000E+00  0.00000000000E+00  0.26032953974E+01  0.26032953974E+01  0.00000000000E+00 0.  1.
         13   -1    0    0    0    0 -0.00000000000E+00 -0.00000000000E+00 -0.10000000000E+04  0.10000000000E+04  0.00000000000E+00 0.  1.
    9000005    2    1    2  501    0 -0.32393936119E+02 -0.26982542436E+02 -0.78070068272E+03  0.78184417193E+03  0.30542577816E+01 0.  0.
         13    1    3    3    0    0 -0.72420250205E+00 -0.11900517059E+01 -0.20772206721E+02  0.20818867990E+02  0.00000000000E+00 0.  1.
          3    1    3    3  501    0 -0.31669733617E+02 -0.25792490730E+02 -0.75992847600E+03  0.76102530394E+03  0.00000000000E+00 0.  1.
         21    1    1    2  502  501  0.32393936119E+02  0.26982542436E+02 -0.21669602188E+03  0.22075912347E+03  0.00000000000E+00 0.  1.
<mgrwt>
<rscale>  1 0.30000000E+03</rscale>
<asrwt>0</asrwt>
<pdfrwt beam="1">  1        1 0.94665487E-02 0.30000000E+03</pdfrwt>
<pdfrwt beam="2">0</pdfrwt>
<totfact> 0.81524173E+02</totfact>
</mgrwt>
</event>
<event>
 6    1  0.1956957E-002  0.3000000E+03  0.7818608E-02  0.1093470E+00
          1   -1    0    0  502    0  0.00000000000E+00  0.00000000000E+00  0.13855152581E+01  0.13855152581E+01  0.00000000000E+00 0.  1.
         13   -1    0    0    0    0 -0.00000000000E+00 -0.00000000000E+00 -0.10000000000E+04  0.10000000000E+04  0.00000000000E+00 0.  1.
    9000005    2    1    2  501    0 -0.36194505600E+02 -0.60632969788E+01 -0.57756223728E+03  0.57873696043E+03  0.33949417579E+01 0.  0.
         13    1    3    3    0    0 -0.11930179278E+02 -0.22780884196E+01 -0.16720631407E+03  0.16764686197E+03  0.00000000000E+00 0.  1.
          3    1    3    3  501    0 -0.24264326322E+02 -0.37852085592E+01 -0.41035592321E+03  0.41109009845E+03  0.00000000000E+00 0.  1.
         21    1    1    2  502  501  0.36194505600E+02  0.60632969788E+01 -0.42105224746E+03  0.42264855483E+03  0.00000000000E+00 0.  1.
<mgrwt>
<rscale>  1 0.30000000E+03</rscale>
<asrwt>0</asrwt>
<pdfrwt beam="1">  1        1 0.50382479E-02 0.30000000E+03</pdfrwt>
<pdfrwt beam="2">0</pdfrwt>
<totfact> 0.19679689E+03</totfact>
</mgrwt>
</event>
<event>
 6    1  0.1956957E-002  0.3000000E+03  0.7818608E-02  0.1093470E+00
          1   -1    0    0  502    0  0.00000000000E+00  0.00000000000E+00  0.27795619596E+01  0.27795619596E+01  0.00000000000E+00 0.  1.
         13   -1    0    0    0    0 -0.00000000000E+00 -0.00000000000E+00 -0.10000000000E+04  0.10000000000E+04  0.00000000000E+00 0.  1.
    9000005    2    1    2  501    0 -0.25039984765E+02  0.26269399972E+02 -0.86207302333E+03  0.86284419862E+03  0.36237157060E+01 0.  0.
         13    1    3    3    0    0 -0.78224786177E+01  0.90228100938E+01 -0.32283360736E+03  0.32305439219E+03  0.00000000000E+00 0.  1.
          3    1    3    3  501    0 -0.17217506148E+02  0.17246589878E+02 -0.53923941597E+03  0.53978980642E+03  0.00000000000E+00 0.  1.
         21    1    1    2  502  501  0.25039984765E+02 -0.26269399972E+02 -0.13514741471E+03  0.13993536334E+03  0.00000000000E+00 0.  1.
<mgrwt>
<rscale>  1 0.30000000E+03</rscale>
<asrwt>0</asrwt>
<pdfrwt beam="1">  1        1 0.10107519E-01 0.30000000E+03</pdfrwt>
<pdfrwt beam="2">0</pdfrwt>
<totfact> 0.74466471E+02</totfact>
</mgrwt>
</event>
<event>
 6    1  0.1956957E-002  0.3000000E+03  0.7818608E-02  0.1093470E+00
          1   -1    0    0  502    0  0.00000000000E+00  0.00000000000E+00  0.42616862106E+01  0.42616862106E+01  0.00000000000E+00 0.  1.
         13   -1    0    0    0    0 -0.00000000000E+00 -0.00000000000E+00 -0.10000000000E+04  0.10000000000E+04  0.00000000000E+00 0.  1.
    9000005    2    1    2  501    0  0.52319832729E+02  0.27882980593E+02 -0.70711764100E+03  0.70961491758E+03  0.48111883860E+01 0.  0.
         13    1    3    3    0    0  0.99305423716E+01  0.33692723538E+01 -0.11674415485E+03  0.11721418583E+03  0.00000000000E+00 0.  1.
          1    1    3    3  501    0  0.42389290358E+02  0.24513708240E+02 -0.59037348615E+03  0.59240073175E+03  0.00000000000E+00 0.  1.
         21    1    1    2  502  501 -0.52319832729E+02 -0.27882980593E+02 -0.28862067279E+03  0.29464676863E+03  0.00000000000E+00 0.  1.
<mgrwt>
<rscale>  1 0.30000000E+03</rscale>
<asrwt>0</asrwt>
<pdfrwt beam="1">  1        1 0.15497073E-01 0.30000000E+03</pdfrwt>
<pdfrwt beam="2">0</pdfrwt>
<totfact> 0.41503687E+02</totfact>
</mgrwt>
</event>
<event>
 6    1  0.1956957E-002  0.3000000E+03  0.7818608E-02  0.1093470E+00
          3   -1    0    0  502    0  0.00000000000E+00  0.00000000000E+00  0.13303669205E+01  0.13303669205E+01  0.00000000000E+00 0.  1.
         13   -1    0    0    0    0 -0.00000000000E+00 -0.00000000000E+00 -0.10000000000E+04  0.10000000000E+04  0.00000000000E+00 0.  1.
    9000005    2    1    2  501    0 -0.31159721292E+02  0.18830592400E+02 -0.51817797355E+03  0.51946134496E+03  0.24813708233E+01 0.  0.
         13    1    3    3    0    0 -0.17344028455E+02  0.90696554603E+01 -0.27414854216E+03  0.27484631550E+03  0.00000000000E+00 0.  1.
          3    1    3    3  501    0 -0.13815692838E+02  0.97609369400E+01 -0.24402943138E+03  0.24461502946E+03  0.00000000000E+00 0.  1.
         21    1    1    2  502  501  0.31159721292E+02 -0.18830592400E+02 -0.48049165953E+03  0.48186902196E+03  0.00000000000E+00 0.  1.
<mgrwt>
<rscale>  1 0.30000000E+03</rscale>
<asrwt>0</asrwt>
<pdfrwt beam="1">  1        3 0.48377081E-02 0.30000000E+03</pdfrwt>
<pdfrwt beam="2">0</pdfrwt>
<totfact> 0.10410853E+03</totfact>
</mgrwt>
</event>
<event>
 6    1  0.1956957E-002  0.3000000E+03  0.7818608E-02  0.1093470E+00
          3   -1    0    0  502    0  0.00000000000E+00  0.00000000000E+00  0.10577900181E+01  0.10577900181E+01  0.00000000000E+00 0.  1.
         13   -1    0    0    0    0 -0.00000000000E+00 -0.00000000000E+00 -0.10000000000E+04  0.10000000000E+04  0.00000000000E+00 0.  1.
    9000005    2    1    2  501    0  0.31165127789E+02  0.78900793671E+01 -0.56828973321E+03  0.56920703537E+03  0.31479672118E+01 0.  0.
         13    1    3    3    0    0  0.11634561879E+01  0.34567215816E+00 -0.13107275931E+02  0.13163350709E+02  0.00000000000E+00 0.  1.
          3    1    3    3  501    0  0.30001671601E+02  0.75444072089E+01 -0.55518245728E+03  0.55604368466E+03  0.00000000000E+00 0.  1.
         21    1    1    2  502  501 -0.31165127789E+02 -0.78900793671E+01 -0.43065247677E+03  0.43185075465E+03  0.00000000000E+00 0.  1.
<mgrwt>
<rscale>  1 0.30000000E+03</rscale>
<asrwt>0</asrwt>
<pdfrwt beam="1">  1        3 0.38465173E-02 0.30000000E+03</pdfrwt>
<pdfrwt beam="2">0</pdfrwt>
<totfact> 0.14817236E+03</totfact>
</mgrwt>
</event>
<event>
 6    1  0.1956957E-002  0.3000000E+03  0.7818608E-02  0.1093470E+00
          1   -1    0    0  502    0  0.00000000000E+00  0.00000000000E+00  0.67809138507E+01  0.67809138507E+01  0.00000000000E+00 0.  1.
         13   -1    0    0    0    0 -0.00000000000E+00 -0.00000000000E+00 -0.10000000000E+04  0.10000000000E+04  0.00000000000E+00 0.  1.
    9000005    2    1    2  501    0  0.34556607736E+02  0.32116588690E+02 -0.90907677878E+03  0.91031557138E+03  0.53118156339E+01 0.  0.
         13    1    3    3    0    0  0.24210840912E+01  0.27290235158E+01 -0.48047424809E+02  0.48185726604E+02  0.00000000000E+00 0.  1.
          3    1    3    3  501    0  0.32135523645E+02  0.29387565174E+02 -0.86102935397E+03  0.86212984478E+03  0.00000000000E+00 0.  1.
         21    1    1    2  502  501 -0.34556607736E+02 -0.32116588690E+02 -0.84142307374E+02  0.96465342468E+02  0.00000000000E+00 0.  1.
<mgrwt>
<rscale>  1 0.30000000E+03</rscale>
<asrwt>0</asrwt>
<pdfrwt beam="1">  1        1 0.24657921E-01 0.30000000E+03</pdfrwt>
<pdfrwt beam="2">0</pdfrwt>
<totfact> 0.22295825E+02</totfact>
</mgrwt>
</event>
<event>
 6    1  0.1956957E-002  0.3000000E+03  0.7818608E-02  0.1093470E+00
          3   -1    0    0  502    0  0.00000000000E+00  0.00000000000E+00  0.16055662499E+01  0.16055662499E+01  0.00000000000E+00 0.  1.
         13   -1    0    0    0    0 -0.00000000000E+00 -0.00000000000E+00 -0.10000000000E+04  0.10000000000E+04  0.00000000000E+00 0.  1.
    9000005    2    1    2  501    0  0.11120787087E+02 -0.38337912587E+02 -0.46922108468E+03  0.47092873350E+03  0.34609658425E+01 0.  0.
         13    1    3    3    0    0  0.11061556860E+02 -0.35491373763E+02 -0.44117842247E+03  0.44274190687E+03  0.00000000000E+00 0.  1.
          3    1    3    3  501    0  0.59230227020E-01 -0.28465388246E+01 -0.28042662208E+02  0.28186826626E+02  0.00000000000E+00 0.  1.
         21    1    1    2  502  501 -0.11120787087E+02  0.38337912587E+02 -0.52917334907E+03  0.53067683275E+03  0.00000000000E+00 0.  1.
<mgrwt>
<rscale>  1 0.30000000E+03</rscale>
<asrwt>0</asrwt>
<pdfrwt beam="1">  1        3 0.58384350E-02 0.30000000E+03</pdfrwt>
<pdfrwt beam="2">0</pdfrwt>
<totfact> 0.77812539E+02</totfact>
</mgrwt>
</event>
<event>
 6    1  0.1956957E-002  0.3000000E+03  0.7818608E-02  0.1093470E+00
          1   -1    0    0  502    0  0.00000000000E+00  0.00000000000E+00  0.22970712528E+01  0.22970712528E+01  0.00000000000E+00 0.  1.
         13   -1    0    0    0    0 -0.00000000000E+00 -0.00000000000E+00 -0.10000000000E+04  0.10000000000E+04  0.00000000000E+00 0.  1.
    9000005    2    1    2  501    0  0.19463512182E+02 -0.27376164766E+02 -0.85544365784E+03  0.85612599729E+03  0.62919628940E+01 0.  0.
         13    1    3    3    0    0  0.15335901584E+02 -0.22018842587E+02 -0.61122096202E+03  0.61180967933E+03  0.00000000000E+00 0.  1.
          1    1    3    3  501    0  0.41276105981E+01 -0.53573221788E+01 -0.24422269582E+03  0.24431631796E+03  0.00000000000E+00 0.  1.
         21    1    1    2  502  501 -0.19463512182E+02  0.27376164766E+02 -0.14225927091E+03  0.14617107396E+03  0.00000000000E+00 0.  1.
<mgrwt>
<rscale>  1 0.30000000E+03</rscale>
<asrwt>0</asrwt>
<pdfrwt beam="1">  1        1 0.83530040E-02 0.30000000E+03</pdfrwt>
<pdfrwt beam="2">0</pdfrwt>
<totfact> 0.96979684E+02</totfact>
</mgrwt>
</event>
<event>
 6    1  0.1956957E-002  0.3000000E+03  0.7818608E-02  0.1093470E+00
          1   -1    0    0  502    0  0.00000000000E+00  0.00000000000E+00  0.70423518449E+01  0.70423518449E+01  0.00000000000E+00 0.  1.
         13   -1    0    0    0    0 -0.00000000000E+00 -0.00000000000E+00 -0.10000000000E+04  0.10000000000E+04  0.00000000000E+00 0.  1.
    9000005    2    1    2  501    0  0.73891022078E+02 -0.28948146592E+02 -0.65971113213E+03  0.66447685625E+03  0.35827768731E+01 0.  0.
         13    1    3    3    0    0  0.16605911184E+02 -0.60224753978E+01 -0.15905652943E+03  0.16003439021E+03  0.00000000000E+00 0.  1.
          1    1    3    3  501    0  0.57285110894E+02 -0.22925671194E+02 -0.50065460271E+03  0.50444246604E+03  0.00000000000E+00 0.  1.
         21    1    1    2  502  501 -0.73891022078E+02  0.28948146592E+02 -0.33324651602E+03  0.34256549560E+03  0.00000000000E+00 0.  1.
<mgrwt>
<rscale>  1 0.30000000E+03</rscale>
<asrwt>0</asrwt>
<pdfrwt beam="1">  1        1 0.25608606E-01 0.30000000E+03</pdfrwt>
<pdfrwt beam="2">0</pdfrwt>
<totfact> 0.21208713E+02</totfact>
</mgrwt>
</event>
<event>
 6    1  0.1956957E-002  0.3000000E+03  0.7818608E-02  0.1093470E+00
          1   -1    0    0  502    0  0.00000000000E+00  0.00000000000E+00  0.21652261244E+01  0.21652261244E+01  0.00000000000E+00 0.  1.
         13   -1    0    0    0    0 -0.00000000000E+00 -0.00000000000E+00 -0.10000000000E+04  0.10000000000E+04  0.00000000000E+00 0.  1.
    9000005    2    1    2  501    0  0.30637723000E+01  0.37241039184E+02 -0.79643851740E+03  0.79733179667E+03  0.52345277296E+01 0.  0.
         13    1    3    3    0    0  0.13406088283E+01  0.23986804375E+02 -0.45833891268E+03  0.45896810662E+03  0.00000000000E+00 0.  1.
          1    1    3    3  501    0  0.17231634718E+01  0.13254234809E+02 -0.33809960472E+03  0.33836369005E+03  0.00000000000E+00 0.  1.
         21    1    1    2  502  501 -0.30637723000E+01 -0.37241039184E+02 -0.20139625648E+03  0.20483342946E+03  0.00000000000E+00 0.  1.
<mgrwt>
<rscale>  1 0.30000000E+03</rscale>
<asrwt>0</asrwt>
<pdfrwt beam="1">  1        1 0.78735661E-02 0.30000000E+03</pdfrwt>
<pdfrwt beam="2">0</pdfrwt>
<totfact> 0.10529464E+03</totfact>
</mgrwt>
</event>
<event>
 6    1  0.1956957E-002  0.3000000E+03  0.7818608E-02  0.1093470E+00
          3   -1    0    0  502    0  0.00000000000E+00  0.00000000000E+00  0.32315651783E+01  0.32315651783E+01  0.00000000000E+00 0.  1.
         13   -1    0    0    0    0 -0.00000000000E+00 -0.00000000000E+00 -0.10000000000E+04  0.10000000000E+04  0.00000000000E+00 0.  1.
    9000005    2    1    2  501    0  0.71896076387E+01  0.33179172984E+02 -0.90057490292E+03  0.90122301868E+03  0.39020073545E+01 0.  0.
         13    1    3    3    0    0  0.42217373245E+01  0.24101695009E+02 -0.68438892732E+03  0.68482619592E+03  0.00000000000E+00 0.  1.
          1    1    3    3  501    0  0.29678703142E+01  0.90774779747E+01 -0.21618597559E+03  0.21639682277E+03  0.00000000000E+00 0.  1.
         21    1    1    2  502  501 -0.71896076387E+01 -0.33179172984E+02 -0.96193531905E+02  0.10200854650E+03  0.00000000000E+00 0.  1.
<mgrwt>
<rscale>  1 0.30000000E+03</rscale>
<asrwt>0</asrwt>
<pdfrwt beam="1">  1        3 0.11751171E-01 0.30000000E+03</pdfrwt>
<pdfrwt beam="2">0</pdfrwt>
<totfact> 0.25236698E+02</totfact>
</mgrwt>
</event>
<event>
 6    1  0.1956957E-002  0.3000000E+03  0.7818608E-02  0.1093470E+00
          3   -1    0    0  502    0  0.00000000000E+00  0.00000000000E+00  0.31325169730E+01  0.31325169730E+01  0.00000000000E+00 0.  1.
         13   -1    0    0    0    0 -0.00000000000E+00 -0.00000000000E+00 -0.10000000000E+04  0.10000000000E+04  0.00000000000E+00 0.  1.
    9000005    2    1    2  501    0 -0.10314672354E+02 -0.31856060969E+02 -0.90022856360E+03  0.90085699774E+03  0.32653591457E+01 0.  0.
         13    1    3    3    0    0 -0.46769907661E+01 -0.19615171293E+02 -0.54359371207E+03  0.54396760289E+03  0.00000000000E+00 0.  1.
          3    1    3    3  501    0 -0.56376815883E+01 -0.12240889675E+02 -0.35663485153E+03  0.35688939486E+03  0.00000000000E+00 0.  1.
         21    1    1    2  502  501  0.10314672354E+02  0.31856060969E+02 -0.96638919423E+02  0.10227551923E+03  0.00000000000E+00 0.  1.
<mgrwt>
<rscale>  1 0.30000000E+03</rscale>
<asrwt>0</asrwt>
<pdfrwt beam="1">  1        3 0.11390995E-01 0.30000000E+03</pdfrwt>
<pdfrwt beam="2">0</pdfrwt>
<totfact> 0.26591929E+02</totfact>
</mgrwt>
</event>
<event>
 6    1  0.1956957E-002  0.3000000E+03  0.7818608E-02  0.1093470E+00
          3   -1    0    0  502    0  0.00000000000E+00  0.00000000000E+00  0.10623511071E+01  0.10623511071E+01  0.00000000000E+00 0.  1.
         13   -1    0    0    0    0 -0.00000000000E+00 -0.00000000000E+00 -0.10000000000E+04  0.10000000000E+04  0.00000000000E+00 0.  1.
    9000005    2    1    2  501    0 -0.32048289716E+02  0.51586795214E+01 -0.52287255555E+03  0.52389185962E+03  0.36423040673E+01 0.  0.
         13    1    3    3    0    0 -0.25999915822E+02  0.40584321855E+01 -0.39896003781E+03  0.39982693539E+03  0.00000000000E+00 0.  1.
          3    1    3    3  501    0 -0.60483738934E+01  0.11002473359E+01 -0.12391251774E+03  0.12406492422E+03  0.00000000000E+00 0.  1.
         21    1    1    2  502  501  0.32048289716E+02 -0.51586795214E+01 -0.47606509334E+03  0.47717049149E+03  0.00000000000E+00 0.  1.
<mgrwt>
<rscale>  1 0.30000000E+03</rscale>
<asrwt>0</asrwt>
<pdfrwt beam="1">  1        3 0.38631031E-02 0.30000000E+03</pdfrwt>
<pdfrwt beam="2">0</pdfrwt>
<totfact> 0.14719555E+03</totfact>
</mgrwt>
</event>
<event>
 6    1  0.1956957E-002  0.3000000E+03  0.7818608E-02  0.1093470E+00
          1   -1    0    0  502    0  0.00000000000E+00  0.00000000000E+00  0.34324343095E+01  0.34324343095E+01  0.00000000000E+00 0.  1.
         13   -1    0    0    0    0 -0.00000000000E+00 -0.00000000000E+00 -0.10000000000E+04  0.10000000000E+04  0.00000000000E+00 0.  1.
    9000005    2    1    2  501    0  0.34017704525E+02  0.12148674596E+02 -0.89317329899E+03  0.89390997588E+03  0.34217567327E+01 0.  0.
         13    1    3    3    0    0  0.33846542621E+02  0.11713682614E+02 -0.88173887949E+03  0.88246600525E+03  0.00000000000E+00 0.  1.
          1    1    3    3  501    0  0.17116190371E+00  0.43499198183E+00 -0.11434419501E+02  0.11443970628E+02  0.00000000000E+00 0.  1.
         21    1    1    2  502  501 -0.34017704525E+02 -0.12148674596E+02 -0.10339426670E+03  0.10952245843E+03  0.00000000000E+00 0.  1.
<mgrwt>
<rscale>  1 0.30000000E+03</rscale>
<asrwt>0</asrwt>
<pdfrwt beam="1">  1        1 0.12481606E-01 0.30000000E+03</pdfrwt>
<pdfrwt beam="2">0</pdfrwt>
<totfact> 0.55730346E+02</totfact>
</mgrwt>
</event>
<event>
 6    1  0.1956957E-002  0.3000000E+03  0.7818608E-02  0.1093470E+00
          1   -1    0    0  502    0  0.00000000000E+00  0.00000000000E+00  0.10190887467E+01  0.10190887467E+01  0.00000000000E+00 0.  1.
         13   -1    0    0    0    0 -0.00000000000E+00 -0.00000000000E+00 -0.10000000000E+04  0.10000000000E+04  0.00000000000E+00 0.  1.
    9000005    2    1    2  501    0 -0.11930317314E+02 -0.29378781727E+02 -0.45903542783E+03  0.46014334483E+03  0.35956226603E+01 0.  0.
         13    1    3    3    0    0 -0.38208207504E+01 -0.14162284992E+02 -0.20940816388E+03  0.20992129022E+03  0.00000000000E+00 0.  1.
          3    1    3    3  501    0 -0.81094965635E+01 -0.15216496736E+02 -0.24962726395E+03  0.25022205461E+03  0.00000000000E+00 0.  1.
         21    1    1    2  502  501  0.11930317314E+02  0.29378781727E+02 -0.53994548343E+03  0.54087574392E+03  0.00000000000E+00 0.  1.
<mgrwt>
<rscale>  1 0.30000000E+03</rscale>
<asrwt>0</asrwt>
<pdfrwt beam="1">  1        1 0.37057851E-02 0.30000000E+03</pdfrwt>
<pdfrwt beam="2">0</pdfrwt>
<totfact> 0.30321190E+03</totfact>
</mgrwt>
</event>
<event>
 6    1  0.1956957E-002  0.3000000E+03  0.7818608E-02  0.1093470E+00
          1   -1    0    0  502    0  0.00000000000E+00  0.00000000000E+00  0.14815375209E+01  0.14815375209E+01  0.00000000000E+00 0.  1.
         13   -1    0    0    0    0 -0.00000000000E+00 -0.00000000000E+00 -0.10000000000E+04  0.10000000000E+04  0.00000000000E+00 0.  1.
    9000005    2    1    2  501    0 -0.36713918298E+02 -0.63175435070E+01 -0.62201043480E+03  0.62313497938E+03  0.35211319341E+01 0.  0.
         13    1    3    3    0    0 -0.30377753144E+02 -0.39332146000E+01 -0.50172783187E+03  0.50266200904E+03  0.00000000000E+00 0.  1.
          1    1    3    3  501    0 -0.63361651535E+01 -0.23843289070E+01 -0.12028260294E+03  0.12047297034E+03  0.00000000000E+00 0.  1.
         21    1    1    2  502  501  0.36713918298E+02  0.63175435070E+01 -0.37650802768E+03  0.37834655814E+03  0.00000000000E+00 0.  1.
<mgrwt>
<rscale>  1 0.30000000E+03</rscale>
<asrwt>0</asrwt>
<pdfrwt beam="1">  1        1 0.53874205E-02 0.30000000E+03</pdfrwt>
<pdfrwt beam="2">0</pdfrwt>
<totfact> 0.17911524E+03</totfact>
</mgrwt>
</event>
<event>
 6    1  0.1956957E-002  0.3000000E+03  0.7818608E-02  0.1093470E+00
          1   -1    0    0  502    0  0.00000000000E+00  0.00000000000E+00  0.66118492753E+01  0.66118492753E+01  0.00000000000E+00 0.  1.
         13   -1    0    0    0    0 -0.00000000000E+00 -0.00000000000E+00 -0.10000000000E+04  0.10000000000E+04  0.00000000000E+00 0.  1.
    9000005    2    1    2  501    0  0.15547187464E+02  0.35735393959E+02 -0.55303308417E+02  0.67717869751E+02  0.29189968052E+01 0.  0.
         13    1    3    3    0    0  0.28875832897E+01  0.97534046850E+01 -0.13873458136E+02  0.17202903268E+02  0.00000000000E+00 0.  1.
          3    1    3    3  501    0  0.12659604174E+02  0.25981989274E+02 -0.41429850281E+02  0.50514966483E+02  0.00000000000E+00 0.  1.
         21    1    1    2  502  501 -0.15547187464E+02 -0.35735393959E+02 -0.93808484231E+03  0.93889397952E+03  0.00000000000E+00 0.  1.
<mgrwt>
<rscale>  1 0.30000000E+03</rscale>
<asrwt>0</asrwt>
<pdfrwt beam="1">  1        1 0.24043139E-01 0.30000000E+03</pdfrwt>
<pdfrwt beam="2">0</pdfrwt>
<totfact> 0.23052583E+02</totfact>
</mgrwt>
</event>
<event>
 6    1  0.1956957E-002  0.3000000E+03  0.7818608E-02  0.1093470E+00
          1   -1    0    0  502    0  0.00000000000E+00  0.00000000000E+00  0.45575916521E+01  0.45575916521E+01  0.00000000000E+00 0.  1.
         13   -1    0    0    0    0 -0.00000000000E+00 -0.00000000000E+00 -0.10000000000E+04  0.10000000000E+04  0.00000000000E+00 0.  1.
    9000005    2    1    2  501    0  0.34784692296E+02 -0.32432048616E+02 -0.85407462970E+03  0.85540444406E+03  0.33878064227E+01 0.  0.
         13    1    3    3    0    0  0.30571991569E+02 -0.27098740898E+02 -0.74238553760E+03  0.74350875911E+03  0.00000000000E+00 0.  1.
          3    1    3    3  501    0  0.42127007271E+01 -0.53333077175E+01 -0.11168909210E+03  0.11189568496E+03  0.00000000000E+00 0.  1.
         21    1    1    2  502  501 -0.34784692296E+02  0.32432048616E+02 -0.14136777865E+03  0.14915314759E+03  0.00000000000E+00 0.  1.
<mgrwt>
<rscale>  1 0.30000000E+03</rscale>
<asrwt>0</asrwt>
<pdfrwt beam="1">  1        1 0.16573096E-01 0.30000000E+03</pdfrwt>
<pdfrwt beam="2">0</pdfrwt>
<totfact> 0.37899614E+02</totfact>
</mgrwt>
</event>
<event>
 6    1  0.1956957E-002  0.3000000E+03  0.7818608E-02  0.1093470E+00
          1   -1    0    0  502    0  0.00000000000E+00  0.00000000000E+00  0.18898269006E+01  0.18898269006E+01  0.00000000000E+00 0.  1.
         13   -1    0    0    0    0 -0.00000000000E+00 -0.00000000000E+00 -0.10000000000E+04  0.10000000000E+04  0.00000000000E+00 0.  1.
    9000005    2    1    2  501    0  0.27917946626E+02  0.31191061067E+02 -0.63213505380E+03  0.63352847988E+03  0.33637091561E+01 0.  0.
         13    1    3    3    0    0  0.99653441201E+01  0.11948336799E+02 -0.21221472297E+03  0.21278430272E+03  0.00000000000E+00 0.  1.
          3    1    3    3  501    0  0.17952602505E+02  0.19242724268E+02 -0.41992033083E+03  0.42074417716E+03  0.00000000000E+00 0.  1.
         21    1    1    2  502  501 -0.27917946626E+02 -0.31191061067E+02 -0.36597511930E+03  0.36836134702E+03  0.00000000000E+00 0.  1.
<mgrwt>
<rscale>  1 0.30000000E+03</rscale>
<asrwt>0</asrwt>
<pdfrwt beam="1">  1        1 0.68721123E-02 0.30000000E+03</pdfrwt>
<pdfrwt beam="2">0</pdfrwt>
<totfact> 0.12732264E+03</totfact>
</mgrwt>
</event>
<event>
 6    1  0.1956957E-002  0.3000000E+03  0.7818608E-02  0.1093470E+00
          1   -1    0    0  502    0  0.00000000000E+00  0.00000000000E+00  0.31682410578E+01  0.31682410578E+01  0.00000000000E+00 0.  1.
         13   -1    0    0    0    0 -0.00000000000E+00 -0.00000000000E+00 -0.10000000000E+04  0.10000000000E+04  0.00000000000E+00 0.  1.
    9000005    2    1    2  501    0 -0.28375376335E+02 -0.22695550543E+02 -0.88131460612E+03  0.88207132701E+03  0.37604480221E+01 0.  0.
         13    1    3    3    0    0 -0.26636298663E+02 -0.20133185585E+02 -0.79364091852E+03  0.79434296441E+03  0.00000000000E+00 0.  1.
          1    1    3    3  501    0 -0.17390776717E+01 -0.25623649583E+01 -0.87673687608E+02  0.87728362598E+02  0.00000000000E+00 0.  1.
         21    1    1    2  502  501  0.28375376335E+02  0.22695550543E+02 -0.11551715282E+03  0.12109691405E+03  0.00000000000E+00 0.  1.
<mgrwt>
<rscale>  1 0.30000000E+03</rscale>
<asrwt>0</asrwt>
<pdfrwt beam="1">  1        1 0.11520901E-01 0.30000000E+03</pdfrwt>
<pdfrwt beam="2">0</pdfrwt>
<totfact> 0.62197386E+02</totfact>
</mgrwt>
</event>
<event>
 6    1  0.1956957E-002  0.3000000E+03  0.7818608E-02  0.1093470E+00
          1   -1    0    0  502    0  0.00000000000E+00  0.00000000000E+00  0.94989373039E+00  0.94989373039E+00  0.00000000000E+00 0.  1.
         13   -1    0    0    0    0 -0.00000000000E+00 -0.00000000000E+00 -0.10000000000E+04  0.10000000000E+04  0.00000000000E+00 0.  1.
    9000005    2    1    2  501    0 -0.30597390670E+02  0.21234031568E+01 -0.52866049884E+03  0.52956142130E+03  0.35590371061E+01 0.  0.
         13    1    3    3    0    0 -0.61101365600E+01  0.11578692515E+01 -0.12966114596E+03  0.12981019683E+03  0.00000000000E+00 0.  1.
          3    1    3    3  501    0 -0.24487254110E+02  0.96553390528E+00 -0.39899935288E+03  0.39975122448E+03  0.00000000000E+00 0.  1.
         21    1    1    2  502  501  0.30597390670E+02 -0.21234031568E+01 -0.47038960743E+03  0.47138847243E+03  0.00000000000E+00 0.  1.
<mgrwt>
<rscale>  1 0.30000000E+03</rscale>
<asrwt>0</asrwt>
<pdfrwt beam="1">  1        1 0.34541663E-02 0.30000000E+03</pdfrwt>
<pdfrwt beam="2">0</pdfrwt>
<totfact> 0.33473658E+03</totfact>
</mgrwt>
</event>
<event>
 6    1  0.1956957E-002  0.3000000E+03  0.7818608E-02  0.1093470E+00
          1   -1    0    0  502    0  0.00000000000E+00  0.00000000000E+00  0.14323748238E+02  0.14323748238E+02  0.00000000000E+00 0.  1.
         13   -1    0    0    0    0 -0.00000000000E+00 -0.00000000000E+00 -0.10000000000E+04  0.10000000000E+04  0.00000000000E+00 0.  1.
    9000005    2    1    2  501    0  0.23372557102E+02  0.35507314996E+02 -0.96692006405E+03  0.96786042484E+03  0.35136693456E+01 0.  0.
         13    1    3    3    0    0  0.25557389084E+00  0.11205643559E+01 -0.18482235418E+02  0.18517937481E+02  0.00000000000E+00 0.  1.
          1    1    3    3  501    0  0.23116983211E+02  0.34386750640E+02 -0.94843782863E+03  0.94934248736E+03  0.00000000000E+00 0.  1.
         21    1    1    2  502  501 -0.23372557102E+02 -0.35507314996E+02 -0.18756187716E+02  0.46463323400E+02  0.00000000000E+00 0.  1.
<mgrwt>
<rscale>  1 0.30000000E+03</rscale>
<asrwt>0</asrwt>
<pdfrwt beam="1">  1        1 0.52086467E-01 0.30000000E+03</pdfrwt>
<pdfrwt beam="2">0</pdfrwt>
<totfact> 0.83627389E+01</totfact>
</mgrwt>
</event>
<event>
 6    1  0.1956957E-002  0.3000000E+03  0.7818608E-02  0.1093470E+00
          1   -1    0    0  502    0  0.00000000000E+00  0.00000000000E+00  0.36853989247E+01  0.36853989247E+01  0.00000000000E+00 0.  1.
         13   -1    0    0    0    0 -0.00000000000E+00 -0.00000000000E+00 -0.10000000000E+04  0.10000000000E+04  0.00000000000E+00 0.  1.
    9000005    2    1    2  501    0 -0.55141215671E+02  0.19060246058E+02 -0.63615380260E+03  0.63882974609E+03  0.28173186294E+01 0.  0.
         13    1    3    3    0    0 -0.12893116580E+02  0.52203239654E+01 -0.16234488182E+03  0.16293969710E+03  0.00000000000E+00 0.  1.
          3    1    3    3  501    0 -0.42248099092E+02  0.13839922093E+02 -0.47380892078E+03  0.47589004900E+03  0.00000000000E+00 0.  1.
         21    1    1    2  502  501  0.55141215671E+02 -0.19060246058E+02 -0.36016079848E+03  0.36485565283E+03  0.00000000000E+00 0.  1.
<mgrwt>
<rscale>  1 0.30000000E+03</rscale>
<asrwt>0</asrwt>
<pdfrwt beam="1">  1        1 0.13401479E-01 0.30000000E+03</pdfrwt>
<pdfrwt beam="2">0</pdfrwt>
<totfact> 0.50569638E+02</totfact>
</mgrwt>
</event>
<event>
 6    1  0.1956957E-002  0.3000000E+03  0.7818608E-02  0.1093470E+00
          1   -1    0    0  502    0  0.00000000000E+00  0.00000000000E+00  0.17578211585E+02  0.17578211585E+02  0.00000000000E+00 0.  1.
         13   -1    0    0    0    0 -0.00000000000E+00 -0.00000000000E+00 -0.10000000000E+04  0.10000000000E+04  0.00000000000E+00 0.  1.
    9000005    2    1    2  501    0 -0.12826032733E+03  0.25492149632E+02 -0.57463948751E+03  0.58934116719E+03  0.34510112168E+01 0.  0.
         13    1    3    3    0    0 -0.31294579370E+02  0.57893261821E+01 -0.14633689895E+03  0.14975765419E+03  0.00000000000E+00 0.  1.
          1    1    3    3  501    0 -0.96965747963E+02  0.19702823450E+02 -0.42830258856E+03  0.43958351299E+03  0.00000000000E+00 0.  1.
         21    1    1    2  502  501  0.12826032733E+03 -0.25492149632E+02 -0.40778230091E+03  0.42823704440E+03  0.00000000000E+00 0.  1.
<mgrwt>
<rscale>  1 0.30000000E+03</rscale>
<asrwt>0</asrwt>
<pdfrwt beam="1">  1        1 0.63920904E-01 0.30000000E+03</pdfrwt>
<pdfrwt beam="2">0</pdfrwt>
<totfact> 0.63728843E+01</totfact>
</mgrwt>
</event>
<event>
 6    1  0.1956957E-002  0.3000000E+03  0.7818608E-02  0.1093470E+00
          3   -1    0    0  502    0  0.00000000000E+00  0.00000000000E+00  0.13417925095E+01  0.13417925095E+01  0.00000000000E+00 0.  1.
         13   -1    0    0    0    0 -0.00000000000E+00 -0.00000000000E+00 -0.10000000000E+04  0.10000000000E+04  0.00000000000E+00 0.  1.
    9000005    2    1    2  501    0 -0.26439248520E+01  0.34827370612E+02 -0.64849062687E+03  0.64943659135E+03  0.28030286428E+01 0.  0.
         13    1    3    3    0    0 -0.51043116746E+00  0.50218845705E+01 -0.76997018382E+02  0.77162301056E+02  0.00000000000E+00 0.  1.
          3    1    3    3  501    0 -0.21334936846E+01  0.29805486041E+02 -0.57149360849E+03  0.57227429030E+03  0.00000000000E+00 0.  1.
         21    1    1    2  502  501  0.26439248520E+01 -0.34827370612E+02 -0.35016758062E+03  0.35190520115E+03  0.00000000000E+00 0.  1.
<mgrwt>
<rscale>  1 0.30000000E+03</rscale>
<asrwt>0</asrwt>
<pdfrwt beam="1">  1        3 0.48792558E-02 0.30000000E+03</pdfrwt>
<pdfrwt beam="2">0</pdfrwt>
<totfact> 0.10274370E+03</totfact>
</mgrwt>
</event>
<event>
 6    1  0.1956957E-002  0.3000000E+03  0.7818608E-02  0.1093470E+00
          3   -1    0    0  502    0  0.00000000000E+00  0.00000000000E+00  0.99403609135E+00  0.99403609135E+00  0.00000000000E+00 0.  1.
         13   -1    0    0    0    0 -0.00000000000E+00 -0.00000000000E+00 -0.10000000000E+04  0.10000000000E+04  0.00000000000E+00 0.  1.
    9000005    2    1    2  501    0 -0.26404314438E+02 -0.16688066917E+02 -0.44332251745E+03  0.44443337267E+03  0.32386521082E+01 0.  0.
         13    1    3    3    0    0 -0.17914425244E+02 -0.13028467472E+02 -0.30838407389E+03  0.30917859665E+03  0.00000000000E+00 0.  1.
          1    1    3    3  501    0 -0.84898891937E+01 -0.36595994450E+01 -0.13493844356E+03  0.13525477602E+03  0.00000000000E+00 0.  1.
         21    1    1    2  502  501  0.26404314438E+02  0.16688066917E+02 -0.55568344646E+03  0.55656066342E+03  0.00000000000E+00 0.  1.
<mgrwt>
<rscale>  1 0.30000000E+03</rscale>
<asrwt>0</asrwt>
<pdfrwt beam="1">  1        3 0.36146843E-02 0.30000000E+03</pdfrwt>
<pdfrwt beam="2">0</pdfrwt>
<totfact> 0.16305411E+03</totfact>
</mgrwt>
</event>
<event>
 6    1  0.1956957E-002  0.3000000E+03  0.7818608E-02  0.1093470E+00
          3   -1    0    0  502    0  0.00000000000E+00  0.00000000000E+00  0.14520393228E+01  0.14520393228E+01  0.00000000000E+00 0.  1.
         13   -1    0    0    0    0 -0.00000000000E+00 -0.00000000000E+00 -0.10000000000E+04  0.10000000000E+04  0.00000000000E+00 0.  1.
    9000005    2    1    2  501    0 -0.49919207569E+01  0.36533392938E+02 -0.62293603397E+03  0.62403459464E+03  0.32038736710E+01 0.  0.
         13    1    3    3    0    0 -0.59519189950E+00  0.11158625708E+02 -0.20842717162E+03  0.20872650778E+03  0.00000000000E+00 0.  1.
          3    1    3    3  501    0 -0.43967288574E+01  0.25374767230E+02 -0.41450886235E+03  0.41530808685E+03  0.00000000000E+00 0.  1.
         21    1    1    2  502  501  0.49919207569E+01 -0.36533392938E+02 -0.37561192670E+03  0.37741744469E+03  0.00000000000E+00 0.  1.
<mgrwt>
<rscale>  1 0.30000000E+03</rscale>
<asrwt>0</asrwt>
<pdfrwt beam="1">  1        3 0.52801541E-02 0.30000000E+03</pdfrwt>
<pdfrwt beam="2">0</pdfrwt>
<totfact> 0.90947320E+02</totfact>
</mgrwt>
</event>
<event>
 6    1  0.1956957E-002  0.3000000E+03  0.7818608E-02  0.1093470E+00
          3   -1    0    0  502    0  0.00000000000E+00  0.00000000000E+00  0.38439719163E+01  0.38439719163E+01  0.00000000000E+00 0.  1.
         13   -1    0    0    0    0 -0.00000000000E+00 -0.00000000000E+00 -0.10000000000E+04  0.10000000000E+04  0.00000000000E+00 0.  1.
    9000005    2    1    2  501    0  0.49815620607E+02 -0.36822850007E+02 -0.50879533038E+03  0.51256200806E+03  0.30992831727E+01 0.  0.
         13    1    3    3    0    0  0.19238073266E+02 -0.14989197665E+02 -0.18895495153E+03  0.19052231685E+03  0.00000000000E+00 0.  1.
          3    1    3    3  501    0  0.30577547341E+02 -0.21833652342E+02 -0.31984037885E+03  0.32203969121E+03  0.00000000000E+00 0.  1.
         21    1    1    2  502  501 -0.49815620607E+02  0.36822850007E+02 -0.48736069771E+03  0.49128196385E+03  0.00000000000E+00 0.  1.
<mgrwt>
<rscale>  1 0.30000000E+03</rscale>
<asrwt>0</asrwt>
<pdfrwt beam="1">  1        3 0.13978109E-01 0.30000000E+03</pdfrwt>
<pdfrwt beam="2">0</pdfrwt>
<totfact> 0.18796757E+02</totfact>
</mgrwt>
</event>
<event>
 6    1  0.1956957E-002  0.3000000E+03  0.7818608E-02  0.1093470E+00
          1   -1    0    0  502    0  0.00000000000E+00  0.00000000000E+00  0.13672630990E+01  0.13672630990E+01  0.00000000000E+00 0.  1.
         13   -1    0    0    0    0 -0.00000000000E+00 -0.00000000000E+00 -0.10000000000E+04  0.10000000000E+04  0.00000000000E+00 0.  1.
    9000005    2    1    2  501    0  0.30083145682E+02  0.18031189667E+01 -0.78858829579E+03  0.78917180100E+03  0.35191405816E+01 0.  0.
         13    1    3    3    0    0  0.14317479704E+02 -0.86387899692E+00 -0.38236035037E+03  0.38262929063E+03  0.00000000000E+00 0.  1.
          3    1    3    3  501    0  0.15765665978E+02  0.26669979637E+01 -0.40622794542E+03  0.40654251037E+03  0.00000000000E+00 0.  1.
         21    1    1    2  502  501 -0.30083145682E+02 -0.18031189667E+01 -0.21004444111E+03  0.21219546210E+03  0.00000000000E+00 0.  1.
<mgrwt>
<rscale>  1 0.30000000E+03</rscale>
<asrwt>0</asrwt>
<pdfrwt beam="1">  1        1 0.49718763E-02 0.30000000E+03</pdfrwt>
<pdfrwt beam="2">0</pdfrwt>
<totfact> 0.20049940E+03</totfact>
</mgrwt>
</event>
<event>
 6    1  0.1956957E-002  0.3000000E+03  0.7818608E-02  0.1093470E+00
          1   -1    0    0  502    0  0.00000000000E+00  0.00000000000E+00  0.10471057714E+01  0.10471057714E+01  0.00000000000E+00 0.  1.
         13   -1    0    0    0    0 -0.00000000000E+00 -0.00000000000E+00 -0.10000000000E+04  0.10000000000E+04  0.00000000000E+00 0.  1.
    9000005    2    1    2  501    0  0.27413794533E+02  0.16354334101E+02 -0.57068644571E+03  0.57159264800E+03  0.40193971799E+01 0.  0.
         13    1    3    3    0    0  0.76574524263E+01  0.66813394949E+01 -0.18819184781E+03  0.18846604060E+03  0.00000000000E+00 0.  1.
          1    1    3    3  501    0  0.19756342107E+02  0.96729946062E+01 -0.38249459790E+03  0.38312660740E+03  0.00000000000E+00 0.  1.
         21    1    1    2  502  501 -0.27413794533E+02 -0.16354334101E+02 -0.42826644852E+03  0.42945445777E+03  0.00000000000E+00 0.  1.
<mgrwt>
<rscale>  1 0.30000000E+03</rscale>
<asrwt>0</asrwt>
<pdfrwt beam="1">  1        1 0.38076654E-02 0.30000000E+03</pdfrwt>
<pdfrwt beam="2">0</pdfrwt>
<totfact> 0.29185605E+03</totfact>
</mgrwt>
</event>
<event>
 6    1  0.1956957E-002  0.3000000E+03  0.7818608E-02  0.1093470E+00
          1   -1    0    0  502    0  0.00000000000E+00  0.00000000000E+00  0.13008729370E+01  0.13008729370E+01  0.00000000000E+00 0.  1.
         13   -1    0    0    0    0 -0.00000000000E+00 -0.00000000000E+00 -0.10000000000E+04  0.10000000000E+04  0.00000000000E+00 0.  1.
    9000005    2    1    2  501    0  0.33208024225E+02  0.89682744951E+01 -0.64764795939E+03  0.64856850252E+03  0.31654904135E+01 0.  0.
         13    1    3    3    0    0  0.10139840840E+02  0.21717437908E+01 -0.22133280262E+03  0.22157559062E+03  0.00000000000E+00 0.  1.
          3    1    3    3  501    0  0.23068183385E+02  0.67965307043E+01 -0.42631515678E+03  0.42699291190E+03  0.00000000000E+00 0.  1.
         21    1    1    2  502  501 -0.33208024225E+02 -0.89682744951E+01 -0.35105116767E+03  0.35273237042E+03  0.00000000000E+00 0.  1.
<mgrwt>
<rscale>  1 0.30000000E+03</rscale>
<asrwt>0</asrwt>
<pdfrwt beam="1">  1        1 0.47304570E-02 0.30000000E+03</pdfrwt>
<pdfrwt beam="2">0</pdfrwt>
<totfact> 0.21503459E+03</totfact>
</mgrwt>
</event>
<event>
 6    1  0.1956957E-002  0.3000000E+03  0.7818608E-02  0.1093470E+00
          1   -1    0    0  502    0  0.00000000000E+00  0.00000000000E+00  0.86148544827E+01  0.86148544827E+01  0.00000000000E+00 0.  1.
         13   -1    0    0    0    0 -0.00000000000E+00 -0.00000000000E+00 -0.10000000000E+04  0.10000000000E+04  0.00000000000E+00 0.  1.
    9000005    2    1    2  501    0 -0.73491708063E+02 -0.22408868165E+01 -0.18822188425E+03  0.20209313936E+03  0.28471977418E+01 0.  0.
         13    1    3    3    0    0 -0.68380290728E+02 -0.27077533593E+01 -0.17607700355E+03  0.18890819799E+03  0.00000000000E+00 0.  1.
          1    1    3    3  501    0 -0.51114173345E+01  0.46686654282E+00 -0.12144880698E+02  0.13184941362E+02  0.00000000000E+00 0.  1.
         21    1    1    2  502  501  0.73491708063E+02  0.22408868165E+01 -0.80316326126E+03  0.80652171513E+03  0.00000000000E+00 0.  1.
<mgrwt>
<rscale>  1 0.30000000E+03</rscale>
<asrwt>0</asrwt>
<pdfrwt beam="1">  1        1 0.31326810E-01 0.30000000E+03</pdfrwt>
<pdfrwt beam="2">0</pdfrwt>
<totfact> 0.16271492E+02</totfact>
</mgrwt>
</event>
<event>
 6    1  0.1956957E-002  0.3000000E+03  0.7818608E-02  0.1093470E+00
          1   -1    0    0  502    0  0.00000000000E+00  0.00000000000E+00  0.68981999944E+01  0.68981999944E+01  0.00000000000E+00 0.  1.
         13   -1    0    0    0    0 -0.00000000000E+00 -0.00000000000E+00 -0.10000000000E+04  0.10000000000E+04  0.00000000000E+00 0.  1.
    9000005    2    1    2  501    0 -0.25760912226E+02 -0.56692001538E+02 -0.82955740126E+03  0.83189997715E+03  0.38055699941E+01 0.  0.
         13    1    3    3    0    0 -0.10228449123E+02 -0.26435602356E+02 -0.36411656956E+03  0.36521820665E+03  0.00000000000E+00 0.  1.
          1    1    3    3  501    0 -0.15532463103E+02 -0.30256399182E+02 -0.46544083170E+03  0.46668177050E+03  0.00000000000E+00 0.  1.
         21    1    1    2  502  501  0.25760912226E+02  0.56692001538E+02 -0.16354439875E+03  0.17499822285E+03  0.00000000000E+00 0.  1.
<mgrwt>
<rscale>  1 0.30000000E+03</rscale>
<asrwt>0</asrwt>
<pdfrwt beam="1">  1        1 0.25084417E-01 0.30000000E+03</pdfrwt>
<pdfrwt beam="2">0</pdfrwt>
<totfact> 0.21796248E+02</totfact>
</mgrwt>
</event>
<event>
 6    1  0.1956957E-002  0.3000000E+03  0.7818608E-02  0.1093470E+00
          3   -1    0    0  502    0  0.00000000000E+00  0.00000000000E+00  0.15788864762E+01  0.15788864762E+01  0.00000000000E+00 0.  1.
         13   -1    0    0    0    0 -0.00000000000E+00 -0.00000000000E+00 -0.10000000000E+04  0.10000000000E+04  0.00000000000E+00 0.  1.
    9000005    2    1    2  501    0  0.18459429815E+01 -0.35837191195E+02 -0.71300438587E+03  0.71391515883E+03  0.34478921576E+01 0.  0.
         13    1    3    3    0    0  0.20290774960E+01 -0.96117001966E+01 -0.19301836725E+03  0.19326818681E+03  0.00000000000E+00 0.  1.
          3    1    3    3  501    0 -0.18313451449E+00 -0.26225490998E+02 -0.51998601862E+03  0.52064697202E+03  0.00000000000E+00 0.  1.
         21    1    1    2  502  501 -0.18459429815E+01  0.35837191195E+02 -0.28541672765E+03  0.28766372764E+03  0.00000000000E+00 0.  1.
<mgrwt>
<rscale>  1 0.30000000E+03</rscale>
<asrwt>0</asrwt>
<pdfrwt beam="1">  1        3 0.57414175E-02 0.30000000E+03</pdfrwt>
<pdfrwt beam="2">0</pdfrwt>
<totfact> 0.79869922E+02</totfact>
</mgrwt>
</event>
<event>
 6    1  0.1956957E-002  0.3000000E+03  0.7818608E-02  0.1093470E+00
          1   -1    0    0  502    0  0.00000000000E+00  0.00000000000E+00  0.20605217492E+01  0.20605217492E+01  0.00000000000E+00 0.  1.
         13   -1    0    0    0    0 -0.00000000000E+00 -0.00000000000E+00 -0.10000000000E+04  0.10000000000E+04  0.00000000000E+00 0.  1.
    9000005    2    1    2  501    0  0.15635044395E+02  0.41803349340E+02 -0.57798367780E+03  0.57973973258E+03  0.64071135013E+01 0.  0.
         13    1    3    3    0    0  0.46747111414E+01  0.17611660254E+02 -0.26920637017E+03  0.26982233644E+03  0.00000000000E+00 0.  1.
          3    1    3    3  501    0  0.10960333254E+02  0.24191689087E+02 -0.30877730763E+03  0.30991739614E+03  0.00000000000E+00 0.  1.
         21    1    1    2  502  501 -0.15635044395E+02 -0.41803349340E+02 -0.41995580045E+03  0.42232078917E+03  0.00000000000E+00 0.  1.
<mgrwt>
<rscale>  1 0.30000000E+03</rscale>
<asrwt>0</asrwt>
<pdfrwt beam="1">  1        1 0.74928222E-02 0.30000000E+03</pdfrwt>
<pdfrwt beam="2">0</pdfrwt>
<totfact> 0.11282989E+03</totfact>
</mgrwt>
</event>
<event>
 6    1  0.1956957E-002  0.3000000E+03  0.7818608E-02  0.1093470E+00
          1   -1    0    0  502    0  0.00000000000E+00  0.00000000000E+00  0.11618002884E+01  0.11618002884E+01  0.00000000000E+00 0.  1.
         13   -1    0    0    0    0 -0.00000000000E+00 -0.00000000000E+00 -0.10000000000E+04  0.10000000000E+04  0.00000000000E+00 0.  1.
    9000005    2    1    2  501    0 -0.26579335013E+02  0.16489778328E+02 -0.68604298970E+03  0.68680655977E+03  0.83602021032E+01 0.  0.
         13    1    3    3    0    0 -0.41324520704E+01  0.28983066147E+01 -0.19278026064E+03  0.19284632803E+03  0.00000000000E+00 0.  1.
          3    1    3    3  501    0 -0.22446882943E+02  0.13591471713E+02 -0.49326272906E+03  0.49396023174E+03  0.00000000000E+00 0.  1.
         21    1    1    2  502  501  0.26579335013E+02 -0.16489778328E+02 -0.31279521001E+03  0.31435524052E+03  0.00000000000E+00 0.  1.
<mgrwt>
<rscale>  1 0.30000000E+03</rscale>
<asrwt>0</asrwt>
<pdfrwt beam="1">  1        1 0.42247372E-02 0.30000000E+03</pdfrwt>
<pdfrwt beam="2">0</pdfrwt>
<totfact> 0.25212446E+03</totfact>
</mgrwt>
</event>
<event>
 6    1  0.1956957E-002  0.3000000E+03  0.7818608E-02  0.1093470E+00
          1   -1    0    0  502    0  0.00000000000E+00  0.00000000000E+00  0.25879667560E+02  0.25879667560E+02  0.00000000000E+00 0.  1.
         13   -1    0    0    0    0 -0.00000000000E+00 -0.00000000000E+00 -0.10000000000E+04  0.10000000000E+04  0.00000000000E+00 0.  1.
    9000005    2    1    2  501    0 -0.98734804940E+01  0.15102477786E+03 -0.66067216559E+03  0.67780536163E+03  0.51408876915E+01 0.  0.
         13    1    3    3    0    0 -0.20367278974E+01  0.69983112983E+02 -0.30370303411E+03  0.31166860171E+03  0.00000000000E+00 0.  1.
          3    1    3    3  501    0 -0.78367525966E+01  0.81041664880E+02 -0.35696913148E+03  0.36613675993E+03  0.00000000000E+00 0.  1.
         21    1    1    2  502  501  0.98734804940E+01 -0.15102477786E+03 -0.31344816685E+03  0.34807430593E+03  0.00000000000E+00 0.  1.
<mgrwt>
<rscale>  1 0.30000000E+03</rscale>
<asrwt>0</asrwt>
<pdfrwt beam="1">  1        1 0.94108080E-01 0.30000000E+03</pdfrwt>
<pdfrwt beam="2">0</pdfrwt>
<totfact> 0.37374539E+01</totfact>
</mgrwt>
</event>
<event>
 6    1  0.1956957E-002  0.3000000E+03  0.7818608E-02  0.1093470E+00
          1   -1    0    0  502    0  0.00000000000E+00  0.00000000000E+00  0.29783698631E+01  0.29783698631E+01  0.00000000000E+00 0.  1.
         13   -1    0    0    0    0 -0.00000000000E+00 -0.00000000000E+00 -0.10000000000E+04  0.10000000000E+04  0.00000000000E+00 0.  1.
    9000005    2    1    2  501    0  0.17660021647E+02 -0.24914677793E+02 -0.91400268290E+03  0.91452067866E+03  0.38144197957E+01 0.  0.
         13    1    3    3    0    0  0.10111292572E+02 -0.11226257746E+02 -0.47124648030E+03  0.47148861311E+03  0.00000000000E+00 0.  1.
          1    1    3    3  501    0  0.75487290757E+01 -0.13688420047E+02 -0.44275620261E+03  0.44303206554E+03  0.00000000000E+00 0.  1.
         21    1    1    2  502  501 -0.17660021647E+02  0.24914677793E+02 -0.83018947232E+02  0.88457691207E+02  0.00000000000E+00 0.  1.
<mgrwt>
<rscale>  1 0.30000000E+03</rscale>
<asrwt>0</asrwt>
<pdfrwt beam="1">  1        1 0.10830459E-01 0.30000000E+03</pdfrwt>
<pdfrwt beam="2">0</pdfrwt>
<totfact> 0.67707787E+02</totfact>
</mgrwt>
</event>
<event>
 6    1  0.1956957E-002  0.3000000E+03  0.7818608E-02  0.1093470E+00
          3   -1    0    0  502    0  0.00000000000E+00  0.00000000000E+00  0.32509380931E+01  0.32509380931E+01  0.00000000000E+00 0.  1.
         13   -1    0    0    0    0 -0.00000000000E+00 -0.00000000000E+00 -0.10000000000E+04  0.10000000000E+04  0.00000000000E+00 0.  1.
    9000005    2    1    2  501    0 -0.43976195766E+02  0.14611692466E+02 -0.79035308748E+03  0.79171676683E+03  0.31668037148E+01 0.  0.
         13    1    3    3    0    0 -0.22756721276E+02  0.84827503524E+01 -0.43632217992E+03  0.43699756304E+03  0.00000000000E+00 0.  1.
          1    1    3    3  501    0 -0.21219474490E+02  0.61289421137E+01 -0.35403090756E+03  0.35471920379E+03  0.00000000000E+00 0.  1.
         21    1    1    2  502  501  0.43976195766E+02 -0.14611692466E+02 -0.20639597443E+03  0.21153417126E+03  0.00000000000E+00 0.  1.
<mgrwt>
<rscale>  1 0.30000000E+03</rscale>
<asrwt>0</asrwt>
<pdfrwt beam="1">  1        3 0.11821618E-01 0.30000000E+03</pdfrwt>
<pdfrwt beam="2">0</pdfrwt>
<totfact> 0.24984041E+02</totfact>
</mgrwt>
</event>
<event>
 6    1  0.1956957E-002  0.3000000E+03  0.7818608E-02  0.1093470E+00
          1   -1    0    0  502    0  0.00000000000E+00  0.00000000000E+00  0.13466211777E+01  0.13466211777E+01  0.00000000000E+00 0.  1.
         13   -1    0    0    0    0 -0.00000000000E+00 -0.00000000000E+00 -0.10000000000E+04  0.10000000000E+04  0.00000000000E+00 0.  1.
    9000005    2    1    2  501    0  0.35941945995E+02  0.71004028170E+01 -0.51219742698E+03  0.51351300991E+03  0.26773003536E+01 0.  0.
         13    1    3    3    0    0  0.19288304657E+01  0.90233865948E+00 -0.35099325024E+02  0.35163862404E+02  0.00000000000E+00 0.  1.
          1    1    3    3  501    0  0.34013115530E+02  0.61980641575E+01 -0.47709810196E+03  0.47834914750E+03  0.00000000000E+00 0.  1.
         21    1    1    2  502  501 -0.35941945995E+02 -0.71004028170E+01 -0.48645595184E+03  0.48783361127E+03  0.00000000000E+00 0.  1.
<mgrwt>
<rscale>  1 0.30000000E+03</rscale>
<asrwt>0</asrwt>
<pdfrwt beam="1">  1        1 0.48968146E-02 0.30000000E+03</pdfrwt>
<pdfrwt beam="2">0</pdfrwt>
<totfact> 0.20483330E+03</totfact>
</mgrwt>
</event>
<event>
 6    1  0.1956957E-002  0.3000000E+03  0.7818608E-02  0.1093470E+00
          1   -1    0    0  502    0  0.00000000000E+00  0.00000000000E+00  0.15478568081E+01  0.15478568081E+01  0.00000000000E+00 0.  1.
         13   -1    0    0    0    0 -0.00000000000E+00 -0.00000000000E+00 -0.10000000000E+04  0.10000000000E+04  0.00000000000E+00 0.  1.
    9000005    2    1    2  501    0 -0.36376041181E+02 -0.99683537600E+01 -0.63576736167E+03  0.63690716353E+03  0.52926684136E+01 0.  0.
         13    1    3    3    0    0 -0.25717730663E+02 -0.82251770514E+01 -0.41685032437E+03  0.41772388983E+03  0.00000000000E+00 0.  1.
          3    1    3    3  501    0 -0.10658310518E+02 -0.17431767086E+01 -0.21891703730E+03  0.21918327369E+03  0.00000000000E+00 0.  1.
         21    1    1    2  502  501  0.36376041181E+02  0.99683537600E+01 -0.36268478152E+03  0.36464069328E+03  0.00000000000E+00 0.  1.
<mgrwt>
<rscale>  1 0.30000000E+03</rscale>
<asrwt>0</asrwt>
<pdfrwt beam="1">  1        1 0.56285821E-02 0.30000000E+03</pdfrwt>
<pdfrwt beam="2">0</pdfrwt>
<totfact> 0.16843307E+03</totfact>
</mgrwt>
</event>
<event>
 6    1  0.1956957E-002  0.3000000E+03  0.7818608E-02  0.1093470E+00
          1   -1    0    0  502    0  0.00000000000E+00  0.00000000000E+00  0.21120135623E+01  0.21120135623E+01  0.00000000000E+00 0.  1.
         13   -1    0    0    0    0 -0.00000000000E+00 -0.00000000000E+00 -0.10000000000E+04  0.10000000000E+04  0.00000000000E+00 0.  1.
    9000005    2    1    2  501    0  0.20230305736E+02  0.29909505325E+02 -0.80838822617E+03  0.80920270087E+03  0.36936592221E+01 0.  0.
         13    1    3    3    0    0  0.16496081608E+02  0.26593167256E+02 -0.70316590078E+03  0.70386191918E+03  0.00000000000E+00 0.  1.
          3    1    3    3  501    0  0.37342241279E+01  0.33163380691E+01 -0.10522232539E+03  0.10534078170E+03  0.00000000000E+00 0.  1.
         21    1    1    2  502  501 -0.20230305736E+02 -0.29909505325E+02 -0.18949976027E+03  0.19290931269E+03  0.00000000000E+00 0.  1.
<mgrwt>
<rscale>  1 0.30000000E+03</rscale>
<asrwt>0</asrwt>
<pdfrwt beam="1">  1        1 0.76800655E-02 0.30000000E+03</pdfrwt>
<pdfrwt beam="2">0</pdfrwt>
<totfact> 0.10901062E+03</totfact>
</mgrwt>
</event>
<event>
 6    1  0.1956957E-002  0.3000000E+03  0.7818608E-02  0.1093470E+00
          1   -1    0    0  502    0  0.00000000000E+00  0.00000000000E+00  0.23737264173E+01  0.23737264173E+01  0.00000000000E+00 0.  1.
         13   -1    0    0    0    0 -0.00000000000E+00 -0.00000000000E+00 -0.10000000000E+04  0.10000000000E+04  0.00000000000E+00 0.  1.
    9000005    2    1    2  501    0  0.16686490286E+02 -0.34076778392E+02 -0.81283712256E+03  0.81372936228E+03  0.34090244433E+01 0.  0.
         13    1    3    3    0    0  0.46261789733E+01 -0.13067807604E+02 -0.28751985638E+03  0.28785384649E+03  0.00000000000E+00 0.  1.
          3    1    3    3  501    0  0.12060311313E+02 -0.21008970788E+02 -0.52531726618E+03  0.52587551579E+03  0.00000000000E+00 0.  1.
         21    1    1    2  502  501 -0.16686490286E+02  0.34076778392E+02 -0.18478915102E+03  0.18864436414E+03  0.00000000000E+00 0.  1.
<mgrwt>
<rscale>  1 0.30000000E+03</rscale>
<asrwt>0</asrwt>
<pdfrwt beam="1">  1        1 0.86317506E-02 0.30000000E+03</pdfrwt>
<pdfrwt beam="2">0</pdfrwt>
<totfact> 0.92656037E+02</totfact>
</mgrwt>
</event>
<event>
 6    1  0.1956957E-002  0.3000000E+03  0.7818608E-02  0.1093470E+00
          3   -1    0    0  502    0  0.00000000000E+00  0.00000000000E+00  0.10255733072E+01  0.10255733072E+01  0.00000000000E+00 0.  1.
         13   -1    0    0    0    0 -0.00000000000E+00 -0.00000000000E+00 -0.10000000000E+04  0.10000000000E+04  0.00000000000E+00 0.  1.
    9000005    2    1    2  501    0 -0.28046962147E+02  0.14436581750E+02 -0.57967210773E+03  0.58053837770E+03  0.31636259472E+01 0.  0.
         13    1    3    3    0    0 -0.26712598015E+02  0.14234121347E+02 -0.54483015390E+03  0.54567029395E+03  0.00000000000E+00 0.  1.
          1    1    3    3  501    0 -0.13343641323E+01  0.20246040354E+00 -0.34841953828E+02  0.34868083751E+02  0.00000000000E+00 0.  1.
         21    1    1    2  502  501  0.28046962147E+02 -0.14436581750E+02 -0.41930231897E+03  0.42048719561E+03  0.00000000000E+00 0.  1.
<mgrwt>
<rscale>  1 0.30000000E+03</rscale>
<asrwt>0</asrwt>
<pdfrwt beam="1">  1        3 0.37293653E-02 0.30000000E+03</pdfrwt>
<pdfrwt beam="2">0</pdfrwt>
<totfact> 0.15539286E+03</totfact>
</mgrwt>
</event>
<event>
 6    1  0.1956957E-002  0.3000000E+03  0.7818608E-02  0.1093470E+00
          1   -1    0    0  502    0  0.00000000000E+00  0.00000000000E+00  0.14337169311E+02  0.14337169311E+02  0.00000000000E+00 0.  1.
         13   -1    0    0    0    0 -0.00000000000E+00 -0.00000000000E+00 -0.10000000000E+04  0.10000000000E+04  0.00000000000E+00 0.  1.
    9000005    2    1    2  501    0  0.21697685679E+02 -0.33872381355E+02 -0.97051532795E+03  0.97135374667E+03  0.31577849025E+01 0.  0.
         13    1    3    3    0    0  0.50562987258E+01 -0.98248524915E+01 -0.28957308783E+03  0.28978382819E+03  0.00000000000E+00 0.  1.
          3    1    3    3  501    0  0.16641386953E+02 -0.24047528864E+02 -0.68094224012E+03  0.68156991848E+03  0.00000000000E+00 0.  1.
         21    1    1    2  502  501 -0.21697685679E+02  0.33872381355E+02 -0.15147502738E+02  0.42983422638E+02  0.00000000000E+00 0.  1.
<mgrwt>
<rscale>  1 0.30000000E+03</rscale>
<asrwt>0</asrwt>
<pdfrwt beam="1">  1        1 0.52135271E-01 0.30000000E+03</pdfrwt>
<pdfrwt beam="2">0</pdfrwt>
<totfact> 0.83524203E+01</totfact>
</mgrwt>
</event>
<event>
 6    1  0.1956957E-002  0.3000000E+03  0.7818608E-02  0.1093470E+00
          3   -1    0    0  502    0  0.00000000000E+00  0.00000000000E+00  0.10800954973E+02  0.10800954973E+02  0.00000000000E+00 0.  1.
         13   -1    0    0    0    0 -0.00000000000E+00 -0.00000000000E+00 -0.10000000000E+04  0.10000000000E+04  0.00000000000E+00 0.  1.
    9000005    2    1    2  501    0 -0.47268705918E+02  0.46983523704E+02 -0.88235385589E+03  0.88487368826E+03  0.33667673629E+01 0.  0.
         13    1    3    3    0    0 -0.20678812558E+02  0.22117105151E+02 -0.38402559010E+03  0.38521738471E+03  0.00000000000E+00 0.  1.
          3    1    3    3  501    0 -0.26589893360E+02  0.24866418552E+02 -0.49832826579E+03  0.49965630356E+03  0.00000000000E+00 0.  1.
         21    1    1    2  502  501  0.47268705918E+02 -0.46983523704E+02 -0.10684518914E+03  0.12592726671E+03  0.00000000000E+00 0.  1.
<mgrwt>
<rscale>  1 0.30000000E+03</rscale>
<asrwt>0</asrwt>
<pdfrwt beam="1">  1        3 0.39276283E-01 0.30000000E+03</pdfrwt>
<pdfrwt beam="2">0</pdfrwt>
<totfact> 0.27889190E+01</totfact>
</mgrwt>
</event>
<event>
 6    1  0.1956957E-002  0.3000000E+03  0.7818608E-02  0.1093470E+00
          1   -1    0    0  502    0  0.00000000000E+00  0.00000000000E+00  0.12798834566E+01  0.12798834566E+01  0.00000000000E+00 0.  1.
         13   -1    0    0    0    0 -0.00000000000E+00 -0.00000000000E+00 -0.10000000000E+04  0.10000000000E+04  0.00000000000E+00 0.  1.
    9000005    2    1    2  501    0 -0.34654241464E+02 -0.49275055024E+01 -0.59956504438E+03  0.60059301270E+03  0.29202227936E+01 0.  0.
         13    1    3    3    0    0 -0.59217747187E+01 -0.46459759503E+00 -0.12057319011E+03  0.12071941617E+03  0.00000000000E+00 0.  1.
          1    1    3    3  501    0 -0.28732466746E+02 -0.44629079073E+01 -0.47899185427E+03  0.47987359653E+03  0.00000000000E+00 0.  1.
         21    1    1    2  502  501  0.34654241464E+02  0.49275055024E+01 -0.39915507216E+03  0.40068687075E+03  0.00000000000E+00 0.  1.
<mgrwt>
<rscale>  1 0.30000000E+03</rscale>
<asrwt>0</asrwt>
<pdfrwt beam="1">  1        1 0.46541315E-02 0.30000000E+03</pdfrwt>
<pdfrwt beam="2">0</pdfrwt>
<totfact> 0.22001154E+03</totfact>
</mgrwt>
</event>
<event>
 6    1  0.1956957E-002  0.3000000E+03  0.7818608E-02  0.1093470E+00
          1   -1    0    0  502    0  0.00000000000E+00  0.00000000000E+00  0.16104133521E+01  0.16104133521E+01  0.00000000000E+00 0.  1.
         13   -1    0    0    0    0 -0.00000000000E+00 -0.00000000000E+00 -0.10000000000E+04  0.10000000000E+04  0.00000000000E+00 0.  1.
    9000005    2    1    2  501    0  0.25120451058E+02 -0.28972802594E+02 -0.64402627801E+03  0.64517835130E+03  0.38467992599E+01 0.  0.
         13    1    3    3    0    0  0.22015436711E+02 -0.25251148711E+02 -0.53876458621E+03  0.53980513087E+03  0.00000000000E+00 0.  1.
          1    1    3    3  501    0  0.31050143468E+01 -0.37216538829E+01 -0.10526169180E+03  0.10537322043E+03  0.00000000000E+00 0.  1.
         21    1    1    2  502  501 -0.25120451058E+02  0.28972802594E+02 -0.35436330864E+03  0.35643206205E+03  0.00000000000E+00 0.  1.
<mgrwt>
<rscale>  1 0.30000000E+03</rscale>
<asrwt>0</asrwt>
<pdfrwt beam="1">  1        1 0.58560609E-02 0.30000000E+03</pdfrwt>
<pdfrwt beam="2">0</pdfrwt>
<totfact> 0.15932142E+03</totfact>
</mgrwt>
</event>
<event>
 6    1  0.1956957E-002  0.3000000E+03  0.7818608E-02  0.1093470E+00
          1   -1    0    0  502    0  0.00000000000E+00  0.00000000000E+00  0.44289406223E+01  0.44289406223E+01  0.00000000000E+00 0.  1.
         13   -1    0    0    0    0 -0.00000000000E+00 -0.00000000000E+00 -0.10000000000E+04  0.10000000000E+04  0.00000000000E+00 0.  1.
    9000005    2    1    2  501    0 -0.16678871525E+02 -0.43924105343E+02 -0.85337902961E+03  0.85467552625E+03  0.26410631570E+01 0.  0.
         13    1    3    3    0    0 -0.71544478627E+01 -0.16858992249E+02 -0.31310303183E+03  0.31363819966E+03  0.00000000000E+00 0.  1.
          3    1    3    3  501    0 -0.95244236622E+01 -0.27065113093E+02 -0.54027599777E+03  0.54103732659E+03  0.00000000000E+00 0.  1.
         21    1    1    2  502  501  0.16678871525E+02  0.43924105343E+02 -0.14219202977E+03  0.14975341437E+03  0.00000000000E+00 0.  1.
<mgrwt>
<rscale>  1 0.30000000E+03</rscale>
<asrwt>0</asrwt>
<pdfrwt beam="1">  1        1 0.16105273E-01 0.30000000E+03</pdfrwt>
<pdfrwt beam="2">0</pdfrwt>
<totfact> 0.39395187E+02</totfact>
</mgrwt>
</event>
<event>
 6    1  0.1956957E-002  0.3000000E+03  0.7818608E-02  0.1093470E+00
          1   -1    0    0  502    0  0.00000000000E+00  0.00000000000E+00  0.58284022626E+01  0.58284022626E+01  0.00000000000E+00 0.  1.
         13   -1    0    0    0    0 -0.00000000000E+00 -0.00000000000E+00 -0.10000000000E+04  0.10000000000E+04  0.00000000000E+00 0.  1.
    9000005    2    1    2  501    0 -0.58440342792E+02 -0.86043302984E+01 -0.81507706436E+03  0.81724377922E+03  0.68895318158E+01 0.  0.
         13    1    3    3    0    0 -0.14530503708E+01 -0.13267484654E+01 -0.33881709085E+02  0.33938795314E+02  0.00000000000E+00 0.  1.
          3    1    3    3  501    0 -0.56987292422E+02 -0.72775818331E+01 -0.78119535528E+03  0.78330498390E+03  0.00000000000E+00 0.  1.
         21    1    1    2  502  501  0.58440342792E+02  0.86043302984E+01 -0.17909453337E+03  0.18858462305E+03  0.00000000000E+00 0.  1.
<mgrwt>
<rscale>  1 0.30000000E+03</rscale>
<asrwt>0</asrwt>
<pdfrwt beam="1">  1        1 0.21194235E-01 0.30000000E+03</pdfrwt>
<pdfrwt beam="2">0</pdfrwt>
<totfact> 0.27249253E+02</totfact>
</mgrwt>
</event>
<event>
 6    1  0.1956957E-002  0.3000000E+03  0.7818608E-02  0.1093470E+00
          1   -1    0    0  502    0  0.00000000000E+00  0.00000000000E+00  0.19835576033E+01  0.19835576033E+01  0.00000000000E+00 0.  1.
         13   -1    0    0    0    0 -0.00000000000E+00 -0.00000000000E+00 -0.10000000000E+04  0.10000000000E+04  0.00000000000E+00 0.  1.
    9000005    2    1    2  501    0  0.36608595885E+02  0.10709971514E+02 -0.75700085250E+03  0.75796837907E+03  0.32985145576E+01 0.  0.
         13    1    3    3    0    0  0.22531765447E+02  0.79615475845E+01 -0.49078732614E+03  0.49136876803E+03  0.00000000000E+00 0.  1.
          3    1    3    3  501    0  0.14076830439E+02  0.27484239296E+01 -0.26621352636E+03  0.26659961104E+03  0.00000000000E+00 0.  1.
         21    1    1    2  502  501 -0.36608595885E+02 -0.10709971514E+02 -0.24101558990E+03  0.24401517854E+03  0.00000000000E+00 0.  1.
<mgrwt>
<rscale>  1 0.30000000E+03</rscale>
<asrwt>0</asrwt>
<pdfrwt beam="1">  1        1 0.72129519E-02 0.30000000E+03</pdfrwt>
<pdfrwt beam="2">0</pdfrwt>
<totfact> 0.11899078E+03</totfact>
</mgrwt>
</event>
<event>
 6    1  0.1956957E-002  0.3000000E+03  0.7818608E-02  0.1093470E+00
          1   -1    0    0  502    0  0.00000000000E+00  0.00000000000E+00  0.33917393423E+01  0.33917393423E+01  0.00000000000E+00 0.  1.
         13   -1    0    0    0    0 -0.00000000000E+00 -0.00000000000E+00 -0.10000000000E+04  0.10000000000E+04  0.00000000000E+00 0.  1.
    9000005    2    1    2  501    0  0.25770110894E+02 -0.30406989901E+02 -0.86392476756E+03  0.86485079597E+03  0.34945147183E+01 0.  0.
         13    1    3    3    0    0  0.19040394534E+02 -0.24452065483E+02 -0.68423458927E+03  0.68493606510E+03  0.00000000000E+00 0.  1.
          1    1    3    3  501    0  0.67297163603E+01 -0.59549244177E+01 -0.17969017830E+03  0.17991473087E+03  0.00000000000E+00 0.  1.
         21    1    1    2  502  501 -0.25770110894E+02  0.30406989901E+02 -0.13268349309E+03  0.13854094337E+03  0.00000000000E+00 0.  1.
<mgrwt>
<rscale>  1 0.30000000E+03</rscale>
<asrwt>0</asrwt>
<pdfrwt beam="1">  1        1 0.12333624E-01 0.30000000E+03</pdfrwt>
<pdfrwt beam="2">0</pdfrwt>
<totfact> 0.56647977E+02</totfact>
</mgrwt>
</event>
<event>
 6    1  0.1956957E-002  0.3000000E+03  0.7818608E-02  0.1093470E+00
          1   -1    0    0  502    0  0.00000000000E+00  0.00000000000E+00  0.84540233822E+01  0.84540233822E+01  0.00000000000E+00 0.  1.
         13   -1    0    0    0    0 -0.00000000000E+00 -0.00000000000E+00 -0.10000000000E+04  0.10000000000E+04  0.00000000000E+00 0.  1.
    9000005    2    1    2  501    0  0.16949169714E+02 -0.30587355430E+02 -0.96204712523E+03  0.96270423760E+03  0.64743536129E+01 0.  0.
         13    1    3    3    0    0  0.10358727734E+02 -0.24467194467E+02 -0.71997357596E+03  0.72046366802E+03  0.00000000000E+00 0.  1.
          3    1    3    3  501    0  0.65904419797E+01 -0.61201609628E+01 -0.24207354927E+03  0.24224056958E+03  0.00000000000E+00 0.  1.
         21    1    1    2  502  501 -0.16949169714E+02  0.30587355430E+02 -0.29498851383E+02  0.45749785782E+02  0.00000000000E+00 0.  1.
<mgrwt>
<rscale>  1 0.30000000E+03</rscale>
<asrwt>0</asrwt>
<pdfrwt beam="1">  1        1 0.30741968E-01 0.30000000E+03</pdfrwt>
<pdfrwt beam="2">0</pdfrwt>
<totfact> 0.16678538E+02</totfact>
</mgrwt>
</event>
<event>
 6    1  0.1956957E-002  0.3000000E+03  0.7818608E-02  0.1093470E+00
          1   -1    0    0  502    0  0.00000000000E+00  0.00000000000E+00  0.20572066523E+01  0.20572066523E+01  0.00000000000E+00 0.  1.
         13   -1    0    0    0    0 -0.00000000000E+00 -0.00000000000E+00 -0.10000000000E+04  0.10000000000E+04  0.00000000000E+00 0.  1.
    9000005    2    1    2  501    0 -0.31387436924E+02 -0.25992073284E+02 -0.71760155973E+03  0.71876942658E+03  0.40903536912E+01 0.  0.
         13    1    3    3    0    0 -0.19828599675E+02 -0.18432161055E+02 -0.49507891192E+03  0.49581856253E+03  0.00000000000E+00 0.  1.
          1    1    3    3  501    0 -0.11558837250E+02 -0.75599122295E+01 -0.22252264781E+03  0.22295086405E+03  0.00000000000E+00 0.  1.
         21    1    1    2  502  501  0.31387436924E+02  0.25992073284E+02 -0.28034123362E+03  0.28328778007E+03  0.00000000000E+00 0.  1.
<mgrwt>
<rscale>  1 0.30000000E+03</rscale>
<asrwt>0</asrwt>
<pdfrwt beam="1">  1        1 0.74807672E-02 0.30000000E+03</pdfrwt>
<pdfrwt beam="2">0</pdfrwt>
<totfact> 0.11308377E+03</totfact>
</mgrwt>
</event>
<event>
 6    1  0.1956957E-002  0.3000000E+03  0.7818608E-02  0.1093470E+00
          1   -1    0    0  502    0  0.00000000000E+00  0.00000000000E+00  0.39554643758E+02  0.39554643758E+02  0.00000000000E+00 0.  1.
         13   -1    0    0    0    0 -0.00000000000E+00 -0.00000000000E+00 -0.10000000000E+04  0.10000000000E+04  0.00000000000E+00 0.  1.
    9000005    2    1    2  501    0 -0.18667499291E+02  0.85062172245E+02 -0.94751436909E+03  0.95151340850E+03  0.31997273048E+01 0.  0.
         13    1    3    3    0    0 -0.48814655776E+01  0.28562319098E+02 -0.30791528563E+03  0.30927569886E+03  0.00000000000E+00 0.  1.
          3    1    3    3  501    0 -0.13786033714E+02  0.56499853147E+02 -0.63959908346E+03  0.64223770964E+03  0.00000000000E+00 0.  1.
         21    1    1    2  502  501  0.18667499291E+02 -0.85062172245E+02 -0.12930987156E+02  0.88041235257E+02  0.00000000000E+00 0.  1.
<mgrwt>
<rscale>  1 0.30000000E+03</rscale>
<asrwt>0</asrwt>
<pdfrwt beam="1">  1        1 0.14383537E+00 0.30000000E+03</pdfrwt>
<pdfrwt beam="2">0</pdfrwt>
<totfact> 0.19322228E+01</totfact>
</mgrwt>
</event>
<event>
 6    1  0.1956957E-002  0.3000000E+03  0.7818608E-02  0.1093470E+00
          3   -1    0    0  502    0  0.00000000000E+00  0.00000000000E+00  0.50475730361E+01  0.50475730361E+01  0.00000000000E+00 0.  1.
         13   -1    0    0    0    0 -0.00000000000E+00 -0.00000000000E+00 -0.10000000000E+04  0.10000000000E+04  0.00000000000E+00 0.  1.
    9000005    2    1    2  501    0  0.47531084741E+02  0.51364640224E+02 -0.58259857232E+03  0.58679737074E+03  0.35394286178E+01 0.  0.
         13    1    3    3    0    0  0.42524611294E+02  0.44621307296E+02 -0.51845069141E+03  0.52210202361E+03  0.00000000000E+00 0.  1.
          3    1    3    3  501    0  0.50064734470E+01  0.67433329277E+01 -0.64147880906E+02  0.64695347129E+02  0.00000000000E+00 0.  1.
         21    1    1    2  502  501 -0.47531084741E+02 -0.51364640224E+02 -0.41235385464E+03  0.41825020230E+03  0.00000000000E+00 0.  1.
<mgrwt>
<rscale>  1 0.30000000E+03</rscale>
<asrwt>0</asrwt>
<pdfrwt beam="1">  1        3 0.18354850E-01 0.30000000E+03</pdfrwt>
<pdfrwt beam="2">0</pdfrwt>
<totfact> 0.11667618E+02</totfact>
</mgrwt>
</event>
<event>
 6    1  0.1956957E-002  0.3000000E+03  0.7818608E-02  0.1093470E+00
          1   -1    0    0  502    0  0.00000000000E+00  0.00000000000E+00  0.15824374431E+01  0.15824374431E+01  0.00000000000E+00 0.  1.
         13   -1    0    0    0    0 -0.00000000000E+00 -0.00000000000E+00 -0.10000000000E+04  0.10000000000E+04  0.00000000000E+00 0.  1.
    9000005    2    1    2  501    0 -0.38711660302E+02 -0.37660977409E+01 -0.40012236153E+03  0.40202433041E+03  0.35891379038E+01 0.  0.
         13    1    3    3    0    0 -0.19906215289E+02 -0.33253839064E+01 -0.19531199657E+03  0.19635195845E+03  0.00000000000E+00 0.  1.
          1    1    3    3  501    0 -0.18805445013E+02 -0.44071383452E+00 -0.20481036496E+03  0.20567237196E+03  0.00000000000E+00 0.  1.
         21    1    1    2  502  501  0.38711660302E+02  0.37660977409E+01 -0.59829520103E+03  0.59955810704E+03  0.00000000000E+00 0.  1.
<mgrwt>
<rscale>  1 0.30000000E+03</rscale>
<asrwt>0</asrwt>
<pdfrwt beam="1">  1        1 0.57543301E-02 0.30000000E+03</pdfrwt>
<pdfrwt beam="2">0</pdfrwt>
<totfact> 0.16328891E+03</totfact>
</mgrwt>
</event>
<event>
 6    1  0.1956957E-002  0.3000000E+03  0.7818608E-02  0.1093470E+00
          1   -1    0    0  502    0  0.00000000000E+00  0.00000000000E+00  0.46879321017E+01  0.46879321017E+01  0.00000000000E+00 0.  1.
         13   -1    0    0    0    0 -0.00000000000E+00 -0.00000000000E+00 -0.10000000000E+04  0.10000000000E+04  0.00000000000E+00 0.  1.
    9000005    2    1    2  501    0 -0.60422440573E+02  0.17037621745E+02 -0.29835594731E+03  0.30491012029E+03  0.35718734679E+01 0.  0.
         13    1    3    3    0    0 -0.29965886149E+02  0.72539159564E+01 -0.15305366307E+03  0.15612814419E+03  0.00000000000E+00 0.  1.
          3    1    3    3  501    0 -0.30456554424E+02  0.97837057883E+01 -0.14530228424E+03  0.14878197610E+03  0.00000000000E+00 0.  1.
         21    1    1    2  502  501  0.60422440573E+02 -0.17037621745E+02 -0.69695612059E+03  0.69977781181E+03  0.00000000000E+00 0.  1.
<mgrwt>
<rscale>  1 0.30000000E+03</rscale>
<asrwt>0</asrwt>
<pdfrwt beam="1">  1        1 0.17047062E-01 0.30000000E+03</pdfrwt>
<pdfrwt beam="2">0</pdfrwt>
<totfact> 0.36484702E+02</totfact>
</mgrwt>
</event>
<event>
 6    1  0.1956957E-002  0.3000000E+03  0.7818608E-02  0.1093470E+00
          1   -1    0    0  502    0  0.00000000000E+00  0.00000000000E+00  0.12091395606E+01  0.12091395606E+01  0.00000000000E+00 0.  1.
         13   -1    0    0    0    0 -0.00000000000E+00 -0.00000000000E+00 -0.10000000000E+04  0.10000000000E+04  0.00000000000E+00 0.  1.
    9000005    2    1    2  501    0 -0.12563692042E+02 -0.27435269512E+02 -0.74711789018E+03  0.74773364897E+03  0.31508100725E+01 0.  0.
         13    1    3    3    0    0 -0.10858600646E+02 -0.25404257284E+02 -0.69378651291E+03  0.69433638172E+03  0.00000000000E+00 0.  1.
          1    1    3    3  501    0 -0.17050913962E+01 -0.20310122282E+01 -0.53331377276E+02  0.53397267248E+02  0.00000000000E+00 0.  1.
         21    1    1    2  502  501  0.12563692042E+02  0.27435269512E+02 -0.25167297026E+03  0.25347549059E+03  0.00000000000E+00 0.  1.
<mgrwt>
<rscale>  1 0.30000000E+03</rscale>
<asrwt>0</asrwt>
<pdfrwt beam="1">  1        1 0.43968804E-02 0.30000000E+03</pdfrwt>
<pdfrwt beam="2">0</pdfrwt>
<totfact> 0.23833972E+03</totfact>
</mgrwt>
</event>
<event>
 6    1  0.1956957E-002  0.3000000E+03  0.7818608E-02  0.1093470E+00
          1   -1    0    0  502    0  0.00000000000E+00  0.00000000000E+00  0.93811482543E+00  0.93811482543E+00  0.00000000000E+00 0.  1.
         13   -1    0    0    0    0 -0.00000000000E+00 -0.00000000000E+00 -0.10000000000E+04  0.10000000000E+04  0.00000000000E+00 0.  1.
    9000005    2    1    2  501    0 -0.62218208854E+01 -0.29901241227E+02 -0.48944114554E+03  0.49040300972E+03  0.31115446724E+01 0.  0.
         13    1    3    3    0    0 -0.53078742533E+01 -0.28574073458E+02 -0.46783772011E+03  0.46873956901E+03  0.00000000000E+00 0.  1.
          1    1    3    3  501    0 -0.91394663207E+00 -0.13271677689E+01 -0.21603425428E+02  0.21663440700E+02  0.00000000000E+00 0.  1.
         21    1    1    2  502  501  0.62218208854E+01  0.29901241227E+02 -0.50962073964E+03  0.51053510511E+03  0.00000000000E+00 0.  1.
<mgrwt>
<rscale>  1 0.30000000E+03</rscale>
<asrwt>0</asrwt>
<pdfrwt beam="1">  1        1 0.34113338E-02 0.30000000E+03</pdfrwt>
<pdfrwt beam="2">0</pdfrwt>
<totfact> 0.34066154E+03</totfact>
</mgrwt>
</event>
<event>
 6    1  0.1956957E-002  0.3000000E+03  0.7818608E-02  0.1093470E+00
          3   -1    0    0  502    0  0.00000000000E+00  0.00000000000E+00  0.65062792172E+01  0.65062792172E+01  0.00000000000E+00 0.  1.
         13   -1    0    0    0    0 -0.00000000000E+00 -0.00000000000E+00 -0.10000000000E+04  0.10000000000E+04  0.00000000000E+00 0.  1.
    9000005    2    1    2  501    0  0.46102586517E+02  0.63032201513E+02 -0.37198002163E+03  0.38010562058E+03  0.35551921029E+01 0.  0.
         13    1    3    3    0    0  0.24812731601E+02  0.36903833288E+02 -0.21197800622E+03  0.21659233524E+03  0.00000000000E+00 0.  1.
          1    1    3    3  501    0  0.21289854916E+02  0.26128368225E+02 -0.16000201540E+03  0.16351328534E+03  0.00000000000E+00 0.  1.
         21    1    1    2  502  501 -0.46102586517E+02 -0.63032201513E+02 -0.62151369915E+03  0.62640065864E+03  0.00000000000E+00 0.  1.
<mgrwt>
<rscale>  1 0.30000000E+03</rscale>
<asrwt>0</asrwt>
<pdfrwt beam="1">  1        3 0.23659247E-01 0.30000000E+03</pdfrwt>
<pdfrwt beam="2">0</pdfrwt>
<totfact> 0.73221823E+01</totfact>
</mgrwt>
</event>
<event>
 6    1  0.1956957E-002  0.3000000E+03  0.7818608E-02  0.1093470E+00
          1   -1    0    0  502    0  0.00000000000E+00  0.00000000000E+00  0.37977560966E+01  0.37977560966E+01  0.00000000000E+00 0.  1.
         13   -1    0    0    0    0 -0.00000000000E+00 -0.00000000000E+00 -0.10000000000E+04  0.10000000000E+04  0.00000000000E+00 0.  1.
    9000005    2    1    2  501    0  0.19740895082E+02  0.29433078518E+02 -0.90865158320E+03  0.90934603701E+03  0.25507479897E+01 0.  0.
         13    1    3    3    0    0  0.15108937092E+02  0.23786657197E+02 -0.74023504228E+03  0.74077122168E+03  0.00000000000E+00 0.  1.
          3    1    3    3  501    0  0.46319579906E+01  0.56464213215E+01 -0.16841654092E+03  0.16857481533E+03  0.00000000000E+00 0.  1.
         21    1    1    2  502  501 -0.19740895082E+02 -0.29433078518E+02 -0.87550660701E+02  0.94451719089E+02  0.00000000000E+00 0.  1.
<mgrwt>
<rscale>  1 0.30000000E+03</rscale>
<asrwt>0</asrwt>
<pdfrwt beam="1">  1        1 0.13810051E-01 0.30000000E+03</pdfrwt>
<pdfrwt beam="2">0</pdfrwt>
<totfact> 0.48541040E+02</totfact>
</mgrwt>
</event>
<event>
 6    1  0.1956957E-002  0.3000000E+03  0.7818608E-02  0.1093470E+00
          3   -1    0    0  502    0  0.00000000000E+00  0.00000000000E+00  0.12285899211E+01  0.12285899211E+01  0.00000000000E+00 0.  1.
         13   -1    0    0    0    0 -0.00000000000E+00 -0.00000000000E+00 -0.10000000000E+04  0.10000000000E+04  0.00000000000E+00 0.  1.
    9000005    2    1    2  501    0  0.57408237262E+01  0.34500162028E+02 -0.48887039861E+03  0.49012951955E+03  0.30758836538E+01 0.  0.
         13    1    3    3    0    0  0.16770037568E+01  0.16062930862E+02 -0.24190922325E+03  0.24244773124E+03  0.00000000000E+00 0.  1.
          1    1    3    3  501    0  0.40638199694E+01  0.18437231166E+02 -0.24696117536E+03  0.24768178831E+03  0.00000000000E+00 0.  1.
         21    1    1    2  502  501 -0.57408237262E+01 -0.34500162028E+02 -0.50990101147E+03  0.51109907037E+03  0.00000000000E+00 0.  1.
<mgrwt>
<rscale>  1 0.30000000E+03</rscale>
<asrwt>0</asrwt>
<pdfrwt beam="1">  1        3 0.44676091E-02 0.30000000E+03</pdfrwt>
<pdfrwt beam="2">0</pdfrwt>
<totfact> 0.11771347E+03</totfact>
</mgrwt>
</event>
<event>
 6    1  0.1956957E-002  0.3000000E+03  0.7818608E-02  0.1093470E+00
          3   -1    0    0  502    0  0.00000000000E+00  0.00000000000E+00  0.16160952932E+01  0.16160952932E+01  0.00000000000E+00 0.  1.
         13   -1    0    0    0    0 -0.00000000000E+00 -0.00000000000E+00 -0.10000000000E+04  0.10000000000E+04  0.00000000000E+00 0.  1.
    9000005    2    1    2  501    0 -0.32024117648E+02  0.13777028553E+02 -0.25224818416E+03  0.25466638875E+03  0.32361274391E+01 0.  0.
         13    1    3    3    0    0 -0.12481143802E+02  0.36770840074E+01 -0.92550628429E+02  0.93460787071E+02  0.00000000000E+00 0.  1.
          1    1    3    3  501    0 -0.19542973847E+02  0.10099944546E+02 -0.15969755573E+03  0.16120560168E+03  0.00000000000E+00 0.  1.
         21    1    1    2  502  501  0.32024117648E+02 -0.13777028553E+02 -0.74613572055E+03  0.74694970654E+03  0.00000000000E+00 0.  1.
<mgrwt>
<rscale>  1 0.30000000E+03</rscale>
<asrwt>0</asrwt>
<pdfrwt beam="1">  1        3 0.58767225E-02 0.30000000E+03</pdfrwt>
<pdfrwt beam="2">0</pdfrwt>
<totfact> 0.77023848E+02</totfact>
</mgrwt>
</event>
<event>
 6    1  0.1956957E-002  0.3000000E+03  0.7818608E-02  0.1093470E+00
          1   -1    0    0  502    0  0.00000000000E+00  0.00000000000E+00  0.64533683046E+01  0.64533683046E+01  0.00000000000E+00 0.  1.
         13   -1    0    0    0    0 -0.00000000000E+00 -0.00000000000E+00 -0.10000000000E+04  0.10000000000E+04  0.00000000000E+00 0.  1.
    9000005    2    1    2  501    0  0.92611108102E+01 -0.42003643694E+02 -0.92151560233E+03  0.92255734069E+03  0.84242079006E+01 0.  0.
         13    1    3    3    0    0  0.48925520362E+00 -0.19942656660E+02 -0.45773088509E+03  0.45816537636E+03  0.00000000000E+00 0.  1.
          3    1    3    3  501    0  0.87718556065E+01 -0.22060987034E+02 -0.46378471724E+03  0.46439196434E+03  0.00000000000E+00 0.  1.
         21    1    1    2  502  501 -0.92611108102E+01  0.42003643694E+02 -0.72031029369E+02  0.83896027612E+02  0.00000000000E+00 0.  1.
<mgrwt>
<rscale>  1 0.30000000E+03</rscale>
<asrwt>0</asrwt>
<pdfrwt beam="1">  1        1 0.23466843E-01 0.30000000E+03</pdfrwt>
<pdfrwt beam="2">0</pdfrwt>
<totfact> 0.23804458E+02</totfact>
</mgrwt>
</event>
<event>
 6    1  0.1956957E-002  0.3000000E+03  0.7818608E-02  0.1093470E+00
          3   -1    0    0  502    0  0.00000000000E+00  0.00000000000E+00  0.16065255915E+01  0.16065255915E+01  0.00000000000E+00 0.  1.
         13   -1    0    0    0    0 -0.00000000000E+00 -0.00000000000E+00 -0.10000000000E+04  0.10000000000E+04  0.00000000000E+00 0.  1.
    9000005    2    1    2  501    0 -0.24074747403E+02  0.25001811782E+02 -0.74892684845E+03  0.74973695315E+03  0.30643977845E+01 0.  0.
         13    1    3    3    0    0 -0.17200806882E+02  0.18070844296E+02 -0.50754036669E+03  0.50815317277E+03  0.00000000000E+00 0.  1.
          1    1    3    3  501    0 -0.68739405209E+01  0.69309674869E+01 -0.24138648176E+03  0.24158378038E+03  0.00000000000E+00 0.  1.
         21    1    1    2  502  501  0.24074747403E+02 -0.25001811782E+02 -0.24946662596E+03  0.25186957244E+03  0.00000000000E+00 0.  1.
<mgrwt>
<rscale>  1 0.30000000E+03</rscale>
<asrwt>0</asrwt>
<pdfrwt beam="1">  1        3 0.58419236E-02 0.30000000E+03</pdfrwt>
<pdfrwt beam="2">0</pdfrwt>
<totfact> 0.77740136E+02</totfact>
</mgrwt>
</event>
<event>
 6    1  0.1956957E-002  0.3000000E+03  0.7818608E-02  0.1093470E+00
          1   -1    0    0  502    0  0.00000000000E+00  0.00000000000E+00  0.38736999481E+01  0.38736999481E+01  0.00000000000E+00 0.  1.
         13   -1    0    0    0    0 -0.00000000000E+00 -0.00000000000E+00 -0.10000000000E+04  0.10000000000E+04  0.00000000000E+00 0.  1.
    9000005    2    1    2  501    0  0.30947623913E+02 -0.67422594177E+01 -0.93007649971E+03  0.93062214970E+03  0.34751575760E+01 0.  0.
         13    1    3    3    0    0  0.18734311623E+02 -0.35601125730E+01 -0.51122328470E+03  0.51157882643E+03  0.00000000000E+00 0.  1.
          1    1    3    3  501    0  0.12213312290E+02 -0.31821468447E+01 -0.41885321501E+03  0.41904332328E+03  0.00000000000E+00 0.  1.
         21    1    1    2  502  501 -0.30947623913E+02  0.67422594177E+01 -0.66049800344E+02  0.73251550245E+02  0.00000000000E+00 0.  1.
<mgrwt>
<rscale>  1 0.30000000E+03</rscale>
<asrwt>0</asrwt>
<pdfrwt beam="1">  1        1 0.14086211E-01 0.30000000E+03</pdfrwt>
<pdfrwt beam="2">0</pdfrwt>
<totfact> 0.47249751E+02</totfact>
</mgrwt>
</event>
<event>
 6    1  0.1956957E-002  0.3000000E+03  0.7818608E-02  0.1093470E+00
          1   -1    0    0  502    0  0.00000000000E+00  0.00000000000E+00  0.14583609912E+01  0.14583609912E+01  0.00000000000E+00 0.  1.
         13   -1    0    0    0    0 -0.00000000000E+00 -0.00000000000E+00 -0.10000000000E+04  0.10000000000E+04  0.00000000000E+00 0.  1.
    9000005    2    1    2  501    0  0.25479909759E+02  0.25323033177E+02 -0.35850888513E+03  0.36041826252E+03  0.90676033233E+01 0.  0.
         13    1    3    3    0    0  0.24807421399E+02  0.24002439504E+02 -0.35384248982E+03  0.35552219742E+03  0.00000000000E+00 0.  1.
          1    1    3    3  501    0  0.67248836033E+00  0.13205936730E+01 -0.46663953167E+01  0.48960651033E+01  0.00000000000E+00 0.  1.
         21    1    1    2  502  501 -0.25479909759E+02 -0.25323033177E+02 -0.64003275387E+03  0.64104009847E+03  0.00000000000E+00 0.  1.
<mgrwt>
<rscale>  1 0.30000000E+03</rscale>
<asrwt>0</asrwt>
<pdfrwt beam="1">  1        1 0.53031421E-02 0.30000000E+03</pdfrwt>
<pdfrwt beam="2">0</pdfrwt>
<totfact> 0.18312622E+03</totfact>
</mgrwt>
</event>
<event>
 6    1  0.1956957E-002  0.3000000E+03  0.7818608E-02  0.1093470E+00
          1   -1    0    0  502    0  0.00000000000E+00  0.00000000000E+00  0.17895120351E+02  0.17895120351E+02  0.00000000000E+00 0.  1.
         13   -1    0    0    0    0 -0.00000000000E+00 -0.00000000000E+00 -0.10000000000E+04  0.10000000000E+04  0.00000000000E+00 0.  1.
    9000005    2    1    2  501    0 -0.62084463547E+02 -0.68822165867E+02 -0.85800485490E+03  0.86300229524E+03  0.31079619534E+01 0.  0.
         13    1    3    3    0    0 -0.55890718574E+02 -0.62557138969E+02 -0.76853127240E+03  0.77309603848E+03  0.00000000000E+00 0.  1.
          1    1    3    3  501    0 -0.61937449726E+01 -0.62650268980E+01 -0.89473582498E+02  0.89906256756E+02  0.00000000000E+00 0.  1.
         21    1    1    2  502  501  0.62084463547E+02  0.68822165867E+02 -0.12410002475E+03  0.15489282511E+03  0.00000000000E+00 0.  1.
<mgrwt>
<rscale>  1 0.30000000E+03</rscale>
<asrwt>0</asrwt>
<pdfrwt beam="1">  1        1 0.65073302E-01 0.30000000E+03</pdfrwt>
<pdfrwt beam="2">0</pdfrwt>
<totfact> 0.62220792E+01</totfact>
</mgrwt>
</event>
<event>
 6    1  0.1956957E-002  0.3000000E+03  0.7818608E-02  0.1093470E+00
          1   -1    0    0  502    0  0.00000000000E+00  0.00000000000E+00  0.35180628640E+01  0.35180628640E+01  0.00000000000E+00 0.  1.
         13   -1    0    0    0    0 -0.00000000000E+00 -0.00000000000E+00 -0.10000000000E+04  0.10000000000E+04  0.00000000000E+00 0.  1.
    9000005    2    1    2  501    0  0.53848924683E+02 -0.89207540958E+01 -0.69399663262E+03  0.69614752753E+03  0.32813801403E+01 0.  0.
         13    1    3    3    0    0  0.40238030354E+01  0.19537411042E+00 -0.52010102663E+02  0.52165888672E+02  0.00000000000E+00 0.  1.
          3    1    3    3  501    0  0.49825121647E+02 -0.91161282063E+01 -0.64198652995E+03  0.64398163886E+03  0.00000000000E+00 0.  1.
         21    1    1    2  502  501 -0.53848924683E+02  0.89207540958E+01 -0.30248530452E+03  0.30737053534E+03  0.00000000000E+00 0.  1.
<mgrwt>
<rscale>  1 0.30000000E+03</rscale>
<asrwt>0</asrwt>
<pdfrwt beam="1">  1        1 0.12792983E-01 0.30000000E+03</pdfrwt>
<pdfrwt beam="2">0</pdfrwt>
<totfact> 0.53882969E+02</totfact>
</mgrwt>
</event>
<event>
 6    1  0.1956957E-002  0.3000000E+03  0.7818608E-02  0.1093470E+00
          1   -1    0    0  502    0  0.00000000000E+00  0.00000000000E+00  0.68804399673E+01  0.68804399673E+01  0.00000000000E+00 0.  1.
         13   -1    0    0    0    0 -0.00000000000E+00 -0.00000000000E+00 -0.10000000000E+04  0.10000000000E+04  0.00000000000E+00 0.  1.
    9000005    2    1    2  501    0 -0.77633370463E+00  0.33496261297E+02 -0.95707475582E+03  0.95766834668E+03  0.37378861364E+01 0.  0.
         13    1    3    3    0    0 -0.26178542963E+00  0.22497676456E+01 -0.43086056426E+02  0.43145547214E+02  0.00000000000E+00 0.  1.
          3    1    3    3  501    0 -0.51454827500E+00  0.31246493652E+02 -0.91398869939E+03  0.91452279946E+03  0.00000000000E+00 0.  1.
         21    1    1    2  502  501  0.77633370463E+00 -0.33496261297E+02 -0.36044804216E+02  0.49212093289E+02  0.00000000000E+00 0.  1.
<mgrwt>
<rscale>  1 0.30000000E+03</rscale>
<asrwt>0</asrwt>
<pdfrwt beam="1">  1        1 0.25019834E-01 0.30000000E+03</pdfrwt>
<pdfrwt beam="2">0</pdfrwt>
<totfact> 0.21870620E+02</totfact>
</mgrwt>
</event>
<event>
 6    1  0.1956957E-002  0.3000000E+03  0.7818608E-02  0.1093470E+00
          1   -1    0    0  502    0  0.00000000000E+00  0.00000000000E+00  0.15872688981E+01  0.15872688981E+01  0.00000000000E+00 0.  1.
         13   -1    0    0    0    0 -0.00000000000E+00 -0.00000000000E+00 -0.10000000000E+04  0.10000000000E+04  0.00000000000E+00 0.  1.
    9000005    2    1    2  501    0 -0.37826510046E+02 -0.82574045303E+01 -0.61512219425E+03  0.61634622068E+03  0.28844923204E+01 0.  0.
         13    1    3    3    0    0 -0.36751101050E+01 -0.92282428795E+00 -0.75081109804E+02  0.75176665850E+02  0.00000000000E+00 0.  1.
          1    1    3    3  501    0 -0.34151399941E+02 -0.73345802424E+01 -0.54004108445E+03  0.54116955483E+03  0.00000000000E+00 0.  1.
         21    1    1    2  502  501  0.37826510046E+02  0.82574045303E+01 -0.38329053685E+03  0.38524104822E+03  0.00000000000E+00 0.  1.
<mgrwt>
<rscale>  1 0.30000000E+03</rscale>
<asrwt>0</asrwt>
<pdfrwt beam="1">  1        1 0.57718991E-02 0.30000000E+03</pdfrwt>
<pdfrwt beam="2">0</pdfrwt>
<totfact> 0.16259166E+03</totfact>
</mgrwt>
</event>
<event>
 6    1  0.1956957E-002  0.3000000E+03  0.7818608E-02  0.1093470E+00
          1   -1    0    0  502    0  0.00000000000E+00  0.00000000000E+00  0.39521991139E+01  0.39521991139E+01  0.00000000000E+00 0.  1.
         13   -1    0    0    0    0 -0.00000000000E+00 -0.00000000000E+00 -0.10000000000E+04  0.10000000000E+04  0.00000000000E+00 0.  1.
    9000005    2    1    2  501    0 -0.57324051375E+02  0.24240854348E+01 -0.70271154605E+03  0.70505743259E+03  0.32470351078E+01 0.  0.
         13    1    3    3    0    0 -0.44505322806E+01  0.34190527592E+00 -0.66126947676E+02  0.66277427121E+02  0.00000000000E+00 0.  1.
          3    1    3    3  501    0 -0.52873519095E+02  0.20821801589E+01 -0.63658459838E+03  0.63878000547E+03  0.00000000000E+00 0.  1.
         21    1    1    2  502  501  0.57324051375E+02 -0.24240854348E+01 -0.29333625483E+03  0.29889476652E+03  0.00000000000E+00 0.  1.
<mgrwt>
<rscale>  1 0.30000000E+03</rscale>
<asrwt>0</asrwt>
<pdfrwt beam="1">  1        1 0.14371663E-01 0.30000000E+03</pdfrwt>
<pdfrwt beam="2">0</pdfrwt>
<totfact> 0.45977491E+02</totfact>
</mgrwt>
</event>
<event>
 6    1  0.1956957E-002  0.3000000E+03  0.7818608E-02  0.1093470E+00
          3   -1    0    0  502    0  0.00000000000E+00  0.00000000000E+00  0.20515708259E+01  0.20515708259E+01  0.00000000000E+00 0.  1.
         13   -1    0    0    0    0 -0.00000000000E+00 -0.00000000000E+00 -0.10000000000E+04  0.10000000000E+04  0.00000000000E+00 0.  1.
    9000005    2    1    2  501    0 -0.15161994398E+02  0.40090967330E+02 -0.65973632449E+03  0.66113427955E+03  0.30571244565E+01 0.  0.
         13    1    3    3    0    0 -0.12574690394E+02  0.35921623775E+02 -0.58761927738E+03  0.58885049125E+03  0.00000000000E+00 0.  1.
          3    1    3    3  501    0 -0.25873040040E+01  0.41693435548E+01 -0.72117047106E+02  0.72283788300E+02  0.00000000000E+00 0.  1.
         21    1    1    2  502  501  0.15161994398E+02 -0.40090967330E+02 -0.33821210469E+03  0.34091729128E+03  0.00000000000E+00 0.  1.
<mgrwt>
<rscale>  1 0.30000000E+03</rscale>
<asrwt>0</asrwt>
<pdfrwt beam="1">  1        3 0.74602733E-02 0.30000000E+03</pdfrwt>
<pdfrwt beam="2">0</pdfrwt>
<totfact> 0.52963620E+02</totfact>
</mgrwt>
</event>
<event>
 6    1  0.1956957E-002  0.3000000E+03  0.7818608E-02  0.1093470E+00
          1   -1    0    0  502    0  0.00000000000E+00  0.00000000000E+00  0.22164899682E+01  0.22164899682E+01  0.00000000000E+00 0.  1.
         13   -1    0    0    0    0 -0.00000000000E+00 -0.00000000000E+00 -0.10000000000E+04  0.10000000000E+04  0.00000000000E+00 0.  1.
    9000005    2    1    2  501    0  0.31316494510E+02  0.25926339741E+02 -0.75092705250E+03  0.75203453909E+03  0.34076216008E+01 0.  0.
         13    1    3    3    0    0  0.78900683813E+01  0.47076582411E+01 -0.16522258866E+03  0.16547785057E+03  0.00000000000E+00 0.  1.
          1    1    3    3  501    0  0.23426426129E+02  0.21218681499E+02 -0.58570446384E+03  0.58655668852E+03  0.00000000000E+00 0.  1.
         21    1    1    2  502  501 -0.31316494510E+02 -0.25926339741E+02 -0.24685645753E+03  0.25018195088E+03  0.00000000000E+00 0.  1.
<mgrwt>
<rscale>  1 0.30000000E+03</rscale>
<asrwt>0</asrwt>
<pdfrwt beam="1">  1        1 0.80599805E-02 0.30000000E+03</pdfrwt>
<pdfrwt beam="2">0</pdfrwt>
<totfact> 0.10191879E+03</totfact>
</mgrwt>
</event>
<event>
 6    1  0.1956957E-002  0.3000000E+03  0.7818608E-02  0.1093470E+00
          1   -1    0    0  502    0  0.00000000000E+00  0.00000000000E+00  0.22330943609E+01  0.22330943609E+01  0.00000000000E+00 0.  1.
         13   -1    0    0    0    0 -0.00000000000E+00 -0.00000000000E+00 -0.10000000000E+04  0.10000000000E+04  0.00000000000E+00 0.  1.
    9000005    2    1    2  501    0 -0.41104167090E+02 -0.18383616964E+01 -0.25990710309E+03  0.26322699132E+03  0.66192592209E+01 0.  0.
         13    1    3    3    0    0 -0.27832604011E+02  0.31428398353E-01 -0.15660139965E+03  0.15905550354E+03  0.00000000000E+00 0.  1.
          1    1    3    3  501    0 -0.13271563079E+02 -0.18697900948E+01 -0.10330570344E+03  0.10417148777E+03  0.00000000000E+00 0.  1.
         21    1    1    2  502  501  0.41104167090E+02  0.18383616964E+01 -0.73785980255E+03  0.73900610305E+03  0.00000000000E+00 0.  1.
<mgrwt>
<rscale>  1 0.30000000E+03</rscale>
<asrwt>0</asrwt>
<pdfrwt beam="1">  1        1 0.81203603E-02 0.30000000E+03</pdfrwt>
<pdfrwt beam="2">0</pdfrwt>
<totfact> 0.10086561E+03</totfact>
</mgrwt>
</event>
<event>
 6    1  0.1956957E-002  0.3000000E+03  0.7818608E-02  0.1093470E+00
          1   -1    0    0  502    0  0.00000000000E+00  0.00000000000E+00  0.15356547335E+01  0.15356547335E+01  0.00000000000E+00 0.  1.
         13   -1    0    0    0    0 -0.00000000000E+00 -0.00000000000E+00 -0.10000000000E+04  0.10000000000E+04  0.00000000000E+00 0.  1.
    9000005    2    1    2  501    0 -0.10325280719E+02  0.30617422785E+02 -0.78196058685E+03  0.78263404349E+03  0.31062244749E+01 0.  0.
         13    1    3    3    0    0 -0.10517865828E+02  0.29868557414E+02 -0.75852202577E+03  0.75918273150E+03  0.00000000000E+00 0.  1.
          3    1    3    3  501    0  0.19258510931E+00  0.74886537104E+00 -0.23438561081E+02  0.23451311987E+02  0.00000000000E+00 0.  1.
         21    1    1    2  502  501  0.10325280719E+02 -0.30617422785E+02 -0.21650375841E+03  0.21890161125E+03  0.00000000000E+00 0.  1.
<mgrwt>
<rscale>  1 0.30000000E+03</rscale>
<asrwt>0</asrwt>
<pdfrwt beam="1">  1        1 0.55842108E-02 0.30000000E+03</pdfrwt>
<pdfrwt beam="2">0</pdfrwt>
<totfact> 0.17031508E+03</totfact>
</mgrwt>
</event>
<event>
 6    1  0.1956957E-002  0.3000000E+03  0.7818608E-02  0.1093470E+00
          1   -1    0    0  502    0  0.00000000000E+00  0.00000000000E+00  0.14067606399E+01  0.14067606399E+01  0.00000000000E+00 0.  1.
         13   -1    0    0    0    0 -0.00000000000E+00 -0.00000000000E+00 -0.10000000000E+04  0.10000000000E+04  0.00000000000E+00 0.  1.
    9000005    2    1    2  501    0  0.54622129639E+01 -0.36567970864E+02 -0.50655922469E+03  0.50798551681E+03  0.89434285112E+01 0.  0.
         13    1    3    3    0    0  0.39374903715E+01 -0.20582533644E+02 -0.34312036432E+03  0.34375969649E+03  0.00000000000E+00 0.  1.
          1    1    3    3  501    0  0.15247225924E+01 -0.15985437220E+02 -0.16343886037E+03  0.16422582032E+03  0.00000000000E+00 0.  1.
         21    1    1    2  502  501 -0.54622129639E+01  0.36567970864E+02 -0.49203401467E+03  0.49342124383E+03  0.00000000000E+00 0.  1.
<mgrwt>
<rscale>  1 0.30000000E+03</rscale>
<asrwt>0</asrwt>
<pdfrwt beam="1">  1        1 0.51155040E-02 0.30000000E+03</pdfrwt>
<pdfrwt beam="2">0</pdfrwt>
<totfact> 0.19263296E+03</totfact>
</mgrwt>
</event>
<event>
 6    1  0.1956957E-002  0.3000000E+03  0.7818608E-02  0.1093470E+00
          3   -1    0    0  502    0  0.00000000000E+00  0.00000000000E+00  0.95373946651E+00  0.95373946651E+00  0.00000000000E+00 0.  1.
         13   -1    0    0    0    0 -0.00000000000E+00 -0.00000000000E+00 -0.10000000000E+04  0.10000000000E+04  0.00000000000E+00 0.  1.
    9000005    2    1    2  501    0  0.30437771765E+02  0.31323215207E+01 -0.55459354251E+03  0.55544898310E+03  0.36477449478E+01 0.  0.
         13    1    3    3    0    0  0.15784898590E+02  0.10299441148E+01 -0.25529701950E+03  0.25578661414E+03  0.00000000000E+00 0.  1.
          1    1    3    3  501    0  0.14652873175E+02  0.21023774058E+01 -0.29929652301E+03  0.29966236896E+03  0.00000000000E+00 0.  1.
         21    1    1    2  502  501 -0.30437771765E+02 -0.31323215207E+01 -0.44445271802E+03  0.44550475637E+03  0.00000000000E+00 0.  1.
<mgrwt>
<rscale>  1 0.30000000E+03</rscale>
<asrwt>0</asrwt>
<pdfrwt beam="1">  1        3 0.34681508E-02 0.30000000E+03</pdfrwt>
<pdfrwt beam="2">0</pdfrwt>
<totfact> 0.17381091E+03</totfact>
</mgrwt>
</event>
<event>
 6    1  0.1956957E-002  0.3000000E+03  0.7818608E-02  0.1093470E+00
          3   -1    0    0  502    0  0.00000000000E+00  0.00000000000E+00  0.22580994599E+01  0.22580994599E+01  0.00000000000E+00 0.  1.
         13   -1    0    0    0    0 -0.00000000000E+00 -0.00000000000E+00 -0.10000000000E+04  0.10000000000E+04  0.00000000000E+00 0.  1.
    9000005    2    1    2  501    0 -0.14854157213E+02  0.26571506882E+02 -0.88349001420E+03  0.88402026923E+03  0.32465765726E+01 0.  0.
         13    1    3    3    0    0 -0.11326442780E+02  0.22054715961E+02 -0.74248439438E+03  0.74289822634E+03  0.00000000000E+00 0.  1.
          1    1    3    3  501    0 -0.35277144328E+01  0.45167909218E+01 -0.14100561982E+03  0.14112204289E+03  0.00000000000E+00 0.  1.
         21    1    1    2  502  501  0.14854157213E+02 -0.26571506882E+02 -0.11425188634E+03  0.11823783023E+03  0.00000000000E+00 0.  1.
<mgrwt>
<rscale>  1 0.30000000E+03</rscale>
<asrwt>0</asrwt>
<pdfrwt beam="1">  1        3 0.82112881E-02 0.30000000E+03</pdfrwt>
<pdfrwt beam="2">0</pdfrwt>
<totfact> 0.45457394E+02</totfact>
</mgrwt>
</event>
<event>
 6    1  0.1956957E-002  0.3000000E+03  0.7818608E-02  0.1093470E+00
          1   -1    0    0  502    0  0.00000000000E+00  0.00000000000E+00  0.22418166034E+02  0.22418166034E+02  0.00000000000E+00 0.  1.
         13   -1    0    0    0    0 -0.00000000000E+00 -0.00000000000E+00 -0.10000000000E+04  0.10000000000E+04  0.00000000000E+00 0.  1.
    9000005    2    1    2  501    0 -0.10634132963E+03  0.62519110486E+02 -0.77846732856E+03  0.78818814271E+03  0.34711829391E+01 0.  0.
         13    1    3    3    0    0 -0.20818091576E+01  0.18048502126E+01 -0.16746969863E+02  0.16972106918E+02  0.00000000000E+00 0.  1.
          3    1    3    3  501    0 -0.10425952047E+03  0.60714260273E+02 -0.76172035870E+03  0.77121603580E+03  0.00000000000E+00 0.  1.
         21    1    1    2  502  501  0.10634132963E+03 -0.62519110486E+02 -0.19911450540E+03  0.23423002332E+03  0.00000000000E+00 0.  1.
<mgrwt>
<rscale>  1 0.30000000E+03</rscale>
<asrwt>0</asrwt>
<pdfrwt beam="1">  1        1 0.81520776E-01 0.30000000E+03</pdfrwt>
<pdfrwt beam="2">0</pdfrwt>
<totfact> 0.45756785E+01</totfact>
</mgrwt>
</event>
<event>
 6    1  0.1956957E-002  0.3000000E+03  0.7818608E-02  0.1093470E+00
          1   -1    0    0  502    0  0.00000000000E+00  0.00000000000E+00  0.17096963452E+01  0.17096963452E+01  0.00000000000E+00 0.  1.
         13   -1    0    0    0    0 -0.00000000000E+00 -0.00000000000E+00 -0.10000000000E+04  0.10000000000E+04  0.00000000000E+00 0.  1.
    9000005    2    1    2  501    0  0.36373163711E+02 -0.22208606850E+01 -0.73483372498E+03  0.73574483380E+03  0.34522221508E+01 0.  0.
         13    1    3    3    0    0  0.21773845722E+02 -0.11620807286E+01 -0.40518332220E+03  0.40576960874E+03  0.00000000000E+00 0.  1.
          1    1    3    3  501    0  0.14599317990E+02 -0.10587799563E+01 -0.32965040278E+03  0.32997522506E+03  0.00000000000E+00 0.  1.
         21    1    1    2  502  501 -0.36373163711E+02  0.22208606850E+01 -0.26345657868E+03  0.26596486254E+03  0.00000000000E+00 0.  1.
<mgrwt>
<rscale>  1 0.30000000E+03</rscale>
<asrwt>0</asrwt>
<pdfrwt beam="1">  1        1 0.62170907E-02 0.30000000E+03</pdfrwt>
<pdfrwt beam="2">0</pdfrwt>
<totfact> 0.14649742E+03</totfact>
</mgrwt>
</event>
<event>
 6    1  0.1956957E-002  0.3000000E+03  0.7818608E-02  0.1093470E+00
          3   -1    0    0  502    0  0.00000000000E+00  0.00000000000E+00  0.23663127222E+01  0.23663127222E+01  0.00000000000E+00 0.  1.
         13   -1    0    0    0    0 -0.00000000000E+00 -0.00000000000E+00 -0.10000000000E+04  0.10000000000E+04  0.00000000000E+00 0.  1.
    9000005    2    1    2  501    0  0.45157052477E+02  0.16436535055E+02 -0.57351936159E+03  0.57553815019E+03  0.32225979972E+01 0.  0.
         13    1    3    3    0    0  0.31657921423E+02  0.11306521265E+02 -0.38318237288E+03  0.38465412034E+03  0.00000000000E+00 0.  1.
          1    1    3    3  501    0  0.13499131054E+02  0.51300137906E+01 -0.19033698871E+03  0.19088402985E+03  0.00000000000E+00 0.  1.
         21    1    1    2  502  501 -0.45157052477E+02 -0.16436535055E+02 -0.42411432569E+03  0.42682816253E+03  0.00000000000E+00 0.  1.
<mgrwt>
<rscale>  1 0.30000000E+03</rscale>
<asrwt>0</asrwt>
<pdfrwt beam="1">  1        3 0.86047917E-02 0.30000000E+03</pdfrwt>
<pdfrwt beam="2">0</pdfrwt>
<totfact> 0.42168653E+02</totfact>
</mgrwt>
</event>
<event>
 6    1  0.1956957E-002  0.3000000E+03  0.7818608E-02  0.1093470E+00
          1   -1    0    0  502    0  0.00000000000E+00  0.00000000000E+00  0.23184789487E+01  0.23184789487E+01  0.00000000000E+00 0.  1.
         13   -1    0    0    0    0 -0.00000000000E+00 -0.00000000000E+00 -0.10000000000E+04  0.10000000000E+04  0.00000000000E+00 0.  1.
    9000005    2    1    2  501    0 -0.46330503635E+02 -0.12458605184E+02 -0.47443713925E+03  0.47687921938E+03  0.46323175571E+01 0.  0.
         13    1    3    3    0    0 -0.31013521621E+02 -0.61109407714E+01 -0.30668688369E+03  0.30831157414E+03  0.00000000000E+00 0.  1.
          3    1    3    3  501    0 -0.15316982013E+02 -0.63476644123E+01 -0.16775025556E+03  0.16856764524E+03  0.00000000000E+00 0.  1.
         21    1    1    2  502  501  0.46330503635E+02  0.12458605184E+02 -0.52324438180E+03  0.52543925957E+03  0.00000000000E+00 0.  1.
<mgrwt>
<rscale>  1 0.30000000E+03</rscale>
<asrwt>0</asrwt>
<pdfrwt beam="1">  1        1 0.84308503E-02 0.30000000E+03</pdfrwt>
<pdfrwt beam="2">0</pdfrwt>
<totfact> 0.95737292E+02</totfact>
</mgrwt>
</event>
<event>
 6    1  0.1956957E-002  0.3000000E+03  0.7818608E-02  0.1093470E+00
          3   -1    0    0  502    0  0.00000000000E+00  0.00000000000E+00  0.13904281350E+01  0.13904281350E+01  0.00000000000E+00 0.  1.
         13   -1    0    0    0    0 -0.00000000000E+00 -0.00000000000E+00 -0.10000000000E+04  0.10000000000E+04  0.00000000000E+00 0.  1.
    9000005    2    1    2  501    0 -0.13923204022E+00  0.37136342056E+02 -0.47089682773E+03  0.47237259516E+03  0.35943013003E+01 0.  0.
         13    1    3    3    0    0 -0.24020605486E+00  0.86223924235E+01 -0.91444416022E+02  0.91850337896E+02  0.00000000000E+00 0.  1.
          3    1    3    3  501    0  0.10097401464E+00  0.28513949632E+02 -0.37945241171E+03  0.38052225726E+03  0.00000000000E+00 0.  1.
         21    1    1    2  502  501  0.13923204022E+00 -0.37136342056E+02 -0.52771274414E+03  0.52901783298E+03  0.00000000000E+00 0.  1.
<mgrwt>
<rscale>  1 0.30000000E+03</rscale>
<asrwt>0</asrwt>
<pdfrwt beam="1">  1        3 0.50561130E-02 0.30000000E+03</pdfrwt>
<pdfrwt beam="2">0</pdfrwt>
<totfact> 0.97249311E+02</totfact>
</mgrwt>
</event>
<event>
 6    1  0.1956957E-002  0.3000000E+03  0.7818608E-02  0.1093470E+00
          1   -1    0    0  502    0  0.00000000000E+00  0.00000000000E+00  0.61432060292E+01  0.61432060292E+01  0.00000000000E+00 0.  1.
         13   -1    0    0    0    0 -0.00000000000E+00 -0.00000000000E+00 -0.10000000000E+04  0.10000000000E+04  0.00000000000E+00 0.  1.
    9000005    2    1    2  501    0  0.31596841695E+02 -0.14554228633E+02 -0.94770432394E+03  0.94834842714E+03  0.33268124236E+01 0.  0.
         13    1    3    3    0    0  0.15100685921E+02 -0.63936637463E+01 -0.40388270785E+03  0.40421547639E+03  0.00000000000E+00 0.  1.
          3    1    3    3  501    0  0.16496155775E+02 -0.81605648870E+01 -0.54382161608E+03  0.54413295075E+03  0.00000000000E+00 0.  1.
         21    1    1    2  502  501 -0.31596841695E+02  0.14554228633E+02 -0.46152470035E+02  0.57794778887E+02  0.00000000000E+00 0.  1.
<mgrwt>
<rscale>  1 0.30000000E+03</rscale>
<asrwt>0</asrwt>
<pdfrwt beam="1">  1        1 0.22338978E-01 0.30000000E+03</pdfrwt>
<pdfrwt beam="2">0</pdfrwt>
<totfact> 0.25409690E+02</totfact>
</mgrwt>
</event>
<event>
 6    1  0.1956957E-002  0.3000000E+03  0.7818608E-02  0.1093470E+00
          3   -1    0    0  502    0  0.00000000000E+00  0.00000000000E+00  0.22161222074E+01  0.22161222074E+01  0.00000000000E+00 0.  1.
         13   -1    0    0    0    0 -0.00000000000E+00 -0.00000000000E+00 -0.10000000000E+04  0.10000000000E+04  0.00000000000E+00 0.  1.
    9000005    2    1    2  501    0 -0.34234347838E+02  0.13710233377E+02 -0.80994598780E+03  0.81079241943E+03  0.34471970820E+01 0.  0.
         13    1    3    3    0    0 -0.98179886309E+01  0.50529556184E+01 -0.26882351324E+03  0.26905019333E+03  0.00000000000E+00 0.  1.
          1    1    3    3  501    0 -0.24416359207E+02  0.86572777589E+01 -0.54112247456E+03  0.54174222609E+03  0.00000000000E+00 0.  1.
         21    1    1    2  502  501  0.34234347838E+02 -0.13710233377E+02 -0.18783788999E+03  0.19142370278E+03  0.00000000000E+00 0.  1.
<mgrwt>
<rscale>  1 0.30000000E+03</rscale>
<asrwt>0</asrwt>
<pdfrwt beam="1">  1        3 0.80586432E-02 0.30000000E+03</pdfrwt>
<pdfrwt beam="2">0</pdfrwt>
<totfact> 0.46841750E+02</totfact>
</mgrwt>
</event>
<event>
 6    1  0.1956957E-002  0.3000000E+03  0.7818608E-02  0.1093470E+00
          3   -1    0    0  502    0  0.00000000000E+00  0.00000000000E+00  0.19147228940E+01  0.19147228940E+01  0.00000000000E+00 0.  1.
         13   -1    0    0    0    0 -0.00000000000E+00 -0.00000000000E+00 -0.10000000000E+04  0.10000000000E+04  0.00000000000E+00 0.  1.
    9000005    2    1    2  501    0  0.18157028525E+02 -0.32313126306E+02 -0.76474636524E+03  0.76565032945E+03  0.30996821542E+01 0.  0.
         13    1    3    3    0    0  0.50603421639E+01 -0.91909538097E+01 -0.24632616099E+03  0.24654950473E+03  0.00000000000E+00 0.  1.
          3    1    3    3  501    0  0.13096686362E+02 -0.23122172497E+02 -0.51842020424E+03  0.51910082472E+03  0.00000000000E+00 0.  1.
         21    1    1    2  502  501 -0.18157028525E+02  0.32313126306E+02 -0.23333891187E+03  0.23626439344E+03  0.00000000000E+00 0.  1.
<mgrwt>
<rscale>  1 0.30000000E+03</rscale>
<asrwt>0</asrwt>
<pdfrwt beam="1">  1        3 0.69626434E-02 0.30000000E+03</pdfrwt>
<pdfrwt beam="2">0</pdfrwt>
<totfact> 0.59070477E+02</totfact>
</mgrwt>
</event>
<event>
 6    1  0.1956957E-002  0.3000000E+03  0.7818608E-02  0.1093470E+00
          3   -1    0    0  502    0  0.00000000000E+00  0.00000000000E+00  0.19875865972E+01  0.19875865972E+01  0.00000000000E+00 0.  1.
         13   -1    0    0    0    0 -0.00000000000E+00 -0.00000000000E+00 -0.10000000000E+04  0.10000000000E+04  0.00000000000E+00 0.  1.
    9000005    2    1    2  501    0 -0.43121546092E+02  0.33730418392E+01 -0.38124421352E+03  0.38370459513E+03  0.33497513868E+01 0.  0.
         13    1    3    3    0    0 -0.18845881898E+02 -0.17868243125E+00 -0.16383249901E+03  0.16491296772E+03  0.00000000000E+00 0.  1.
          1    1    3    3  501    0 -0.24275664193E+02  0.35517242705E+01 -0.21741171452E+03  0.21879162741E+03  0.00000000000E+00 0.  1.
         21    1    1    2  502  501  0.43121546092E+02 -0.33730418392E+01 -0.61676819988E+03  0.61828299146E+03  0.00000000000E+00 0.  1.
<mgrwt>
<rscale>  1 0.30000000E+03</rscale>
<asrwt>0</asrwt>
<pdfrwt beam="1">  1        3 0.72276029E-02 0.30000000E+03</pdfrwt>
<pdfrwt beam="2">0</pdfrwt>
<totfact> 0.55690030E+02</totfact>
</mgrwt>
</event>
<event>
 6    1  0.1956957E-002  0.3000000E+03  0.7818608E-02  0.1093470E+00
          1   -1    0    0  502    0  0.00000000000E+00  0.00000000000E+00  0.11442312343E+01  0.11442312343E+01  0.00000000000E+00 0.  1.
         13   -1    0    0    0    0 -0.00000000000E+00 -0.00000000000E+00 -0.10000000000E+04  0.10000000000E+04  0.00000000000E+00 0.  1.
    9000005    2    1    2  501    0  0.19755255192E+02 -0.22828652136E+02 -0.27751023555E+03  0.27916722623E+03  0.33154033548E+01 0.  0.
         13    1    3    3    0    0  0.16796408955E+02 -0.19246945627E+02 -0.22265944515E+03  0.22412004102E+03  0.00000000000E+00 0.  1.
          3    1    3    3  501    0  0.29588462372E+01 -0.35817065091E+01 -0.54850790400E+02  0.55047185215E+02  0.00000000000E+00 0.  1.
         21    1    1    2  502  501 -0.19755255192E+02  0.22828652136E+02 -0.72134553321E+03  0.72197700500E+03  0.00000000000E+00 0.  1.
<mgrwt>
<rscale>  1 0.30000000E+03</rscale>
<asrwt>0</asrwt>
<pdfrwt beam="1">  1        1 0.41608496E-02 0.30000000E+03</pdfrwt>
<pdfrwt beam="2">0</pdfrwt>
<totfact> 0.25759206E+03</totfact>
</mgrwt>
</event>
<event>
 6    1  0.1956957E-002  0.3000000E+03  0.7818608E-02  0.1093470E+00
          1   -1    0    0  502    0  0.00000000000E+00  0.00000000000E+00  0.15058793812E+01  0.15058793812E+01  0.00000000000E+00 0.  1.
         13   -1    0    0    0    0 -0.00000000000E+00 -0.00000000000E+00 -0.10000000000E+04  0.10000000000E+04  0.00000000000E+00 0.  1.
    9000005    2    1    2  501    0  0.11516910732E+02  0.36188799937E+02 -0.59831789411E+03  0.59953165043E+03  0.34101302155E+01 0.  0.
         13    1    3    3    0    0  0.77105746600E+01  0.19187360218E+02 -0.33633674891E+03  0.33697183328E+03  0.00000000000E+00 0.  1.
          3    1    3    3  501    0  0.38063360722E+01  0.17001439719E+02 -0.26198114520E+03  0.26255981716E+03  0.00000000000E+00 0.  1.
         21    1    1    2  502  501 -0.11516910732E+02 -0.36188799937E+02 -0.40017622651E+03  0.40197422895E+03  0.00000000000E+00 0.  1.
<mgrwt>
<rscale>  1 0.30000000E+03</rscale>
<asrwt>0</asrwt>
<pdfrwt beam="1">  1        1 0.54759366E-02 0.30000000E+03</pdfrwt>
<pdfrwt beam="2">0</pdfrwt>
<totfact> 0.17506249E+03</totfact>
</mgrwt>
</event>
<event>
 6    1  0.1956957E-002  0.3000000E+03  0.7818608E-02  0.1093470E+00
          1   -1    0    0  502    0  0.00000000000E+00  0.00000000000E+00  0.46145289858E+01  0.46145289858E+01  0.00000000000E+00 0.  1.
         13   -1    0    0    0    0 -0.00000000000E+00 -0.00000000000E+00 -0.10000000000E+04  0.10000000000E+04  0.00000000000E+00 0.  1.
    9000005    2    1    2  501    0  0.49804581705E+02  0.34446499930E+01 -0.83818471205E+03  0.83967684199E+03  0.33504460230E+01 0.  0.
         13    1    3    3    0    0  0.30748693618E+02  0.57860687976E+00 -0.52402305749E+03  0.52492473910E+03  0.00000000000E+00 0.  1.
          1    1    3    3  501    0  0.19055888087E+02  0.28660431133E+01 -0.31416165457E+03  0.31475210289E+03  0.00000000000E+00 0.  1.
         21    1    1    2  502  501 -0.49804581705E+02 -0.34446499930E+01 -0.15720075896E+03  0.16493768699E+03  0.00000000000E+00 0.  1.
<mgrwt>
<rscale>  1 0.30000000E+03</rscale>
<asrwt>0</asrwt>
<pdfrwt beam="1">  1        1 0.16780141E-01 0.30000000E+03</pdfrwt>
<pdfrwt beam="2">0</pdfrwt>
<totfact> 0.37269690E+02</totfact>
</mgrwt>
</event>
<event>
 6    1  0.1956957E-002  0.3000000E+03  0.7818608E-02  0.1093470E+00
          1   -1    0    0  502    0  0.00000000000E+00  0.00000000000E+00  0.14821589488E+01  0.14821589488E+01  0.00000000000E+00 0.  1.
         13   -1    0    0    0    0 -0.00000000000E+00 -0.00000000000E+00 -0.10000000000E+04  0.10000000000E+04  0.00000000000E+00 0.  1.
    9000005    2    1    2  501    0 -0.13437285394E+02 -0.34728457727E+02 -0.37693622272E+03  0.37878613787E+03  0.33757713702E+01 0.  0.
         13    1    3    3    0    0 -0.10983959771E+02 -0.31317143702E+02 -0.33381892947E+03  0.33546458611E+03  0.00000000000E+00 0.  1.
          3    1    3    3  501    0 -0.24533256236E+01 -0.34113140252E+01 -0.43117293245E+02  0.43321551759E+02  0.00000000000E+00 0.  1.
         21    1    1    2  502  501  0.13437285394E+02  0.34728457727E+02 -0.62158161833E+03  0.62269602108E+03  0.00000000000E+00 0.  1.
<mgrwt>
<rscale>  1 0.30000000E+03</rscale>
<asrwt>0</asrwt>
<pdfrwt beam="1">  1        1 0.53896803E-02 0.30000000E+03</pdfrwt>
<pdfrwt beam="2">0</pdfrwt>
<totfact> 0.17900978E+03</totfact>
</mgrwt>
</event>
<event>
 6    1  0.1956957E-002  0.3000000E+03  0.7818608E-02  0.1093470E+00
          1   -1    0    0  502    0  0.00000000000E+00  0.00000000000E+00  0.12583112008E+02  0.12583112008E+02  0.00000000000E+00 0.  1.
         13   -1    0    0    0    0 -0.00000000000E+00 -0.00000000000E+00 -0.10000000000E+04  0.10000000000E+04  0.00000000000E+00 0.  1.
    9000005    2    1    2  501    0  0.48797578761E+02  0.36175610044E+02 -0.91929939452E+03  0.92131498301E+03  0.44769057342E+01 0.  0.
         13    1    3    3    0    0  0.40529476866E+02  0.30336311931E+02 -0.78953570635E+03  0.79115710318E+03  0.00000000000E+00 0.  1.
          3    1    3    3  501    0  0.82681018955E+01  0.58392981135E+01 -0.12976368818E+03  0.13015787983E+03  0.00000000000E+00 0.  1.
         21    1    1    2  502  501 -0.48797578761E+02 -0.36175610044E+02 -0.68117493468E+02  0.91268129002E+02  0.00000000000E+00 0.  1.
<mgrwt>
<rscale>  1 0.30000000E+03</rscale>
<asrwt>0</asrwt>
<pdfrwt beam="1">  1        1 0.45756867E-01 0.30000000E+03</pdfrwt>
<pdfrwt beam="2">0</pdfrwt>
<totfact> 0.99131639E+01</totfact>
</mgrwt>
</event>
<event>
 6    1  0.1956957E-002  0.3000000E+03  0.7818608E-02  0.1093470E+00
          3   -1    0    0  502    0  0.00000000000E+00  0.00000000000E+00  0.13862538985E+01  0.13862538985E+01  0.00000000000E+00 0.  1.
         13   -1    0    0    0    0 -0.00000000000E+00 -0.00000000000E+00 -0.10000000000E+04  0.10000000000E+04  0.00000000000E+00 0.  1.
    9000005    2    1    2  501    0  0.87595646950E+01 -0.35767890944E+02 -0.44763554601E+03  0.44917882098E+03  0.52876429190E+01 0.  0.
         13    1    3    3    0    0  0.12246943338E+01 -0.88348451272E+00 -0.16980464499E+02  0.17047480626E+02  0.00000000000E+00 0.  1.
          3    1    3    3  501    0  0.75348703612E+01 -0.34884406431E+02 -0.43065508151E+03  0.43213134035E+03  0.00000000000E+00 0.  1.
         21    1    1    2  502  501 -0.87595646950E+01  0.35767890944E+02 -0.55097820009E+03  0.55220743292E+03  0.00000000000E+00 0.  1.
<mgrwt>
<rscale>  1 0.30000000E+03</rscale>
<asrwt>0</asrwt>
<pdfrwt beam="1">  1        3 0.50409339E-02 0.30000000E+03</pdfrwt>
<pdfrwt beam="2">0</pdfrwt>
<totfact> 0.97701837E+02</totfact>
</mgrwt>
</event>
<event>
 6    1  0.1956957E-002  0.3000000E+03  0.7818608E-02  0.1093470E+00
          1   -1    0    0  502    0  0.00000000000E+00  0.00000000000E+00  0.10431222441E+01  0.10431222441E+01  0.00000000000E+00 0.  1.
         13   -1    0    0    0    0 -0.00000000000E+00 -0.00000000000E+00 -0.10000000000E+04  0.10000000000E+04  0.00000000000E+00 0.  1.
    9000005    2    1    2  501    0 -0.29887852306E+02 -0.71181686534E+01 -0.65044339430E+03  0.65117800511E+03  0.34975853348E+01 0.  0.
         13    1    3    3    0    0 -0.10838306325E+01 -0.99503531553E+00 -0.33030537361E+02  0.33063290558E+02  0.00000000000E+00 0.  1.
          3    1    3    3  501    0 -0.28804021673E+02 -0.61231333378E+01 -0.61741285694E+03  0.61811471455E+03  0.00000000000E+00 0.  1.
         21    1    1    2  502  501  0.29887852306E+02  0.71181686534E+01 -0.34851348345E+03  0.34986511714E+03  0.00000000000E+00 0.  1.
<mgrwt>
<rscale>  1 0.30000000E+03</rscale>
<asrwt>0</asrwt>
<pdfrwt beam="1">  1        1 0.37931798E-02 0.30000000E+03</pdfrwt>
<pdfrwt beam="2">0</pdfrwt>
<totfact> 0.29342608E+03</totfact>
</mgrwt>
</event>
<event>
 6    1  0.1956957E-002  0.3000000E+03  0.7818608E-02  0.1093470E+00
          1   -1    0    0  502    0  0.00000000000E+00  0.00000000000E+00  0.13005733655E+01  0.13005733655E+01  0.00000000000E+00 0.  1.
         13   -1    0    0    0    0 -0.00000000000E+00 -0.00000000000E+00 -0.10000000000E+04  0.10000000000E+04  0.00000000000E+00 0.  1.
    9000005    2    1    2  501    0  0.35096935558E+02 -0.37505973536E+01 -0.59787430710E+03  0.59892433362E+03  0.32876191342E+01 0.  0.
         13    1    3    3    0    0  0.17779576592E+02 -0.33058005716E+01 -0.31994988886E+03  0.32046056394E+03  0.00000000000E+00 0.  1.
          1    1    3    3  501    0  0.17317358965E+02 -0.44479678198E+00 -0.27792441824E+03  0.27846376968E+03  0.00000000000E+00 0.  1.
         21    1    1    2  502  501 -0.35096935558E+02  0.37505973536E+01 -0.40082511953E+03  0.40237623975E+03  0.00000000000E+00 0.  1.
<mgrwt>
<rscale>  1 0.30000000E+03</rscale>
<asrwt>0</asrwt>
<pdfrwt beam="1">  1        1 0.47293677E-02 0.30000000E+03</pdfrwt>
<pdfrwt beam="2">0</pdfrwt>
<totfact> 0.21510426E+03</totfact>
</mgrwt>
</event>
<event>
 6    1  0.1956957E-002  0.3000000E+03  0.7818608E-02  0.1093470E+00
          3   -1    0    0  502    0  0.00000000000E+00  0.00000000000E+00  0.39288942440E+01  0.39288942440E+01  0.00000000000E+00 0.  1.
         13   -1    0    0    0    0 -0.00000000000E+00 -0.00000000000E+00 -0.10000000000E+04  0.10000000000E+04  0.00000000000E+00 0.  1.
    9000005    2    1    2  501    0 -0.16683668570E+02  0.30086311520E+02 -0.91755644134E+03  0.91820793143E+03  0.35286476745E+01 0.  0.
         13    1    3    3    0    0 -0.12871606692E+02  0.22270273206E+02 -0.64465258837E+03  0.64516556249E+03  0.00000000000E+00 0.  1.
          1    1    3    3  501    0 -0.38120618784E+01  0.78160383140E+01 -0.27290385296E+03  0.27304236893E+03  0.00000000000E+00 0.  1.
         21    1    1    2  502  501  0.16683668570E+02 -0.30086311520E+02 -0.78514664418E+02  0.85720962818E+02  0.00000000000E+00 0.  1.
<mgrwt>
<rscale>  1 0.30000000E+03</rscale>
<asrwt>0</asrwt>
<pdfrwt beam="1">  1        3 0.14286918E-01 0.30000000E+03</pdfrwt>
<pdfrwt beam="2">0</pdfrwt>
<totfact> 0.18104323E+02</totfact>
</mgrwt>
</event>
<event>
 6    1  0.1956957E-002  0.3000000E+03  0.7818608E-02  0.1093470E+00
          1   -1    0    0  502    0  0.00000000000E+00  0.00000000000E+00  0.42979521271E+01  0.42979521271E+01  0.00000000000E+00 0.  1.
         13   -1    0    0    0    0 -0.00000000000E+00 -0.00000000000E+00 -0.10000000000E+04  0.10000000000E+04  0.00000000000E+00 0.  1.
    9000005    2    1    2  501    0  0.20614014520E+02  0.29004935934E+02 -0.91948355769E+03  0.92018206689E+03  0.43358347818E+01 0.  0.
         13    1    3    3    0    0  0.15590919467E+02  0.19846361617E+02 -0.60858954855E+03  0.60911262788E+03  0.00000000000E+00 0.  1.
          1    1    3    3  501    0  0.50230950531E+01  0.91585743166E+01 -0.31089400914E+03  0.31106943901E+03  0.00000000000E+00 0.  1.
         21    1    1    2  502  501 -0.20614014520E+02 -0.29004935934E+02 -0.76218490181E+02  0.84115885233E+02  0.00000000000E+00 0.  1.
<mgrwt>
<rscale>  1 0.30000000E+03</rscale>
<asrwt>0</asrwt>
<pdfrwt beam="1">  1        1 0.15628950E-01 0.30000000E+03</pdfrwt>
<pdfrwt beam="2">0</pdfrwt>
<totfact> 0.41029683E+02</totfact>
</mgrwt>
</event>
<event>
 6    1  0.1956957E-002  0.3000000E+03  0.7818608E-02  0.1093470E+00
          1   -1    0    0  502    0  0.00000000000E+00  0.00000000000E+00  0.38850045999E+01  0.38850045999E+01  0.00000000000E+00 0.  1.
         13   -1    0    0    0    0 -0.00000000000E+00 -0.00000000000E+00 -0.10000000000E+04  0.10000000000E+04  0.00000000000E+00 0.  1.
    9000005    2    1    2  501    0 -0.60871730901E+02 -0.10534357755E+02 -0.56268860748E+03  0.56607822752E+03  0.31225570283E+01 0.  0.
         13    1    3    3    0    0 -0.38982432508E+01  0.20041330888E-01 -0.38539640843E+02  0.38736295879E+02  0.00000000000E+00 0.  1.
          3    1    3    3  501    0 -0.56973487650E+02 -0.10554399086E+02 -0.52414896664E+03  0.52734193164E+03  0.00000000000E+00 0.  1.
         21    1    1    2  502  501  0.60871730901E+02  0.10534357755E+02 -0.43342638792E+03  0.43780677708E+03  0.00000000000E+00 0.  1.
<mgrwt>
<rscale>  1 0.30000000E+03</rscale>
<asrwt>0</asrwt>
<pdfrwt beam="1">  1        1 0.14127319E-01 0.30000000E+03</pdfrwt>
<pdfrwt beam="2">0</pdfrwt>
<totfact> 0.47062719E+02</totfact>
</mgrwt>
</event>
<event>
 6    1  0.1956957E-002  0.3000000E+03  0.7818608E-02  0.1093470E+00
          1   -1    0    0  502    0  0.00000000000E+00  0.00000000000E+00  0.13588973889E+01  0.13588973889E+01  0.00000000000E+00 0.  1.
         13   -1    0    0    0    0 -0.00000000000E+00 -0.00000000000E+00 -0.10000000000E+04  0.10000000000E+04  0.00000000000E+00 0.  1.
    9000005    2    1    2  501    0  0.23137905347E+02 -0.26258131407E+02 -0.65403389023E+03  0.65497907270E+03  0.35219273266E+01 0.  0.
         13    1    3    3    0    0  0.11254807524E+02 -0.11142980521E+02 -0.32135071425E+03  0.32174076250E+03  0.00000000000E+00 0.  1.
          3    1    3    3  501    0  0.11883097824E+02 -0.15115150886E+02 -0.33268317598E+03  0.33323831019E+03  0.00000000000E+00 0.  1.
         21    1    1    2  502  501 -0.23137905347E+02  0.26258131407E+02 -0.34460721238E+03  0.34637982469E+03  0.00000000000E+00 0.  1.
<mgrwt>
<rscale>  1 0.30000000E+03</rscale>
<asrwt>0</asrwt>
<pdfrwt beam="1">  1        1 0.49414555E-02 0.30000000E+03</pdfrwt>
<pdfrwt beam="2">0</pdfrwt>
<totfact> 0.20223666E+03</totfact>
</mgrwt>
</event>
<event>
 6    1  0.1956957E-002  0.3000000E+03  0.7818608E-02  0.1093470E+00
          1   -1    0    0  502    0  0.00000000000E+00  0.00000000000E+00  0.62710706294E+01  0.62710706294E+01  0.00000000000E+00 0.  1.
         13   -1    0    0    0    0 -0.00000000000E+00 -0.00000000000E+00 -0.10000000000E+04  0.10000000000E+04  0.00000000000E+00 0.  1.
    9000005    2    1    2  501    0 -0.45812597812E+01 -0.40872764216E+02 -0.92679046917E+03  0.92770690418E+03  0.28205537418E+01 0.  0.
         13    1    3    3    0    0  0.10389338653E+00 -0.18293339268E+01 -0.53879769805E+02  0.53910915877E+02  0.00000000000E+00 0.  1.
          3    1    3    3  501    0 -0.46851531677E+01 -0.39043430290E+02 -0.87291069936E+03  0.87379598830E+03  0.00000000000E+00 0.  1.
         21    1    1    2  502  501  0.45812597812E+01  0.40872764216E+02 -0.66938460202E+02  0.78564166451E+02  0.00000000000E+00 0.  1.
<mgrwt>
<rscale>  1 0.30000000E+03</rscale>
<asrwt>0</asrwt>
<pdfrwt beam="1">  1        1 0.22803941E-01 0.30000000E+03</pdfrwt>
<pdfrwt beam="2">0</pdfrwt>
<totfact> 0.24725100E+02</totfact>
</mgrwt>
</event>
<event>
 6    1  0.1956957E-002  0.3000000E+03  0.7818608E-02  0.1093470E+00
          1   -1    0    0  502    0  0.00000000000E+00  0.00000000000E+00  0.25711084920E+02  0.25711084920E+02  0.00000000000E+00 0.  1.
         13   -1    0    0    0    0 -0.00000000000E+00 -0.00000000000E+00 -0.10000000000E+04  0.10000000000E+04  0.00000000000E+00 0.  1.
    9000005    2    1    2  501    0 -0.17010299649E+01  0.49195232009E+02 -0.97517419501E+03  0.97647849332E+03  0.11066749062E+02 0.  0.
         13    1    3    3    0    0 -0.91284116217E+00  0.18554762477E+01 -0.10251181821E+03  0.10253267257E+03  0.00000000000E+00 0.  1.
          3    1    3    3  501    0 -0.78818880275E+00  0.47339755761E+02 -0.87266237680E+03  0.87394582074E+03  0.00000000000E+00 0.  1.
         21    1    1    2  502  501  0.17010299649E+01 -0.49195232009E+02  0.88527993353E+00  0.49232591603E+02  0.00000000000E+00 0.  1.
<mgrwt>
<rscale>  1 0.30000000E+03</rscale>
<asrwt>0</asrwt>
<pdfrwt beam="1">  1        1 0.93495051E-01 0.30000000E+03</pdfrwt>
<pdfrwt beam="2">0</pdfrwt>
<totfact> 0.37726546E+01</totfact>
</mgrwt>
</event>
<event>
 6    1  0.1956957E-002  0.3000000E+03  0.7818608E-02  0.1093470E+00
          3   -1    0    0  502    0  0.00000000000E+00  0.00000000000E+00  0.12136137555E+01  0.12136137555E+01  0.00000000000E+00 0.  1.
         13   -1    0    0    0    0 -0.00000000000E+00 -0.00000000000E+00 -0.10000000000E+04  0.10000000000E+04  0.00000000000E+00 0.  1.
    9000005    2    1    2  501    0  0.12299694797E+02 -0.31349501559E+02 -0.39636778033E+03  0.39785447486E+03  0.68331647247E+01 0.  0.
         13    1    3    3    0    0  0.20358334165E+01 -0.86644647318E+01 -0.13915944828E+03  0.13944378657E+03  0.00000000000E+00 0.  1.
          3    1    3    3  501    0  0.10263861380E+02 -0.22685036827E+02 -0.25720833205E+03  0.25841068829E+03  0.00000000000E+00 0.  1.
         21    1    1    2  502  501 -0.12299694797E+02  0.31349501559E+02 -0.60241860591E+03  0.60335913890E+03  0.00000000000E+00 0.  1.
<mgrwt>
<rscale>  1 0.30000000E+03</rscale>
<asrwt>0</asrwt>
<pdfrwt beam="1">  1        3 0.44131502E-02 0.30000000E+03</pdfrwt>
<pdfrwt beam="2">0</pdfrwt>
<totfact> 0.11995932E+03</totfact>
</mgrwt>
</event>
<event>
 6    1  0.1956957E-002  0.3000000E+03  0.7818608E-02  0.1093470E+00
          1   -1    0    0  502    0  0.00000000000E+00  0.00000000000E+00  0.52475186490E+01  0.52475186490E+01  0.00000000000E+00 0.  1.
         13   -1    0    0    0    0 -0.00000000000E+00 -0.00000000000E+00 -0.10000000000E+04  0.10000000000E+04  0.00000000000E+00 0.  1.
    9000005    2    1    2  501    0  0.99186418204E+01 -0.34035721806E+02 -0.93564680571E+03  0.93632516591E+03  0.36140642980E+01 0.  0.
         13    1    3    3    0    0  0.74430072524E+01 -0.23020262742E+02 -0.67668742460E+03  0.67711978369E+03  0.00000000000E+00 0.  1.
          1    1    3    3  501    0  0.24756345680E+01 -0.11015459064E+02 -0.25895938111E+03  0.25920538222E+03  0.00000000000E+00 0.  1.
         21    1    1    2  502  501 -0.99186418204E+01  0.34035721806E+02 -0.59105675636E+02  0.68922352737E+02  0.00000000000E+00 0.  1.
<mgrwt>
<rscale>  1 0.30000000E+03</rscale>
<asrwt>0</asrwt>
<pdfrwt beam="1">  1        1 0.19081926E-01 0.30000000E+03</pdfrwt>
<pdfrwt beam="2">0</pdfrwt>
<totfact> 0.31353431E+02</totfact>
</mgrwt>
</event>
<event>
 6    1  0.1956957E-002  0.3000000E+03  0.7818608E-02  0.1093470E+00
          3   -1    0    0  502    0  0.00000000000E+00  0.00000000000E+00  0.16092760061E+01  0.16092760061E+01  0.00000000000E+00 0.  1.
         13   -1    0    0    0    0 -0.00000000000E+00 -0.00000000000E+00 -0.10000000000E+04  0.10000000000E+04  0.00000000000E+00 0.  1.
    9000005    2    1    2  501    0  0.23274900219E+02  0.32428604249E+02 -0.54627677466E+03  0.54773665232E+03  0.19468956675E+01 0.  0.
         13    1    3    3    0    0  0.21281189122E+02  0.30156994260E+02 -0.49876823141E+03  0.50013206454E+03  0.00000000000E+00 0.  1.
          3    1    3    3  501    0  0.19937110970E+01  0.22716099891E+01 -0.47508543252E+02  0.47604587782E+02  0.00000000000E+00 0.  1.
         21    1    1    2  502  501 -0.23274900219E+02 -0.32428604249E+02 -0.45211394933E+03  0.45387262369E+03  0.00000000000E+00 0.  1.
<mgrwt>
<rscale>  1 0.30000000E+03</rscale>
<asrwt>0</asrwt>
<pdfrwt beam="1">  1        3 0.58519251E-02 0.30000000E+03</pdfrwt>
<pdfrwt beam="2">0</pdfrwt>
<totfact> 0.77533163E+02</totfact>
</mgrwt>
</event>
<event>
 6    1  0.1956957E-002  0.3000000E+03  0.7818608E-02  0.1093470E+00
          1   -1    0    0  502    0  0.00000000000E+00  0.00000000000E+00  0.86124107720E+01  0.86124107720E+01  0.00000000000E+00 0.  1.
         13   -1    0    0    0    0 -0.00000000000E+00 -0.00000000000E+00 -0.10000000000E+04  0.10000000000E+04  0.00000000000E+00 0.  1.
    9000005    2    1    2  501    0  0.21984850038E+02  0.30026870494E+02 -0.95765775781E+03  0.95838644029E+03  0.33527995897E+01 0.  0.
         13    1    3    3    0    0  0.94091125015E+01  0.15449155184E+02 -0.48116442596E+03  0.48150432252E+03  0.00000000000E+00 0.  1.
          3    1    3    3  501    0  0.12575737537E+02  0.14577715310E+02 -0.47649333185E+03  0.47688211777E+03  0.00000000000E+00 0.  1.
         21    1    1    2  502  501 -0.21984850038E+02 -0.30026870494E+02 -0.33729831418E+02  0.50225970477E+02  0.00000000000E+00 0.  1.
<mgrwt>
<rscale>  1 0.30000000E+03</rscale>
<asrwt>0</asrwt>
<pdfrwt beam="1">  1        1 0.31317923E-01 0.30000000E+03</pdfrwt>
<pdfrwt beam="2">0</pdfrwt>
<totfact> 0.16277545E+02</totfact>
</mgrwt>
</event>
<event>
 6    1  0.1956957E-002  0.3000000E+03  0.7818608E-02  0.1093470E+00
          3   -1    0    0  502    0  0.00000000000E+00  0.00000000000E+00  0.19928537389E+01  0.19928537389E+01  0.00000000000E+00 0.  1.
         13   -1    0    0    0    0 -0.00000000000E+00 -0.00000000000E+00 -0.10000000000E+04  0.10000000000E+04  0.00000000000E+00 0.  1.
    9000005    2    1    2  501    0  0.41956424148E+02 -0.10456865763E+01 -0.66785125921E+03  0.66918007642E+03  0.39032384644E+01 0.  0.
         13    1    3    3    0    0  0.51886255749E+01  0.35209922298E+00 -0.10357344406E+03  0.10370392531E+03  0.00000000000E+00 0.  1.
          1    1    3    3  501    0  0.36767798574E+02 -0.13977857993E+01 -0.56427781514E+03  0.56547615111E+03  0.00000000000E+00 0.  1.
         21    1    1    2  502  501 -0.41956424148E+02  0.10456865763E+01 -0.33015588706E+03  0.33281277732E+03  0.00000000000E+00 0.  1.
<mgrwt>
<rscale>  1 0.30000000E+03</rscale>
<asrwt>0</asrwt>
<pdfrwt beam="1">  1        3 0.72467562E-02 0.30000000E+03</pdfrwt>
<pdfrwt beam="2">0</pdfrwt>
<totfact> 0.55457446E+02</totfact>
</mgrwt>
</event>
<event>
 6    1  0.1956957E-002  0.3000000E+03  0.7818608E-02  0.1093470E+00
          1   -1    0    0  502    0  0.00000000000E+00  0.00000000000E+00  0.14036261995E+02  0.14036261995E+02  0.00000000000E+00 0.  1.
         13   -1    0    0    0    0 -0.00000000000E+00 -0.00000000000E+00 -0.10000000000E+04  0.10000000000E+04  0.00000000000E+00 0.  1.
    9000005    2    1    2  501    0 -0.42684100043E+02 -0.11901843394E+02 -0.96319330596E+03  0.96421579584E+03  0.26776895874E+01 0.  0.
         13    1    3    3    0    0 -0.12650348202E+02 -0.43712167949E+01 -0.27105730331E+03  0.27138754674E+03  0.00000000000E+00 0.  1.
          1    1    3    3  501    0 -0.30033751841E+02 -0.75306265993E+01 -0.69213600265E+03  0.69282824910E+03  0.00000000000E+00 0.  1.
         21    1    1    2  502  501  0.42684100043E+02  0.11901843394E+02 -0.22770432043E+02  0.49820466157E+02  0.00000000000E+00 0.  1.
<mgrwt>
<rscale>  1 0.30000000E+03</rscale>
<asrwt>0</asrwt>
<pdfrwt beam="1">  1        1 0.51041060E-01 0.30000000E+03</pdfrwt>
<pdfrwt beam="2">0</pdfrwt>
<totfact> 0.85890618E+01</totfact>
</mgrwt>
</event>
<event>
 6    1  0.1956957E-002  0.3000000E+03  0.7818608E-02  0.1093470E+00
          1   -1    0    0  502    0  0.00000000000E+00  0.00000000000E+00  0.14804548504E+01  0.14804548504E+01  0.00000000000E+00 0.  1.
         13   -1    0    0    0    0 -0.00000000000E+00 -0.00000000000E+00 -0.10000000000E+04  0.10000000000E+04  0.00000000000E+00 0.  1.
    9000005    2    1    2  501    0 -0.19318520069E+02 -0.22968455714E+02 -0.81181760191E+03  0.81238161618E+03  0.39136130630E+01 0.  0.
         13    1    3    3    0    0 -0.17153638638E+02 -0.18721681604E+02 -0.65643236502E+03  0.65692328207E+03  0.00000000000E+00 0.  1.
          3    1    3    3  501    0 -0.21648814313E+01 -0.42467741104E+01 -0.15538523689E+03  0.15545833411E+03  0.00000000000E+00 0.  1.
         21    1    1    2  502  501  0.19318520069E+02  0.22968455714E+02 -0.18670194324E+03  0.18909883867E+03  0.00000000000E+00 0.  1.
<mgrwt>
<rscale>  1 0.30000000E+03</rscale>
<asrwt>0</asrwt>
<pdfrwt beam="1">  1        1 0.53834835E-02 0.30000000E+03</pdfrwt>
<pdfrwt beam="2">0</pdfrwt>
<totfact> 0.17929924E+03</totfact>
</mgrwt>
</event>
<event>
 6    1  0.1956957E-002  0.3000000E+03  0.7818608E-02  0.1093470E+00
          1   -1    0    0  502    0  0.00000000000E+00  0.00000000000E+00  0.14097390235E+01  0.14097390235E+01  0.00000000000E+00 0.  1.
         13   -1    0    0    0    0 -0.00000000000E+00 -0.00000000000E+00 -0.10000000000E+04  0.10000000000E+04  0.00000000000E+00 0.  1.
    9000005    2    1    2  501    0 -0.27457619469E+02 -0.23410566547E+02 -0.37598420585E+03  0.37775897507E+03  0.59786878457E+01 0.  0.
         13    1    3    3    0    0 -0.18488196015E+02 -0.18314942079E+02 -0.28751778277E+03  0.28869313449E+03  0.00000000000E+00 0.  1.
          1    1    3    3  501    0 -0.89694234536E+01 -0.50956244683E+01 -0.88466423081E+02  0.89065840582E+02  0.00000000000E+00 0.  1.
         21    1    1    2  502  501  0.27457619469E+02  0.23410566547E+02 -0.62260605513E+03  0.62365076395E+03  0.00000000000E+00 0.  1.
<mgrwt>
<rscale>  1 0.30000000E+03</rscale>
<asrwt>0</asrwt>
<pdfrwt beam="1">  1        1 0.51263345E-02 0.30000000E+03</pdfrwt>
<pdfrwt beam="2">0</pdfrwt>
<totfact> 0.19206132E+03</totfact>
</mgrwt>
</event>
<event>
 6    1  0.1956957E-002  0.3000000E+03  0.7818608E-02  0.1093470E+00
          3   -1    0    0  502    0  0.00000000000E+00  0.00000000000E+00  0.23398271360E+01  0.23398271360E+01  0.00000000000E+00 0.  1.
         13   -1    0    0    0    0 -0.00000000000E+00 -0.00000000000E+00 -0.10000000000E+04  0.10000000000E+04  0.00000000000E+00 0.  1.
    9000005    2    1    2  501    0  0.37417274840E+02 -0.12368495732E+02 -0.78900555803E+03  0.78999628371E+03  0.33653425352E+01 0.  0.
         13    1    3    3    0    0  0.33192082224E+02 -0.10645374640E+02 -0.67497061613E+03  0.67587008439E+03  0.00000000000E+00 0.  1.
          1    1    3    3  501    0  0.42251926156E+01 -0.17231210920E+01 -0.11403494190E+03  0.11412619933E+03  0.00000000000E+00 0.  1.
         21    1    1    2  502  501 -0.37417274840E+02  0.12368495732E+02 -0.20865461483E+03  0.21234354342E+03  0.00000000000E+00 0.  1.
<mgrwt>
<rscale>  1 0.30000000E+03</rscale>
<asrwt>0</asrwt>
<pdfrwt beam="1">  1        3 0.85084803E-02 0.30000000E+03</pdfrwt>
<pdfrwt beam="2">0</pdfrwt>
<totfact> 0.42938649E+02</totfact>
</mgrwt>
</event>
<event>
 6    1  0.1956957E-002  0.3000000E+03  0.7818608E-02  0.1093470E+00
          1   -1    0    0  502    0  0.00000000000E+00  0.00000000000E+00  0.11377753409E+01  0.11377753409E+01  0.00000000000E+00 0.  1.
         13   -1    0    0    0    0 -0.00000000000E+00 -0.00000000000E+00 -0.10000000000E+04  0.10000000000E+04  0.00000000000E+00 0.  1.
    9000005    2    1    2  501    0  0.21860730405E+02 -0.25434684387E+02 -0.47086490151E+03  0.47207635362E+03  0.41849094223E+01 0.  0.
         13    1    3    3    0    0  0.67815288791E+00 -0.95931132042E+00 -0.30909833741E+02  0.30932151419E+02  0.00000000000E+00 0.  1.
          3    1    3    3  501    0  0.21182577517E+02 -0.24475373066E+02 -0.43995506777E+03  0.44114420220E+03  0.00000000000E+00 0.  1.
         21    1    1    2  502  501 -0.21860730405E+02  0.25434684387E+02 -0.52799732315E+03  0.52906142172E+03  0.00000000000E+00 0.  1.
<mgrwt>
<rscale>  1 0.30000000E+03</rscale>
<asrwt>0</asrwt>
<pdfrwt beam="1">  1        1 0.41373736E-02 0.30000000E+03</pdfrwt>
<pdfrwt beam="2">0</pdfrwt>
<totfact> 0.25965238E+03</totfact>
</mgrwt>
</event>
<event>
 6    1  0.1956957E-002  0.3000000E+03  0.7818608E-02  0.1093470E+00
          3   -1    0    0  502    0  0.00000000000E+00  0.00000000000E+00  0.46579552256E+01  0.46579552256E+01  0.00000000000E+00 0.  1.
         13   -1    0    0    0    0 -0.00000000000E+00 -0.00000000000E+00 -0.10000000000E+04  0.10000000000E+04  0.00000000000E+00 0.  1.
    9000005    2    1    2  501    0  0.16594394582E+02  0.65832186070E+02 -0.53232004304E+03  0.53668506633E+03  0.75486118872E+01 0.  0.
         13    1    3    3    0    0  0.12271597341E+02  0.46870420507E+02 -0.35186121538E+03  0.35518128232E+03  0.00000000000E+00 0.  1.
          3    1    3    3  501    0  0.43227972404E+01  0.18961765563E+02 -0.18045882766E+03  0.18150378401E+03  0.00000000000E+00 0.  1.
         21    1    1    2  502  501 -0.16594394582E+02 -0.65832186070E+02 -0.46302200173E+03  0.46797288890E+03  0.00000000000E+00 0.  1.
<mgrwt>
<rscale>  1 0.30000000E+03</rscale>
<asrwt>0</asrwt>
<pdfrwt beam="1">  1        3 0.16938055E-01 0.30000000E+03</pdfrwt>
<pdfrwt beam="2">0</pdfrwt>
<totfact> 0.13457451E+02</totfact>
</mgrwt>
</event>
<event>
 6    1  0.1956957E-002  0.3000000E+03  0.7818608E-02  0.1093470E+00
          1   -1    0    0  502    0  0.00000000000E+00  0.00000000000E+00  0.11494765954E+01  0.11494765954E+01  0.00000000000E+00 0.  1.
         13   -1    0    0    0    0 -0.00000000000E+00 -0.00000000000E+00 -0.10000000000E+04  0.10000000000E+04  0.00000000000E+00 0.  1.
    9000005    2    1    2  501    0  0.15617219098E+02  0.29623971172E+02 -0.42889387590E+03  0.43020984999E+03  0.30134761345E+01 0.  0.
         13    1    3    3    0    0  0.10127459369E+02  0.16029495053E+02 -0.24416141380E+03  0.24489652128E+03  0.00000000000E+00 0.  1.
          3    1    3    3  501    0  0.54897597290E+01  0.13594476119E+02 -0.18473246210E+03  0.18531332871E+03  0.00000000000E+00 0.  1.
         21    1    1    2  502  501 -0.15617219098E+02 -0.29623971172E+02 -0.56995664750E+03  0.57093962661E+03  0.00000000000E+00 0.  1.
<mgrwt>
<rscale>  1 0.30000000E+03</rscale>
<asrwt>0</asrwt>
<pdfrwt beam="1">  1        1 0.41799237E-02 0.30000000E+03</pdfrwt>
<pdfrwt beam="2">0</pdfrwt>
<totfact> 0.25593857E+03</totfact>
</mgrwt>
</event>
<event>
 6    1  0.1956957E-002  0.3000000E+03  0.7818608E-02  0.1093470E+00
          1   -1    0    0  502    0  0.00000000000E+00  0.00000000000E+00  0.96633258361E+01  0.96633258361E+01  0.00000000000E+00 0.  1.
         13   -1    0    0    0    0 -0.00000000000E+00 -0.00000000000E+00 -0.10000000000E+04  0.10000000000E+04  0.00000000000E+00 0.  1.
    9000005    2    1    2  501    0 -0.71528706289E+02 -0.64967078696E+02 -0.40350286033E+03  0.41492724807E+03  0.36035758354E+01 0.  0.
         13    1    3    3    0    0 -0.69693518678E+02 -0.62543288878E+02 -0.38955505794E+03  0.40065195956E+03  0.00000000000E+00 0.  1.
          3    1    3    3  501    0 -0.18351876109E+01 -0.24237898176E+01 -0.13947802388E+02  0.14275288512E+02  0.00000000000E+00 0.  1.
         21    1    1    2  502  501  0.71528706289E+02  0.64967078696E+02 -0.58683381383E+03  0.59473607777E+03  0.00000000000E+00 0.  1.
<mgrwt>
<rscale>  1 0.30000000E+03</rscale>
<asrwt>0</asrwt>
<pdfrwt beam="1">  1        1 0.35139441E-01 0.30000000E+03</pdfrwt>
<pdfrwt beam="2">0</pdfrwt>
<totfact> 0.13999264E+02</totfact>
</mgrwt>
</event>
<event>
 6    1  0.1956957E-002  0.3000000E+03  0.7818608E-02  0.1093470E+00
          1   -1    0    0  502    0  0.00000000000E+00  0.00000000000E+00  0.26112741013E+01  0.26112741013E+01  0.00000000000E+00 0.  1.
         13   -1    0    0    0    0 -0.00000000000E+00 -0.00000000000E+00 -0.10000000000E+04  0.10000000000E+04  0.00000000000E+00 0.  1.
    9000005    2    1    2  501    0  0.44643737329E+02 -0.23249604425E+02 -0.41669625981E+03  0.41974135074E+03  0.36634944689E+01 0.  0.
         13    1    3    3    0    0  0.32834278417E+02 -0.17876389252E+02 -0.32094434554E+03  0.32311441946E+03  0.00000000000E+00 0.  1.
          3    1    3    3  501    0  0.11809458912E+02 -0.53732151734E+01 -0.95751914275E+02  0.96626931279E+02  0.00000000000E+00 0.  1.
         21    1    1    2  502  501 -0.44643737329E+02  0.23249604425E+02 -0.58069246609E+03  0.58286992336E+03  0.00000000000E+00 0.  1.
<mgrwt>
<rscale>  1 0.30000000E+03</rscale>
<asrwt>0</asrwt>
<pdfrwt beam="1">  1        1 0.94955622E-02 0.30000000E+03</pdfrwt>
<pdfrwt beam="2">0</pdfrwt>
<totfact> 0.81179529E+02</totfact>
</mgrwt>
</event>
<event>
 6    1  0.1956957E-002  0.3000000E+03  0.7818608E-02  0.1093470E+00
          1   -1    0    0  502    0  0.00000000000E+00  0.00000000000E+00  0.97557177684E+00  0.97557177684E+00  0.00000000000E+00 0.  1.
         13   -1    0    0    0    0 -0.00000000000E+00 -0.00000000000E+00 -0.10000000000E+04  0.10000000000E+04  0.00000000000E+00 0.  1.
    9000005    2    1    2  501    0 -0.27187549041E+02 -0.15022009439E+02 -0.53937432976E+03  0.54027714915E+03  0.31474915346E+01 0.  0.
         13    1    3    3    0    0 -0.14268991540E+02 -0.95367475555E+01 -0.28631408276E+03  0.28682801059E+03  0.00000000000E+00 0.  1.
          1    1    3    3  501    0 -0.12918557501E+02 -0.54852618835E+01 -0.25306024700E+03  0.25344913856E+03  0.00000000000E+00 0.  1.
         21    1    1    2  502  501  0.27187549041E+02  0.15022009439E+02 -0.45965009846E+03  0.46069842262E+03  0.00000000000E+00 0.  1.
<mgrwt>
<rscale>  1 0.30000000E+03</rscale>
<asrwt>0</asrwt>
<pdfrwt beam="1">  1        1 0.35475412E-02 0.30000000E+03</pdfrwt>
<pdfrwt beam="2">0</pdfrwt>
<totfact> 0.32241204E+03</totfact>
</mgrwt>
</event>
<event>
 6    1  0.1956957E-002  0.3000000E+03  0.7818608E-02  0.1093470E+00
          3   -1    0    0  502    0  0.00000000000E+00  0.00000000000E+00  0.55251355364E+01  0.55251355364E+01  0.00000000000E+00 0.  1.
         13   -1    0    0    0    0 -0.00000000000E+00 -0.00000000000E+00 -0.10000000000E+04  0.10000000000E+04  0.00000000000E+00 0.  1.
    9000005    2    1    2  501    0  0.37002619335E+02  0.96033998009E+01 -0.92836427376E+03  0.92915741115E+03  0.34424942862E+01 0.  0.
         13    1    3    3    0    0  0.26645567753E+02  0.53549189664E+01 -0.64763647529E+03  0.64820649917E+03  0.00000000000E+00 0.  1.
          1    1    3    3  501    0  0.10357051583E+02  0.42484808346E+01 -0.28072779847E+03  0.28095091198E+03  0.00000000000E+00 0.  1.
         21    1    1    2  502  501 -0.37002619335E+02 -0.96033998009E+01 -0.66110590700E+02  0.76367724387E+02  0.00000000000E+00 0.  1.
<mgrwt>
<rscale>  1 0.30000000E+03</rscale>
<asrwt>0</asrwt>
<pdfrwt beam="1">  1        3 0.20091444E-01 0.30000000E+03</pdfrwt>
<pdfrwt beam="2">0</pdfrwt>
<totfact> 0.99125713E+01</totfact>
</mgrwt>
</event>
<event>
 6    1  0.1956957E-002  0.3000000E+03  0.7818608E-02  0.1093470E+00
          1   -1    0    0  502    0  0.00000000000E+00  0.00000000000E+00  0.21685871620E+01  0.21685871620E+01  0.00000000000E+00 0.  1.
         13   -1    0    0    0    0 -0.00000000000E+00 -0.00000000000E+00 -0.10000000000E+04  0.10000000000E+04  0.00000000000E+00 0.  1.
    9000005    2    1    2  501    0  0.46299541390E+02 -0.17063945583E+01 -0.53699485988E+03  0.53900890859E+03  0.45348300411E+01 0.  0.
         13    1    3    3    0    0  0.77357110757E+01  0.11134673880E+01 -0.79750251431E+02  0.80132288366E+02  0.00000000000E+00 0.  1.
          1    1    3    3  501    0  0.38563830314E+02 -0.28198619463E+01 -0.45724460845E+03  0.45887662022E+03  0.00000000000E+00 0.  1.
         21    1    1    2  502  501 -0.46299541390E+02  0.17063945583E+01 -0.46083655296E+03  0.46315967858E+03  0.00000000000E+00 0.  1.
<mgrwt>
<rscale>  1 0.30000000E+03</rscale>
<asrwt>0</asrwt>
<pdfrwt beam="1">  1        1 0.78857881E-02 0.30000000E+03</pdfrwt>
<pdfrwt beam="2">0</pdfrwt>
<totfact> 0.10506736E+03</totfact>
</mgrwt>
</event>
<event>
 6    1  0.1956957E-002  0.3000000E+03  0.7818608E-02  0.1093470E+00
          1   -1    0    0  502    0  0.00000000000E+00  0.00000000000E+00  0.11480808490E+02  0.11480808490E+02  0.00000000000E+00 0.  1.
         13   -1    0    0    0    0 -0.00000000000E+00 -0.00000000000E+00 -0.10000000000E+04  0.10000000000E+04  0.00000000000E+00 0.  1.
    9000005    2    1    2  501    0 -0.83978362860E+02 -0.12396870956E+02 -0.80278283366E+03  0.80726513215E+03  0.32661473884E+01 0.  0.
         13    1    3    3    0    0 -0.77758869354E+02 -0.11831672835E+02 -0.75071297672E+03  0.75482210067E+03  0.00000000000E+00 0.  1.
          3    1    3    3  501    0 -0.62194935058E+01 -0.56519812101E+00 -0.52069856943E+02  0.52443031476E+02  0.00000000000E+00 0.  1.
         21    1    1    2  502  501  0.83978362860E+02  0.12396870956E+02 -0.18573635785E+03  0.20421567634E+03  0.00000000000E+00 0.  1.
<mgrwt>
<rscale>  1 0.30000000E+03</rscale>
<asrwt>0</asrwt>
<pdfrwt beam="1">  1        1 0.41748483E-01 0.30000000E+03</pdfrwt>
<pdfrwt beam="2">0</pdfrwt>
<totfact> 0.11177375E+02</totfact>
</mgrwt>
</event>
<event>
 6    1  0.1956957E-002  0.3000000E+03  0.7818608E-02  0.1093470E+00
          3   -1    0    0  502    0  0.00000000000E+00  0.00000000000E+00  0.21574835638E+01  0.21574835638E+01  0.00000000000E+00 0.  1.
         13   -1    0    0    0    0 -0.00000000000E+00 -0.00000000000E+00 -0.10000000000E+04  0.10000000000E+04  0.00000000000E+00 0.  1.
    9000005    2    1    2  501    0  0.45408608411E+02 -0.35919564147E+01 -0.40495365023E+03  0.40752141710E+03  0.33767871598E+01 0.  0.
         13    1    3    3    0    0  0.33856734772E+02 -0.21493772821E+01 -0.31330012907E+03  0.31513151094E+03  0.00000000000E+00 0.  1.
          3    1    3    3  501    0  0.11551873639E+02 -0.14425791326E+01 -0.91653521161E+02  0.92389906161E+02  0.00000000000E+00 0.  1.
         21    1    1    2  502  501 -0.45408608411E+02  0.35919564147E+01 -0.59288886621E+03  0.59463606647E+03  0.00000000000E+00 0.  1.
<mgrwt>
<rscale>  1 0.30000000E+03</rscale>
<asrwt>0</asrwt>
<pdfrwt beam="1">  1        3 0.78454113E-02 0.30000000E+03</pdfrwt>
<pdfrwt beam="2">0</pdfrwt>
<totfact> 0.48889131E+02</totfact>
</mgrwt>
</event>
<event>
 6    1  0.1956957E-002  0.3000000E+03  0.7818608E-02  0.1093470E+00
          1   -1    0    0  502    0  0.00000000000E+00  0.00000000000E+00  0.10874515586E+01  0.10874515586E+01  0.00000000000E+00 0.  1.
         13   -1    0    0    0    0 -0.00000000000E+00 -0.00000000000E+00 -0.10000000000E+04  0.10000000000E+04  0.00000000000E+00 0.  1.
    9000005    2    1    2  501    0  0.26459566374E+02  0.18568894070E+02 -0.59351662768E+03  0.59440481725E+03  0.31917010264E+01 0.  0.
         13    1    3    3    0    0  0.23857238035E+02  0.17789611308E+02 -0.54058299800E+03  0.54140152919E+03  0.00000000000E+00 0.  1.
          1    1    3    3  501    0  0.26023283390E+01  0.77928276252E+00 -0.52933629674E+02  0.53003288058E+02  0.00000000000E+00 0.  1.
         21    1    1    2  502  501 -0.26459566374E+02 -0.18568894070E+02 -0.40539592076E+03  0.40668263431E+03  0.00000000000E+00 0.  1.
<mgrwt>
<rscale>  1 0.30000000E+03</rscale>
<asrwt>0</asrwt>
<pdfrwt beam="1">  1        1 0.39543776E-02 0.30000000E+03</pdfrwt>
<pdfrwt beam="2">0</pdfrwt>
<totfact> 0.27672866E+03</totfact>
</mgrwt>
</event>
<event>
 6    1  0.1956957E-002  0.3000000E+03  0.7818608E-02  0.1093470E+00
          3   -1    0    0  502    0  0.00000000000E+00  0.00000000000E+00  0.29623058412E+01  0.29623058412E+01  0.00000000000E+00 0.  1.
         13   -1    0    0    0    0 -0.00000000000E+00 -0.00000000000E+00 -0.10000000000E+04  0.10000000000E+04  0.00000000000E+00 0.  1.
    9000005    2    1    2  501    0  0.31866989767E+02  0.84727094194E+01 -0.89734329868E+03  0.89795628539E+03  0.36335848192E+01 0.  0.
         13    1    3    3    0    0  0.17600317059E+02  0.51222463888E+01 -0.54558573119E+03  0.54589357814E+03  0.00000000000E+00 0.  1.
          1    1    3    3  501    0  0.14266672708E+02  0.33504630306E+01 -0.35175756748E+03  0.35206270725E+03  0.00000000000E+00 0.  1.
         21    1    1    2  502  501 -0.31866989767E+02 -0.84727094194E+01 -0.99694395480E+02  0.10500602045E+03  0.00000000000E+00 0.  1.
<mgrwt>
<rscale>  1 0.30000000E+03</rscale>
<asrwt>0</asrwt>
<pdfrwt beam="1">  1        3 0.10772044E-01 0.30000000E+03</pdfrwt>
<pdfrwt beam="2">0</pdfrwt>
<totfact> 0.29195590E+02</totfact>
</mgrwt>
</event>
<event>
 6    1  0.1956957E-002  0.3000000E+03  0.7818608E-02  0.1093470E+00
          1   -1    0    0  502    0  0.00000000000E+00  0.00000000000E+00  0.24180596897E+01  0.24180596897E+01  0.00000000000E+00 0.  1.
         13   -1    0    0    0    0 -0.00000000000E+00 -0.00000000000E+00 -0.10000000000E+04  0.10000000000E+04  0.00000000000E+00 0.  1.
    9000005    2    1    2  501    0  0.24543611221E+02 -0.19641699566E+02 -0.88404099539E+03  0.88460578789E+03  0.32761595512E+01 0.  0.
         13    1    3    3    0    0  0.19611546587E+02 -0.14340541169E+02 -0.70471864968E+03  0.70513731931E+03  0.00000000000E+00 0.  1.
          1    1    3    3  501    0  0.49320646341E+01 -0.53011583975E+01 -0.17932234572E+03  0.17946846858E+03  0.00000000000E+00 0.  1.
         21    1    1    2  502  501 -0.24543611221E+02  0.19641699566E+02 -0.11354094492E+03  0.11781227180E+03  0.00000000000E+00 0.  1.
<mgrwt>
<rscale>  1 0.30000000E+03</rscale>
<asrwt>0</asrwt>
<pdfrwt beam="1">  1        1 0.87929629E-02 0.30000000E+03</pdfrwt>
<pdfrwt beam="2">0</pdfrwt>
<totfact> 0.90306324E+02</totfact>
</mgrwt>
</event>
<event>
 6    1  0.1956957E-002  0.3000000E+03  0.7818608E-02  0.1093470E+00
          1   -1    0    0  502    0  0.00000000000E+00  0.00000000000E+00  0.11571454274E+01  0.11571454274E+01  0.00000000000E+00 0.  1.
         13   -1    0    0    0    0 -0.00000000000E+00 -0.00000000000E+00 -0.10000000000E+04  0.10000000000E+04  0.00000000000E+00 0.  1.
    9000005    2    1    2  501    0  0.28221697047E+02 -0.18466788050E+02 -0.55721691570E+03  0.55824523959E+03  0.30935320528E+01 0.  0.
         13    1    3    3    0    0  0.92865007380E+01 -0.70660482712E+01 -0.21307382722E+03  0.21339312075E+03  0.00000000000E+00 0.  1.
          1    1    3    3  501    0  0.18935196309E+02 -0.11400739779E+02 -0.34414308848E+03  0.34485211885E+03  0.00000000000E+00 0.  1.
         21    1    1    2  502  501 -0.28221697047E+02  0.18466788050E+02 -0.44162593887E+03  0.44291190583E+03  0.00000000000E+00 0.  1.
<mgrwt>
<rscale>  1 0.30000000E+03</rscale>
<asrwt>0</asrwt>
<pdfrwt beam="1">  1        1 0.42078104E-02 0.30000000E+03</pdfrwt>
<pdfrwt beam="2">0</pdfrwt>
<totfact> 0.25355360E+03</totfact>
</mgrwt>
</event>
<event>
 6    1  0.1956957E-002  0.3000000E+03  0.7818608E-02  0.1093470E+00
          1   -1    0    0  502    0  0.00000000000E+00  0.00000000000E+00  0.14299567622E+01  0.14299567622E+01  0.00000000000E+00 0.  1.
         13   -1    0    0    0    0 -0.00000000000E+00 -0.00000000000E+00 -0.10000000000E+04  0.10000000000E+04  0.00000000000E+00 0.  1.
    9000005    2    1    2  501    0  0.10977895244E+02 -0.33916132968E+02 -0.33794788001E+03  0.33984665830E+03  0.40203598453E+01 0.  0.
         13    1    3    3    0    0  0.31708605202E+01 -0.10650310770E+02 -0.12359609442E+03  0.12409463337E+03  0.00000000000E+00 0.  1.
          1    1    3    3  501    0  0.78070347238E+01 -0.23265822198E+02 -0.21435178559E+03  0.21575202493E+03  0.00000000000E+00 0.  1.
         21    1    1    2  502  501 -0.10977895244E+02  0.33916132968E+02 -0.66062216323E+03  0.66158329846E+03  0.00000000000E+00 0.  1.
<mgrwt>
<rscale>  1 0.30000000E+03</rscale>
<asrwt>0</asrwt>
<pdfrwt beam="1">  1        1 0.51998537E-02 0.30000000E+03</pdfrwt>
<pdfrwt beam="2">0</pdfrwt>
<totfact> 0.18825682E+03</totfact>
</mgrwt>
</event>
<event>
 6    1  0.1956957E-002  0.3000000E+03  0.7818608E-02  0.1093470E+00
          3   -1    0    0  502    0  0.00000000000E+00  0.00000000000E+00  0.17748361012E+01  0.17748361012E+01  0.00000000000E+00 0.  1.
         13   -1    0    0    0    0 -0.00000000000E+00 -0.00000000000E+00 -0.10000000000E+04  0.10000000000E+04  0.00000000000E+00 0.  1.
    9000005    2    1    2  501    0 -0.20248698068E+02  0.32309151336E+02 -0.71057900618E+03  0.71161246245E+03  0.39851793190E+01 0.  0.
         13    1    3    3    0    0 -0.12586790760E+02  0.17574523369E+02 -0.42864498201E+03  0.42918971536E+03  0.00000000000E+00 0.  1.
          3    1    3    3  501    0 -0.76619073084E+01  0.14734627967E+02 -0.28193402417E+03  0.28242274709E+03  0.00000000000E+00 0.  1.
         21    1    1    2  502  501  0.20248698068E+02 -0.32309151336E+02 -0.28764615772E+03  0.29016237365E+03  0.00000000000E+00 0.  1.
<mgrwt>
<rscale>  1 0.30000000E+03</rscale>
<asrwt>0</asrwt>
<pdfrwt beam="1">  1        3 0.64539631E-02 0.30000000E+03</pdfrwt>
<pdfrwt beam="2">0</pdfrwt>
<totfact> 0.66540481E+02</totfact>
</mgrwt>
</event>
<event>
 6    1  0.1956957E-002  0.3000000E+03  0.7818608E-02  0.1093470E+00
          1   -1    0    0  502    0  0.00000000000E+00  0.00000000000E+00  0.24635984529E+02  0.24635984529E+02  0.00000000000E+00 0.  1.
         13   -1    0    0    0    0 -0.00000000000E+00 -0.00000000000E+00 -0.10000000000E+04  0.10000000000E+04  0.00000000000E+00 0.  1.
    9000005    2    1    2  501    0 -0.85002378401E+02 -0.38312464346E+02 -0.89979883435E+03  0.90462204427E+03  0.31386982461E+01 0.  0.
         13    1    3    3    0    0 -0.36335701756E+02 -0.17958798083E+02 -0.38530364671E+03  0.38742960886E+03  0.00000000000E+00 0.  1.
          1    1    3    3  501    0 -0.48666676646E+02 -0.20353666263E+02 -0.51449518764E+03  0.51719243542E+03  0.00000000000E+00 0.  1.
         21    1    1    2  502  501  0.85002378401E+02  0.38312464346E+02 -0.75565181121E+02  0.12001394026E+03  0.00000000000E+00 0.  1.
<mgrwt>
<rscale>  1 0.30000000E+03</rscale>
<asrwt>0</asrwt>
<pdfrwt beam="1">  1        1 0.89585587E-01 0.30000000E+03</pdfrwt>
<pdfrwt beam="2">0</pdfrwt>
<totfact> 0.40093181E+01</totfact>
</mgrwt>
</event>
<event>
 6    1  0.1956957E-002  0.3000000E+03  0.7818608E-02  0.1093470E+00
          1   -1    0    0  502    0  0.00000000000E+00  0.00000000000E+00  0.25442487965E+01  0.25442487965E+01  0.00000000000E+00 0.  1.
         13   -1    0    0    0    0 -0.00000000000E+00 -0.00000000000E+00 -0.10000000000E+04  0.10000000000E+04  0.00000000000E+00 0.  1.
    9000005    2    1    2  501    0  0.69716216197E+01 -0.49455981170E+02 -0.56483396982E+03  0.56704900967E+03  0.35592575452E+01 0.  0.
         13    1    3    3    0    0  0.36412109862E+01 -0.15940923478E+02 -0.17412833990E+03  0.17489439732E+03  0.00000000000E+00 0.  1.
          1    1    3    3  501    0  0.33304106336E+01 -0.33515057692E+02 -0.39070562993E+03  0.39215461235E+03  0.00000000000E+00 0.  1.
         21    1    1    2  502  501 -0.69716216197E+01  0.49455981170E+02 -0.43262178138E+03  0.43549523913E+03  0.00000000000E+00 0.  1.
<mgrwt>
<rscale>  1 0.30000000E+03</rscale>
<asrwt>0</asrwt>
<pdfrwt beam="1">  1        1 0.92518333E-02 0.30000000E+03</pdfrwt>
<pdfrwt beam="2">0</pdfrwt>
<totfact> 0.84156127E+02</totfact>
</mgrwt>
</event>
<event>
 6    1  0.1956957E-002  0.3000000E+03  0.7818608E-02  0.1093470E+00
          3   -1    0    0  502    0  0.00000000000E+00  0.00000000000E+00  0.99261960684E+00  0.99261960684E+00  0.00000000000E+00 0.  1.
         13   -1    0    0    0    0 -0.00000000000E+00 -0.00000000000E+00 -0.10000000000E+04  0.10000000000E+04  0.00000000000E+00 0.  1.
    9000005    2    1    2  501    0  0.14585499032E+02  0.26653336576E+02 -0.57707937852E+03  0.57797208122E+03  0.10391362943E+02 0.  0.
         13    1    3    3    0    0  0.63188733648E+01  0.33203795367E+01 -0.10316873900E+03  0.10341538468E+03  0.00000000000E+00 0.  1.
          1    1    3    3  501    0  0.82666256673E+01  0.23332957039E+02 -0.47391063952E+03  0.47455669655E+03  0.00000000000E+00 0.  1.
         21    1    1    2  502  501 -0.14585499032E+02 -0.26653336576E+02 -0.42192800187E+03  0.42302053838E+03  0.00000000000E+00 0.  1.
<mgrwt>
<rscale>  1 0.30000000E+03</rscale>
<asrwt>0</asrwt>
<pdfrwt beam="1">  1        3 0.36095335E-02 0.30000000E+03</pdfrwt>
<pdfrwt beam="2">0</pdfrwt>
<totfact> 0.16341315E+03</totfact>
</mgrwt>
</event>
<event>
 6    1  0.1956957E-002  0.3000000E+03  0.7818608E-02  0.1093470E+00
          3   -1    0    0  502    0  0.00000000000E+00  0.00000000000E+00  0.24693318337E+01  0.24693318337E+01  0.00000000000E+00 0.  1.
         13   -1    0    0    0    0 -0.00000000000E+00 -0.00000000000E+00 -0.10000000000E+04  0.10000000000E+04  0.00000000000E+00 0.  1.
    9000005    2    1    2  501    0  0.43565574746E+02 -0.28958286252E+01 -0.73754647073E+03  0.73884435570E+03  0.31369305198E+01 0.  0.
         13    1    3    3    0    0  0.53266702462E+01 -0.13894754228E+01 -0.94225962734E+02  0.94386630998E+02  0.00000000000E+00 0.  1.
          1    1    3    3  501    0  0.38238904499E+02 -0.15063532024E+01 -0.64332050800E+03  0.64445772470E+03  0.00000000000E+00 0.  1.
         21    1    1    2  502  501 -0.43565574746E+02  0.28958286252E+01 -0.25998419744E+03  0.26362497614E+03  0.00000000000E+00 0.  1.
<mgrwt>
<rscale>  1 0.30000000E+03</rscale>
<asrwt>0</asrwt>
<pdfrwt beam="1">  1        3 0.89794074E-02 0.30000000E+03</pdfrwt>
<pdfrwt beam="2">0</pdfrwt>
<totfact> 0.39367124E+02</totfact>
</mgrwt>
</event>
<event>
 6    1  0.1956957E-002  0.3000000E+03  0.7818608E-02  0.1093470E+00
          1   -1    0    0  502    0  0.00000000000E+00  0.00000000000E+00  0.17766280246E+01  0.17766280246E+01  0.00000000000E+00 0.  1.
         13   -1    0    0    0    0 -0.00000000000E+00 -0.00000000000E+00 -0.10000000000E+04  0.10000000000E+04  0.00000000000E+00 0.  1.
    9000005    2    1    2  501    0 -0.23142247237E+01  0.35721468090E+02 -0.76282891976E+03  0.76367596223E+03  0.34110915529E+01 0.  0.
         13    1    3    3    0    0 -0.18837576478E+01  0.76612435084E+01 -0.16190706954E+03  0.16209917446E+03  0.00000000000E+00 0.  1.
          1    1    3    3  501    0 -0.43046707591E+00  0.28060224581E+02 -0.60092185022E+03  0.60157678777E+03  0.00000000000E+00 0.  1.
         21    1    1    2  502  501  0.23142247237E+01 -0.35721468090E+02 -0.23539445222E+03  0.23810066580E+03  0.00000000000E+00 0.  1.
<mgrwt>
<rscale>  1 0.30000000E+03</rscale>
<asrwt>0</asrwt>
<pdfrwt beam="1">  1        1 0.64604792E-02 0.30000000E+03</pdfrwt>
<pdfrwt beam="2">0</pdfrwt>
<totfact> 0.13882207E+03</totfact>
</mgrwt>
</event>
<event>
 6    1  0.1956957E-002  0.3000000E+03  0.7818608E-02  0.1093470E+00
          3   -1    0    0  502    0  0.00000000000E+00  0.00000000000E+00  0.16478675570E+02  0.16478675570E+02  0.00000000000E+00 0.  1.
         13   -1    0    0    0    0 -0.00000000000E+00 -0.00000000000E+00 -0.10000000000E+04  0.10000000000E+04  0.00000000000E+00 0.  1.
    9000005    2    1    2  501    0 -0.12701190154E+02 -0.43426558847E+02 -0.96737633793E+03  0.96843862110E+03  0.30327215589E+01 0.  0.
         13    1    3    3    0    0 -0.67064391353E+01 -0.28057363050E+02 -0.61034897986E+03  0.61103033408E+03  0.00000000000E+00 0.  1.
          3    1    3    3  501    0 -0.59947510188E+01 -0.15369195797E+02 -0.35702735807E+03  0.35740828702E+03  0.00000000000E+00 0.  1.
         21    1    1    2  502  501  0.12701190154E+02  0.43426558847E+02 -0.16144986499E+02  0.48040054472E+02  0.00000000000E+00 0.  1.
<mgrwt>
<rscale>  1 0.30000000E+03</rscale>
<asrwt>0</asrwt>
<pdfrwt beam="1">  1        3 0.59922583E-01 0.30000000E+03</pdfrwt>
<pdfrwt beam="2">0</pdfrwt>
<totfact> 0.12226967E+01</totfact>
</mgrwt>
</event>
<event>
 6    1  0.1956957E-002  0.3000000E+03  0.7818608E-02  0.1093470E+00
          1   -1    0    0  502    0  0.00000000000E+00  0.00000000000E+00  0.18468376996E+01  0.18468376996E+01  0.00000000000E+00 0.  1.
         13   -1    0    0    0    0 -0.00000000000E+00 -0.00000000000E+00 -0.10000000000E+04  0.10000000000E+04  0.00000000000E+00 0.  1.
    9000005    2    1    2  501    0  0.42202179986E+01 -0.42039870689E+02 -0.58808384974E+03  0.58960661395E+03  0.28607567801E+01 0.  0.
         13    1    3    3    0    0 -0.16739946519E+00 -0.10811421280E+02 -0.14996823843E+03  0.15035753188E+03  0.00000000000E+00 0.  1.
          1    1    3    3  501    0  0.43876174638E+01 -0.31228449410E+02 -0.43811561130E+03  0.43924908208E+03  0.00000000000E+00 0.  1.
         21    1    1    2  502  501 -0.42202179986E+01  0.42039870689E+02 -0.41006931256E+03  0.41224022375E+03  0.00000000000E+00 0.  1.
<mgrwt>
<rscale>  1 0.30000000E+03</rscale>
<asrwt>0</asrwt>
<pdfrwt beam="1">  1        1 0.67157876E-02 0.30000000E+03</pdfrwt>
<pdfrwt beam="2">0</pdfrwt>
<totfact> 0.13148893E+03</totfact>
</mgrwt>
</event>
<event>
 6    1  0.1956957E-002  0.3000000E+03  0.7818608E-02  0.1093470E+00
          1   -1    0    0  502    0  0.00000000000E+00  0.00000000000E+00  0.93014529100E+01  0.93014529100E+01  0.00000000000E+00 0.  1.
         13   -1    0    0    0    0 -0.00000000000E+00 -0.00000000000E+00 -0.10000000000E+04  0.10000000000E+04  0.00000000000E+00 0.  1.
    9000005    2    1    2  501    0  0.43891923149E+02 -0.35375628906E+01 -0.94430795404E+03  0.94533972692E+03  0.32667944688E+01 0.  0.
         13    1    3    3    0    0  0.34616788773E+02 -0.41129474029E+01 -0.74922766113E+03  0.75003821677E+03  0.00000000000E+00 0.  1.
          3    1    3    3  501    0  0.92751343759E+01  0.57538451227E+00 -0.19508029291E+03  0.19530151015E+03  0.00000000000E+00 0.  1.
         21    1    1    2  502  501 -0.43891923149E+02  0.35375628906E+01 -0.46390593046E+02  0.63961725994E+02  0.00000000000E+00 0.  1.
<mgrwt>
<rscale>  1 0.30000000E+03</rscale>
<asrwt>0</asrwt>
<pdfrwt beam="1">  1        1 0.33823536E-01 0.30000000E+03</pdfrwt>
<pdfrwt beam="2">0</pdfrwt>
<totfact> 0.14715734E+02</totfact>
</mgrwt>
</event>
<event>
 6    1  0.1956957E-002  0.3000000E+03  0.7818608E-02  0.1093470E+00
          1   -1    0    0  502    0  0.00000000000E+00  0.00000000000E+00  0.14681254792E+01  0.14681254792E+01  0.00000000000E+00 0.  1.
         13   -1    0    0    0    0 -0.00000000000E+00 -0.00000000000E+00 -0.10000000000E+04  0.10000000000E+04  0.00000000000E+00 0.  1.
    9000005    2    1    2  501    0  0.12428861623E+02  0.31819501641E+02 -0.72220542226E+03  0.72303812440E+03  0.60415310835E+01 0.  0.
         13    1    3    3    0    0  0.11295968225E+01  0.42973691706E+01 -0.14310763300E+03  0.14317659722E+03  0.00000000000E+00 0.  1.
          3    1    3    3  501    0  0.11299264800E+02  0.27522132471E+02 -0.57909778927E+03  0.57986152717E+03  0.00000000000E+00 0.  1.
         21    1    1    2  502  501 -0.12428861623E+02 -0.31819501641E+02 -0.27632645226E+03  0.27843000108E+03  0.00000000000E+00 0.  1.
<mgrwt>
<rscale>  1 0.30000000E+03</rscale>
<asrwt>0</asrwt>
<pdfrwt beam="1">  1        1 0.53386494E-02 0.30000000E+03</pdfrwt>
<pdfrwt beam="2">0</pdfrwt>
<totfact> 0.18141772E+03</totfact>
</mgrwt>
</event>
<event>
 6    1  0.1956957E-002  0.3000000E+03  0.7818608E-02  0.1093470E+00
          1   -1    0    0  502    0  0.00000000000E+00  0.00000000000E+00  0.50911332738E+01  0.50911332738E+01  0.00000000000E+00 0.  1.
         13   -1    0    0    0    0 -0.00000000000E+00 -0.00000000000E+00 -0.10000000000E+04  0.10000000000E+04  0.00000000000E+00 0.  1.
    9000005    2    1    2  501    0  0.22533643281E+02 -0.21644470898E+02 -0.94921142062E+03  0.94973316383E+03  0.38096258022E+01 0.  0.
         13    1    3    3    0    0  0.18169133007E+02 -0.18480803786E+02 -0.81974042755E+03  0.82015000218E+03  0.00000000000E+00 0.  1.
          1    1    3    3  501    0  0.43645102748E+01 -0.31636671115E+01 -0.12947099307E+03  0.12958316166E+03  0.00000000000E+00 0.  1.
         21    1    1    2  502  501 -0.22533643281E+02  0.21644470898E+02 -0.45697446106E+02  0.55357969441E+02  0.00000000000E+00 0.  1.
<mgrwt>
<rscale>  1 0.30000000E+03</rscale>
<asrwt>0</asrwt>
<pdfrwt beam="1">  1        1 0.18513251E-01 0.30000000E+03</pdfrwt>
<pdfrwt beam="2">0</pdfrwt>
<totfact> 0.32651918E+02</totfact>
</mgrwt>
</event>
<event>
 6    1  0.1956957E-002  0.3000000E+03  0.7818608E-02  0.1093470E+00
          1   -1    0    0  502    0  0.00000000000E+00  0.00000000000E+00  0.10516247385E+01  0.10516247385E+01  0.00000000000E+00 0.  1.
         13   -1    0    0    0    0 -0.00000000000E+00 -0.00000000000E+00 -0.10000000000E+04  0.10000000000E+04  0.00000000000E+00 0.  1.
    9000005    2    1    2  501    0  0.20110242426E+02  0.22450596307E+02 -0.68259778809E+03  0.68326845160E+03  0.27541830668E+01 0.  0.
         13    1    3    3    0    0  0.19669759157E+02  0.21732487324E+02 -0.65121223044E+03  0.65187158974E+03  0.00000000000E+00 0.  1.
          3    1    3    3  501    0  0.44048326831E+00  0.71810898297E+00 -0.31385557649E+02  0.31396861865E+02  0.00000000000E+00 0.  1.
         21    1    1    2  502  501 -0.20110242426E+02 -0.22450596307E+02 -0.31635058717E+03  0.31778317314E+03  0.00000000000E+00 0.  1.
<mgrwt>
<rscale>  1 0.30000000E+03</rscale>
<asrwt>0</asrwt>
<pdfrwt beam="1">  1        1 0.38240980E-02 0.30000000E+03</pdfrwt>
<pdfrwt beam="2">0</pdfrwt>
<totfact> 0.29009224E+03</totfact>
</mgrwt>
</event>
<event>
 6    1  0.1956957E-002  0.3000000E+03  0.7818608E-02  0.1093470E+00
          1   -1    0    0  502    0  0.00000000000E+00  0.00000000000E+00  0.27587577718E+01  0.27587577718E+01  0.00000000000E+00 0.  1.
         13   -1    0    0    0    0 -0.00000000000E+00 -0.00000000000E+00 -0.10000000000E+04  0.10000000000E+04  0.00000000000E+00 0.  1.
    9000005    2    1    2  501    0 -0.31035924378E+02  0.27662826067E+02 -0.80465083799E+03  0.80573204802E+03  0.35639293949E+01 0.  0.
         13    1    3    3    0    0 -0.20917945494E+01  0.93684270945E+00 -0.52909476676E+02  0.52959097432E+02  0.00000000000E+00 0.  1.
          1    1    3    3  501    0 -0.28944129829E+02  0.26725983357E+02 -0.75174136131E+03  0.75277295059E+03  0.00000000000E+00 0.  1.
         21    1    1    2  502  501  0.31035924378E+02 -0.27662826067E+02 -0.19259040424E+03  0.19702670975E+03  0.00000000000E+00 0.  1.
<mgrwt>
<rscale>  1 0.30000000E+03</rscale>
<asrwt>0</asrwt>
<pdfrwt beam="1">  1        1 0.10031868E-01 0.30000000E+03</pdfrwt>
<pdfrwt beam="2">0</pdfrwt>
<totfact> 0.75242480E+02</totfact>
</mgrwt>
</event>
<event>
 6    1  0.1956957E-002  0.3000000E+03  0.7818608E-02  0.1093470E+00
          1   -1    0    0  502    0  0.00000000000E+00  0.00000000000E+00  0.94589989012E+01  0.94589989012E+01  0.00000000000E+00 0.  1.
         13   -1    0    0    0    0 -0.00000000000E+00 -0.00000000000E+00 -0.10000000000E+04  0.10000000000E+04  0.00000000000E+00 0.  1.
    9000005    2    1    2  501    0  0.99323429565E+01 -0.28612582118E+02 -0.97488867935E+03  0.97536608955E+03  0.37067809624E+01 0.  0.
         13    1    3    3    0    0  0.78676156793E+01 -0.26092302981E+02 -0.86667332222E+03  0.86710169825E+03  0.00000000000E+00 0.  1.
          1    1    3    3  501    0  0.20647272772E+01 -0.25202791367E+01 -0.10821535712E+03  0.10826439130E+03  0.00000000000E+00 0.  1.
         21    1    1    2  502  501 -0.99323429565E+01  0.28612582118E+02 -0.15652321751E+02  0.34092909355E+02  0.00000000000E+00 0.  1.
<mgrwt>
<rscale>  1 0.30000000E+03</rscale>
<asrwt>0</asrwt>
<pdfrwt beam="1">  1        1 0.34396432E-01 0.30000000E+03</pdfrwt>
<pdfrwt beam="2">0</pdfrwt>
<totfact> 0.14395886E+02</totfact>
</mgrwt>
</event>
<event>
 6    1  0.1956957E-002  0.3000000E+03  0.7818608E-02  0.1093470E+00
          3   -1    0    0  502    0  0.00000000000E+00  0.00000000000E+00  0.15078532733E+01  0.15078532733E+01  0.00000000000E+00 0.  1.
         13   -1    0    0    0    0 -0.00000000000E+00 -0.00000000000E+00 -0.10000000000E+04  0.10000000000E+04  0.00000000000E+00 0.  1.
    9000005    2    1    2  501    0 -0.32942208662E+02  0.94624651444E+01 -0.72930309675E+03  0.73014560095E+03  0.74070439904E+01 0.  0.
         13    1    3    3    0    0 -0.26307950371E+02  0.10479990246E+02 -0.60199377740E+03  0.60265947805E+03  0.00000000000E+00 0.  1.
          1    1    3    3  501    0 -0.66342582909E+01 -0.10175251015E+01 -0.12730931935E+03  0.12748612291E+03  0.00000000000E+00 0.  1.
         21    1    1    2  502  501  0.32942208662E+02 -0.94624651444E+01 -0.26918904998E+03  0.27136225232E+03  0.00000000000E+00 0.  1.
<mgrwt>
<rscale>  1 0.30000000E+03</rscale>
<asrwt>0</asrwt>
<pdfrwt beam="1">  1        3 0.54831144E-02 0.30000000E+03</pdfrwt>
<pdfrwt beam="2">0</pdfrwt>
<totfact> 0.85788433E+02</totfact>
</mgrwt>
</event>
<event>
 6    1  0.1956957E-002  0.3000000E+03  0.7818608E-02  0.1093470E+00
          1   -1    0    0  502    0  0.00000000000E+00  0.00000000000E+00  0.12534039089E+01  0.12534039089E+01  0.00000000000E+00 0.  1.
         13   -1    0    0    0    0 -0.00000000000E+00 -0.00000000000E+00 -0.10000000000E+04  0.10000000000E+04  0.00000000000E+00 0.  1.
    9000005    2    1    2  501    0  0.10977137034E+02  0.28467844561E+02 -0.75194271148E+03  0.75257072825E+03  0.37341621060E+01 0.  0.
         13    1    3    3    0    0  0.67119683232E+01  0.20585921998E+02 -0.56133503129E+03  0.56175247935E+03  0.00000000000E+00 0.  1.
          1    1    3    3  501    0  0.42651687104E+01  0.78819225634E+01 -0.19060768019E+03  0.19081824890E+03  0.00000000000E+00 0.  1.
         21    1    1    2  502  501 -0.10977137034E+02 -0.28467844561E+02 -0.24680388462E+03  0.24868267566E+03  0.00000000000E+00 0.  1.
<mgrwt>
<rscale>  1 0.30000000E+03</rscale>
<asrwt>0</asrwt>
<pdfrwt beam="1">  1        1 0.45578420E-02 0.30000000E+03</pdfrwt>
<pdfrwt beam="2">0</pdfrwt>
<totfact> 0.22657914E+03</totfact>
</mgrwt>
</event>
<event>
 6    1  0.1956957E-002  0.3000000E+03  0.7818608E-02  0.1093470E+00
          3   -1    0    0  502    0  0.00000000000E+00  0.00000000000E+00  0.40517700897E+01  0.40517700897E+01  0.00000000000E+00 0.  1.
         13   -1    0    0    0    0 -0.00000000000E+00 -0.00000000000E+00 -0.10000000000E+04  0.10000000000E+04  0.00000000000E+00 0.  1.
    9000005    2    1    2  501    0 -0.63138268470E+01 -0.34376867715E+02 -0.91739437833E+03  0.91807304573E+03  0.49029045042E+01 0.  0.
         13    1    3    3    0    0 -0.29909274939E+01 -0.26138937626E+02 -0.65424378598E+03  0.65477257212E+03  0.00000000000E+00 0.  1.
          1    1    3    3  501    0 -0.33228993530E+01 -0.82379300890E+01 -0.26315059234E+03  0.26330047361E+03  0.00000000000E+00 0.  1.
         21    1    1    2  502  501  0.63138268470E+01  0.34376867715E+02 -0.78553851583E+02  0.85978724356E+02  0.00000000000E+00 0.  1.
<mgrwt>
<rscale>  1 0.30000000E+03</rscale>
<asrwt>0</asrwt>
<pdfrwt beam="1">  1        3 0.14733740E-01 0.30000000E+03</pdfrwt>
<pdfrwt beam="2">0</pdfrwt>
<totfact> 0.17168179E+02</totfact>
</mgrwt>
</event>
<event>
 6    1  0.1956957E-002  0.3000000E+03  0.7818608E-02  0.1093470E+00
          1   -1    0    0  502    0  0.00000000000E+00  0.00000000000E+00  0.30428932733E+01  0.30428932733E+01  0.00000000000E+00 0.  1.
         13   -1    0    0    0    0 -0.00000000000E+00 -0.00000000000E+00 -0.10000000000E+04  0.10000000000E+04  0.00000000000E+00 0.  1.
    9000005    2    1    2  501    0 -0.59619617014E+01 -0.53521875169E+02 -0.60551456030E+03  0.60791329015E+03  0.32479994893E+01 0.  0.
         13    1    3    3    0    0 -0.40212298013E+01 -0.29964565899E+02 -0.32324686421E+03  0.32465763616E+03  0.00000000000E+00 0.  1.
          3    1    3    3  501    0 -0.19407319001E+01 -0.23557309269E+02 -0.28226769609E+03  0.28325565399E+03  0.00000000000E+00 0.  1.
         21    1    1    2  502  501  0.59619617014E+01  0.53521875169E+02 -0.39144254643E+03  0.39512960312E+03  0.00000000000E+00 0.  1.
<mgrwt>
<rscale>  1 0.30000000E+03</rscale>
<asrwt>0</asrwt>
<pdfrwt beam="1">  1        1 0.11065090E-01 0.30000000E+03</pdfrwt>
<pdfrwt beam="2">0</pdfrwt>
<totfact> 0.65742152E+02</totfact>
</mgrwt>
</event>
<event>
 6    1  0.1956957E-002  0.3000000E+03  0.7818608E-02  0.1093470E+00
          3   -1    0    0  502    0  0.00000000000E+00  0.00000000000E+00  0.13545286995E+01  0.13545286995E+01  0.00000000000E+00 0.  1.
         13   -1    0    0    0    0 -0.00000000000E+00 -0.00000000000E+00 -0.10000000000E+04  0.10000000000E+04  0.00000000000E+00 0.  1.
    9000005    2    1    2  501    0 -0.15406392352E+02  0.33088580792E+02 -0.44720330709E+03  0.44870575092E+03  0.37204756086E+01 0.  0.
         13    1    3    3    0    0 -0.49172742362E+01  0.13202397594E+02 -0.19005268844E+03  0.19057415164E+03  0.00000000000E+00 0.  1.
          1    1    3    3  501    0 -0.10489118116E+02  0.19886183199E+02 -0.25715061864E+03  0.25813159928E+03  0.00000000000E+00 0.  1.
         21    1    1    2  502  501  0.15406392352E+02 -0.33088580792E+02 -0.55144216421E+03  0.55264877778E+03  0.00000000000E+00 0.  1.
<mgrwt>
<rscale>  1 0.30000000E+03</rscale>
<asrwt>0</asrwt>
<pdfrwt beam="1">  1        3 0.49255693E-02 0.30000000E+03</pdfrwt>
<pdfrwt beam="2">0</pdfrwt>
<totfact> 0.10125662E+03</totfact>
</mgrwt>
</event>
<event>
 6    1  0.1956957E-002  0.3000000E+03  0.7818608E-02  0.1093470E+00
          1   -1    0    0  502    0  0.00000000000E+00  0.00000000000E+00  0.10936831418E+01  0.10936831418E+01  0.00000000000E+00 0.  1.
         13   -1    0    0    0    0 -0.00000000000E+00 -0.00000000000E+00 -0.10000000000E+04  0.10000000000E+04  0.00000000000E+00 0.  1.
    9000005    2    1    2  501    0  0.11169042667E+02  0.28405734709E+02 -0.68997970306E+03  0.69066287605E+03  0.34035924219E+01 0.  0.
         13    1    3    3    0    0  0.68584511298E+01  0.13721639128E+02 -0.36835420609E+03  0.36867349087E+03  0.00000000000E+00 0.  1.
          3    1    3    3  501    0  0.43105915376E+01  0.14684095581E+02 -0.32162549697E+03  0.32198938517E+03  0.00000000000E+00 0.  1.
         21    1    1    2  502  501 -0.11169042667E+02 -0.28405734709E+02 -0.30892661380E+03  0.31043080709E+03  0.00000000000E+00 0.  1.
<mgrwt>
<rscale>  1 0.30000000E+03</rscale>
<asrwt>0</asrwt>
<pdfrwt beam="1">  1        1 0.39770380E-02 0.30000000E+03</pdfrwt>
<pdfrwt beam="2">0</pdfrwt>
<totfact> 0.27451133E+03</totfact>
</mgrwt>
</event>
<event>
 6    1  0.1956957E-002  0.3000000E+03  0.7818608E-02  0.1093470E+00
          3   -1    0    0  502    0  0.00000000000E+00  0.00000000000E+00  0.98510546394E+00  0.98510546394E+00  0.00000000000E+00 0.  1.
         13   -1    0    0    0    0 -0.00000000000E+00 -0.00000000000E+00 -0.10000000000E+04  0.10000000000E+04  0.00000000000E+00 0.  1.
    9000005    2    1    2  501    0  0.54892640862E+01 -0.30749386636E+02 -0.53188110387E+03  0.53280817825E+03  0.33748113273E+01 0.  0.
         13    1    3    3    0    0  0.42770880467E+01 -0.15276910273E+02 -0.25663617825E+03  0.25712604975E+03  0.00000000000E+00 0.  1.
          1    1    3    3  501    0  0.12121760395E+01 -0.15472476362E+02 -0.27524492562E+03  0.27568212850E+03  0.00000000000E+00 0.  1.
         21    1    1    2  502  501 -0.54892640862E+01  0.30749386636E+02 -0.46713379066E+03  0.46817692722E+03  0.00000000000E+00 0.  1.
<mgrwt>
<rscale>  1 0.30000000E+03</rscale>
<asrwt>0</asrwt>
<pdfrwt beam="1">  1        3 0.35822092E-02 0.30000000E+03</pdfrwt>
<pdfrwt beam="2">0</pdfrwt>
<totfact> 0.16534038E+03</totfact>
</mgrwt>
</event>
<event>
 6    1  0.1956957E-002  0.3000000E+03  0.7818608E-02  0.1093470E+00
          1   -1    0    0  502    0  0.00000000000E+00  0.00000000000E+00  0.38294869804E+01  0.38294869804E+01  0.00000000000E+00 0.  1.
         13   -1    0    0    0    0 -0.00000000000E+00 -0.00000000000E+00 -0.10000000000E+04  0.10000000000E+04  0.00000000000E+00 0.  1.
    9000005    2    1    2  501    0  0.47045750120E+02  0.39989462827E+02 -0.52587646594E+03  0.52949948534E+03  0.33448168700E+01 0.  0.
         13    1    3    3    0    0  0.18800352007E+01  0.13324962382E+01 -0.15078122834E+02  0.15253192019E+02  0.00000000000E+00 0.  1.
          1    1    3    3  501    0  0.45165714920E+02  0.38656966588E+02 -0.51079834311E+03  0.51424629332E+03  0.00000000000E+00 0.  1.
         21    1    1    2  502  501 -0.47045750120E+02 -0.39989462827E+02 -0.47029404708E+03  0.47433000164E+03  0.00000000000E+00 0.  1.
<mgrwt>
<rscale>  1 0.30000000E+03</rscale>
<asrwt>0</asrwt>
<pdfrwt beam="1">  1        1 0.13925437E-01 0.30000000E+03</pdfrwt>
<pdfrwt beam="2">0</pdfrwt>
<totfact> 0.47994016E+02</totfact>
</mgrwt>
</event>
<event>
 6    1  0.1956957E-002  0.3000000E+03  0.7818608E-02  0.1093470E+00
          1   -1    0    0  502    0  0.00000000000E+00  0.00000000000E+00  0.46198803483E+01  0.46198803483E+01  0.00000000000E+00 0.  1.
         13   -1    0    0    0    0 -0.00000000000E+00 -0.00000000000E+00 -0.10000000000E+04  0.10000000000E+04  0.00000000000E+00 0.  1.
    9000005    2    1    2  501    0  0.32840867150E+02  0.34480953914E+02 -0.85601762174E+03  0.85734678518E+03  0.31436572375E+01 0.  0.
         13    1    3    3    0    0  0.20466533610E+02  0.19610332169E+02 -0.52374895233E+03  0.52451540415E+03  0.00000000000E+00 0.  1.
          3    1    3    3  501    0  0.12374333540E+02  0.14870621745E+02 -0.33226866941E+03  0.33283138102E+03  0.00000000000E+00 0.  1.
         21    1    1    2  502  501 -0.32840867150E+02 -0.34480953914E+02 -0.13936249791E+03  0.14727309517E+03  0.00000000000E+00 0.  1.
<mgrwt>
<rscale>  1 0.30000000E+03</rscale>
<asrwt>0</asrwt>
<pdfrwt beam="1">  1        1 0.16799600E-01 0.30000000E+03</pdfrwt>
<pdfrwt beam="2">0</pdfrwt>
<totfact> 0.37211446E+02</totfact>
</mgrwt>
</event>
<event>
 6    1  0.1956957E-002  0.3000000E+03  0.7818608E-02  0.1093470E+00
          1   -1    0    0  502    0  0.00000000000E+00  0.00000000000E+00  0.43040858240E+01  0.43040858240E+01  0.00000000000E+00 0.  1.
         13   -1    0    0    0    0 -0.00000000000E+00 -0.00000000000E+00 -0.10000000000E+04  0.10000000000E+04  0.00000000000E+00 0.  1.
    9000005    2    1    2  501    0  0.17665167100E+02 -0.54958581877E+02 -0.73574781187E+03  0.73802318200E+03  0.45684397810E+01 0.  0.
         13    1    3    3    0    0  0.13159227805E+02 -0.45448090793E+02 -0.58735085601E+03  0.58925352972E+03  0.00000000000E+00 0.  1.
          3    1    3    3  501    0  0.45059392951E+01 -0.95104910837E+01 -0.14839695587E+03  0.14876965228E+03  0.00000000000E+00 0.  1.
         21    1    1    2  502  501 -0.17665167100E+02  0.54958581877E+02 -0.25994810230E+03  0.26628090382E+03  0.00000000000E+00 0.  1.
<mgrwt>
<rscale>  1 0.30000000E+03</rscale>
<asrwt>0</asrwt>
<pdfrwt beam="1">  1        1 0.15651254E-01 0.30000000E+03</pdfrwt>
<pdfrwt beam="2">0</pdfrwt>
<totfact> 0.40950458E+02</totfact>
</mgrwt>
</event>
<event>
 6    1  0.1956957E-002  0.3000000E+03  0.7818608E-02  0.1093470E+00
          3   -1    0    0  502    0  0.00000000000E+00  0.00000000000E+00  0.13556546123E+01  0.13556546123E+01  0.00000000000E+00 0.  1.
         13   -1    0    0    0    0 -0.00000000000E+00 -0.00000000000E+00 -0.10000000000E+04  0.10000000000E+04  0.00000000000E+00 0.  1.
    9000005    2    1    2  501    0 -0.24214380857E+02  0.22448658495E+02 -0.28072592501E+03  0.28267830223E+03  0.31143331247E+01 0.  0.
         13    1    3    3    0    0 -0.96981010524E+01  0.75283829625E+01 -0.11329248837E+03  0.11395577052E+03  0.00000000000E+00 0.  1.
          1    1    3    3  501    0 -0.14516279804E+02  0.14920275533E+02 -0.16743343664E+03  0.16872253171E+03  0.00000000000E+00 0.  1.
         21    1    1    2  502  501  0.24214380857E+02 -0.22448658495E+02 -0.71791842038E+03  0.71867735238E+03  0.00000000000E+00 0.  1.
<mgrwt>
<rscale>  1 0.30000000E+03</rscale>
<asrwt>0</asrwt>
<pdfrwt beam="1">  1        3 0.49296635E-02 0.30000000E+03</pdfrwt>
<pdfrwt beam="2">0</pdfrwt>
<totfact> 0.10112686E+03</totfact>
</mgrwt>
</event>
<event>
 6    1  0.1956957E-002  0.3000000E+03  0.7818608E-02  0.1093470E+00
          1   -1    0    0  502    0  0.00000000000E+00  0.00000000000E+00  0.25234433695E+01  0.25234433695E+01  0.00000000000E+00 0.  1.
         13   -1    0    0    0    0 -0.00000000000E+00 -0.00000000000E+00 -0.10000000000E+04  0.10000000000E+04  0.00000000000E+00 0.  1.
    9000005    2    1    2  501    0 -0.42193102568E+02 -0.15667121731E+01 -0.76579884485E+03  0.76702976059E+03  0.10201488701E+02 0.  0.
         13    1    3    3    0    0 -0.24625216998E+02  0.40629782914E+01 -0.42590185945E+03  0.42663251516E+03  0.00000000000E+00 0.  1.
          1    1    3    3  501    0 -0.17567885570E+02 -0.56296904645E+01 -0.33989698540E+03  0.34039724543E+03  0.00000000000E+00 0.  1.
         21    1    1    2  502  501  0.42193102568E+02  0.15667121731E+01 -0.23167771178E+03  0.23549368278E+03  0.00000000000E+00 0.  1.
<mgrwt>
<rscale>  1 0.30000000E+03</rscale>
<asrwt>0</asrwt>
<pdfrwt beam="1">  1        1 0.91761771E-02 0.30000000E+03</pdfrwt>
<pdfrwt beam="2">0</pdfrwt>
<totfact> 0.85119060E+02</totfact>
</mgrwt>
</event>
<event>
 6    1  0.1956957E-002  0.3000000E+03  0.7818608E-02  0.1093470E+00
          1   -1    0    0  502    0  0.00000000000E+00  0.00000000000E+00  0.22491589739E+01  0.22491589739E+01  0.00000000000E+00 0.  1.
         13   -1    0    0    0    0 -0.00000000000E+00 -0.00000000000E+00 -0.10000000000E+04  0.10000000000E+04  0.00000000000E+00 0.  1.
    9000005    2    1    2  501    0  0.27427841809E+02  0.21638237493E+02 -0.83733931080E+03  0.83807742311E+03  0.40181939137E+01 0.  0.
         13    1    3    3    0    0  0.22183225619E+02  0.19285142455E+02 -0.71135302116E+03  0.71196006414E+03  0.00000000000E+00 0.  1.
          3    1    3    3  501    0  0.52446161903E+01  0.23530950371E+01 -0.12598628964E+03  0.12611735896E+03  0.00000000000E+00 0.  1.
         21    1    1    2  502  501 -0.27427841809E+02 -0.21638237493E+02 -0.16041153023E+03  0.16417173587E+03  0.00000000000E+00 0.  1.
<mgrwt>
<rscale>  1 0.30000000E+03</rscale>
<asrwt>0</asrwt>
<pdfrwt beam="1">  1        1 0.81787772E-02 0.30000000E+03</pdfrwt>
<pdfrwt beam="2">0</pdfrwt>
<totfact> 0.99864603E+02</totfact>
</mgrwt>
</event>
<event>
 6    1  0.1956957E-002  0.3000000E+03  0.7818608E-02  0.1093470E+00
          1   -1    0    0  502    0  0.00000000000E+00  0.00000000000E+00  0.44413755705E+01  0.44413755705E+01  0.00000000000E+00 0.  1.
         13   -1    0    0    0    0 -0.00000000000E+00 -0.00000000000E+00 -0.10000000000E+04  0.10000000000E+04  0.00000000000E+00 0.  1.
    9000005    2    1    2  501    0  0.11090443236E+02  0.29027981806E+02 -0.94201619684E+03  0.94253488794E+03  0.34464781082E+01 0.  0.
         13    1    3    3    0    0  0.83837723177E+01  0.17607441680E+02 -0.60669787509E+03  0.60701122006E+03  0.00000000000E+00 0.  1.
          3    1    3    3  501    0  0.27066709187E+01  0.11420540126E+02 -0.33531832175E+03  0.33552366788E+03  0.00000000000E+00 0.  1.
         21    1    1    2  502  501 -0.11090443236E+02 -0.29027981806E+02 -0.53542427589E+02  0.61906487633E+02  0.00000000000E+00 0.  1.
<mgrwt>
<rscale>  1 0.30000000E+03</rscale>
<asrwt>0</asrwt>
<pdfrwt beam="1">  1        1 0.16150491E-01 0.30000000E+03</pdfrwt>
<pdfrwt beam="2">0</pdfrwt>
<totfact> 0.39246059E+02</totfact>
</mgrwt>
</event>
<event>
 6    1  0.1956957E-002  0.3000000E+03  0.7818608E-02  0.1093470E+00
          1   -1    0    0  502    0  0.00000000000E+00  0.00000000000E+00  0.64921836541E+02  0.64921836541E+02  0.00000000000E+00 0.  1.
         13   -1    0    0    0    0 -0.00000000000E+00 -0.00000000000E+00 -0.10000000000E+04  0.10000000000E+04  0.00000000000E+00 0.  1.
    9000005    2    1    2  501    0  0.44343046494E+01  0.62709368833E+02 -0.98352817616E+03  0.98555224710E+03  0.57819096160E+01 0.  0.
         13    1    3    3    0    0  0.33722745806E+01  0.59793441356E+02 -0.94742425513E+03  0.94931519901E+03  0.00000000000E+00 0.  1.
          1    1    3    3  501    0  0.10620300687E+01  0.29159274763E+01 -0.36103921030E+02  0.36237048095E+02  0.00000000000E+00 0.  1.
         21    1    1    2  502  501 -0.44343046494E+01 -0.62709368833E+02  0.48450012698E+02  0.79369589438E+02  0.00000000000E+00 0.  1.
<mgrwt>
<rscale>  1 0.30000000E+03</rscale>
<asrwt>0</asrwt>
<pdfrwt beam="1">  1        1 0.23607990E+00 0.30000000E+03</pdfrwt>
<pdfrwt beam="2">0</pdfrwt>
<totfact> 0.69310205E+00</totfact>
</mgrwt>
</event>
<event>
 6    1  0.1956957E-002  0.3000000E+03  0.7818608E-02  0.1093470E+00
          3   -1    0    0  502    0  0.00000000000E+00  0.00000000000E+00  0.23931046370E+01  0.23931046370E+01  0.00000000000E+00 0.  1.
         13   -1    0    0    0    0 -0.00000000000E+00 -0.00000000000E+00 -0.10000000000E+04  0.10000000000E+04  0.00000000000E+00 0.  1.
    9000005    2    1    2  501    0  0.35451989021E+02  0.26750538361E+02 -0.70806679613E+03  0.70946665672E+03  0.34517214367E+01 0.  0.
         13    1    3    3    0    0  0.14466933962E+02  0.12837526869E+02 -0.31974746921E+03  0.32033191901E+03  0.00000000000E+00 0.  1.
          3    1    3    3  501    0  0.20985055059E+02  0.13913011492E+02 -0.38831932692E+03  0.38913473770E+03  0.00000000000E+00 0.  1.
         21    1    1    2  502  501 -0.35451989021E+02 -0.26750538361E+02 -0.28954009923E+03  0.29292644792E+03  0.00000000000E+00 0.  1.
<mgrwt>
<rscale>  1 0.30000000E+03</rscale>
<asrwt>0</asrwt>
<pdfrwt beam="1">  1        3 0.87022170E-02 0.30000000E+03</pdfrwt>
<pdfrwt beam="2">0</pdfrwt>
<totfact> 0.41411240E+02</totfact>
</mgrwt>
</event>
<event>
 6    1  0.1956957E-002  0.3000000E+03  0.7818608E-02  0.1093470E+00
          3   -1    0    0  502    0  0.00000000000E+00  0.00000000000E+00  0.56245467323E+01  0.56245467323E+01  0.00000000000E+00 0.  1.
         13   -1    0    0    0    0 -0.00000000000E+00 -0.00000000000E+00 -0.10000000000E+04  0.10000000000E+04  0.00000000000E+00 0.  1.
    9000005    2    1    2  501    0  0.50111480430E+02 -0.26546687101E+02 -0.16895505298E+03  0.17825840996E+03  0.37899507799E+01 0.  0.
         13    1    3    3    0    0  0.31865121777E+02 -0.16004576531E+02 -0.11132326193E+03  0.11689482924E+03  0.00000000000E+00 0.  1.
          3    1    3    3  501    0  0.18246358653E+02 -0.10542110570E+02 -0.57631791047E+02  0.61363580719E+02  0.00000000000E+00 0.  1.
         21    1    1    2  502  501 -0.50111480430E+02  0.26546687101E+02 -0.82542040029E+03  0.82736613678E+03  0.00000000000E+00 0.  1.
<mgrwt>
<rscale>  1 0.30000000E+03</rscale>
<asrwt>0</asrwt>
<pdfrwt beam="1">  1        3 0.20452940E-01 0.30000000E+03</pdfrwt>
<pdfrwt beam="2">0</pdfrwt>
<totfact> 0.95954247E+01</totfact>
</mgrwt>
</event>
<event>
 6    1  0.1956957E-002  0.3000000E+03  0.7818608E-02  0.1093470E+00
          1   -1    0    0  502    0  0.00000000000E+00  0.00000000000E+00  0.80149411763E+01  0.80149411763E+01  0.00000000000E+00 0.  1.
         13   -1    0    0    0    0 -0.00000000000E+00 -0.00000000000E+00 -0.10000000000E+04  0.10000000000E+04  0.00000000000E+00 0.  1.
    9000005    2    1    2  501    0 -0.20349878959E+02  0.83264033704E+02 -0.64124321889E+03  0.64695143545E+03  0.25054311299E+01 0.  0.
         13    1    3    3    0    0 -0.12417025477E+02  0.45730375668E+02 -0.35197363118E+03  0.35514910507E+03  0.00000000000E+00 0.  1.
          1    1    3    3  501    0 -0.79328534819E+01  0.37533658036E+02 -0.28926958770E+03  0.29180233039E+03  0.00000000000E+00 0.  1.
         21    1    1    2  502  501  0.20349878959E+02 -0.83264033704E+02 -0.35074183994E+03  0.36106350572E+03  0.00000000000E+00 0.  1.
<mgrwt>
<rscale>  1 0.30000000E+03</rscale>
<asrwt>0</asrwt>
<pdfrwt beam="1">  1        1 0.29145302E-01 0.30000000E+03</pdfrwt>
<pdfrwt beam="2">0</pdfrwt>
<totfact> 0.17887347E+02</totfact>
</mgrwt>
</event>
<event>
 6    1  0.1956957E-002  0.3000000E+03  0.7818608E-02  0.1093470E+00
          1   -1    0    0  502    0  0.00000000000E+00  0.00000000000E+00  0.26131390745E+01  0.26131390745E+01  0.00000000000E+00 0.  1.
         13   -1    0    0    0    0 -0.00000000000E+00 -0.00000000000E+00 -0.10000000000E+04  0.10000000000E+04  0.00000000000E+00 0.  1.
    9000005    2    1    2  501    0  0.21774844988E+02  0.43266527320E+02 -0.65604860556E+03  0.65785533882E+03  0.52666588696E+01 0.  0.
         13    1    3    3    0    0  0.16563410610E+02  0.36383311392E+02 -0.55567352055E+03  0.55710964213E+03  0.00000000000E+00 0.  1.
          3    1    3    3  501    0  0.52114343782E+01  0.68832159283E+01 -0.10037508502E+03  0.10074569669E+03  0.00000000000E+00 0.  1.
         21    1    1    2  502  501 -0.21774844988E+02 -0.43266527320E+02 -0.34133825536E+03  0.34475780025E+03  0.00000000000E+00 0.  1.
<mgrwt>
<rscale>  1 0.30000000E+03</rscale>
<asrwt>0</asrwt>
<pdfrwt beam="1">  1        1 0.95023439E-02 0.30000000E+03</pdfrwt>
<pdfrwt beam="2">0</pdfrwt>
<totfact> 0.81099337E+02</totfact>
</mgrwt>
</event>
<event>
 6    1  0.1956957E-002  0.3000000E+03  0.7818608E-02  0.1093470E+00
          3   -1    0    0  502    0  0.00000000000E+00  0.00000000000E+00  0.18599492151E+01  0.18599492151E+01  0.00000000000E+00 0.  1.
         13   -1    0    0    0    0 -0.00000000000E+00 -0.00000000000E+00 -0.10000000000E+04  0.10000000000E+04  0.00000000000E+00 0.  1.
    9000005    2    1    2  501    0 -0.33303787130E+02 -0.13458634436E+02 -0.77570715313E+03  0.77654534464E+03  0.32875186451E+01 0.  0.
         13    1    3    3    0    0 -0.25406762467E+02 -0.94276784124E+01 -0.55783229933E+03  0.55849016005E+03  0.00000000000E+00 0.  1.
          3    1    3    3  501    0 -0.78970246630E+01 -0.40309560237E+01 -0.21787485380E+03  0.21805518459E+03  0.00000000000E+00 0.  1.
         21    1    1    2  502  501  0.33303787130E+02  0.13458634436E+02 -0.22243289765E+03  0.22531460458E+03  0.00000000000E+00 0.  1.
<mgrwt>
<rscale>  1 0.30000000E+03</rscale>
<asrwt>0</asrwt>
<pdfrwt beam="1">  1        3 0.67634660E-02 0.30000000E+03</pdfrwt>
<pdfrwt beam="2">0</pdfrwt>
<totfact> 0.61829142E+02</totfact>
</mgrwt>
</event>
<event>
 6    1  0.1956957E-002  0.3000000E+03  0.7818608E-02  0.1093470E+00
          3   -1    0    0  502    0  0.00000000000E+00  0.00000000000E+00  0.13583203935E+01  0.13583203935E+01  0.00000000000E+00 0.  1.
         13   -1    0    0    0    0 -0.00000000000E+00 -0.00000000000E+00 -0.10000000000E+04  0.10000000000E+04  0.00000000000E+00 0.  1.
    9000005    2    1    2  501    0 -0.18744197024E+02 -0.25731974078E+02 -0.75058206571E+03  0.75126423518E+03  0.33217892526E+01 0.  0.
         13    1    3    3    0    0 -0.14987806545E+02 -0.21079624776E+02 -0.63698622219E+03  0.63751112319E+03  0.00000000000E+00 0.  1.
          1    1    3    3  501    0 -0.37563904795E+01 -0.46523493026E+01 -0.11359584351E+03  0.11375311199E+03  0.00000000000E+00 0.  1.
         21    1    1    2  502  501  0.18744197024E+02  0.25731974078E+02 -0.24805961390E+03  0.25009408522E+03  0.00000000000E+00 0.  1.
<mgrwt>
<rscale>  1 0.30000000E+03</rscale>
<asrwt>0</asrwt>
<pdfrwt beam="1">  1        3 0.49393573E-02 0.30000000E+03</pdfrwt>
<pdfrwt beam="2">0</pdfrwt>
<totfact> 0.10082071E+03</totfact>
</mgrwt>
</event>
<event>
 6    1  0.1956957E-002  0.3000000E+03  0.7818608E-02  0.1093470E+00
          1   -1    0    0  502    0  0.00000000000E+00  0.00000000000E+00  0.42296547765E+01  0.42296547765E+01  0.00000000000E+00 0.  1.
         13   -1    0    0    0    0 -0.00000000000E+00 -0.00000000000E+00 -0.10000000000E+04  0.10000000000E+04  0.00000000000E+00 0.  1.
    9000005    2    1    2  501    0  0.38575199555E+02  0.16229507696E+02 -0.88216915418E+03  0.88316490538E+03  0.25279559930E+01 0.  0.
         13    1    3    3    0    0  0.57446270376E+01  0.25486059559E+01 -0.11468918883E+03  0.11486124746E+03  0.00000000000E+00 0.  1.
          1    1    3    3  501    0  0.32830572518E+02  0.13680901740E+02 -0.76747996535E+03  0.76830365792E+03  0.00000000000E+00 0.  1.
         21    1    1    2  502  501 -0.38575199555E+02 -0.16229507696E+02 -0.11360119104E+03  0.12106474940E+03  0.00000000000E+00 0.  1.
<mgrwt>
<rscale>  1 0.30000000E+03</rscale>
<asrwt>0</asrwt>
<pdfrwt beam="1">  1        1 0.15380595E-01 0.30000000E+03</pdfrwt>
<pdfrwt beam="2">0</pdfrwt>
<totfact> 0.41930451E+02</totfact>
</mgrwt>
</event>
<event>
 6    1  0.1956957E-002  0.3000000E+03  0.7818608E-02  0.1093470E+00
          3   -1    0    0  502    0  0.00000000000E+00  0.00000000000E+00  0.58050530606E+01  0.58050530606E+01  0.00000000000E+00 0.  1.
         13   -1    0    0    0    0 -0.00000000000E+00 -0.00000000000E+00 -0.10000000000E+04  0.10000000000E+04  0.00000000000E+00 0.  1.
    9000005    2    1    2  501    0 -0.64456469266E+02  0.27655322650E+02 -0.69317330607E+03  0.69672014309E+03  0.32050328282E+01 0.  0.
         13    1    3    3    0    0 -0.63614945116E+02  0.27665685904E+02 -0.68480266010E+03  0.68830729671E+03  0.00000000000E+00 0.  1.
          1    1    3    3  501    0 -0.84152415033E+00 -0.10363254449E-01 -0.83706459702E+01  0.84128463822E+01  0.00000000000E+00 0.  1.
         21    1    1    2  502  501  0.64456469266E+02 -0.27655322650E+02 -0.30102164087E+03  0.30908490997E+03  0.00000000000E+00 0.  1.
<mgrwt>
<rscale>  1 0.30000000E+03</rscale>
<asrwt>0</asrwt>
<pdfrwt beam="1">  1        3 0.21109328E-01 0.30000000E+03</pdfrwt>
<pdfrwt beam="2">0</pdfrwt>
<totfact> 0.90549816E+01</totfact>
</mgrwt>
</event>
<event>
 6    1  0.1956957E-002  0.3000000E+03  0.7818608E-02  0.1093470E+00
          1   -1    0    0  502    0  0.00000000000E+00  0.00000000000E+00  0.44153779442E+01  0.44153779442E+01  0.00000000000E+00 0.  1.
         13   -1    0    0    0    0 -0.00000000000E+00 -0.00000000000E+00 -0.10000000000E+04  0.10000000000E+04  0.00000000000E+00 0.  1.
    9000005    2    1    2  501    0  0.26861134596E+02 -0.24072634977E+02 -0.91946031084E+03  0.92017807585E+03  0.44063309653E+01 0.  0.
         13    1    3    3    0    0  0.20601716784E+02 -0.20578118729E+02 -0.71775292797E+03  0.71834334083E+03  0.00000000000E+00 0.  1.
          1    1    3    3  501    0  0.62594178116E+01 -0.34945162489E+01 -0.20170738288E+03  0.20183473502E+03  0.00000000000E+00 0.  1.
         21    1    1    2  502  501 -0.26861134596E+02  0.24072634977E+02 -0.76124311213E+02  0.84237302095E+02  0.00000000000E+00 0.  1.
<mgrwt>
<rscale>  1 0.30000000E+03</rscale>
<asrwt>0</asrwt>
<pdfrwt beam="1">  1        1 0.16055954E-01 0.30000000E+03</pdfrwt>
<pdfrwt beam="2">0</pdfrwt>
<totfact> 0.39558996E+02</totfact>
</mgrwt>
</event>
<event>
 6    1  0.1956957E-002  0.3000000E+03  0.7818608E-02  0.1093470E+00
          1   -1    0    0  502    0  0.00000000000E+00  0.00000000000E+00  0.17519716917E+01  0.17519716917E+01  0.00000000000E+00 0.  1.
         13   -1    0    0    0    0 -0.00000000000E+00 -0.00000000000E+00 -0.10000000000E+04  0.10000000000E+04  0.00000000000E+00 0.  1.
    9000005    2    1    2  501    0  0.33287493709E+02 -0.25041480470E+02 -0.54062957597E+03  0.54224160086E+03  0.32376392412E+01 0.  0.
         13    1    3    3    0    0  0.25036111019E+01 -0.17911929125E+01 -0.30288436581E+02  0.30444471273E+02  0.00000000000E+00 0.  1.
          3    1    3    3  501    0  0.30783882607E+02 -0.23250287558E+02 -0.51034113939E+03  0.51179712959E+03  0.00000000000E+00 0.  1.
         21    1    1    2  502  501 -0.33287493709E+02  0.25041480470E+02 -0.45761845234E+03  0.45951037083E+03  0.00000000000E+00 0.  1.
<mgrwt>
<rscale>  1 0.30000000E+03</rscale>
<asrwt>0</asrwt>
<pdfrwt beam="1">  1        1 0.63708196E-02 0.30000000E+03</pdfrwt>
<pdfrwt beam="2">0</pdfrwt>
<totfact> 0.14156698E+03</totfact>
</mgrwt>
</event>
<event>
 6    1  0.1956957E-002  0.3000000E+03  0.7818608E-02  0.1093470E+00
          1   -1    0    0  502    0  0.00000000000E+00  0.00000000000E+00  0.49836299344E+02  0.49836299344E+02  0.00000000000E+00 0.  1.
         13   -1    0    0    0    0 -0.00000000000E+00 -0.00000000000E+00 -0.10000000000E+04  0.10000000000E+04  0.00000000000E+00 0.  1.
    9000005    2    1    2  501    0 -0.41547870488E+02 -0.20570549091E+03 -0.65403781700E+03  0.68688793731E+03  0.29322052992E+01 0.  0.
         13    1    3    3    0    0 -0.35762471895E+02 -0.17457557158E+03 -0.55229207140E+03  0.58032931747E+03  0.00000000000E+00 0.  1.
          1    1    3    3  501    0 -0.57853985931E+01 -0.31129919327E+02 -0.10174574561E+03  0.10655861984E+03  0.00000000000E+00 0.  1.
         21    1    1    2  502  501  0.41547870488E+02  0.20570549091E+03 -0.29612588365E+03  0.36294836203E+03  0.00000000000E+00 0.  1.
<mgrwt>
<rscale>  1 0.30000000E+03</rscale>
<asrwt>0</asrwt>
<pdfrwt beam="1">  1        1 0.18122329E+00 0.30000000E+03</pdfrwt>
<pdfrwt beam="2">0</pdfrwt>
<totfact> 0.12601700E+01</totfact>
</mgrwt>
</event>
<event>
 6    1  0.1956957E-002  0.3000000E+03  0.7818608E-02  0.1093470E+00
          1   -1    0    0  502    0  0.00000000000E+00  0.00000000000E+00  0.13674474270E+02  0.13674474270E+02  0.00000000000E+00 0.  1.
         13   -1    0    0    0    0 -0.00000000000E+00 -0.00000000000E+00 -0.10000000000E+04  0.10000000000E+04  0.00000000000E+00 0.  1.
    9000005    2    1    2  501    0 -0.44599781559E+02  0.16713223505E+02 -0.95604262123E+03  0.95723400421E+03  0.33125315141E+01 0.  0.
         13    1    3    3    0    0 -0.27215232916E+02  0.10362353876E+02 -0.61625769847E+03  0.61694537701E+03  0.00000000000E+00 0.  1.
          1    1    3    3  501    0 -0.17384548643E+02  0.63508696287E+01 -0.33978492275E+03  0.34028862721E+03  0.00000000000E+00 0.  1.
         21    1    1    2  502  501  0.44599781559E+02 -0.16713223505E+02 -0.30282904503E+02  0.56440470056E+02  0.00000000000E+00 0.  1.
<mgrwt>
<rscale>  1 0.30000000E+03</rscale>
<asrwt>0</asrwt>
<pdfrwt beam="1">  1        1 0.49725466E-01 0.30000000E+03</pdfrwt>
<pdfrwt beam="2">0</pdfrwt>
<totfact> 0.88890590E+01</totfact>
</mgrwt>
</event>
<event>
 6    1  0.1956957E-002  0.3000000E+03  0.7818608E-02  0.1093470E+00
          1   -1    0    0  502    0  0.00000000000E+00  0.00000000000E+00  0.42560609730E+01  0.42560609730E+01  0.00000000000E+00 0.  1.
         13   -1    0    0    0    0 -0.00000000000E+00 -0.00000000000E+00 -0.10000000000E+04  0.10000000000E+04  0.00000000000E+00 0.  1.
    9000005    2    1    2  501    0  0.54104468405E+02 -0.16433764834E+02 -0.74799634504E+03  0.75013752081E+03  0.32258032201E+01 0.  0.
         13    1    3    3    0    0  0.20701737234E+02 -0.73468048576E+01 -0.30646615271E+03  0.30725240475E+03  0.00000000000E+00 0.  1.
          3    1    3    3  501    0  0.33402731171E+02 -0.90869599762E+01 -0.44153019232E+03  0.44288511606E+03  0.00000000000E+00 0.  1.
         21    1    1    2  502  501 -0.54104468405E+02  0.16433764834E+02 -0.24774759399E+03  0.25411854017E+03  0.00000000000E+00 0.  1.
<mgrwt>
<rscale>  1 0.30000000E+03</rscale>
<asrwt>0</asrwt>
<pdfrwt beam="1">  1        1 0.15476618E-01 0.30000000E+03</pdfrwt>
<pdfrwt beam="2">0</pdfrwt>
<totfact> 0.41578077E+02</totfact>
</mgrwt>
</event>
<event>
 6    1  0.1956957E-002  0.3000000E+03  0.7818608E-02  0.1093470E+00
          3   -1    0    0  502    0  0.00000000000E+00  0.00000000000E+00  0.18683695705E+01  0.18683695705E+01  0.00000000000E+00 0.  1.
         13   -1    0    0    0    0 -0.00000000000E+00 -0.00000000000E+00 -0.10000000000E+04  0.10000000000E+04  0.00000000000E+00 0.  1.
    9000005    2    1    2  501    0 -0.27301064586E+02 -0.24162232018E+02 -0.76753621349E+03  0.76840872017E+03  0.33106849496E+01 0.  0.
         13    1    3    3    0    0 -0.16003075508E+02 -0.13069239399E+02 -0.46407006347E+03  0.46452979157E+03  0.00000000000E+00 0.  1.
          3    1    3    3  501    0 -0.11297989078E+02 -0.11092992619E+02 -0.30346615002E+03  0.30387892860E+03  0.00000000000E+00 0.  1.
         21    1    1    2  502  501  0.27301064586E+02  0.24162232018E+02 -0.23059541694E+03  0.23345964940E+03  0.00000000000E+00 0.  1.
<mgrwt>
<rscale>  1 0.30000000E+03</rscale>
<asrwt>0</asrwt>
<pdfrwt beam="1">  1        3 0.67940855E-02 0.30000000E+03</pdfrwt>
<pdfrwt beam="2">0</pdfrwt>
<totfact> 0.61391973E+02</totfact>
</mgrwt>
</event>
<event>
 6    1  0.1956957E-002  0.3000000E+03  0.7818608E-02  0.1093470E+00
          1   -1    0    0  502    0  0.00000000000E+00  0.00000000000E+00  0.17483894841E+01  0.17483894841E+01  0.00000000000E+00 0.  1.
         13   -1    0    0    0    0 -0.00000000000E+00 -0.00000000000E+00 -0.10000000000E+04  0.10000000000E+04  0.00000000000E+00 0.  1.
    9000005    2    1    2  501    0  0.16025170067E+02 -0.25991188458E+02 -0.84017109740E+03  0.84074591565E+03  0.58201224702E+01 0.  0.
         13    1    3    3    0    0  0.96113200425E+01 -0.10076273714E+02 -0.37811596834E+03  0.37837229587E+03  0.00000000000E+00 0.  1.
          1    1    3    3  501    0  0.64138500248E+01 -0.15914914743E+02 -0.46205512906E+03  0.46237361979E+03  0.00000000000E+00 0.  1.
         21    1    1    2  502  501 -0.16025170067E+02  0.25991188458E+02 -0.15808051311E+03  0.16100247383E+03  0.00000000000E+00 0.  1.
<mgrwt>
<rscale>  1 0.30000000E+03</rscale>
<asrwt>0</asrwt>
<pdfrwt beam="1">  1        1 0.63577933E-02 0.30000000E+03</pdfrwt>
<pdfrwt beam="2">0</pdfrwt>
<totfact> 0.14197358E+03</totfact>
</mgrwt>
</event>
<event>
 6    1  0.1956957E-002  0.3000000E+03  0.7818608E-02  0.1093470E+00
          3   -1    0    0  502    0  0.00000000000E+00  0.00000000000E+00  0.49270511240E+01  0.49270511240E+01  0.00000000000E+00 0.  1.
         13   -1    0    0    0    0 -0.00000000000E+00 -0.00000000000E+00 -0.10000000000E+04  0.10000000000E+04  0.00000000000E+00 0.  1.
    9000005    2    1    2  501    0 -0.59959304749E+02  0.22434386515E+02 -0.29295021032E+03  0.29989176129E+03  0.41015648802E+01 0.  0.
         13    1    3    3    0    0 -0.16162290458E+02  0.46602614647E+01 -0.71171526014E+02  0.73132234924E+02  0.00000000000E+00 0.  1.
          3    1    3    3  501    0 -0.43797014291E+02  0.17774125050E+02 -0.22177868431E+03  0.22675952636E+03  0.00000000000E+00 0.  1.
         21    1    1    2  502  501  0.59959304749E+02 -0.22434386515E+02 -0.70212273855E+03  0.70503528984E+03  0.00000000000E+00 0.  1.
<mgrwt>
<rscale>  1 0.30000000E+03</rscale>
<asrwt>0</asrwt>
<pdfrwt beam="1">  1        3 0.17916587E-01 0.30000000E+03</pdfrwt>
<pdfrwt beam="2">0</pdfrwt>
<totfact> 0.12181901E+02</totfact>
</mgrwt>
</event>
<event>
 6    1  0.1956957E-002  0.3000000E+03  0.7818608E-02  0.1093470E+00
          3   -1    0    0  502    0  0.00000000000E+00  0.00000000000E+00  0.14120242192E+01  0.14120242192E+01  0.00000000000E+00 0.  1.
         13   -1    0    0    0    0 -0.00000000000E+00 -0.00000000000E+00 -0.10000000000E+04  0.10000000000E+04  0.00000000000E+00 0.  1.
    9000005    2    1    2  501    0  0.31718078284E+02 -0.17863801294E+02 -0.38406980726E+03  0.38581659593E+03  0.44358720274E+01 0.  0.
         13    1    3    3    0    0  0.15369177665E+02 -0.64202960875E+01 -0.16382913100E+03  0.16467366513E+03  0.00000000000E+00 0.  1.
          3    1    3    3  501    0  0.16348900618E+02 -0.11443505206E+02 -0.22024067625E+03  0.22114293079E+03  0.00000000000E+00 0.  1.
         21    1    1    2  502  501 -0.31718078284E+02  0.17863801294E+02 -0.61451816852E+03  0.61559542829E+03  0.00000000000E+00 0.  1.
<mgrwt>
<rscale>  1 0.30000000E+03</rscale>
<asrwt>0</asrwt>
<pdfrwt beam="1">  1        3 0.51346444E-02 0.30000000E+03</pdfrwt>
<pdfrwt beam="2">0</pdfrwt>
<totfact> 0.94961703E+02</totfact>
</mgrwt>
</event>
<event>
 6    1  0.1956957E-002  0.3000000E+03  0.7818608E-02  0.1093470E+00
          3   -1    0    0  502    0  0.00000000000E+00  0.00000000000E+00  0.11862990552E+01  0.11862990552E+01  0.00000000000E+00 0.  1.
         13   -1    0    0    0    0 -0.00000000000E+00 -0.00000000000E+00 -0.10000000000E+04  0.10000000000E+04  0.00000000000E+00 0.  1.
    9000005    2    1    2  501    0 -0.55790977293E+01 -0.29866883360E+02 -0.73362337583E+03  0.73426109308E+03  0.35969690526E+01 0.  0.
         13    1    3    3    0    0  0.10079967986E+00 -0.18495881507E+01 -0.29911541773E+02  0.29968841622E+02  0.00000000000E+00 0.  1.
          3    1    3    3  501    0 -0.56798974091E+01 -0.28017295209E+02 -0.70371183406E+03  0.70429225146E+03  0.00000000000E+00 0.  1.
         21    1    1    2  502  501  0.55790977293E+01  0.29866883360E+02 -0.26519032511E+03  0.26692520598E+03  0.00000000000E+00 0.  1.
<mgrwt>
<rscale>  1 0.30000000E+03</rscale>
<asrwt>0</asrwt>
<pdfrwt beam="1">  1        3 0.43138238E-02 0.30000000E+03</pdfrwt>
<pdfrwt beam="2">0</pdfrwt>
<totfact> 0.12423712E+03</totfact>
</mgrwt>
</event>
<event>
 6    1  0.1956957E-002  0.3000000E+03  0.7818608E-02  0.1093470E+00
          1   -1    0    0  502    0  0.00000000000E+00  0.00000000000E+00  0.30832813552E+01  0.30832813552E+01  0.00000000000E+00 0.  1.
         13   -1    0    0    0    0 -0.00000000000E+00 -0.00000000000E+00 -0.10000000000E+04  0.10000000000E+04  0.00000000000E+00 0.  1.
    9000005    2    1    2  501    0  0.21139425415E+02  0.24166438222E+02 -0.90752166062E+03  0.90809713266E+03  0.37344105859E+01 0.  0.
         13    1    3    3    0    0  0.17602564058E+01  0.73600387467E+00 -0.48546677781E+02  0.48584155111E+02  0.00000000000E+00 0.  1.
          1    1    3    3  501    0  0.19379169009E+02  0.23430434347E+02 -0.85897498284E+03  0.85951297755E+03  0.00000000000E+00 0.  1.
         21    1    1    2  502  501 -0.21139425415E+02 -0.24166438222E+02 -0.89395058029E+02  0.94986148691E+02  0.00000000000E+00 0.  1.
<mgrwt>
<rscale>  1 0.30000000E+03</rscale>
<asrwt>0</asrwt>
<pdfrwt beam="1">  1        1 0.11211956E-01 0.30000000E+03</pdfrwt>
<pdfrwt beam="2">0</pdfrwt>
<totfact> 0.64562092E+02</totfact>
</mgrwt>
</event>
<event>
 6    1  0.1956957E-002  0.3000000E+03  0.7818608E-02  0.1093470E+00
          1   -1    0    0  502    0  0.00000000000E+00  0.00000000000E+00  0.32986920716E+02  0.32986920716E+02  0.00000000000E+00 0.  1.
         13   -1    0    0    0    0 -0.00000000000E+00 -0.00000000000E+00 -0.10000000000E+04  0.10000000000E+04  0.00000000000E+00 0.  1.
    9000005    2    1    2  501    0  0.17919516368E+01  0.12793934441E+03 -0.85004981779E+03  0.85963153003E+03  0.31603425623E+01 0.  0.
         13    1    3    3    0    0  0.64936270462E+00  0.63546670028E+02 -0.41170481762E+03  0.41658067382E+03  0.00000000000E+00 0.  1.
          1    1    3    3  501    0  0.11425889322E+01  0.64392674384E+02 -0.43834500016E+03  0.44305085621E+03  0.00000000000E+00 0.  1.
         21    1    1    2  502  501 -0.17919516368E+01 -0.12793934441E+03 -0.11696326150E+03  0.17335539068E+03  0.00000000000E+00 0.  1.
<mgrwt>
<rscale>  1 0.30000000E+03</rscale>
<asrwt>0</asrwt>
<pdfrwt beam="1">  1        1 0.11995269E+00 0.30000000E+03</pdfrwt>
<pdfrwt beam="2">0</pdfrwt>
<totfact> 0.26012039E+01</totfact>
</mgrwt>
</event>
<event>
 6    1  0.1956957E-002  0.3000000E+03  0.7818608E-02  0.1093470E+00
          1   -1    0    0  502    0  0.00000000000E+00  0.00000000000E+00  0.79766976501E+01  0.79766976501E+01  0.00000000000E+00 0.  1.
         13   -1    0    0    0    0 -0.00000000000E+00 -0.00000000000E+00 -0.10000000000E+04  0.10000000000E+04  0.00000000000E+00 0.  1.
    9000005    2    1    2  501    0 -0.46009312624E+02 -0.45093168586E+02 -0.84497041337E+03  0.84743136804E+03  0.38305837372E+01 0.  0.
         13    1    3    3    0    0 -0.30846385722E+02 -0.32697108255E+02 -0.58823137811E+03  0.58994639976E+03  0.00000000000E+00 0.  1.
          3    1    3    3  501    0 -0.15162926902E+02 -0.12396060331E+02 -0.25673903526E+03  0.25748496828E+03  0.00000000000E+00 0.  1.
         21    1    1    2  502  501  0.46009312624E+02  0.45093168586E+02 -0.14705288898E+03  0.16054532961E+03  0.00000000000E+00 0.  1.
<mgrwt>
<rscale>  1 0.30000000E+03</rscale>
<asrwt>0</asrwt>
<pdfrwt beam="1">  1        1 0.29006234E-01 0.30000000E+03</pdfrwt>
<pdfrwt beam="2">0</pdfrwt>
<totfact> 0.18000025E+02</totfact>
</mgrwt>
</event>
<event>
 6    1  0.1956957E-002  0.3000000E+03  0.7818608E-02  0.1093470E+00
          1   -1    0    0  502    0  0.00000000000E+00  0.00000000000E+00  0.27005377785E+01  0.27005377785E+01  0.00000000000E+00 0.  1.
         13   -1    0    0    0    0 -0.00000000000E+00 -0.00000000000E+00 -0.10000000000E+04  0.10000000000E+04  0.00000000000E+00 0.  1.
    9000005    2    1    2  501    0 -0.39670159781E+02  0.31846263556E+02 -0.41677536439E+03  0.41995176322E+03  0.83590067939E+01 0.  0.
         13    1    3    3    0    0 -0.13879099276E+02  0.64304872530E+01 -0.11568953334E+03  0.11669639534E+03  0.00000000000E+00 0.  1.
          1    1    3    3  501    0 -0.25791060504E+02  0.25415776303E+02 -0.30108583105E+03  0.30325536788E+03  0.00000000000E+00 0.  1.
         21    1    1    2  502  501  0.39670159781E+02 -0.31846263556E+02 -0.58052409783E+03  0.58274877455E+03  0.00000000000E+00 0.  1.
<mgrwt>
<rscale>  1 0.30000000E+03</rscale>
<asrwt>0</asrwt>
<pdfrwt beam="1">  1        1 0.98201581E-02 0.30000000E+03</pdfrwt>
<pdfrwt beam="2">0</pdfrwt>
<totfact> 0.77491772E+02</totfact>
</mgrwt>
</event>
<event>
 6    1  0.1956957E-002  0.3000000E+03  0.7818608E-02  0.1093470E+00
          1   -1    0    0  502    0  0.00000000000E+00  0.00000000000E+00  0.12827615291E+01  0.12827615291E+01  0.00000000000E+00 0.  1.
         13   -1    0    0    0    0 -0.00000000000E+00 -0.00000000000E+00 -0.10000000000E+04  0.10000000000E+04  0.00000000000E+00 0.  1.
    9000005    2    1    2  501    0  0.31239236262E+02  0.11113680046E+01 -0.74292954823E+03  0.74359211851E+03  0.27928579105E+01 0.  0.
         13    1    3    3    0    0  0.23335076244E+02 -0.32972861779E+00 -0.54368297297E+03  0.54418361755E+03  0.00000000000E+00 0.  1.
          3    1    3    3  501    0  0.79041600185E+01  0.14410966224E+01 -0.19924657525E+03  0.19940850096E+03  0.00000000000E+00 0.  1.
         21    1    1    2  502  501 -0.31239236262E+02 -0.11113680046E+01 -0.25578769024E+03  0.25769064302E+03  0.00000000000E+00 0.  1.
<mgrwt>
<rscale>  1 0.30000000E+03</rscale>
<asrwt>0</asrwt>
<pdfrwt beam="1">  1        1 0.46645972E-02 0.30000000E+03</pdfrwt>
<pdfrwt beam="2">0</pdfrwt>
<totfact> 0.21931743E+03</totfact>
</mgrwt>
</event>
<event>
 6    1  0.1956957E-002  0.3000000E+03  0.7818608E-02  0.1093470E+00
          1   -1    0    0  502    0  0.00000000000E+00  0.00000000000E+00  0.41215594247E+01  0.41215594247E+01  0.00000000000E+00 0.  1.
         13   -1    0    0    0    0 -0.00000000000E+00 -0.00000000000E+00 -0.10000000000E+04  0.10000000000E+04  0.00000000000E+00 0.  1.
    9000005    2    1    2  501    0 -0.30434536094E+02  0.63235190641E+01 -0.93716456900E+03  0.93768688026E+03  0.36066796115E+01 0.  0.
         13    1    3    3    0    0 -0.25773216046E+02  0.63118297239E+01 -0.76873825520E+03  0.76919607570E+03  0.00000000000E+00 0.  1.
          3    1    3    3  501    0 -0.46613200484E+01  0.11689340218E-01 -0.16842631380E+03  0.16849080456E+03  0.00000000000E+00 0.  1.
         21    1    1    2  502  501  0.30434536094E+02 -0.63235190641E+01 -0.58713871572E+02  0.66434679164E+02  0.00000000000E+00 0.  1.
<mgrwt>
<rscale>  1 0.30000000E+03</rscale>
<asrwt>0</asrwt>
<pdfrwt beam="1">  1        1 0.14987520E-01 0.30000000E+03</pdfrwt>
<pdfrwt beam="2">0</pdfrwt>
<totfact> 0.43429532E+02</totfact>
</mgrwt>
</event>
<event>
 6    1  0.1956957E-002  0.3000000E+03  0.7818608E-02  0.1093470E+00
          1   -1    0    0  502    0  0.00000000000E+00  0.00000000000E+00  0.89609080930E+01  0.89609080930E+01  0.00000000000E+00 0.  1.
         13   -1    0    0    0    0 -0.00000000000E+00 -0.00000000000E+00 -0.10000000000E+04  0.10000000000E+04  0.00000000000E+00 0.  1.
    9000005    2    1    2  501    0 -0.33363575882E+02  0.19012201065E+02 -0.95657950840E+03  0.95736580289E+03  0.55075109075E+01 0.  0.
         13    1    3    3    0    0 -0.15621964649E+02  0.10789192624E+02 -0.52591221367E+03  0.52625479470E+03  0.00000000000E+00 0.  1.
          3    1    3    3  501    0 -0.17741611233E+02  0.82230084408E+01 -0.43066729473E+03  0.43111100820E+03  0.00000000000E+00 0.  1.
         21    1    1    2  502  501  0.33363575882E+02 -0.19012201065E+02 -0.34459583508E+02  0.51595105199E+02  0.00000000000E+00 0.  1.
<mgrwt>
<rscale>  1 0.30000000E+03</rscale>
<asrwt>0</asrwt>
<pdfrwt beam="1">  1        1 0.32585189E-01 0.30000000E+03</pdfrwt>
<pdfrwt beam="2">0</pdfrwt>
<totfact> 0.15452736E+02</totfact>
</mgrwt>
</event>
<event>
 6    1  0.1956957E-002  0.3000000E+03  0.7818608E-02  0.1093470E+00
          1   -1    0    0  502    0  0.00000000000E+00  0.00000000000E+00  0.18904689205E+02  0.18904689205E+02  0.00000000000E+00 0.  1.
         13   -1    0    0    0    0 -0.00000000000E+00 -0.00000000000E+00 -0.10000000000E+04  0.10000000000E+04  0.00000000000E+00 0.  1.
    9000005    2    1    2  501    0 -0.22100544462E+02 -0.30342285618E+02 -0.98064114555E+03  0.98136411611E+03  0.30632791433E+01 0.  0.
         13    1    3    3    0    0 -0.12726836829E+02 -0.19129663230E+02 -0.62843641301E+03  0.62885629646E+03  0.00000000000E+00 0.  1.
          3    1    3    3  501    0 -0.93737076326E+01 -0.11212622387E+02 -0.35220473254E+03  0.35250781966E+03  0.00000000000E+00 0.  1.
         21    1    1    2  502  501  0.22100544462E+02  0.30342285618E+02 -0.45416524118E+00  0.37540573092E+02  0.00000000000E+00 0.  1.
<mgrwt>
<rscale>  1 0.30000000E+03</rscale>
<asrwt>0</asrwt>
<pdfrwt beam="1">  1        1 0.68744469E-01 0.30000000E+03</pdfrwt>
<pdfrwt beam="2">0</pdfrwt>
<totfact> 0.57784730E+01</totfact>
</mgrwt>
</event>
<event>
 6    1  0.1956957E-002  0.3000000E+03  0.7818608E-02  0.1093470E+00
          3   -1    0    0  502    0  0.00000000000E+00  0.00000000000E+00  0.61583700781E+01  0.61583700781E+01  0.00000000000E+00 0.  1.
         13   -1    0    0    0    0 -0.00000000000E+00 -0.00000000000E+00 -0.10000000000E+04  0.10000000000E+04  0.00000000000E+00 0.  1.
    9000005    2    1    2  501    0 -0.12669049035E+02 -0.43739588256E+02 -0.90659476548E+03  0.90774255966E+03  0.29714387240E+01 0.  0.
         13    1    3    3    0    0 -0.51118464063E+01 -0.13486901651E+02 -0.27193474967E+03  0.27231697628E+03  0.00000000000E+00 0.  1.
          1    1    3    3  501    0 -0.75572026283E+01 -0.30252686605E+02 -0.63466001581E+03  0.63542558339E+03  0.00000000000E+00 0.  1.
         21    1    1    2  502  501  0.12669049035E+02  0.43739588256E+02 -0.87246864443E+02  0.98415810414E+02  0.00000000000E+00 0.  1.
<mgrwt>
<rscale>  1 0.30000000E+03</rscale>
<asrwt>0</asrwt>
<pdfrwt beam="1">  1        3 0.22394120E-01 0.30000000E+03</pdfrwt>
<pdfrwt beam="2">0</pdfrwt>
<totfact> 0.81155292E+01</totfact>
</mgrwt>
</event>
<event>
 6    1  0.1956957E-002  0.3000000E+03  0.7818608E-02  0.1093470E+00
          3   -1    0    0  502    0  0.00000000000E+00  0.00000000000E+00  0.13266721759E+01  0.13266721759E+01  0.00000000000E+00 0.  1.
         13   -1    0    0    0    0 -0.00000000000E+00 -0.00000000000E+00 -0.10000000000E+04  0.10000000000E+04  0.00000000000E+00 0.  1.
    9000005    2    1    2  501    0  0.32811522902E+01  0.35367000796E+02 -0.60563347954E+03  0.60668517278E+03  0.36601402538E+01 0.  0.
         13    1    3    3    0    0  0.61205976529E+00  0.10211709272E+02 -0.14807716188E+03  0.14843011653E+03  0.00000000000E+00 0.  1.
          1    1    3    3  501    0  0.26690925250E+01  0.25155291524E+02 -0.45755631766E+03  0.45825505625E+03  0.00000000000E+00 0.  1.
         21    1    1    2  502  501 -0.32811522902E+01 -0.35367000796E+02 -0.39303984828E+03  0.39464149939E+03  0.00000000000E+00 0.  1.
<mgrwt>
<rscale>  1 0.30000000E+03</rscale>
<asrwt>0</asrwt>
<pdfrwt beam="1">  1        3 0.48242726E-02 0.30000000E+03</pdfrwt>
<pdfrwt beam="2">0</pdfrwt>
<totfact> 0.10455627E+03</totfact>
</mgrwt>
</event>
<event>
 6    1  0.1956957E-002  0.3000000E+03  0.7818608E-02  0.1093470E+00
          1   -1    0    0  502    0  0.00000000000E+00  0.00000000000E+00  0.28574506915E+01  0.28574506915E+01  0.00000000000E+00 0.  1.
         13   -1    0    0    0    0 -0.00000000000E+00 -0.00000000000E+00 -0.10000000000E+04  0.10000000000E+04  0.00000000000E+00 0.  1.
    9000005    2    1    2  501    0 -0.25568136701E+02  0.39426191101E+02 -0.73707687708E+03  0.73858049741E+03  0.32671521569E+01 0.  0.
         13    1    3    3    0    0 -0.11407342131E+02  0.16745137577E+02 -0.29364905691E+03  0.29434723663E+03  0.00000000000E+00 0.  1.
          3    1    3    3  501    0 -0.14160794570E+02  0.22681053524E+02 -0.44342782017E+03  0.44423326079E+03  0.00000000000E+00 0.  1.
         21    1    1    2  502  501  0.25568136701E+02 -0.39426191101E+02 -0.26006567223E+03  0.26427695328E+03  0.00000000000E+00 0.  1.
<mgrwt>
<rscale>  1 0.30000000E+03</rscale>
<asrwt>0</asrwt>
<pdfrwt beam="1">  1        1 0.10390752E-01 0.30000000E+03</pdfrwt>
<pdfrwt beam="2">0</pdfrwt>
<totfact> 0.71682586E+02</totfact>
</mgrwt>
</event>
<event>
 6    1  0.1956957E-002  0.3000000E+03  0.7818608E-02  0.1093470E+00
          3   -1    0    0  502    0  0.00000000000E+00  0.00000000000E+00  0.49985519038E+01  0.49985519038E+01  0.00000000000E+00 0.  1.
         13   -1    0    0    0    0 -0.00000000000E+00 -0.00000000000E+00 -0.10000000000E+04  0.10000000000E+04  0.00000000000E+00 0.  1.
    9000005    2    1    2  501    0  0.19524656572E+02  0.36161441247E+02 -0.90632241565E+03  0.90725995746E+03  0.33833804207E+01 0.  0.
         13    1    3    3    0    0  0.59256852247E+01  0.83739855949E+01 -0.24334038407E+03  0.24355652301E+03  0.00000000000E+00 0.  1.
          3    1    3    3  501    0  0.13598971347E+02  0.27787455652E+02 -0.66298203157E+03  0.66370343445E+03  0.00000000000E+00 0.  1.
         21    1    1    2  502  501 -0.19524656572E+02 -0.36161441247E+02 -0.88679032450E+02  0.97738594442E+02  0.00000000000E+00 0.  1.
<mgrwt>
<rscale>  1 0.30000000E+03</rscale>
<asrwt>0</asrwt>
<pdfrwt beam="1">  1        3 0.18176591E-01 0.30000000E+03</pdfrwt>
<pdfrwt beam="2">0</pdfrwt>
<totfact> 0.11872888E+02</totfact>
</mgrwt>
</event>
<event>
 6    1  0.1956957E-002  0.3000000E+03  0.7818608E-02  0.1093470E+00
          1   -1    0    0  502    0  0.00000000000E+00  0.00000000000E+00  0.49589165851E+01  0.49589165851E+01  0.00000000000E+00 0.  1.
         13   -1    0    0    0    0 -0.00000000000E+00 -0.00000000000E+00 -0.10000000000E+04  0.10000000000E+04  0.00000000000E+00 0.  1.
    9000005    2    1    2  501    0 -0.82911385881E+01 -0.36852029528E+02 -0.92157254855E+03  0.92234874364E+03  0.21041831561E+01 0.  0.
         13    1    3    3    0    0 -0.26435443151E+01 -0.91124985551E+01 -0.24896409573E+03  0.24914483121E+03  0.00000000000E+00 0.  1.
          3    1    3    3  501    0 -0.56475942730E+01 -0.27739530973E+02 -0.67260845282E+03  0.67320391243E+03  0.00000000000E+00 0.  1.
         21    1    1    2  502  501  0.82911385881E+01  0.36852029528E+02 -0.73468534863E+02  0.82610172947E+02  0.00000000000E+00 0.  1.
<mgrwt>
<rscale>  1 0.30000000E+03</rscale>
<asrwt>0</asrwt>
<pdfrwt beam="1">  1        1 0.18032462E-01 0.30000000E+03</pdfrwt>
<pdfrwt beam="2">0</pdfrwt>
<totfact> 0.33826565E+02</totfact>
</mgrwt>
</event>
<event>
 6    1  0.1956957E-002  0.3000000E+03  0.7818608E-02  0.1093470E+00
          1   -1    0    0  502    0  0.00000000000E+00  0.00000000000E+00  0.25949829305E+01  0.25949829305E+01  0.00000000000E+00 0.  1.
         13   -1    0    0    0    0 -0.00000000000E+00 -0.00000000000E+00 -0.10000000000E+04  0.10000000000E+04  0.00000000000E+00 0.  1.
    9000005    2    1    2  501    0 -0.78173134976E+01  0.48152934018E+02 -0.64171431429E+03  0.64357452183E+03  0.33299458480E+01 0.  0.
         13    1    3    3    0    0 -0.72750271609E+01  0.38844383426E+02 -0.50702782523E+03  0.50856565721E+03  0.00000000000E+00 0.  1.
          3    1    3    3  501    0 -0.54228633667E+00  0.93085505916E+01 -0.13468648907E+03  0.13500886462E+03  0.00000000000E+00 0.  1.
         21    1    1    2  502  501  0.78173134976E+01 -0.48152934018E+02 -0.35569070277E+03  0.35902046110E+03  0.00000000000E+00 0.  1.
<mgrwt>
<rscale>  1 0.30000000E+03</rscale>
<asrwt>0</asrwt>
<pdfrwt beam="1">  1        1 0.94363215E-02 0.30000000E+03</pdfrwt>
<pdfrwt beam="2">0</pdfrwt>
<totfact> 0.81885957E+02</totfact>
</mgrwt>
</event>
<event>
 6    1  0.1956957E-002  0.3000000E+03  0.7818608E-02  0.1093470E+00
          3   -1    0    0  502    0  0.00000000000E+00  0.00000000000E+00  0.40566754984E+01  0.40566754984E+01  0.00000000000E+00 0.  1.
         13   -1    0    0    0    0 -0.00000000000E+00 -0.00000000000E+00 -0.10000000000E+04  0.10000000000E+04  0.00000000000E+00 0.  1.
    9000005    2    1    2  501    0  0.88480131957E+01 -0.62694624250E+02 -0.44664915506E+03  0.45112540686E+03  0.31243812611E+01 0.  0.
         13    1    3    3    0    0  0.55709442769E+01 -0.48591878401E+02 -0.34241650574E+03  0.34589199104E+03  0.00000000000E+00 0.  1.
          3    1    3    3  501    0  0.32770689188E+01 -0.14102745849E+02 -0.10423264932E+03  0.10523341582E+03  0.00000000000E+00 0.  1.
         21    1    1    2  502  501 -0.88480131957E+01  0.62694624250E+02 -0.54929416945E+03  0.55293126863E+03  0.00000000000E+00 0.  1.
<mgrwt>
<rscale>  1 0.30000000E+03</rscale>
<asrwt>0</asrwt>
<pdfrwt beam="1">  1        3 0.14751578E-01 0.30000000E+03</pdfrwt>
<pdfrwt beam="2">0</pdfrwt>
<totfact> 0.17132319E+02</totfact>
</mgrwt>
</event>
<event>
 6    1  0.1956957E-002  0.3000000E+03  0.7818608E-02  0.1093470E+00
          1   -1    0    0  502    0  0.00000000000E+00  0.00000000000E+00  0.42129643714E+01  0.42129643714E+01  0.00000000000E+00 0.  1.
         13   -1    0    0    0    0 -0.00000000000E+00 -0.00000000000E+00 -0.10000000000E+04  0.10000000000E+04  0.00000000000E+00 0.  1.
    9000005    2    1    2  501    0  0.33639092646E+02 -0.17072602205E+01 -0.92699240200E+03  0.92761528224E+03  0.45491967646E+01 0.  0.
         13    1    3    3    0    0  0.23242547551E+02  0.85630213225E+00 -0.61904509091E+03  0.61948185917E+03  0.00000000000E+00 0.  1.
          3    1    3    3  501    0  0.10396545095E+02 -0.25635623528E+01 -0.30794731110E+03  0.30813342307E+03  0.00000000000E+00 0.  1.
         21    1    1    2  502  501 -0.33639092646E+02  0.17072602205E+01 -0.68794633627E+02  0.76597682128E+02  0.00000000000E+00 0.  1.
<mgrwt>
<rscale>  1 0.30000000E+03</rscale>
<asrwt>0</asrwt>
<pdfrwt beam="1">  1        1 0.15319903E-01 0.30000000E+03</pdfrwt>
<pdfrwt beam="2">0</pdfrwt>
<totfact> 0.42155906E+02</totfact>
</mgrwt>
</event>
<event>
 6    1  0.1956957E-002  0.3000000E+03  0.7818608E-02  0.1093470E+00
          1   -1    0    0  502    0  0.00000000000E+00  0.00000000000E+00  0.45609244010E+01  0.45609244010E+01  0.00000000000E+00 0.  1.
         13   -1    0    0    0    0 -0.00000000000E+00 -0.00000000000E+00 -0.10000000000E+04  0.10000000000E+04  0.00000000000E+00 0.  1.
    9000005    2    1    2  501    0 -0.42910357862E+02  0.22965875367E+01 -0.88510169206E+03  0.88615099520E+03  0.34652399819E+01 0.  0.
         13    1    3    3    0    0 -0.25677350097E+02 -0.23124027115E+00 -0.53896445382E+03  0.53957581697E+03  0.00000000000E+00 0.  1.
          3    1    3    3  501    0 -0.17233007765E+02  0.25278278078E+01 -0.34613723824E+03  0.34657517823E+03  0.00000000000E+00 0.  1.
         21    1    1    2  502  501  0.42910357862E+02 -0.22965875367E+01 -0.11033738354E+03  0.11840992920E+03  0.00000000000E+00 0.  1.
<mgrwt>
<rscale>  1 0.30000000E+03</rscale>
<asrwt>0</asrwt>
<pdfrwt beam="1">  1        1 0.16585215E-01 0.30000000E+03</pdfrwt>
<pdfrwt beam="2">0</pdfrwt>
<totfact> 0.37862220E+02</totfact>
</mgrwt>
</event>
<event>
 6    1  0.1956957E-002  0.3000000E+03  0.7818608E-02  0.1093470E+00
          1   -1    0    0  502    0  0.00000000000E+00  0.00000000000E+00  0.49053023649E+01  0.49053023649E+01  0.00000000000E+00 0.  1.
         13   -1    0    0    0    0 -0.00000000000E+00 -0.00000000000E+00 -0.10000000000E+04  0.10000000000E+04  0.00000000000E+00 0.  1.
    9000005    2    1    2  501    0  0.61776525747E+02  0.26212355080E+02 -0.64080537275E+03  0.64431640567E+03  0.29458747025E+01 0.  0.
         13    1    3    3    0    0  0.58278194489E+02  0.25199762641E+02 -0.60086343442E+03  0.60420877420E+03  0.00000000000E+00 0.  1.
          1    1    3    3  501    0  0.34983312580E+01  0.10125924389E+01 -0.39941938323E+02  0.40107631469E+02  0.00000000000E+00 0.  1.
         21    1    1    2  502  501 -0.61776525747E+02 -0.26212355080E+02 -0.35428932489E+03  0.36058889670E+03  0.00000000000E+00 0.  1.
<mgrwt>
<rscale>  1 0.30000000E+03</rscale>
<asrwt>0</asrwt>
<pdfrwt beam="1">  1        1 0.17837501E-01 0.30000000E+03</pdfrwt>
<pdfrwt beam="2">0</pdfrwt>
<totfact> 0.34324573E+02</totfact>
</mgrwt>
</event>
<event>
 6    1  0.1956957E-002  0.3000000E+03  0.7818608E-02  0.1093470E+00
          1   -1    0    0  502    0  0.00000000000E+00  0.00000000000E+00  0.70738990760E+01  0.70738990760E+01  0.00000000000E+00 0.  1.
         13   -1    0    0    0    0 -0.00000000000E+00 -0.00000000000E+00 -0.10000000000E+04  0.10000000000E+04  0.00000000000E+00 0.  1.
    9000005    2    1    2  501    0 -0.32177448192E+02 -0.31853349454E+02 -0.92077093740E+03  0.92188944235E+03  0.33167339129E+01 0.  0.
         13    1    3    3    0    0 -0.16739942026E+02 -0.18283606799E+02 -0.52594914216E+03  0.52653301518E+03  0.00000000000E+00 0.  1.
          3    1    3    3  501    0 -0.15437506165E+02 -0.13569742656E+02 -0.39482179524E+03  0.39535642717E+03  0.00000000000E+00 0.  1.
         21    1    1    2  502  501  0.32177448192E+02  0.31853349454E+02 -0.72155163528E+02  0.85184456724E+02  0.00000000000E+00 0.  1.
<mgrwt>
<rscale>  1 0.30000000E+03</rscale>
<asrwt>0</asrwt>
<pdfrwt beam="1">  1        1 0.25723324E-01 0.30000000E+03</pdfrwt>
<pdfrwt beam="2">0</pdfrwt>
<totfact> 0.21083842E+02</totfact>
</mgrwt>
</event>
<event>
 6    1  0.1956957E-002  0.3000000E+03  0.7818608E-02  0.1093470E+00
          1   -1    0    0  502    0  0.00000000000E+00  0.00000000000E+00  0.13024611343E+01  0.13024611343E+01  0.00000000000E+00 0.  1.
         13   -1    0    0    0    0 -0.00000000000E+00 -0.00000000000E+00 -0.10000000000E+04  0.10000000000E+04  0.00000000000E+00 0.  1.
    9000005    2    1    2  501    0 -0.17996334031E+02 -0.30509632575E+02 -0.58095231609E+03  0.58205816855E+03  0.56046658167E+01 0.  0.
         13    1    3    3    0    0 -0.10018790824E+02 -0.15079445678E+02 -0.25368435251E+03  0.25432954323E+03  0.00000000000E+00 0.  1.
          1    1    3    3  501    0 -0.79775432068E+01 -0.15430186897E+02 -0.32726796358E+03  0.32772862532E+03  0.00000000000E+00 0.  1.
         21    1    1    2  502  501  0.17996334031E+02  0.30509632575E+02 -0.41774522277E+03  0.41924429259E+03  0.00000000000E+00 0.  1.
<mgrwt>
<rscale>  1 0.30000000E+03</rscale>
<asrwt>0</asrwt>
<pdfrwt beam="1">  1        1 0.47362323E-02 0.30000000E+03</pdfrwt>
<pdfrwt beam="2">0</pdfrwt>
<totfact> 0.21466589E+03</totfact>
</mgrwt>
</event>
<event>
 6    1  0.1956957E-002  0.3000000E+03  0.7818608E-02  0.1093470E+00
          3   -1    0    0  502    0  0.00000000000E+00  0.00000000000E+00  0.10504249913E+01  0.10504249913E+01  0.00000000000E+00 0.  1.
         13   -1    0    0    0    0 -0.00000000000E+00 -0.00000000000E+00 -0.10000000000E+04  0.10000000000E+04  0.00000000000E+00 0.  1.
    9000005    2    1    2  501    0  0.78788809352E+01  0.31023732855E+02 -0.42938793880E+03  0.43059007913E+03  0.30439265818E+01 0.  0.
         13    1    3    3    0    0  0.83001712908E+00  0.83153834509E+01 -0.11829364983E+03  0.11858845694E+03  0.00000000000E+00 0.  1.
          3    1    3    3  501    0  0.70488638061E+01  0.22708349404E+02 -0.31109428897E+03  0.31200162218E+03  0.00000000000E+00 0.  1.
         21    1    1    2  502  501 -0.78788809352E+01 -0.31023732855E+02 -0.56956163621E+03  0.57046034586E+03  0.00000000000E+00 0.  1.
<mgrwt>
<rscale>  1 0.30000000E+03</rscale>
<asrwt>0</asrwt>
<pdfrwt beam="1">  1        3 0.38197353E-02 0.30000000E+03</pdfrwt>
<pdfrwt beam="2">0</pdfrwt>
<totfact> 0.14977274E+03</totfact>
</mgrwt>
</event>
<event>
 6    1  0.1956957E-002  0.3000000E+03  0.7818608E-02  0.1093470E+00
          1   -1    0    0  502    0  0.00000000000E+00  0.00000000000E+00  0.16323022433E+01  0.16323022433E+01  0.00000000000E+00 0.  1.
         13   -1    0    0    0    0 -0.00000000000E+00 -0.00000000000E+00 -0.10000000000E+04  0.10000000000E+04  0.00000000000E+00 0.  1.
    9000005    2    1    2  501    0  0.31171659846E+02  0.10943890867E+02 -0.78681331543E+03  0.78751388219E+03  0.33882411319E+01 0.  0.
         13    1    3    3    0    0  0.34221007533E+01  0.19827246728E+01 -0.11501840035E+03  0.11508637795E+03  0.00000000000E+00 0.  1.
          3    1    3    3  501    0  0.27749559093E+02  0.89611661941E+01 -0.67179491508E+03  0.67242750424E+03  0.00000000000E+00 0.  1.
         21    1    1    2  502  501 -0.31171659846E+02 -0.10943890867E+02 -0.21155438233E+03  0.21411842006E+03  0.00000000000E+00 0.  1.
<mgrwt>
<rscale>  1 0.30000000E+03</rscale>
<asrwt>0</asrwt>
<pdfrwt beam="1">  1        1 0.59356570E-02 0.30000000E+03</pdfrwt>
<pdfrwt beam="2">0</pdfrwt>
<totfact> 0.15633148E+03</totfact>
</mgrwt>
</event>
<event>
 6    1  0.1956957E-002  0.3000000E+03  0.7818608E-02  0.1093470E+00
          1   -1    0    0  502    0  0.00000000000E+00  0.00000000000E+00  0.85956939163E+01  0.85956939163E+01  0.00000000000E+00 0.  1.
         13   -1    0    0    0    0 -0.00000000000E+00 -0.00000000000E+00 -0.10000000000E+04  0.10000000000E+04  0.00000000000E+00 0.  1.
    9000005    2    1    2  501    0  0.73700771164E+01 -0.34722132250E+02 -0.96156087969E+03  0.96222140574E+03  0.32808250730E+01 0.  0.
         13    1    3    3    0    0  0.70084109723E+01 -0.26752026926E+02 -0.75725132442E+03  0.75775613301E+03  0.00000000000E+00 0.  1.
          1    1    3    3  501    0  0.36166614409E+00 -0.79701053239E+01 -0.20430955527E+03  0.20446527274E+03  0.00000000000E+00 0.  1.
         21    1    1    2  502  501 -0.73700771164E+01  0.34722132250E+02 -0.29843426392E+02  0.46374288172E+02  0.00000000000E+00 0.  1.
<mgrwt>
<rscale>  1 0.30000000E+03</rscale>
<asrwt>0</asrwt>
<pdfrwt beam="1">  1        1 0.31257135E-01 0.30000000E+03</pdfrwt>
<pdfrwt beam="2">0</pdfrwt>
<totfact> 0.16319059E+02</totfact>
</mgrwt>
</event>
<event>
 6    1  0.1956957E-002  0.3000000E+03  0.7818608E-02  0.1093470E+00
          1   -1    0    0  502    0  0.00000000000E+00  0.00000000000E+00  0.11826905655E+01  0.11826905655E+01  0.00000000000E+00 0.  1.
         13   -1    0    0    0    0 -0.00000000000E+00 -0.00000000000E+00 -0.10000000000E+04  0.10000000000E+04  0.00000000000E+00 0.  1.
    9000005    2    1    2  501    0 -0.30295812888E+02 -0.11542562455E+02 -0.66473540320E+03  0.66553140262E+03  0.27972448142E+01 0.  0.
         13    1    3    3    0    0 -0.20062148987E+01 -0.14088240725E+01 -0.42158919513E+02  0.42230133531E+02  0.00000000000E+00 0.  1.
          1    1    3    3  501    0 -0.28289597989E+02 -0.10133738383E+02 -0.62257648369E+03  0.62330126909E+03  0.00000000000E+00 0.  1.
         21    1    1    2  502  501  0.30295812888E+02  0.11542562455E+02 -0.33408190624E+03  0.33565128795E+03  0.00000000000E+00 0.  1.
<mgrwt>
<rscale>  1 0.30000000E+03</rscale>
<asrwt>0</asrwt>
<pdfrwt beam="1">  1        1 0.43007020E-02 0.30000000E+03</pdfrwt>
<pdfrwt beam="2">0</pdfrwt>
<totfact> 0.24587724E+03</totfact>
</mgrwt>
</event>
<event>
 6    1  0.1956957E-002  0.3000000E+03  0.7818608E-02  0.1093470E+00
          3   -1    0    0  502    0  0.00000000000E+00  0.00000000000E+00  0.10797566676E+01  0.10797566676E+01  0.00000000000E+00 0.  1.
         13   -1    0    0    0    0 -0.00000000000E+00 -0.00000000000E+00 -0.10000000000E+04  0.10000000000E+04  0.00000000000E+00 0.  1.
    9000005    2    1    2  501    0 -0.28498766525E+02  0.16195583891E+02 -0.51581073832E+03  0.51685948606E+03  0.29212901289E+01 0.  0.
         13    1    3    3    0    0 -0.85369837920E+01  0.34039079261E+01 -0.14985350927E+03  0.15013507559E+03  0.00000000000E+00 0.  1.
          3    1    3    3  501    0 -0.19961782733E+02  0.12791675965E+02 -0.36595722905E+03  0.36672441047E+03  0.00000000000E+00 0.  1.
         21    1    1    2  502  501  0.28498766525E+02 -0.16195583891E+02 -0.48310950502E+03  0.48422027061E+03  0.00000000000E+00 0.  1.
<mgrwt>
<rscale>  1 0.30000000E+03</rscale>
<asrwt>0</asrwt>
<pdfrwt beam="1">  1        3 0.39263962E-02 0.30000000E+03</pdfrwt>
<pdfrwt beam="2">0</pdfrwt>
<totfact> 0.14356488E+03</totfact>
</mgrwt>
</event>
<event>
 6    1  0.1956957E-002  0.3000000E+03  0.7818608E-02  0.1093470E+00
          1   -1    0    0  502    0  0.00000000000E+00  0.00000000000E+00  0.11857812518E+01  0.11857812518E+01  0.00000000000E+00 0.  1.
         13   -1    0    0    0    0 -0.00000000000E+00 -0.00000000000E+00 -0.10000000000E+04  0.10000000000E+04  0.00000000000E+00 0.  1.
    9000005    2    1    2  501    0 -0.10218081941E+02  0.32451128571E+02 -0.43071401831E+03  0.43206775950E+03  0.32401060108E+01 0.  0.
         13    1    3    3    0    0 -0.84022866991E+01  0.28456066995E+02 -0.38613459799E+03  0.38727286755E+03  0.00000000000E+00 0.  1.
          1    1    3    3  501    0 -0.18157952417E+01  0.39950615767E+01 -0.44579420315E+02  0.44794891952E+02  0.00000000000E+00 0.  1.
         21    1    1    2  502  501  0.10218081941E+02 -0.32451128571E+02 -0.56810020044E+03  0.56911802175E+03  0.00000000000E+00 0.  1.
<mgrwt>
<rscale>  1 0.30000000E+03</rscale>
<asrwt>0</asrwt>
<pdfrwt beam="1">  1        1 0.43119409E-02 0.30000000E+03</pdfrwt>
<pdfrwt beam="2">0</pdfrwt>
<totfact> 0.24497548E+03</totfact>
</mgrwt>
</event>
<event>
 6    1  0.1956957E-002  0.3000000E+03  0.7818608E-02  0.1093470E+00
          1   -1    0    0  502    0  0.00000000000E+00  0.00000000000E+00  0.27470287820E+01  0.27470287820E+01  0.00000000000E+00 0.  1.
         13   -1    0    0    0    0 -0.00000000000E+00 -0.00000000000E+00 -0.10000000000E+04  0.10000000000E+04  0.00000000000E+00 0.  1.
    9000005    2    1    2  501    0  0.45530489195E+02  0.22400697926E+02 -0.62303927158E+03  0.62510869690E+03  0.28517167579E+01 0.  0.
         13    1    3    3    0    0  0.21990771341E+02  0.11457151081E+02 -0.32045952241E+03  0.32141743238E+03  0.00000000000E+00 0.  1.
          3    1    3    3  501    0  0.23539717854E+02  0.10943546845E+02 -0.30257974917E+03  0.30369126452E+03  0.00000000000E+00 0.  1.
         21    1    1    2  502  501 -0.45530489195E+02 -0.22400697926E+02 -0.37421369963E+03  0.37763833188E+03  0.00000000000E+00 0.  1.
<mgrwt>
<rscale>  1 0.30000000E+03</rscale>
<asrwt>0</asrwt>
<pdfrwt beam="1">  1        1 0.99892166E-02 0.30000000E+03</pdfrwt>
<pdfrwt beam="2">0</pdfrwt>
<totfact> 0.75686290E+02</totfact>
</mgrwt>
</event>
<event>
 6    1  0.1956957E-002  0.3000000E+03  0.7818608E-02  0.1093470E+00
          1   -1    0    0  502    0  0.00000000000E+00  0.00000000000E+00  0.35650790974E+01  0.35650790974E+01  0.00000000000E+00 0.  1.
         13   -1    0    0    0    0 -0.00000000000E+00 -0.00000000000E+00 -0.10000000000E+04  0.10000000000E+04  0.00000000000E+00 0.  1.
    9000005    2    1    2  501    0 -0.44166286406E+02  0.72390327451E+01 -0.83015354000E+03  0.83136588605E+03  0.33573902495E+01 0.  0.
         13    1    3    3    0    0 -0.15218298874E+02  0.11574553806E+01 -0.26631798185E+03  0.26675495081E+03  0.00000000000E+00 0.  1.
          3    1    3    3  501    0 -0.28947987532E+02  0.60815773645E+01 -0.56383555815E+03  0.56461093525E+03  0.00000000000E+00 0.  1.
         21    1    1    2  502  501  0.44166286406E+02 -0.72390327451E+01 -0.16628138090E+03  0.17219919304E+03  0.00000000000E+00 0.  1.
<mgrwt>
<rscale>  1 0.30000000E+03</rscale>
<asrwt>0</asrwt>
<pdfrwt beam="1">  1        1 0.12963951E-01 0.30000000E+03</pdfrwt>
<pdfrwt beam="2">0</pdfrwt>
<totfact> 0.52914058E+02</totfact>
</mgrwt>
</event>
<event>
 6    1  0.1956957E-002  0.3000000E+03  0.7818608E-02  0.1093470E+00
          1   -1    0    0  502    0  0.00000000000E+00  0.00000000000E+00  0.69791256650E+01  0.69791256650E+01  0.00000000000E+00 0.  1.
         13   -1    0    0    0    0 -0.00000000000E+00 -0.00000000000E+00 -0.10000000000E+04  0.10000000000E+04  0.00000000000E+00 0.  1.
    9000005    2    1    2  501    0 -0.23057403613E+02 -0.19860876562E+02 -0.96538437297E+03  0.96587104268E+03  0.37128462884E+01 0.  0.
         13    1    3    3    0    0 -0.12238196823E+02 -0.12896960810E+02 -0.57306681626E+03  0.57334255115E+03  0.00000000000E+00 0.  1.
          3    1    3    3  501    0 -0.10819206790E+02 -0.69639157518E+01 -0.39231755671E+03  0.39252849153E+03  0.00000000000E+00 0.  1.
         21    1    1    2  502  501  0.23057403613E+02  0.19860876562E+02 -0.27636501362E+02  0.41108082985E+02  0.00000000000E+00 0.  1.
<mgrwt>
<rscale>  1 0.30000000E+03</rscale>
<asrwt>0</asrwt>
<pdfrwt beam="1">  1        1 0.25378692E-01 0.30000000E+03</pdfrwt>
<pdfrwt beam="2">0</pdfrwt>
<totfact> 0.21462935E+02</totfact>
</mgrwt>
</event>
<event>
 6    1  0.1956957E-002  0.3000000E+03  0.7818608E-02  0.1093470E+00
          3   -1    0    0  502    0  0.00000000000E+00  0.00000000000E+00  0.29136178959E+01  0.29136178959E+01  0.00000000000E+00 0.  1.
         13   -1    0    0    0    0 -0.00000000000E+00 -0.00000000000E+00 -0.10000000000E+04  0.10000000000E+04  0.00000000000E+00 0.  1.
    9000005    2    1    2  501    0  0.25717517813E+02 -0.24005253786E+02 -0.87793554419E+03  0.87867769270E+03  0.81255755445E+01 0.  0.
         13    1    3    3    0    0 -0.58885585105E+00 -0.52761756133E+00 -0.13260734976E+02  0.13284284836E+02  0.00000000000E+00 0.  1.
          1    1    3    3  501    0  0.26306373664E+02 -0.23477636225E+02 -0.86467480921E+03  0.86539340787E+03  0.00000000000E+00 0.  1.
         21    1    1    2  502  501 -0.25717517813E+02  0.24005253786E+02 -0.11915083792E+03  0.12423592519E+03  0.00000000000E+00 0.  1.
<mgrwt>
<rscale>  1 0.30000000E+03</rscale>
<asrwt>0</asrwt>
<pdfrwt beam="1">  1        3 0.10594997E-01 0.30000000E+03</pdfrwt>
<pdfrwt beam="2">0</pdfrwt>
<totfact> 0.30011912E+02</totfact>
</mgrwt>
</event>
<event>
 6    1  0.1956957E-002  0.3000000E+03  0.7818608E-02  0.1093470E+00
          1   -1    0    0  502    0  0.00000000000E+00  0.00000000000E+00  0.11718326961E+01  0.11718326961E+01  0.00000000000E+00 0.  1.
         13   -1    0    0    0    0 -0.00000000000E+00 -0.00000000000E+00 -0.10000000000E+04  0.10000000000E+04  0.00000000000E+00 0.  1.
    9000005    2    1    2  501    0 -0.26976180779E+02 -0.17739473437E+02 -0.66344449038E+03  0.66423769374E+03  0.32739459403E+01 0.  0.
         13    1    3    3    0    0 -0.16640231670E+01 -0.32507318446E+00 -0.41913192244E+02  0.41947471078E+02  0.00000000000E+00 0.  1.
          1    1    3    3  501    0 -0.25312157612E+02 -0.17414400252E+02 -0.62153129813E+03  0.62229022266E+03  0.00000000000E+00 0.  1.
         21    1    1    2  502  501  0.26976180779E+02  0.17739473437E+02 -0.33538367693E+03  0.33693413896E+03  0.00000000000E+00 0.  1.
<mgrwt>
<rscale>  1 0.30000000E+03</rscale>
<asrwt>0</asrwt>
<pdfrwt beam="1">  1        1 0.42612188E-02 0.30000000E+03</pdfrwt>
<pdfrwt beam="2">0</pdfrwt>
<totfact> 0.24909075E+03</totfact>
</mgrwt>
</event>
<event>
 6    1  0.1956957E-002  0.3000000E+03  0.7818608E-02  0.1093470E+00
          3   -1    0    0  502    0  0.00000000000E+00  0.00000000000E+00  0.12699106930E+01  0.12699106930E+01  0.00000000000E+00 0.  1.
         13   -1    0    0    0    0 -0.00000000000E+00 -0.00000000000E+00 -0.10000000000E+04  0.10000000000E+04  0.00000000000E+00 0.  1.
    9000005    2    1    2  501    0 -0.17968459144E+02  0.25589561033E+02 -0.73817142698E+03  0.73884181068E+03  0.35319194801E+01 0.  0.
         13    1    3    3    0    0 -0.82052344657E+01  0.14573166618E+02 -0.37864821970E+03  0.37901738395E+03  0.00000000000E+00 0.  1.
          3    1    3    3  501    0 -0.97632246780E+01  0.11016394415E+02 -0.35952320728E+03  0.35982442673E+03  0.00000000000E+00 0.  1.
         21    1    1    2  502  501  0.17968459144E+02 -0.25589561033E+02 -0.26055866233E+03  0.26242810001E+03  0.00000000000E+00 0.  1.
<mgrwt>
<rscale>  1 0.30000000E+03</rscale>
<asrwt>0</asrwt>
<pdfrwt beam="1">  1        3 0.46178668E-02 0.30000000E+03</pdfrwt>
<pdfrwt beam="2">0</pdfrwt>
<totfact> 0.11185515E+03</totfact>
</mgrwt>
</event>
<event>
 6    1  0.1956957E-002  0.3000000E+03  0.7818608E-02  0.1093470E+00
          3   -1    0    0  502    0  0.00000000000E+00  0.00000000000E+00  0.10470643969E+01  0.10470643969E+01  0.00000000000E+00 0.  1.
         13   -1    0    0    0    0 -0.00000000000E+00 -0.00000000000E+00 -0.10000000000E+04  0.10000000000E+04  0.00000000000E+00 0.  1.
    9000005    2    1    2  501    0  0.13310164919E+02  0.28581822734E+02 -0.39441968067E+03  0.39569217889E+03  0.33667280562E+01 0.  0.
         13    1    3    3    0    0  0.11920219742E+01  0.11350093004E+01 -0.26589552524E+02  0.26640447930E+02  0.00000000000E+00 0.  1.
          1    1    3    3  501    0  0.12118142945E+02  0.27446813434E+02 -0.36783012814E+03  0.36905173096E+03  0.00000000000E+00 0.  1.
         21    1    1    2  502  501 -0.13310164919E+02 -0.28581822734E+02 -0.60453325494E+03  0.60535488551E+03  0.00000000000E+00 0.  1.
<mgrwt>
<rscale>  1 0.30000000E+03</rscale>
<asrwt>0</asrwt>
<pdfrwt beam="1">  1        3 0.38075149E-02 0.30000000E+03</pdfrwt>
<pdfrwt beam="2">0</pdfrwt>
<totfact> 0.15051262E+03</totfact>
</mgrwt>
</event>
<event>
 6    1  0.1956957E-002  0.3000000E+03  0.7818608E-02  0.1093470E+00
          1   -1    0    0  502    0  0.00000000000E+00  0.00000000000E+00  0.25811532366E+01  0.25811532366E+01  0.00000000000E+00 0.  1.
         13   -1    0    0    0    0 -0.00000000000E+00 -0.00000000000E+00 -0.10000000000E+04  0.10000000000E+04  0.00000000000E+00 0.  1.
    9000005    2    1    2  501    0 -0.30549008977E+02 -0.57172034666E+00 -0.99568515212E+02  0.10421108101E+03  0.35343131112E+01 0.  0.
         13    1    3    3    0    0 -0.70994783181E+01  0.98409189939E+00 -0.20055497283E+02  0.21297746372E+02  0.00000000000E+00 0.  1.
          3    1    3    3  501    0 -0.23449530659E+02 -0.15558122460E+01 -0.79513017928E+02  0.82913334633E+02  0.00000000000E+00 0.  1.
         21    1    1    2  502  501  0.30549008977E+02  0.57172034666E+00 -0.89785033155E+03  0.89837007223E+03  0.00000000000E+00 0.  1.
<mgrwt>
<rscale>  1 0.30000000E+03</rscale>
<asrwt>0</asrwt>
<pdfrwt beam="1">  1        1 0.93860316E-02 0.30000000E+03</pdfrwt>
<pdfrwt beam="2">0</pdfrwt>
<totfact> 0.82494107E+02</totfact>
</mgrwt>
</event>
<event>
 6    1  0.1956957E-002  0.3000000E+03  0.7818608E-02  0.1093470E+00
          3   -1    0    0  502    0  0.00000000000E+00  0.00000000000E+00  0.18967077420E+01  0.18967077420E+01  0.00000000000E+00 0.  1.
         13   -1    0    0    0    0 -0.00000000000E+00 -0.00000000000E+00 -0.10000000000E+04  0.10000000000E+04  0.00000000000E+00 0.  1.
    9000005    2    1    2  501    0  0.14950588315E+02 -0.40749923406E+02 -0.52136649713E+03  0.52318797775E+03  0.43080594582E+01 0.  0.
         13    1    3    3    0    0  0.39049546318E+00 -0.29938154544E+01 -0.48070358527E+02  0.48165078497E+02  0.00000000000E+00 0.  1.
          3    1    3    3  501    0  0.14560092852E+02 -0.37756107952E+02 -0.47329613861E+03  0.47502289925E+03  0.00000000000E+00 0.  1.
         21    1    1    2  502  501 -0.14950588315E+02  0.40749923406E+02 -0.47673679512E+03  0.47870873000E+03  0.00000000000E+00 0.  1.
<mgrwt>
<rscale>  1 0.30000000E+03</rscale>
<asrwt>0</asrwt>
<pdfrwt beam="1">  1        3 0.68971336E-02 0.30000000E+03</pdfrwt>
<pdfrwt beam="2">0</pdfrwt>
<totfact> 0.59956014E+02</totfact>
</mgrwt>
</event>
<event>
 6    1  0.1956957E-002  0.3000000E+03  0.7818608E-02  0.1093470E+00
          1   -1    0    0  502    0  0.00000000000E+00  0.00000000000E+00  0.14729044766E+01  0.14729044766E+01  0.00000000000E+00 0.  1.
         13   -1    0    0    0    0 -0.00000000000E+00 -0.00000000000E+00 -0.10000000000E+04  0.10000000000E+04  0.00000000000E+00 0.  1.
    9000005    2    1    2  501    0 -0.35944172002E+02  0.40950421069E+01 -0.66446830625E+03  0.66546095891E+03  0.33771223995E+01 0.  0.
         13    1    3    3    0    0 -0.29215516265E+02  0.19982247847E+01 -0.53857291179E+03  0.53936844606E+03  0.00000000000E+00 0.  1.
          3    1    3    3  501    0 -0.67286557374E+01  0.20968173223E+01 -0.12589539446E+03  0.12609251285E+03  0.00000000000E+00 0.  1.
         21    1    1    2  502  501  0.35944172002E+02 -0.40950421069E+01 -0.33405878928E+03  0.33601194557E+03  0.00000000000E+00 0.  1.
<mgrwt>
<rscale>  1 0.30000000E+03</rscale>
<asrwt>0</asrwt>
<pdfrwt beam="1">  1        1 0.53560276E-02 0.30000000E+03</pdfrwt>
<pdfrwt beam="2">0</pdfrwt>
<totfact> 0.18059149E+03</totfact>
</mgrwt>
</event>
<event>
 6    1  0.1956957E-002  0.3000000E+03  0.7818608E-02  0.1093470E+00
          1   -1    0    0  502    0  0.00000000000E+00  0.00000000000E+00  0.23066508645E+01  0.23066508645E+01  0.00000000000E+00 0.  1.
         13   -1    0    0    0    0 -0.00000000000E+00 -0.00000000000E+00 -0.10000000000E+04  0.10000000000E+04  0.00000000000E+00 0.  1.
    9000005    2    1    2  501    0 -0.40252477418E+02 -0.25985733033E+02 -0.47718665803E+03  0.47959952852E+03  0.36167526030E+01 0.  0.
         13    1    3    3    0    0 -0.12262769647E+02 -0.59792111394E+01 -0.13464934612E+03  0.13533873391E+03  0.00000000000E+00 0.  1.
          3    1    3    3  501    0 -0.27989707771E+02 -0.20006521893E+02 -0.34253731190E+03  0.34426079461E+03  0.00000000000E+00 0.  1.
         21    1    1    2  502  501  0.40252477418E+02  0.25985733033E+02 -0.52050669111E+03  0.52270712234E+03  0.00000000000E+00 0.  1.
<mgrwt>
<rscale>  1 0.30000000E+03</rscale>
<asrwt>0</asrwt>
<pdfrwt beam="1">  1        1 0.83878390E-02 0.30000000E+03</pdfrwt>
<pdfrwt beam="2">0</pdfrwt>
<totfact> 0.96420275E+02</totfact>
</mgrwt>
</event>
<event>
 6    1  0.1956957E-002  0.3000000E+03  0.7818608E-02  0.1093470E+00
          3   -1    0    0  502    0  0.00000000000E+00  0.00000000000E+00  0.23454069654E+01  0.23454069654E+01  0.00000000000E+00 0.  1.
         13   -1    0    0    0    0 -0.00000000000E+00 -0.00000000000E+00 -0.10000000000E+04  0.10000000000E+04  0.00000000000E+00 0.  1.
    9000005    2    1    2  501    0 -0.14791993619E+02 -0.43206575333E+02 -0.65489489201E+03  0.65655670866E+03  0.96840529865E+01 0.  0.
         13    1    3    3    0    0 -0.15404178348E+02 -0.32798245189E+02 -0.51680934532E+03  0.51807809548E+03  0.00000000000E+00 0.  1.
          3    1    3    3  501    0  0.61218472939E+00 -0.10408330144E+02 -0.13808554669E+03  0.13847861319E+03  0.00000000000E+00 0.  1.
         21    1    1    2  502  501  0.14791993619E+02  0.43206575333E+02 -0.34275970102E+03  0.34578869830E+03  0.00000000000E+00 0.  1.
<mgrwt>
<rscale>  1 0.30000000E+03</rscale>
<asrwt>0</asrwt>
<pdfrwt beam="1">  1        3 0.85287706E-02 0.30000000E+03</pdfrwt>
<pdfrwt beam="2">0</pdfrwt>
<totfact> 0.42774632E+02</totfact>
</mgrwt>
</event>
<event>
 6    1  0.1956957E-002  0.3000000E+03  0.7818608E-02  0.1093470E+00
          3   -1    0    0  502    0  0.00000000000E+00  0.00000000000E+00  0.23904071313E+01  0.23904071313E+01  0.00000000000E+00 0.  1.
         13   -1    0    0    0    0 -0.00000000000E+00 -0.00000000000E+00 -0.10000000000E+04  0.10000000000E+04  0.00000000000E+00 0.  1.
    9000005    2    1    2  501    0  0.17866374814E+02 -0.37127209009E+02 -0.76816705273E+03  0.76927773862E+03  0.31593084391E+01 0.  0.
         13    1    3    3    0    0  0.97788189231E+01 -0.23782667127E+02 -0.47240855687E+03  0.47310790012E+03  0.00000000000E+00 0.  1.
          1    1    3    3  501    0  0.80875558909E+01 -0.13344541883E+02 -0.29575849586E+03  0.29616983849E+03  0.00000000000E+00 0.  1.
         21    1    1    2  502  501 -0.17866374814E+02  0.37127209009E+02 -0.22944254013E+03  0.23311266851E+03  0.00000000000E+00 0.  1.
<mgrwt>
<rscale>  1 0.30000000E+03</rscale>
<asrwt>0</asrwt>
<pdfrwt beam="1">  1        3 0.86924079E-02 0.30000000E+03</pdfrwt>
<pdfrwt beam="2">0</pdfrwt>
<totfact> 0.41486545E+02</totfact>
</mgrwt>
</event>
<event>
 6    1  0.1956957E-002  0.3000000E+03  0.7818608E-02  0.1093470E+00
          1   -1    0    0  502    0  0.00000000000E+00  0.00000000000E+00  0.45172066076E+02  0.45172066076E+02  0.00000000000E+00 0.  1.
         13   -1    0    0    0    0 -0.00000000000E+00 -0.00000000000E+00 -0.10000000000E+04  0.10000000000E+04  0.00000000000E+00 0.  1.
    9000005    2    1    2  501    0 -0.15728385747E+02  0.69628474013E+02 -0.96963944178E+03  0.97226879265E+03  0.32328928042E+01 0.  0.
         13    1    3    3    0    0 -0.13828159061E+01  0.41052406683E+01 -0.68005938265E+02  0.68143765820E+02  0.00000000000E+00 0.  1.
          3    1    3    3  501    0 -0.14345569841E+02  0.65523233345E+02 -0.90163350351E+03  0.90412502683E+03  0.00000000000E+00 0.  1.
         21    1    1    2  502  501  0.15728385747E+02 -0.69628474013E+02  0.14811507853E+02  0.72903273427E+02  0.00000000000E+00 0.  1.
<mgrwt>
<rscale>  1 0.30000000E+03</rscale>
<asrwt>0</asrwt>
<pdfrwt beam="1">  1        1 0.16426240E+00 0.30000000E+03</pdfrwt>
<pdfrwt beam="2">0</pdfrwt>
<totfact> 0.15244354E+01</totfact>
</mgrwt>
</event>
<event>
 6    1  0.1956957E-002  0.3000000E+03  0.7818608E-02  0.1093470E+00
          3   -1    0    0  502    0  0.00000000000E+00  0.00000000000E+00  0.12145933754E+01  0.12145933754E+01  0.00000000000E+00 0.  1.
         13   -1    0    0    0    0 -0.00000000000E+00 -0.00000000000E+00 -0.10000000000E+04  0.10000000000E+04  0.00000000000E+00 0.  1.
    9000005    2    1    2  501    0 -0.32657252465E+02  0.86449030255E+01 -0.61489368574E+03  0.61583934267E+03  0.47561265271E+01 0.  0.
         13    1    3    3    0    0 -0.22989733444E+02  0.79112315549E+01 -0.46079321095E+03  0.46143417589E+03  0.00000000000E+00 0.  1.
          3    1    3    3  501    0 -0.96675190207E+01  0.73367147065E+00 -0.15410047479E+03  0.15440516678E+03  0.00000000000E+00 0.  1.
         21    1    1    2  502  501  0.32657252465E+02 -0.86449030255E+01 -0.38389172089E+03  0.38537525070E+03  0.00000000000E+00 0.  1.
<mgrwt>
<rscale>  1 0.30000000E+03</rscale>
<asrwt>0</asrwt>
<pdfrwt beam="1">  1        3 0.44167125E-02 0.30000000E+03</pdfrwt>
<pdfrwt beam="2">0</pdfrwt>
<totfact> 0.11981032E+03</totfact>
</mgrwt>
</event>
<event>
 6    1  0.1956957E-002  0.3000000E+03  0.7818608E-02  0.1093470E+00
          1   -1    0    0  502    0  0.00000000000E+00  0.00000000000E+00  0.15789139709E+02  0.15789139709E+02  0.00000000000E+00 0.  1.
         13   -1    0    0    0    0 -0.00000000000E+00 -0.00000000000E+00 -0.10000000000E+04  0.10000000000E+04  0.00000000000E+00 0.  1.
    9000005    2    1    2  501    0 -0.43917473117E+02 -0.11754669806E+03 -0.51667464721E+03  0.53170641825E+03  0.36129591332E+01 0.  0.
         13    1    3    3    0    0 -0.36968117978E+02 -0.10045979613E+03 -0.44553766645E+03  0.45821678779E+03  0.00000000000E+00 0.  1.
          3    1    3    3  501    0 -0.69493551390E+01 -0.17086901930E+02 -0.71136980759E+02  0.73489630465E+02  0.00000000000E+00 0.  1.
         21    1    1    2  502  501  0.43917473117E+02  0.11754669806E+03 -0.46753621308E+03  0.48408272146E+03  0.00000000000E+00 0.  1.
<mgrwt>
<rscale>  1 0.30000000E+03</rscale>
<asrwt>0</asrwt>
<pdfrwt beam="1">  1        1 0.57415175E-01 0.30000000E+03</pdfrwt>
<pdfrwt beam="2">0</pdfrwt>
<totfact> 0.73518206E+01</totfact>
</mgrwt>
</event>
<event>
 6    1  0.1956957E-002  0.3000000E+03  0.7818608E-02  0.1093470E+00
          1   -1    0    0  502    0  0.00000000000E+00  0.00000000000E+00  0.22910173668E+02  0.22910173668E+02  0.00000000000E+00 0.  1.
         13   -1    0    0    0    0 -0.00000000000E+00 -0.00000000000E+00 -0.10000000000E+04  0.10000000000E+04  0.00000000000E+00 0.  1.
    9000005    2    1    2  501    0 -0.97293527804E+02  0.94892546216E+02 -0.71361005692E+03  0.72644396182E+03  0.33000671862E+01 0.  0.
         13    1    3    3    0    0 -0.21380826090E+02  0.22688007195E+02 -0.16127665453E+03  0.16426212190E+03  0.00000000000E+00 0.  1.
          1    1    3    3  501    0 -0.75912701715E+02  0.72204539021E+02 -0.55233340239E+03  0.56218183992E+03  0.00000000000E+00 0.  1.
         21    1    1    2  502  501  0.97293527804E+02 -0.94892546216E+02 -0.26347976941E+03  0.29646621185E+03  0.00000000000E+00 0.  1.
<mgrwt>
<rscale>  1 0.30000000E+03</rscale>
<asrwt>0</asrwt>
<pdfrwt beam="1">  1        1 0.83309898E-01 0.30000000E+03</pdfrwt>
<pdfrwt beam="2">0</pdfrwt>
<totfact> 0.44396527E+01</totfact>
</mgrwt>
</event>
<event>
 6    1  0.1956957E-002  0.3000000E+03  0.7818608E-02  0.1093470E+00
          3   -1    0    0  502    0  0.00000000000E+00  0.00000000000E+00  0.55178175118E+01  0.55178175118E+01  0.00000000000E+00 0.  1.
         13   -1    0    0    0    0 -0.00000000000E+00 -0.00000000000E+00 -0.10000000000E+04  0.10000000000E+04  0.00000000000E+00 0.  1.
    9000005    2    1    2  501    0 -0.22065648433E+02 -0.25061051242E+02 -0.94630180480E+03  0.94689787274E+03  0.36778410783E+01 0.  0.
         13    1    3    3    0    0 -0.12061293397E+01 -0.24586719061E+01 -0.99525044583E+02  0.99562715485E+02  0.00000000000E+00 0.  1.
          1    1    3    3  501    0 -0.20859519093E+02 -0.22602379336E+02 -0.84677676021E+03  0.84733515726E+03  0.00000000000E+00 0.  1.
         21    1    1    2  502  501  0.22065648433E+02  0.25061051242E+02 -0.48180377691E+02  0.58619944767E+02  0.00000000000E+00 0.  1.
<mgrwt>
<rscale>  1 0.30000000E+03</rscale>
<asrwt>0</asrwt>
<pdfrwt beam="1">  1        3 0.20064833E-01 0.30000000E+03</pdfrwt>
<pdfrwt beam="2">0</pdfrwt>
<totfact> 0.99364938E+01</totfact>
</mgrwt>
</event>
<event>
 6    1  0.1956957E-002  0.3000000E+03  0.7818608E-02  0.1093470E+00
          1   -1    0    0  502    0  0.00000000000E+00  0.00000000000E+00  0.38967531994E+01  0.38967531994E+01  0.00000000000E+00 0.  1.
         13   -1    0    0    0    0 -0.00000000000E+00 -0.00000000000E+00 -0.10000000000E+04  0.10000000000E+04  0.00000000000E+00 0.  1.
    9000005    2    1    2  501    0  0.28948099397E+02 -0.43652231885E+02 -0.77081804744E+03  0.77260271770E+03  0.33147140032E+01 0.  0.
         13    1    3    3    0    0  0.21031079175E+02 -0.33695131410E+02 -0.57019106716E+03  0.57157284858E+03  0.00000000000E+00 0.  1.
          3    1    3    3  501    0  0.79170202220E+01 -0.99571004749E+01 -0.20062698028E+03  0.20102986911E+03  0.00000000000E+00 0.  1.
         21    1    1    2  502  501 -0.28948099397E+02  0.43652231885E+02 -0.22528519936E+03  0.23129403550E+03  0.00000000000E+00 0.  1.
<mgrwt>
<rscale>  1 0.30000000E+03</rscale>
<asrwt>0</asrwt>
<pdfrwt beam="1">  1        1 0.14170042E-01 0.30000000E+03</pdfrwt>
<pdfrwt beam="2">0</pdfrwt>
<totfact> 0.46869725E+02</totfact>
</mgrwt>
</event>
<event>
 6    1  0.1956957E-002  0.3000000E+03  0.7818608E-02  0.1093470E+00
          1   -1    0    0  502    0  0.00000000000E+00  0.00000000000E+00  0.17701648419E+01  0.17701648419E+01  0.00000000000E+00 0.  1.
         13   -1    0    0    0    0 -0.00000000000E+00 -0.00000000000E+00 -0.10000000000E+04  0.10000000000E+04  0.00000000000E+00 0.  1.
    9000005    2    1    2  501    0 -0.25102149154E+02  0.28433429273E+02 -0.71479636886E+03  0.71581018930E+03  0.34351684634E+01 0.  0.
         13    1    3    3    0    0 -0.21915807604E+02  0.26367887736E+02 -0.64363751872E+03  0.64455009396E+03  0.00000000000E+00 0.  1.
          1    1    3    3  501    0 -0.31863415507E+01  0.20655415373E+01 -0.71158850142E+02  0.71260095340E+02  0.00000000000E+00 0.  1.
         21    1    1    2  502  501  0.25102149154E+02 -0.28433429273E+02 -0.28343346630E+03  0.28595997554E+03  0.00000000000E+00 0.  1.
<mgrwt>
<rscale>  1 0.30000000E+03</rscale>
<asrwt>0</asrwt>
<pdfrwt beam="1">  1        1 0.64369766E-02 0.30000000E+03</pdfrwt>
<pdfrwt beam="2">0</pdfrwt>
<totfact> 0.13953265E+03</totfact>
</mgrwt>
</event>
<event>
 6    1  0.1956957E-002  0.3000000E+03  0.7818608E-02  0.1093470E+00
          3   -1    0    0  502    0  0.00000000000E+00  0.00000000000E+00  0.10134727511E+01  0.10134727511E+01  0.00000000000E+00 0.  1.
         13   -1    0    0    0    0 -0.00000000000E+00 -0.00000000000E+00 -0.10000000000E+04  0.10000000000E+04  0.00000000000E+00 0.  1.
    9000005    2    1    2  501    0 -0.27277967814E+02  0.16229093218E+02 -0.51615893084E+03  0.51714369807E+03  0.31767238280E+01 0.  0.
         13    1    3    3    0    0 -0.19736049558E+02  0.10728912787E+02 -0.38270294444E+03  0.38336166333E+03  0.00000000000E+00 0.  1.
          1    1    3    3  501    0 -0.75419182557E+01  0.55001804310E+01 -0.13345598639E+03  0.13378203474E+03  0.00000000000E+00 0.  1.
         21    1    1    2  502  501  0.27277967814E+02 -0.16229093218E+02 -0.48282759641E+03  0.48386977468E+03  0.00000000000E+00 0.  1.
<mgrwt>
<rscale>  1 0.30000000E+03</rscale>
<asrwt>0</asrwt>
<pdfrwt beam="1">  1        3 0.36853632E-02 0.30000000E+03</pdfrwt>
<pdfrwt beam="2">0</pdfrwt>
<totfact> 0.15825915E+03</totfact>
</mgrwt>
</event>
<event>
 6    1  0.1956957E-002  0.3000000E+03  0.7818608E-02  0.1093470E+00
          1   -1    0    0  502    0  0.00000000000E+00  0.00000000000E+00  0.73665092569E+01  0.73665092569E+01  0.00000000000E+00 0.  1.
         13   -1    0    0    0    0 -0.00000000000E+00 -0.00000000000E+00 -0.10000000000E+04  0.10000000000E+04  0.00000000000E+00 0.  1.
    9000005    2    1    2  501    0  0.46216673214E+02 -0.66443512489E+00 -0.92040163198E+03  0.92161183722E+03  0.96328594769E+01 0.  0.
         13    1    3    3    0    0  0.82886700510E+01 -0.38639388737E+01 -0.18455549829E+03  0.18478193641E+03  0.00000000000E+00 0.  1.
          1    1    3    3  501    0  0.37928003163E+02  0.31995037488E+01 -0.73584613370E+03  0.73682990081E+03  0.00000000000E+00 0.  1.
         21    1    1    2  502  501 -0.46216673214E+02  0.66443512489E+00 -0.72231858760E+02  0.85754672041E+02  0.00000000000E+00 0.  1.
<mgrwt>
<rscale>  1 0.30000000E+03</rscale>
<asrwt>0</asrwt>
<pdfrwt beam="1">  1        1 0.26787363E-01 0.30000000E+03</pdfrwt>
<pdfrwt beam="2">0</pdfrwt>
<totfact> 0.19986015E+02</totfact>
</mgrwt>
</event>
<event>
 6    1  0.1956957E-002  0.3000000E+03  0.7818608E-02  0.1093470E+00
          1   -1    0    0  502    0  0.00000000000E+00  0.00000000000E+00  0.15028242147E+01  0.15028242147E+01  0.00000000000E+00 0.  1.
         13   -1    0    0    0    0 -0.00000000000E+00 -0.00000000000E+00 -0.10000000000E+04  0.10000000000E+04  0.00000000000E+00 0.  1.
    9000005    2    1    2  501    0 -0.27811880830E+02 -0.17968071565E+02 -0.75895001315E+03  0.75967810373E+03  0.30572070254E+01 0.  0.
         13    1    3    3    0    0 -0.14877117947E+02 -0.11404079384E+02 -0.42382894142E+03  0.42424327131E+03  0.00000000000E+00 0.  1.
          1    1    3    3  501    0 -0.12934762883E+02 -0.65639921807E+01 -0.33512107173E+03  0.33543483242E+03  0.00000000000E+00 0.  1.
         21    1    1    2  502  501  0.27811880830E+02  0.17968071565E+02 -0.23954716263E+03  0.24182472048E+03  0.00000000000E+00 0.  1.
<mgrwt>
<rscale>  1 0.30000000E+03</rscale>
<asrwt>0</asrwt>
<pdfrwt beam="1">  1        1 0.54648268E-02 0.30000000E+03</pdfrwt>
<pdfrwt beam="2">0</pdfrwt>
<totfact> 0.17556246E+03</totfact>
</mgrwt>
</event>
<event>
 6    1  0.1956957E-002  0.3000000E+03  0.7818608E-02  0.1093470E+00
          1   -1    0    0  502    0  0.00000000000E+00  0.00000000000E+00  0.27262597824E+01  0.27262597824E+01  0.00000000000E+00 0.  1.
         13   -1    0    0    0    0 -0.00000000000E+00 -0.00000000000E+00 -0.10000000000E+04  0.10000000000E+04  0.00000000000E+00 0.  1.
    9000005    2    1    2  501    0 -0.33032382033E+02 -0.13979517083E+02 -0.86277025955E+03  0.86352226749E+03  0.34088872818E+01 0.  0.
         13    1    3    3    0    0 -0.29738250660E+02 -0.12037975131E+02 -0.74632525557E+03  0.74701450019E+03  0.00000000000E+00 0.  1.
          1    1    3    3  501    0 -0.32941313731E+01 -0.19415419518E+01 -0.11644500398E+03  0.11650776729E+03  0.00000000000E+00 0.  1.
         21    1    1    2  502  501  0.33032382033E+02  0.13979517083E+02 -0.13450348066E+03  0.13920399230E+03  0.00000000000E+00 0.  1.
<mgrwt>
<rscale>  1 0.30000000E+03</rscale>
<asrwt>0</asrwt>
<pdfrwt beam="1">  1        1 0.99136928E-02 0.30000000E+03</pdfrwt>
<pdfrwt beam="2">0</pdfrwt>
<totfact> 0.76483585E+02</totfact>
</mgrwt>
</event>
<event>
 6    1  0.1956957E-002  0.3000000E+03  0.7818608E-02  0.1093470E+00
          1   -1    0    0  502    0  0.00000000000E+00  0.00000000000E+00  0.25784724092E+01  0.25784724092E+01  0.00000000000E+00 0.  1.
         13   -1    0    0    0    0 -0.00000000000E+00 -0.00000000000E+00 -0.10000000000E+04  0.10000000000E+04  0.00000000000E+00 0.  1.
    9000005    2    1    2  501    0  0.39944326546E+02  0.31135075800E+02 -0.46717297765E+03  0.46991679096E+03  0.25014421744E+01 0.  0.
         13    1    3    3    0    0  0.49202532580E+01  0.28388886927E+01 -0.51851584160E+02  0.52161815162E+02  0.00000000000E+00 0.  1.
          1    1    3    3  501    0  0.35024073288E+02  0.28296187108E+02 -0.41532139349E+03  0.41775497580E+03  0.00000000000E+00 0.  1.
         21    1    1    2  502  501 -0.39944326546E+02 -0.31135075800E+02 -0.53024854994E+03  0.53266168145E+03  0.00000000000E+00 0.  1.
<mgrwt>
<rscale>  1 0.30000000E+03</rscale>
<asrwt>0</asrwt>
<pdfrwt beam="1">  1        1 0.93762831E-02 0.30000000E+03</pdfrwt>
<pdfrwt beam="2">0</pdfrwt>
<totfact> 0.82612907E+02</totfact>
</mgrwt>
</event>
<event>
 6    1  0.1956957E-002  0.3000000E+03  0.7818608E-02  0.1093470E+00
          1   -1    0    0  502    0  0.00000000000E+00  0.00000000000E+00  0.10425652929E+01  0.10425652929E+01  0.00000000000E+00 0.  1.
         13   -1    0    0    0    0 -0.00000000000E+00 -0.00000000000E+00 -0.10000000000E+04  0.10000000000E+04  0.00000000000E+00 0.  1.
    9000005    2    1    2  501    0  0.27097941412E+02 -0.16241954775E+02 -0.57309304917E+03  0.57400793627E+03  0.71671723718E+01 0.  0.
         13    1    3    3    0    0  0.18529853729E+02 -0.10664384051E+02 -0.32357978753E+03  0.32428531182E+03  0.00000000000E+00 0.  1.
          3    1    3    3  501    0  0.85680876828E+01 -0.55775707238E+01 -0.24951326165E+03  0.24972262444E+03  0.00000000000E+00 0.  1.
         21    1    1    2  502  501 -0.27097941412E+02  0.16241954775E+02 -0.42586438553E+03  0.42703462903E+03  0.00000000000E+00 0.  1.
<mgrwt>
<rscale>  1 0.30000000E+03</rscale>
<asrwt>0</asrwt>
<pdfrwt beam="1">  1        1 0.37911545E-02 0.30000000E+03</pdfrwt>
<pdfrwt beam="2">0</pdfrwt>
<totfact> 0.29364674E+03</totfact>
</mgrwt>
</event>
<event>
 6    1  0.1956957E-002  0.3000000E+03  0.7818608E-02  0.1093470E+00
          1   -1    0    0  502    0  0.00000000000E+00  0.00000000000E+00  0.35292074435E+01  0.35292074435E+01  0.00000000000E+00 0.  1.
         13   -1    0    0    0    0 -0.00000000000E+00 -0.00000000000E+00 -0.10000000000E+04  0.10000000000E+04  0.00000000000E+00 0.  1.
    9000005    2    1    2  501    0  0.22603339639E+02  0.45366037192E+02 -0.23765634778E+03  0.24302388208E+03  0.33285629574E+01 0.  0.
         13    1    3    3    0    0  0.10951142152E+02  0.23842884653E+02 -0.11605164855E+03  0.11898065303E+03  0.00000000000E+00 0.  1.
          1    1    3    3  501    0  0.11652197488E+02  0.21523152540E+02 -0.12160469922E+03  0.12404322906E+03  0.00000000000E+00 0.  1.
         21    1    1    2  502  501 -0.22603339639E+02 -0.45366037192E+02 -0.75881444478E+03  0.76050532536E+03  0.00000000000E+00 0.  1.
<mgrwt>
<rscale>  1 0.30000000E+03</rscale>
<asrwt>0</asrwt>
<pdfrwt beam="1">  1        1 0.12833509E-01 0.30000000E+03</pdfrwt>
<pdfrwt beam="2">0</pdfrwt>
<totfact> 0.53650482E+02</totfact>
</mgrwt>
</event>
<event>
 6    1  0.1956957E-002  0.3000000E+03  0.7818608E-02  0.1093470E+00
          3   -1    0    0  502    0  0.00000000000E+00  0.00000000000E+00  0.11940115385E+01  0.11940115385E+01  0.00000000000E+00 0.  1.
         13   -1    0    0    0    0 -0.00000000000E+00 -0.00000000000E+00 -0.10000000000E+04  0.10000000000E+04  0.00000000000E+00 0.  1.
    9000005    2    1    2  501    0  0.28602670085E+02  0.19246078952E+02 -0.49945213702E+03  0.50065151261E+03  0.33129453527E+01 0.  0.
         13    1    3    3    0    0  0.30358177920E+01  0.33444484007E+01 -0.68962460100E+02  0.69110219417E+02  0.00000000000E+00 0.  1.
          1    1    3    3  501    0  0.25566852293E+02  0.15901630552E+02 -0.43048967692E+03  0.43154129319E+03  0.00000000000E+00 0.  1.
         21    1    1    2  502  501 -0.28602670085E+02 -0.19246078952E+02 -0.49935385144E+03  0.50054249893E+03  0.00000000000E+00 0.  1.
<mgrwt>
<rscale>  1 0.30000000E+03</rscale>
<asrwt>0</asrwt>
<pdfrwt beam="1">  1        3 0.43418693E-02 0.30000000E+03</pdfrwt>
<pdfrwt beam="2">0</pdfrwt>
<totfact> 0.12300462E+03</totfact>
</mgrwt>
</event>
<event>
 6    1  0.1956957E-002  0.3000000E+03  0.7818608E-02  0.1093470E+00
          3   -1    0    0  502    0  0.00000000000E+00  0.00000000000E+00  0.17144496720E+01  0.17144496720E+01  0.00000000000E+00 0.  1.
         13   -1    0    0    0    0 -0.00000000000E+00 -0.00000000000E+00 -0.10000000000E+04  0.10000000000E+04  0.00000000000E+00 0.  1.
    9000005    2    1    2  501    0  0.12803752734E+02 -0.38851765928E+02 -0.57449615340E+03  0.57595530562E+03  0.22995639699E+01 0.  0.
         13    1    3    3    0    0  0.38317556132E+01 -0.85516262870E+01 -0.13239343337E+03  0.13272465432E+03  0.00000000000E+00 0.  1.
          3    1    3    3  501    0  0.89719971207E+01 -0.30300139641E+02 -0.44210272003E+03  0.44323065130E+03  0.00000000000E+00 0.  1.
         21    1    1    2  502  501 -0.12803752734E+02  0.38851765928E+02 -0.42378939692E+03  0.42575914405E+03  0.00000000000E+00 0.  1.
<mgrwt>
<rscale>  1 0.30000000E+03</rscale>
<asrwt>0</asrwt>
<pdfrwt beam="1">  1        3 0.62343756E-02 0.30000000E+03</pdfrwt>
<pdfrwt beam="2">0</pdfrwt>
<totfact> 0.70241285E+02</totfact>
</mgrwt>
</event>
<event>
 6    1  0.1956957E-002  0.3000000E+03  0.7818608E-02  0.1093470E+00
          3   -1    0    0  502    0  0.00000000000E+00  0.00000000000E+00  0.34034085995E+01  0.34034085995E+01  0.00000000000E+00 0.  1.
         13   -1    0    0    0    0 -0.00000000000E+00 -0.00000000000E+00 -0.10000000000E+04  0.10000000000E+04  0.00000000000E+00 0.  1.
    9000005    2    1    2  501    0  0.57693351600E+02  0.82586653842E+01 -0.49111871798E+03  0.49457671031E+03  0.34349468315E+01 0.  0.
         13    1    3    3    0    0  0.48611294303E+02  0.70482446407E+01 -0.40275020339E+03  0.40573447230E+03  0.00000000000E+00 0.  1.
          3    1    3    3  501    0  0.90820572963E+01  0.12104207435E+01 -0.88368514587E+02  0.88842238003E+02  0.00000000000E+00 0.  1.
         21    1    1    2  502  501 -0.57693351600E+02 -0.82586653842E+01 -0.50547787343E+03  0.50882669829E+03  0.00000000000E+00 0.  1.
<mgrwt>
<rscale>  1 0.30000000E+03</rscale>
<asrwt>0</asrwt>
<pdfrwt beam="1">  1        3 0.12376057E-01 0.30000000E+03</pdfrwt>
<pdfrwt beam="2">0</pdfrwt>
<totfact> 0.23124806E+02</totfact>
</mgrwt>
</event>
<event>
 6    1  0.1956957E-002  0.3000000E+03  0.7818608E-02  0.1093470E+00
          1   -1    0    0  502    0  0.00000000000E+00  0.00000000000E+00  0.43378700662E+01  0.43378700662E+01  0.00000000000E+00 0.  1.
         13   -1    0    0    0    0 -0.00000000000E+00 -0.00000000000E+00 -0.10000000000E+04  0.10000000000E+04  0.00000000000E+00 0.  1.
    9000005    2    1    2  501    0 -0.52898655031E+02  0.33601039681E+02 -0.65156689467E+03  0.65458248625E+03  0.33934515986E+01 0.  0.
         13    1    3    3    0    0 -0.48793128634E+02  0.29899621398E+02 -0.59139540326E+03  0.59415762198E+03  0.00000000000E+00 0.  1.
          1    1    3    3  501    0 -0.41055263968E+01  0.37014182830E+01 -0.60171491407E+02  0.60424864274E+02  0.00000000000E+00 0.  1.
         21    1    1    2  502  501  0.52898655031E+02 -0.33601039681E+02 -0.34409523527E+03  0.34975538381E+03  0.00000000000E+00 0.  1.
<mgrwt>
<rscale>  1 0.30000000E+03</rscale>
<asrwt>0</asrwt>
<pdfrwt beam="1">  1        1 0.15774106E-01 0.30000000E+03</pdfrwt>
<pdfrwt beam="2">0</pdfrwt>
<totfact> 0.40518933E+02</totfact>
</mgrwt>
</event>
<event>
 6    1  0.1956957E-002  0.3000000E+03  0.7818608E-02  0.1093470E+00
          1   -1    0    0  502    0  0.00000000000E+00  0.00000000000E+00  0.14898995608E+01  0.14898995608E+01  0.00000000000E+00 0.  1.
         13   -1    0    0    0    0 -0.00000000000E+00 -0.00000000000E+00 -0.10000000000E+04  0.10000000000E+04  0.00000000000E+00 0.  1.
    9000005    2    1    2  501    0  0.31288940215E+02  0.19885068185E+02 -0.63579871906E+03  0.63688880260E+03  0.35947202591E+01 0.  0.
         13    1    3    3    0    0  0.11543650312E+02  0.54497848113E+01 -0.20769191909E+03  0.20808385154E+03  0.00000000000E+00 0.  1.
          3    1    3    3  501    0  0.19745289902E+02  0.14435283374E+02 -0.42810679997E+03  0.42880495107E+03  0.00000000000E+00 0.  1.
         21    1    1    2  502  501 -0.31288940215E+02 -0.19885068185E+02 -0.36271138138E+03  0.36460109696E+03  0.00000000000E+00 0.  1.
<mgrwt>
<rscale>  1 0.30000000E+03</rscale>
<asrwt>0</asrwt>
<pdfrwt beam="1">  1        1 0.54178280E-02 0.30000000E+03</pdfrwt>
<pdfrwt beam="2">0</pdfrwt>
<totfact> 0.17770499E+03</totfact>
</mgrwt>
</event>
<event>
 6    1  0.1956957E-002  0.3000000E+03  0.7818608E-02  0.1093470E+00
          1   -1    0    0  502    0  0.00000000000E+00  0.00000000000E+00  0.13703946899E+01  0.13703946899E+01  0.00000000000E+00 0.  1.
         13   -1    0    0    0    0 -0.00000000000E+00 -0.00000000000E+00 -0.10000000000E+04  0.10000000000E+04  0.00000000000E+00 0.  1.
    9000005    2    1    2  501    0 -0.21393555250E+02  0.26398042623E+02 -0.69599053508E+03  0.69682984289E+03  0.38031777902E+01 0.  0.
         13    1    3    3    0    0 -0.60977231759E+01  0.77092012809E+01 -0.16802368297E+03  0.16831093860E+03  0.00000000000E+00 0.  1.
          3    1    3    3  501    0 -0.15295832074E+02  0.18688841342E+02 -0.52796685211E+03  0.52851890429E+03  0.00000000000E+00 0.  1.
         21    1    1    2  502  501  0.21393555250E+02 -0.26398042623E+02 -0.30263907023E+03  0.30454055180E+03  0.00000000000E+00 0.  1.
<mgrwt>
<rscale>  1 0.30000000E+03</rscale>
<asrwt>0</asrwt>
<pdfrwt beam="1">  1        1 0.49832639E-02 0.30000000E+03</pdfrwt>
<pdfrwt beam="2">0</pdfrwt>
<totfact> 0.19985567E+03</totfact>
</mgrwt>
</event>
<event>
 6    1  0.1956957E-002  0.3000000E+03  0.7818608E-02  0.1093470E+00
          1   -1    0    0  502    0  0.00000000000E+00  0.00000000000E+00  0.26669397764E+01  0.26669397764E+01  0.00000000000E+00 0.  1.
         13   -1    0    0    0    0 -0.00000000000E+00 -0.00000000000E+00 -0.10000000000E+04  0.10000000000E+04  0.00000000000E+00 0.  1.
    9000005    2    1    2  501    0 -0.38659907080E+02 -0.44836049703E+01 -0.82783176187E+03  0.82875494689E+03  0.38268644366E+01 0.  0.
         13    1    3    3    0    0 -0.23810205565E+02 -0.32873665229E+01 -0.47237057158E+03  0.47298170108E+03  0.00000000000E+00 0.  1.
          1    1    3    3  501    0 -0.14849701515E+02 -0.11962384474E+01 -0.35546119030E+03  0.35577324580E+03  0.00000000000E+00 0.  1.
         21    1    1    2  502  501  0.38659907080E+02  0.44836049703E+01 -0.16950129835E+03  0.17391199289E+03  0.00000000000E+00 0.  1.
<mgrwt>
<rscale>  1 0.30000000E+03</rscale>
<asrwt>0</asrwt>
<pdfrwt beam="1">  1        1 0.96979833E-02 0.30000000E+03</pdfrwt>
<pdfrwt beam="2">0</pdfrwt>
<totfact> 0.78844473E+02</totfact>
</mgrwt>
</event>
<event>
 6    1  0.1956957E-002  0.3000000E+03  0.7818608E-02  0.1093470E+00
          1   -1    0    0  502    0  0.00000000000E+00  0.00000000000E+00  0.37230490162E+01  0.37230490162E+01  0.00000000000E+00 0.  1.
         13   -1    0    0    0    0 -0.00000000000E+00 -0.00000000000E+00 -0.10000000000E+04  0.10000000000E+04  0.00000000000E+00 0.  1.
    9000005    2    1    2  501    0 -0.41729869782E+02 -0.12001372677E+02 -0.84953455560E+03  0.85069120403E+03  0.90082445782E+01 0.  0.
         13    1    3    3    0    0 -0.12298227230E+02 -0.25145972237E+01 -0.17593494308E+03  0.17638218104E+03  0.00000000000E+00 0.  1.
          3    1    3    3  501    0 -0.29431642551E+02 -0.94867754535E+01 -0.67359961252E+03  0.67430902298E+03  0.00000000000E+00 0.  1.
         21    1    1    2  502  501  0.41729869782E+02  0.12001372677E+02 -0.14674239538E+03  0.15303184499E+03  0.00000000000E+00 0.  1.
<mgrwt>
<rscale>  1 0.30000000E+03</rscale>
<asrwt>0</asrwt>
<pdfrwt beam="1">  1        1 0.13538389E-01 0.30000000E+03</pdfrwt>
<pdfrwt beam="2">0</pdfrwt>
<totfact> 0.49873427E+02</totfact>
</mgrwt>
</event>
<event>
 6    1  0.1956957E-002  0.3000000E+03  0.7818608E-02  0.1093470E+00
          3   -1    0    0  502    0  0.00000000000E+00  0.00000000000E+00  0.50309392695E+01  0.50309392695E+01  0.00000000000E+00 0.  1.
         13   -1    0    0    0    0 -0.00000000000E+00 -0.00000000000E+00 -0.10000000000E+04  0.10000000000E+04  0.00000000000E+00 0.  1.
    9000005    2    1    2  501    0 -0.49779375219E+02  0.15767062799E+02 -0.83743917715E+03  0.83907235803E+03  0.33852793418E+01 0.  0.
         13    1    3    3    0    0 -0.17878690724E+02  0.43798322294E+01 -0.27812419633E+03  0.27873266600E+03  0.00000000000E+00 0.  1.
          1    1    3    3  501    0 -0.31900684495E+02  0.11387230569E+02 -0.55931498082E+03  0.56033969203E+03  0.00000000000E+00 0.  1.
         21    1    1    2  502  501  0.49779375219E+02 -0.15767062799E+02 -0.15752988358E+03  0.16595858124E+03  0.00000000000E+00 0.  1.
<mgrwt>
<rscale>  1 0.30000000E+03</rscale>
<asrwt>0</asrwt>
<pdfrwt beam="1">  1        3 0.18294363E-01 0.30000000E+03</pdfrwt>
<pdfrwt beam="2">0</pdfrwt>
<totfact> 0.11736684E+02</totfact>
</mgrwt>
</event>
<event>
 6    1  0.1956957E-002  0.3000000E+03  0.7818608E-02  0.1093470E+00
          1   -1    0    0  502    0  0.00000000000E+00  0.00000000000E+00  0.78177443537E+01  0.78177443537E+01  0.00000000000E+00 0.  1.
         13   -1    0    0    0    0 -0.00000000000E+00 -0.00000000000E+00 -0.10000000000E+04  0.10000000000E+04  0.00000000000E+00 0.  1.
    9000005    2    1    2  501    0  0.18085072250E+02  0.44990411357E+02 -0.91738483877E+03  0.91867818791E+03  0.48439214527E+01 0.  0.
         13    1    3    3    0    0  0.46847792310E+01  0.17377758116E+02 -0.32133959318E+03  0.32184323479E+03  0.00000000000E+00 0.  1.
          1    1    3    3  501    0  0.13400293019E+02  0.27612653241E+02 -0.59604524560E+03  0.59683495312E+03  0.00000000000E+00 0.  1.
         21    1    1    2  502  501 -0.18085072250E+02 -0.44990411357E+02 -0.74797416872E+02  0.89139556444E+02  0.00000000000E+00 0.  1.
<mgrwt>
<rscale>  1 0.30000000E+03</rscale>
<asrwt>0</asrwt>
<pdfrwt beam="1">  1        1 0.28428221E-01 0.30000000E+03</pdfrwt>
<pdfrwt beam="2">0</pdfrwt>
<totfact> 0.18482255E+02</totfact>
</mgrwt>
</event>
<event>
 6    1  0.1956957E-002  0.3000000E+03  0.7818608E-02  0.1093470E+00
          1   -1    0    0  502    0  0.00000000000E+00  0.00000000000E+00  0.19703260146E+01  0.19703260146E+01  0.00000000000E+00 0.  1.
         13   -1    0    0    0    0 -0.00000000000E+00 -0.00000000000E+00 -0.10000000000E+04  0.10000000000E+04  0.00000000000E+00 0.  1.
    9000005    2    1    2  501    0 -0.31603599686E+02  0.23245043762E+01 -0.84938791942E+03  0.84998821511E+03  0.39921599447E+01 0.  0.
         13    1    3    3    0    0 -0.12537443966E+02  0.25520352271E+01 -0.31249436705E+03  0.31275618271E+03  0.00000000000E+00 0.  1.
          3    1    3    3  501    0 -0.19066155721E+02 -0.22753085094E+00 -0.53689355237E+03  0.53723203240E+03  0.00000000000E+00 0.  1.
         21    1    1    2  502  501  0.31603599686E+02 -0.23245043762E+01 -0.14864175457E+03  0.15198211090E+03  0.00000000000E+00 0.  1.
<mgrwt>
<rscale>  1 0.30000000E+03</rscale>
<asrwt>0</asrwt>
<pdfrwt beam="1">  1        1 0.71648370E-02 0.30000000E+03</pdfrwt>
<pdfrwt beam="2">0</pdfrwt>
<totfact> 0.12010890E+03</totfact>
</mgrwt>
</event>
<event>
 6    1  0.1956957E-002  0.3000000E+03  0.7818608E-02  0.1093470E+00
          1   -1    0    0  502    0  0.00000000000E+00  0.00000000000E+00  0.21999991385E+01  0.21999991385E+01  0.00000000000E+00 0.  1.
         13   -1    0    0    0    0 -0.00000000000E+00 -0.00000000000E+00 -0.10000000000E+04  0.10000000000E+04  0.00000000000E+00 0.  1.
    9000005    2    1    2  501    0  0.45354875241E+02  0.10482807615E+02 -0.55637403046E+03  0.55832632194E+03  0.30440168401E+01 0.  0.
         13    1    3    3    0    0  0.39392368355E+02  0.87735771378E+01 -0.49325914783E+03  0.49490738655E+03  0.00000000000E+00 0.  1.
          3    1    3    3  501    0  0.59625068866E+01  0.17092304777E+01 -0.63114882623E+02  0.63418935388E+02  0.00000000000E+00 0.  1.
         21    1    1    2  502  501 -0.45354875241E+02 -0.10482807615E+02 -0.44142597041E+03  0.44387367720E+03  0.00000000000E+00 0.  1.
<mgrwt>
<rscale>  1 0.30000000E+03</rscale>
<asrwt>0</asrwt>
<pdfrwt beam="1">  1        1 0.80000137E-02 0.30000000E+03</pdfrwt>
<pdfrwt beam="2">0</pdfrwt>
<totfact> 0.10298392E+03</totfact>
</mgrwt>
</event>
<event>
 6    1  0.1956957E-002  0.3000000E+03  0.7818608E-02  0.1093470E+00
          3   -1    0    0  502    0  0.00000000000E+00  0.00000000000E+00  0.13351115635E+01  0.13351115635E+01  0.00000000000E+00 0.  1.
         13   -1    0    0    0    0 -0.00000000000E+00 -0.00000000000E+00 -0.10000000000E+04  0.10000000000E+04  0.00000000000E+00 0.  1.
    9000005    2    1    2  501    0  0.26991501929E+01  0.34514185085E+02 -0.65771365935E+03  0.65863078565E+03  0.29563029756E+01 0.  0.
         13    1    3    3    0    0  0.87128140770E+00  0.10114796786E+02 -0.16836853617E+03  0.16867433775E+03  0.00000000000E+00 0.  1.
          3    1    3    3  501    0  0.18278687852E+01  0.24399388299E+02 -0.48934512318E+03  0.48995644789E+03  0.00000000000E+00 0.  1.
         21    1    1    2  502  501 -0.26991501929E+01 -0.34514185085E+02 -0.34095122909E+03  0.34270432592E+03  0.00000000000E+00 0.  1.
<mgrwt>
<rscale>  1 0.30000000E+03</rscale>
<asrwt>0</asrwt>
<pdfrwt beam="1">  1        3 0.48549614E-02 0.30000000E+03</pdfrwt>
<pdfrwt beam="2">0</pdfrwt>
<totfact> 0.10353817E+03</totfact>
</mgrwt>
</event>
<event>
 6    1  0.1956957E-002  0.3000000E+03  0.7818608E-02  0.1093470E+00
          3   -1    0    0  502    0  0.00000000000E+00  0.00000000000E+00  0.11107158185E+01  0.11107158185E+01  0.00000000000E+00 0.  1.
         13   -1    0    0    0    0 -0.00000000000E+00 -0.00000000000E+00 -0.10000000000E+04  0.10000000000E+04  0.00000000000E+00 0.  1.
    9000005    2    1    2  501    0 -0.26970632366E+02  0.18689855172E+02 -0.58113420238E+03  0.58206891114E+03  0.32450646097E+01 0.  0.
         13    1    3    3    0    0 -0.22438154624E+02  0.15392449886E+02 -0.45852464714E+03  0.45933130780E+03  0.00000000000E+00 0.  1.
          1    1    3    3  501    0 -0.45324777416E+01  0.32974052868E+01 -0.12260955525E+03  0.12273760334E+03  0.00000000000E+00 0.  1.
         21    1    1    2  502  501  0.26970632366E+02 -0.18689855172E+02 -0.41775508180E+03  0.41904180468E+03  0.00000000000E+00 0.  1.
<mgrwt>
<rscale>  1 0.30000000E+03</rscale>
<asrwt>0</asrwt>
<pdfrwt beam="1">  1        3 0.40389751E-02 0.30000000E+03</pdfrwt>
<pdfrwt beam="2">0</pdfrwt>
<totfact> 0.13746382E+03</totfact>
</mgrwt>
</event>
<event>
 6    1  0.1956957E-002  0.3000000E+03  0.7818608E-02  0.1093470E+00
          1   -1    0    0  502    0  0.00000000000E+00  0.00000000000E+00  0.44571574955E+01  0.44571574955E+01  0.00000000000E+00 0.  1.
         13   -1    0    0    0    0 -0.00000000000E+00 -0.00000000000E+00 -0.10000000000E+04  0.10000000000E+04  0.00000000000E+00 0.  1.
    9000005    2    1    2  501    0 -0.17472810065E+02 -0.46228485763E+02 -0.83525573311E+03  0.83672424651E+03  0.35990315368E+01 0.  0.
         13    1    3    3    0    0 -0.14385297618E+02 -0.41022646679E+02 -0.74187057756E+03  0.74314315456E+03  0.00000000000E+00 0.  1.
          3    1    3    3  501    0 -0.30875124466E+01 -0.52058390841E+01 -0.93385155549E+02  0.93581091950E+02  0.00000000000E+00 0.  1.
         21    1    1    2  502  501  0.17472810065E+02  0.46228485763E+02 -0.16028710940E+03  0.16773291098E+03  0.00000000000E+00 0.  1.
<mgrwt>
<rscale>  1 0.30000000E+03</rscale>
<asrwt>0</asrwt>
<pdfrwt beam="1">  1        1 0.16207880E-01 0.30000000E+03</pdfrwt>
<pdfrwt beam="2">0</pdfrwt>
<totfact> 0.39058238E+02</totfact>
</mgrwt>
</event>
<event>
 6    1  0.1956957E-002  0.3000000E+03  0.7818608E-02  0.1093470E+00
          1   -1    0    0  502    0  0.00000000000E+00  0.00000000000E+00  0.25660039283E+02  0.25660039283E+02  0.00000000000E+00 0.  1.
         13   -1    0    0    0    0 -0.00000000000E+00 -0.00000000000E+00 -0.10000000000E+04  0.10000000000E+04  0.00000000000E+00 0.  1.
    9000005    2    1    2  501    0  0.38499053646E+02  0.23418494769E+02 -0.97928778143E+03  0.98032700543E+03  0.24239799254E+01 0.  0.
         13    1    3    3    0    0  0.33948802954E+02  0.20379896070E+02 -0.84294052465E+03  0.84387000745E+03  0.00000000000E+00 0.  1.
          3    1    3    3  501    0  0.45502506914E+01  0.30385986996E+01 -0.13634725678E+03  0.13645699797E+03  0.00000000000E+00 0.  1.
         21    1    1    2  502  501 -0.38499053646E+02 -0.23418494769E+02  0.49478207129E+01  0.45333033857E+02  0.00000000000E+00 0.  1.
<mgrwt>
<rscale>  1 0.30000000E+03</rscale>
<asrwt>0</asrwt>
<pdfrwt beam="1">  1        1 0.93309431E-01 0.30000000E+03</pdfrwt>
<pdfrwt beam="2">0</pdfrwt>
<totfact> 0.37834110E+01</totfact>
</mgrwt>
</event>
<event>
 6    1  0.1956957E-002  0.3000000E+03  0.7818608E-02  0.1093470E+00
          1   -1    0    0  502    0  0.00000000000E+00  0.00000000000E+00  0.11596381825E+01  0.11596381825E+01  0.00000000000E+00 0.  1.
         13   -1    0    0    0    0 -0.00000000000E+00 -0.00000000000E+00 -0.10000000000E+04  0.10000000000E+04  0.00000000000E+00 0.  1.
    9000005    2    1    2  501    0  0.21246126950E+02 -0.24164076632E+02 -0.35858756952E+03  0.36009884656E+03  0.71297805275E+01 0.  0.
         13    1    3    3    0    0  0.16202777870E+02 -0.20352612452E+02 -0.31229288515E+03  0.31337454421E+03  0.00000000000E+00 0.  1.
          1    1    3    3  501    0  0.50433490798E+01 -0.38114641803E+01 -0.46294684369E+02  0.46724302349E+02  0.00000000000E+00 0.  1.
         21    1    1    2  502  501 -0.21246126950E+02  0.24164076632E+02 -0.64025279230E+03  0.64106079162E+03  0.00000000000E+00 0.  1.
<mgrwt>
<rscale>  1 0.30000000E+03</rscale>
<asrwt>0</asrwt>
<pdfrwt beam="1">  1        1 0.42168750E-02 0.30000000E+03</pdfrwt>
<pdfrwt beam="2">0</pdfrwt>
<totfact> 0.25278655E+03</totfact>
</mgrwt>
</event>
<event>
 6    1  0.1956957E-002  0.3000000E+03  0.7818608E-02  0.1093470E+00
          1   -1    0    0  502    0  0.00000000000E+00  0.00000000000E+00  0.10317027797E+01  0.10317027797E+01  0.00000000000E+00 0.  1.
         13   -1    0    0    0    0 -0.00000000000E+00 -0.00000000000E+00 -0.10000000000E+04  0.10000000000E+04  0.00000000000E+00 0.  1.
    9000005    2    1    2  501    0 -0.35389144967E+01  0.31752276216E+02 -0.51737241444E+03  0.51837724535E+03  0.44746304750E+01 0.  0.
         13    1    3    3    0    0  0.71331085867E+00  0.62674028764E+01 -0.12010284046E+03  0.12026837256E+03  0.00000000000E+00 0.  1.
          3    1    3    3  501    0 -0.42522253554E+01  0.25484873340E+02 -0.39726957398E+03  0.39810887280E+03  0.00000000000E+00 0.  1.
         21    1    1    2  502  501  0.35389144967E+01 -0.31752276216E+02 -0.48159588278E+03  0.48265445743E+03  0.00000000000E+00 0.  1.
<mgrwt>
<rscale>  1 0.30000000E+03</rscale>
<asrwt>0</asrwt>
<pdfrwt beam="1">  1        1 0.37516544E-02 0.30000000E+03</pdfrwt>
<pdfrwt beam="2">0</pdfrwt>
<totfact> 0.29800762E+03</totfact>
</mgrwt>
</event>
<event>
 6    1  0.1956957E-002  0.3000000E+03  0.7818608E-02  0.1093470E+00
          3   -1    0    0  502    0  0.00000000000E+00  0.00000000000E+00  0.19489328385E+02  0.19489328385E+02  0.00000000000E+00 0.  1.
         13   -1    0    0    0    0 -0.00000000000E+00 -0.00000000000E+00 -0.10000000000E+04  0.10000000000E+04  0.00000000000E+00 0.  1.
    9000005    2    1    2  501    0 -0.29473936243E+02 -0.76846786178E+02 -0.90198468321E+03  0.90573313155E+03  0.14125786779E+01 0.  0.
         13    1    3    3    0    0 -0.90874050130E+01 -0.22005933871E+02 -0.25855489847E+03  0.25964875809E+03  0.00000000000E+00 0.  1.
          1    1    3    3  501    0 -0.20386531230E+02 -0.54840852307E+02 -0.64342978474E+03  0.64608437346E+03  0.00000000000E+00 0.  1.
         21    1    1    2  502  501  0.29473936243E+02  0.76846786178E+02 -0.78525988406E+02  0.11375619684E+03  0.00000000000E+00 0.  1.
<mgrwt>
<rscale>  1 0.30000000E+03</rscale>
<asrwt>0</asrwt>
<pdfrwt beam="1">  1        3 0.70870434E-01 0.30000000E+03</pdfrwt>
<pdfrwt beam="2">0</pdfrwt>
<totfact> 0.86931390E+00</totfact>
</mgrwt>
</event>
<event>
 6    1  0.1956957E-002  0.3000000E+03  0.7818608E-02  0.1093470E+00
          3   -1    0    0  502    0  0.00000000000E+00  0.00000000000E+00  0.94671084081E+01  0.94671084081E+01  0.00000000000E+00 0.  1.
         13   -1    0    0    0    0 -0.00000000000E+00 -0.00000000000E+00 -0.10000000000E+04  0.10000000000E+04  0.00000000000E+00 0.  1.
    9000005    2    1    2  501    0 -0.15366672929E+02  0.34190599439E+02 -0.96100466548E+03  0.96174868571E+03  0.50433796160E+01 0.  0.
         13    1    3    3    0    0 -0.10191497007E+02  0.16526875970E+02 -0.49365063286E+03  0.49403233858E+03  0.00000000000E+00 0.  1.
          1    1    3    3  501    0 -0.51751759218E+01  0.17663723469E+02 -0.46735403262E+03  0.46771634714E+03  0.00000000000E+00 0.  1.
         21    1    1    2  502  501  0.15366672929E+02 -0.34190599439E+02 -0.29528226115E+02  0.47718422694E+02  0.00000000000E+00 0.  1.
<mgrwt>
<rscale>  1 0.30000000E+03</rscale>
<asrwt>0</asrwt>
<pdfrwt beam="1">  1        3 0.34425921E-01 0.30000000E+03</pdfrwt>
<pdfrwt beam="2">0</pdfrwt>
<totfact> 0.35945556E+01</totfact>
</mgrwt>
</event>
<event>
 6    1  0.1956957E-002  0.3000000E+03  0.7818608E-02  0.1093470E+00
          1   -1    0    0  502    0  0.00000000000E+00  0.00000000000E+00  0.12834536559E+01  0.12834536559E+01  0.00000000000E+00 0.  1.
         13   -1    0    0    0    0 -0.00000000000E+00 -0.00000000000E+00 -0.10000000000E+04  0.10000000000E+04  0.00000000000E+00 0.  1.
    9000005    2    1    2  501    0 -0.23512274395E+02 -0.22934693705E+02 -0.69741016974E+03  0.69819211461E+03  0.35294225771E+01 0.  0.
         13    1    3    3    0    0 -0.16192717750E+01 -0.92421694338E+00 -0.27603038853E+02  0.27665935226E+02  0.00000000000E+00 0.  1.
          3    1    3    3  501    0 -0.21893002620E+02 -0.22010476762E+02 -0.66980713088E+03  0.67052617938E+03  0.00000000000E+00 0.  1.
         21    1    1    2  502  501  0.23512274395E+02  0.22934693705E+02 -0.30130637661E+03  0.30309133905E+03  0.00000000000E+00 0.  1.
<mgrwt>
<rscale>  1 0.30000000E+03</rscale>
<asrwt>0</asrwt>
<pdfrwt beam="1">  1        1 0.46671140E-02 0.30000000E+03</pdfrwt>
<pdfrwt beam="2">0</pdfrwt>
<totfact> 0.21915107E+03</totfact>
</mgrwt>
</event>
<event>
 6    1  0.1956957E-002  0.3000000E+03  0.7818608E-02  0.1093470E+00
          1   -1    0    0  502    0  0.00000000000E+00  0.00000000000E+00  0.31940717575E+01  0.31940717575E+01  0.00000000000E+00 0.  1.
         13   -1    0    0    0    0 -0.00000000000E+00 -0.00000000000E+00 -0.10000000000E+04  0.10000000000E+04  0.00000000000E+00 0.  1.
    9000005    2    1    2  501    0 -0.87436786025E+01  0.55133043376E+02 -0.57450225773E+03  0.57721696614E+03  0.32368917260E+01 0.  0.
         13    1    3    3    0    0 -0.42822463698E+01  0.32338706532E+02 -0.32142465969E+03  0.32307575185E+03  0.00000000000E+00 0.  1.
          3    1    3    3  501    0 -0.44614322328E+01  0.22794336844E+02 -0.25307759804E+03  0.25414121428E+03  0.00000000000E+00 0.  1.
         21    1    1    2  502  501  0.87436786025E+01 -0.55133043376E+02 -0.42230367051E+03  0.42597710562E+03  0.00000000000E+00 0.  1.
<mgrwt>
<rscale>  1 0.30000000E+03</rscale>
<asrwt>0</asrwt>
<pdfrwt beam="1">  1        1 0.11614831E-01 0.30000000E+03</pdfrwt>
<pdfrwt beam="2">0</pdfrwt>
<totfact> 0.61508308E+02</totfact>
</mgrwt>
</event>
<event>
 6    1  0.1956957E-002  0.3000000E+03  0.7818608E-02  0.1093470E+00
          1   -1    0    0  502    0  0.00000000000E+00  0.00000000000E+00  0.35528254545E+01  0.35528254545E+01  0.00000000000E+00 0.  1.
         13   -1    0    0    0    0 -0.00000000000E+00 -0.00000000000E+00 -0.10000000000E+04  0.10000000000E+04  0.00000000000E+00 0.  1.
    9000005    2    1    2  501    0  0.45854344051E+02  0.31152181554E+02 -0.68211993115E+03  0.68437466952E+03  0.28299341660E+01 0.  0.
         13    1    3    3    0    0  0.82263966005E+00  0.10803547911E+01 -0.16922737863E+02  0.16977130477E+02  0.00000000000E+00 0.  1.
          1    1    3    3  501    0  0.45031704391E+02  0.30071826763E+02 -0.66519719329E+03  0.66739753905E+03  0.00000000000E+00 0.  1.
         21    1    1    2  502  501 -0.45854344051E+02 -0.31152181554E+02 -0.31432724339E+03  0.31917815593E+03  0.00000000000E+00 0.  1.
<mgrwt>
<rscale>  1 0.30000000E+03</rscale>
<asrwt>0</asrwt>
<pdfrwt beam="1">  1        1 0.12919393E-01 0.30000000E+03</pdfrwt>
<pdfrwt beam="2">0</pdfrwt>
<totfact> 0.53163600E+02</totfact>
</mgrwt>
</event>
<event>
 6    1  0.1956957E-002  0.3000000E+03  0.7818608E-02  0.1093470E+00
          3   -1    0    0  502    0  0.00000000000E+00  0.00000000000E+00  0.12286321018E+01  0.12286321018E+01  0.00000000000E+00 0.  1.
         13   -1    0    0    0    0 -0.00000000000E+00 -0.00000000000E+00 -0.10000000000E+04  0.10000000000E+04  0.00000000000E+00 0.  1.
    9000005    2    1    2  501    0  0.19952229536E+02 -0.25654003100E+02 -0.68479447096E+03  0.68557421482E+03  0.35095911629E+01 0.  0.
         13    1    3    3    0    0  0.19743931334E+02 -0.24268860916E+02 -0.65693767091E+03  0.65768222106E+03  0.00000000000E+00 0.  1.
          3    1    3    3  501    0  0.20829820177E+00 -0.13851421845E+01 -0.27856800052E+02  0.27891993764E+02  0.00000000000E+00 0.  1.
         21    1    1    2  502  501 -0.19952229536E+02  0.25654003100E+02 -0.31397689694E+03  0.31565441728E+03  0.00000000000E+00 0.  1.
<mgrwt>
<rscale>  1 0.30000000E+03</rscale>
<asrwt>0</asrwt>
<pdfrwt beam="1">  1        3 0.44677625E-02 0.30000000E+03</pdfrwt>
<pdfrwt beam="2">0</pdfrwt>
<totfact> 0.11770724E+03</totfact>
</mgrwt>
</event>
<event>
 6    1  0.1956957E-002  0.3000000E+03  0.7818608E-02  0.1093470E+00
          1   -1    0    0  502    0  0.00000000000E+00  0.00000000000E+00  0.10315637253E+02  0.10315637253E+02  0.00000000000E+00 0.  1.
         13   -1    0    0    0    0 -0.00000000000E+00 -0.00000000000E+00 -0.10000000000E+04  0.10000000000E+04  0.00000000000E+00 0.  1.
    9000005    2    1    2  501    0 -0.78388454124E+02 -0.54020079780E+02 -0.67053375890E+03  0.67726905388E+03  0.38640344998E+01 0.  0.
         13    1    3    3    0    0 -0.36675133234E+02 -0.26614228336E+02 -0.30784826371E+03  0.31116544798E+03  0.00000000000E+00 0.  1.
          1    1    3    3  501    0 -0.41713320890E+02 -0.27405851444E+02 -0.36268549519E+03  0.36610360590E+03  0.00000000000E+00 0.  1.
         21    1    1    2  502  501  0.78388454124E+02  0.54020079780E+02 -0.31915060385E+03  0.33304658337E+03  0.00000000000E+00 0.  1.
<mgrwt>
<rscale>  1 0.30000000E+03</rscale>
<asrwt>0</asrwt>
<pdfrwt beam="1">  1        1 0.37511487E-01 0.30000000E+03</pdfrwt>
<pdfrwt beam="2">0</pdfrwt>
<totfact> 0.12854705E+02</totfact>
</mgrwt>
</event>
<event>
 6    1  0.1956957E-002  0.3000000E+03  0.7818608E-02  0.1093470E+00
          1   -1    0    0  502    0  0.00000000000E+00  0.00000000000E+00  0.96039834018E+00  0.96039834018E+00  0.00000000000E+00 0.  1.
         13   -1    0    0    0    0 -0.00000000000E+00 -0.00000000000E+00 -0.10000000000E+04  0.10000000000E+04  0.00000000000E+00 0.  1.
    9000005    2    1    2  501    0  0.15815372685E+02 -0.26520680083E+02 -0.53193660194E+03  0.53283788784E+03  0.24887254138E+01 0.  0.
         13    1    3    3    0    0  0.13177896517E+02 -0.20395792008E+02 -0.40787215306E+03  0.40859434471E+03  0.00000000000E+00 0.  1.
          3    1    3    3  501    0  0.26374761685E+01 -0.61248880755E+01 -0.12406444888E+03  0.12424354313E+03  0.00000000000E+00 0.  1.
         21    1    1    2  502  501 -0.15815372685E+02  0.26520680083E+02 -0.46710299972E+03  0.46812251050E+03  0.00000000000E+00 0.  1.
<mgrwt>
<rscale>  1 0.30000000E+03</rscale>
<asrwt>0</asrwt>
<pdfrwt beam="1">  1        1 0.34923650E-02 0.30000000E+03</pdfrwt>
<pdfrwt beam="2">0</pdfrwt>
<totfact> 0.32959921E+03</totfact>
</mgrwt>
</event>
<event>
 6    1  0.1956957E-002  0.3000000E+03  0.7818608E-02  0.1093470E+00
          1   -1    0    0  502    0  0.00000000000E+00  0.00000000000E+00  0.14182169120E+01  0.14182169120E+01  0.00000000000E+00 0.  1.
         13   -1    0    0    0    0 -0.00000000000E+00 -0.00000000000E+00 -0.10000000000E+04  0.10000000000E+04  0.00000000000E+00 0.  1.
    9000005    2    1    2  501    0 -0.36262181309E+02  0.53927628405E+01 -0.39175904430E+03  0.39348905657E+03  0.38027838492E+01 0.  0.
         13    1    3    3    0    0 -0.28690058334E+02  0.39995885574E+01 -0.29198818124E+03  0.29342156387E+03  0.00000000000E+00 0.  1.
          1    1    3    3  501    0 -0.75721229744E+01  0.13931742831E+01 -0.99770863057E+02  0.10006749270E+03  0.00000000000E+00 0.  1.
         21    1    1    2  502  501  0.36262181309E+02 -0.53927628405E+01 -0.60682273879E+03  0.60792916034E+03  0.00000000000E+00 0.  1.
<mgrwt>
<rscale>  1 0.30000000E+03</rscale>
<asrwt>0</asrwt>
<pdfrwt beam="1">  1        1 0.51571633E-02 0.30000000E+03</pdfrwt>
<pdfrwt beam="2">0</pdfrwt>
<totfact> 0.19045003E+03</totfact>
</mgrwt>
</event>
<event>
 6    1  0.1956957E-002  0.3000000E+03  0.7818608E-02  0.1093470E+00
          3   -1    0    0  502    0  0.00000000000E+00  0.00000000000E+00  0.96991157087E+00  0.96991157087E+00  0.00000000000E+00 0.  1.
         13   -1    0    0    0    0 -0.00000000000E+00 -0.00000000000E+00 -0.10000000000E+04  0.10000000000E+04  0.00000000000E+00 0.  1.
    9000005    2    1    2  501    0 -0.29476361031E+02 -0.81854579178E+01 -0.58439746912E+03  0.58521028561E+03  0.38495315555E+01 0.  0.
         13    1    3    3    0    0 -0.11820234312E+02 -0.50994309447E+01 -0.23045954785E+03  0.23081881494E+03  0.00000000000E+00 0.  1.
          3    1    3    3  501    0 -0.17656126719E+02 -0.30860269732E+01 -0.35393792127E+03  0.35439147068E+03  0.00000000000E+00 0.  1.
         21    1    1    2  502  501  0.29476361031E+02  0.81854579178E+01 -0.41463261931E+03  0.41575962596E+03  0.00000000000E+00 0.  1.
<mgrwt>
<rscale>  1 0.30000000E+03</rscale>
<asrwt>0</asrwt>
<pdfrwt beam="1">  1        3 0.35269586E-02 0.30000000E+03</pdfrwt>
<pdfrwt beam="2">0</pdfrwt>
<totfact> 0.16935669E+03</totfact>
</mgrwt>
</event>
<event>
 6    1  0.1956957E-002  0.3000000E+03  0.7818608E-02  0.1093470E+00
          1   -1    0    0  502    0  0.00000000000E+00  0.00000000000E+00  0.36046613240E+01  0.36046613240E+01  0.00000000000E+00 0.  1.
         13   -1    0    0    0    0 -0.00000000000E+00 -0.00000000000E+00 -0.10000000000E+04  0.10000000000E+04  0.00000000000E+00 0.  1.
    9000005    2    1    2  501    0 -0.26781146511E+02  0.24518121931E+02 -0.89772950009E+03  0.89846991057E+03  0.33995239892E+01 0.  0.
         13    1    3    3    0    0 -0.43544938569E+01  0.51839648915E+01 -0.14413430266E+03  0.14429321645E+03  0.00000000000E+00 0.  1.
          3    1    3    3  501    0 -0.22426652655E+02  0.19334157039E+02 -0.75359519742E+03  0.75417669412E+03  0.00000000000E+00 0.  1.
         21    1    1    2  502  501  0.26781146511E+02 -0.24518121931E+02 -0.98665838591E+02  0.10513475076E+03  0.00000000000E+00 0.  1.
<mgrwt>
<rscale>  1 0.30000000E+03</rscale>
<asrwt>0</asrwt>
<pdfrwt beam="1">  1        1 0.13107887E-01 0.30000000E+03</pdfrwt>
<pdfrwt beam="2">0</pdfrwt>
<totfact> 0.52121947E+02</totfact>
</mgrwt>
</event>
<event>
 6    1  0.1956957E-002  0.3000000E+03  0.7818608E-02  0.1093470E+00
          1   -1    0    0  502    0  0.00000000000E+00  0.00000000000E+00  0.35084511976E+01  0.35084511976E+01  0.00000000000E+00 0.  1.
         13   -1    0    0    0    0 -0.00000000000E+00 -0.00000000000E+00 -0.10000000000E+04  0.10000000000E+04  0.00000000000E+00 0.  1.
    9000005    2    1    2  501    0  0.95171689770E+01  0.56940427677E+02 -0.60515072308E+03  0.60793237674E+03  0.64488937210E+01 0.  0.
         13    1    3    3    0    0  0.97431858858E+01  0.55477601661E+02 -0.57700494876E+03  0.57974770793E+03  0.00000000000E+00 0.  1.
          1    1    3    3  501    0 -0.22601690876E+00  0.14628260159E+01 -0.28145774317E+02  0.28184668802E+02  0.00000000000E+00 0.  1.
         21    1    1    2  502  501 -0.95171689770E+01 -0.56940427677E+02 -0.39134082572E+03  0.39557607446E+03  0.00000000000E+00 0.  1.
<mgrwt>
<rscale>  1 0.30000000E+03</rscale>
<asrwt>0</asrwt>
<pdfrwt beam="1">  1        1 0.12758031E-01 0.30000000E+03</pdfrwt>
<pdfrwt beam="2">0</pdfrwt>
<totfact> 0.54084913E+02</totfact>
</mgrwt>
</event>
<event>
 6    1  0.1956957E-002  0.3000000E+03  0.7818608E-02  0.1093470E+00
          3   -1    0    0  502    0  0.00000000000E+00  0.00000000000E+00  0.17981457520E+01  0.17981457520E+01  0.00000000000E+00 0.  1.
         13   -1    0    0    0    0 -0.00000000000E+00 -0.00000000000E+00 -0.10000000000E+04  0.10000000000E+04  0.00000000000E+00 0.  1.
    9000005    2    1    2  501    0 -0.79710970618E+01 -0.31968417021E+02 -0.81357472740E+03  0.81425430010E+03  0.45508335454E+01 0.  0.
         13    1    3    3    0    0 -0.66680199526E+01 -0.27144661252E+02 -0.64466843129E+03  0.64527411340E+03  0.00000000000E+00 0.  1.
          3    1    3    3  501    0 -0.13030771092E+01 -0.48237557690E+01 -0.16890629611E+03  0.16898018669E+03  0.00000000000E+00 0.  1.
         21    1    1    2  502  501  0.79710970618E+01  0.31968417021E+02 -0.18462712685E+03  0.18754384566E+03  0.00000000000E+00 0.  1.
<mgrwt>
<rscale>  1 0.30000000E+03</rscale>
<asrwt>0</asrwt>
<pdfrwt beam="1">  1        3 0.65387256E-02 0.30000000E+03</pdfrwt>
<pdfrwt beam="2">0</pdfrwt>
<totfact> 0.65194779E+02</totfact>
</mgrwt>
</event>
<event>
 6    1  0.1956957E-002  0.3000000E+03  0.7818608E-02  0.1093470E+00
          1   -1    0    0  502    0  0.00000000000E+00  0.00000000000E+00  0.15496492700E+01  0.15496492700E+01  0.00000000000E+00 0.  1.
         13   -1    0    0    0    0 -0.00000000000E+00 -0.00000000000E+00 -0.10000000000E+04  0.10000000000E+04  0.00000000000E+00 0.  1.
    9000005    2    1    2  501    0  0.35437058999E+02 -0.11094498902E+02 -0.66165993491E+03  0.66271833837E+03  0.47805327892E+01 0.  0.
         13    1    3    3    0    0  0.31492151002E+02 -0.10465225271E+02 -0.56260113086E+03  0.56357901749E+03  0.00000000000E+00 0.  1.
          3    1    3    3  501    0  0.39449079964E+01 -0.62927363049E+00 -0.99058804055E+02  0.99139320884E+02  0.00000000000E+00 0.  1.
         21    1    1    2  502  501 -0.35437058999E+02  0.11094498902E+02 -0.33679041582E+03  0.33883131090E+03  0.00000000000E+00 0.  1.
<mgrwt>
<rscale>  1 0.30000000E+03</rscale>
<asrwt>0</asrwt>
<pdfrwt beam="1">  1        1 0.56351001E-02 0.30000000E+03</pdfrwt>
<pdfrwt beam="2">0</pdfrwt>
<totfact> 0.16815961E+03</totfact>
</mgrwt>
</event>
<event>
 6    1  0.1956957E-002  0.3000000E+03  0.7818608E-02  0.1093470E+00
          3   -1    0    0  502    0  0.00000000000E+00  0.00000000000E+00  0.15426966236E+01  0.15426966236E+01  0.00000000000E+00 0.  1.
         13   -1    0    0    0    0 -0.00000000000E+00 -0.00000000000E+00 -0.10000000000E+04  0.10000000000E+04  0.00000000000E+00 0.  1.
    9000005    2    1    2  501    0 -0.25650601159E+02  0.21779191470E+02 -0.75640007344E+03  0.75715777670E+03  0.38132923345E+01 0.  0.
         13    1    3    3    0    0 -0.24698229260E+02  0.21531164852E+02 -0.72116633161E+03  0.72191029321E+03  0.00000000000E+00 0.  1.
          3    1    3    3  501    0 -0.95237189865E+00  0.24802661791E+00 -0.35233741827E+02  0.35247483492E+02  0.00000000000E+00 0.  1.
         21    1    1    2  502  501  0.25650601159E+02 -0.21779191470E+02 -0.24205722994E+03  0.24438491993E+03  0.00000000000E+00 0.  1.
<mgrwt>
<rscale>  1 0.30000000E+03</rscale>
<asrwt>0</asrwt>
<pdfrwt beam="1">  1        3 0.56098177E-02 0.30000000E+03</pdfrwt>
<pdfrwt beam="2">0</pdfrwt>
<totfact> 0.82801207E+02</totfact>
</mgrwt>
</event>
<event>
 6    1  0.1956957E-002  0.3000000E+03  0.7818608E-02  0.1093470E+00
          1   -1    0    0  502    0  0.00000000000E+00  0.00000000000E+00  0.13753105778E+02  0.13753105778E+02  0.00000000000E+00 0.  1.
         13   -1    0    0    0    0 -0.00000000000E+00 -0.00000000000E+00 -0.10000000000E+04  0.10000000000E+04  0.00000000000E+00 0.  1.
    9000005    2    1    2  501    0 -0.37973669854E+02  0.27142575107E+02 -0.95809821622E+03  0.95924561034E+03  0.46076075949E+01 0.  0.
         13    1    3    3    0    0 -0.15194191858E+02  0.81504051111E+01 -0.35770761506E+03  0.35812292644E+03  0.00000000000E+00 0.  1.
          3    1    3    3  501    0 -0.22779477996E+02  0.18992169996E+02 -0.60039060116E+03  0.60112268390E+03  0.00000000000E+00 0.  1.
         21    1    1    2  502  501  0.37973669854E+02 -0.27142575107E+02 -0.28148678003E+02  0.54507495438E+02  0.00000000000E+00 0.  1.
<mgrwt>
<rscale>  1 0.30000000E+03</rscale>
<asrwt>0</asrwt>
<pdfrwt beam="1">  1        1 0.50011399E-01 0.30000000E+03</pdfrwt>
<pdfrwt beam="2">0</pdfrwt>
<totfact> 0.88223491E+01</totfact>
</mgrwt>
</event>
<event>
 6    1  0.1956957E-002  0.3000000E+03  0.7818608E-02  0.1093470E+00
          3   -1    0    0  502    0  0.00000000000E+00  0.00000000000E+00  0.21600281269E+01  0.21600281269E+01  0.00000000000E+00 0.  1.
         13   -1    0    0    0    0 -0.00000000000E+00 -0.00000000000E+00 -0.10000000000E+04  0.10000000000E+04  0.00000000000E+00 0.  1.
    9000005    2    1    2  501    0  0.38014795374E+02  0.13360055199E+02 -0.74811866686E+03  0.74920875629E+03  0.29334395603E+01 0.  0.
         13    1    3    3    0    0  0.13602944207E+02  0.61230814228E+01 -0.28821298757E+03  0.28859878451E+03  0.00000000000E+00 0.  1.
          3    1    3    3  501    0  0.24411851167E+02  0.72369737760E+01 -0.45990567929E+03  0.46060997179E+03  0.00000000000E+00 0.  1.
         21    1    1    2  502  501 -0.38014795374E+02 -0.13360055199E+02 -0.24972130502E+03  0.25295127183E+03  0.00000000000E+00 0.  1.
<mgrwt>
<rscale>  1 0.30000000E+03</rscale>
<asrwt>0</asrwt>
<pdfrwt beam="1">  1        3 0.78546643E-02 0.30000000E+03</pdfrwt>
<pdfrwt beam="2">0</pdfrwt>
<totfact> 0.48797389E+02</totfact>
</mgrwt>
</event>
<event>
 6    1  0.1956957E-002  0.3000000E+03  0.7818608E-02  0.1093470E+00
          1   -1    0    0  502    0  0.00000000000E+00  0.00000000000E+00  0.20541258424E+01  0.20541258424E+01  0.00000000000E+00 0.  1.
         13   -1    0    0    0    0 -0.00000000000E+00 -0.00000000000E+00 -0.10000000000E+04  0.10000000000E+04  0.00000000000E+00 0.  1.
    9000005    2    1    2  501    0  0.27074075020E+02  0.12933250700E+02 -0.87415007421E+03  0.87467408582E+03  0.40161734564E+01 0.  0.
         13    1    3    3    0    0  0.21178876625E+02  0.85603912070E+01 -0.63152775033E+03  0.63194076032E+03  0.00000000000E+00 0.  1.
          1    1    3    3  501    0  0.58951983956E+01  0.43728594925E+01 -0.24262232388E+03  0.24273332550E+03  0.00000000000E+00 0.  1.
         21    1    1    2  502  501 -0.27074075020E+02 -0.12933250700E+02 -0.12379579995E+03  0.12738004003E+03  0.00000000000E+00 0.  1.
<mgrwt>
<rscale>  1 0.30000000E+03</rscale>
<asrwt>0</asrwt>
<pdfrwt beam="1">  1        1 0.74695643E-02 0.30000000E+03</pdfrwt>
<pdfrwt beam="2">0</pdfrwt>
<totfact> 0.11332060E+03</totfact>
</mgrwt>
</event>
<event>
 6    1  0.1956957E-002  0.3000000E+03  0.7818608E-02  0.1093470E+00
          1   -1    0    0  502    0  0.00000000000E+00  0.00000000000E+00  0.11305734635E+01  0.11305734635E+01  0.00000000000E+00 0.  1.
         13   -1    0    0    0    0 -0.00000000000E+00 -0.00000000000E+00 -0.10000000000E+04  0.10000000000E+04  0.00000000000E+00 0.  1.
    9000005    2    1    2  501    0  0.27778245013E+02  0.13296691486E+02 -0.69823196436E+03  0.69891985796E+03  0.35579345197E+01 0.  0.
         13    1    3    3    0    0  0.12718563867E+02  0.61751086214E+01 -0.28098728250E+03  0.28134275672E+03  0.00000000000E+00 0.  1.
          3    1    3    3  501    0  0.15059681146E+02  0.71215828644E+01 -0.41724468186E+03  0.41757710124E+03  0.00000000000E+00 0.  1.
         21    1    1    2  502  501 -0.27778245013E+02 -0.13296691486E+02 -0.30063746218E+03  0.30221071551E+03  0.00000000000E+00 0.  1.
<mgrwt>
<rscale>  1 0.30000000E+03</rscale>
<asrwt>0</asrwt>
<pdfrwt beam="1">  1        1 0.41111849E-02 0.30000000E+03</pdfrwt>
<pdfrwt beam="2">0</pdfrwt>
<totfact> 0.26198425E+03</totfact>
</mgrwt>
</event>
<event>
 6    1  0.1956957E-002  0.3000000E+03  0.7818608E-02  0.1093470E+00
          1   -1    0    0  502    0  0.00000000000E+00  0.00000000000E+00  0.30177964746E+01  0.30177964746E+01  0.00000000000E+00 0.  1.
         13   -1    0    0    0    0 -0.00000000000E+00 -0.00000000000E+00 -0.10000000000E+04  0.10000000000E+04  0.00000000000E+00 0.  1.
    9000005    2    1    2  501    0  0.42602992453E+02 -0.26809884501E+02 -0.69879290394E+03  0.70060972241E+03  0.29454480430E+01 0.  0.
         13    1    3    3    0    0  0.16797271625E+02 -0.10448154791E+02 -0.25492846403E+03  0.25569480645E+03  0.00000000000E+00 0.  1.
          1    1    3    3  501    0  0.25805720828E+02 -0.16361729710E+02 -0.44386443991E+03  0.44491491596E+03  0.00000000000E+00 0.  1.
         21    1    1    2  502  501 -0.42602992453E+02  0.26809884501E+02 -0.29818929958E+03  0.30240807407E+03  0.00000000000E+00 0.  1.
<mgrwt>
<rscale>  1 0.30000000E+03</rscale>
<asrwt>0</asrwt>
<pdfrwt beam="1">  1        1 0.10973829E-01 0.30000000E+03</pdfrwt>
<pdfrwt beam="2">0</pdfrwt>
<totfact> 0.66494650E+02</totfact>
</mgrwt>
</event>
<event>
 6    1  0.1956957E-002  0.3000000E+03  0.7818608E-02  0.1093470E+00
          3   -1    0    0  502    0  0.00000000000E+00  0.00000000000E+00  0.25688748254E+01  0.25688748254E+01  0.00000000000E+00 0.  1.
         13   -1    0    0    0    0 -0.00000000000E+00 -0.00000000000E+00 -0.10000000000E+04  0.10000000000E+04  0.00000000000E+00 0.  1.
    9000005    2    1    2  501    0  0.15854823182E+02  0.41629721521E+02 -0.73667717764E+03  0.73803715596E+03  0.46011288657E+01 0.  0.
         13    1    3    3    0    0  0.12263986161E+02  0.29056710672E+02 -0.54881276002E+03  0.54971823996E+03  0.00000000000E+00 0.  1.
          1    1    3    3  501    0  0.35908370214E+01  0.12573010848E+02 -0.18786441763E+03  0.18831891600E+03  0.00000000000E+00 0.  1.
         21    1    1    2  502  501 -0.15854823182E+02 -0.41629721521E+02 -0.26075394753E+03  0.26453171886E+03  0.00000000000E+00 0.  1.
<mgrwt>
<rscale>  1 0.30000000E+03</rscale>
<asrwt>0</asrwt>
<pdfrwt beam="1">  1        3 0.93413827E-02 0.30000000E+03</pdfrwt>
<pdfrwt beam="2">0</pdfrwt>
<totfact> 0.36921682E+02</totfact>
</mgrwt>
</event>
<event>
 6    1  0.1956957E-002  0.3000000E+03  0.7818608E-02  0.1093470E+00
          1   -1    0    0  502    0  0.00000000000E+00  0.00000000000E+00  0.33800058450E+01  0.33800058450E+01  0.00000000000E+00 0.  1.
         13   -1    0    0    0    0 -0.00000000000E+00 -0.00000000000E+00 -0.10000000000E+04  0.10000000000E+04  0.00000000000E+00 0.  1.
    9000005    2    1    2  501    0  0.56320832651E+02  0.12711043155E+02 -0.44386532530E+03  0.44761806873E+03  0.34498751126E+01 0.  0.
         13    1    3    3    0    0  0.56194890756E+01  0.17202846342E+01 -0.53013909015E+02  0.53338659392E+02  0.00000000000E+00 0.  1.
          3    1    3    3  501    0  0.50701343575E+02  0.10990758521E+02 -0.39085141628E+03  0.39427940933E+03  0.00000000000E+00 0.  1.
         21    1    1    2  502  501 -0.56320832651E+02 -0.12711043155E+02 -0.55275466886E+03  0.55576193712E+03  0.00000000000E+00 0.  1.
<mgrwt>
<rscale>  1 0.30000000E+03</rscale>
<asrwt>0</asrwt>
<pdfrwt beam="1">  1        1 0.12290956E-01 0.30000000E+03</pdfrwt>
<pdfrwt beam="2">0</pdfrwt>
<totfact> 0.56917527E+02</totfact>
</mgrwt>
</event>
<event>
 6    1  0.1956957E-002  0.3000000E+03  0.7818608E-02  0.1093470E+00
          1   -1    0    0  502    0  0.00000000000E+00  0.00000000000E+00  0.30227351751E+01  0.30227351751E+01  0.00000000000E+00 0.  1.
         13   -1    0    0    0    0 -0.00000000000E+00 -0.00000000000E+00 -0.10000000000E+04  0.10000000000E+04  0.00000000000E+00 0.  1.
    9000005    2    1    2  501    0 -0.28249275338E+01 -0.46166125092E+02 -0.76920805139E+03  0.77060477996E+03  0.33777565335E+01 0.  0.
         13    1    3    3    0    0 -0.30817720695E+01 -0.27470789252E+02 -0.47351518883E+03  0.47432138433E+03  0.00000000000E+00 0.  1.
          1    1    3    3  501    0  0.25684453575E+00 -0.18695335840E+02 -0.29569286257E+03  0.29628339563E+03  0.00000000000E+00 0.  1.
         21    1    1    2  502  501  0.28249275338E+01  0.46166125092E+02 -0.22776921343E+03  0.23241795522E+03  0.00000000000E+00 0.  1.
<mgrwt>
<rscale>  1 0.30000000E+03</rscale>
<asrwt>0</asrwt>
<pdfrwt beam="1">  1        1 0.10991787E-01 0.30000000E+03</pdfrwt>
<pdfrwt beam="2">0</pdfrwt>
<totfact> 0.66345377E+02</totfact>
</mgrwt>
</event>
<event>
 6    1  0.1956957E-002  0.3000000E+03  0.7818608E-02  0.1093470E+00
          1   -1    0    0  502    0  0.00000000000E+00  0.00000000000E+00  0.26548995800E+01  0.26548995800E+01  0.00000000000E+00 0.  1.
         13   -1    0    0    0    0 -0.00000000000E+00 -0.00000000000E+00 -0.10000000000E+04  0.10000000000E+04  0.00000000000E+00 0.  1.
    9000005    2    1    2  501    0 -0.37153116336E+02  0.13058597568E+02 -0.82174352152E+03  0.82269158238E+03  0.28536892090E+01 0.  0.
         13    1    3    3    0    0 -0.33329220513E+02  0.12595120909E+02 -0.74449564443E+03  0.74534772998E+03  0.00000000000E+00 0.  1.
          1    1    3    3  501    0 -0.38238958228E+01  0.46347665939E+00 -0.77247877080E+02  0.77343852395E+02  0.00000000000E+00 0.  1.
         21    1    1    2  502  501  0.37153116336E+02 -0.13058597568E+02 -0.17560157890E+03  0.17996331720E+03  0.00000000000E+00 0.  1.
<mgrwt>
<rscale>  1 0.30000000E+03</rscale>
<asrwt>0</asrwt>
<pdfrwt beam="1">  1        1 0.96542006E-02 0.30000000E+03</pdfrwt>
<pdfrwt beam="2">0</pdfrwt>
<totfact> 0.79339414E+02</totfact>
</mgrwt>
</event>
<event>
 6    1  0.1956957E-002  0.3000000E+03  0.7818608E-02  0.1093470E+00
          1   -1    0    0  502    0  0.00000000000E+00  0.00000000000E+00  0.34585089484E+01  0.34585089484E+01  0.00000000000E+00 0.  1.
         13   -1    0    0    0    0 -0.00000000000E+00 -0.00000000000E+00 -0.10000000000E+04  0.10000000000E+04  0.00000000000E+00 0.  1.
    9000005    2    1    2  501    0 -0.41951451774E+02  0.38043009885E+02 -0.63251768185E+03  0.63505583718E+03  0.31786105400E+01 0.  0.
         13    1    3    3    0    0 -0.31891031926E+02  0.30294599071E+02 -0.50009063181E+03  0.50202135479E+03  0.00000000000E+00 0.  1.
          3    1    3    3  501    0 -0.10060419848E+02  0.77484108142E+01 -0.13242705005E+03  0.13303448238E+03  0.00000000000E+00 0.  1.
         21    1    1    2  502  501  0.41951451774E+02 -0.38043009885E+02 -0.36402380920E+03  0.36840267177E+03  0.00000000000E+00 0.  1.
<mgrwt>
<rscale>  1 0.30000000E+03</rscale>
<asrwt>0</asrwt>
<pdfrwt beam="1">  1        1 0.12576423E-01 0.30000000E+03</pdfrwt>
<pdfrwt beam="2">0</pdfrwt>
<totfact> 0.55156089E+02</totfact>
</mgrwt>
</event>
<event>
 6    1  0.1956957E-002  0.3000000E+03  0.7818608E-02  0.1093470E+00
          1   -1    0    0  502    0  0.00000000000E+00  0.00000000000E+00  0.36911165501E+01  0.36911165501E+01  0.00000000000E+00 0.  1.
         13   -1    0    0    0    0 -0.00000000000E+00 -0.00000000000E+00 -0.10000000000E+04  0.10000000000E+04  0.00000000000E+00 0.  1.
    9000005    2    1    2  501    0 -0.45752904656E+02 -0.32034863613E+01 -0.82698295353E+03  0.82826346436E+03  0.39962928189E+01 0.  0.
         13    1    3    3    0    0 -0.42726509481E+02 -0.36069638269E+01 -0.75618757431E+03  0.75740227907E+03  0.00000000000E+00 0.  1.
          3    1    3    3  501    0 -0.30263951759E+01  0.40347746558E+00 -0.70795379224E+02  0.70861185294E+02  0.00000000000E+00 0.  1.
         21    1    1    2  502  501  0.45752904656E+02  0.32034863613E+01 -0.16932592992E+03  0.17542765219E+03  0.00000000000E+00 0.  1.
<mgrwt>
<rscale>  1 0.30000000E+03</rscale>
<asrwt>0</asrwt>
<pdfrwt beam="1">  1        1 0.13422270E-01 0.30000000E+03</pdfrwt>
<pdfrwt beam="2">0</pdfrwt>
<totfact> 0.50462807E+02</totfact>
</mgrwt>
</event>
<event>
 6    1  0.1956957E-002  0.3000000E+03  0.7818608E-02  0.1093470E+00
          1   -1    0    0  502    0  0.00000000000E+00  0.00000000000E+00  0.50078356544E+01  0.50078356544E+01  0.00000000000E+00 0.  1.
         13   -1    0    0    0    0 -0.00000000000E+00 -0.00000000000E+00 -0.10000000000E+04  0.10000000000E+04  0.00000000000E+00 0.  1.
    9000005    2    1    2  501    0 -0.62557774294E+02 -0.31980249238E+02 -0.55596397396E+03  0.56039343708E+03  0.29415158731E+01 0.  0.
         13    1    3    3    0    0 -0.60357728002E+02 -0.31263136780E+02 -0.54044804772E+03  0.54470591271E+03  0.00000000000E+00 0.  1.
          3    1    3    3  501    0 -0.22000462919E+01 -0.71711245809E+00 -0.15515926238E+02  0.15687524375E+02  0.00000000000E+00 0.  1.
         21    1    1    2  502  501  0.62557774294E+02  0.31980249238E+02 -0.43902819039E+03  0.44461439857E+03  0.00000000000E+00 0.  1.
<mgrwt>
<rscale>  1 0.30000000E+03</rscale>
<asrwt>0</asrwt>
<pdfrwt beam="1">  1        1 0.18210350E-01 0.30000000E+03</pdfrwt>
<pdfrwt beam="2">0</pdfrwt>
<totfact> 0.33383296E+02</totfact>
</mgrwt>
</event>
<event>
 6    1  0.1956957E-002  0.3000000E+03  0.7818608E-02  0.1093470E+00
          1   -1    0    0  502    0  0.00000000000E+00  0.00000000000E+00  0.20233883205E+01  0.20233883205E+01  0.00000000000E+00 0.  1.
         13   -1    0    0    0    0 -0.00000000000E+00 -0.00000000000E+00 -0.10000000000E+04  0.10000000000E+04  0.00000000000E+00 0.  1.
    9000005    2    1    2  501    0 -0.14261412007E+02  0.41561696864E+02 -0.39518647023E+03  0.39763384742E+03  0.30931931968E+01 0.  0.
         13    1    3    3    0    0 -0.12504524204E+00  0.24646697023E+01 -0.20553365715E+02  0.20700992132E+02  0.00000000000E+00 0.  1.
          1    1    3    3  501    0 -0.14136366765E+02  0.39097027162E+02 -0.37463310451E+03  0.37693285529E+03  0.00000000000E+00 0.  1.
         21    1    1    2  502  501  0.14261412007E+02 -0.41561696864E+02 -0.60279014145E+03  0.60438954090E+03  0.00000000000E+00 0.  1.
<mgrwt>
<rscale>  1 0.30000000E+03</rscale>
<asrwt>0</asrwt>
<pdfrwt beam="1">  1        1 0.73577912E-02 0.30000000E+03</pdfrwt>
<pdfrwt beam="2">0</pdfrwt>
<totfact> 0.11573150E+03</totfact>
</mgrwt>
</event>
<event>
 6    1  0.1956957E-002  0.3000000E+03  0.7818608E-02  0.1093470E+00
          1   -1    0    0  502    0  0.00000000000E+00  0.00000000000E+00  0.16869387124E+01  0.16869387124E+01  0.00000000000E+00 0.  1.
         13   -1    0    0    0    0 -0.00000000000E+00 -0.00000000000E+00 -0.10000000000E+04  0.10000000000E+04  0.00000000000E+00 0.  1.
    9000005    2    1    2  501    0 -0.22775502720E+02  0.28294295163E+02 -0.73167016811E+03  0.73258152602E+03  0.38944432335E+01 0.  0.
         13    1    3    3    0    0 -0.69858574059E+01  0.82696352065E+01 -0.18429783601E+03  0.18461549617E+03  0.00000000000E+00 0.  1.
          3    1    3    3  501    0 -0.15789645314E+02  0.20024659956E+02 -0.54737233211E+03  0.54796602984E+03  0.00000000000E+00 0.  1.
         21    1    1    2  502  501  0.22775502720E+02 -0.28294295163E+02 -0.26664289317E+03  0.26910541270E+03  0.00000000000E+00 0.  1.
<mgrwt>
<rscale>  1 0.30000000E+03</rscale>
<asrwt>0</asrwt>
<pdfrwt beam="1">  1        1 0.61343355E-02 0.30000000E+03</pdfrwt>
<pdfrwt beam="2">0</pdfrwt>
<totfact> 0.14927590E+03</totfact>
</mgrwt>
</event>
<event>
 6    1  0.1956957E-002  0.3000000E+03  0.7818608E-02  0.1093470E+00
          1   -1    0    0  502    0  0.00000000000E+00  0.00000000000E+00  0.27991106812E+01  0.27991106812E+01  0.00000000000E+00 0.  1.
         13   -1    0    0    0    0 -0.00000000000E+00 -0.00000000000E+00 -0.10000000000E+04  0.10000000000E+04  0.00000000000E+00 0.  1.
    9000005    2    1    2  501    0 -0.49350605663E+01  0.30613020549E+02 -0.90466600728E+03  0.90520701959E+03  0.42013967040E+01 0.  0.
         13    1    3    3    0    0  0.28263070316E+00  0.12724155973E+00 -0.15872264153E+02  0.15875290229E+02  0.00000000000E+00 0.  1.
          3    1    3    3  501    0 -0.52176912695E+01  0.30485778989E+02 -0.88879374313E+03  0.88933172936E+03  0.00000000000E+00 0.  1.
         21    1    1    2  502  501  0.49350605663E+01 -0.30613020549E+02 -0.92534882039E+02  0.97592091093E+02  0.00000000000E+00 0.  1.
<mgrwt>
<rscale>  1 0.30000000E+03</rscale>
<asrwt>0</asrwt>
<pdfrwt beam="1">  1        1 0.10178606E-01 0.30000000E+03</pdfrwt>
<pdfrwt beam="2">0</pdfrwt>
<totfact> 0.73750057E+02</totfact>
</mgrwt>
</event>
<event>
 6    1  0.1956957E-002  0.3000000E+03  0.7818608E-02  0.1093470E+00
          1   -1    0    0  502    0  0.00000000000E+00  0.00000000000E+00  0.13941137208E+01  0.13941137208E+01  0.00000000000E+00 0.  1.
         13   -1    0    0    0    0 -0.00000000000E+00 -0.00000000000E+00 -0.10000000000E+04  0.10000000000E+04  0.00000000000E+00 0.  1.
    9000005    2    1    2  501    0  0.36032034410E+02 -0.90619206526E+01 -0.45476892393E+03  0.45628947466E+03  0.22101136325E+01 0.  0.
         13    1    3    3    0    0  0.26927589542E+00  0.27144843378E-01 -0.18200185393E+01  0.18400309328E+01  0.00000000000E+00 0.  1.
          3    1    3    3  501    0  0.35762758515E+02 -0.90890654960E+01 -0.45294890539E+03  0.45444944373E+03  0.00000000000E+00 0.  1.
         21    1    1    2  502  501 -0.36032034410E+02  0.90619206526E+01 -0.54383696235E+03  0.54510463906E+03  0.00000000000E+00 0.  1.
<mgrwt>
<rscale>  1 0.30000000E+03</rscale>
<asrwt>0</asrwt>
<pdfrwt beam="1">  1        1 0.50695151E-02 0.30000000E+03</pdfrwt>
<pdfrwt beam="2">0</pdfrwt>
<totfact> 0.19509319E+03</totfact>
</mgrwt>
</event>
<event>
 6    1  0.1956957E-002  0.3000000E+03  0.7818608E-02  0.1093470E+00
          1   -1    0    0  502    0  0.00000000000E+00  0.00000000000E+00  0.32373426890E+01  0.32373426890E+01  0.00000000000E+00 0.  1.
         13   -1    0    0    0    0 -0.00000000000E+00 -0.00000000000E+00 -0.10000000000E+04  0.10000000000E+04  0.00000000000E+00 0.  1.
    9000005    2    1    2  501    0 -0.11426560261E+01 -0.36675403211E+02 -0.88164024659E+03  0.88240870240E+03  0.30336123081E+01 0.  0.
         13    1    3    3    0    0 -0.17485424720E+01 -0.33060636967E+02 -0.77958653953E+03  0.78028920007E+03  0.00000000000E+00 0.  1.
          1    1    3    3  501    0  0.60588644583E+00 -0.36147662442E+01 -0.10205370705E+03  0.10211950233E+03  0.00000000000E+00 0.  1.
         21    1    1    2  502  501  0.11426560261E+01  0.36675403211E+02 -0.11512241073E+03  0.12082864029E+03  0.00000000000E+00 0.  1.
<mgrwt>
<rscale>  1 0.30000000E+03</rscale>
<asrwt>0</asrwt>
<pdfrwt beam="1">  1        1 0.11772180E-01 0.30000000E+03</pdfrwt>
<pdfrwt beam="2">0</pdfrwt>
<totfact> 0.60383467E+02</totfact>
</mgrwt>
</event>
<event>
 6    1  0.1956957E-002  0.3000000E+03  0.7818608E-02  0.1093470E+00
          1   -1    0    0  502    0  0.00000000000E+00  0.00000000000E+00  0.12605389648E+02  0.12605389648E+02  0.00000000000E+00 0.  1.
         13   -1    0    0    0    0 -0.00000000000E+00 -0.00000000000E+00 -0.10000000000E+04  0.10000000000E+04  0.00000000000E+00 0.  1.
    9000005    2    1    2  501    0 -0.43292378463E+02  0.24802119027E+02 -0.94722254684E+03  0.94854939986E+03  0.51025077579E+01 0.  0.
         13    1    3    3    0    0 -0.10156807357E+02  0.38636500971E+01 -0.23003816692E+03  0.23029469549E+03  0.00000000000E+00 0.  1.
          1    1    3    3  501    0 -0.33135571106E+02  0.20938468930E+02 -0.71718437992E+03  0.71825470437E+03  0.00000000000E+00 0.  1.
         21    1    1    2  502  501  0.43292378463E+02 -0.24802119027E+02 -0.40172063511E+02  0.64055989790E+02  0.00000000000E+00 0.  1.
<mgrwt>
<rscale>  1 0.30000000E+03</rscale>
<asrwt>0</asrwt>
<pdfrwt beam="1">  1        1 0.45837877E-01 0.30000000E+03</pdfrwt>
<pdfrwt beam="2">0</pdfrwt>
<totfact> 0.98902316E+01</totfact>
</mgrwt>
</event>
<event>
 6    1  0.1956957E-002  0.3000000E+03  0.7818608E-02  0.1093470E+00
          3   -1    0    0  502    0  0.00000000000E+00  0.00000000000E+00  0.19265217842E+01  0.19265217842E+01  0.00000000000E+00 0.  1.
         13   -1    0    0    0    0 -0.00000000000E+00 -0.00000000000E+00 -0.10000000000E+04  0.10000000000E+04  0.00000000000E+00 0.  1.
    9000005    2    1    2  501    0 -0.24332980351E+02 -0.32114678790E+02 -0.69674205113E+03  0.69791324004E+03  0.31556751295E+01 0.  0.
         13    1    3    3    0    0 -0.23905627107E+02 -0.31648837244E+02 -0.69079108847E+03  0.69192879389E+03  0.00000000000E+00 0.  1.
          3    1    3    3  501    0 -0.42735324459E+00 -0.46584154659E+00 -0.59509626637E+01  0.59844461538E+01  0.00000000000E+00 0.  1.
         21    1    1    2  502  501  0.24332980351E+02  0.32114678790E+02 -0.30133142708E+03  0.30401328174E+03  0.00000000000E+00 0.  1.
<mgrwt>
<rscale>  1 0.30000000E+03</rscale>
<asrwt>0</asrwt>
<pdfrwt beam="1">  1        3 0.70055485E-02 0.30000000E+03</pdfrwt>
<pdfrwt beam="2">0</pdfrwt>
<totfact> 0.58501597E+02</totfact>
</mgrwt>
</event>
<event>
 6    1  0.1956957E-002  0.3000000E+03  0.7818608E-02  0.1093470E+00
          3   -1    0    0  502    0  0.00000000000E+00  0.00000000000E+00  0.17245116533E+01  0.17245116533E+01  0.00000000000E+00 0.  1.
         13   -1    0    0    0    0 -0.00000000000E+00 -0.00000000000E+00 -0.10000000000E+04  0.10000000000E+04  0.00000000000E+00 0.  1.
    9000005    2    1    2  501    0 -0.77372726482E+01 -0.40322079022E+02 -0.43452321800E+03  0.43647911560E+03  0.42256270928E+01 0.  0.
         13    1    3    3    0    0 -0.70854804293E+01 -0.32255188503E+02 -0.36315765896E+03  0.36465612086E+03  0.00000000000E+00 0.  1.
          3    1    3    3  501    0 -0.65179221890E+00 -0.80668905191E+01 -0.71365559043E+02  0.71822994739E+02  0.00000000000E+00 0.  1.
         21    1    1    2  502  501  0.77372726482E+01  0.40322079022E+02 -0.56375227034E+03  0.56524539605E+03  0.00000000000E+00 0.  1.
<mgrwt>
<rscale>  1 0.30000000E+03</rscale>
<asrwt>0</asrwt>
<pdfrwt beam="1">  1        3 0.62709647E-02 0.30000000E+03</pdfrwt>
<pdfrwt beam="2">0</pdfrwt>
<totfact> 0.69602015E+02</totfact>
</mgrwt>
</event>
<event>
 6    1  0.1956957E-002  0.3000000E+03  0.7818608E-02  0.1093470E+00
          1   -1    0    0  502    0  0.00000000000E+00  0.00000000000E+00  0.20792141096E+01  0.20792141096E+01  0.00000000000E+00 0.  1.
         13   -1    0    0    0    0 -0.00000000000E+00 -0.00000000000E+00 -0.10000000000E+04  0.10000000000E+04  0.00000000000E+00 0.  1.
    9000005    2    1    2  501    0 -0.29761034144E+02  0.33859518823E+02 -0.56934256359E+03  0.57113666713E+03  0.37351914728E+01 0.  0.
         13    1    3    3    0    0 -0.14599593142E+02  0.19427900220E+02 -0.30475706443E+03  0.30572448340E+03  0.00000000000E+00 0.  1.
          1    1    3    3  501    0 -0.15161441001E+02  0.14431618603E+02 -0.26458549916E+03  0.26541218373E+03  0.00000000000E+00 0.  1.
         21    1    1    2  502  501  0.29761034144E+02 -0.33859518823E+02 -0.42857822230E+03  0.43094254698E+03  0.00000000000E+00 0.  1.
<mgrwt>
<rscale>  1 0.30000000E+03</rscale>
<asrwt>0</asrwt>
<pdfrwt beam="1">  1        1 0.75607945E-02 0.30000000E+03</pdfrwt>
<pdfrwt beam="2">0</pdfrwt>
<totfact> 0.11141680E+03</totfact>
</mgrwt>
</event>
<event>
 6    1  0.1956957E-002  0.3000000E+03  0.7818608E-02  0.1093470E+00
          1   -1    0    0  502    0  0.00000000000E+00  0.00000000000E+00  0.15092998159E+01  0.15092998159E+01  0.00000000000E+00 0.  1.
         13   -1    0    0    0    0 -0.00000000000E+00 -0.00000000000E+00 -0.10000000000E+04  0.10000000000E+04  0.00000000000E+00 0.  1.
    9000005    2    1    2  501    0  0.28280076118E+02 -0.26063448968E+02 -0.56200163965E+03  0.56332923860E+03  0.38629030649E+01 0.  0.
         13    1    3    3    0    0  0.15062925897E+02 -0.16119156882E+02 -0.33528138714E+03  0.33600643970E+03  0.00000000000E+00 0.  1.
          1    1    3    3  501    0  0.13217150221E+02 -0.99442920862E+01 -0.22672025251E+03  0.22732279891E+03  0.00000000000E+00 0.  1.
         21    1    1    2  502  501 -0.28280076118E+02  0.26063448968E+02 -0.43648906054E+03  0.43818006122E+03  0.00000000000E+00 0.  1.
<mgrwt>
<rscale>  1 0.30000000E+03</rscale>
<asrwt>0</asrwt>
<pdfrwt beam="1">  1        1 0.54883745E-02 0.30000000E+03</pdfrwt>
<pdfrwt beam="2">0</pdfrwt>
<totfact> 0.17450563E+03</totfact>
</mgrwt>
</event>
<event>
 6    1  0.1956957E-002  0.3000000E+03  0.7818608E-02  0.1093470E+00
          3   -1    0    0  502    0  0.00000000000E+00  0.00000000000E+00  0.16479642095E+01  0.16479642095E+01  0.00000000000E+00 0.  1.
         13   -1    0    0    0    0 -0.00000000000E+00 -0.00000000000E+00 -0.10000000000E+04  0.10000000000E+04  0.00000000000E+00 0.  1.
    9000005    2    1    2  501    0  0.12923669083E+02 -0.28906413706E+02 -0.81164867187E+03  0.81227862119E+03  0.45155198944E+01 0.  0.
         13    1    3    3    0    0  0.29532366459E+00  0.12806924900E+00 -0.77537861988E+01  0.77604650773E+01  0.00000000000E+00 0.  1.
          1    1    3    3  501    0  0.12628345419E+02 -0.29034482955E+02 -0.80389488567E+03  0.80451815611E+03  0.00000000000E+00 0.  1.
         21    1    1    2  502  501 -0.12923669083E+02  0.28906413706E+02 -0.18670336392E+03  0.18936934302E+03  0.00000000000E+00 0.  1.
<mgrwt>
<rscale>  1 0.30000000E+03</rscale>
<asrwt>0</asrwt>
<pdfrwt beam="1">  1        3 0.59926098E-02 0.30000000E+03</pdfrwt>
<pdfrwt beam="2">0</pdfrwt>
<totfact> 0.74714074E+02</totfact>
</mgrwt>
</event>
<event>
 6    1  0.1956957E-002  0.3000000E+03  0.7818608E-02  0.1093470E+00
          3   -1    0    0  502    0  0.00000000000E+00  0.00000000000E+00  0.93719455693E+00  0.93719455693E+00  0.00000000000E+00 0.  1.
         13   -1    0    0    0    0 -0.00000000000E+00 -0.00000000000E+00 -0.10000000000E+04  0.10000000000E+04  0.00000000000E+00 0.  1.
    9000005    2    1    2  501    0 -0.48063639481E+01  0.29886941805E+02 -0.55951797167E+03  0.56035123096E+03  0.41001205095E+01 0.  0.
         13    1    3    3    0    0 -0.13009072795E+01  0.14336173973E+02 -0.23284340964E+03  0.23328795866E+03  0.00000000000E+00 0.  1.
          1    1    3    3  501    0 -0.35054566686E+01  0.15550767832E+02 -0.32667456203E+03  0.32706327230E+03  0.00000000000E+00 0.  1.
         21    1    1    2  502  501  0.48063639481E+01 -0.29886941805E+02 -0.43954483377E+03  0.44058596360E+03  0.00000000000E+00 0.  1.
<mgrwt>
<rscale>  1 0.30000000E+03</rscale>
<asrwt>0</asrwt>
<pdfrwt beam="1">  1        3 0.34079874E-02 0.30000000E+03</pdfrwt>
<pdfrwt beam="2">0</pdfrwt>
<totfact> 0.17857002E+03</totfact>
</mgrwt>
</event>
<event>
 6    1  0.1956957E-002  0.3000000E+03  0.7818608E-02  0.1093470E+00
          3   -1    0    0  502    0  0.00000000000E+00  0.00000000000E+00  0.35262759400E+01  0.35262759400E+01  0.00000000000E+00 0.  1.
         13   -1    0    0    0    0 -0.00000000000E+00 -0.00000000000E+00 -0.10000000000E+04  0.10000000000E+04  0.00000000000E+00 0.  1.
    9000005    2    1    2  501    0 -0.33541668390E+02 -0.35699498838E+02 -0.78164879162E+03  0.78318733400E+03  0.28405927432E+01 0.  0.
         13    1    3    3    0    0 -0.19747696172E+02 -0.19529097179E+02 -0.45819772313E+03  0.45903868097E+03  0.00000000000E+00 0.  1.
          1    1    3    3  501    0 -0.13793972218E+02 -0.16170401659E+02 -0.32345106849E+03  0.32414865304E+03  0.00000000000E+00 0.  1.
         21    1    1    2  502  501  0.33541668390E+02  0.35699498838E+02 -0.21482493244E+03  0.22033894194E+03  0.00000000000E+00 0.  1.
<mgrwt>
<rscale>  1 0.30000000E+03</rscale>
<asrwt>0</asrwt>
<pdfrwt beam="1">  1        3 0.12822849E-01 0.30000000E+03</pdfrwt>
<pdfrwt beam="2">0</pdfrwt>
<totfact> 0.21776550E+02</totfact>
</mgrwt>
</event>
<event>
 6    1  0.1956957E-002  0.3000000E+03  0.7818608E-02  0.1093470E+00
          1   -1    0    0  502    0  0.00000000000E+00  0.00000000000E+00  0.10589659485E+01  0.10589659485E+01  0.00000000000E+00 0.  1.
         13   -1    0    0    0    0 -0.00000000000E+00 -0.00000000000E+00 -0.10000000000E+04  0.10000000000E+04  0.00000000000E+00 0.  1.
    9000005    2    1    2  501    0  0.23140568285E+02 -0.20284087605E+02 -0.65930744654E+03  0.66003418110E+03  0.34468906899E+01 0.  0.
         13    1    3    3    0    0 -0.12083283946E+00 -0.18996677908E+00 -0.43945151474E+01  0.44002785517E+01  0.00000000000E+00 0.  1.
          3    1    3    3  501    0  0.23261401124E+02 -0.20094120826E+02 -0.65491293139E+03  0.65563390255E+03  0.00000000000E+00 0.  1.
         21    1    1    2  502  501 -0.23140568285E+02  0.20284087605E+02 -0.33963358751E+03  0.34102478485E+03  0.00000000000E+00 0.  1.
<mgrwt>
<rscale>  1 0.30000000E+03</rscale>
<asrwt>0</asrwt>
<pdfrwt beam="1">  1        1 0.38507934E-02 0.30000000E+03</pdfrwt>
<pdfrwt beam="2">0</pdfrwt>
<totfact> 0.28726536E+03</totfact>
</mgrwt>
</event>
<event>
 6    1  0.1956957E-002  0.3000000E+03  0.7818608E-02  0.1093470E+00
          1   -1    0    0  502    0  0.00000000000E+00  0.00000000000E+00  0.32631713063E+01  0.32631713063E+01  0.00000000000E+00 0.  1.
         13   -1    0    0    0    0 -0.00000000000E+00 -0.00000000000E+00 -0.10000000000E+04  0.10000000000E+04  0.00000000000E+00 0.  1.
    9000005    2    1    2  501    0  0.14005551998E+02  0.50547969217E+02 -0.30111107647E+03  0.30566268404E+03  0.32470543969E+01 0.  0.
         13    1    3    3    0    0  0.53747483114E+01  0.25478153430E+02 -0.14914078246E+03  0.15139682036E+03  0.00000000000E+00 0.  1.
          1    1    3    3  501    0  0.86308036868E+01  0.25069815787E+02 -0.15197029401E+03  0.15426586368E+03  0.00000000000E+00 0.  1.
         21    1    1    2  502  501 -0.14005551998E+02 -0.50547969217E+02 -0.69562575222E+03  0.69760048727E+03  0.00000000000E+00 0.  1.
<mgrwt>
<rscale>  1 0.30000000E+03</rscale>
<asrwt>0</asrwt>
<pdfrwt beam="1">  1        1 0.11866102E-01 0.30000000E+03</pdfrwt>
<pdfrwt beam="2">0</pdfrwt>
<totfact> 0.59729047E+02</totfact>
</mgrwt>
</event>
<event>
 6    1  0.1956957E-002  0.3000000E+03  0.7818608E-02  0.1093470E+00
          1   -1    0    0  502    0  0.00000000000E+00  0.00000000000E+00  0.11783071715E+01  0.11783071715E+01  0.00000000000E+00 0.  1.
         13   -1    0    0    0    0 -0.00000000000E+00 -0.00000000000E+00 -0.10000000000E+04  0.10000000000E+04  0.00000000000E+00 0.  1.
    9000005    2    1    2  501    0 -0.69125512557E+01  0.31193302197E+02 -0.32051988796E+03  0.32212444778E+03  0.32180448724E+01 0.  0.
         13    1    3    3    0    0 -0.43311542382E+01  0.13827089295E+02 -0.13477682866E+03  0.13555346118E+03  0.00000000000E+00 0.  1.
          1    1    3    3  501    0 -0.25813970175E+01  0.17366212902E+02 -0.18574305930E+03  0.18657098660E+03  0.00000000000E+00 0.  1.
         21    1    1    2  502  501  0.69125512557E+01 -0.31193302197E+02 -0.67830180487E+03  0.67905385939E+03  0.00000000000E+00 0.  1.
<mgrwt>
<rscale>  1 0.30000000E+03</rscale>
<asrwt>0</asrwt>
<pdfrwt beam="1">  1        1 0.42847624E-02 0.30000000E+03</pdfrwt>
<pdfrwt beam="2">0</pdfrwt>
<totfact> 0.24716596E+03</totfact>
</mgrwt>
</event>
<event>
 6    1  0.1956957E-002  0.3000000E+03  0.7818608E-02  0.1093470E+00
          1   -1    0    0  502    0  0.00000000000E+00  0.00000000000E+00  0.26554940446E+01  0.26554940446E+01  0.00000000000E+00 0.  1.
         13   -1    0    0    0    0 -0.00000000000E+00 -0.00000000000E+00 -0.10000000000E+04  0.10000000000E+04  0.00000000000E+00 0.  1.
    9000005    2    1    2  501    0  0.35726641946E+02  0.15014557671E+02 -0.82711433233E+03  0.82806986491E+03  0.89304279857E+01 0.  0.
         13    1    3    3    0    0  0.26016584858E+02  0.77915716376E+01 -0.50701318509E+03  0.50774003302E+03  0.00000000000E+00 0.  1.
          3    1    3    3  501    0  0.97100570879E+01  0.72229860337E+01 -0.32010114724E+03  0.32032983189E+03  0.00000000000E+00 0.  1.
         21    1    1    2  502  501 -0.35726641946E+02 -0.15014557671E+02 -0.17023017362E+03  0.17458562913E+03  0.00000000000E+00 0.  1.
<mgrwt>
<rscale>  1 0.30000000E+03</rscale>
<asrwt>0</asrwt>
<pdfrwt beam="1">  1        1 0.96563623E-02 0.30000000E+03</pdfrwt>
<pdfrwt beam="2">0</pdfrwt>
<totfact> 0.79314849E+02</totfact>
</mgrwt>
</event>
<event>
 6    1  0.1956957E-002  0.3000000E+03  0.7818608E-02  0.1093470E+00
          1   -1    0    0  502    0  0.00000000000E+00  0.00000000000E+00  0.14437383797E+01  0.14437383797E+01  0.00000000000E+00 0.  1.
         13   -1    0    0    0    0 -0.00000000000E+00 -0.00000000000E+00 -0.10000000000E+04  0.10000000000E+04  0.00000000000E+00 0.  1.
    9000005    2    1    2  501    0 -0.17795842026E+02 -0.33386969752E+02 -0.53279632518E+03  0.53414971944E+03  0.35520291929E+01 0.  0.
         13    1    3    3    0    0 -0.56725053648E+01 -0.97380890618E+01 -0.18158964972E+03  0.18193902435E+03  0.00000000000E+00 0.  1.
          3    1    3    3  501    0 -0.12123336662E+02 -0.23648880691E+02 -0.35120667546E+03  0.35221069509E+03  0.00000000000E+00 0.  1.
         21    1    1    2  502  501  0.17795842026E+02  0.33386969752E+02 -0.46575993644E+03  0.46729401894E+03  0.00000000000E+00 0.  1.
<mgrwt>
<rscale>  1 0.30000000E+03</rscale>
<asrwt>0</asrwt>
<pdfrwt beam="1">  1        1 0.52499688E-02 0.30000000E+03</pdfrwt>
<pdfrwt beam="2">0</pdfrwt>
<totfact> 0.18573703E+03</totfact>
</mgrwt>
</event>
<event>
 6    1  0.1956957E-002  0.3000000E+03  0.7818608E-02  0.1093470E+00
          1   -1    0    0  502    0  0.00000000000E+00  0.00000000000E+00  0.20715410121E+01  0.20715410121E+01  0.00000000000E+00 0.  1.
         13   -1    0    0    0    0 -0.00000000000E+00 -0.00000000000E+00 -0.10000000000E+04  0.10000000000E+04  0.00000000000E+00 0.  1.
    9000005    2    1    2  501    0  0.28669275750E+01 -0.36791986090E+02 -0.79056816588E+03  0.79145302171E+03  0.61636970257E+01 0.  0.
         13    1    3    3    0    0 -0.51487927766E+00 -0.18437462322E+02 -0.44354681336E+03  0.44393015302E+03  0.00000000000E+00 0.  1.
          1    1    3    3  501    0  0.33818068526E+01 -0.18354523767E+02 -0.34702135252E+03  0.34752286870E+03  0.00000000000E+00 0.  1.
         21    1    1    2  502  501 -0.28669275750E+01  0.36791986090E+02 -0.20736029311E+03  0.21061851930E+03  0.00000000000E+00 0.  1.
<mgrwt>
<rscale>  1 0.30000000E+03</rscale>
<asrwt>0</asrwt>
<pdfrwt beam="1">  1        1 0.75328923E-02 0.30000000E+03</pdfrwt>
<pdfrwt beam="2">0</pdfrwt>
<totfact> 0.11199311E+03</totfact>
</mgrwt>
</event>
<event>
 6    1  0.1956957E-002  0.3000000E+03  0.7818608E-02  0.1093470E+00
          1   -1    0    0  502    0  0.00000000000E+00  0.00000000000E+00  0.13834347153E+01  0.13834347153E+01  0.00000000000E+00 0.  1.
         13   -1    0    0    0    0 -0.00000000000E+00 -0.00000000000E+00 -0.10000000000E+04  0.10000000000E+04  0.00000000000E+00 0.  1.
    9000005    2    1    2  501    0  0.34362212093E+02 -0.32310803744E+01 -0.31799682826E+03  0.31988917361E+03  0.39873682051E+01 0.  0.
         13    1    3    3    0    0  0.12222799016E+02  0.35237687903E+00 -0.10156799253E+03  0.10230140807E+03  0.00000000000E+00 0.  1.
          1    1    3    3  501    0  0.22139413077E+02 -0.35834572534E+01 -0.21642883573E+03  0.21758776554E+03  0.00000000000E+00 0.  1.
         21    1    1    2  502  501 -0.34362212093E+02  0.32310803744E+01 -0.68061973702E+03  0.68149426111E+03  0.00000000000E+00 0.  1.
<mgrwt>
<rscale>  1 0.30000000E+03</rscale>
<asrwt>0</asrwt>
<pdfrwt beam="1">  1        1 0.50306823E-02 0.30000000E+03</pdfrwt>
<pdfrwt beam="2">0</pdfrwt>
<totfact> 0.19721298E+03</totfact>
</mgrwt>
</event>
<event>
 6    1  0.1956957E-002  0.3000000E+03  0.7818608E-02  0.1093470E+00
          1   -1    0    0  502    0  0.00000000000E+00  0.00000000000E+00  0.44286007107E+02  0.44286007107E+02  0.00000000000E+00 0.  1.
         13   -1    0    0    0    0 -0.00000000000E+00 -0.00000000000E+00 -0.10000000000E+04  0.10000000000E+04  0.00000000000E+00 0.  1.
    9000005    2    1    2  501    0  0.55487618719E+02 -0.11253128721E+03 -0.89704308090E+03  0.90577809273E+03  0.23447477812E+01 0.  0.
         13    1    3    3    0    0  0.40742566170E+01 -0.70139497647E+01 -0.59182890827E+02  0.59736166809E+02  0.00000000000E+00 0.  1.
          3    1    3    3  501    0  0.51413362102E+02 -0.10551733744E+03 -0.83786019008E+03  0.84604192592E+03  0.00000000000E+00 0.  1.
         21    1    1    2  502  501 -0.55487618719E+02  0.11253128721E+03 -0.58670911990E+02  0.13850791438E+03  0.00000000000E+00 0.  1.
<mgrwt>
<rscale>  1 0.30000000E+03</rscale>
<asrwt>0</asrwt>
<pdfrwt beam="1">  1        1 0.16104037E+00 0.30000000E+03</pdfrwt>
<pdfrwt beam="2">0</pdfrwt>
<totfact> 0.15813913E+01</totfact>
</mgrwt>
</event>
<event>
 6    1  0.1956957E-002  0.3000000E+03  0.7818608E-02  0.1093470E+00
          1   -1    0    0  502    0  0.00000000000E+00  0.00000000000E+00  0.12324823477E+02  0.12324823477E+02  0.00000000000E+00 0.  1.
         13   -1    0    0    0    0 -0.00000000000E+00 -0.00000000000E+00 -0.10000000000E+04  0.10000000000E+04  0.00000000000E+00 0.  1.
    9000005    2    1    2  501    0 -0.96564456027E+02 -0.18811939724E+02 -0.25963474674E+03  0.27766745392E+03  0.32295522994E+01 0.  0.
         13    1    3    3    0    0 -0.95996362072E+02 -0.18546324658E+02 -0.25730132755E+03  0.27525123224E+03  0.00000000000E+00 0.  1.
          1    1    3    3  501    0 -0.56809395443E+00 -0.26561506583E+00 -0.23334191871E+01  0.24162216800E+01  0.00000000000E+00 0.  1.
         21    1    1    2  502  501  0.96564456027E+02  0.18811939724E+02 -0.72804042979E+03  0.73465736956E+03  0.00000000000E+00 0.  1.
<mgrwt>
<rscale>  1 0.30000000E+03</rscale>
<asrwt>0</asrwt>
<pdfrwt beam="1">  1        1 0.44817634E-01 0.30000000E+03</pdfrwt>
<pdfrwt beam="2">0</pdfrwt>
<totfact> 0.10186006E+02</totfact>
</mgrwt>
</event>
<event>
 6    1  0.1956957E-002  0.3000000E+03  0.7818608E-02  0.1093470E+00
          1   -1    0    0  502    0  0.00000000000E+00  0.00000000000E+00  0.10970556624E+01  0.10970556624E+01  0.00000000000E+00 0.  1.
         13   -1    0    0    0    0 -0.00000000000E+00 -0.00000000000E+00 -0.10000000000E+04  0.10000000000E+04  0.00000000000E+00 0.  1.
    9000005    2    1    2  501    0  0.17912066422E+02  0.24718842283E+02 -0.31974958073E+03  0.32125799045E+03  0.59193550859E+01 0.  0.
         13    1    3    3    0    0  0.17177487090E+02  0.21382032144E+02 -0.26938534804E+03  0.27077799596E+03  0.00000000000E+00 0.  1.
          1    1    3    3  501    0  0.73457933271E+00  0.33368101396E+01 -0.50364232692E+02  0.50479994487E+02  0.00000000000E+00 0.  1.
         21    1    1    2  502  501 -0.17912066422E+02 -0.24718842283E+02 -0.67915336361E+03  0.67983906521E+03  0.00000000000E+00 0.  1.
<mgrwt>
<rscale>  1 0.30000000E+03</rscale>
<asrwt>0</asrwt>
<pdfrwt beam="1">  1        1 0.39893017E-02 0.30000000E+03</pdfrwt>
<pdfrwt beam="2">0</pdfrwt>
<totfact> 0.27332394E+03</totfact>
</mgrwt>
</event>
<event>
 6    1  0.1956957E-002  0.3000000E+03  0.7818608E-02  0.1093470E+00
          1   -1    0    0  502    0  0.00000000000E+00  0.00000000000E+00  0.15993118062E+01  0.15993118062E+01  0.00000000000E+00 0.  1.
         13   -1    0    0    0    0 -0.00000000000E+00 -0.00000000000E+00 -0.10000000000E+04  0.10000000000E+04  0.00000000000E+00 0.  1.
    9000005    2    1    2  501    0 -0.25933652306E+02  0.21949805673E+02 -0.76180137464E+03  0.76257298801E+03  0.46775373547E+01 0.  0.
         13    1    3    3    0    0 -0.22048924698E+02  0.17613472935E+02 -0.59275399607E+03  0.59342538652E+03  0.00000000000E+00 0.  1.
          1    1    3    3  501    0 -0.38847276083E+01  0.43363327381E+01 -0.16904737857E+03  0.16914760149E+03  0.00000000000E+00 0.  1.
         21    1    1    2  502  501  0.25933652306E+02 -0.21949805673E+02 -0.23659931355E+03  0.23902632379E+03  0.00000000000E+00 0.  1.
<mgrwt>
<rscale>  1 0.30000000E+03</rscale>
<asrwt>0</asrwt>
<pdfrwt beam="1">  1        1 0.58156916E-02 0.30000000E+03</pdfrwt>
<pdfrwt beam="2">0</pdfrwt>
<totfact> 0.16087578E+03</totfact>
</mgrwt>
</event>
<event>
 6    1  0.1956957E-002  0.3000000E+03  0.7818608E-02  0.1093470E+00
          1   -1    0    0  502    0  0.00000000000E+00  0.00000000000E+00  0.12605336122E+01  0.12605336122E+01  0.00000000000E+00 0.  1.
         13   -1    0    0    0    0 -0.00000000000E+00 -0.00000000000E+00 -0.10000000000E+04  0.10000000000E+04  0.00000000000E+00 0.  1.
    9000005    2    1    2  501    0  0.29200445035E+02 -0.15216957682E+02 -0.68474002174E+03  0.68553933852E+03  0.33264838122E+01 0.  0.
         13    1    3    3    0    0  0.20183091628E+02 -0.98193547578E+01 -0.49477620541E+03  0.49528503950E+03  0.00000000000E+00 0.  1.
          3    1    3    3  501    0  0.90173534072E+01 -0.53976029245E+01 -0.18996381633E+03  0.19025429902E+03  0.00000000000E+00 0.  1.
         21    1    1    2  502  501 -0.29200445035E+02  0.15216957682E+02 -0.31399944465E+03  0.31572119509E+03  0.00000000000E+00 0.  1.
<mgrwt>
<rscale>  1 0.30000000E+03</rscale>
<asrwt>0</asrwt>
<pdfrwt beam="1">  1        1 0.45837683E-02 0.30000000E+03</pdfrwt>
<pdfrwt beam="2">0</pdfrwt>
<totfact> 0.22477792E+03</totfact>
</mgrwt>
</event>
<event>
 6    1  0.1956957E-002  0.3000000E+03  0.7818608E-02  0.1093470E+00
          1   -1    0    0  502    0  0.00000000000E+00  0.00000000000E+00  0.54672922549E+01  0.54672922549E+01  0.00000000000E+00 0.  1.
         13   -1    0    0    0    0 -0.00000000000E+00 -0.00000000000E+00 -0.10000000000E+04  0.10000000000E+04  0.00000000000E+00 0.  1.
    9000005    2    1    2  501    0 -0.27597608166E+02  0.14986017912E+02 -0.95237792162E+03  0.95290081337E+03  0.31695140630E+01 0.  0.
         13    1    3    3    0    0 -0.11313369819E+02  0.64035556017E+01 -0.34838226517E+03  0.34862472739E+03  0.00000000000E+00 0.  1.
          1    1    3    3  501    0 -0.16284238347E+02  0.85824623100E+01 -0.60399565644E+03  0.60427608597E+03  0.00000000000E+00 0.  1.
         21    1    1    2  502  501  0.27597608166E+02 -0.14986017912E+02 -0.42154786128E+02  0.52566478889E+02  0.00000000000E+00 0.  1.
<mgrwt>
<rscale>  1 0.30000000E+03</rscale>
<asrwt>0</asrwt>
<pdfrwt beam="1">  1        1 0.19881105E-01 0.30000000E+03</pdfrwt>
<pdfrwt beam="2">0</pdfrwt>
<totfact> 0.29677382E+02</totfact>
</mgrwt>
</event>
<event>
 6    1  0.1956957E-002  0.3000000E+03  0.7818608E-02  0.1093470E+00
          3   -1    0    0  502    0  0.00000000000E+00  0.00000000000E+00  0.15079068051E+01  0.15079068051E+01  0.00000000000E+00 0.  1.
         13   -1    0    0    0    0 -0.00000000000E+00 -0.00000000000E+00 -0.10000000000E+04  0.10000000000E+04  0.00000000000E+00 0.  1.
    9000005    2    1    2  501    0 -0.23632473186E+02 -0.21226162334E+02 -0.78639192789E+03  0.78704223617E+03  0.37647731727E+01 0.  0.
         13    1    3    3    0    0 -0.13103962301E+02 -0.12142683334E+02 -0.48698626370E+03  0.48731384099E+03  0.00000000000E+00 0.  1.
          1    1    3    3  501    0 -0.10528510885E+02 -0.90834790005E+01 -0.29940566419E+03  0.29972839519E+03  0.00000000000E+00 0.  1.
         21    1    1    2  502  501  0.23632473186E+02  0.21226162334E+02 -0.21210016531E+03  0.21446567063E+03  0.00000000000E+00 0.  1.
<mgrwt>
<rscale>  1 0.30000000E+03</rscale>
<asrwt>0</asrwt>
<pdfrwt beam="1">  1        3 0.54833090E-02 0.30000000E+03</pdfrwt>
<pdfrwt beam="2">0</pdfrwt>
<totfact> 0.85783713E+02</totfact>
</mgrwt>
</event>
<event>
 6    1  0.1956957E-002  0.3000000E+03  0.7818608E-02  0.1093470E+00
          1   -1    0    0  502    0  0.00000000000E+00  0.00000000000E+00  0.28511519800E+01  0.28511519800E+01  0.00000000000E+00 0.  1.
         13   -1    0    0    0    0 -0.00000000000E+00 -0.00000000000E+00 -0.10000000000E+04  0.10000000000E+04  0.00000000000E+00 0.  1.
    9000005    2    1    2  501    0 -0.39210099470E+00 -0.41795067482E+02 -0.81030185506E+03  0.81138632444E+03  0.34190284617E+01 0.  0.
         13    1    3    3    0    0  0.13544444374E+01 -0.18761988375E+02 -0.37809051507E+03  0.37855816503E+03  0.00000000000E+00 0.  1.
          3    1    3    3  501    0 -0.17465454321E+01 -0.23033079108E+02 -0.43221133999E+03  0.43282815940E+03  0.00000000000E+00 0.  1.
         21    1    1    2  502  501  0.39210099470E+00  0.41795067482E+02 -0.18684699296E+03  0.19146482754E+03  0.00000000000E+00 0.  1.
<mgrwt>
<rscale>  1 0.30000000E+03</rscale>
<asrwt>0</asrwt>
<pdfrwt beam="1">  1        1 0.10367847E-01 0.30000000E+03</pdfrwt>
<pdfrwt beam="2">0</pdfrwt>
<totfact> 0.71900862E+02</totfact>
</mgrwt>
</event>
<event>
 6    1  0.1956957E-002  0.3000000E+03  0.7818608E-02  0.1093470E+00
          1   -1    0    0  502    0  0.00000000000E+00  0.00000000000E+00  0.10183321944E+02  0.10183321944E+02  0.00000000000E+00 0.  1.
         13   -1    0    0    0    0 -0.00000000000E+00 -0.00000000000E+00 -0.10000000000E+04  0.10000000000E+04  0.00000000000E+00 0.  1.
    9000005    2    1    2  501    0 -0.55429529606E+01  0.30846905118E+02 -0.97501401773E+03  0.97552247031E+03  0.30821162034E+01 0.  0.
         13    1    3    3    0    0  0.15203700744E+00  0.72766113828E+00 -0.14005265438E+02  0.14024980071E+02  0.00000000000E+00 0.  1.
          3    1    3    3  501    0 -0.56949899680E+01  0.30119243980E+02 -0.96100875229E+03  0.96149749024E+03  0.00000000000E+00 0.  1.
         21    1    1    2  502  501  0.55429529606E+01 -0.30846905118E+02 -0.14802660328E+02  0.34660851630E+02  0.00000000000E+00 0.  1.
<mgrwt>
<rscale>  1 0.30000000E+03</rscale>
<asrwt>0</asrwt>
<pdfrwt beam="1">  1        1 0.37030340E-01 0.30000000E+03</pdfrwt>
<pdfrwt beam="2">0</pdfrwt>
<totfact> 0.13073145E+02</totfact>
</mgrwt>
</event>
<event>
 6    1  0.1956957E-002  0.3000000E+03  0.7818608E-02  0.1093470E+00
          1   -1    0    0  502    0  0.00000000000E+00  0.00000000000E+00  0.97139028939E+01  0.97139028939E+01  0.00000000000E+00 0.  1.
         13   -1    0    0    0    0 -0.00000000000E+00 -0.00000000000E+00 -0.10000000000E+04  0.10000000000E+04  0.00000000000E+00 0.  1.
    9000005    2    1    2  501    0 -0.65089894789E+02 -0.38278593844E+02 -0.81948823878E+03  0.82296847842E+03  0.37680016790E+01 0.  0.
         13    1    3    3    0    0 -0.57330308812E+02 -0.35085411843E+02 -0.72826424255E+03  0.73135939004E+03  0.00000000000E+00 0.  1.
          3    1    3    3  501    0 -0.77595859776E+01 -0.31931820018E+01 -0.91223996229E+02  0.91609088380E+02  0.00000000000E+00 0.  1.
         21    1    1    2  502  501  0.65089894789E+02  0.38278593844E+02 -0.17079785833E+03  0.18674542447E+03  0.00000000000E+00 0.  1.
<mgrwt>
<rscale>  1 0.30000000E+03</rscale>
<asrwt>0</asrwt>
<pdfrwt beam="1">  1        1 0.35323358E-01 0.30000000E+03</pdfrwt>
<pdfrwt beam="2">0</pdfrwt>
<totfact> 0.13904102E+02</totfact>
</mgrwt>
</event>
<event>
 6    1  0.1956957E-002  0.3000000E+03  0.7818608E-02  0.1093470E+00
          1   -1    0    0  502    0  0.00000000000E+00  0.00000000000E+00  0.56190648213E+01  0.56190648213E+01  0.00000000000E+00 0.  1.
         13   -1    0    0    0    0 -0.00000000000E+00 -0.00000000000E+00 -0.10000000000E+04  0.10000000000E+04  0.00000000000E+00 0.  1.
    9000005    2    1    2  501    0 -0.19874157773E+02 -0.49887923194E+02 -0.84751398037E+03  0.84924231002E+03  0.69833498745E+01 0.  0.
         13    1    3    3    0    0 -0.11378319281E+02 -0.26776795235E+02 -0.51203821272E+03  0.51286410890E+03  0.00000000000E+00 0.  1.
          3    1    3    3  501    0 -0.84958384920E+01 -0.23111127958E+02 -0.33547576766E+03  0.33637820113E+03  0.00000000000E+00 0.  1.
         21    1    1    2  502  501  0.19874157773E+02  0.49887923194E+02 -0.14686695481E+03  0.15637675480E+03  0.00000000000E+00 0.  1.
<mgrwt>
<rscale>  1 0.30000000E+03</rscale>
<asrwt>0</asrwt>
<pdfrwt beam="1">  1        1 0.20433006E-01 0.30000000E+03</pdfrwt>
<pdfrwt beam="2">0</pdfrwt>
<totfact> 0.28610849E+02</totfact>
</mgrwt>
</event>
<event>
 6    1  0.1956957E-002  0.3000000E+03  0.7818608E-02  0.1093470E+00
          1   -1    0    0  502    0  0.00000000000E+00  0.00000000000E+00  0.12517562286E+01  0.12517562286E+01  0.00000000000E+00 0.  1.
         13   -1    0    0    0    0 -0.00000000000E+00 -0.00000000000E+00 -0.10000000000E+04  0.10000000000E+04  0.00000000000E+00 0.  1.
    9000005    2    1    2  501    0  0.22370693337E+02  0.23920791043E+02 -0.68755335802E+03  0.68833817538E+03  0.26779451098E+01 0.  0.
         13    1    3    3    0    0  0.16648326721E+02  0.16259970625E+02 -0.47433733040E+03  0.47490783994E+03  0.00000000000E+00 0.  1.
          1    1    3    3  501    0  0.57223666156E+01  0.76608204180E+01 -0.21321602762E+03  0.21343033544E+03  0.00000000000E+00 0.  1.
         21    1    1    2  502  501 -0.22370693337E+02 -0.23920791043E+02 -0.31119488575E+03  0.31291358085E+03  0.00000000000E+00 0.  1.
<mgrwt>
<rscale>  1 0.30000000E+03</rscale>
<asrwt>0</asrwt>
<pdfrwt beam="1">  1        1 0.45518504E-02 0.30000000E+03</pdfrwt>
<pdfrwt beam="2">0</pdfrwt>
<totfact> 0.22699893E+03</totfact>
</mgrwt>
</event>
<event>
 6    1  0.1956957E-002  0.3000000E+03  0.7818608E-02  0.1093470E+00
          1   -1    0    0  502    0  0.00000000000E+00  0.00000000000E+00  0.40185776445E+01  0.40185776445E+01  0.00000000000E+00 0.  1.
         13   -1    0    0    0    0 -0.00000000000E+00 -0.00000000000E+00 -0.10000000000E+04  0.10000000000E+04  0.00000000000E+00 0.  1.
    9000005    2    1    2  501    0  0.41123936955E+02  0.30496312287E+02 -0.79375585986E+03  0.79541277384E+03  0.34514452222E+01 0.  0.
         13    1    3    3    0    0  0.11017391548E+02  0.75911818221E+01 -0.23054830653E+03  0.23093620461E+03  0.00000000000E+00 0.  1.
          3    1    3    3  501    0  0.30106545408E+02  0.22905130465E+02 -0.56320755333E+03  0.56447656922E+03  0.00000000000E+00 0.  1.
         21    1    1    2  502  501 -0.41123936955E+02 -0.30496312287E+02 -0.20222556250E+03  0.20860580381E+03  0.00000000000E+00 0.  1.
<mgrwt>
<rscale>  1 0.30000000E+03</rscale>
<asrwt>0</asrwt>
<pdfrwt beam="1">  1        1 0.14613040E-01 0.30000000E+03</pdfrwt>
<pdfrwt beam="2">0</pdfrwt>
<totfact> 0.44948113E+02</totfact>
</mgrwt>
</event>
<event>
 6    1  0.1956957E-002  0.3000000E+03  0.7818608E-02  0.1093470E+00
          1   -1    0    0  502    0  0.00000000000E+00  0.00000000000E+00  0.95848519110E+01  0.95848519110E+01  0.00000000000E+00 0.  1.
         13   -1    0    0    0    0 -0.00000000000E+00 -0.00000000000E+00 -0.10000000000E+04  0.10000000000E+04  0.00000000000E+00 0.  1.
    9000005    2    1    2  501    0  0.25136498165E+02  0.17121794852E+02 -0.97501470028E+03  0.97549419055E+03  0.32016632828E+01 0.  0.
         13    1    3    3    0    0  0.20325670310E+02  0.13867372717E+02 -0.74523809066E+03  0.74564418369E+03  0.00000000000E+00 0.  1.
          1    1    3    3  501    0  0.48108278557E+01  0.32544221350E+01 -0.22977660962E+03  0.22985000686E+03  0.00000000000E+00 0.  1.
         21    1    1    2  502  501 -0.25136498165E+02 -0.17121794852E+02 -0.15400447811E+02  0.34090661357E+02  0.00000000000E+00 0.  1.
<mgrwt>
<rscale>  1 0.30000000E+03</rscale>
<asrwt>0</asrwt>
<pdfrwt beam="1">  1        1 0.34854080E-01 0.30000000E+03</pdfrwt>
<pdfrwt beam="2">0</pdfrwt>
<totfact> 0.14149246E+02</totfact>
</mgrwt>
</event>
<event>
 6    1  0.1956957E-002  0.3000000E+03  0.7818608E-02  0.1093470E+00
          1   -1    0    0  502    0  0.00000000000E+00  0.00000000000E+00  0.94873214569E+00  0.94873214569E+00  0.00000000000E+00 0.  1.
         13   -1    0    0    0    0 -0.00000000000E+00 -0.00000000000E+00 -0.10000000000E+04  0.10000000000E+04  0.00000000000E+00 0.  1.
    9000005    2    1    2  501    0  0.27635652498E+02  0.13273080252E+02 -0.52138306599E+03  0.52229769536E+03  0.38310734488E+01 0.  0.
         13    1    3    3    0    0  0.27538535834E+02  0.13480980006E+02 -0.51827919440E+03  0.51918535334E+03  0.00000000000E+00 0.  1.
          3    1    3    3  501    0  0.97116663995E-01 -0.20789975431E+00 -0.31038715972E+01  0.31123420195E+01  0.00000000000E+00 0.  1.
         21    1    1    2  502  501 -0.27635652498E+02 -0.13273080252E+02 -0.47766820186E+03  0.47865103679E+03  0.00000000000E+00 0.  1.
<mgrwt>
<rscale>  1 0.30000000E+03</rscale>
<asrwt>0</asrwt>
<pdfrwt beam="1">  1        1 0.34499424E-02 0.30000000E+03</pdfrwt>
<pdfrwt beam="2">0</pdfrwt>
<totfact> 0.33531304E+03</totfact>
</mgrwt>
</event>
<event>
 6    1  0.1956957E-002  0.3000000E+03  0.7818608E-02  0.1093470E+00
          1   -1    0    0  502    0  0.00000000000E+00  0.00000000000E+00  0.10839591229E+01  0.10839591229E+01  0.00000000000E+00 0.  1.
         13   -1    0    0    0    0 -0.00000000000E+00 -0.00000000000E+00 -0.10000000000E+04  0.10000000000E+04  0.00000000000E+00 0.  1.
    9000005    2    1    2  501    0 -0.32234084175E+02  0.29814493708E+01 -0.41707072760E+03  0.41833882289E+03  0.33843302980E+01 0.  0.
         13    1    3    3    0    0 -0.18190873883E+02  0.28300068088E+01 -0.25219878571E+03  0.25286981699E+03  0.00000000000E+00 0.  1.
          3    1    3    3  501    0 -0.14043210292E+02  0.15144256202E+00 -0.16487194189E+03  0.16546900590E+03  0.00000000000E+00 0.  1.
         21    1    1    2  502  501  0.32234084175E+02 -0.29814493708E+01 -0.58184531327E+03  0.58274513623E+03  0.00000000000E+00 0.  1.
<mgrwt>
<rscale>  1 0.30000000E+03</rscale>
<asrwt>0</asrwt>
<pdfrwt beam="1">  1        1 0.39416778E-02 0.30000000E+03</pdfrwt>
<pdfrwt beam="2">0</pdfrwt>
<totfact> 0.27798476E+03</totfact>
</mgrwt>
</event>
<event>
 6    1  0.1956957E-002  0.3000000E+03  0.7818608E-02  0.1093470E+00
          3   -1    0    0  502    0  0.00000000000E+00  0.00000000000E+00  0.17177147720E+01  0.17177147720E+01  0.00000000000E+00 0.  1.
         13   -1    0    0    0    0 -0.00000000000E+00 -0.00000000000E+00 -0.10000000000E+04  0.10000000000E+04  0.00000000000E+00 0.  1.
    9000005    2    1    2  501    0 -0.33605520511E+02 -0.22624472055E+02 -0.60221156468E+03  0.60358053562E+03  0.30816562377E+01 0.  0.
         13    1    3    3    0    0 -0.27282856365E+02 -0.18161529439E+02 -0.46827872480E+03  0.46942428517E+03  0.00000000000E+00 0.  1.
          3    1    3    3  501    0 -0.63226641454E+01 -0.44629426156E+01 -0.13393283987E+03  0.13415625045E+03  0.00000000000E+00 0.  1.
         21    1    1    2  502  501  0.33605520511E+02  0.22624472055E+02 -0.39607072055E+03  0.39813717915E+03  0.00000000000E+00 0.  1.
<mgrwt>
<rscale>  1 0.30000000E+03</rscale>
<asrwt>0</asrwt>
<pdfrwt beam="1">  1        3 0.62462487E-02 0.30000000E+03</pdfrwt>
<pdfrwt beam="2">0</pdfrwt>
<totfact> 0.70032811E+02</totfact>
</mgrwt>
</event>
<event>
 6    1  0.1956957E-002  0.3000000E+03  0.7818608E-02  0.1093470E+00
          1   -1    0    0  502    0  0.00000000000E+00  0.00000000000E+00  0.23795193552E+02  0.23795193552E+02  0.00000000000E+00 0.  1.
         13   -1    0    0    0    0 -0.00000000000E+00 -0.00000000000E+00 -0.10000000000E+04  0.10000000000E+04  0.00000000000E+00 0.  1.
    9000005    2    1    2  501    0  0.33219121082E+02 -0.25771895142E+02 -0.98061454264E+03  0.98152053970E+03  0.31603857169E+01 0.  0.
         13    1    3    3    0    0  0.28729603839E+02 -0.23402962301E+02 -0.87422627195E+03  0.87501123612E+03  0.00000000000E+00 0.  1.
          1    1    3    3  501    0  0.44895172428E+01 -0.23689328419E+01 -0.10638827069E+03  0.10650930358E+03  0.00000000000E+00 0.  1.
         21    1    1    2  502  501 -0.33219121082E+02  0.25771895142E+02  0.44097361928E+01  0.42274653848E+02  0.00000000000E+00 0.  1.
<mgrwt>
<rscale>  1 0.30000000E+03</rscale>
<asrwt>0</asrwt>
<pdfrwt beam="1">  1        1 0.86528159E-01 0.30000000E+03</pdfrwt>
<pdfrwt beam="2">0</pdfrwt>
<totfact> 0.42104606E+01</totfact>
</mgrwt>
</event>
<event>
 6    1  0.1956957E-002  0.3000000E+03  0.7818608E-02  0.1093470E+00
          1   -1    0    0  502    0  0.00000000000E+00  0.00000000000E+00  0.27173487313E+01  0.27173487313E+01  0.00000000000E+00 0.  1.
         13   -1    0    0    0    0 -0.00000000000E+00 -0.00000000000E+00 -0.10000000000E+04  0.10000000000E+04  0.00000000000E+00 0.  1.
    9000005    2    1    2  501    0 -0.10598123598E+02 -0.47047088100E+02 -0.31025068953E+03  0.31399486095E+03  0.33961195309E+01 0.  0.
         13    1    3    3    0    0 -0.31466537784E+01 -0.81222005508E+01 -0.57330716937E+02  0.57988642649E+02  0.00000000000E+00 0.  1.
          3    1    3    3  501    0 -0.74514698199E+01 -0.38924887549E+02 -0.25291997259E+03  0.25600621830E+03  0.00000000000E+00 0.  1.
         21    1    1    2  502  501  0.10598123598E+02  0.47047088100E+02 -0.68703196174E+03  0.68872248778E+03  0.00000000000E+00 0.  1.
<mgrwt>
<rscale>  1 0.30000000E+03</rscale>
<asrwt>0</asrwt>
<pdfrwt beam="1">  1        1 0.98812890E-02 0.30000000E+03</pdfrwt>
<pdfrwt beam="2">0</pdfrwt>
<totfact> 0.76830225E+02</totfact>
</mgrwt>
</event>
<event>
 6    1  0.1956957E-002  0.3000000E+03  0.7818608E-02  0.1093470E+00
          3   -1    0    0  502    0  0.00000000000E+00  0.00000000000E+00  0.10673009902E+01  0.10673009902E+01  0.00000000000E+00 0.  1.
         13   -1    0    0    0    0 -0.00000000000E+00 -0.00000000000E+00 -0.10000000000E+04  0.10000000000E+04  0.00000000000E+00 0.  1.
    9000005    2    1    2  501    0  0.25925559738E+02  0.18861386884E+02 -0.58778204499E+03  0.58866852933E+03  0.38753647872E+01 0.  0.
         13    1    3    3    0    0  0.19430342334E+02  0.15120548540E+02 -0.47504854758E+03  0.47568612735E+03  0.00000000000E+00 0.  1.
          1    1    3    3  501    0  0.64952174045E+01  0.37408383435E+01 -0.11273349741E+03  0.11298240198E+03  0.00000000000E+00 0.  1.
         21    1    1    2  502  501 -0.25925559738E+02 -0.18861386884E+02 -0.41115065402E+03  0.41239877166E+03  0.00000000000E+00 0.  1.
<mgrwt>
<rscale>  1 0.30000000E+03</rscale>
<asrwt>0</asrwt>
<pdfrwt beam="1">  1        3 0.38811027E-02 0.30000000E+03</pdfrwt>
<pdfrwt beam="2">0</pdfrwt>
<totfact> 0.14614758E+03</totfact>
</mgrwt>
</event>
<event>
 6    1  0.1956957E-002  0.3000000E+03  0.7818608E-02  0.1093470E+00
          1   -1    0    0  502    0  0.00000000000E+00  0.00000000000E+00  0.19918572189E+01  0.19918572189E+01  0.00000000000E+00 0.  1.
         13   -1    0    0    0    0 -0.00000000000E+00 -0.00000000000E+00 -0.10000000000E+04  0.10000000000E+04  0.00000000000E+00 0.  1.
    9000005    2    1    2  501    0  0.55144375162E+01 -0.38000915974E+02 -0.75418361464E+03  0.75516220106E+03  0.15958330554E+01 0.  0.
         13    1    3    3    0    0  0.72162393460E-01 -0.33386255376E+01 -0.69315879881E+02  0.69396273903E+02  0.00000000000E+00 0.  1.
          1    1    3    3  501    0  0.54422751227E+01 -0.34662290436E+02 -0.68486773476E+03  0.68576592716E+03  0.00000000000E+00 0.  1.
         21    1    1    2  502  501 -0.55144375162E+01  0.38000915974E+02 -0.24382452814E+03  0.24682965616E+03  0.00000000000E+00 0.  1.
<mgrwt>
<rscale>  1 0.30000000E+03</rscale>
<asrwt>0</asrwt>
<pdfrwt beam="1">  1        1 0.72431324E-02 0.30000000E+03</pdfrwt>
<pdfrwt beam="2">0</pdfrwt>
<totfact> 0.11829860E+03</totfact>
</mgrwt>
</event>
<event>
 6    1  0.1956957E-002  0.3000000E+03  0.7818608E-02  0.1093470E+00
          1   -1    0    0  502    0  0.00000000000E+00  0.00000000000E+00  0.16311500673E+01  0.16311500673E+01  0.00000000000E+00 0.  1.
         13   -1    0    0    0    0 -0.00000000000E+00 -0.00000000000E+00 -0.10000000000E+04  0.10000000000E+04  0.00000000000E+00 0.  1.
    9000005    2    1    2  501    0  0.27453861394E+01 -0.38197361222E+02 -0.65612860293E+03  0.65725495719E+03  0.35720615809E+01 0.  0.
         13    1    3    3    0    0  0.18802095995E+01 -0.36518685124E+02 -0.62643041040E+03  0.62749677978E+03  0.00000000000E+00 0.  1.
          1    1    3    3  501    0  0.86517653985E+00 -0.16786760983E+01 -0.29698192523E+02  0.29758177414E+02  0.00000000000E+00 0.  1.
         21    1    1    2  502  501 -0.27453861394E+01  0.38197361222E+02 -0.34224024701E+03  0.34437619288E+03  0.00000000000E+00 0.  1.
<mgrwt>
<rscale>  1 0.30000000E+03</rscale>
<asrwt>0</asrwt>
<pdfrwt beam="1">  1        1 0.59314673E-02 0.30000000E+03</pdfrwt>
<pdfrwt beam="2">0</pdfrwt>
<totfact> 0.15648645E+03</totfact>
</mgrwt>
</event>
<event>
 6    1  0.1956957E-002  0.3000000E+03  0.7818608E-02  0.1093470E+00
          1   -1    0    0  502    0  0.00000000000E+00  0.00000000000E+00  0.64287320528E+01  0.64287320528E+01  0.00000000000E+00 0.  1.
         13   -1    0    0    0    0 -0.00000000000E+00 -0.00000000000E+00 -0.10000000000E+04  0.10000000000E+04  0.00000000000E+00 0.  1.
    9000005    2    1    2  501    0 -0.33110678255E+02 -0.21100307437E+02 -0.93547773722E+03  0.93631169916E+03  0.44114821319E+01 0.  0.
         13    1    3    3    0    0 -0.14816260336E+02 -0.69210191166E+01 -0.39794642846E+03  0.39828228934E+03  0.00000000000E+00 0.  1.
          1    1    3    3  501    0 -0.18294417919E+02 -0.14179288320E+02 -0.53753130875E+03  0.53802940982E+03  0.00000000000E+00 0.  1.
         21    1    1    2  502  501  0.33110678255E+02  0.21100307437E+02 -0.58093530731E+02  0.70117032890E+02  0.00000000000E+00 0.  1.
<mgrwt>
<rscale>  1 0.30000000E+03</rscale>
<asrwt>0</asrwt>
<pdfrwt beam="1">  1        1 0.23377257E-01 0.30000000E+03</pdfrwt>
<pdfrwt beam="2">0</pdfrwt>
<totfact> 0.23925272E+02</totfact>
</mgrwt>
</event>
<event>
 6    1  0.1956957E-002  0.3000000E+03  0.7818608E-02  0.1093470E+00
          1   -1    0    0  502    0  0.00000000000E+00  0.00000000000E+00  0.96814389357E+00  0.96814389357E+00  0.00000000000E+00 0.  1.
         13   -1    0    0    0    0 -0.00000000000E+00 -0.00000000000E+00 -0.10000000000E+04  0.10000000000E+04  0.00000000000E+00 0.  1.
    9000005    2    1    2  501    0  0.30508456740E+02 -0.55496037157E+01 -0.47913816904E+03  0.48015050797E+03  0.30921258076E+01 0.  0.
         13    1    3    3    0    0  0.10056563510E+02 -0.14369255745E+01 -0.13610247317E+03  0.13648106986E+03  0.00000000000E+00 0.  1.
          3    1    3    3  501    0  0.20451893229E+02 -0.41126781412E+01 -0.34303569586E+03  0.34366943812E+03  0.00000000000E+00 0.  1.
         21    1    1    2  502  501 -0.30508456740E+02  0.55496037157E+01 -0.51989368707E+03  0.52081763592E+03  0.00000000000E+00 0.  1.
<mgrwt>
<rscale>  1 0.30000000E+03</rscale>
<asrwt>0</asrwt>
<pdfrwt beam="1">  1        1 0.35205307E-02 0.30000000E+03</pdfrwt>
<pdfrwt beam="2">0</pdfrwt>
<totfact> 0.32589663E+03</totfact>
</mgrwt>
</event>
<event>
 6    1  0.1956957E-002  0.3000000E+03  0.7818608E-02  0.1093470E+00
          3   -1    0    0  502    0  0.00000000000E+00  0.00000000000E+00  0.18998305341E+01  0.18998305341E+01  0.00000000000E+00 0.  1.
         13   -1    0    0    0    0 -0.00000000000E+00 -0.00000000000E+00 -0.10000000000E+04  0.10000000000E+04  0.00000000000E+00 0.  1.
    9000005    2    1    2  501    0  0.20435683762E+01  0.35594768988E+02 -0.78667247881E+03  0.78748706942E+03  0.33364413788E+01 0.  0.
         13    1    3    3    0    0  0.20784181144E+00  0.31884397017E+00 -0.40544182901E+01  0.40722435300E+01  0.00000000000E+00 0.  1.
          3    1    3    3  501    0  0.18357265648E+01  0.35275925017E+02 -0.78261806052E+03  0.78341482589E+03  0.00000000000E+00 0.  1.
         21    1    1    2  502  501 -0.20435683762E+01 -0.35594768988E+02 -0.21142769066E+03  0.21441276111E+03  0.00000000000E+00 0.  1.
<mgrwt>
<rscale>  1 0.30000000E+03</rscale>
<asrwt>0</asrwt>
<pdfrwt beam="1">  1        3 0.69084892E-02 0.30000000E+03</pdfrwt>
<pdfrwt beam="2">0</pdfrwt>
<totfact> 0.59801021E+02</totfact>
</mgrwt>
</event>
<event>
 6    1  0.1956957E-002  0.3000000E+03  0.7818608E-02  0.1093470E+00
          3   -1    0    0  502    0  0.00000000000E+00  0.00000000000E+00  0.22523533968E+01  0.22523533968E+01  0.00000000000E+00 0.  1.
         13   -1    0    0    0    0 -0.00000000000E+00 -0.00000000000E+00 -0.10000000000E+04  0.10000000000E+04  0.00000000000E+00 0.  1.
    9000005    2    1    2  501    0 -0.33202904309E+01 -0.35775980285E+02 -0.82594536551E+03  0.82673321232E+03  0.33335355358E+01 0.  0.
         13    1    3    3    0    0 -0.11297531737E+01 -0.21469162058E+02 -0.46125987723E+03  0.46176062587E+03  0.00000000000E+00 0.  1.
          1    1    3    3  501    0 -0.21905372571E+01 -0.14306818228E+02 -0.36468548828E+03  0.36497258646E+03  0.00000000000E+00 0.  1.
         21    1    1    2  502  501  0.33202904309E+01  0.35775980285E+02 -0.17180228109E+03  0.17551914107E+03  0.00000000000E+00 0.  1.
<mgrwt>
<rscale>  1 0.30000000E+03</rscale>
<asrwt>0</asrwt>
<pdfrwt beam="1">  1        3 0.81903933E-02 0.30000000E+03</pdfrwt>
<pdfrwt beam="2">0</pdfrwt>
<totfact> 0.45643087E+02</totfact>
</mgrwt>
</event>
<event>
 6    1  0.1956957E-002  0.3000000E+03  0.7818608E-02  0.1093470E+00
          1   -1    0    0  502    0  0.00000000000E+00  0.00000000000E+00  0.27159684078E+01  0.27159684078E+01  0.00000000000E+00 0.  1.
         13   -1    0    0    0    0 -0.00000000000E+00 -0.00000000000E+00 -0.10000000000E+04  0.10000000000E+04  0.00000000000E+00 0.  1.
    9000005    2    1    2  501    0  0.36492011272E+02  0.12310259768E+02 -0.83620613153E+03  0.83709803680E+03  0.30363498632E+01 0.  0.
         13    1    3    3    0    0  0.36544126617E+02  0.12334205942E+02 -0.83539028372E+03  0.83628017551E+03  0.00000000000E+00 0.  1.
          1    1    3    3  501    0 -0.52115344823E-01 -0.23946173753E-01 -0.81584780835E+00  0.81786128090E+00  0.00000000000E+00 0.  1.
         21    1    1    2  502  501 -0.36492011272E+02 -0.12310259768E+02 -0.16107790006E+03  0.16561793161E+03  0.00000000000E+00 0.  1.
<mgrwt>
<rscale>  1 0.30000000E+03</rscale>
<asrwt>0</asrwt>
<pdfrwt beam="1">  1        1 0.98762696E-02 0.30000000E+03</pdfrwt>
<pdfrwt beam="2">0</pdfrwt>
<totfact> 0.76884168E+02</totfact>
</mgrwt>
</event>
<event>
 6    1  0.1956957E-002  0.3000000E+03  0.7818608E-02  0.1093470E+00
          3   -1    0    0  502    0  0.00000000000E+00  0.00000000000E+00  0.11826432699E+02  0.11826432699E+02  0.00000000000E+00 0.  1.
         13   -1    0    0    0    0 -0.00000000000E+00 -0.00000000000E+00 -0.10000000000E+04  0.10000000000E+04  0.00000000000E+00 0.  1.
    9000005    2    1    2  501    0  0.82303082525E+02 -0.70988984086E+02 -0.50605305861E+03  0.51760642283E+03  0.36711812026E+01 0.  0.
         13    1    3    3    0    0  0.36765761316E+02 -0.31488733860E+02 -0.23406074533E+03  0.23901400392E+03  0.00000000000E+00 0.  1.
          3    1    3    3  501    0  0.45537321209E+02 -0.39500250226E+02 -0.27199231328E+03  0.27859241891E+03  0.00000000000E+00 0.  1.
         21    1    1    2  502  501 -0.82303082525E+02  0.70988984086E+02 -0.48212050870E+03  0.49422000987E+03  0.00000000000E+00 0.  1.
<mgrwt>
<rscale>  1 0.30000000E+03</rscale>
<asrwt>0</asrwt>
<pdfrwt beam="1">  1        3 0.43005301E-01 0.30000000E+03</pdfrwt>
<pdfrwt beam="2">0</pdfrwt>
<totfact> 0.23392392E+01</totfact>
</mgrwt>
</event>
<event>
 6    1  0.1956957E-002  0.3000000E+03  0.7818608E-02  0.1093470E+00
          1   -1    0    0  502    0  0.00000000000E+00  0.00000000000E+00  0.20150614359E+02  0.20150614359E+02  0.00000000000E+00 0.  1.
         13   -1    0    0    0    0 -0.00000000000E+00 -0.00000000000E+00 -0.10000000000E+04  0.10000000000E+04  0.00000000000E+00 0.  1.
    9000005    2    1    2  501    0 -0.11641537361E+03  0.38386392726E+02 -0.74708850996E+03  0.75708469181E+03  0.31519042898E+01 0.  0.
         13    1    3    3    0    0 -0.20455903551E+02  0.73319956147E+01 -0.13914194601E+03  0.14082855992E+03  0.00000000000E+00 0.  1.
          1    1    3    3  501    0 -0.95959470055E+02  0.31054397112E+02 -0.60794656395E+03  0.61625613189E+03  0.00000000000E+00 0.  1.
         21    1    1    2  502  501  0.11641537361E+03 -0.38386392726E+02 -0.23276087568E+03  0.26306592254E+03  0.00000000000E+00 0.  1.
<mgrwt>
<rscale>  1 0.30000000E+03</rscale>
<asrwt>0</asrwt>
<pdfrwt beam="1">  1        1 0.73275116E-01 0.30000000E+03</pdfrwt>
<pdfrwt beam="2">0</pdfrwt>
<totfact> 0.52983267E+01</totfact>
</mgrwt>
</event>
<event>
 6    1  0.1956957E-002  0.3000000E+03  0.7818608E-02  0.1093470E+00
          1   -1    0    0  502    0  0.00000000000E+00  0.00000000000E+00  0.23511432399E+01  0.23511432399E+01  0.00000000000E+00 0.  1.
         13   -1    0    0    0    0 -0.00000000000E+00 -0.00000000000E+00 -0.10000000000E+04  0.10000000000E+04  0.00000000000E+00 0.  1.
    9000005    2    1    2  501    0  0.31801568856E+02 -0.21775469165E+02 -0.80278748512E+03  0.80371462847E+03  0.19866872752E+01 0.  0.
         13    1    3    3    0    0  0.30889991531E+02 -0.21126174809E+02 -0.78548378023E+03  0.78637476806E+03  0.00000000000E+00 0.  1.
          1    1    3    3  501    0  0.91157732422E+00 -0.64929435595E+00 -0.17303704889E+02  0.17339860416E+02  0.00000000000E+00 0.  1.
         21    1    1    2  502  501 -0.31801568856E+02  0.21775469165E+02 -0.19486137164E+03  0.19863651477E+03  0.00000000000E+00 0.  1.
<mgrwt>
<rscale>  1 0.30000000E+03</rscale>
<asrwt>0</asrwt>
<pdfrwt beam="1">  1        1 0.85496298E-02 0.30000000E+03</pdfrwt>
<pdfrwt beam="2">0</pdfrwt>
<totfact> 0.93894343E+02</totfact>
</mgrwt>
</event>
<event>
 6    1  0.1956957E-002  0.3000000E+03  0.7818608E-02  0.1093470E+00
          1   -1    0    0  502    0  0.00000000000E+00  0.00000000000E+00  0.11243574961E+01  0.11243574961E+01  0.00000000000E+00 0.  1.
         13   -1    0    0    0    0 -0.00000000000E+00 -0.00000000000E+00 -0.10000000000E+04  0.10000000000E+04  0.00000000000E+00 0.  1.
    9000005    2    1    2  501    0 -0.26334705627E+02 -0.17417989041E+02 -0.66533304838E+03  0.66609067985E+03  0.34388155876E+01 0.  0.
         13    1    3    3    0    0 -0.48347377451E+01 -0.22595234196E+01 -0.92350535110E+02  0.92504602428E+02  0.00000000000E+00 0.  1.
          3    1    3    3  501    0 -0.21499967882E+02 -0.15158465621E+02 -0.57298251327E+03  0.57358607742E+03  0.00000000000E+00 0.  1.
         21    1    1    2  502  501  0.26334705627E+02  0.17417989041E+02 -0.33354259412E+03  0.33503367765E+03  0.00000000000E+00 0.  1.
<mgrwt>
<rscale>  1 0.30000000E+03</rscale>
<asrwt>0</asrwt>
<pdfrwt beam="1">  1        1 0.40885813E-02 0.30000000E+03</pdfrwt>
<pdfrwt beam="2">0</pdfrwt>
<totfact> 0.26402585E+03</totfact>
</mgrwt>
</event>
<event>
 6    1  0.1956957E-002  0.3000000E+03  0.7818608E-02  0.1093470E+00
          1   -1    0    0  502    0  0.00000000000E+00  0.00000000000E+00  0.69162104212E+01  0.69162104212E+01  0.00000000000E+00 0.  1.
         13   -1    0    0    0    0 -0.00000000000E+00 -0.00000000000E+00 -0.10000000000E+04  0.10000000000E+04  0.00000000000E+00 0.  1.
    9000005    2    1    2  501    0  0.33119641090E+02  0.91673733532E+00 -0.95829288073E+03  0.95887291357E+03  0.37773138976E+01 0.  0.
         13    1    3    3    0    0  0.95457537166E+01  0.38516955955E+00 -0.32804545253E+03  0.32818453451E+03  0.00000000000E+00 0.  1.
          3    1    3    3  501    0  0.23573887373E+02  0.53156777577E+00 -0.63024742820E+03  0.63068837906E+03  0.00000000000E+00 0.  1.
         21    1    1    2  502  501 -0.33119641090E+02 -0.91673733532E+00 -0.34790908853E+02  0.48043296849E+02  0.00000000000E+00 0.  1.
<mgrwt>
<rscale>  1 0.30000000E+03</rscale>
<asrwt>0</asrwt>
<pdfrwt beam="1">  1        1 0.25149909E-01 0.30000000E+03</pdfrwt>
<pdfrwt beam="2">0</pdfrwt>
<totfact> 0.21721281E+02</totfact>
</mgrwt>
</event>
<event>
 6    1  0.1956957E-002  0.3000000E+03  0.7818608E-02  0.1093470E+00
          1   -1    0    0  502    0  0.00000000000E+00  0.00000000000E+00  0.23595116789E+01  0.23595116789E+01  0.00000000000E+00 0.  1.
         13   -1    0    0    0    0 -0.00000000000E+00 -0.00000000000E+00 -0.10000000000E+04  0.10000000000E+04  0.00000000000E+00 0.  1.
    9000005    2    1    2  501    0  0.22992374659E+02  0.33002913208E+02 -0.77945311707E+03  0.78049565580E+03  0.29095424900E+01 0.  0.
         13    1    3    3    0    0  0.99957758467E+01  0.16853540647E+02 -0.37390361162E+03  0.37441670388E+03  0.00000000000E+00 0.  1.
          3    1    3    3  501    0  0.12996598812E+02  0.16149372560E+02 -0.40554950545E+03  0.40607895191E+03  0.00000000000E+00 0.  1.
         21    1    1    2  502  501 -0.22992374659E+02 -0.33002913208E+02 -0.21818737125E+03  0.22186385588E+03  0.00000000000E+00 0.  1.
<mgrwt>
<rscale>  1 0.30000000E+03</rscale>
<asrwt>0</asrwt>
<pdfrwt beam="1">  1        1 0.85800606E-02 0.30000000E+03</pdfrwt>
<pdfrwt beam="2">0</pdfrwt>
<totfact> 0.93432125E+02</totfact>
</mgrwt>
</event>
<event>
 6    1  0.1956957E-002  0.3000000E+03  0.7818608E-02  0.1093470E+00
          1   -1    0    0  502    0  0.00000000000E+00  0.00000000000E+00  0.92330640435E+01  0.92330640435E+01  0.00000000000E+00 0.  1.
         13   -1    0    0    0    0 -0.00000000000E+00 -0.00000000000E+00 -0.10000000000E+04  0.10000000000E+04  0.00000000000E+00 0.  1.
    9000005    2    1    2  501    0  0.64555065749E+02 -0.68583157841E+02 -0.59481869136E+03  0.60223672689E+03  0.29653965308E+01 0.  0.
         13    1    3    3    0    0  0.60338367351E+02 -0.64608439484E+02 -0.56201443975E+03  0.56892459915E+03  0.00000000000E+00 0.  1.
          3    1    3    3  501    0  0.42166983980E+01 -0.39747183572E+01 -0.32804251609E+02  0.33312127747E+02  0.00000000000E+00 0.  1.
         21    1    1    2  502  501 -0.64555065749E+02  0.68583157841E+02 -0.39594824460E+03  0.40699633715E+03  0.00000000000E+00 0.  1.
<mgrwt>
<rscale>  1 0.30000000E+03</rscale>
<asrwt>0</asrwt>
<pdfrwt beam="1">  1        1 0.33574849E-01 0.30000000E+03</pdfrwt>
<pdfrwt beam="2">0</pdfrwt>
<totfact> 0.14858591E+02</totfact>
</mgrwt>
</event>
<event>
 6    1  0.1956957E-002  0.3000000E+03  0.7818608E-02  0.1093470E+00
          1   -1    0    0  502    0  0.00000000000E+00  0.00000000000E+00  0.10633630979E+01  0.10633630979E+01  0.00000000000E+00 0.  1.
         13   -1    0    0    0    0 -0.00000000000E+00 -0.00000000000E+00 -0.10000000000E+04  0.10000000000E+04  0.00000000000E+00 0.  1.
    9000005    2    1    2  501    0  0.48758787952E+01  0.31955076945E+02 -0.55630754786E+03  0.55725550872E+03  0.32730814229E+01 0.  0.
         13    1    3    3    0    0  0.54747698972E+00  0.71688675632E+01 -0.14641712342E+03  0.14659354155E+03  0.00000000000E+00 0.  1.
          3    1    3    3  501    0  0.43284018055E+01  0.24786209382E+02 -0.40989042444E+03  0.41066196718E+03  0.00000000000E+00 0.  1.
         21    1    1    2  502  501 -0.48758787952E+01 -0.31955076945E+02 -0.44262908904E+03  0.44380785437E+03  0.00000000000E+00 0.  1.
<mgrwt>
<rscale>  1 0.30000000E+03</rscale>
<asrwt>0</asrwt>
<pdfrwt beam="1">  1        1 0.38667831E-02 0.30000000E+03</pdfrwt>
<pdfrwt beam="2">0</pdfrwt>
<totfact> 0.28559456E+03</totfact>
</mgrwt>
</event>
<event>
 6    1  0.1956957E-002  0.3000000E+03  0.7818608E-02  0.1093470E+00
          1   -1    0    0  502    0  0.00000000000E+00  0.00000000000E+00  0.33904409750E+01  0.33904409750E+01  0.00000000000E+00 0.  1.
         13   -1    0    0    0    0 -0.00000000000E+00 -0.00000000000E+00 -0.10000000000E+04  0.10000000000E+04  0.00000000000E+00 0.  1.
    9000005    2    1    2  501    0 -0.24567118651E+02 -0.36515652438E+02 -0.82658199554E+03  0.82775926909E+03  0.32674191303E+01 0.  0.
         13    1    3    3    0    0 -0.20479955179E+00 -0.12104664072E+01 -0.20388238067E+02  0.20425166419E+02  0.00000000000E+00 0.  1.
          1    1    3    3  501    0 -0.24362319099E+02 -0.35305186031E+02 -0.80619375747E+03  0.80733410267E+03  0.00000000000E+00 0.  1.
         21    1    1    2  502  501  0.24567118651E+02  0.36515652438E+02 -0.17002756349E+03  0.17563117189E+03  0.00000000000E+00 0.  1.
<mgrwt>
<rscale>  1 0.30000000E+03</rscale>
<asrwt>0</asrwt>
<pdfrwt beam="1">  1        1 0.12328902E-01 0.30000000E+03</pdfrwt>
<pdfrwt beam="2">0</pdfrwt>
<totfact> 0.56677693E+02</totfact>
</mgrwt>
</event>
<event>
 6    1  0.1956957E-002  0.3000000E+03  0.7818608E-02  0.1093470E+00
          1   -1    0    0  502    0  0.00000000000E+00  0.00000000000E+00  0.88085678963E+01  0.88085678963E+01  0.00000000000E+00 0.  1.
         13   -1    0    0    0    0 -0.00000000000E+00 -0.00000000000E+00 -0.10000000000E+04  0.10000000000E+04  0.00000000000E+00 0.  1.
    9000005    2    1    2  501    0 -0.65792814723E+02  0.66720983267E+02 -0.48960741487E+03  0.49854695811E+03  0.72982647324E+01 0.  0.
         13    1    3    3    0    0 -0.45818459581E+02  0.50899826191E+02 -0.35199417259E+03  0.35859450788E+03  0.00000000000E+00 0.  1.
          1    1    3    3  501    0 -0.19974355141E+02  0.15821157076E+02 -0.13761324228E+03  0.13995245023E+03  0.00000000000E+00 0.  1.
         21    1    1    2  502  501  0.65792814723E+02 -0.66720983267E+02 -0.50158401723E+03  0.51026160979E+03  0.00000000000E+00 0.  1.
<mgrwt>
<rscale>  1 0.30000000E+03</rscale>
<asrwt>0</asrwt>
<pdfrwt beam="1">  1        1 0.32031224E-01 0.30000000E+03</pdfrwt>
<pdfrwt beam="2">0</pdfrwt>
<totfact> 0.15804015E+02</totfact>
</mgrwt>
</event>
<event>
 6    1  0.1956957E-002  0.3000000E+03  0.7818608E-02  0.1093470E+00
          1   -1    0    0  502    0  0.00000000000E+00  0.00000000000E+00  0.50050516849E+02  0.50050516849E+02  0.00000000000E+00 0.  1.
         13   -1    0    0    0    0 -0.00000000000E+00 -0.00000000000E+00 -0.10000000000E+04  0.10000000000E+04  0.00000000000E+00 0.  1.
    9000005    2    1    2  501    0  0.16486387218E+02  0.96297489619E+02 -0.94728157555E+03  0.95231554255E+03  0.41835080964E+01 0.  0.
         13    1    3    3    0    0  0.16516804293E+02  0.96030924481E+02 -0.94178053902E+03  0.94680796731E+03  0.00000000000E+00 0.  1.
          1    1    3    3  501    0 -0.30417074349E-01  0.26656513849E+00 -0.55010365283E+01  0.55075752430E+01  0.00000000000E+00 0.  1.
         21    1    1    2  502  501 -0.16486387218E+02 -0.96297489619E+02 -0.26679076050E+01  0.97734974300E+02  0.00000000000E+00 0.  1.
<mgrwt>
<rscale>  1 0.30000000E+03</rscale>
<asrwt>0</asrwt>
<pdfrwt beam="1">  1        1 0.18200226E+00 0.30000000E+03</pdfrwt>
<pdfrwt beam="2">0</pdfrwt>
<totfact> 0.12493032E+01</totfact>
</mgrwt>
</event>
<event>
 6    1  0.1956957E-002  0.3000000E+03  0.7818608E-02  0.1093470E+00
          1   -1    0    0  502    0  0.00000000000E+00  0.00000000000E+00  0.51803396849E+01  0.51803396849E+01  0.00000000000E+00 0.  1.
         13   -1    0    0    0    0 -0.00000000000E+00 -0.00000000000E+00 -0.10000000000E+04  0.10000000000E+04  0.00000000000E+00 0.  1.
    9000005    2    1    2  501    0 -0.30998081347E+02  0.13089571622E+02 -0.94165494201E+03  0.94226209746E+03  0.34077209444E+01 0.  0.
         13    1    3    3    0    0 -0.10814130657E+02  0.31045567907E+01 -0.33856540549E+03  0.33875229518E+03  0.00000000000E+00 0.  1.
          3    1    3    3  501    0 -0.20183950691E+02  0.99850148314E+01 -0.60308953652E+03  0.60350980228E+03  0.00000000000E+00 0.  1.
         21    1    1    2  502  501  0.30998081347E+02 -0.13089571622E+02 -0.53164718308E+02  0.62918242229E+02  0.00000000000E+00 0.  1.
<mgrwt>
<rscale>  1 0.30000000E+03</rscale>
<asrwt>0</asrwt>
<pdfrwt beam="1">  1        1 0.18837639E-01 0.30000000E+03</pdfrwt>
<pdfrwt beam="2">0</pdfrwt>
<totfact> 0.31899753E+02</totfact>
</mgrwt>
</event>
<event>
 6    1  0.1956957E-002  0.3000000E+03  0.7818608E-02  0.1093470E+00
          3   -1    0    0  502    0  0.00000000000E+00  0.00000000000E+00  0.27531762051E+01  0.27531762051E+01  0.00000000000E+00 0.  1.
         13   -1    0    0    0    0 -0.00000000000E+00 -0.00000000000E+00 -0.10000000000E+04  0.10000000000E+04  0.00000000000E+00 0.  1.
    9000005    2    1    2  501    0 -0.24343988085E+02  0.24484973134E+02 -0.87572207151E+03  0.87641866357E+03  0.53276313393E+01 0.  0.
         13    1    3    3    0    0 -0.21723290681E+02  0.23808088231E+02 -0.80833069719E+03  0.80897295532E+03  0.00000000000E+00 0.  1.
          1    1    3    3  501    0 -0.26206974043E+01  0.67688490307E+00 -0.67391374324E+02  0.67445708250E+02  0.00000000000E+00 0.  1.
         21    1    1    2  502  501  0.24343988085E+02 -0.24484973134E+02 -0.12152475228E+03  0.12633451263E+03  0.00000000000E+00 0.  1.
<mgrwt>
<rscale>  1 0.30000000E+03</rscale>
<asrwt>0</asrwt>
<pdfrwt beam="1">  1        3 0.10011571E-01 0.30000000E+03</pdfrwt>
<pdfrwt beam="2">0</pdfrwt>
<totfact> 0.32961179E+02</totfact>
</mgrwt>
</event>
<event>
 6    1  0.1956957E-002  0.3000000E+03  0.7818608E-02  0.1093470E+00
          1   -1    0    0  502    0  0.00000000000E+00  0.00000000000E+00  0.38727760463E+01  0.38727760463E+01  0.00000000000E+00 0.  1.
         13   -1    0    0    0    0 -0.00000000000E+00 -0.00000000000E+00 -0.10000000000E+04  0.10000000000E+04  0.00000000000E+00 0.  1.
    9000005    2    1    2  501    0  0.18873134833E+02  0.58502929609E+02 -0.57508499451E+03  0.57836678671E+03  0.25692529041E+01 0.  0.
         13    1    3    3    0    0  0.87723217632E+01  0.30498653704E+02 -0.28933168089E+03  0.29106690481E+03  0.00000000000E+00 0.  1.
          3    1    3    3  501    0  0.10100813070E+02  0.28004275904E+02 -0.28575331362E+03  0.28729988190E+03  0.00000000000E+00 0.  1.
         21    1    1    2  502  501 -0.18873134833E+02 -0.58502929609E+02 -0.42104222944E+03  0.42550598934E+03  0.00000000000E+00 0.  1.
<mgrwt>
<rscale>  1 0.30000000E+03</rscale>
<asrwt>0</asrwt>
<pdfrwt beam="1">  1        1 0.14082852E-01 0.30000000E+03</pdfrwt>
<pdfrwt beam="2">0</pdfrwt>
<totfact> 0.47265094E+02</totfact>
</mgrwt>
</event>
<event>
 6    1  0.1956957E-002  0.3000000E+03  0.7818608E-02  0.1093470E+00
          1   -1    0    0  502    0  0.00000000000E+00  0.00000000000E+00  0.33752300518E+01  0.33752300518E+01  0.00000000000E+00 0.  1.
         13   -1    0    0    0    0 -0.00000000000E+00 -0.00000000000E+00 -0.10000000000E+04  0.10000000000E+04  0.00000000000E+00 0.  1.
    9000005    2    1    2  501    0 -0.20616797046E+02 -0.53232816963E+02 -0.58955796647E+03  0.59232515084E+03  0.34210192643E+01 0.  0.
         13    1    3    3    0    0 -0.77775312288E+01 -0.15773035305E+02 -0.18404833459E+03  0.18488663581E+03  0.00000000000E+00 0.  1.
          3    1    3    3  501    0 -0.12839265817E+02 -0.37459781658E+02 -0.40550963188E+03  0.40743851504E+03  0.00000000000E+00 0.  1.
         21    1    1    2  502  501  0.20616797046E+02  0.53232816963E+02 -0.40706680348E+03  0.41105007921E+03  0.00000000000E+00 0.  1.
<mgrwt>
<rscale>  1 0.30000000E+03</rscale>
<asrwt>0</asrwt>
<pdfrwt beam="1">  1        1 0.12273590E-01 0.30000000E+03</pdfrwt>
<pdfrwt beam="2">0</pdfrwt>
<totfact> 0.57027889E+02</totfact>
</mgrwt>
</event>
<event>
 6    1  0.1956957E-002  0.3000000E+03  0.7818608E-02  0.1093470E+00
          1   -1    0    0  502    0  0.00000000000E+00  0.00000000000E+00  0.12076369802E+01  0.12076369802E+01  0.00000000000E+00 0.  1.
         13   -1    0    0    0    0 -0.00000000000E+00 -0.00000000000E+00 -0.10000000000E+04  0.10000000000E+04  0.00000000000E+00 0.  1.
    9000005    2    1    2  501    0 -0.33734558578E+02  0.54147732380E+01 -0.58666869231E+03  0.58767014149E+03  0.29496539033E+01 0.  0.
         13    1    3    3    0    0 -0.22442461326E+02  0.46459717808E+01 -0.40831455391E+03  0.40895723989E+03  0.00000000000E+00 0.  1.
          1    1    3    3  501    0 -0.11292097251E+02  0.76880145720E+00 -0.17835413840E+03  0.17871290160E+03  0.00000000000E+00 0.  1.
         21    1    1    2  502  501  0.33734558578E+02 -0.54147732380E+01 -0.41212367071E+03  0.41353749549E+03  0.00000000000E+00 0.  1.
<mgrwt>
<rscale>  1 0.30000000E+03</rscale>
<asrwt>0</asrwt>
<pdfrwt beam="1">  1        1 0.43914165E-02 0.30000000E+03</pdfrwt>
<pdfrwt beam="2">0</pdfrwt>
<totfact> 0.23875726E+03</totfact>
</mgrwt>
</event>
<event>
 6    1  0.1956957E-002  0.3000000E+03  0.7818608E-02  0.1093470E+00
          1   -1    0    0  502    0  0.00000000000E+00  0.00000000000E+00  0.37969083327E+01  0.37969083327E+01  0.00000000000E+00 0.  1.
         13   -1    0    0    0    0 -0.00000000000E+00 -0.00000000000E+00 -0.10000000000E+04  0.10000000000E+04  0.00000000000E+00 0.  1.
    9000005    2    1    2  501    0 -0.48842066569E+02 -0.34876777966E+02 -0.38662608561E+03  0.39127257133E+03  0.35437116771E+01 0.  0.
         13    1    3    3    0    0 -0.19035122695E+02 -0.15584130685E+02 -0.16241794397E+03  0.16427047680E+03  0.00000000000E+00 0.  1.
          3    1    3    3  501    0 -0.29806943873E+02 -0.19292647281E+02 -0.22420814165E+03  0.22700209453E+03  0.00000000000E+00 0.  1.
         21    1    1    2  502  501  0.48842066569E+02  0.34876777966E+02 -0.60957700605E+03  0.61252433700E+03  0.00000000000E+00 0.  1.
<mgrwt>
<rscale>  1 0.30000000E+03</rscale>
<asrwt>0</asrwt>
<pdfrwt beam="1">  1        1 0.13806969E-01 0.30000000E+03</pdfrwt>
<pdfrwt beam="2">0</pdfrwt>
<totfact> 0.48555806E+02</totfact>
</mgrwt>
</event>
<event>
 6    1  0.1956957E-002  0.3000000E+03  0.7818608E-02  0.1093470E+00
          1   -1    0    0  502    0  0.00000000000E+00  0.00000000000E+00  0.25434830852E+01  0.25434830852E+01  0.00000000000E+00 0.  1.
         13   -1    0    0    0    0 -0.00000000000E+00 -0.00000000000E+00 -0.10000000000E+04  0.10000000000E+04  0.00000000000E+00 0.  1.
    9000005    2    1    2  501    0 -0.70259750336E+01  0.29872769950E+02 -0.89637299996E+03  0.89690436102E+03  0.33363242016E+01 0.  0.
         13    1    3    3    0    0 -0.96228567133E+00  0.23532878164E+01 -0.10204729099E+03  0.10207895746E+03  0.00000000000E+00 0.  1.
          3    1    3    3  501    0 -0.60636893622E+01  0.27519482134E+02 -0.79432570896E+03  0.79482540356E+03  0.00000000000E+00 0.  1.
         21    1    1    2  502  501  0.70259750336E+01 -0.29872769950E+02 -0.10108351696E+03  0.10563912206E+03  0.00000000000E+00 0.  1.
<mgrwt>
<rscale>  1 0.30000000E+03</rscale>
<asrwt>0</asrwt>
<pdfrwt beam="1">  1        1 0.92490489E-02 0.30000000E+03</pdfrwt>
<pdfrwt beam="2">0</pdfrwt>
<totfact> 0.84191229E+02</totfact>
</mgrwt>
</event>
<event>
 6    1  0.1956957E-002  0.3000000E+03  0.7818608E-02  0.1093470E+00
          1   -1    0    0  502    0  0.00000000000E+00  0.00000000000E+00  0.34263458641E+01  0.34263458641E+01  0.00000000000E+00 0.  1.
         13   -1    0    0    0    0 -0.00000000000E+00 -0.00000000000E+00 -0.10000000000E+04  0.10000000000E+04  0.00000000000E+00 0.  1.
    9000005    2    1    2  501    0  0.27393914777E+02 -0.45351952613E+02 -0.70682901071E+03  0.70887722506E+03  0.96147623348E+01 0.  0.
         13    1    3    3    0    0  0.19305497709E+02 -0.30888701891E+02 -0.42328840472E+03  0.42485278358E+03  0.00000000000E+00 0.  1.
          1    1    3    3  501    0  0.80884170681E+01 -0.14463250721E+02 -0.28354060599E+03  0.28402444148E+03  0.00000000000E+00 0.  1.
         21    1    1    2  502  501 -0.27393914777E+02  0.45351952613E+02 -0.28974464343E+03  0.29454912081E+03  0.00000000000E+00 0.  1.
<mgrwt>
<rscale>  1 0.30000000E+03</rscale>
<asrwt>0</asrwt>
<pdfrwt beam="1">  1        1 0.12459466E-01 0.30000000E+03</pdfrwt>
<pdfrwt beam="2">0</pdfrwt>
<totfact> 0.55865959E+02</totfact>
</mgrwt>
</event>
<event>
 6    1  0.1956957E-002  0.3000000E+03  0.7818608E-02  0.1093470E+00
          3   -1    0    0  502    0  0.00000000000E+00  0.00000000000E+00  0.11754941166E+01  0.11754941166E+01  0.00000000000E+00 0.  1.
         13   -1    0    0    0    0 -0.00000000000E+00 -0.00000000000E+00 -0.10000000000E+04  0.10000000000E+04  0.00000000000E+00 0.  1.
    9000005    2    1    2  501    0  0.27488449045E+02 -0.16560666882E+02 -0.67275808507E+03  0.67353364498E+03  0.37761601083E+01 0.  0.
         13    1    3    3    0    0  0.22884791330E+02 -0.14032874194E+02 -0.53071001883E+03  0.53138852012E+03  0.00000000000E+00 0.  1.
          1    1    3    3  501    0  0.46036577144E+01 -0.25277926879E+01 -0.14204806624E+03  0.14214512486E+03  0.00000000000E+00 0.  1.
         21    1    1    2  502  501 -0.27488449045E+02  0.16560666882E+02 -0.32606642082E+03  0.32764184913E+03  0.00000000000E+00 0.  1.
<mgrwt>
<rscale>  1 0.30000000E+03</rscale>
<asrwt>0</asrwt>
<pdfrwt beam="1">  1        3 0.42745331E-02 0.30000000E+03</pdfrwt>
<pdfrwt beam="2">0</pdfrwt>
<totfact> 0.12599777E+03</totfact>
</mgrwt>
</event>
<event>
 6    1  0.1956957E-002  0.3000000E+03  0.7818608E-02  0.1093470E+00
          1   -1    0    0  502    0  0.00000000000E+00  0.00000000000E+00  0.21323078519E+01  0.21323078519E+01  0.00000000000E+00 0.  1.
         13   -1    0    0    0    0 -0.00000000000E+00 -0.00000000000E+00 -0.10000000000E+04  0.10000000000E+04  0.00000000000E+00 0.  1.
    9000005    2    1    2  501    0  0.92053694530E+01 -0.29392614891E+02 -0.87208069258E+03  0.87262928125E+03  0.29092094662E+01 0.  0.
         13    1    3    3    0    0  0.77739390059E+01 -0.25966776404E+02 -0.73943800130E+03  0.73993463588E+03  0.00000000000E+00 0.  1.
          3    1    3    3  501    0  0.14314304471E+01 -0.34258384865E+01 -0.13264269127E+03  0.13269464537E+03  0.00000000000E+00 0.  1.
         21    1    1    2  502  501 -0.92053694530E+01  0.29392614891E+02 -0.12578699957E+03  0.12950302660E+03  0.00000000000E+00 0.  1.
<mgrwt>
<rscale>  1 0.30000000E+03</rscale>
<asrwt>0</asrwt>
<pdfrwt beam="1">  1        1 0.77538631E-02 0.30000000E+03</pdfrwt>
<pdfrwt beam="2">0</pdfrwt>
<totfact> 0.10756680E+03</totfact>
</mgrwt>
</event>
<event>
 6    1  0.1956957E-002  0.3000000E+03  0.7818608E-02  0.1093470E+00
          3   -1    0    0  502    0  0.00000000000E+00  0.00000000000E+00  0.16680037939E+01  0.16680037939E+01  0.00000000000E+00 0.  1.
         13   -1    0    0    0    0 -0.00000000000E+00 -0.00000000000E+00 -0.10000000000E+04  0.10000000000E+04  0.00000000000E+00 0.  1.
    9000005    2    1    2  501    0 -0.27595139499E+00  0.38913991779E+02 -0.64909800884E+03  0.65027256723E+03  0.34368166045E+01 0.  0.
         13    1    3    3    0    0 -0.58328574650E+00  0.17553221929E+02 -0.26566881696E+03  0.26624871103E+03  0.00000000000E+00 0.  1.
          3    1    3    3  501    0  0.30733435152E+00  0.21360769850E+02 -0.38342919189E+03  0.38402385620E+03  0.00000000000E+00 0.  1.
         21    1    1    2  502  501  0.27595139499E+00 -0.38913991779E+02 -0.34923398736E+03  0.35139543656E+03  0.00000000000E+00 0.  1.
<mgrwt>
<rscale>  1 0.30000000E+03</rscale>
<asrwt>0</asrwt>
<pdfrwt beam="1">  1        3 0.60654811E-02 0.30000000E+03</pdfrwt>
<pdfrwt beam="2">0</pdfrwt>
<totfact> 0.73318545E+02</totfact>
</mgrwt>
</event>
<event>
 6    1  0.1956957E-002  0.3000000E+03  0.7818608E-02  0.1093470E+00
          3   -1    0    0  502    0  0.00000000000E+00  0.00000000000E+00  0.38101502955E+01  0.38101502955E+01  0.00000000000E+00 0.  1.
         13   -1    0    0    0    0 -0.00000000000E+00 -0.00000000000E+00 -0.10000000000E+04  0.10000000000E+04  0.00000000000E+00 0.  1.
    9000005    2    1    2  501    0 -0.22103271457E+02 -0.21992369568E+02 -0.93119560268E+03  0.93172359763E+03  0.33753532618E+01 0.  0.
         13    1    3    3    0    0 -0.10615173047E+02 -0.12934611622E+02 -0.49446904502E+03  0.49475208192E+03  0.00000000000E+00 0.  1.
          1    1    3    3  501    0 -0.11488098411E+02 -0.90577579464E+01 -0.43672655765E+03  0.43697151571E+03  0.00000000000E+00 0.  1.
         21    1    1    2  502  501  0.22103271457E+02  0.21992369568E+02 -0.64994247028E+02  0.72086552665E+02  0.00000000000E+00 0.  1.
<mgrwt>
<rscale>  1 0.30000000E+03</rscale>
<asrwt>0</asrwt>
<pdfrwt beam="1">  1        3 0.13855121E-01 0.30000000E+03</pdfrwt>
<pdfrwt beam="2">0</pdfrwt>
<totfact> 0.19083663E+02</totfact>
</mgrwt>
</event>
<event>
 6    1  0.1956957E-002  0.3000000E+03  0.7818608E-02  0.1093470E+00
          1   -1    0    0  502    0  0.00000000000E+00  0.00000000000E+00  0.16061177009E+01  0.16061177009E+01  0.00000000000E+00 0.  1.
         13   -1    0    0    0    0 -0.00000000000E+00 -0.00000000000E+00 -0.10000000000E+04  0.10000000000E+04  0.00000000000E+00 0.  1.
    9000005    2    1    2  501    0  0.26170034576E+02 -0.14809765698E+02 -0.82993989884E+03  0.83048936104E+03  0.28536346273E+01 0.  0.
         13    1    3    3    0    0  0.14154748876E+02 -0.69034020098E+01 -0.46256575836E+03  0.46283376571E+03  0.00000000000E+00 0.  1.
          1    1    3    3  501    0  0.12015285700E+02 -0.79063636883E+01 -0.36737414048E+03  0.36765559532E+03  0.00000000000E+00 0.  1.
         21    1    1    2  502  501 -0.26170034576E+02  0.14809765698E+02 -0.16845398346E+03  0.17111675667E+03  0.00000000000E+00 0.  1.
<mgrwt>
<rscale>  1 0.30000000E+03</rscale>
<asrwt>0</asrwt>
<pdfrwt beam="1">  1        1 0.58404403E-02 0.30000000E+03</pdfrwt>
<pdfrwt beam="2">0</pdfrwt>
<totfact> 0.15991978E+03</totfact>
</mgrwt>
</event>
<event>
 6    1  0.1956957E-002  0.3000000E+03  0.7818608E-02  0.1093470E+00
          1   -1    0    0  502    0  0.00000000000E+00  0.00000000000E+00  0.19045688209E+01  0.19045688209E+01  0.00000000000E+00 0.  1.
         13   -1    0    0    0    0 -0.00000000000E+00 -0.00000000000E+00 -0.10000000000E+04  0.10000000000E+04  0.00000000000E+00 0.  1.
    9000005    2    1    2  501    0 -0.19576428694E+02  0.30825075954E+02 -0.77259876899E+03  0.77347040647E+03  0.37669590685E+01 0.  0.
         13    1    3    3    0    0 -0.14401030050E+02  0.24443691657E+02 -0.62412188918E+03  0.62476636936E+03  0.00000000000E+00 0.  1.
          3    1    3    3  501    0 -0.51753986443E+01  0.63813842970E+01 -0.14847687981E+03  0.14870403711E+03  0.00000000000E+00 0.  1.
         21    1    1    2  502  501  0.19576428694E+02 -0.30825075954E+02 -0.22549666219E+03  0.22843416235E+03  0.00000000000E+00 0.  1.
<mgrwt>
<rscale>  1 0.30000000E+03</rscale>
<asrwt>0</asrwt>
<pdfrwt beam="1">  1        1 0.69257194E-02 0.30000000E+03</pdfrwt>
<pdfrwt beam="2">0</pdfrwt>
<totfact> 0.12594624E+03</totfact>
</mgrwt>
</event>
<event>
 6    1  0.1956957E-002  0.3000000E+03  0.7818608E-02  0.1093470E+00
          3   -1    0    0  502    0  0.00000000000E+00  0.00000000000E+00  0.12347096344E+01  0.12347096344E+01  0.00000000000E+00 0.  1.
         13   -1    0    0    0    0 -0.00000000000E+00 -0.00000000000E+00 -0.10000000000E+04  0.10000000000E+04  0.00000000000E+00 0.  1.
    9000005    2    1    2  501    0 -0.32014412854E+02 -0.22906492128E+01 -0.70154689832E+03  0.70228832267E+03  0.32661786746E+01 0.  0.
         13    1    3    3    0    0 -0.76386616397E+01  0.84407301275E+00 -0.16568417255E+03  0.16586231231E+03  0.00000000000E+00 0.  1.
          1    1    3    3  501    0 -0.24375751214E+02 -0.31347222256E+01 -0.53586272577E+03  0.53642601037E+03  0.00000000000E+00 0.  1.
         21    1    1    2  502  501  0.32014412854E+02  0.22906492128E+01 -0.29721839205E+03  0.29894638696E+03  0.00000000000E+00 0.  1.
<mgrwt>
<rscale>  1 0.30000000E+03</rscale>
<asrwt>0</asrwt>
<pdfrwt beam="1">  1        3 0.44898627E-02 0.30000000E+03</pdfrwt>
<pdfrwt beam="2">0</pdfrwt>
<totfact> 0.11681505E+03</totfact>
</mgrwt>
</event>
<event>
 6    1  0.1956957E-002  0.3000000E+03  0.7818608E-02  0.1093470E+00
          3   -1    0    0  502    0  0.00000000000E+00  0.00000000000E+00  0.24216607660E+01  0.24216607660E+01  0.00000000000E+00 0.  1.
         13   -1    0    0    0    0 -0.00000000000E+00 -0.00000000000E+00 -0.10000000000E+04  0.10000000000E+04  0.00000000000E+00 0.  1.
    9000005    2    1    2  501    0 -0.38782436747E+02  0.17903144179E+02 -0.74494817562E+03  0.74620573710E+03  0.71146154110E+01 0.  0.
         13    1    3    3    0    0 -0.38881599535E+02  0.18063357806E+02 -0.73091218941E+03  0.73216848628E+03  0.00000000000E+00 0.  1.
          1    1    3    3  501    0  0.99162787725E-01 -0.16021362675E+00 -0.14035986217E+02  0.14037250826E+02  0.00000000000E+00 0.  1.
         21    1    1    2  502  501  0.38782436747E+02 -0.17903144179E+02 -0.25263016361E+03  0.25621592366E+03  0.00000000000E+00 0.  1.
<mgrwt>
<rscale>  1 0.30000000E+03</rscale>
<asrwt>0</asrwt>
<pdfrwt beam="1">  1        3 0.88060577E-02 0.30000000E+03</pdfrwt>
<pdfrwt beam="2">0</pdfrwt>
<totfact> 0.40626786E+02</totfact>
</mgrwt>
</event>
<event>
 6    1  0.1956957E-002  0.3000000E+03  0.7818608E-02  0.1093470E+00
          1   -1    0    0  502    0  0.00000000000E+00  0.00000000000E+00  0.11399535843E+01  0.11399535843E+01  0.00000000000E+00 0.  1.
         13   -1    0    0    0    0 -0.00000000000E+00 -0.00000000000E+00 -0.10000000000E+04  0.10000000000E+04  0.00000000000E+00 0.  1.
    9000005    2    1    2  501    0 -0.20121214483E+02 -0.26967016594E+02 -0.47924219435E+03  0.48043389884E+03  0.34010378324E+01 0.  0.
         13    1    3    3    0    0 -0.14025425108E+01 -0.29934053863E+01 -0.37242539874E+02  0.37388960637E+02  0.00000000000E+00 0.  1.
          3    1    3    3  501    0 -0.18718671972E+02 -0.23973611207E+02 -0.44199965447E+03  0.44304493820E+03  0.00000000000E+00 0.  1.
         21    1    1    2  502  501  0.20121214483E+02  0.26967016594E+02 -0.51961785207E+03  0.52070605474E+03  0.00000000000E+00 0.  1.
<mgrwt>
<rscale>  1 0.30000000E+03</rscale>
<asrwt>0</asrwt>
<pdfrwt beam="1">  1        1 0.41452945E-02 0.30000000E+03</pdfrwt>
<pdfrwt beam="2">0</pdfrwt>
<totfact> 0.25895407E+03</totfact>
</mgrwt>
</event>
<event>
 6    1  0.1956957E-002  0.3000000E+03  0.7818608E-02  0.1093470E+00
          3   -1    0    0  502    0  0.00000000000E+00  0.00000000000E+00  0.62190712240E+01  0.62190712240E+01  0.00000000000E+00 0.  1.
         13   -1    0    0    0    0 -0.00000000000E+00 -0.00000000000E+00 -0.10000000000E+04  0.10000000000E+04  0.00000000000E+00 0.  1.
    9000005    2    1    2  501    0 -0.23929557307E+02 -0.36029051511E+02 -0.91753094787E+03  0.91855621789E+03  0.34305783911E+01 0.  0.
         13    1    3    3    0    0 -0.84462003097E+01 -0.11552062745E+02 -0.27290414189E+03  0.27327908649E+03  0.00000000000E+00 0.  1.
          1    1    3    3  501    0 -0.15483356998E+02 -0.24476988765E+02 -0.64462680598E+03  0.64527713141E+03  0.00000000000E+00 0.  1.
         21    1    1    2  502  501  0.23929557307E+02  0.36029051511E+02 -0.76249980906E+02  0.87662853330E+02  0.00000000000E+00 0.  1.
<mgrwt>
<rscale>  1 0.30000000E+03</rscale>
<asrwt>0</asrwt>
<pdfrwt beam="1">  1        3 0.22614852E-01 0.30000000E+03</pdfrwt>
<pdfrwt beam="2">0</pdfrwt>
<totfact> 0.79683521E+01</totfact>
</mgrwt>
</event>
<event>
 6    1  0.1956957E-002  0.3000000E+03  0.7818608E-02  0.1093470E+00
          1   -1    0    0  502    0  0.00000000000E+00  0.00000000000E+00  0.26357246946E+01  0.26357246946E+01  0.00000000000E+00 0.  1.
         13   -1    0    0    0    0 -0.00000000000E+00 -0.00000000000E+00 -0.10000000000E+04  0.10000000000E+04  0.00000000000E+00 0.  1.
    9000005    2    1    2  501    0  0.32327264585E+02 -0.28343341660E+02 -0.77215201856E+03  0.77335651142E+03  0.36272490284E+01 0.  0.
         13    1    3    3    0    0  0.48241446618E+01 -0.60680494978E+01 -0.13628758274E+03  0.13650787085E+03  0.00000000000E+00 0.  1.
          3    1    3    3  501    0  0.27503119923E+02 -0.22275292162E+02 -0.63586443582E+03  0.63684864056E+03  0.00000000000E+00 0.  1.
         21    1    1    2  502  501 -0.32327264585E+02  0.28343341660E+02 -0.22521225675E+03  0.22927921328E+03  0.00000000000E+00 0.  1.
<mgrwt>
<rscale>  1 0.30000000E+03</rscale>
<asrwt>0</asrwt>
<pdfrwt beam="1">  1        1 0.95844736E-02 0.30000000E+03</pdfrwt>
<pdfrwt beam="2">0</pdfrwt>
<totfact> 0.80139062E+02</totfact>
</mgrwt>
</event>
<event>
 6    1  0.1956957E-002  0.3000000E+03  0.7818608E-02  0.1093470E+00
          1   -1    0    0  502    0  0.00000000000E+00  0.00000000000E+00  0.10346800815E+01  0.10346800815E+01  0.00000000000E+00 0.  1.
         13   -1    0    0    0    0 -0.00000000000E+00 -0.00000000000E+00 -0.10000000000E+04  0.10000000000E+04  0.00000000000E+00 0.  1.
    9000005    2    1    2  501    0  0.31180374724E+02  0.27187332911E+01 -0.61036049437E+03  0.61117147623E+03  0.33215944388E+01 0.  0.
         13    1    3    3    0    0  0.10333215025E+02 -0.65135953395E+00 -0.20472578198E+03  0.20498742744E+03  0.00000000000E+00 0.  1.
          1    1    3    3  501    0  0.20847159699E+02  0.33700928251E+01 -0.40563471240E+03  0.40618404879E+03  0.00000000000E+00 0.  1.
         21    1    1    2  502  501 -0.31180374724E+02 -0.27187332911E+01 -0.38860482555E+03  0.38986320385E+03  0.00000000000E+00 0.  1.
<mgrwt>
<rscale>  1 0.30000000E+03</rscale>
<asrwt>0</asrwt>
<pdfrwt beam="1">  1        1 0.37624810E-02 0.30000000E+03</pdfrwt>
<pdfrwt beam="2">0</pdfrwt>
<totfact> 0.29680142E+03</totfact>
</mgrwt>
</event>
<event>
 6    1  0.1956957E-002  0.3000000E+03  0.7818608E-02  0.1093470E+00
          1   -1    0    0  502    0  0.00000000000E+00  0.00000000000E+00  0.21712556702E+01  0.21712556702E+01  0.00000000000E+00 0.  1.
         13   -1    0    0    0    0 -0.00000000000E+00 -0.00000000000E+00 -0.10000000000E+04  0.10000000000E+04  0.00000000000E+00 0.  1.
    9000005    2    1    2  501    0  0.35803449324E+02 -0.29515506428E+02 -0.46208483936E+03  0.46442170076E+03  0.34735081924E+01 0.  0.
         13    1    3    3    0    0  0.20828271899E+02 -0.18750782505E+02 -0.29037136863E+03  0.29172065486E+03  0.00000000000E+00 0.  1.
          3    1    3    3  501    0  0.14975177426E+02 -0.10764723923E+02 -0.17171347074E+03  0.17270104589E+03  0.00000000000E+00 0.  1.
         21    1    1    2  502  501 -0.35803449324E+02  0.29515506428E+02 -0.53574390497E+03  0.53774955491E+03  0.00000000000E+00 0.  1.
<mgrwt>
<rscale>  1 0.30000000E+03</rscale>
<asrwt>0</asrwt>
<pdfrwt beam="1">  1        1 0.78954918E-02 0.30000000E+03</pdfrwt>
<pdfrwt beam="2">0</pdfrwt>
<totfact> 0.10488752E+03</totfact>
</mgrwt>
</event>
<event>
 6    1  0.1956957E-002  0.3000000E+03  0.7818608E-02  0.1093470E+00
          3   -1    0    0  502    0  0.00000000000E+00  0.00000000000E+00  0.29092236764E+01  0.29092236764E+01  0.00000000000E+00 0.  1.
         13   -1    0    0    0    0 -0.00000000000E+00 -0.00000000000E+00 -0.10000000000E+04  0.10000000000E+04  0.00000000000E+00 0.  1.
    9000005    2    1    2  501    0  0.19815780203E+02  0.44991192684E+02 -0.70373296242E+03  0.70546060704E+03  0.42086952961E+01 0.  0.
         13    1    3    3    0    0  0.84016987267E+01  0.19645107476E+02 -0.33581786262E+03  0.33649688801E+03  0.00000000000E+00 0.  1.
          3    1    3    3  501    0  0.11414081477E+02  0.25346085207E+02 -0.36791509980E+03  0.36896371902E+03  0.00000000000E+00 0.  1.
         21    1    1    2  502  501 -0.19815780203E+02 -0.44991192684E+02 -0.29335781390E+03  0.29744861664E+03  0.00000000000E+00 0.  1.
<mgrwt>
<rscale>  1 0.30000000E+03</rscale>
<asrwt>0</asrwt>
<pdfrwt beam="1">  1        3 0.10579017E-01 0.30000000E+03</pdfrwt>
<pdfrwt beam="2">0</pdfrwt>
<totfact> 0.30087285E+02</totfact>
</mgrwt>
</event>
<event>
 6    1  0.1956957E-002  0.3000000E+03  0.7818608E-02  0.1093470E+00
          1   -1    0    0  502    0  0.00000000000E+00  0.00000000000E+00  0.17918972149E+01  0.17918972149E+01  0.00000000000E+00 0.  1.
         13   -1    0    0    0    0 -0.00000000000E+00 -0.00000000000E+00 -0.10000000000E+04  0.10000000000E+04  0.00000000000E+00 0.  1.
    9000005    2    1    2  501    0 -0.22798995972E+02  0.32340338753E+02 -0.67564424313E+03  0.67681015113E+03  0.33385146235E+01 0.  0.
         13    1    3    3    0    0 -0.84109809824E+01  0.95816313524E+01 -0.20415909810E+03  0.20455681264E+03  0.00000000000E+00 0.  1.
          1    1    3    3  501    0 -0.14388014990E+02  0.22758707401E+02 -0.47148514503E+03  0.47225333849E+03  0.00000000000E+00 0.  1.
         21    1    1    2  502  501  0.22798995972E+02 -0.32340338753E+02 -0.32256385966E+03  0.32498174608E+03  0.00000000000E+00 0.  1.
<mgrwt>
<rscale>  1 0.30000000E+03</rscale>
<asrwt>0</asrwt>
<pdfrwt beam="1">  1        1 0.65160036E-02 0.30000000E+03</pdfrwt>
<pdfrwt beam="2">0</pdfrwt>
<totfact> 0.13716796E+03</totfact>
</mgrwt>
</event>
<event>
 6    1  0.1956957E-002  0.3000000E+03  0.7818608E-02  0.1093470E+00
          1   -1    0    0  502    0  0.00000000000E+00  0.00000000000E+00  0.15395959469E+01  0.15395959469E+01  0.00000000000E+00 0.  1.
         13   -1    0    0    0    0 -0.00000000000E+00 -0.00000000000E+00 -0.10000000000E+04  0.10000000000E+04  0.00000000000E+00 0.  1.
    9000005    2    1    2  501    0 -0.35168048543E+02  0.13402801390E+02 -0.63811155940E+03  0.63923072694E+03  0.36239883747E+01 0.  0.
         13    1    3    3    0    0 -0.25055616515E+02  0.11215317967E+02 -0.47053657271E+03  0.47133664565E+03  0.00000000000E+00 0.  1.
          1    1    3    3  501    0 -0.10112432028E+02  0.21874834231E+01 -0.16757498669E+03  0.16789408128E+03  0.00000000000E+00 0.  1.
         21    1    1    2  502  501  0.35168048543E+02 -0.13402801390E+02 -0.36034884465E+03  0.36230886901E+03  0.00000000000E+00 0.  1.
<mgrwt>
<rscale>  1 0.30000000E+03</rscale>
<asrwt>0</asrwt>
<pdfrwt beam="1">  1        1 0.55985425E-02 0.30000000E+03</pdfrwt>
<pdfrwt beam="2">0</pdfrwt>
<totfact> 0.16970327E+03</totfact>
</mgrwt>
</event>
<event>
 6    1  0.1956957E-002  0.3000000E+03  0.7818608E-02  0.1093470E+00
          3   -1    0    0  502    0  0.00000000000E+00  0.00000000000E+00  0.38536201087E+01  0.38536201087E+01  0.00000000000E+00 0.  1.
         13   -1    0    0    0    0 -0.00000000000E+00 -0.00000000000E+00 -0.10000000000E+04  0.10000000000E+04  0.00000000000E+00 0.  1.
    9000005    2    1    2  501    0  0.50680523765E+02  0.26516122586E+02 -0.69257892235E+03  0.69494453716E+03  0.32750279481E+01 0.  0.
         13    1    3    3    0    0  0.31349633861E+02  0.16261606304E+02 -0.40810628127E+03  0.40963151270E+03  0.00000000000E+00 0.  1.
          3    1    3    3  501    0  0.19330889904E+02  0.10254516282E+02 -0.28447264108E+03  0.28531302447E+03  0.00000000000E+00 0.  1.
         21    1    1    2  502  501 -0.50680523765E+02 -0.26516122586E+02 -0.30356745754E+03  0.30890908295E+03  0.00000000000E+00 0.  1.
<mgrwt>
<rscale>  1 0.30000000E+03</rscale>
<asrwt>0</asrwt>
<pdfrwt beam="1">  1        3 0.14013194E-01 0.30000000E+03</pdfrwt>
<pdfrwt beam="2">0</pdfrwt>
<totfact> 0.18716102E+02</totfact>
</mgrwt>
</event>
<event>
 6    1  0.1956957E-002  0.3000000E+03  0.7818608E-02  0.1093470E+00
          3   -1    0    0  502    0  0.00000000000E+00  0.00000000000E+00  0.50859540374E+01  0.50859540374E+01  0.00000000000E+00 0.  1.
         13   -1    0    0    0    0 -0.00000000000E+00 -0.00000000000E+00 -0.10000000000E+04  0.10000000000E+04  0.00000000000E+00 0.  1.
    9000005    2    1    2  501    0  0.96861452353E+01  0.38992333189E+02 -0.91258674175E+03  0.91347804785E+03  0.36550281695E+01 0.  0.
         13    1    3    3    0    0  0.11739272752E+01  0.19287298452E+01 -0.63501362528E+02  0.63541491539E+02  0.00000000000E+00 0.  1.
          3    1    3    3  501    0  0.85122179601E+01  0.37063603344E+02 -0.84908537922E+03  0.84993655631E+03  0.00000000000E+00 0.  1.
         21    1    1    2  502  501 -0.96861452353E+01 -0.38992333189E+02 -0.82327304217E+02  0.91607906191E+02  0.00000000000E+00 0.  1.
<mgrwt>
<rscale>  1 0.30000000E+03</rscale>
<asrwt>0</asrwt>
<pdfrwt beam="1">  1        3 0.18494417E-01 0.30000000E+03</pdfrwt>
<pdfrwt beam="2">0</pdfrwt>
<totfact> 0.11510505E+02</totfact>
</mgrwt>
</event>
<event>
 6    1  0.1956957E-002  0.3000000E+03  0.7818608E-02  0.1093470E+00
          3   -1    0    0  502    0  0.00000000000E+00  0.00000000000E+00  0.15195437694E+01  0.15195437694E+01  0.00000000000E+00 0.  1.
         13   -1    0    0    0    0 -0.00000000000E+00 -0.00000000000E+00 -0.10000000000E+04  0.10000000000E+04  0.00000000000E+00 0.  1.
    9000005    2    1    2  501    0 -0.37416555740E+01  0.31247653514E+02 -0.79394729449E+03  0.79457938312E+03  0.36978129063E+01 0.  0.
         13    1    3    3    0    0 -0.37929311457E+01  0.26603876714E+02 -0.64462989331E+03  0.64518977978E+03  0.00000000000E+00 0.  1.
          3    1    3    3  501    0  0.51275571728E-01  0.46437767998E+01 -0.14931740118E+03  0.14938960334E+03  0.00000000000E+00 0.  1.
         21    1    1    2  502  501  0.37416555740E+01 -0.31247653514E+02 -0.20453316174E+03  0.20694016065E+03  0.00000000000E+00 0.  1.
<mgrwt>
<rscale>  1 0.30000000E+03</rscale>
<asrwt>0</asrwt>
<pdfrwt beam="1">  1        3 0.55256254E-02 0.30000000E+03</pdfrwt>
<pdfrwt beam="2">0</pdfrwt>
<totfact> 0.84767263E+02</totfact>
</mgrwt>
</event>
<event>
 6    1  0.1956957E-002  0.3000000E+03  0.7818608E-02  0.1093470E+00
          3   -1    0    0  502    0  0.00000000000E+00  0.00000000000E+00  0.30868167450E+01  0.30868167450E+01  0.00000000000E+00 0.  1.
         13   -1    0    0    0    0 -0.00000000000E+00 -0.00000000000E+00 -0.10000000000E+04  0.10000000000E+04  0.00000000000E+00 0.  1.
    9000005    2    1    2  501    0  0.43931729903E+01 -0.53400806809E+02 -0.63006037039E+03  0.63234171234E+03  0.30041115983E+01 0.  0.
         13    1    3    3    0    0  0.48882535436E+00 -0.24040869199E+02 -0.28028943036E+03  0.28131897753E+03  0.00000000000E+00 0.  1.
          1    1    3    3  501    0  0.39043476359E+01 -0.29359937610E+02 -0.34977094003E+03  0.35102273481E+03  0.00000000000E+00 0.  1.
         21    1    1    2  502  501 -0.43931729903E+01  0.53400806809E+02 -0.36685281286E+03  0.37074510441E+03  0.00000000000E+00 0.  1.
<mgrwt>
<rscale>  1 0.30000000E+03</rscale>
<asrwt>0</asrwt>
<pdfrwt beam="1">  1        3 0.11224812E-01 0.30000000E+03</pdfrwt>
<pdfrwt beam="2">0</pdfrwt>
<totfact> 0.27255122E+02</totfact>
</mgrwt>
</event>
<event>
 6    1  0.1956957E-002  0.3000000E+03  0.7818608E-02  0.1093470E+00
          1   -1    0    0  502    0  0.00000000000E+00  0.00000000000E+00  0.58210825959E+01  0.58210825959E+01  0.00000000000E+00 0.  1.
         13   -1    0    0    0    0 -0.00000000000E+00 -0.00000000000E+00 -0.10000000000E+04  0.10000000000E+04  0.00000000000E+00 0.  1.
    9000005    2    1    2  501    0 -0.10190610915E+02 -0.74198916228E+02 -0.59083367185E+03  0.59558125661E+03  0.48246972731E+01 0.  0.
         13    1    3    3    0    0 -0.15880059419E+01 -0.28791880318E+02 -0.22620473717E+03  0.22803525441E+03  0.00000000000E+00 0.  1.
          1    1    3    3  501    0 -0.86026049727E+01 -0.45407035910E+02 -0.36462893468E+03  0.36754600219E+03  0.00000000000E+00 0.  1.
         21    1    1    2  502  501  0.10190610915E+02  0.74198916228E+02 -0.40334524555E+03  0.41023982599E+03  0.00000000000E+00 0.  1.
<mgrwt>
<rscale>  1 0.30000000E+03</rscale>
<asrwt>0</asrwt>
<pdfrwt beam="1">  1        1 0.21167618E-01 0.30000000E+03</pdfrwt>
<pdfrwt beam="2">0</pdfrwt>
<totfact> 0.27294875E+02</totfact>
</mgrwt>
</event>
<event>
 6    1  0.1956957E-002  0.3000000E+03  0.7818608E-02  0.1093470E+00
          1   -1    0    0  502    0  0.00000000000E+00  0.00000000000E+00  0.36440218032E+01  0.36440218032E+01  0.00000000000E+00 0.  1.
         13   -1    0    0    0    0 -0.00000000000E+00 -0.00000000000E+00 -0.10000000000E+04  0.10000000000E+04  0.00000000000E+00 0.  1.
    9000005    2    1    2  501    0  0.17593167285E+02  0.56703305835E+02 -0.58283208571E+03  0.58587998064E+03  0.61095956914E+01 0.  0.
         13    1    3    3    0    0  0.14735375310E+02  0.50763013086E+02 -0.53277575348E+03  0.53539146265E+03  0.00000000000E+00 0.  1.
          3    1    3    3  501    0  0.28577919745E+01  0.59402927490E+01 -0.50056332229E+02  0.50488517993E+02  0.00000000000E+00 0.  1.
         21    1    1    2  502  501 -0.17593167285E+02 -0.56703305835E+02 -0.41352389249E+03  0.41776404116E+03  0.00000000000E+00 0.  1.
<mgrwt>
<rscale>  1 0.30000000E+03</rscale>
<asrwt>0</asrwt>
<pdfrwt beam="1">  1        1 0.13251016E-01 0.30000000E+03</pdfrwt>
<pdfrwt beam="2">0</pdfrwt>
<totfact> 0.51354816E+02</totfact>
</mgrwt>
</event>
<event>
 6    1  0.1956957E-002  0.3000000E+03  0.7818608E-02  0.1093470E+00
          1   -1    0    0  502    0  0.00000000000E+00  0.00000000000E+00  0.97705958336E+00  0.97705958336E+00  0.00000000000E+00 0.  1.
         13   -1    0    0    0    0 -0.00000000000E+00 -0.00000000000E+00 -0.10000000000E+04  0.10000000000E+04  0.00000000000E+00 0.  1.
    9000005    2    1    2  501    0  0.84113456910E+01  0.29824215779E+02 -0.47629419787E+03  0.47733063988E+03  0.53049279964E+01 0.  0.
         13    1    3    3    0    0  0.67204600788E+01  0.17743793535E+02 -0.31931519379E+03  0.31987841405E+03  0.00000000000E+00 0.  1.
          3    1    3    3  501    0  0.16908856123E+01  0.12080422244E+02 -0.15697900408E+03  0.15745222583E+03  0.00000000000E+00 0.  1.
         21    1    1    2  502  501 -0.84113456910E+01 -0.29824215779E+02 -0.52272874254E+03  0.52364641970E+03  0.00000000000E+00 0.  1.
<mgrwt>
<rscale>  1 0.30000000E+03</rscale>
<asrwt>0</asrwt>
<pdfrwt beam="1">  1        1 0.35529514E-02 0.30000000E+03</pdfrwt>
<pdfrwt beam="2">0</pdfrwt>
<totfact> 0.32172171E+03</totfact>
</mgrwt>
</event>
<event>
 6    1  0.1956957E-002  0.3000000E+03  0.7818608E-02  0.1093470E+00
          1   -1    0    0  502    0  0.00000000000E+00  0.00000000000E+00  0.13943114271E+01  0.13943114271E+01  0.00000000000E+00 0.  1.
         13   -1    0    0    0    0 -0.00000000000E+00 -0.00000000000E+00 -0.10000000000E+04  0.10000000000E+04  0.00000000000E+00 0.  1.
    9000005    2    1    2  501    0  0.11435897228E+02  0.30905495497E+02 -0.73400803058E+03  0.73475251048E+03  0.27446862205E+01 0.  0.
         13    1    3    3    0    0  0.72985438744E+01  0.16601930093E+02 -0.42144880469E+03  0.42183881733E+03  0.00000000000E+00 0.  1.
          3    1    3    3  501    0  0.41373533536E+01  0.14303565404E+02 -0.31255922589E+03  0.31291369316E+03  0.00000000000E+00 0.  1.
         21    1    1    2  502  501 -0.11435897228E+02 -0.30905495497E+02 -0.26459765799E+03  0.26664180095E+03  0.00000000000E+00 0.  1.
<mgrwt>
<rscale>  1 0.30000000E+03</rscale>
<asrwt>0</asrwt>
<pdfrwt beam="1">  1        1 0.50702341E-02 0.30000000E+03</pdfrwt>
<pdfrwt beam="2">0</pdfrwt>
<totfact> 0.19505431E+03</totfact>
</mgrwt>
</event>
<event>
 6    1  0.1956957E-002  0.3000000E+03  0.7818608E-02  0.1093470E+00
          3   -1    0    0  502    0  0.00000000000E+00  0.00000000000E+00  0.40574239916E+01  0.40574239916E+01  0.00000000000E+00 0.  1.
         13   -1    0    0    0    0 -0.00000000000E+00 -0.00000000000E+00 -0.10000000000E+04  0.10000000000E+04  0.00000000000E+00 0.  1.
    9000005    2    1    2  501    0 -0.16263748203E+02  0.61281068028E+02 -0.52689293600E+03  0.53074204964E+03  0.71469186913E+01 0.  0.
         13    1    3    3    0    0 -0.72974766321E+01  0.24259625650E+02 -0.23937381882E+03  0.24071063072E+03  0.00000000000E+00 0.  1.
          3    1    3    3  501    0 -0.89662715710E+01  0.37021442378E+02 -0.28751911717E+03  0.29003141892E+03  0.00000000000E+00 0.  1.
         21    1    1    2  502  501  0.16263748203E+02 -0.61281068028E+02 -0.46904964001E+03  0.47331537435E+03  0.00000000000E+00 0.  1.
<mgrwt>
<rscale>  1 0.30000000E+03</rscale>
<asrwt>0</asrwt>
<pdfrwt beam="1">  1        3 0.14754300E-01 0.30000000E+03</pdfrwt>
<pdfrwt beam="2">0</pdfrwt>
<totfact> 0.17126857E+02</totfact>
</mgrwt>
</event>
<event>
 6    1  0.1956957E-002  0.3000000E+03  0.7818608E-02  0.1093470E+00
          1   -1    0    0  502    0  0.00000000000E+00  0.00000000000E+00  0.24775841592E+01  0.24775841592E+01  0.00000000000E+00 0.  1.
         13   -1    0    0    0    0 -0.00000000000E+00 -0.00000000000E+00 -0.10000000000E+04  0.10000000000E+04  0.00000000000E+00 0.  1.
    9000005    2    1    2  501    0 -0.94834852798E+01 -0.38193209283E+02 -0.80527735203E+03  0.80624603143E+03  0.35201945874E+01 0.  0.
         13    1    3    3    0    0 -0.58261947708E+01 -0.22312369321E+02 -0.43637146027E+03  0.43698036307E+03  0.00000000000E+00 0.  1.
          3    1    3    3  501    0 -0.36572905090E+01 -0.15880839962E+02 -0.36890589176E+03  0.36926566836E+03  0.00000000000E+00 0.  1.
         21    1    1    2  502  501  0.94834852798E+01  0.38193209283E+02 -0.19224506381E+03  0.19623155273E+03  0.00000000000E+00 0.  1.
<mgrwt>
<rscale>  1 0.30000000E+03</rscale>
<asrwt>0</asrwt>
<pdfrwt beam="1">  1        1 0.90094159E-02 0.30000000E+03</pdfrwt>
<pdfrwt beam="2">0</pdfrwt>
<totfact> 0.87310803E+02</totfact>
</mgrwt>
</event>
<event>
 6    1  0.1956957E-002  0.3000000E+03  0.7818608E-02  0.1093470E+00
          1   -1    0    0  502    0  0.00000000000E+00  0.00000000000E+00  0.13020410583E+01  0.13020410583E+01  0.00000000000E+00 0.  1.
         13   -1    0    0    0    0 -0.00000000000E+00 -0.00000000000E+00 -0.10000000000E+04  0.10000000000E+04  0.00000000000E+00 0.  1.
    9000005    2    1    2  501    0  0.26391185319E+02 -0.22739324399E+02 -0.62769234925E+03  0.62866450409E+03  0.27931803281E+01 0.  0.
         13    1    3    3    0    0  0.72362984866E+01 -0.78832115368E+01 -0.19787240001E+03  0.19816153947E+03  0.00000000000E+00 0.  1.
          3    1    3    3  501    0  0.19154886832E+02 -0.14856112862E+02 -0.42981994924E+03  0.43050296461E+03  0.00000000000E+00 0.  1.
         21    1    1    2  502  501 -0.26391185319E+02  0.22739324399E+02 -0.37100560969E+03  0.37263753697E+03  0.00000000000E+00 0.  1.
<mgrwt>
<rscale>  1 0.30000000E+03</rscale>
<asrwt>0</asrwt>
<pdfrwt beam="1">  1        1 0.47347047E-02 0.30000000E+03</pdfrwt>
<pdfrwt beam="2">0</pdfrwt>
<totfact> 0.21476330E+03</totfact>
</mgrwt>
</event>
<event>
 6    1  0.1956957E-002  0.3000000E+03  0.7818608E-02  0.1093470E+00
          3   -1    0    0  502    0  0.00000000000E+00  0.00000000000E+00  0.35609851688E+01  0.35609851688E+01  0.00000000000E+00 0.  1.
         13   -1    0    0    0    0 -0.00000000000E+00 -0.00000000000E+00 -0.10000000000E+04  0.10000000000E+04  0.00000000000E+00 0.  1.
    9000005    2    1    2  501    0 -0.77225358279E+00  0.32337239803E+02 -0.91984822524E+03  0.92041988520E+03  0.23904270759E+01 0.  0.
         13    1    3    3    0    0 -0.12042087305E+01  0.26306796251E+02 -0.72633918578E+03  0.72681642142E+03  0.00000000000E+00 0.  1.
          1    1    3    3  501    0  0.43195514767E+00  0.60304435521E+01 -0.19350903946E+03  0.19360346378E+03  0.00000000000E+00 0.  1.
         21    1    1    2  502  501  0.77225358279E+00 -0.32337239803E+02 -0.76590789587E+02  0.83141099964E+02  0.00000000000E+00 0.  1.
<mgrwt>
<rscale>  1 0.30000000E+03</rscale>
<asrwt>0</asrwt>
<pdfrwt beam="1">  1        3 0.12949064E-01 0.30000000E+03</pdfrwt>
<pdfrwt beam="2">0</pdfrwt>
<totfact> 0.21417355E+02</totfact>
</mgrwt>
</event>
<event>
 6    1  0.1956957E-002  0.3000000E+03  0.7818608E-02  0.1093470E+00
          3   -1    0    0  502    0  0.00000000000E+00  0.00000000000E+00  0.20228566563E+01  0.20228566563E+01  0.00000000000E+00 0.  1.
         13   -1    0    0    0    0 -0.00000000000E+00 -0.00000000000E+00 -0.10000000000E+04  0.10000000000E+04  0.00000000000E+00 0.  1.
    9000005    2    1    2  501    0  0.42687105820E+02  0.40428393425E+01 -0.35075839551E+03  0.35338532991E+03  0.33475100033E+01 0.  0.
         13    1    3    3    0    0  0.22245062022E+02  0.21339518661E+01 -0.16902425710E+03  0.17049514956E+03  0.00000000000E+00 0.  1.
          3    1    3    3  501    0  0.20442043798E+02  0.19088874763E+01 -0.18173413841E+03  0.18289018035E+03  0.00000000000E+00 0.  1.
         21    1    1    2  502  501 -0.42687105820E+02 -0.40428393425E+01 -0.64721874784E+03  0.64863752675E+03  0.00000000000E+00 0.  1.
<mgrwt>
<rscale>  1 0.30000000E+03</rscale>
<asrwt>0</asrwt>
<pdfrwt beam="1">  1        3 0.73558579E-02 0.30000000E+03</pdfrwt>
<pdfrwt beam="2">0</pdfrwt>
<totfact> 0.54160943E+02</totfact>
</mgrwt>
</event>
<event>
 6    1  0.1956957E-002  0.3000000E+03  0.7818608E-02  0.1093470E+00
          1   -1    0    0  502    0  0.00000000000E+00  0.00000000000E+00  0.10820670156E+01  0.10820670156E+01  0.00000000000E+00 0.  1.
         13   -1    0    0    0    0 -0.00000000000E+00 -0.00000000000E+00 -0.10000000000E+04  0.10000000000E+04  0.00000000000E+00 0.  1.
    9000005    2    1    2  501    0  0.31344307184E+02 -0.59306772069E+01 -0.39483410591E+03  0.39615652725E+03  0.53276983749E+01 0.  0.
         13    1    3    3    0    0  0.48590247260E+01  0.67165409000E+00 -0.74685878045E+02  0.74846787638E+02  0.00000000000E+00 0.  1.
          3    1    3    3  501    0  0.26485282458E+02 -0.66023312969E+01 -0.32014822786E+03  0.32130973961E+03  0.00000000000E+00 0.  1.
         21    1    1    2  502  501 -0.31344307184E+02  0.59306772069E+01 -0.60408382708E+03  0.60492553977E+03  0.00000000000E+00 0.  1.
<mgrwt>
<rscale>  1 0.30000000E+03</rscale>
<asrwt>0</asrwt>
<pdfrwt beam="1">  1        1 0.39347974E-02 0.30000000E+03</pdfrwt>
<pdfrwt beam="2">0</pdfrwt>
<totfact> 0.27866935E+03</totfact>
</mgrwt>
</event>
<event>
 6    1  0.1956957E-002  0.3000000E+03  0.7818608E-02  0.1093470E+00
          1   -1    0    0  502    0  0.00000000000E+00  0.00000000000E+00  0.21761529785E+01  0.21761529785E+01  0.00000000000E+00 0.  1.
         13   -1    0    0    0    0 -0.00000000000E+00 -0.00000000000E+00 -0.10000000000E+04  0.10000000000E+04  0.00000000000E+00 0.  1.
    9000005    2    1    2  501    0 -0.37888067959E+02  0.26546784802E+02 -0.55592104482E+03  0.55785833422E+03  0.41803711167E+01 0.  0.
         13    1    3    3    0    0 -0.74813712080E+01  0.33080121921E+01 -0.99234109326E+02  0.99570690033E+02  0.00000000000E+00 0.  1.
          1    1    3    3  501    0 -0.30406696751E+02  0.23238772610E+02 -0.45668693550E+03  0.45828764418E+03  0.00000000000E+00 0.  1.
         21    1    1    2  502  501  0.37888067959E+02 -0.26546784802E+02 -0.44190280220E+03  0.44431781876E+03  0.00000000000E+00 0.  1.
<mgrwt>
<rscale>  1 0.30000000E+03</rscale>
<asrwt>0</asrwt>
<pdfrwt beam="1">  1        1 0.79133002E-02 0.30000000E+03</pdfrwt>
<pdfrwt beam="2">0</pdfrwt>
<totfact> 0.10455886E+03</totfact>
</mgrwt>
</event>
<event>
 6    1  0.1956957E-002  0.3000000E+03  0.7818608E-02  0.1093470E+00
          1   -1    0    0  502    0  0.00000000000E+00  0.00000000000E+00  0.16037702015E+01  0.16037702015E+01  0.00000000000E+00 0.  1.
         13   -1    0    0    0    0 -0.00000000000E+00 -0.00000000000E+00 -0.10000000000E+04  0.10000000000E+04  0.00000000000E+00 0.  1.
    9000005    2    1    2  501    0 -0.13616837658E+02  0.37572641250E+02 -0.51158112716E+03  0.51315104393E+03  0.34091918504E+01 0.  0.
         13    1    3    3    0    0 -0.19003853024E+01  0.34048677548E+01 -0.60934696756E+02  0.61059330634E+02  0.00000000000E+00 0.  1.
          1    1    3    3  501    0 -0.11716452356E+02  0.34167773495E+02 -0.45064643040E+03  0.45209171330E+03  0.00000000000E+00 0.  1.
         21    1    1    2  502  501  0.13616837658E+02 -0.37572641250E+02 -0.48681510264E+03  0.48845272627E+03  0.00000000000E+00 0.  1.
<mgrwt>
<rscale>  1 0.30000000E+03</rscale>
<asrwt>0</asrwt>
<pdfrwt beam="1">  1        1 0.58319039E-02 0.30000000E+03</pdfrwt>
<pdfrwt beam="2">0</pdfrwt>
<totfact> 0.16024842E+03</totfact>
</mgrwt>
</event>
<event>
 6    1  0.1956957E-002  0.3000000E+03  0.7818608E-02  0.1093470E+00
          1   -1    0    0  502    0  0.00000000000E+00  0.00000000000E+00  0.23041346378E+01  0.23041346378E+01  0.00000000000E+00 0.  1.
         13   -1    0    0    0    0 -0.00000000000E+00 -0.00000000000E+00 -0.10000000000E+04  0.10000000000E+04  0.00000000000E+00 0.  1.
    9000005    2    1    2  501    0  0.10348395914E+02  0.37909409869E+02 -0.78615512780E+03  0.78714443510E+03  0.35020131745E+01 0.  0.
         13    1    3    3    0    0  0.56848861240E+01  0.15679731466E+02 -0.31157233399E+03  0.31201841487E+03  0.00000000000E+00 0.  1.
          1    1    3    3  501    0  0.46635097898E+01  0.22229678404E+02 -0.47458279380E+03  0.47512602023E+03  0.00000000000E+00 0.  1.
         21    1    1    2  502  501 -0.10348395914E+02 -0.37909409869E+02 -0.21154073756E+03  0.21515969953E+03  0.00000000000E+00 0.  1.
<mgrwt>
<rscale>  1 0.30000000E+03</rscale>
<asrwt>0</asrwt>
<pdfrwt beam="1">  1        1 0.83786891E-02 0.30000000E+03</pdfrwt>
<pdfrwt beam="2">0</pdfrwt>
<totfact> 0.96566666E+02</totfact>
</mgrwt>
</event>
<event>
 6    1  0.1956957E-002  0.3000000E+03  0.7818608E-02  0.1093470E+00
          3   -1    0    0  502    0  0.00000000000E+00  0.00000000000E+00  0.99121934142E+00  0.99121934142E+00  0.00000000000E+00 0.  1.
         13   -1    0    0    0    0 -0.00000000000E+00 -0.00000000000E+00 -0.10000000000E+04  0.10000000000E+04  0.00000000000E+00 0.  1.
    9000005    2    1    2  501    0 -0.31183383098E+02 -0.33988615805E+01 -0.47791956871E+03  0.47895872758E+03  0.32238069527E+01 0.  0.
         13    1    3    3    0    0 -0.29011137028E+02 -0.25065069688E+01 -0.44957091155E+03  0.45051296670E+03  0.00000000000E+00 0.  1.
          1    1    3    3  501    0 -0.21722460702E+01 -0.89235461176E+00 -0.28348657157E+02  0.28445760885E+02  0.00000000000E+00 0.  1.
         21    1    1    2  502  501  0.31183383098E+02  0.33988615805E+01 -0.52108921195E+03  0.52203249176E+03  0.00000000000E+00 0.  1.
<mgrwt>
<rscale>  1 0.30000000E+03</rscale>
<asrwt>0</asrwt>
<pdfrwt beam="1">  1        3 0.36044416E-02 0.30000000E+03</pdfrwt>
<pdfrwt beam="2">0</pdfrwt>
<totfact> 0.16376940E+03</totfact>
</mgrwt>
</event>
<event>
 6    1  0.1956957E-002  0.3000000E+03  0.7818608E-02  0.1093470E+00
          1   -1    0    0  502    0  0.00000000000E+00  0.00000000000E+00  0.28882419789E+01  0.28882419789E+01  0.00000000000E+00 0.  1.
         13   -1    0    0    0    0 -0.00000000000E+00 -0.00000000000E+00 -0.10000000000E+04  0.10000000000E+04  0.00000000000E+00 0.  1.
    9000005    2    1    2  501    0 -0.33464700827E+02  0.33984976707E+02 -0.72909714575E+03  0.73066278903E+03  0.32555317400E+01 0.  0.
         13    1    3    3    0    0 -0.11902239265E+01  0.13948139342E+01 -0.20045060339E+02  0.20128750158E+02  0.00000000000E+00 0.  1.
          1    1    3    3  501    0 -0.32274476901E+02  0.32590162773E+02 -0.70905208541E+03  0.71053403887E+03  0.00000000000E+00 0.  1.
         21    1    1    2  502  501  0.33464700827E+02 -0.33984976707E+02 -0.26801461227E+03  0.27222545295E+03  0.00000000000E+00 0.  1.
<mgrwt>
<rscale>  1 0.30000000E+03</rscale>
<asrwt>0</asrwt>
<pdfrwt beam="1">  1        1 0.10502720E-01 0.30000000E+03</pdfrwt>
<pdfrwt beam="2">0</pdfrwt>
<totfact> 0.70632130E+02</totfact>
</mgrwt>
</event>
<event>
 6    1  0.1956957E-002  0.3000000E+03  0.7818608E-02  0.1093470E+00
          3   -1    0    0  502    0  0.00000000000E+00  0.00000000000E+00  0.28729758841E+01  0.28729758841E+01  0.00000000000E+00 0.  1.
         13   -1    0    0    0    0 -0.00000000000E+00 -0.00000000000E+00 -0.10000000000E+04  0.10000000000E+04  0.00000000000E+00 0.  1.
    9000005    2    1    2  501    0 -0.35151178329E+02 -0.17749702409E+02 -0.83854065855E+03  0.83947073411E+03  0.31654559750E+01 0.  0.
         13    1    3    3    0    0 -0.31466561953E+02 -0.16447196905E+02 -0.73668657014E+03  0.73754169877E+03  0.00000000000E+00 0.  1.
          3    1    3    3  501    0 -0.36846163764E+01 -0.13025055042E+01 -0.10185408841E+03  0.10192903534E+03  0.00000000000E+00 0.  1.
         21    1    1    2  502  501  0.35151178329E+02  0.17749702409E+02 -0.15858636557E+03  0.16340224178E+03  0.00000000000E+00 0.  1.
<mgrwt>
<rscale>  1 0.30000000E+03</rscale>
<asrwt>0</asrwt>
<pdfrwt beam="1">  1        3 0.10447207E-01 0.30000000E+03</pdfrwt>
<pdfrwt beam="2">0</pdfrwt>
<totfact> 0.30720116E+02</totfact>
</mgrwt>
</event>
<event>
 6    1  0.1956957E-002  0.3000000E+03  0.7818608E-02  0.1093470E+00
          1   -1    0    0  502    0  0.00000000000E+00  0.00000000000E+00  0.43234058275E+01  0.43234058275E+01  0.00000000000E+00 0.  1.
         13   -1    0    0    0    0 -0.00000000000E+00 -0.00000000000E+00 -0.10000000000E+04  0.10000000000E+04  0.00000000000E+00 0.  1.
    9000005    2    1    2  501    0  0.18309544614E+01  0.53587888787E+02 -0.78823617036E+03  0.79006528194E+03  0.34460484046E+01 0.  0.
         13    1    3    3    0    0  0.22163940047E+01  0.33204963414E+02 -0.46980735137E+03  0.47098453201E+03  0.00000000000E+00 0.  1.
          1    1    3    3  501    0 -0.38543954332E+00  0.20382925373E+02 -0.31842881899E+03  0.31908074993E+03  0.00000000000E+00 0.  1.
         21    1    1    2  502  501 -0.18309544614E+01 -0.53587888787E+02 -0.20744042382E+03  0.21425812389E+03  0.00000000000E+00 0.  1.
<mgrwt>
<rscale>  1 0.30000000E+03</rscale>
<asrwt>0</asrwt>
<pdfrwt beam="1">  1        1 0.15721509E-01 0.30000000E+03</pdfrwt>
<pdfrwt beam="2">0</pdfrwt>
<totfact> 0.40702686E+02</totfact>
</mgrwt>
</event>
<event>
 6    1  0.1956957E-002  0.3000000E+03  0.7818608E-02  0.1093470E+00
          3   -1    0    0  502    0  0.00000000000E+00  0.00000000000E+00  0.16799150411E+01  0.16799150411E+01  0.00000000000E+00 0.  1.
         13   -1    0    0    0    0 -0.00000000000E+00 -0.00000000000E+00 -0.10000000000E+04  0.10000000000E+04  0.00000000000E+00 0.  1.
    9000005    2    1    2  501    0  0.19846186759E+02  0.35752904342E+02 -0.49476171928E+03  0.49646395237E+03  0.38930495785E+01 0.  0.
         13    1    3    3    0    0  0.39424715725E+01  0.10654265217E+02 -0.13967443035E+03  0.14013565907E+03  0.00000000000E+00 0.  1.
          3    1    3    3  501    0  0.15903715186E+02  0.25098639125E+02 -0.35508728894E+03  0.35632829330E+03  0.00000000000E+00 0.  1.
         21    1    1    2  502  501 -0.19846186759E+02 -0.35752904342E+02 -0.50355836568E+03  0.50521596267E+03  0.00000000000E+00 0.  1.
<mgrwt>
<rscale>  1 0.30000000E+03</rscale>
<asrwt>0</asrwt>
<pdfrwt beam="1">  1        3 0.61087948E-02 0.30000000E+03</pdfrwt>
<pdfrwt beam="2">0</pdfrwt>
<totfact> 0.72508916E+02</totfact>
</mgrwt>
</event>
<event>
 6    1  0.1956957E-002  0.3000000E+03  0.7818608E-02  0.1093470E+00
          1   -1    0    0  502    0  0.00000000000E+00  0.00000000000E+00  0.17577775026E+01  0.17577775026E+01  0.00000000000E+00 0.  1.
         13   -1    0    0    0    0 -0.00000000000E+00 -0.00000000000E+00 -0.10000000000E+04  0.10000000000E+04  0.00000000000E+00 0.  1.
    9000005    2    1    2  501    0  0.22988776105E+02 -0.22110434555E+02 -0.82382196735E+03  0.82444511425E+03  0.31236811652E+01 0.  0.
         13    1    3    3    0    0  0.55701489788E+01 -0.42955494855E+01 -0.20967743781E+03  0.20979539135E+03  0.00000000000E+00 0.  1.
          3    1    3    3  501    0  0.17418627127E+02 -0.17814885069E+02 -0.61414452954E+03  0.61464972290E+03  0.00000000000E+00 0.  1.
         21    1    1    2  502  501 -0.22988776105E+02  0.22110434555E+02 -0.17442025515E+03  0.17731266325E+03  0.00000000000E+00 0.  1.
<mgrwt>
<rscale>  1 0.30000000E+03</rscale>
<asrwt>0</asrwt>
<pdfrwt beam="1">  1        1 0.63919317E-02 0.30000000E+03</pdfrwt>
<pdfrwt beam="2">0</pdfrwt>
<totfact> 0.14091224E+03</totfact>
</mgrwt>
</event>
<event>
 6    1  0.1956957E-002  0.3000000E+03  0.7818608E-02  0.1093470E+00
          1   -1    0    0  502    0  0.00000000000E+00  0.00000000000E+00  0.19338955598E+01  0.19338955598E+01  0.00000000000E+00 0.  1.
         13   -1    0    0    0    0 -0.00000000000E+00 -0.00000000000E+00 -0.10000000000E+04  0.10000000000E+04  0.00000000000E+00 0.  1.
    9000005    2    1    2  501    0 -0.11952010470E+01 -0.42708486071E+02 -0.61564657632E+03  0.61713506659E+03  0.30887204193E+01 0.  0.
         13    1    3    3    0    0 -0.97098215763E+00 -0.35871846950E+02 -0.49964769040E+03  0.50093467312E+03  0.00000000000E+00 0.  1.
          3    1    3    3  501    0 -0.22421888940E+00 -0.68366391217E+01 -0.11599888592E+03  0.11620039347E+03  0.00000000000E+00 0.  1.
         21    1    1    2  502  501  0.11952010470E+01  0.42708486071E+02 -0.38241952812E+03  0.38479882897E+03  0.00000000000E+00 0.  1.
<mgrwt>
<rscale>  1 0.30000000E+03</rscale>
<asrwt>0</asrwt>
<pdfrwt beam="1">  1        1 0.70323623E-02 0.30000000E+03</pdfrwt>
<pdfrwt beam="2">0</pdfrwt>
<totfact> 0.12328346E+03</totfact>
</mgrwt>
</event>
<event>
 6    1  0.1956957E-002  0.3000000E+03  0.7818608E-02  0.1093470E+00
          3   -1    0    0  502    0  0.00000000000E+00  0.00000000000E+00  0.10722304819E+01  0.10722304819E+01  0.00000000000E+00 0.  1.
         13   -1    0    0    0    0 -0.00000000000E+00 -0.00000000000E+00 -0.10000000000E+04  0.10000000000E+04  0.00000000000E+00 0.  1.
    9000005    2    1    2  501    0 -0.18250390749E+02  0.26301828984E+02 -0.59817708724E+03  0.59904490266E+03  0.37556267003E+01 0.  0.
         13    1    3    3    0    0 -0.70345295337E+01  0.88058792690E+01 -0.24153031680E+03  0.24179313896E+03  0.00000000000E+00 0.  1.
          3    1    3    3  501    0 -0.11215861216E+02  0.17495949715E+02 -0.35664677044E+03  0.35725176370E+03  0.00000000000E+00 0.  1.
         21    1    1    2  502  501  0.18250390749E+02 -0.26301828984E+02 -0.40075068228E+03  0.40202732782E+03  0.00000000000E+00 0.  1.
<mgrwt>
<rscale>  1 0.30000000E+03</rscale>
<asrwt>0</asrwt>
<pdfrwt beam="1">  1        3 0.38990282E-02 0.30000000E+03</pdfrwt>
<pdfrwt beam="2">0</pdfrwt>
<totfact> 0.14511625E+03</totfact>
</mgrwt>
</event>
<event>
 6    1  0.1956957E-002  0.3000000E+03  0.7818608E-02  0.1093470E+00
          1   -1    0    0  502    0  0.00000000000E+00  0.00000000000E+00  0.99944142902E+00  0.99944142902E+00  0.00000000000E+00 0.  1.
         13   -1    0    0    0    0 -0.00000000000E+00 -0.00000000000E+00 -0.10000000000E+04  0.10000000000E+04  0.00000000000E+00 0.  1.
    9000005    2    1    2  501    0 -0.24168690557E+02 -0.19219588760E+02 -0.57241320499E+03  0.57329593615E+03  0.76049300045E+01 0.  0.
         13    1    3    3    0    0 -0.20813307731E+02 -0.18957014189E+02 -0.48335850873E+03  0.48417766380E+03  0.00000000000E+00 0.  1.
          3    1    3    3  501    0 -0.33553828259E+01 -0.26257457078E+00 -0.89054696259E+02  0.89118272341E+02  0.00000000000E+00 0.  1.
         21    1    1    2  502  501  0.24168690557E+02  0.19219588760E+02 -0.42658735358E+03  0.42770350528E+03  0.00000000000E+00 0.  1.
<mgrwt>
<rscale>  1 0.30000000E+03</rscale>
<asrwt>0</asrwt>
<pdfrwt beam="1">  1        1 0.36343401E-02 0.30000000E+03</pdfrwt>
<pdfrwt beam="2">0</pdfrwt>
<totfact> 0.31163265E+03</totfact>
</mgrwt>
</event>
<event>
 6    1  0.1956957E-002  0.3000000E+03  0.7818608E-02  0.1093470E+00
          3   -1    0    0  502    0  0.00000000000E+00  0.00000000000E+00  0.11338467352E+01  0.11338467352E+01  0.00000000000E+00 0.  1.
         13   -1    0    0    0    0 -0.00000000000E+00 -0.00000000000E+00 -0.10000000000E+04  0.10000000000E+04  0.00000000000E+00 0.  1.
    9000005    2    1    2  501    0 -0.17136011709E+02 -0.27646616430E+02 -0.61159672385E+03  0.61250087174E+03  0.69847660063E+01 0.  0.
         13    1    3    3    0    0 -0.12805109558E+01 -0.45860681983E+01 -0.13432961527E+03  0.13441397720E+03  0.00000000000E+00 0.  1.
          3    1    3    3  501    0 -0.15855500754E+02 -0.23060548232E+02 -0.47726710858E+03  0.47808689453E+03  0.00000000000E+00 0.  1.
         21    1    1    2  502  501  0.17136011709E+02  0.27646616430E+02 -0.38726942942E+03  0.38863297500E+03  0.00000000000E+00 0.  1.
<mgrwt>
<rscale>  1 0.30000000E+03</rscale>
<asrwt>0</asrwt>
<pdfrwt beam="1">  1        3 0.41230877E-02 0.30000000E+03</pdfrwt>
<pdfrwt beam="2">0</pdfrwt>
<totfact> 0.13317986E+03</totfact>
</mgrwt>
</event>
<event>
 6    1  0.1956957E-002  0.3000000E+03  0.7818608E-02  0.1093470E+00
          1   -1    0    0  502    0  0.00000000000E+00  0.00000000000E+00  0.24059638007E+01  0.24059638007E+01  0.00000000000E+00 0.  1.
         13   -1    0    0    0    0 -0.00000000000E+00 -0.00000000000E+00 -0.10000000000E+04  0.10000000000E+04  0.00000000000E+00 0.  1.
    9000005    2    1    2  501    0  0.24834600901E+02  0.42234070072E+02 -0.49565495125E+03  0.49808134703E+03  0.32746737602E+01 0.  0.
         13    1    3    3    0    0  0.19203584262E+02  0.31534749771E+02 -0.38602759994E+03  0.38778928042E+03  0.00000000000E+00 0.  1.
          1    1    3    3  501    0  0.56310166388E+01  0.10699320301E+02 -0.10962735131E+03  0.11029206662E+03  0.00000000000E+00 0.  1.
         21    1    1    2  502  501 -0.24834600901E+02 -0.42234070072E+02 -0.50193908495E+03  0.50432461677E+03  0.00000000000E+00 0.  1.
<mgrwt>
<rscale>  1 0.30000000E+03</rscale>
<asrwt>0</asrwt>
<pdfrwt beam="1">  1        1 0.87489777E-02 0.30000000E+03</pdfrwt>
<pdfrwt beam="2">0</pdfrwt>
<totfact> 0.90937024E+02</totfact>
</mgrwt>
</event>
<event>
 6    1  0.1956957E-002  0.3000000E+03  0.7818608E-02  0.1093470E+00
          1   -1    0    0  502    0  0.00000000000E+00  0.00000000000E+00  0.10320928347E+02  0.10320928347E+02  0.00000000000E+00 0.  1.
         13   -1    0    0    0    0 -0.00000000000E+00 -0.00000000000E+00 -0.10000000000E+04  0.10000000000E+04  0.00000000000E+00 0.  1.
    9000005    2    1    2  501    0 -0.35821716097E+02 -0.13490099961E+01 -0.96749452347E+03  0.96816444189E+03  0.34232194016E+01 0.  0.
         13    1    3    3    0    0 -0.85863264122E+01 -0.14590224684E+01 -0.21036120240E+03  0.21054141925E+03  0.00000000000E+00 0.  1.
          3    1    3    3  501    0 -0.27235389685E+02  0.11001247237E+00 -0.75713332107E+03  0.75762302264E+03  0.00000000000E+00 0.  1.
         21    1    1    2  502  501  0.35821716097E+02  0.13490099961E+01 -0.22184548188E+02  0.42156486457E+02  0.00000000000E+00 0.  1.
<mgrwt>
<rscale>  1 0.30000000E+03</rscale>
<asrwt>0</asrwt>
<pdfrwt beam="1">  1        1 0.37530728E-01 0.30000000E+03</pdfrwt>
<pdfrwt beam="2">0</pdfrwt>
<totfact> 0.12846104E+02</totfact>
</mgrwt>
</event>
<event>
 6    1  0.1956957E-002  0.3000000E+03  0.7818608E-02  0.1093470E+00
          1   -1    0    0  502    0  0.00000000000E+00  0.00000000000E+00  0.11717211765E+01  0.11717211765E+01  0.00000000000E+00 0.  1.
         13   -1    0    0    0    0 -0.00000000000E+00 -0.00000000000E+00 -0.10000000000E+04  0.10000000000E+04  0.00000000000E+00 0.  1.
    9000005    2    1    2  501    0  0.22520550122E+02  0.25346284067E+02 -0.51339532891E+03  0.51455610474E+03  0.66039298379E+01 0.  0.
         13    1    3    3    0    0  0.17706149213E+00  0.26156424862E+01 -0.46834637243E+02  0.46907954358E+02  0.00000000000E+00 0.  1.
          3    1    3    3  501    0  0.22343488630E+02  0.22730641581E+02 -0.46656069166E+03  0.46764815038E+03  0.00000000000E+00 0.  1.
         21    1    1    2  502  501 -0.22520550122E+02 -0.25346284067E+02 -0.48543294992E+03  0.48661561644E+03  0.00000000000E+00 0.  1.
<mgrwt>
<rscale>  1 0.30000000E+03</rscale>
<asrwt>0</asrwt>
<pdfrwt beam="1">  1        1 0.42608133E-02 0.30000000E+03</pdfrwt>
<pdfrwt beam="2">0</pdfrwt>
<totfact> 0.24912413E+03</totfact>
</mgrwt>
</event>
<event>
 6    1  0.1956957E-002  0.3000000E+03  0.7818608E-02  0.1093470E+00
          3   -1    0    0  502    0  0.00000000000E+00  0.00000000000E+00  0.70655641697E+01  0.70655641697E+01  0.00000000000E+00 0.  1.
         13   -1    0    0    0    0 -0.00000000000E+00 -0.00000000000E+00 -0.10000000000E+04  0.10000000000E+04  0.00000000000E+00 0.  1.
    9000005    2    1    2  501    0 -0.24868212197E+02  0.30401483928E+02 -0.94162073666E+03  0.94244533571E+03  0.33046789814E+01 0.  0.
         13    1    3    3    0    0 -0.70466636535E+01  0.64166619137E+01 -0.22185498571E+03  0.22205959493E+03  0.00000000000E+00 0.  1.
          1    1    3    3  501    0 -0.17821548543E+02  0.23984822015E+02 -0.71976575095E+03  0.72038574078E+03  0.00000000000E+00 0.  1.
         21    1    1    2  502  501  0.24868212197E+02 -0.30401483928E+02 -0.51313699175E+02  0.64620228457E+02  0.00000000000E+00 0.  1.
<mgrwt>
<rscale>  1 0.30000000E+03</rscale>
<asrwt>0</asrwt>
<pdfrwt beam="1">  1        3 0.25693015E-01 0.30000000E+03</pdfrwt>
<pdfrwt beam="2">0</pdfrwt>
<totfact> 0.62693732E+01</totfact>
</mgrwt>
</event>
<event>
 6    1  0.1956957E-002  0.3000000E+03  0.7818608E-02  0.1093470E+00
          1   -1    0    0  502    0  0.00000000000E+00  0.00000000000E+00  0.12380918770E+01  0.12380918770E+01  0.00000000000E+00 0.  1.
         13   -1    0    0    0    0 -0.00000000000E+00 -0.00000000000E+00 -0.10000000000E+04  0.10000000000E+04  0.00000000000E+00 0.  1.
    9000005    2    1    2  501    0  0.13195459175E+02  0.32348899252E+02 -0.55027981203E+03  0.55139727343E+03  0.32419425961E+01 0.  0.
         13    1    3    3    0    0  0.11472131411E+02  0.30000897392E+02 -0.49528775229E+03  0.49632813865E+03  0.00000000000E+00 0.  1.
          3    1    3    3  501    0  0.17233277640E+01  0.23480018598E+01 -0.54992059734E+02  0.55069134777E+02  0.00000000000E+00 0.  1.
         21    1    1    2  502  501 -0.13195459175E+02 -0.32348899252E+02 -0.44848209609E+03  0.44984081845E+03  0.00000000000E+00 0.  1.
<mgrwt>
<rscale>  1 0.30000000E+03</rscale>
<asrwt>0</asrwt>
<pdfrwt beam="1">  1        1 0.45021618E-02 0.30000000E+03</pdfrwt>
<pdfrwt beam="2">0</pdfrwt>
<totfact> 0.23053250E+03</totfact>
</mgrwt>
</event>
<event>
 6    1  0.1956957E-002  0.3000000E+03  0.7818608E-02  0.1093470E+00
          1   -1    0    0  502    0  0.00000000000E+00  0.00000000000E+00  0.11196223864E+01  0.11196223864E+01  0.00000000000E+00 0.  1.
         13   -1    0    0    0    0 -0.00000000000E+00 -0.00000000000E+00 -0.10000000000E+04  0.10000000000E+04  0.00000000000E+00 0.  1.
    9000005    2    1    2  501    0  0.28873029861E+02  0.12615304892E+02 -0.33506813795E+03  0.33656000331E+03  0.30300152342E+01 0.  0.
         13    1    3    3    0    0  0.10008582561E+02  0.50794550407E+01 -0.13340755539E+03  0.13387885727E+03  0.00000000000E+00 0.  1.
          3    1    3    3  501    0  0.18864447301E+02  0.75358498513E+01 -0.20166058255E+03  0.20268114604E+03  0.00000000000E+00 0.  1.
         21    1    1    2  502  501 -0.28873029861E+02 -0.12615304892E+02 -0.66381223967E+03  0.66455961907E+03  0.00000000000E+00 0.  1.
<mgrwt>
<rscale>  1 0.30000000E+03</rscale>
<asrwt>0</asrwt>
<pdfrwt beam="1">  1        1 0.40713627E-02 0.30000000E+03</pdfrwt>
<pdfrwt beam="2">0</pdfrwt>
<totfact> 0.26559941E+03</totfact>
</mgrwt>
</event>
<event>
 6    1  0.1956957E-002  0.3000000E+03  0.7818608E-02  0.1093470E+00
          1   -1    0    0  502    0  0.00000000000E+00  0.00000000000E+00  0.14704907862E+02  0.14704907862E+02  0.00000000000E+00 0.  1.
         13   -1    0    0    0    0 -0.00000000000E+00 -0.00000000000E+00 -0.10000000000E+04  0.10000000000E+04  0.00000000000E+00 0.  1.
    9000005    2    1    2  501    0  0.85465135668E+02 -0.15330261202E+02 -0.84677580972E+03  0.85122127588E+03  0.30136801358E+01 0.  0.
         13    1    3    3    0    0  0.29417062077E+02 -0.66838363526E+01 -0.29037280475E+03  0.29193561438E+03  0.00000000000E+00 0.  1.
          1    1    3    3  501    0  0.56048073590E+02 -0.86464248493E+01 -0.55640300497E+03  0.55928566150E+03  0.00000000000E+00 0.  1.
         21    1    1    2  502  501 -0.85465135668E+02  0.15330261202E+02 -0.13851928242E+03  0.16348363198E+03  0.00000000000E+00 0.  1.
<mgrwt>
<rscale>  1 0.30000000E+03</rscale>
<asrwt>0</asrwt>
<pdfrwt beam="1">  1        1 0.53472505E-01 0.30000000E+03</pdfrwt>
<pdfrwt beam="2">0</pdfrwt>
<totfact> 0.80778200E+01</totfact>
</mgrwt>
</event>
<event>
 6    1  0.1956957E-002  0.3000000E+03  0.7818608E-02  0.1093470E+00
          1   -1    0    0  502    0  0.00000000000E+00  0.00000000000E+00  0.13085589148E+01  0.13085589148E+01  0.00000000000E+00 0.  1.
         13   -1    0    0    0    0 -0.00000000000E+00 -0.00000000000E+00 -0.10000000000E+04  0.10000000000E+04  0.00000000000E+00 0.  1.
    9000005    2    1    2  501    0 -0.84820582517E+01  0.35081919527E+02 -0.51527516307E+03  0.51654677799E+03  0.30649291765E+01 0.  0.
         13    1    3    3    0    0 -0.61328054229E+01  0.22668854481E+02 -0.31579911495E+03  0.31667107425E+03  0.00000000000E+00 0.  1.
          1    1    3    3  501    0 -0.23492528288E+01  0.12413065047E+02 -0.19947604812E+03  0.19987570374E+03  0.00000000000E+00 0.  1.
         21    1    1    2  502  501  0.84820582517E+01 -0.35081919527E+02 -0.48341627802E+03  0.48476178092E+03  0.00000000000E+00 0.  1.
<mgrwt>
<rscale>  1 0.30000000E+03</rscale>
<asrwt>0</asrwt>
<pdfrwt beam="1">  1        1 0.47584061E-02 0.30000000E+03</pdfrwt>
<pdfrwt beam="2">0</pdfrwt>
<totfact> 0.21326033E+03</totfact>
</mgrwt>
</event>
<event>
 6    1  0.1956957E-002  0.3000000E+03  0.7818608E-02  0.1093470E+00
          1   -1    0    0  502    0  0.00000000000E+00  0.00000000000E+00  0.14695028675E+01  0.14695028675E+01  0.00000000000E+00 0.  1.
         13   -1    0    0    0    0 -0.00000000000E+00 -0.00000000000E+00 -0.10000000000E+04  0.10000000000E+04  0.00000000000E+00 0.  1.
    9000005    2    1    2  501    0 -0.22554503386E+02 -0.20687465515E+02 -0.79991262828E+03  0.80050747989E+03  0.39160723455E+01 0.  0.
         13    1    3    3    0    0 -0.48662121203E+01 -0.44222309271E+01 -0.21741408266E+03  0.21751349265E+03  0.00000000000E+00 0.  1.
          3    1    3    3  501    0 -0.17688291265E+02 -0.16265234588E+02 -0.58249854562E+03  0.58299398723E+03  0.00000000000E+00 0.  1.
         21    1    1    2  502  501  0.22554503386E+02  0.20687465515E+02 -0.19861786885E+03  0.20096202298E+03  0.00000000000E+00 0.  1.
<mgrwt>
<rscale>  1 0.30000000E+03</rscale>
<asrwt>0</asrwt>
<pdfrwt beam="1">  1        1 0.53436581E-02 0.30000000E+03</pdfrwt>
<pdfrwt beam="2">0</pdfrwt>
<totfact> 0.18117892E+03</totfact>
</mgrwt>
</event>
<event>
 6    1  0.1956957E-002  0.3000000E+03  0.7818608E-02  0.1093470E+00
          1   -1    0    0  502    0  0.00000000000E+00  0.00000000000E+00  0.17979045761E+01  0.17979045761E+01  0.00000000000E+00 0.  1.
         13   -1    0    0    0    0 -0.00000000000E+00 -0.00000000000E+00 -0.10000000000E+04  0.10000000000E+04  0.00000000000E+00 0.  1.
    9000005    2    1    2  501    0 -0.29975564628E+02  0.64505955383E+01 -0.84471357912E+03  0.84527675810E+03  0.34091602426E+01 0.  0.
         13    1    3    3    0    0 -0.14756314453E+02  0.41433151049E+01 -0.38260648526E+03  0.38291335631E+03  0.00000000000E+00 0.  1.
          1    1    3    3  501    0 -0.15219250175E+02  0.23072804334E+01 -0.46210709386E+03  0.46236340179E+03  0.00000000000E+00 0.  1.
         21    1    1    2  502  501  0.29975564628E+02 -0.64505955383E+01 -0.15348851630E+03  0.15652114647E+03  0.00000000000E+00 0.  1.
<mgrwt>
<rscale>  1 0.30000000E+03</rscale>
<asrwt>0</asrwt>
<pdfrwt beam="1">  1        1 0.65378486E-02 0.30000000E+03</pdfrwt>
<pdfrwt beam="2">0</pdfrwt>
<totfact> 0.13652650E+03</totfact>
</mgrwt>
</event>
<event>
 6    1  0.1956957E-002  0.3000000E+03  0.7818608E-02  0.1093470E+00
          1   -1    0    0  502    0  0.00000000000E+00  0.00000000000E+00  0.19381199974E+01  0.19381199974E+01  0.00000000000E+00 0.  1.
         13   -1    0    0    0    0 -0.00000000000E+00 -0.00000000000E+00 -0.10000000000E+04  0.10000000000E+04  0.00000000000E+00 0.  1.
    9000005    2    1    2  501    0  0.98981279834E+01  0.32843721632E+02 -0.81272230280E+03  0.81345087410E+03  0.28460705943E+01 0.  0.
         13    1    3    3    0    0  0.17611571176E+00  0.35610140514E+01 -0.82405927635E+02  0.82483020963E+02  0.00000000000E+00 0.  1.
          3    1    3    3  501    0  0.97220122717E+01  0.29282707581E+02 -0.73031637516E+03  0.73096785314E+03  0.00000000000E+00 0.  1.
         21    1    1    2  502  501 -0.98981279834E+01 -0.32843721632E+02 -0.18533957720E+03  0.18848724590E+03  0.00000000000E+00 0.  1.
<mgrwt>
<rscale>  1 0.30000000E+03</rscale>
<asrwt>0</asrwt>
<pdfrwt beam="1">  1        1 0.70477239E-02 0.30000000E+03</pdfrwt>
<pdfrwt beam="2">0</pdfrwt>
<totfact> 0.12290793E+03</totfact>
</mgrwt>
</event>
<event>
 6    1  0.1956957E-002  0.3000000E+03  0.7818608E-02  0.1093470E+00
          1   -1    0    0  502    0  0.00000000000E+00  0.00000000000E+00  0.18652640713E+01  0.18652640713E+01  0.00000000000E+00 0.  1.
         13   -1    0    0    0    0 -0.00000000000E+00 -0.00000000000E+00 -0.10000000000E+04  0.10000000000E+04  0.00000000000E+00 0.  1.
    9000005    2    1    2  501    0 -0.29076122281E+02  0.20472761300E+02 -0.78270327501E+03  0.78351859202E+03  0.35231361127E+01 0.  0.
         13    1    3    3    0    0 -0.88634927568E+01  0.75825428129E+01 -0.28403834193E+03  0.28427774473E+03  0.00000000000E+00 0.  1.
          1    1    3    3  501    0 -0.20212629524E+02  0.12890218487E+02 -0.49866493307E+03  0.49924084729E+03  0.00000000000E+00 0.  1.
         21    1    1    2  502  501  0.29076122281E+02 -0.20472761300E+02 -0.21543146092E+03  0.21834667206E+03  0.00000000000E+00 0.  1.
<mgrwt>
<rscale>  1 0.30000000E+03</rscale>
<asrwt>0</asrwt>
<pdfrwt beam="1">  1        1 0.67827927E-02 0.30000000E+03</pdfrwt>
<pdfrwt beam="2">0</pdfrwt>
<totfact> 0.12967466E+03</totfact>
</mgrwt>
</event>
<event>
 6    1  0.1956957E-002  0.3000000E+03  0.7818608E-02  0.1093470E+00
          1   -1    0    0  502    0  0.00000000000E+00  0.00000000000E+00  0.11531121931E+01  0.11531121931E+01  0.00000000000E+00 0.  1.
         13   -1    0    0    0    0 -0.00000000000E+00 -0.00000000000E+00 -0.10000000000E+04  0.10000000000E+04  0.00000000000E+00 0.  1.
    9000005    2    1    2  501    0 -0.27758280195E+02 -0.18041448977E+02 -0.55455841812E+03  0.55563289908E+03  0.98419218356E+01 0.  0.
         13    1    3    3    0    0 -0.87464846935E+01 -0.67480787449E+00 -0.14838035683E+03  0.14863945187E+03  0.00000000000E+00 0.  1.
          3    1    3    3  501    0 -0.19011795502E+02 -0.17366641103E+02 -0.40617806129E+03  0.40699344721E+03  0.00000000000E+00 0.  1.
         21    1    1    2  502  501  0.27758280195E+02  0.18041448977E+02 -0.44428846969E+03  0.44552021312E+03  0.00000000000E+00 0.  1.
<mgrwt>
<rscale>  1 0.30000000E+03</rscale>
<asrwt>0</asrwt>
<pdfrwt beam="1">  1        1 0.41931441E-02 0.30000000E+03</pdfrwt>
<pdfrwt beam="2">0</pdfrwt>
<totfact> 0.25480315E+03</totfact>
</mgrwt>
</event>
<event>
 6    1  0.1956957E-002  0.3000000E+03  0.7818608E-02  0.1093470E+00
          1   -1    0    0  502    0  0.00000000000E+00  0.00000000000E+00  0.27804124475E+01  0.27804124475E+01  0.00000000000E+00 0.  1.
         13   -1    0    0    0    0 -0.00000000000E+00 -0.00000000000E+00 -0.10000000000E+04  0.10000000000E+04  0.00000000000E+00 0.  1.
    9000005    2    1    2  501    0  0.29443163219E+02  0.20239872264E+02 -0.86717908988E+03  0.86792091770E+03  0.32547135313E+01 0.  0.
         13    1    3    3    0    0  0.13379179936E+02  0.72470685687E+01 -0.36619241275E+03  0.36650839774E+03  0.00000000000E+00 0.  1.
          3    1    3    3  501    0  0.16063983284E+02  0.12992803695E+02 -0.50098667713E+03  0.50141251996E+03  0.00000000000E+00 0.  1.
         21    1    1    2  502  501 -0.29443163219E+02 -0.20239872264E+02 -0.13004049767E+03  0.13485949475E+03  0.00000000000E+00 0.  1.
<mgrwt>
<rscale>  1 0.30000000E+03</rscale>
<asrwt>0</asrwt>
<pdfrwt beam="1">  1        1 0.10110612E-01 0.30000000E+03</pdfrwt>
<pdfrwt beam="2">0</pdfrwt>
<totfact> 0.74435048E+02</totfact>
</mgrwt>
</event>
<event>
 6    1  0.1956957E-002  0.3000000E+03  0.7818608E-02  0.1093470E+00
          1   -1    0    0  502    0  0.00000000000E+00  0.00000000000E+00  0.19805412836E+01  0.19805412836E+01  0.00000000000E+00 0.  1.
         13   -1    0    0    0    0 -0.00000000000E+00 -0.00000000000E+00 -0.10000000000E+04  0.10000000000E+04  0.00000000000E+00 0.  1.
    9000005    2    1    2  501    0  0.41475672026E+02  0.87466365057E+01 -0.64995482762E+03  0.65134437310E+03  0.33881261504E+01 0.  0.
         13    1    3    3    0    0  0.18148988055E+02  0.21186146140E+01 -0.27728085583E+03  0.27788225439E+03  0.00000000000E+00 0.  1.
          1    1    3    3  501    0  0.23326683971E+02  0.66280218917E+01 -0.37267397179E+03  0.37346211871E+03  0.00000000000E+00 0.  1.
         21    1    1    2  502  501 -0.41475672026E+02 -0.87466365057E+01 -0.34806463109E+03  0.35063616818E+03  0.00000000000E+00 0.  1.
<mgrwt>
<rscale>  1 0.30000000E+03</rscale>
<asrwt>0</asrwt>
<pdfrwt beam="1">  1        1 0.72019835E-02 0.30000000E+03</pdfrwt>
<pdfrwt beam="2">0</pdfrwt>
<totfact> 0.11924408E+03</totfact>
</mgrwt>
</event>
<event>
 6    1  0.1956957E-002  0.3000000E+03  0.7818608E-02  0.1093470E+00
          1   -1    0    0  502    0  0.00000000000E+00  0.00000000000E+00  0.13895734568E+01  0.13895734568E+01  0.00000000000E+00 0.  1.
         13   -1    0    0    0    0 -0.00000000000E+00 -0.00000000000E+00 -0.10000000000E+04  0.10000000000E+04  0.00000000000E+00 0.  1.
    9000005    2    1    2  501    0  0.16894136268E+02  0.30093546588E+02 -0.68691535490E+03  0.68778974713E+03  0.33163339739E+01 0.  0.
         13    1    3    3    0    0  0.14841086464E+02  0.26521336283E+02 -0.62396896788E+03  0.62470866170E+03  0.00000000000E+00 0.  1.
          3    1    3    3  501    0  0.20530498038E+01  0.35722103049E+01 -0.62946387024E+02  0.63081085432E+02  0.00000000000E+00 0.  1.
         21    1    1    2  502  501 -0.16894136268E+02 -0.30093546588E+02 -0.31169507164E+03  0.31359982632E+03  0.00000000000E+00 0.  1.
<mgrwt>
<rscale>  1 0.30000000E+03</rscale>
<asrwt>0</asrwt>
<pdfrwt beam="1">  1        1 0.50530050E-02 0.30000000E+03</pdfrwt>
<pdfrwt beam="2">0</pdfrwt>
<totfact> 0.19598962E+03</totfact>
</mgrwt>
</event>
<event>
 6    1  0.1956957E-002  0.3000000E+03  0.7818608E-02  0.1093470E+00
          3   -1    0    0  502    0  0.00000000000E+00  0.00000000000E+00  0.34469664996E+01  0.34469664996E+01  0.00000000000E+00 0.  1.
         13   -1    0    0    0    0 -0.00000000000E+00 -0.00000000000E+00 -0.10000000000E+04  0.10000000000E+04  0.00000000000E+00 0.  1.
    9000005    2    1    2  501    0 -0.29674395315E+02  0.46757958603E+02 -0.66413327575E+03  0.66644582144E+03  0.31856747458E+01 0.  0.
         13    1    3    3    0    0 -0.29257646575E+02  0.45142601022E+02 -0.64600648412E+03  0.64824242520E+03  0.00000000000E+00 0.  1.
          3    1    3    3  501    0 -0.41674873998E+00  0.16153575812E+01 -0.18126791629E+02  0.18203396232E+02  0.00000000000E+00 0.  1.
         21    1    1    2  502  501  0.29674395315E+02 -0.46757958603E+02 -0.33241975775E+03  0.33700114506E+03  0.00000000000E+00 0.  1.
<mgrwt>
<rscale>  1 0.30000000E+03</rscale>
<asrwt>0</asrwt>
<pdfrwt beam="1">  1        3 0.12534450E-01 0.30000000E+03</pdfrwt>
<pdfrwt beam="2">0</pdfrwt>
<totfact> 0.22632595E+02</totfact>
</mgrwt>
</event>
<event>
 6    1  0.1956957E-002  0.3000000E+03  0.7818608E-02  0.1093470E+00
          1   -1    0    0  502    0  0.00000000000E+00  0.00000000000E+00  0.28196168733E+01  0.28196168733E+01  0.00000000000E+00 0.  1.
         13   -1    0    0    0    0 -0.00000000000E+00 -0.00000000000E+00 -0.10000000000E+04  0.10000000000E+04  0.00000000000E+00 0.  1.
    9000005    2    1    2  501    0  0.25873713406E+02  0.39857768517E+02 -0.72184434160E+03  0.72341305553E+03  0.30173926872E+01 0.  0.
         13    1    3    3    0    0  0.82749882487E+01  0.14815895992E+02 -0.27139582426E+03  0.27192587157E+03  0.00000000000E+00 0.  1.
          3    1    3    3  501    0  0.17598725158E+02  0.25041872526E+02 -0.45044851734E+03  0.45148718396E+03  0.00000000000E+00 0.  1.
         21    1    1    2  502  501 -0.25873713406E+02 -0.39857768517E+02 -0.27533604153E+03  0.27940656134E+03  0.00000000000E+00 0.  1.
<mgrwt>
<rscale>  1 0.30000000E+03</rscale>
<asrwt>0</asrwt>
<pdfrwt beam="1">  1        1 0.10253174E-01 0.30000000E+03</pdfrwt>
<pdfrwt beam="2">0</pdfrwt>
<totfact> 0.73011507E+02</totfact>
</mgrwt>
</event>
<event>
 6    1  0.1956957E-002  0.3000000E+03  0.7818608E-02  0.1093470E+00
          3   -1    0    0  502    0  0.00000000000E+00  0.00000000000E+00  0.49410174601E+01  0.49410174601E+01  0.00000000000E+00 0.  1.
         13   -1    0    0    0    0 -0.00000000000E+00 -0.00000000000E+00 -0.10000000000E+04  0.10000000000E+04  0.00000000000E+00 0.  1.
    9000005    2    1    2  501    0  0.33833437177E+02 -0.61293268276E+00 -0.93785164546E+03  0.93847481121E+03  0.49178474592E+01 0.  0.
         13    1    3    3    0    0  0.12263511831E+02  0.12183027391E+01 -0.29041589032E+03  0.29067725631E+03  0.00000000000E+00 0.  1.
          1    1    3    3  501    0  0.21569925346E+02 -0.18312354219E+01 -0.64743575514E+03  0.64779755490E+03  0.00000000000E+00 0.  1.
         21    1    1    2  502  501 -0.33833437177E+02  0.61293268276E+00 -0.57207337081E+02  0.66466206252E+02  0.00000000000E+00 0.  1.
<mgrwt>
<rscale>  1 0.30000000E+03</rscale>
<asrwt>0</asrwt>
<pdfrwt beam="1">  1        3 0.17967374E-01 0.30000000E+03</pdfrwt>
<pdfrwt beam="2">0</pdfrwt>
<totfact> 0.12120622E+02</totfact>
</mgrwt>
</event>
<event>
 6    1  0.1956957E-002  0.3000000E+03  0.7818608E-02  0.1093470E+00
          3   -1    0    0  502    0  0.00000000000E+00  0.00000000000E+00  0.40786101519E+01  0.40786101519E+01  0.00000000000E+00 0.  1.
         13   -1    0    0    0    0 -0.00000000000E+00 -0.00000000000E+00 -0.10000000000E+04  0.10000000000E+04  0.00000000000E+00 0.  1.
    9000005    2    1    2  501    0 -0.45106352024E+02 -0.39010569124E+02 -0.67660540332E+03  0.67924156369E+03  0.42216770861E+01 0.  0.
         13    1    3    3    0    0 -0.14212356271E+02 -0.14263773100E+02 -0.24343939741E+03  0.24427072380E+03  0.00000000000E+00 0.  1.
          1    1    3    3  501    0 -0.30893995752E+02 -0.24746796024E+02 -0.43316600590E+03  0.43497083989E+03  0.00000000000E+00 0.  1.
         21    1    1    2  502  501  0.45106352024E+02  0.39010569124E+02 -0.31931598653E+03  0.32483704646E+03  0.00000000000E+00 0.  1.
<mgrwt>
<rscale>  1 0.30000000E+03</rscale>
<asrwt>0</asrwt>
<pdfrwt beam="1">  1        3 0.14831341E-01 0.30000000E+03</pdfrwt>
<pdfrwt beam="2">0</pdfrwt>
<totfact> 0.16973331E+02</totfact>
</mgrwt>
</event>
<event>
 6    1  0.1956957E-002  0.3000000E+03  0.7818608E-02  0.1093470E+00
          1   -1    0    0  502    0  0.00000000000E+00  0.00000000000E+00  0.26229875905E+01  0.26229875905E+01  0.00000000000E+00 0.  1.
         13   -1    0    0    0    0 -0.00000000000E+00 -0.00000000000E+00 -0.10000000000E+04  0.10000000000E+04  0.00000000000E+00 0.  1.
    9000005    2    1    2  501    0  0.39578441596E+02  0.22053874609E+02 -0.73184169806E+03  0.73324995703E+03  0.32252204256E+01 0.  0.
         13    1    3    3    0    0  0.17823963987E+02  0.83454030245E+01 -0.33020730506E+03  0.33079329461E+03  0.00000000000E+00 0.  1.
          3    1    3    3  501    0  0.21754477609E+02  0.13708471585E+02 -0.40163439300E+03  0.40245666243E+03  0.00000000000E+00 0.  1.
         21    1    1    2  502  501 -0.39578441596E+02 -0.22053874609E+02 -0.26553531435E+03  0.26937303056E+03  0.00000000000E+00 0.  1.
<mgrwt>
<rscale>  1 0.30000000E+03</rscale>
<asrwt>0</asrwt>
<pdfrwt beam="1">  1        1 0.95381568E-02 0.30000000E+03</pdfrwt>
<pdfrwt beam="2">0</pdfrwt>
<totfact> 0.80678141E+02</totfact>
</mgrwt>
</event>
<event>
 6    1  0.1956957E-002  0.3000000E+03  0.7818608E-02  0.1093470E+00
          1   -1    0    0  502    0  0.00000000000E+00  0.00000000000E+00  0.12103505557E+01  0.12103505557E+01  0.00000000000E+00 0.  1.
         13   -1    0    0    0    0 -0.00000000000E+00 -0.00000000000E+00 -0.10000000000E+04  0.10000000000E+04  0.00000000000E+00 0.  1.
    9000005    2    1    2  501    0 -0.31545285911E+02  0.59124424831E+01 -0.69100870452E+03  0.69176056125E+03  0.30955366673E+01 0.  0.
         13    1    3    3    0    0 -0.25766688530E+02  0.58407954973E+01 -0.58027360729E+03  0.58087476830E+03  0.00000000000E+00 0.  1.
          3    1    3    3  501    0 -0.57785973802E+01  0.71646985884E-01 -0.11073509723E+03  0.11088579296E+03  0.00000000000E+00 0.  1.
         21    1    1    2  502  501  0.31545285911E+02 -0.59124424831E+01 -0.30778094493E+03  0.30944978930E+03  0.00000000000E+00 0.  1.
<mgrwt>
<rscale>  1 0.30000000E+03</rscale>
<asrwt>0</asrwt>
<pdfrwt beam="1">  1        1 0.44012840E-02 0.30000000E+03</pdfrwt>
<pdfrwt beam="2">0</pdfrwt>
<totfact> 0.23800411E+03</totfact>
</mgrwt>
</event>
<event>
 6    1  0.1956957E-002  0.3000000E+03  0.7818608E-02  0.1093470E+00
          1   -1    0    0  502    0  0.00000000000E+00  0.00000000000E+00  0.12242548963E+01  0.12242548963E+01  0.00000000000E+00 0.  1.
         13   -1    0    0    0    0 -0.00000000000E+00 -0.00000000000E+00 -0.10000000000E+04  0.10000000000E+04  0.00000000000E+00 0.  1.
    9000005    2    1    2  501    0  0.87341922482E+00 -0.33395237113E+02 -0.35526436071E+03  0.35684633273E+03  0.32456853939E+01 0.  0.
         13    1    3    3    0    0 -0.23448017000E+00 -0.95284251731E+01 -0.87223961482E+02  0.87743178218E+02  0.00000000000E+00 0.  1.
          1    1    3    3  501    0  0.11078993948E+01 -0.23866811940E+02 -0.26804039922E+03  0.26910315451E+03  0.00000000000E+00 0.  1.
         21    1    1    2  502  501 -0.87341922482E+00  0.33395237113E+02 -0.64351138440E+03  0.64437792216E+03  0.00000000000E+00 0.  1.
<mgrwt>
<rscale>  1 0.30000000E+03</rscale>
<asrwt>0</asrwt>
<pdfrwt beam="1">  1        1 0.44518454E-02 0.30000000E+03</pdfrwt>
<pdfrwt beam="2">0</pdfrwt>
<totfact> 0.23420810E+03</totfact>
</mgrwt>
</event>
<event>
 6    1  0.1956957E-002  0.3000000E+03  0.7818608E-02  0.1093470E+00
          1   -1    0    0  502    0  0.00000000000E+00  0.00000000000E+00  0.22457849484E+01  0.22457849484E+01  0.00000000000E+00 0.  1.
         13   -1    0    0    0    0 -0.00000000000E+00 -0.00000000000E+00 -0.10000000000E+04  0.10000000000E+04  0.00000000000E+00 0.  1.
    9000005    2    1    2  501    0 -0.70373806588E+01  0.42473314958E+02 -0.29154869530E+03  0.29472918208E+03  0.33379375466E+01 0.  0.
         13    1    3    3    0    0 -0.58966721614E+01  0.29725348179E+02 -0.21286279928E+03  0.21500915884E+03  0.00000000000E+00 0.  1.
          1    1    3    3  501    0 -0.11407084974E+01  0.12747966779E+02 -0.78685896022E+02  0.79720023242E+02  0.00000000000E+00 0.  1.
         21    1    1    2  502  501  0.70373806588E+01 -0.42473314958E+02 -0.70620551975E+03  0.70751660287E+03  0.00000000000E+00 0.  1.
<mgrwt>
<rscale>  1 0.30000000E+03</rscale>
<asrwt>0</asrwt>
<pdfrwt beam="1">  1        1 0.81665079E-02 0.30000000E+03</pdfrwt>
<pdfrwt beam="2">0</pdfrwt>
<totfact> 0.10007340E+03</totfact>
</mgrwt>
</event>
<event>
 6    1  0.1956957E-002  0.3000000E+03  0.7818608E-02  0.1093470E+00
          3   -1    0    0  502    0  0.00000000000E+00  0.00000000000E+00  0.45317576197E+01  0.45317576197E+01  0.00000000000E+00 0.  1.
         13   -1    0    0    0    0 -0.00000000000E+00 -0.00000000000E+00 -0.10000000000E+04  0.10000000000E+04  0.00000000000E+00 0.  1.
    9000005    2    1    2  501    0  0.30601735590E+02 -0.23639874540E+02 -0.90880156502E+03  0.90962958244E+03  0.32222313488E+01 0.  0.
         13    1    3    3    0    0  0.19372857552E+02 -0.16677196079E+02 -0.61543660380E+03  0.61596724732E+03  0.00000000000E+00 0.  1.
          1    1    3    3  501    0  0.11228878038E+02 -0.69626784611E+01 -0.29336496123E+03  0.29366233512E+03  0.00000000000E+00 0.  1.
         21    1    1    2  502  501 -0.30601735590E+02  0.23639874540E+02 -0.86666677356E+02  0.94902175177E+02  0.00000000000E+00 0.  1.
<mgrwt>
<rscale>  1 0.30000000E+03</rscale>
<asrwt>0</asrwt>
<pdfrwt beam="1">  1        3 0.16479153E-01 0.30000000E+03</pdfrwt>
<pdfrwt beam="2">0</pdfrwt>
<totfact> 0.14124536E+02</totfact>
</mgrwt>
</event>
<event>
 6    1  0.1956957E-002  0.3000000E+03  0.7818608E-02  0.1093470E+00
          1   -1    0    0  502    0  0.00000000000E+00  0.00000000000E+00  0.93275085077E+00  0.93275085077E+00  0.00000000000E+00 0.  1.
         13   -1    0    0    0    0 -0.00000000000E+00 -0.00000000000E+00 -0.10000000000E+04  0.10000000000E+04  0.00000000000E+00 0.  1.
    9000005    2    1    2  501    0  0.17604189478E+02 -0.24558527361E+02 -0.56191254810E+03  0.56273500850E+03  0.34567794394E+01 0.  0.
         13    1    3    3    0    0  0.76668108240E+01 -0.93350156407E+01 -0.19720635475E+03  0.19757598249E+03  0.00000000000E+00 0.  1.
          1    1    3    3  501    0  0.99373786540E+01 -0.15223511720E+02 -0.36470619335E+03  0.36515902600E+03  0.00000000000E+00 0.  1.
         21    1    1    2  502  501 -0.17604189478E+02  0.24558527361E+02 -0.43715470105E+03  0.43819774235E+03  0.00000000000E+00 0.  1.
<mgrwt>
<rscale>  1 0.30000000E+03</rscale>
<asrwt>0</asrwt>
<pdfrwt beam="1">  1        1 0.33918284E-02 0.30000000E+03</pdfrwt>
<pdfrwt beam="2">0</pdfrwt>
<totfact> 0.34341921E+03</totfact>
</mgrwt>
</event>
<event>
 6    1  0.1956957E-002  0.3000000E+03  0.7818608E-02  0.1093470E+00
          1   -1    0    0  502    0  0.00000000000E+00  0.00000000000E+00  0.15237723823E+01  0.15237723823E+01  0.00000000000E+00 0.  1.
         13   -1    0    0    0    0 -0.00000000000E+00 -0.00000000000E+00 -0.10000000000E+04  0.10000000000E+04  0.00000000000E+00 0.  1.
    9000005    2    1    2  501    0  0.21908522074E+02  0.25125647854E+02 -0.75829411809E+03  0.75903928369E+03  0.44026280779E+01 0.  0.
         13    1    3    3    0    0  0.20915418081E+02  0.25040947989E+02 -0.73440119011E+03  0.73512557555E+03  0.00000000000E+00 0.  1.
          3    1    3    3  501    0  0.99310399364E+00  0.84699864630E-01 -0.23892927980E+02  0.23913708142E+02  0.00000000000E+00 0.  1.
         21    1    1    2  502  501 -0.21908522074E+02 -0.25125647854E+02 -0.24018210953E+03  0.24248448869E+03  0.00000000000E+00 0.  1.
<mgrwt>
<rscale>  1 0.30000000E+03</rscale>
<asrwt>0</asrwt>
<pdfrwt beam="1">  1        1 0.55410022E-02 0.30000000E+03</pdfrwt>
<pdfrwt beam="2">0</pdfrwt>
<totfact> 0.17218279E+03</totfact>
</mgrwt>
</event>
<event>
 6    1  0.1956957E-002  0.3000000E+03  0.7818608E-02  0.1093470E+00
          1   -1    0    0  502    0  0.00000000000E+00  0.00000000000E+00  0.29036761084E+01  0.29036761084E+01  0.00000000000E+00 0.  1.
         13   -1    0    0    0    0 -0.00000000000E+00 -0.00000000000E+00 -0.10000000000E+04  0.10000000000E+04  0.00000000000E+00 0.  1.
    9000005    2    1    2  501    0 -0.48249321474E+02 -0.19163540304E+02 -0.36706191884E+03  0.37073392846E+03  0.37356586294E+01 0.  0.
         13    1    3    3    0    0 -0.30607582738E+02 -0.10239006127E+02 -0.22998157972E+03  0.23223520056E+03  0.00000000000E+00 0.  1.
          3    1    3    3  501    0 -0.17641738736E+02 -0.89245341763E+01 -0.13708033912E+03  0.13849872789E+03  0.00000000000E+00 0.  1.
         21    1    1    2  502  501  0.48249321474E+02  0.19163540304E+02 -0.63003440505E+03  0.63216974765E+03  0.00000000000E+00 0.  1.
<mgrwt>
<rscale>  1 0.30000000E+03</rscale>
<asrwt>0</asrwt>
<pdfrwt beam="1">  1        1 0.10558844E-01 0.30000000E+03</pdfrwt>
<pdfrwt beam="2">0</pdfrwt>
<totfact> 0.70115733E+02</totfact>
</mgrwt>
</event>
<event>
 6    1  0.1956957E-002  0.3000000E+03  0.7818608E-02  0.1093470E+00
          1   -1    0    0  502    0  0.00000000000E+00  0.00000000000E+00  0.17485118427E+01  0.17485118427E+01  0.00000000000E+00 0.  1.
         13   -1    0    0    0    0 -0.00000000000E+00 -0.00000000000E+00 -0.10000000000E+04  0.10000000000E+04  0.00000000000E+00 0.  1.
    9000005    2    1    2  501    0  0.30409615771E+02 -0.11695677582E+02 -0.81264224611E+03  0.81330137247E+03  0.31888381145E+01 0.  0.
         13    1    3    3    0    0  0.29189838797E+01 -0.11488346246E+01 -0.57784740494E+02  0.57869823932E+02  0.00000000000E+00 0.  1.
          3    1    3    3  501    0  0.27490631892E+02 -0.10546842957E+02 -0.75485750562E+03  0.75543154854E+03  0.00000000000E+00 0.  1.
         21    1    1    2  502  501 -0.30409615771E+02  0.11695677582E+02 -0.18560924204E+03  0.18844713937E+03  0.00000000000E+00 0.  1.
<mgrwt>
<rscale>  1 0.30000000E+03</rscale>
<asrwt>0</asrwt>
<pdfrwt beam="1">  1        1 0.63582383E-02 0.30000000E+03</pdfrwt>
<pdfrwt beam="2">0</pdfrwt>
<totfact> 0.14195966E+03</totfact>
</mgrwt>
</event>
<event>
 6    1  0.1956957E-002  0.3000000E+03  0.7818608E-02  0.1093470E+00
          1   -1    0    0  502    0  0.00000000000E+00  0.00000000000E+00  0.33478018548E+01  0.33478018548E+01  0.00000000000E+00 0.  1.
         13   -1    0    0    0    0 -0.00000000000E+00 -0.00000000000E+00 -0.10000000000E+04  0.10000000000E+04  0.00000000000E+00 0.  1.
    9000005    2    1    2  501    0 -0.27827276710E+02  0.48143168980E+02 -0.63578819076E+03  0.63822459816E+03  0.34484983943E+01 0.  0.
         13    1    3    3    0    0 -0.99501738687E+01  0.20430546536E+02 -0.25331734812E+03  0.25433460648E+03  0.00000000000E+00 0.  1.
          1    1    3    3  501    0 -0.17877102841E+02  0.27712622444E+02 -0.38247084263E+03  0.38388999168E+03  0.00000000000E+00 0.  1.
         21    1    1    2  502  501  0.27827276710E+02 -0.48143168980E+02 -0.36086400739E+03  0.36512320369E+03  0.00000000000E+00 0.  1.
<mgrwt>
<rscale>  1 0.30000000E+03</rscale>
<asrwt>0</asrwt>
<pdfrwt beam="1">  1        1 0.12173851E-01 0.30000000E+03</pdfrwt>
<pdfrwt beam="2">0</pdfrwt>
<totfact> 0.57669081E+02</totfact>
</mgrwt>
</event>
<event>
 6    1  0.1956957E-002  0.3000000E+03  0.7818608E-02  0.1093470E+00
          1   -1    0    0  502    0  0.00000000000E+00  0.00000000000E+00  0.93550360214E+01  0.93550360214E+01  0.00000000000E+00 0.  1.
         13   -1    0    0    0    0 -0.00000000000E+00 -0.00000000000E+00 -0.10000000000E+04  0.10000000000E+04  0.00000000000E+00 0.  1.
    9000005    2    1    2  501    0  0.40537516292E+02 -0.73644625261E+02 -0.74478389160E+03  0.74951953428E+03  0.31090215186E+01 0.  0.
         13    1    3    3    0    0  0.10709903458E+02 -0.16794995976E+02 -0.17358093504E+03  0.17472010454E+03  0.00000000000E+00 0.  1.
          1    1    3    3  501    0  0.29827612834E+02 -0.56849629286E+02 -0.57120295657E+03  0.57479942974E+03  0.00000000000E+00 0.  1.
         21    1    1    2  502  501 -0.40537516292E+02  0.73644625261E+02 -0.24586107237E+03  0.25983550174E+03  0.00000000000E+00 0.  1.
<mgrwt>
<rscale>  1 0.30000000E+03</rscale>
<asrwt>0</asrwt>
<pdfrwt beam="1">  1        1 0.34018385E-01 0.30000000E+03</pdfrwt>
<pdfrwt beam="2">0</pdfrwt>
<totfact> 0.14605525E+02</totfact>
</mgrwt>
</event>
<event>
 6    1  0.1956957E-002  0.3000000E+03  0.7818608E-02  0.1093470E+00
          3   -1    0    0  502    0  0.00000000000E+00  0.00000000000E+00  0.11464868094E+01  0.11464868094E+01  0.00000000000E+00 0.  1.
         13   -1    0    0    0    0 -0.00000000000E+00 -0.00000000000E+00 -0.10000000000E+04  0.10000000000E+04  0.00000000000E+00 0.  1.
    9000005    2    1    2  501    0 -0.43656552124E+01  0.30623951777E+02 -0.69373799302E+03  0.69446690480E+03  0.74157633145E+01 0.  0.
         13    1    3    3    0    0 -0.42820773891E+00  0.31844820973E+01 -0.35389403203E+02  0.35534970764E+02  0.00000000000E+00 0.  1.
          1    1    3    3  501    0 -0.39374474735E+01  0.27439469680E+02 -0.65834858981E+03  0.65893193404E+03  0.00000000000E+00 0.  1.
         21    1    1    2  502  501  0.43656552124E+01 -0.30623951777E+02 -0.30511552017E+03  0.30667958200E+03  0.00000000000E+00 0.  1.
<mgrwt>
<rscale>  1 0.30000000E+03</rscale>
<asrwt>0</asrwt>
<pdfrwt beam="1">  1        3 0.41690517E-02 0.30000000E+03</pdfrwt>
<pdfrwt beam="2">0</pdfrwt>
<totfact> 0.13093073E+03</totfact>
</mgrwt>
</event>
<event>
 6    1  0.1956957E-002  0.3000000E+03  0.7818608E-02  0.1093470E+00
          1   -1    0    0  502    0  0.00000000000E+00  0.00000000000E+00  0.11488974611E+02  0.11488974611E+02  0.00000000000E+00 0.  1.
         13   -1    0    0    0    0 -0.00000000000E+00 -0.00000000000E+00 -0.10000000000E+04  0.10000000000E+04  0.00000000000E+00 0.  1.
    9000005    2    1    2  501    0  0.33565080775E+02  0.84492946220E+02 -0.76195812344E+03  0.76737447281E+03  0.42103486180E+01 0.  0.
         13    1    3    3    0    0  0.30468406677E+02  0.79065844100E+02 -0.71450892736E+03  0.71951562790E+03  0.00000000000E+00 0.  1.
          1    1    3    3  501    0  0.30966740984E+01  0.54271021203E+01 -0.47449196076E+02  0.47858844911E+02  0.00000000000E+00 0.  1.
         21    1    1    2  502  501 -0.33565080775E+02 -0.84492946220E+02 -0.22655290195E+03  0.24411450181E+03  0.00000000000E+00 0.  1.
<mgrwt>
<rscale>  1 0.30000000E+03</rscale>
<asrwt>0</asrwt>
<pdfrwt beam="1">  1        1 0.41778178E-01 0.30000000E+03</pdfrwt>
<pdfrwt beam="2">0</pdfrwt>
<totfact> 0.11166975E+02</totfact>
</mgrwt>
</event>
<event>
 6    1  0.1956957E-002  0.3000000E+03  0.7818608E-02  0.1093470E+00
          3   -1    0    0  502    0  0.00000000000E+00  0.00000000000E+00  0.13927331716E+01  0.13927331716E+01  0.00000000000E+00 0.  1.
         13   -1    0    0    0    0 -0.00000000000E+00 -0.00000000000E+00 -0.10000000000E+04  0.10000000000E+04  0.00000000000E+00 0.  1.
    9000005    2    1    2  501    0 -0.32714175720E+02  0.16137957492E+02 -0.60088190847E+03  0.60199805162E+03  0.34547460915E+01 0.  0.
         13    1    3    3    0    0 -0.26968825148E+02  0.14074226639E+02 -0.48127071895E+03  0.48223117517E+03  0.00000000000E+00 0.  1.
          3    1    3    3  501    0 -0.57453505727E+01  0.20637308535E+01 -0.11961118951E+03  0.11976687645E+03  0.00000000000E+00 0.  1.
         21    1    1    2  502  501  0.32714175720E+02 -0.16137957492E+02 -0.39772535836E+03  0.39939468155E+03  0.00000000000E+00 0.  1.
<mgrwt>
<rscale>  1 0.30000000E+03</rscale>
<asrwt>0</asrwt>
<pdfrwt beam="1">  1        3 0.50644949E-02 0.30000000E+03</pdfrwt>
<pdfrwt beam="2">0</pdfrwt>
<totfact> 0.97000887E+02</totfact>
</mgrwt>
</event>
<event>
 6    1  0.1956957E-002  0.3000000E+03  0.7818608E-02  0.1093470E+00
          1   -1    0    0  502    0  0.00000000000E+00  0.00000000000E+00  0.36237057308E+01  0.36237057308E+01  0.00000000000E+00 0.  1.
         13   -1    0    0    0    0 -0.00000000000E+00 -0.00000000000E+00 -0.10000000000E+04  0.10000000000E+04  0.00000000000E+00 0.  1.
    9000005    2    1    2  501    0 -0.19775494562E+02  0.40929276373E+02 -0.82679085987E+03  0.82805179622E+03  0.45139124769E+01 0.  0.
         13    1    3    3    0    0 -0.13720734603E+02  0.27854199488E+02 -0.60112707892E+03  0.60192846751E+03  0.00000000000E+00 0.  1.
          1    1    3    3  501    0 -0.60547599594E+01  0.13075076885E+02 -0.22566378095E+03  0.22612332871E+03  0.00000000000E+00 0.  1.
         21    1    1    2  502  501  0.19775494562E+02 -0.40929276373E+02 -0.16958543440E+03  0.17557190951E+03  0.00000000000E+00 0.  1.
<mgrwt>
<rscale>  1 0.30000000E+03</rscale>
<asrwt>0</asrwt>
<pdfrwt beam="1">  1        1 0.13177140E-01 0.30000000E+03</pdfrwt>
<pdfrwt beam="2">0</pdfrwt>
<totfact> 0.51748264E+02</totfact>
</mgrwt>
</event>
<event>
 6    1  0.1956957E-002  0.3000000E+03  0.7818608E-02  0.1093470E+00
          1   -1    0    0  502    0  0.00000000000E+00  0.00000000000E+00  0.12471838631E+01  0.12471838631E+01  0.00000000000E+00 0.  1.
         13   -1    0    0    0    0 -0.00000000000E+00 -0.00000000000E+00 -0.10000000000E+04  0.10000000000E+04  0.00000000000E+00 0.  1.
    9000005    2    1    2  501    0 -0.15602888207E+02  0.27356984926E+02 -0.72340949186E+03  0.72410858863E+03  0.44833545711E+01 0.  0.
         13    1    3    3    0    0 -0.60698063229E+01  0.14208043124E+02 -0.32135935419E+03  0.32173054807E+03  0.00000000000E+00 0.  1.
          1    1    3    3  501    0 -0.95330818837E+01  0.13148941802E+02 -0.40205013767E+03  0.40237804055E+03  0.00000000000E+00 0.  1.
         21    1    1    2  502  501  0.15602888207E+02 -0.27356984926E+02 -0.27534332428E+03  0.27713859523E+03  0.00000000000E+00 0.  1.
<mgrwt>
<rscale>  1 0.30000000E+03</rscale>
<asrwt>0</asrwt>
<pdfrwt beam="1">  1        1 0.45352236E-02 0.30000000E+03</pdfrwt>
<pdfrwt beam="2">0</pdfrwt>
<totfact> 0.22817092E+03</totfact>
</mgrwt>
</event>
<event>
 6    1  0.1956957E-002  0.3000000E+03  0.7818608E-02  0.1093470E+00
          1   -1    0    0  502    0  0.00000000000E+00  0.00000000000E+00  0.17184323720E+01  0.17184323720E+01  0.00000000000E+00 0.  1.
         13   -1    0    0    0    0 -0.00000000000E+00 -0.00000000000E+00 -0.10000000000E+04  0.10000000000E+04  0.00000000000E+00 0.  1.
    9000005    2    1    2  501    0 -0.37155817310E+02  0.48907188609E+01 -0.71211525835E+03  0.71310860846E+03  0.33574392519E+01 0.  0.
         13    1    3    3    0    0 -0.25793866704E+02  0.49400440382E+01 -0.49396051983E+03  0.49465818779E+03  0.00000000000E+00 0.  1.
          3    1    3    3  501    0 -0.11361950605E+02 -0.49325177284E-01 -0.21815473851E+03  0.21845042067E+03  0.00000000000E+00 0.  1.
         21    1    1    2  502  501  0.37155817310E+02 -0.48907188609E+01 -0.28616630928E+03  0.28860982391E+03  0.00000000000E+00 0.  1.
<mgrwt>
<rscale>  1 0.30000000E+03</rscale>
<asrwt>0</asrwt>
<pdfrwt beam="1">  1        1 0.62488582E-02 0.30000000E+03</pdfrwt>
<pdfrwt beam="2">0</pdfrwt>
<totfact> 0.14545447E+03</totfact>
</mgrwt>
</event>
<event>
 6    1  0.1956957E-002  0.3000000E+03  0.7818608E-02  0.1093470E+00
          3   -1    0    0  502    0  0.00000000000E+00  0.00000000000E+00  0.13504476689E+01  0.13504476689E+01  0.00000000000E+00 0.  1.
         13   -1    0    0    0    0 -0.00000000000E+00 -0.00000000000E+00 -0.10000000000E+04  0.10000000000E+04  0.00000000000E+00 0.  1.
    9000005    2    1    2  501    0  0.36484460336E+02  0.21384011570E+00 -0.55157005363E+03  0.55278468914E+03  0.31979529417E+01 0.  0.
         13    1    3    3    0    0  0.15237153565E+02  0.10189195366E+01 -0.25001648999E+03  0.25048244312E+03  0.00000000000E+00 0.  1.
          3    1    3    3  501    0  0.21247306771E+02 -0.80507942087E+00 -0.30155356365E+03  0.30230224602E+03  0.00000000000E+00 0.  1.
         21    1    1    2  502  501 -0.36484460336E+02 -0.21384011570E+00 -0.44707949870E+03  0.44856575853E+03  0.00000000000E+00 0.  1.
<mgrwt>
<rscale>  1 0.30000000E+03</rscale>
<asrwt>0</asrwt>
<pdfrwt beam="1">  1        3 0.49107292E-02 0.30000000E+03</pdfrwt>
<pdfrwt beam="2">0</pdfrwt>
<totfact> 0.10172926E+03</totfact>
</mgrwt>
</event>
<event>
 6    1  0.1956957E-002  0.3000000E+03  0.7818608E-02  0.1093470E+00
          1   -1    0    0  502    0  0.00000000000E+00  0.00000000000E+00  0.13697504637E+01  0.13697504637E+01  0.00000000000E+00 0.  1.
         13   -1    0    0    0    0 -0.00000000000E+00 -0.00000000000E+00 -0.10000000000E+04  0.10000000000E+04  0.00000000000E+00 0.  1.
    9000005    2    1    2  501    0 -0.23562733402E+02 -0.25606966688E+02 -0.66820596431E+03  0.66911814788E+03  0.29943183252E+01 0.  0.
         13    1    3    3    0    0 -0.22993113672E+02 -0.25230218619E+02 -0.66067780785E+03  0.66155907748E+03  0.00000000000E+00 0.  1.
          1    1    3    3  501    0 -0.56961973006E+00 -0.37674806922E+00 -0.75281564546E+01  0.75590704025E+01  0.00000000000E+00 0.  1.
         21    1    1    2  502  501  0.23562733402E+02  0.25606966688E+02 -0.33042428523E+03  0.33225160258E+03  0.00000000000E+00 0.  1.
<mgrwt>
<rscale>  1 0.30000000E+03</rscale>
<asrwt>0</asrwt>
<pdfrwt beam="1">  1        1 0.49809213E-02 0.30000000E+03</pdfrwt>
<pdfrwt beam="2">0</pdfrwt>
<totfact> 0.19998781E+03</totfact>
</mgrwt>
</event>
<event>
 6    1  0.1956957E-002  0.3000000E+03  0.7818608E-02  0.1093470E+00
          3   -1    0    0  502    0  0.00000000000E+00  0.00000000000E+00  0.58520779882E+01  0.58520779882E+01  0.00000000000E+00 0.  1.
         13   -1    0    0    0    0 -0.00000000000E+00 -0.00000000000E+00 -0.10000000000E+04  0.10000000000E+04  0.00000000000E+00 0.  1.
    9000005    2    1    2  501    0  0.18044122477E+02 -0.32961219908E+02 -0.93511448573E+03  0.93587366008E+03  0.28937577227E+01 0.  0.
         13    1    3    3    0    0  0.11956759133E+02 -0.20327281647E+02 -0.61558506788E+03  0.61603663711E+03  0.00000000000E+00 0.  1.
          3    1    3    3  501    0  0.60873633440E+01 -0.12633938262E+02 -0.31952941785E+03  0.31983702297E+03  0.00000000000E+00 0.  1.
         21    1    1    2  502  501 -0.18044122477E+02  0.32961219908E+02 -0.59033436281E+02  0.69978417908E+02  0.00000000000E+00 0.  1.
<mgrwt>
<rscale>  1 0.30000000E+03</rscale>
<asrwt>0</asrwt>
<pdfrwt beam="1">  1        3 0.21280328E-01 0.30000000E+03</pdfrwt>
<pdfrwt beam="2">0</pdfrwt>
<totfact> 0.89212632E+01</totfact>
</mgrwt>
</event>
<event>
 6    1  0.1956957E-002  0.3000000E+03  0.7818608E-02  0.1093470E+00
          1   -1    0    0  502    0  0.00000000000E+00  0.00000000000E+00  0.42544623681E+01  0.42544623681E+01  0.00000000000E+00 0.  1.
         13   -1    0    0    0    0 -0.00000000000E+00 -0.00000000000E+00 -0.10000000000E+04  0.10000000000E+04  0.00000000000E+00 0.  1.
    9000005    2    1    2  501    0 -0.59673645673E+02 -0.16298988214E+02 -0.65619849451E+03  0.65911855364E+03  0.37686261313E+01 0.  0.
         13    1    3    3    0    0 -0.22267294016E+02 -0.76830574338E+01 -0.23919990589E+03  0.24035693610E+03  0.00000000000E+00 0.  1.
          1    1    3    3  501    0 -0.37406351658E+02 -0.86159307799E+01 -0.41699858862E+03  0.41876161754E+03  0.00000000000E+00 0.  1.
         21    1    1    2  502  501  0.59673645673E+02  0.16298988214E+02 -0.33954704312E+03  0.34513590873E+03  0.00000000000E+00 0.  1.
<mgrwt>
<rscale>  1 0.30000000E+03</rscale>
<asrwt>0</asrwt>
<pdfrwt beam="1">  1        1 0.15470805E-01 0.30000000E+03</pdfrwt>
<pdfrwt beam="2">0</pdfrwt>
<totfact> 0.41599260E+02</totfact>
</mgrwt>
</event>
<event>
 6    1  0.1956957E-002  0.3000000E+03  0.7818608E-02  0.1093470E+00
          1   -1    0    0  502    0  0.00000000000E+00  0.00000000000E+00  0.18023190302E+01  0.18023190302E+01  0.00000000000E+00 0.  1.
         13   -1    0    0    0    0 -0.00000000000E+00 -0.00000000000E+00 -0.10000000000E+04  0.10000000000E+04  0.00000000000E+00 0.  1.
    9000005    2    1    2  501    0 -0.26691372190E+01  0.37049623532E+02 -0.74089054421E+03  0.74182777888E+03  0.31394465961E+01 0.  0.
         13    1    3    3    0    0  0.31894787591E+00  0.33624943583E+01 -0.54478799441E+02  0.54583401182E+02  0.00000000000E+00 0.  1.
          1    1    3    3  501    0 -0.29880850950E+01  0.33687129174E+02 -0.68641174477E+03  0.68724437770E+03  0.00000000000E+00 0.  1.
         21    1    1    2  502  501  0.26691372190E+01 -0.37049623532E+02 -0.25730713676E+03  0.25997454015E+03  0.00000000000E+00 0.  1.
<mgrwt>
<rscale>  1 0.30000000E+03</rscale>
<asrwt>0</asrwt>
<pdfrwt beam="1">  1        1 0.65539012E-02 0.30000000E+03</pdfrwt>
<pdfrwt beam="2">0</pdfrwt>
<totfact> 0.13605843E+03</totfact>
</mgrwt>
</event>
<event>
 6    1  0.1956957E-002  0.3000000E+03  0.7818608E-02  0.1093470E+00
          1   -1    0    0  502    0  0.00000000000E+00  0.00000000000E+00  0.57254384878E+01  0.57254384878E+01  0.00000000000E+00 0.  1.
         13   -1    0    0    0    0 -0.00000000000E+00 -0.00000000000E+00 -0.10000000000E+04  0.10000000000E+04  0.00000000000E+00 0.  1.
    9000005    2    1    2  501    0  0.63777745498E+02 -0.16224929585E+02 -0.74487607512E+03  0.74779045797E+03  0.43991569013E+01 0.  0.
         13    1    3    3    0    0  0.14727400489E+02 -0.50551748561E+01 -0.19209929877E+03  0.19272932239E+03  0.00000000000E+00 0.  1.
          1    1    3    3  501    0  0.49050345009E+02 -0.11169754729E+02 -0.55277677635E+03  0.55506113558E+03  0.00000000000E+00 0.  1.
         21    1    1    2  502  501 -0.63777745498E+02  0.16224929585E+02 -0.24939848639E+03  0.25793498052E+03  0.00000000000E+00 0.  1.
<mgrwt>
<rscale>  1 0.30000000E+03</rscale>
<asrwt>0</asrwt>
<pdfrwt beam="1">  1        1 0.20819820E-01 0.30000000E+03</pdfrwt>
<pdfrwt beam="2">0</pdfrwt>
<totfact> 0.27903945E+02</totfact>
</mgrwt>
</event>
<event>
 6    1  0.1956957E-002  0.3000000E+03  0.7818608E-02  0.1093470E+00
          1   -1    0    0  502    0  0.00000000000E+00  0.00000000000E+00  0.85539323881E+01  0.85539323881E+01  0.00000000000E+00 0.  1.
         13   -1    0    0    0    0 -0.00000000000E+00 -0.00000000000E+00 -0.10000000000E+04  0.10000000000E+04  0.00000000000E+00 0.  1.
    9000005    2    1    2  501    0  0.85396696136E+02 -0.34345287045E+01 -0.30445288749E+03  0.31626496004E+03  0.52509571374E+01 0.  0.
         13    1    3    3    0    0  0.17907475318E+02  0.10495998144E+01 -0.68351701880E+02  0.70666360327E+02  0.00000000000E+00 0.  1.
          3    1    3    3  501    0  0.67489220818E+02 -0.44841285189E+01 -0.23610118561E+03  0.24559859971E+03  0.00000000000E+00 0.  1.
         21    1    1    2  502  501 -0.85396696136E+02  0.34345287045E+01 -0.68699318012E+03  0.69228897235E+03  0.00000000000E+00 0.  1.
<mgrwt>
<rscale>  1 0.30000000E+03</rscale>
<asrwt>0</asrwt>
<pdfrwt beam="1">  1        1 0.31105274E-01 0.30000000E+03</pdfrwt>
<pdfrwt beam="2">0</pdfrwt>
<totfact> 0.16423590E+02</totfact>
</mgrwt>
</event>
<event>
 6    1  0.1956957E-002  0.3000000E+03  0.7818608E-02  0.1093470E+00
          1   -1    0    0  502    0  0.00000000000E+00  0.00000000000E+00  0.39064883013E+02  0.39064883013E+02  0.00000000000E+00 0.  1.
         13   -1    0    0    0    0 -0.00000000000E+00 -0.00000000000E+00 -0.10000000000E+04  0.10000000000E+04  0.00000000000E+00 0.  1.
    9000005    2    1    2  501    0 -0.37230713636E+02  0.78397102247E+02 -0.94722740784E+03  0.95120059579E+03  0.32526298206E+01 0.  0.
         13    1    3    3    0    0 -0.24994544986E+02  0.50144748348E+02 -0.59879749168E+03  0.60141305200E+03  0.00000000000E+00 0.  1.
          3    1    3    3  501    0 -0.12236168650E+02  0.28252353900E+02 -0.34842991616E+03  0.34978754380E+03  0.00000000000E+00 0.  1.
         21    1    1    2  502  501  0.37230713636E+02 -0.78397102247E+02 -0.13707709150E+02  0.87864287220E+02  0.00000000000E+00 0.  1.
<mgrwt>
<rscale>  1 0.30000000E+03</rscale>
<asrwt>0</asrwt>
<pdfrwt beam="1">  1        1 0.14205442E+00 0.30000000E+03</pdfrwt>
<pdfrwt beam="2">0</pdfrwt>
<totfact> 0.19738188E+01</totfact>
</mgrwt>
</event>
<event>
 6    1  0.1956957E-002  0.3000000E+03  0.7818608E-02  0.1093470E+00
          1   -1    0    0  502    0  0.00000000000E+00  0.00000000000E+00  0.18111589343E+02  0.18111589343E+02  0.00000000000E+00 0.  1.
         13   -1    0    0    0    0 -0.00000000000E+00 -0.00000000000E+00 -0.10000000000E+04  0.10000000000E+04  0.00000000000E+00 0.  1.
    9000005    2    1    2  501    0 -0.50661505544E+02 -0.57592596181E+02 -0.90918704258E+03  0.91242817438E+03  0.45386910938E+01 0.  0.
         13    1    3    3    0    0 -0.50395927681E+02 -0.57360406457E+02 -0.90739061940E+03  0.91059744231E+03  0.00000000000E+00 0.  1.
          3    1    3    3  501    0 -0.26557786289E+00 -0.23218972430E+00 -0.17964231827E+01  0.18307320724E+01  0.00000000000E+00 0.  1.
         21    1    1    2  502  501  0.50661505544E+02  0.57592596181E+02 -0.72701368073E+02  0.10568341496E+03  0.00000000000E+00 0.  1.
<mgrwt>
<rscale>  1 0.30000000E+03</rscale>
<asrwt>0</asrwt>
<pdfrwt beam="1">  1        1 0.65860464E-01 0.30000000E+03</pdfrwt>
<pdfrwt beam="2">0</pdfrwt>
<totfact> 0.61224029E+01</totfact>
</mgrwt>
</event>
<event>
 6    1  0.1956957E-002  0.3000000E+03  0.7818608E-02  0.1093470E+00
          1   -1    0    0  502    0  0.00000000000E+00  0.00000000000E+00  0.14644528532E+02  0.14644528532E+02  0.00000000000E+00 0.  1.
         13   -1    0    0    0    0 -0.00000000000E+00 -0.00000000000E+00 -0.10000000000E+04  0.10000000000E+04  0.00000000000E+00 0.  1.
    9000005    2    1    2  501    0  0.24619301289E+02  0.24198819724E+02 -0.97891553762E+03  0.97952807057E+03  0.28139602082E+01 0.  0.
         13    1    3    3    0    0  0.69006812330E+01  0.77382230551E+01 -0.32564854080E+03  0.32581355347E+03  0.00000000000E+00 0.  1.
          1    1    3    3  501    0  0.17718620056E+02  0.16460596669E+02 -0.65326699681E+03  0.65371451710E+03  0.00000000000E+00 0.  1.
         21    1    1    2  502  501 -0.24619301289E+02 -0.24198819724E+02 -0.64399338526E+01  0.35116457966E+02  0.00000000000E+00 0.  1.
<mgrwt>
<rscale>  1 0.30000000E+03</rscale>
<asrwt>0</asrwt>
<pdfrwt beam="1">  1        1 0.53252943E-01 0.30000000E+03</pdfrwt>
<pdfrwt beam="2">0</pdfrwt>
<totfact> 0.81218574E+01</totfact>
</mgrwt>
</event>
<event>
 6    1  0.1956957E-002  0.3000000E+03  0.7818608E-02  0.1093470E+00
          1   -1    0    0  502    0  0.00000000000E+00  0.00000000000E+00  0.56730123204E+01  0.56730123204E+01  0.00000000000E+00 0.  1.
         13   -1    0    0    0    0 -0.00000000000E+00 -0.00000000000E+00 -0.10000000000E+04  0.10000000000E+04  0.00000000000E+00 0.  1.
    9000005    2    1    2  501    0  0.92110264129E+01 -0.58520506428E+02 -0.80656411336E+03  0.80878626911E+03  0.89480420598E+01 0.  0.
         13    1    3    3    0    0  0.33976522846E+01 -0.45682689696E+02 -0.62340463500E+03  0.62508542706E+03  0.00000000000E+00 0.  1.
          1    1    3    3  501    0  0.58133741283E+01 -0.12837816732E+02 -0.18315947836E+03  0.18370084206E+03  0.00000000000E+00 0.  1.
         21    1    1    2  502  501 -0.92110264129E+01  0.58520506428E+02 -0.18776287432E+03  0.19688674321E+03  0.00000000000E+00 0.  1.
<mgrwt>
<rscale>  1 0.30000000E+03</rscale>
<asrwt>0</asrwt>
<pdfrwt beam="1">  1        1 0.20629179E-01 0.30000000E+03</pdfrwt>
<pdfrwt beam="2">0</pdfrwt>
<totfact> 0.28248336E+02</totfact>
</mgrwt>
</event>
<event>
 6    1  0.1956957E-002  0.3000000E+03  0.7818608E-02  0.1093470E+00
          3   -1    0    0  502    0  0.00000000000E+00  0.00000000000E+00  0.82569083629E+01  0.82569083629E+01  0.00000000000E+00 0.  1.
         13   -1    0    0    0    0 -0.00000000000E+00 -0.00000000000E+00 -0.10000000000E+04  0.10000000000E+04  0.00000000000E+00 0.  1.
    9000005    2    1    2  501    0 -0.47782830412E+01  0.37506948228E+02 -0.95426487613E+03  0.95501951745E+03  0.33498849001E+01 0.  0.
         13    1    3    3    0    0 -0.96919652832E+00  0.17551750444E+02 -0.47047970474E+03  0.47080798194E+03  0.00000000000E+00 0.  1.
          3    1    3    3  501    0 -0.38090865129E+01  0.19955197784E+02 -0.48378517139E+03  0.48421153551E+03  0.00000000000E+00 0.  1.
         21    1    1    2  502  501  0.47782830412E+01 -0.37506948228E+02 -0.37478215503E+02  0.53237390915E+02  0.00000000000E+00 0.  1.
<mgrwt>
<rscale>  1 0.30000000E+03</rscale>
<asrwt>0</asrwt>
<pdfrwt beam="1">  1        3 0.30025185E-01 0.30000000E+03</pdfrwt>
<pdfrwt beam="2">0</pdfrwt>
<totfact> 0.46689447E+01</totfact>
</mgrwt>
</event>
<event>
 6    1  0.1956957E-002  0.3000000E+03  0.7818608E-02  0.1093470E+00
          1   -1    0    0  502    0  0.00000000000E+00  0.00000000000E+00  0.18585061443E+01  0.18585061443E+01  0.00000000000E+00 0.  1.
         13   -1    0    0    0    0 -0.00000000000E+00 -0.00000000000E+00 -0.10000000000E+04  0.10000000000E+04  0.00000000000E+00 0.  1.
    9000005    2    1    2  501    0  0.29377607304E+02 -0.26200661062E+02 -0.70206917910E+03  0.70318086383E+03  0.35604171116E+01 0.  0.
         13    1    3    3    0    0  0.25203230342E+02 -0.22219412951E+02 -0.57500532191E+03  0.57598613295E+03  0.00000000000E+00 0.  1.
          1    1    3    3  501    0  0.41743769614E+01 -0.39812481103E+01 -0.12706385719E+03  0.12719473088E+03  0.00000000000E+00 0.  1.
         21    1    1    2  502  501 -0.29377607304E+02  0.26200661062E+02 -0.29607231476E+03  0.29867764231E+03  0.00000000000E+00 0.  1.
<mgrwt>
<rscale>  1 0.30000000E+03</rscale>
<asrwt>0</asrwt>
<pdfrwt beam="1">  1        1 0.67582184E-02 0.30000000E+03</pdfrwt>
<pdfrwt beam="2">0</pdfrwt>
<totfact> 0.13033499E+03</totfact>
</mgrwt>
</event>
<event>
 6    1  0.1956957E-002  0.3000000E+03  0.7818608E-02  0.1093470E+00
          1   -1    0    0  502    0  0.00000000000E+00  0.00000000000E+00  0.25609449249E+01  0.25609449249E+01  0.00000000000E+00 0.  1.
         13   -1    0    0    0    0 -0.00000000000E+00 -0.00000000000E+00 -0.10000000000E+04  0.10000000000E+04  0.00000000000E+00 0.  1.
    9000005    2    1    2  501    0 -0.39380435841E+02 -0.15701882504E+01 -0.81274876898E+03  0.81371236538E+03  0.37373621989E+01 0.  0.
         13    1    3    3    0    0 -0.28231696888E+02 -0.46712023338E+00 -0.54862927427E+03  0.54935537451E+03  0.00000000000E+00 0.  1.
          1    1    3    3  501    0 -0.11148738953E+02 -0.11030680170E+01 -0.26411949470E+03  0.26435699087E+03  0.00000000000E+00 0.  1.
         21    1    1    2  502  501  0.39380435841E+02  0.15701882504E+01 -0.18469028610E+03  0.18884857955E+03  0.00000000000E+00 0.  1.
<mgrwt>
<rscale>  1 0.30000000E+03</rscale>
<asrwt>0</asrwt>
<pdfrwt beam="1">  1        1 0.93125466E-02 0.30000000E+03</pdfrwt>
<pdfrwt beam="2">0</pdfrwt>
<totfact> 0.83397037E+02</totfact>
</mgrwt>
</event>
<event>
 6    1  0.1956957E-002  0.3000000E+03  0.7818608E-02  0.1093470E+00
          3   -1    0    0  502    0  0.00000000000E+00  0.00000000000E+00  0.10305899243E+02  0.10305899243E+02  0.00000000000E+00 0.  1.
         13   -1    0    0    0    0 -0.00000000000E+00 -0.00000000000E+00 -0.10000000000E+04  0.10000000000E+04  0.00000000000E+00 0.  1.
    9000005    2    1    2  501    0 -0.35770147520E+02  0.49184189403E+02 -0.89901087731E+03  0.90111782776E+03  0.97053610595E+01 0.  0.
         13    1    3    3    0    0 -0.19263308140E+02  0.19637972686E+02 -0.36453994084E+03  0.36557638528E+03  0.00000000000E+00 0.  1.
          3    1    3    3  501    0 -0.16506839380E+02  0.29546216717E+02 -0.53447093648E+03  0.53554144247E+03  0.00000000000E+00 0.  1.
         21    1    1    2  502  501  0.35770147520E+02 -0.49184189403E+02 -0.90683223444E+02  0.10918807149E+03  0.00000000000E+00 0.  1.
<mgrwt>
<rscale>  1 0.30000000E+03</rscale>
<asrwt>0</asrwt>
<pdfrwt beam="1">  1        3 0.37476076E-01 0.30000000E+03</pdfrwt>
<pdfrwt beam="2">0</pdfrwt>
<totfact> 0.30531629E+01</totfact>
</mgrwt>
</event>
<event>
 6    1  0.1956957E-002  0.3000000E+03  0.7818608E-02  0.1093470E+00
          1   -1    0    0  502    0  0.00000000000E+00  0.00000000000E+00  0.34325406997E+01  0.34325406997E+01  0.00000000000E+00 0.  1.
         13   -1    0    0    0    0 -0.00000000000E+00 -0.00000000000E+00 -0.10000000000E+04  0.10000000000E+04  0.00000000000E+00 0.  1.
    9000005    2    1    2  501    0  0.17709979926E+02  0.55597851504E+02 -0.53523125919E+03  0.53842086987E+03  0.44461006011E+01 0.  0.
         13    1    3    3    0    0  0.57287727526E+01  0.15296709626E+02 -0.13355510621E+03  0.13455026777E+03  0.00000000000E+00 0.  1.
          1    1    3    3  501    0  0.11981207174E+02  0.40301141878E+02 -0.40167615298E+03  0.40387060210E+03  0.00000000000E+00 0.  1.
         21    1    1    2  502  501 -0.17709979926E+02 -0.55597851504E+02 -0.46133620011E+03  0.46501167083E+03  0.00000000000E+00 0.  1.
<mgrwt>
<rscale>  1 0.30000000E+03</rscale>
<asrwt>0</asrwt>
<pdfrwt beam="1">  1        1 0.12481993E-01 0.30000000E+03</pdfrwt>
<pdfrwt beam="2">0</pdfrwt>
<totfact> 0.55727982E+02</totfact>
</mgrwt>
</event>
<event>
 6    1  0.1956957E-002  0.3000000E+03  0.7818608E-02  0.1093470E+00
          1   -1    0    0  502    0  0.00000000000E+00  0.00000000000E+00  0.10195136576E+01  0.10195136576E+01  0.00000000000E+00 0.  1.
         13   -1    0    0    0    0 -0.00000000000E+00 -0.00000000000E+00 -0.10000000000E+04  0.10000000000E+04  0.00000000000E+00 0.  1.
    9000005    2    1    2  501    0  0.13209811697E+02  0.28795536098E+02 -0.55357271171E+03  0.55448646031E+03  0.29674060663E+01 0.  0.
         13    1    3    3    0    0  0.18308598113E+01  0.54848593108E+01 -0.85199087069E+02  0.85395082801E+02  0.00000000000E+00 0.  1.
          1    1    3    3  501    0  0.11378951886E+02  0.23310676787E+02 -0.46837362464E+03  0.46909137751E+03  0.00000000000E+00 0.  1.
         21    1    1    2  502  501 -0.13209811697E+02 -0.28795536098E+02 -0.44540777463E+03  0.44653305334E+03  0.00000000000E+00 0.  1.
<mgrwt>
<rscale>  1 0.30000000E+03</rscale>
<asrwt>0</asrwt>
<pdfrwt beam="1">  1        1 0.37073302E-02 0.30000000E+03</pdfrwt>
<pdfrwt beam="2">0</pdfrwt>
<totfact> 0.30303408E+03</totfact>
</mgrwt>
</event>
<event>
 6    1  0.1956957E-002  0.3000000E+03  0.7818608E-02  0.1093470E+00
          1   -1    0    0  502    0  0.00000000000E+00  0.00000000000E+00  0.11014851323E+01  0.11014851323E+01  0.00000000000E+00 0.  1.
         13   -1    0    0    0    0 -0.00000000000E+00 -0.00000000000E+00 -0.10000000000E+04  0.10000000000E+04  0.00000000000E+00 0.  1.
    9000005    2    1    2  501    0  0.21050712012E+02  0.24863631340E+02 -0.41244717222E+03  0.41374596253E+03  0.34233020524E+01 0.  0.
         13    1    3    3    0    0  0.44033935629E+01  0.39078917125E+01 -0.88086563976E+02  0.88283091504E+02  0.00000000000E+00 0.  1.
          3    1    3    3  501    0  0.16647318449E+02  0.20955739628E+02 -0.32436060824E+03  0.32546287102E+03  0.00000000000E+00 0.  1.
         21    1    1    2  502  501 -0.21050712012E+02 -0.24863631340E+02 -0.58645134265E+03  0.58735552261E+03  0.00000000000E+00 0.  1.
<mgrwt>
<rscale>  1 0.30000000E+03</rscale>
<asrwt>0</asrwt>
<pdfrwt beam="1">  1        1 0.40054089E-02 0.30000000E+03</pdfrwt>
<pdfrwt beam="2">0</pdfrwt>
<totfact> 0.27177768E+03</totfact>
</mgrwt>
</event>
<event>
 6    1  0.1956957E-002  0.3000000E+03  0.7818608E-02  0.1093470E+00
          3   -1    0    0  502    0  0.00000000000E+00  0.00000000000E+00  0.29793711815E+01  0.29793711815E+01  0.00000000000E+00 0.  1.
         13   -1    0    0    0    0 -0.00000000000E+00 -0.00000000000E+00 -0.10000000000E+04  0.10000000000E+04  0.00000000000E+00 0.  1.
    9000005    2    1    2  501    0  0.23206914070E+02  0.45420133328E+02 -0.67227977963E+03  0.67425734803E+03  0.78307025800E+01 0.  0.
         13    1    3    3    0    0  0.29677898118E+01  0.27616893916E+01 -0.77750050341E+02  0.77855667955E+02  0.00000000000E+00 0.  1.
          1    1    3    3  501    0  0.20239124258E+02  0.42658443936E+02 -0.59452972929E+03  0.59640168008E+03  0.00000000000E+00 0.  1.
         21    1    1    2  502  501 -0.23206914070E+02 -0.45420133328E+02 -0.32474084919E+03  0.32872202315E+03  0.00000000000E+00 0.  1.
<mgrwt>
<rscale>  1 0.30000000E+03</rscale>
<asrwt>0</asrwt>
<pdfrwt beam="1">  1        3 0.10834100E-01 0.30000000E+03</pdfrwt>
<pdfrwt beam="2">0</pdfrwt>
<totfact> 0.28917422E+02</totfact>
</mgrwt>
</event>
<event>
 6    1  0.1956957E-002  0.3000000E+03  0.7818608E-02  0.1093470E+00
          1   -1    0    0  502    0  0.00000000000E+00  0.00000000000E+00  0.10561459553E+01  0.10561459553E+01  0.00000000000E+00 0.  1.
         13   -1    0    0    0    0 -0.00000000000E+00 -0.00000000000E+00 -0.10000000000E+04  0.10000000000E+04  0.00000000000E+00 0.  1.
    9000005    2    1    2  501    0 -0.63268756536E+01 -0.31711229400E+02 -0.54299600169E+03  0.54396307503E+03  0.23532347316E+01 0.  0.
         13    1    3    3    0    0 -0.13865327515E+01 -0.33683232173E+01 -0.65176362134E+02  0.65278068717E+02  0.00000000000E+00 0.  1.
          1    1    3    3  501    0 -0.49403429020E+01 -0.28342906183E+02 -0.47781963956E+03  0.47868500631E+03  0.00000000000E+00 0.  1.
         21    1    1    2  502  501  0.63268756536E+01  0.31711229400E+02 -0.45594785235E+03  0.45709307093E+03  0.00000000000E+00 0.  1.
<mgrwt>
<rscale>  1 0.30000000E+03</rscale>
<asrwt>0</asrwt>
<pdfrwt beam="1">  1        1 0.38405388E-02 0.30000000E+03</pdfrwt>
<pdfrwt beam="2">0</pdfrwt>
<totfact> 0.28834567E+03</totfact>
</mgrwt>
</event>
<event>
 6    1  0.1956957E-002  0.3000000E+03  0.7818608E-02  0.1093470E+00
          1   -1    0    0  502    0  0.00000000000E+00  0.00000000000E+00  0.45001417410E+01  0.45001417410E+01  0.00000000000E+00 0.  1.
         13   -1    0    0    0    0 -0.00000000000E+00 -0.00000000000E+00 -0.10000000000E+04  0.10000000000E+04  0.00000000000E+00 0.  1.
    9000005    2    1    2  501    0  0.36552569317E+02  0.25368405661E+02 -0.87351236918E+03  0.87465179242E+03  0.35003635880E+01 0.  0.
         13    1    3    3    0    0  0.17597419531E+02  0.12576612279E+02 -0.45846011855E+03  0.45897006509E+03  0.00000000000E+00 0.  1.
          3    1    3    3  501    0  0.18955149786E+02  0.12791793381E+02 -0.41505225063E+03  0.41568172733E+03  0.00000000000E+00 0.  1.
         21    1    1    2  502  501 -0.36552569317E+02 -0.25368405661E+02 -0.12198748908E+03  0.12984834932E+03  0.00000000000E+00 0.  1.
<mgrwt>
<rscale>  1 0.30000000E+03</rscale>
<asrwt>0</asrwt>
<pdfrwt beam="1">  1        1 0.16364186E-01 0.30000000E+03</pdfrwt>
<pdfrwt beam="2">0</pdfrwt>
<totfact> 0.38554729E+02</totfact>
</mgrwt>
</event>
<event>
 6    1  0.1956957E-002  0.3000000E+03  0.7818608E-02  0.1093470E+00
          1   -1    0    0  502    0  0.00000000000E+00  0.00000000000E+00  0.14043515294E+01  0.14043515294E+01  0.00000000000E+00 0.  1.
         13   -1    0    0    0    0 -0.00000000000E+00 -0.00000000000E+00 -0.10000000000E+04  0.10000000000E+04  0.00000000000E+00 0.  1.
    9000005    2    1    2  501    0  0.32297240154E+02 -0.14610086432E+02 -0.65793231304E+03  0.65890168811E+03  0.44653887132E+01 0.  0.
         13    1    3    3    0    0  0.47489112844E+01 -0.24957688920E+01 -0.73855111806E+02  0.74049703312E+02  0.00000000000E+00 0.  1.
          3    1    3    3  501    0  0.27548328870E+02 -0.12114317540E+02 -0.58407720124E+03  0.58485198479E+03  0.00000000000E+00 0.  1.
         21    1    1    2  502  501 -0.32297240154E+02  0.14610086432E+02 -0.34066333543E+03  0.34250266342E+03  0.00000000000E+00 0.  1.
<mgrwt>
<rscale>  1 0.30000000E+03</rscale>
<asrwt>0</asrwt>
<pdfrwt beam="1">  1        1 0.51067436E-02 0.30000000E+03</pdfrwt>
<pdfrwt beam="2">0</pdfrwt>
<totfact> 0.19309749E+03</totfact>
</mgrwt>
</event>
<event>
 6    1  0.1956957E-002  0.3000000E+03  0.7818608E-02  0.1093470E+00
          1   -1    0    0  502    0  0.00000000000E+00  0.00000000000E+00  0.24319181982E+01  0.24319181982E+01  0.00000000000E+00 0.  1.
         13   -1    0    0    0    0 -0.00000000000E+00 -0.00000000000E+00 -0.10000000000E+04  0.10000000000E+04  0.00000000000E+00 0.  1.
    9000005    2    1    2  501    0  0.38082604038E+02 -0.29898225006E+02 -0.58582550007E+03  0.58785244186E+03  0.58981590983E+01 0.  0.
         13    1    3    3    0    0  0.17188133101E+02 -0.17226837897E+02 -0.29565615179E+03  0.29665595554E+03  0.00000000000E+00 0.  1.
          1    1    3    3  501    0  0.20894470938E+02 -0.12671387109E+02 -0.29016934828E+03  0.29119648632E+03  0.00000000000E+00 0.  1.
         21    1    1    2  502  501 -0.38082604038E+02  0.29898225006E+02 -0.41174258173E+03  0.41457947633E+03  0.00000000000E+00 0.  1.
<mgrwt>
<rscale>  1 0.30000000E+03</rscale>
<asrwt>0</asrwt>
<pdfrwt beam="1">  1        1 0.88433576E-02 0.30000000E+03</pdfrwt>
<pdfrwt beam="2">0</pdfrwt>
<totfact> 0.89593044E+02</totfact>
</mgrwt>
</event>
<event>
 6    1  0.1956957E-002  0.3000000E+03  0.7818608E-02  0.1093470E+00
          1   -1    0    0  502    0  0.00000000000E+00  0.00000000000E+00  0.16850414362E+02  0.16850414362E+02  0.00000000000E+00 0.  1.
         13   -1    0    0    0    0 -0.00000000000E+00 -0.00000000000E+00 -0.10000000000E+04  0.10000000000E+04  0.00000000000E+00 0.  1.
    9000005    2    1    2  501    0 -0.82604097745E+02  0.18120720571E+02 -0.87712896449E+03  0.88123268106E+03  0.80012708221E+01 0.  0.
         13    1    3    3    0    0 -0.77424331670E+01  0.34688114618E+01 -0.72003149487E+02  0.72501251440E+02  0.00000000000E+00 0.  1.
          1    1    3    3  501    0 -0.74861664578E+02  0.14651909109E+02 -0.80512581501E+03  0.80873142962E+03  0.00000000000E+00 0.  1.
         21    1    1    2  502  501  0.82604097745E+02 -0.18120720571E+02 -0.10602062114E+03  0.13561773330E+03  0.00000000000E+00 0.  1.
<mgrwt>
<rscale>  1 0.30000000E+03</rscale>
<asrwt>0</asrwt>
<pdfrwt beam="1">  1        1 0.61274363E-01 0.30000000E+03</pdfrwt>
<pdfrwt beam="2">0</pdfrwt>
<totfact> 0.67430762E+01</totfact>
</mgrwt>
</event>
<event>
 6    1  0.1956957E-002  0.3000000E+03  0.7818608E-02  0.1093470E+00
          3   -1    0    0  502    0  0.00000000000E+00  0.00000000000E+00  0.34756292451E+01  0.34756292451E+01  0.00000000000E+00 0.  1.
         13   -1    0    0    0    0 -0.00000000000E+00 -0.00000000000E+00 -0.10000000000E+04  0.10000000000E+04  0.00000000000E+00 0.  1.
    9000005    2    1    2  501    0  0.14337529833E+02  0.39425911545E+02 -0.85042460658E+03  0.85147198338E+03  0.47497104998E+01 0.  0.
         13    1    3    3    0    0  0.23187301423E+01  0.10833515727E+02 -0.25391474646E+03  0.25415632993E+03  0.00000000000E+00 0.  1.
          1    1    3    3  501    0  0.12018799691E+02  0.28592395818E+02 -0.59650986012E+03  0.59731565345E+03  0.00000000000E+00 0.  1.
         21    1    1    2  502  501 -0.14337529833E+02 -0.39425911545E+02 -0.14609976418E+03  0.15200364586E+03  0.00000000000E+00 0.  1.
<mgrwt>
<rscale>  1 0.30000000E+03</rscale>
<asrwt>0</asrwt>
<pdfrwt beam="1">  1        3 0.12638678E-01 0.30000000E+03</pdfrwt>
<pdfrwt beam="2">0</pdfrwt>
<totfact> 0.22317383E+02</totfact>
</mgrwt>
</event>
<event>
 6    1  0.1956957E-002  0.3000000E+03  0.7818608E-02  0.1093470E+00
          1   -1    0    0  502    0  0.00000000000E+00  0.00000000000E+00  0.39229966792E+01  0.39229966792E+01  0.00000000000E+00 0.  1.
         13   -1    0    0    0    0 -0.00000000000E+00 -0.00000000000E+00 -0.10000000000E+04  0.10000000000E+04  0.00000000000E+00 0.  1.
    9000005    2    1    2  501    0 -0.49404233533E+02  0.86870322719E+01 -0.79838297835E+03  0.79996425005E+03  0.33434122522E+01 0.  0.
         13    1    3    3    0    0 -0.14578787909E+02  0.41197863226E+01 -0.23987210558E+03  0.24035003792E+03  0.00000000000E+00 0.  1.
          1    1    3    3  501    0 -0.34825445623E+02  0.45672459494E+01 -0.55851087278E+03  0.55961421212E+03  0.00000000000E+00 0.  1.
         21    1    1    2  502  501  0.49404233533E+02 -0.86870322719E+01 -0.19769402497E+03  0.20395874663E+03  0.00000000000E+00 0.  1.
<mgrwt>
<rscale>  1 0.30000000E+03</rscale>
<asrwt>0</asrwt>
<pdfrwt beam="1">  1        1 0.14265473E-01 0.30000000E+03</pdfrwt>
<pdfrwt beam="2">0</pdfrwt>
<totfact> 0.46443637E+02</totfact>
</mgrwt>
</event>
<event>
 6    1  0.1956957E-002  0.3000000E+03  0.7818608E-02  0.1093470E+00
          1   -1    0    0  502    0  0.00000000000E+00  0.00000000000E+00  0.94172759629E+01  0.94172759629E+01  0.00000000000E+00 0.  1.
         13   -1    0    0    0    0 -0.00000000000E+00 -0.00000000000E+00 -0.10000000000E+04  0.10000000000E+04  0.00000000000E+00 0.  1.
    9000005    2    1    2  501    0  0.69034194389E+02  0.60840975339E+02 -0.65514713956E+03  0.66158919255E+03  0.38911379088E+01 0.  0.
         13    1    3    3    0    0  0.27989493803E+02  0.26600669586E+02 -0.26577966216E+03  0.26856998381E+03  0.00000000000E+00 0.  1.
          1    1    3    3  501    0  0.41044700586E+02  0.34240305753E+02 -0.38936747740E+03  0.39301920874E+03  0.00000000000E+00 0.  1.
         21    1    1    2  502  501 -0.69034194389E+02 -0.60840975339E+02 -0.33543558448E+03  0.34782808341E+03  0.00000000000E+00 0.  1.
<mgrwt>
<rscale>  1 0.30000000E+03</rscale>
<asrwt>0</asrwt>
<pdfrwt beam="1">  1        1 0.34244712E-01 0.30000000E+03</pdfrwt>
<pdfrwt beam="2">0</pdfrwt>
<totfact> 0.14479365E+02</totfact>
</mgrwt>
</event>
<event>
 6    1  0.1956957E-002  0.3000000E+03  0.7818608E-02  0.1093470E+00
          1   -1    0    0  502    0  0.00000000000E+00  0.00000000000E+00  0.76504347615E+01  0.76504347615E+01  0.00000000000E+00 0.  1.
         13   -1    0    0    0    0 -0.00000000000E+00 -0.00000000000E+00 -0.10000000000E+04  0.10000000000E+04  0.00000000000E+00 0.  1.
    9000005    2    1    2  501    0 -0.10835091773E+02 -0.28583158826E+02 -0.96820420119E+03  0.96869668286E+03  0.44149746831E+01 0.  0.
         13    1    3    3    0    0 -0.85681803311E+01 -0.23753891758E+02 -0.74195119979E+03  0.74238079444E+03  0.00000000000E+00 0.  1.
          1    1    3    3  501    0 -0.22669114415E+01 -0.48292670673E+01 -0.22625300140E+03  0.22631588842E+03  0.00000000000E+00 0.  1.
         21    1    1    2  502  501  0.10835091773E+02  0.28583158826E+02 -0.24145364051E+02  0.38953751903E+02  0.00000000000E+00 0.  1.
<mgrwt>
<rscale>  1 0.30000000E+03</rscale>
<asrwt>0</asrwt>
<pdfrwt beam="1">  1        1 0.27819821E-01 0.30000000E+03</pdfrwt>
<pdfrwt beam="2">0</pdfrwt>
<totfact> 0.19015401E+02</totfact>
</mgrwt>
</event>
<event>
 6    1  0.1956957E-002  0.3000000E+03  0.7818608E-02  0.1093470E+00
          1   -1    0    0  502    0  0.00000000000E+00  0.00000000000E+00  0.11972071405E+01  0.11972071405E+01  0.00000000000E+00 0.  1.
         13   -1    0    0    0    0 -0.00000000000E+00 -0.00000000000E+00 -0.10000000000E+04  0.10000000000E+04  0.00000000000E+00 0.  1.
    9000005    2    1    2  501    0 -0.15526854447E+02  0.29331309384E+02 -0.62226253647E+03  0.62319724206E+03  0.79201829254E+01 0.  0.
         13    1    3    3    0    0 -0.95915230919E+01  0.15964291856E+02 -0.27723284639E+03  0.27785771008E+03  0.00000000000E+00 0.  1.
          3    1    3    3  501    0 -0.59353313551E+01  0.13367017527E+02 -0.34502969007E+03  0.34533953198E+03  0.00000000000E+00 0.  1.
         21    1    1    2  502  501  0.15526854447E+02 -0.29331309384E+02 -0.37654025639E+03  0.37799996509E+03  0.00000000000E+00 0.  1.
<mgrwt>
<rscale>  1 0.30000000E+03</rscale>
<asrwt>0</asrwt>
<pdfrwt beam="1">  1        1 0.43534897E-02 0.30000000E+03</pdfrwt>
<pdfrwt beam="2">0</pdfrwt>
<totfact> 0.24169050E+03</totfact>
</mgrwt>
</event>
<event>
 6    1  0.1956957E-002  0.3000000E+03  0.7818608E-02  0.1093470E+00
          1   -1    0    0  502    0  0.00000000000E+00  0.00000000000E+00  0.14435385065E+02  0.14435385065E+02  0.00000000000E+00 0.  1.
         13   -1    0    0    0    0 -0.00000000000E+00 -0.00000000000E+00 -0.10000000000E+04  0.10000000000E+04  0.00000000000E+00 0.  1.
    9000005    2    1    2  501    0  0.88122965095E+01  0.77842040954E+02 -0.87729254978E+03  0.88079452304E+03  0.44422977950E+01 0.  0.
         13    1    3    3    0    0  0.51489198806E+01  0.55661122221E+02 -0.64379417166E+03  0.64621637813E+03  0.00000000000E+00 0.  1.
          3    1    3    3  501    0  0.36633766289E+01  0.22180918733E+02 -0.23349837812E+03  0.23457814491E+03  0.00000000000E+00 0.  1.
         21    1    1    2  502  501 -0.88122965095E+01 -0.77842040954E+02 -0.10827206515E+03  0.13364086202E+03  0.00000000000E+00 0.  1.
<mgrwt>
<rscale>  1 0.30000000E+03</rscale>
<asrwt>0</asrwt>
<pdfrwt beam="1">  1        1 0.52492420E-01 0.30000000E+03</pdfrwt>
<pdfrwt beam="2">0</pdfrwt>
<totfact> 0.82775581E+01</totfact>
</mgrwt>
</event>
<event>
 6    1  0.1956957E-002  0.3000000E+03  0.7818608E-02  0.1093470E+00
          1   -1    0    0  502    0  0.00000000000E+00  0.00000000000E+00  0.15216027281E+01  0.15216027281E+01  0.00000000000E+00 0.  1.
         13   -1    0    0    0    0 -0.00000000000E+00 -0.00000000000E+00 -0.10000000000E+04  0.10000000000E+04  0.00000000000E+00 0.  1.
    9000005    2    1    2  501    0  0.38291709215E+02 -0.59034626624E+01 -0.48230215616E+03  0.48389334060E+03  0.60240662261E+01 0.  0.
         13    1    3    3    0    0  0.27875695985E+01  0.74093877574E+00 -0.50907285943E+02  0.50988933080E+02  0.00000000000E+00 0.  1.
          1    1    3    3  501    0  0.35504139617E+02 -0.66444014382E+01 -0.43139487022E+03  0.43290440752E+03  0.00000000000E+00 0.  1.
         21    1    1    2  502  501 -0.38291709215E+02  0.59034626624E+01 -0.51617624111E+03  0.51762826213E+03  0.00000000000E+00 0.  1.
<mgrwt>
<rscale>  1 0.30000000E+03</rscale>
<asrwt>0</asrwt>
<pdfrwt beam="1">  1        1 0.55331125E-02 0.30000000E+03</pdfrwt>
<pdfrwt beam="2">0</pdfrwt>
<totfact> 0.17252762E+03</totfact>
</mgrwt>
</event>
<event>
 6    1  0.1956957E-002  0.3000000E+03  0.7818608E-02  0.1093470E+00
          1   -1    0    0  502    0  0.00000000000E+00  0.00000000000E+00  0.48345683504E+01  0.48345683504E+01  0.00000000000E+00 0.  1.
         13   -1    0    0    0    0 -0.00000000000E+00 -0.00000000000E+00 -0.10000000000E+04  0.10000000000E+04  0.00000000000E+00 0.  1.
    9000005    2    1    2  501    0 -0.17841865447E+02  0.43521639495E+02 -0.86747099475E+03  0.86875248106E+03  0.35328945175E+01 0.  0.
         13    1    3    3    0    0 -0.55519590771E+01  0.17738338421E+02 -0.35436612809E+03  0.35485324521E+03  0.00000000000E+00 0.  1.
          1    1    3    3  501    0 -0.12289906370E+02  0.25783301074E+02 -0.51310486666E+03  0.51389923584E+03  0.00000000000E+00 0.  1.
         21    1    1    2  502  501  0.17841865447E+02 -0.43521639495E+02 -0.12769443690E+03  0.13608208729E+03  0.00000000000E+00 0.  1.
<mgrwt>
<rscale>  1 0.30000000E+03</rscale>
<asrwt>0</asrwt>
<pdfrwt beam="1">  1        1 0.17580286E-01 0.30000000E+03</pdfrwt>
<pdfrwt beam="2">0</pdfrwt>
<totfact> 0.35001923E+02</totfact>
</mgrwt>
</event>
<event>
 6    1  0.1956957E-002  0.3000000E+03  0.7818608E-02  0.1093470E+00
          1   -1    0    0  502    0  0.00000000000E+00  0.00000000000E+00  0.51278869691E+01  0.51278869691E+01  0.00000000000E+00 0.  1.
         13   -1    0    0    0    0 -0.00000000000E+00 -0.00000000000E+00 -0.10000000000E+04  0.10000000000E+04  0.00000000000E+00 0.  1.
    9000005    2    1    2  501    0 -0.31233768946E+02  0.50576708100E+02 -0.77748042506E+03  0.77975553346E+03  0.30543238480E+01 0.  0.
         13    1    3    3    0    0 -0.62413801061E+01  0.12439479361E+02 -0.17650686995E+03  0.17705471078E+03  0.00000000000E+00 0.  1.
          3    1    3    3  501    0 -0.24992388840E+02  0.38137228739E+02 -0.60097355511E+03  0.60270082268E+03  0.00000000000E+00 0.  1.
         21    1    1    2  502  501  0.31233768946E+02 -0.50576708100E+02 -0.21739168797E+03  0.22537235351E+03  0.00000000000E+00 0.  1.
<mgrwt>
<rscale>  1 0.30000000E+03</rscale>
<asrwt>0</asrwt>
<pdfrwt beam="1">  1        1 0.18646901E-01 0.30000000E+03</pdfrwt>
<pdfrwt beam="2">0</pdfrwt>
<totfact> 0.32338230E+02</totfact>
</mgrwt>
</event>
<event>
 6    1  0.1956957E-002  0.3000000E+03  0.7818608E-02  0.1093470E+00
          1   -1    0    0  502    0  0.00000000000E+00  0.00000000000E+00  0.29381980972E+01  0.29381980972E+01  0.00000000000E+00 0.  1.
         13   -1    0    0    0    0 -0.00000000000E+00 -0.00000000000E+00 -0.10000000000E+04  0.10000000000E+04  0.00000000000E+00 0.  1.
    9000005    2    1    2  501    0  0.48600187715E+02 -0.11675870852E+02 -0.30694898292E+03  0.31101767728E+03  0.40016568920E+01 0.  0.
         13    1    3    3    0    0  0.47750190772E+00  0.11358890627E+00 -0.15511730217E+01  0.16269751856E+01  0.00000000000E+00 0.  1.
          3    1    3    3  501    0  0.48122685807E+02 -0.11789459758E+02 -0.30539780990E+03  0.30939070209E+03  0.00000000000E+00 0.  1.
         21    1    1    2  502  501 -0.48600187715E+02  0.11675870852E+02 -0.69011281898E+03  0.69192052082E+03  0.00000000000E+00 0.  1.
<mgrwt>
<rscale>  1 0.30000000E+03</rscale>
<asrwt>0</asrwt>
<pdfrwt beam="1">  1        1 0.10684379E-01 0.30000000E+03</pdfrwt>
<pdfrwt beam="2">0</pdfrwt>
<totfact> 0.68984420E+02</totfact>
</mgrwt>
</event>
<event>
 6    1  0.1956957E-002  0.3000000E+03  0.7818608E-02  0.1093470E+00
          3   -1    0    0  502    0  0.00000000000E+00  0.00000000000E+00  0.70348465106E+01  0.70348465106E+01  0.00000000000E+00 0.  1.
         13   -1    0    0    0    0 -0.00000000000E+00 -0.00000000000E+00 -0.10000000000E+04  0.10000000000E+04  0.00000000000E+00 0.  1.
    9000005    2    1    2  501    0  0.78633327533E+02  0.25926532976E+02 -0.57587509981E+03  0.58180608668E+03  0.32873397382E+01 0.  0.
         13    1    3    3    0    0  0.69416941408E+02  0.22776349110E+02 -0.51519643340E+03  0.52035068831E+03  0.00000000000E+00 0.  1.
          3    1    3    3  501    0  0.92163861246E+01  0.31501838655E+01 -0.60678666413E+02  0.61455398374E+02  0.00000000000E+00 0.  1.
         21    1    1    2  502  501 -0.78633327533E+02 -0.25926532976E+02 -0.41709005368E+03  0.42522875983E+03  0.00000000000E+00 0.  1.
<mgrwt>
<rscale>  1 0.30000000E+03</rscale>
<asrwt>0</asrwt>
<pdfrwt beam="1">  1        3 0.25581314E-01 0.30000000E+03</pdfrwt>
<pdfrwt beam="2">0</pdfrwt>
<totfact> 0.63210283E+01</totfact>
</mgrwt>
</event>
<event>
 6    1  0.1956957E-002  0.3000000E+03  0.7818608E-02  0.1093470E+00
          1   -1    0    0  502    0  0.00000000000E+00  0.00000000000E+00  0.59112013813E+01  0.59112013813E+01  0.00000000000E+00 0.  1.
         13   -1    0    0    0    0 -0.00000000000E+00 -0.00000000000E+00 -0.10000000000E+04  0.10000000000E+04  0.00000000000E+00 0.  1.
    9000005    2    1    2  501    0 -0.53134972608E+02  0.23809578527E+02 -0.82528021173E+03  0.82734311814E+03  0.43572839446E+01 0.  0.
         13    1    3    3    0    0 -0.12940917920E+01  0.13273227890E+01 -0.22033684230E+02  0.22111528669E+02  0.00000000000E+00 0.  1.
          3    1    3    3  501    0 -0.51840880817E+02  0.22482255738E+02 -0.80324652750E+03  0.80523158947E+03  0.00000000000E+00 0.  1.
         21    1    1    2  502  501  0.53134972608E+02 -0.23809578527E+02 -0.16880858689E+03  0.17856808324E+03  0.00000000000E+00 0.  1.
<mgrwt>
<rscale>  1 0.30000000E+03</rscale>
<asrwt>0</asrwt>
<pdfrwt beam="1">  1        1 0.21495323E-01 0.30000000E+03</pdfrwt>
<pdfrwt beam="2">0</pdfrwt>
<totfact> 0.26742625E+02</totfact>
</mgrwt>
</event>
<event>
 6    1  0.1956957E-002  0.3000000E+03  0.7818608E-02  0.1093470E+00
          1   -1    0    0  502    0  0.00000000000E+00  0.00000000000E+00  0.41987734313E+01  0.41987734313E+01  0.00000000000E+00 0.  1.
         13   -1    0    0    0    0 -0.00000000000E+00 -0.00000000000E+00 -0.10000000000E+04  0.10000000000E+04  0.00000000000E+00 0.  1.
    9000005    2    1    2  501    0  0.79313449887E+01 -0.33494964071E+02 -0.92324564506E+03  0.92389229014E+03  0.31022244000E+01 0.  0.
         13    1    3    3    0    0  0.20710936985E+01 -0.15201938761E+02 -0.39920012522E+03  0.39949484145E+03  0.00000000000E+00 0.  1.
          3    1    3    3  501    0  0.58602512901E+01 -0.18293025310E+02 -0.52404551984E+03  0.52439744868E+03  0.00000000000E+00 0.  1.
         21    1    1    2  502  501 -0.79313449887E+01  0.33494964071E+02 -0.72555581508E+02  0.80306483296E+02  0.00000000000E+00 0.  1.
<mgrwt>
<rscale>  1 0.30000000E+03</rscale>
<asrwt>0</asrwt>
<pdfrwt beam="1">  1        1 0.15268299E-01 0.30000000E+03</pdfrwt>
<pdfrwt beam="2">0</pdfrwt>
<totfact> 0.42349287E+02</totfact>
</mgrwt>
</event>
<event>
 6    1  0.1956957E-002  0.3000000E+03  0.7818608E-02  0.1093470E+00
          1   -1    0    0  502    0  0.00000000000E+00  0.00000000000E+00  0.76251537288E+01  0.76251537288E+01  0.00000000000E+00 0.  1.
         13   -1    0    0    0    0 -0.00000000000E+00 -0.00000000000E+00 -0.10000000000E+04  0.10000000000E+04  0.00000000000E+00 0.  1.
    9000005    2    1    2  501    0 -0.74138030038E+02 -0.36130372081E+02 -0.33130786871E+03  0.34143343950E+03  0.31683521325E+01 0.  0.
         13    1    3    3    0    0 -0.58869655672E+02 -0.27866625321E+02 -0.26586761950E+03  0.27372938510E+03  0.00000000000E+00 0.  1.
          3    1    3    3  501    0 -0.15268374366E+02 -0.82637467605E+01 -0.65440249211E+02  0.67704054407E+02  0.00000000000E+00 0.  1.
         21    1    1    2  502  501  0.74138030038E+02  0.36130372081E+02 -0.66106697756E+03  0.66619171422E+03  0.00000000000E+00 0.  1.
<mgrwt>
<rscale>  1 0.30000000E+03</rscale>
<asrwt>0</asrwt>
<pdfrwt beam="1">  1        1 0.27727890E-01 0.30000000E+03</pdfrwt>
<pdfrwt beam="2">0</pdfrwt>
<totfact> 0.19098365E+02</totfact>
</mgrwt>
</event>
<event>
 6    1  0.1956957E-002  0.3000000E+03  0.7818608E-02  0.1093470E+00
          3   -1    0    0  502    0  0.00000000000E+00  0.00000000000E+00  0.19651914165E+01  0.19651914165E+01  0.00000000000E+00 0.  1.
         13   -1    0    0    0    0 -0.00000000000E+00 -0.00000000000E+00 -0.10000000000E+04  0.10000000000E+04  0.00000000000E+00 0.  1.
    9000005    2    1    2  501    0  0.34992370721E+02  0.11953994159E+02 -0.77479190834E+03  0.77568051121E+03  0.32233931896E+01 0.  0.
         13    1    3    3    0    0  0.34408050146E+02  0.12147847932E+02 -0.75904325211E+03  0.75991982649E+03  0.00000000000E+00 0.  1.
          1    1    3    3  501    0  0.58432057475E+00 -0.19385377315E+00 -0.15748656224E+02  0.15760684715E+02  0.00000000000E+00 0.  1.
         21    1    1    2  502  501 -0.34992370721E+02 -0.11953994159E+02 -0.22324290025E+03  0.22628468021E+03  0.00000000000E+00 0.  1.
<mgrwt>
<rscale>  1 0.30000000E+03</rscale>
<asrwt>0</asrwt>
<pdfrwt beam="1">  1        3 0.71461657E-02 0.30000000E+03</pdfrwt>
<pdfrwt beam="2">0</pdfrwt>
<totfact> 0.56696133E+02</totfact>
</mgrwt>
</event>
<event>
 6    1  0.1956957E-002  0.3000000E+03  0.7818608E-02  0.1093470E+00
          3   -1    0    0  502    0  0.00000000000E+00  0.00000000000E+00  0.12198721403E+01  0.12198721403E+01  0.00000000000E+00 0.  1.
         13   -1    0    0    0    0 -0.00000000000E+00 -0.00000000000E+00 -0.10000000000E+04  0.10000000000E+04  0.00000000000E+00 0.  1.
    9000005    2    1    2  501    0 -0.50408740596E+01 -0.30013776583E+02 -0.73892212283E+03  0.73958573833E+03  0.74110417067E+01 0.  0.
         13    1    3    3    0    0  0.17732615868E+01 -0.56642336201E+01 -0.11840335325E+03  0.11855202259E+03  0.00000000000E+00 0.  1.
          3    1    3    3  501    0 -0.68141356464E+01 -0.24349542963E+02 -0.62051876958E+03  0.62103371574E+03  0.00000000000E+00 0.  1.
         21    1    1    2  502  501  0.50408740596E+01  0.30013776583E+02 -0.25985800503E+03  0.26163413381E+03  0.00000000000E+00 0.  1.
<mgrwt>
<rscale>  1 0.30000000E+03</rscale>
<asrwt>0</asrwt>
<pdfrwt beam="1">  1        3 0.44359080E-02 0.30000000E+03</pdfrwt>
<pdfrwt beam="2">0</pdfrwt>
<totfact> 0.11901252E+03</totfact>
</mgrwt>
</event>
<event>
 6    1  0.1956957E-002  0.3000000E+03  0.7818608E-02  0.1093470E+00
          1   -1    0    0  502    0  0.00000000000E+00  0.00000000000E+00  0.35273223463E+01  0.35273223463E+01  0.00000000000E+00 0.  1.
         13   -1    0    0    0    0 -0.00000000000E+00 -0.00000000000E+00 -0.10000000000E+04  0.10000000000E+04  0.00000000000E+00 0.  1.
    9000005    2    1    2  501    0  0.35361036322E+02  0.11986643054E+02 -0.88729579433E+03  0.88814242579E+03  0.10443148328E+02 0.  0.
         13    1    3    3    0    0  0.28103073285E+02  0.11107339892E+02 -0.78730268191E+03  0.78788239520E+03  0.00000000000E+00 0.  1.
          1    1    3    3  501    0  0.72579630369E+01  0.87930316189E+00 -0.99993112424E+02  0.10026003059E+03  0.00000000000E+00 0.  1.
         21    1    1    2  502  501 -0.35361036322E+02 -0.11986643054E+02 -0.10917688332E+03  0.11538489655E+03  0.00000000000E+00 0.  1.
<mgrwt>
<rscale>  1 0.30000000E+03</rscale>
<asrwt>0</asrwt>
<pdfrwt beam="1">  1        1 0.12826654E-01 0.30000000E+03</pdfrwt>
<pdfrwt beam="2">0</pdfrwt>
<totfact> 0.53689682E+02</totfact>
</mgrwt>
</event>
<event>
 6    1  0.1956957E-002  0.3000000E+03  0.7818608E-02  0.1093470E+00
          3   -1    0    0  502    0  0.00000000000E+00  0.00000000000E+00  0.55271273343E+01  0.55271273343E+01  0.00000000000E+00 0.  1.
         13   -1    0    0    0    0 -0.00000000000E+00 -0.00000000000E+00 -0.10000000000E+04  0.10000000000E+04  0.00000000000E+00 0.  1.
    9000005    2    1    2  501    0 -0.23420138144E+02 -0.58911992405E+02 -0.75949997098E+03  0.76215212811E+03  0.40662940904E+01 0.  0.
         13    1    3    3    0    0 -0.56293748064E+00 -0.14103249681E+01 -0.27279384204E+02  0.27321616308E+02  0.00000000000E+00 0.  1.
          1    1    3    3  501    0 -0.22857200663E+02 -0.57501667436E+02 -0.73222058677E+03  0.73483051180E+03  0.00000000000E+00 0.  1.
         21    1    1    2  502  501  0.23420138144E+02  0.58911992405E+02 -0.23497290169E+03  0.24337499922E+03  0.00000000000E+00 0.  1.
<mgrwt>
<rscale>  1 0.30000000E+03</rscale>
<asrwt>0</asrwt>
<pdfrwt beam="1">  1        3 0.20098687E-01 0.30000000E+03</pdfrwt>
<pdfrwt beam="2">0</pdfrwt>
<totfact> 0.99060741E+01</totfact>
</mgrwt>
</event>
<event>
 6    1  0.1956957E-002  0.3000000E+03  0.7818608E-02  0.1093470E+00
          1   -1    0    0  502    0  0.00000000000E+00  0.00000000000E+00  0.35758967484E+01  0.35758967484E+01  0.00000000000E+00 0.  1.
         13   -1    0    0    0    0 -0.00000000000E+00 -0.00000000000E+00 -0.10000000000E+04  0.10000000000E+04  0.00000000000E+00 0.  1.
    9000005    2    1    2  501    0  0.44398618344E+02  0.37518357195E+02 -0.61385090538E+03  0.61661192405E+03  0.42972556621E+01 0.  0.
         13    1    3    3    0    0  0.17044490100E+02  0.16937791705E+02 -0.24420762649E+03  0.24538697656E+03  0.00000000000E+00 0.  1.
          3    1    3    3  501    0  0.27354128245E+02  0.20580565491E+02 -0.36964327889E+03  0.37122494748E+03  0.00000000000E+00 0.  1.
         21    1    1    2  502  501 -0.44398618344E+02 -0.37518357195E+02 -0.38257319787E+03  0.38696397270E+03  0.00000000000E+00 0.  1.
<mgrwt>
<rscale>  1 0.30000000E+03</rscale>
<asrwt>0</asrwt>
<pdfrwt beam="1">  1        1 0.13003288E-01 0.30000000E+03</pdfrwt>
<pdfrwt beam="2">0</pdfrwt>
<totfact> 0.52695475E+02</totfact>
</mgrwt>
</event>
<event>
 6    1  0.1956957E-002  0.3000000E+03  0.7818608E-02  0.1093470E+00
          1   -1    0    0  502    0  0.00000000000E+00  0.00000000000E+00  0.17618245947E+01  0.17618245947E+01  0.00000000000E+00 0.  1.
         13   -1    0    0    0    0 -0.00000000000E+00 -0.00000000000E+00 -0.10000000000E+04  0.10000000000E+04  0.00000000000E+00 0.  1.
    9000005    2    1    2  501    0 -0.26104985672E+02  0.21970636525E+02 -0.79025889992E+03  0.79100234515E+03  0.33766813680E+01 0.  0.
         13    1    3    3    0    0 -0.10456880706E+01  0.14971358402E+01 -0.58105015342E+02  0.58133705259E+02  0.00000000000E+00 0.  1.
          3    1    3    3  501    0 -0.25059297601E+02  0.20473500685E+02 -0.73215388458E+03  0.73286863989E+03  0.00000000000E+00 0.  1.
         21    1    1    2  502  501  0.26104985672E+02 -0.21970636525E+02 -0.20797927548E+03  0.21075947944E+03  0.00000000000E+00 0.  1.
<mgrwt>
<rscale>  1 0.30000000E+03</rscale>
<asrwt>0</asrwt>
<pdfrwt beam="1">  1        1 0.64066484E-02 0.30000000E+03</pdfrwt>
<pdfrwt beam="2">0</pdfrwt>
<totfact> 0.14045893E+03</totfact>
</mgrwt>
</event>
<event>
 6    1  0.1956957E-002  0.3000000E+03  0.7818608E-02  0.1093470E+00
          1   -1    0    0  502    0  0.00000000000E+00  0.00000000000E+00  0.11140950086E+01  0.11140950086E+01  0.00000000000E+00 0.  1.
         13   -1    0    0    0    0 -0.00000000000E+00 -0.00000000000E+00 -0.10000000000E+04  0.10000000000E+04  0.00000000000E+00 0.  1.
    9000005    2    1    2  501    0 -0.26748337022E+02 -0.19420919393E+02 -0.56008409782E+03  0.56106901593E+03  0.34056370140E+01 0.  0.
         13    1    3    3    0    0 -0.24661186485E+02 -0.18017711494E+02 -0.49963565824E+03  0.50056828009E+03  0.00000000000E+00 0.  1.
          3    1    3    3  501    0 -0.20871505364E+01 -0.14032078988E+01 -0.60448439578E+02  0.60500735840E+02  0.00000000000E+00 0.  1.
         21    1    1    2  502  501  0.26748337022E+02  0.19420919393E+02 -0.43880180718E+03  0.44004507908E+03  0.00000000000E+00 0.  1.
<mgrwt>
<rscale>  1 0.30000000E+03</rscale>
<asrwt>0</asrwt>
<pdfrwt beam="1">  1        1 0.40512631E-02 0.30000000E+03</pdfrwt>
<pdfrwt beam="2">0</pdfrwt>
<totfact> 0.26745662E+03</totfact>
</mgrwt>
</event>
<event>
 6    1  0.1956957E-002  0.3000000E+03  0.7818608E-02  0.1093470E+00
          3   -1    0    0  502    0  0.00000000000E+00  0.00000000000E+00  0.21172655907E+01  0.21172655907E+01  0.00000000000E+00 0.  1.
         13   -1    0    0    0    0 -0.00000000000E+00 -0.00000000000E+00 -0.10000000000E+04  0.10000000000E+04  0.00000000000E+00 0.  1.
    9000005    2    1    2  501    0  0.35024773714E+02  0.29035010697E+02 -0.57026449916E+03  0.57208572984E+03  0.32736322005E+01 0.  0.
         13    1    3    3    0    0  0.28057971655E+02  0.24025067626E+02 -0.44776580497E+03  0.44928684573E+03  0.00000000000E+00 0.  1.
          3    1    3    3  501    0  0.69668020594E+01  0.50099430709E+01 -0.12249869419E+03  0.12279888411E+03  0.00000000000E+00 0.  1.
         21    1    1    2  502  501 -0.35024773714E+02 -0.29035010697E+02 -0.42761823525E+03  0.43003153575E+03  0.00000000000E+00 0.  1.
<mgrwt>
<rscale>  1 0.30000000E+03</rscale>
<asrwt>0</asrwt>
<pdfrwt beam="1">  1        3 0.76991638E-02 0.30000000E+03</pdfrwt>
<pdfrwt beam="2">0</pdfrwt>
<totfact> 0.50376031E+02</totfact>
</mgrwt>
</event>
<event>
 6    1  0.1956957E-002  0.3000000E+03  0.7818608E-02  0.1093470E+00
          1   -1    0    0  502    0  0.00000000000E+00  0.00000000000E+00  0.31976168324E+01  0.31976168324E+01  0.00000000000E+00 0.  1.
         13   -1    0    0    0    0 -0.00000000000E+00 -0.00000000000E+00 -0.10000000000E+04  0.10000000000E+04  0.00000000000E+00 0.  1.
    9000005    2    1    2  501    0  0.51457951759E+02 -0.60281348375E+01 -0.69874153877E+03  0.70066740979E+03  0.32896706512E+01 0.  0.
         13    1    3    3    0    0  0.28791796417E+02 -0.22381749211E+01 -0.37304831542E+03  0.37416443258E+03  0.00000000000E+00 0.  1.
          1    1    3    3  501    0  0.22666155342E+02 -0.37899599164E+01 -0.32569322335E+03  0.32650297721E+03  0.00000000000E+00 0.  1.
         21    1    1    2  502  501 -0.51457951759E+02  0.60281348375E+01 -0.29806084440E+03  0.30253020704E+03  0.00000000000E+00 0.  1.
<mgrwt>
<rscale>  1 0.30000000E+03</rscale>
<asrwt>0</asrwt>
<pdfrwt beam="1">  1        1 0.11627722E-01 0.30000000E+03</pdfrwt>
<pdfrwt beam="2">0</pdfrwt>
<totfact> 0.61414779E+02</totfact>
</mgrwt>
</event>
<event>
 6    1  0.1956957E-002  0.3000000E+03  0.7818608E-02  0.1093470E+00
          1   -1    0    0  502    0  0.00000000000E+00  0.00000000000E+00  0.21152814338E+01  0.21152814338E+01  0.00000000000E+00 0.  1.
         13   -1    0    0    0    0 -0.00000000000E+00 -0.00000000000E+00 -0.10000000000E+04  0.10000000000E+04  0.00000000000E+00 0.  1.
    9000005    2    1    2  501    0 -0.37292820966E+02 -0.24350593101E+02 -0.62215702434E+03  0.62375697758E+03  0.31142053887E+01 0.  0.
         13    1    3    3    0    0 -0.32054976325E+02 -0.22149783213E+02 -0.54058823790E+03  0.54199056944E+03  0.00000000000E+00 0.  1.
          3    1    3    3  501    0 -0.52378446407E+01 -0.22008098880E+01 -0.81568786431E+02  0.81766408142E+02  0.00000000000E+00 0.  1.
         21    1    1    2  502  501  0.37292820966E+02  0.24350593101E+02 -0.37572769423E+03  0.37835830385E+03  0.00000000000E+00 0.  1.
<mgrwt>
<rscale>  1 0.30000000E+03</rscale>
<asrwt>0</asrwt>
<pdfrwt beam="1">  1        1 0.76919487E-02 0.30000000E+03</pdfrwt>
<pdfrwt beam="2">0</pdfrwt>
<totfact> 0.10877585E+03</totfact>
</mgrwt>
</event>
<event>
 6    1  0.1956957E-002  0.3000000E+03  0.7818608E-02  0.1093470E+00
          3   -1    0    0  502    0  0.00000000000E+00  0.00000000000E+00  0.19036183961E+01  0.19036183961E+01  0.00000000000E+00 0.  1.
         13   -1    0    0    0    0 -0.00000000000E+00 -0.00000000000E+00 -0.10000000000E+04  0.10000000000E+04  0.00000000000E+00 0.  1.
    9000005    2    1    2  501    0  0.46884347055E+01 -0.43013742432E+02 -0.44078225663E+03  0.44291238649E+03  0.31970117316E+01 0.  0.
         13    1    3    3    0    0  0.29792136078E+01 -0.32207740040E+02 -0.34199719182E+03  0.34352335211E+03  0.00000000000E+00 0.  1.
          3    1    3    3  501    0  0.17092210978E+01 -0.10806002393E+02 -0.98785064816E+02  0.99389034381E+02  0.00000000000E+00 0.  1.
         21    1    1    2  502  501 -0.46884347055E+01  0.43013742432E+02 -0.55731412497E+03  0.55899123191E+03  0.00000000000E+00 0.  1.
<mgrwt>
<rscale>  1 0.30000000E+03</rscale>
<asrwt>0</asrwt>
<pdfrwt beam="1">  1        3 0.69222633E-02 0.30000000E+03</pdfrwt>
<pdfrwt beam="2">0</pdfrwt>
<totfact> 0.59613865E+02</totfact>
</mgrwt>
</event>
<event>
 6    1  0.1956957E-002  0.3000000E+03  0.7818608E-02  0.1093470E+00
          1   -1    0    0  502    0  0.00000000000E+00  0.00000000000E+00  0.10118246150E+02  0.10118246150E+02  0.00000000000E+00 0.  1.
         13   -1    0    0    0    0 -0.00000000000E+00 -0.00000000000E+00 -0.10000000000E+04  0.10000000000E+04  0.00000000000E+00 0.  1.
    9000005    2    1    2  501    0 -0.62435948678E+02 -0.19131017799E+02 -0.87906473425E+03  0.88149221705E+03  0.30786662722E+01 0.  0.
         13    1    3    3    0    0 -0.35470344893E+02 -0.12457275387E+02 -0.50428710056E+03  0.50568647289E+03  0.00000000000E+00 0.  1.
          3    1    3    3  501    0 -0.26965603785E+02 -0.66737424116E+01 -0.37477763369E+03  0.37580574415E+03  0.00000000000E+00 0.  1.
         21    1    1    2  502  501  0.62435948678E+02  0.19131017799E+02 -0.11081701960E+03  0.12862602910E+03  0.00000000000E+00 0.  1.
<mgrwt>
<rscale>  1 0.30000000E+03</rscale>
<asrwt>0</asrwt>
<pdfrwt beam="1">  1        1 0.36793700E-01 0.30000000E+03</pdfrwt>
<pdfrwt beam="2">0</pdfrwt>
<totfact> 0.13183005E+02</totfact>
</mgrwt>
</event>
<event>
 6    1  0.1956957E-002  0.3000000E+03  0.7818608E-02  0.1093470E+00
          1   -1    0    0  502    0  0.00000000000E+00  0.00000000000E+00  0.29355337684E+01  0.29355337684E+01  0.00000000000E+00 0.  1.
         13   -1    0    0    0    0 -0.00000000000E+00 -0.00000000000E+00 -0.10000000000E+04  0.10000000000E+04  0.00000000000E+00 0.  1.
    9000005    2    1    2  501    0 -0.23359035118E+02  0.46839442642E+02 -0.62484808198E+03  0.62705707653E+03  0.50866262563E+01 0.  0.
         13    1    3    3    0    0 -0.12741817934E+02  0.30290147248E+02 -0.40574327314E+03  0.40707180036E+03  0.00000000000E+00 0.  1.
          3    1    3    3  501    0 -0.10617217184E+02  0.16549295395E+02 -0.21910480884E+03  0.21998527618E+03  0.00000000000E+00 0.  1.
         21    1    1    2  502  501  0.23359035118E+02 -0.46839442642E+02 -0.37221638425E+03  0.37587845724E+03  0.00000000000E+00 0.  1.
<mgrwt>
<rscale>  1 0.30000000E+03</rscale>
<asrwt>0</asrwt>
<pdfrwt beam="1">  1        1 0.10674691E-01 0.30000000E+03</pdfrwt>
<pdfrwt beam="2">0</pdfrwt>
<totfact> 0.69070586E+02</totfact>
</mgrwt>
</event>
<event>
 6    1  0.1956957E-002  0.3000000E+03  0.7818608E-02  0.1093470E+00
          3   -1    0    0  502    0  0.00000000000E+00  0.00000000000E+00  0.24081654989E+01  0.24081654989E+01  0.00000000000E+00 0.  1.
         13   -1    0    0    0    0 -0.00000000000E+00 -0.00000000000E+00 -0.10000000000E+04  0.10000000000E+04  0.00000000000E+00 0.  1.
    9000005    2    1    2  501    0  0.31248769506E+02 -0.37640430198E+02 -0.52805647188E+03  0.53033111212E+03  0.37634292977E+01 0.  0.
         13    1    3    3    0    0  0.25658493387E+02 -0.32943403684E+02 -0.45269467835E+03  0.45461642946E+03  0.00000000000E+00 0.  1.
          3    1    3    3  501    0  0.55902761193E+01 -0.46970265142E+01 -0.75361793533E+02  0.75714682656E+02  0.00000000000E+00 0.  1.
         21    1    1    2  502  501 -0.31248769506E+02  0.37640430198E+02 -0.46953536262E+03  0.47207705338E+03  0.00000000000E+00 0.  1.
<mgrwt>
<rscale>  1 0.30000000E+03</rscale>
<asrwt>0</asrwt>
<pdfrwt beam="1">  1        3 0.87569839E-02 0.30000000E+03</pdfrwt>
<pdfrwt beam="2">0</pdfrwt>
<totfact> 0.40994634E+02</totfact>
</mgrwt>
</event>
<event>
 6    1  0.1956957E-002  0.3000000E+03  0.7818608E-02  0.1093470E+00
          1   -1    0    0  502    0  0.00000000000E+00  0.00000000000E+00  0.15287682197E+02  0.15287682197E+02  0.00000000000E+00 0.  1.
         13   -1    0    0    0    0 -0.00000000000E+00 -0.00000000000E+00 -0.10000000000E+04  0.10000000000E+04  0.00000000000E+00 0.  1.
    9000005    2    1    2  501    0  0.89461208471E+02 -0.67088134000E+02 -0.70861000666E+03  0.71740077117E+03  0.56213332694E+01 0.  0.
         13    1    3    3    0    0  0.68679835723E+02 -0.53311543885E+02 -0.53859543168E+03  0.54556766727E+03  0.00000000000E+00 0.  1.
          1    1    3    3  501    0  0.20781372748E+02 -0.13776590115E+02 -0.17001457499E+03  0.17183310390E+03  0.00000000000E+00 0.  1.
         21    1    1    2  502  501 -0.89461208471E+02  0.67088134000E+02 -0.27610231114E+03  0.29788691103E+03  0.00000000000E+00 0.  1.
<mgrwt>
<rscale>  1 0.30000000E+03</rscale>
<asrwt>0</asrwt>
<pdfrwt beam="1">  1        1 0.55591689E-01 0.30000000E+03</pdfrwt>
<pdfrwt beam="2">0</pdfrwt>
<totfact> 0.76729486E+01</totfact>
</mgrwt>
</event>
<event>
 6    1  0.1956957E-002  0.3000000E+03  0.7818608E-02  0.1093470E+00
          1   -1    0    0  502    0  0.00000000000E+00  0.00000000000E+00  0.28823206461E+01  0.28823206461E+01  0.00000000000E+00 0.  1.
         13   -1    0    0    0    0 -0.00000000000E+00 -0.00000000000E+00 -0.10000000000E+04  0.10000000000E+04  0.00000000000E+00 0.  1.
    9000005    2    1    2  501    0 -0.33540292699E+02  0.12612331937E+02 -0.87153191080E+03  0.87228443623E+03  0.53145076560E+01 0.  0.
         13    1    3    3    0    0 -0.22320404001E+02  0.11018516823E+02 -0.59625593903E+03  0.59677529521E+03  0.00000000000E+00 0.  1.
          3    1    3    3  501    0 -0.11219888698E+02  0.15938151138E+01 -0.27527597177E+03  0.27550914102E+03  0.00000000000E+00 0.  1.
         21    1    1    2  502  501  0.33540292699E+02 -0.12612331937E+02 -0.12558576856E+03  0.13059788442E+03  0.00000000000E+00 0.  1.
<mgrwt>
<rscale>  1 0.30000000E+03</rscale>
<asrwt>0</asrwt>
<pdfrwt beam="1">  1        1 0.10481188E-01 0.30000000E+03</pdfrwt>
<pdfrwt beam="2">0</pdfrwt>
<totfact> 0.70832027E+02</totfact>
</mgrwt>
</event>
<event>
 6    1  0.1956957E-002  0.3000000E+03  0.7818608E-02  0.1093470E+00
          1   -1    0    0  502    0  0.00000000000E+00  0.00000000000E+00  0.26482188463E+01  0.26482188463E+01  0.00000000000E+00 0.  1.
         13   -1    0    0    0    0 -0.00000000000E+00 -0.00000000000E+00 -0.10000000000E+04  0.10000000000E+04  0.00000000000E+00 0.  1.
    9000005    2    1    2  501    0 -0.29626532887E+02  0.35056244585E+02 -0.72479815129E+03  0.72625691492E+03  0.31740537945E+01 0.  0.
         13    1    3    3    0    0 -0.22262698748E+02  0.28063081996E+02 -0.55327457667E+03  0.55443297297E+03  0.00000000000E+00 0.  1.
          1    1    3    3  501    0 -0.73638341393E+01  0.69931625883E+01 -0.17152357462E+03  0.17182394195E+03  0.00000000000E+00 0.  1.
         21    1    1    2  502  501  0.29626532887E+02 -0.35056244585E+02 -0.27255362986E+03  0.27639130393E+03  0.00000000000E+00 0.  1.
<mgrwt>
<rscale>  1 0.30000000E+03</rscale>
<asrwt>0</asrwt>
<pdfrwt beam="1">  1        1 0.96299070E-02 0.30000000E+03</pdfrwt>
<pdfrwt beam="2">0</pdfrwt>
<totfact> 0.79616414E+02</totfact>
</mgrwt>
</event>
<event>
 6    1  0.1956957E-002  0.3000000E+03  0.7818608E-02  0.1093470E+00
          1   -1    0    0  502    0  0.00000000000E+00  0.00000000000E+00  0.95028529168E+00  0.95028529168E+00  0.00000000000E+00 0.  1.
         13   -1    0    0    0    0 -0.00000000000E+00 -0.00000000000E+00 -0.10000000000E+04  0.10000000000E+04  0.00000000000E+00 0.  1.
    9000005    2    1    2  501    0 -0.30405003628E+02 -0.10676035611E+01 -0.42520207598E+03  0.42629672314E+03  0.25469033451E+01 0.  0.
         13    1    3    3    0    0 -0.28835015083E+02 -0.45756422266E+00 -0.40376112548E+03  0.40478971567E+03  0.00000000000E+00 0.  1.
          1    1    3    3  501    0 -0.15699885447E+01 -0.61003933841E+00 -0.21440950497E+02  0.21507007468E+02  0.00000000000E+00 0.  1.
         21    1    1    2  502  501  0.30405003628E+02  0.10676035611E+01 -0.57384763873E+03  0.57465356216E+03  0.00000000000E+00 0.  1.
<mgrwt>
<rscale>  1 0.30000000E+03</rscale>
<asrwt>0</asrwt>
<pdfrwt beam="1">  1        1 0.34555902E-02 0.30000000E+03</pdfrwt>
<pdfrwt beam="2">0</pdfrwt>
<totfact> 0.33454264E+03</totfact>
</mgrwt>
</event>
<event>
 6    1  0.1956957E-002  0.3000000E+03  0.7818608E-02  0.1093470E+00
          1   -1    0    0  502    0  0.00000000000E+00  0.00000000000E+00  0.13409110418E+01  0.13409110418E+01  0.00000000000E+00 0.  1.
         13   -1    0    0    0    0 -0.00000000000E+00 -0.00000000000E+00 -0.10000000000E+04  0.10000000000E+04  0.00000000000E+00 0.  1.
    9000005    2    1    2  501    0 -0.17535130691E+01  0.30298511431E+02 -0.77816187799E+03  0.77876486865E+03  0.42116125197E+01 0.  0.
         13    1    3    3    0    0 -0.16886054628E+01  0.40998205257E+01 -0.11875889453E+03  0.11884163810E+03  0.00000000000E+00 0.  1.
          3    1    3    3  501    0 -0.64907606275E-01  0.26198690906E+02 -0.65940298346E+03  0.65992323054E+03  0.00000000000E+00 0.  1.
         21    1    1    2  502  501  0.17535130691E+01 -0.30298511431E+02 -0.22049721097E+03  0.22257604240E+03  0.00000000000E+00 0.  1.
<mgrwt>
<rscale>  1 0.30000000E+03</rscale>
<asrwt>0</asrwt>
<pdfrwt beam="1">  1        1 0.48760504E-02 0.30000000E+03</pdfrwt>
<pdfrwt beam="2">0</pdfrwt>
<totfact> 0.20606070E+03</totfact>
</mgrwt>
</event>
<event>
 6    1  0.1956957E-002  0.3000000E+03  0.7818608E-02  0.1093470E+00
          3   -1    0    0  502    0  0.00000000000E+00  0.00000000000E+00  0.10441787752E+01  0.10441787752E+01  0.00000000000E+00 0.  1.
         13   -1    0    0    0    0 -0.00000000000E+00 -0.00000000000E+00 -0.10000000000E+04  0.10000000000E+04  0.00000000000E+00 0.  1.
    9000005    2    1    2  501    0 -0.18341785104E+02  0.25802994777E+02 -0.40551372403E+03  0.40675827255E+03  0.29489468287E+01 0.  0.
         13    1    3    3    0    0 -0.83753050811E+01  0.12719268141E+02 -0.21254039101E+03  0.21308529590E+03  0.00000000000E+00 0.  1.
          1    1    3    3  501    0 -0.99664800225E+01  0.13083726636E+02 -0.19297333302E+03  0.19367297665E+03  0.00000000000E+00 0.  1.
         21    1    1    2  502  501  0.18341785104E+02 -0.25802994777E+02 -0.59344209719E+03  0.59428590623E+03  0.00000000000E+00 0.  1.
<mgrwt>
<rscale>  1 0.30000000E+03</rscale>
<asrwt>0</asrwt>
<pdfrwt beam="1">  1        3 0.37970217E-02 0.30000000E+03</pdfrwt>
<pdfrwt beam="2">0</pdfrwt>
<totfact> 0.15115284E+03</totfact>
</mgrwt>
</event>
<event>
 6    1  0.1956957E-002  0.3000000E+03  0.7818608E-02  0.1093470E+00
          3   -1    0    0  502    0  0.00000000000E+00  0.00000000000E+00  0.10941064252E+01  0.10941064252E+01  0.00000000000E+00 0.  1.
         13   -1    0    0    0    0 -0.00000000000E+00 -0.00000000000E+00 -0.10000000000E+04  0.10000000000E+04  0.00000000000E+00 0.  1.
    9000005    2    1    2  501    0 -0.23812004493E+02 -0.20381909394E+02 -0.65122161998E+03  0.65199986715E+03  0.56386743554E+01 0.  0.
         13    1    3    3    0    0 -0.69216297004E+01 -0.95003933777E+01 -0.24201911803E+03  0.24230439518E+03  0.00000000000E+00 0.  1.
          3    1    3    3  501    0 -0.16890374793E+02 -0.10881516016E+02 -0.40920250195E+03  0.40969547197E+03  0.00000000000E+00 0.  1.
         21    1    1    2  502  501  0.23812004493E+02  0.20381909394E+02 -0.34768427360E+03  0.34909423928E+03  0.00000000000E+00 0.  1.
<mgrwt>
<rscale>  1 0.30000000E+03</rscale>
<asrwt>0</asrwt>
<pdfrwt beam="1">  1        3 0.39785772E-02 0.30000000E+03</pdfrwt>
<pdfrwt beam="2">0</pdfrwt>
<totfact> 0.14068231E+03</totfact>
</mgrwt>
</event>
<event>
 6    1  0.1956957E-002  0.3000000E+03  0.7818608E-02  0.1093470E+00
          1   -1    0    0  502    0  0.00000000000E+00  0.00000000000E+00  0.64773872147E+01  0.64773872147E+01  0.00000000000E+00 0.  1.
         13   -1    0    0    0    0 -0.00000000000E+00 -0.00000000000E+00 -0.10000000000E+04  0.10000000000E+04  0.00000000000E+00 0.  1.
    9000005    2    1    2  501    0  0.40145347060E+02  0.11086974623E+02 -0.92733202606E+03  0.92827403902E+03  0.36653891598E+01 0.  0.
         13    1    3    3    0    0  0.14071862267E+02  0.30735118158E+01 -0.35591903389E+03  0.35621036266E+03  0.00000000000E+00 0.  1.
          1    1    3    3  501    0  0.26073484793E+02  0.80134628072E+01 -0.57141299217E+03  0.57206367636E+03  0.00000000000E+00 0.  1.
         21    1    1    2  502  501 -0.40145347060E+02 -0.11086974623E+02 -0.66190586728E+02  0.78203348191E+02  0.00000000000E+00 0.  1.
<mgrwt>
<rscale>  1 0.30000000E+03</rscale>
<asrwt>0</asrwt>
<pdfrwt beam="1">  1        1 0.23554185E-01 0.30000000E+03</pdfrwt>
<pdfrwt beam="2">0</pdfrwt>
<totfact> 0.23687716E+02</totfact>
</mgrwt>
</event>
<event>
 6    1  0.1956957E-002  0.3000000E+03  0.7818608E-02  0.1093470E+00
          3   -1    0    0  502    0  0.00000000000E+00  0.00000000000E+00  0.12249681883E+01  0.12249681883E+01  0.00000000000E+00 0.  1.
         13   -1    0    0    0    0 -0.00000000000E+00 -0.00000000000E+00 -0.10000000000E+04  0.10000000000E+04  0.00000000000E+00 0.  1.
    9000005    2    1    2  501    0 -0.11385906212E+02 -0.30574699987E+02 -0.67747559012E+03  0.67827329630E+03  0.41277275823E+01 0.  0.
         13    1    3    3    0    0 -0.85076452456E+01 -0.18647715959E+02 -0.39516387744E+03  0.39569509394E+03  0.00000000000E+00 0.  1.
          3    1    3    3  501    0 -0.28782609661E+01 -0.11926984028E+02 -0.28231171268E+03  0.28257820236E+03  0.00000000000E+00 0.  1.
         21    1    1    2  502  501  0.11385906212E+02  0.30574699987E+02 -0.32129944170E+03  0.32295167189E+03  0.00000000000E+00 0.  1.
<mgrwt>
<rscale>  1 0.30000000E+03</rscale>
<asrwt>0</asrwt>
<pdfrwt beam="1">  1        3 0.44544392E-02 0.30000000E+03</pdfrwt>
<pdfrwt beam="2">0</pdfrwt>
<totfact> 0.11825038E+03</totfact>
</mgrwt>
</event>
<event>
 6    1  0.1956957E-002  0.3000000E+03  0.7818608E-02  0.1093470E+00
          1   -1    0    0  502    0  0.00000000000E+00  0.00000000000E+00  0.15963655886E+02  0.15963655886E+02  0.00000000000E+00 0.  1.
         13   -1    0    0    0    0 -0.00000000000E+00 -0.00000000000E+00 -0.10000000000E+04  0.10000000000E+04  0.00000000000E+00 0.  1.
    9000005    2    1    2  501    0 -0.25105251247E+02  0.83254776115E+02 -0.86051361635E+03  0.86490242439E+03  0.32997590696E+01 0.  0.
         13    1    3    3    0    0 -0.11407459722E+02  0.32764066087E+02 -0.34996023142E+03  0.35167567124E+03  0.00000000000E+00 0.  1.
          1    1    3    3  501    0 -0.13697791525E+02  0.50490710027E+02 -0.51055338493E+03  0.51322675315E+03  0.00000000000E+00 0.  1.
         21    1    1    2  502  501  0.25105251247E+02 -0.83254776115E+02 -0.12352272776E+03  0.15106123149E+03  0.00000000000E+00 0.  1.
<mgrwt>
<rscale>  1 0.30000000E+03</rscale>
<asrwt>0</asrwt>
<pdfrwt beam="1">  1        1 0.58049780E-01 0.30000000E+03</pdfrwt>
<pdfrwt beam="2">0</pdfrwt>
<totfact> 0.72454332E+01</totfact>
</mgrwt>
</event>
<event>
 6    1  0.1956957E-002  0.3000000E+03  0.7818608E-02  0.1093470E+00
          1   -1    0    0  502    0  0.00000000000E+00  0.00000000000E+00  0.16500725473E+01  0.16500725473E+01  0.00000000000E+00 0.  1.
         13   -1    0    0    0    0 -0.00000000000E+00 -0.00000000000E+00 -0.10000000000E+04  0.10000000000E+04  0.00000000000E+00 0.  1.
    9000005    2    1    2  501    0 -0.74103933807E+01 -0.30615518090E+02 -0.81485088119E+03  0.81546703396E+03  0.35072814087E+01 0.  0.
         13    1    3    3    0    0 -0.72661714973E+01 -0.28326834053E+02 -0.73081888698E+03  0.73140375467E+03  0.00000000000E+00 0.  1.
          1    1    3    3  501    0 -0.14422188341E+00 -0.22886840369E+01 -0.84031994213E+02  0.84063279295E+02  0.00000000000E+00 0.  1.
         21    1    1    2  502  501  0.74103933807E+01  0.30615518090E+02 -0.18349904626E+03  0.18618303858E+03  0.00000000000E+00 0.  1.
<mgrwt>
<rscale>  1 0.30000000E+03</rscale>
<asrwt>0</asrwt>
<pdfrwt beam="1">  1        1 0.60002765E-02 0.30000000E+03</pdfrwt>
<pdfrwt beam="2">0</pdfrwt>
<totfact> 0.15397457E+03</totfact>
</mgrwt>
</event>
<event>
 6    1  0.1956957E-002  0.3000000E+03  0.7818608E-02  0.1093470E+00
          1   -1    0    0  502    0  0.00000000000E+00  0.00000000000E+00  0.15671581605E+01  0.15671581605E+01  0.00000000000E+00 0.  1.
         13   -1    0    0    0    0 -0.00000000000E+00 -0.00000000000E+00 -0.10000000000E+04  0.10000000000E+04  0.00000000000E+00 0.  1.
    9000005    2    1    2  501    0  0.34756814121E+02  0.16284040592E+02 -0.61902275619E+03  0.62022057145E+03  0.33434201729E+01 0.  0.
         13    1    3    3    0    0  0.24135243380E+02  0.12336872826E+02 -0.45536056781E+03  0.45616658702E+03  0.00000000000E+00 0.  1.
          3    1    3    3  501    0  0.10621570741E+02  0.39471677655E+01 -0.16366218839E+03  0.16405398442E+03  0.00000000000E+00 0.  1.
         21    1    1    2  502  501 -0.34756814121E+02 -0.16284040592E+02 -0.37941008565E+03  0.38134658671E+03  0.00000000000E+00 0.  1.
<mgrwt>
<rscale>  1 0.30000000E+03</rscale>
<asrwt>0</asrwt>
<pdfrwt beam="1">  1        1 0.56987690E-02 0.30000000E+03</pdfrwt>
<pdfrwt beam="2">0</pdfrwt>
<totfact> 0.16552808E+03</totfact>
</mgrwt>
</event>
<event>
 6    1  0.1956957E-002  0.3000000E+03  0.7818608E-02  0.1093470E+00
          1   -1    0    0  502    0  0.00000000000E+00  0.00000000000E+00  0.42329707921E+01  0.42329707921E+01  0.00000000000E+00 0.  1.
         13   -1    0    0    0    0 -0.00000000000E+00 -0.00000000000E+00 -0.10000000000E+04  0.10000000000E+04  0.00000000000E+00 0.  1.
    9000005    2    1    2  501    0 -0.28082255030E+02 -0.22049002220E+02 -0.91756610504E+03  0.91826695374E+03  0.34452391293E+01 0.  0.
         13    1    3    3    0    0 -0.21836882837E+02 -0.18154164824E+02 -0.69766913268E+03  0.69824683447E+03  0.00000000000E+00 0.  1.
          1    1    3    3  501    0 -0.62453721932E+01 -0.38948373957E+01 -0.21989697236E+03  0.22002011927E+03  0.00000000000E+00 0.  1.
         21    1    1    2  502  501  0.28082255030E+02  0.22049002220E+02 -0.78200924168E+02  0.85966017048E+02  0.00000000000E+00 0.  1.
<mgrwt>
<rscale>  1 0.30000000E+03</rscale>
<asrwt>0</asrwt>
<pdfrwt beam="1">  1        1 0.15392654E-01 0.30000000E+03</pdfrwt>
<pdfrwt beam="2">0</pdfrwt>
<totfact> 0.41885912E+02</totfact>
</mgrwt>
</event>
<event>
 6    1  0.1956957E-002  0.3000000E+03  0.7818608E-02  0.1093470E+00
          3   -1    0    0  502    0  0.00000000000E+00  0.00000000000E+00  0.15480191189E+01  0.15480191189E+01  0.00000000000E+00 0.  1.
         13   -1    0    0    0    0 -0.00000000000E+00 -0.00000000000E+00 -0.10000000000E+04  0.10000000000E+04  0.00000000000E+00 0.  1.
    9000005    2    1    2  501    0  0.33217139568E+02 -0.16438667021E+02 -0.66418410672E+03  0.66523176939E+03  0.43784990238E+01 0.  0.
         13    1    3    3    0    0  0.33359308663E+02 -0.16353530449E+02 -0.66166928171E+03  0.66271149062E+03  0.00000000000E+00 0.  1.
          1    1    3    3  501    0 -0.14216909464E+00 -0.85136571503E-01 -0.25148250053E+01  0.25202787732E+01  0.00000000000E+00 0.  1.
         21    1    1    2  502  501 -0.33217139568E+02  0.16438667021E+02 -0.33426787416E+03  0.33631624973E+03  0.00000000000E+00 0.  1.
<mgrwt>
<rscale>  1 0.30000000E+03</rscale>
<asrwt>0</asrwt>
<pdfrwt beam="1">  1        3 0.56291723E-02 0.30000000E+03</pdfrwt>
<pdfrwt beam="2">0</pdfrwt>
<totfact> 0.82359492E+02</totfact>
</mgrwt>
</event>
<event>
 6    1  0.1956957E-002  0.3000000E+03  0.7818608E-02  0.1093470E+00
          1   -1    0    0  502    0  0.00000000000E+00  0.00000000000E+00  0.24476432767E+02  0.24476432767E+02  0.00000000000E+00 0.  1.
         13   -1    0    0    0    0 -0.00000000000E+00 -0.00000000000E+00 -0.10000000000E+04  0.10000000000E+04  0.00000000000E+00 0.  1.
    9000005    2    1    2  501    0  0.43648261157E+02  0.10729812716E+03 -0.14358416913E+03  0.18451142105E+03  0.31610250043E+01 0.  0.
         13    1    3    3    0    0  0.12191544806E+02  0.29360404217E+02 -0.37213150584E+02  0.48943699052E+02  0.00000000000E+00 0.  1.
          1    1    3    3  501    0  0.31456716351E+02  0.77937722941E+02 -0.10637101854E+03  0.13556772199E+03  0.00000000000E+00 0.  1.
         21    1    1    2  502  501 -0.43648261157E+02 -0.10729812716E+03 -0.83193939811E+03  0.83996501172E+03  0.00000000000E+00 0.  1.
<mgrwt>
<rscale>  1 0.30000000E+03</rscale>
<asrwt>0</asrwt>
<pdfrwt beam="1">  1        1 0.89005398E-01 0.30000000E+03</pdfrwt>
<pdfrwt beam="2">0</pdfrwt>
<totfact> 0.40463412E+01</totfact>
</mgrwt>
</event>
<event>
 6    1  0.1956957E-002  0.3000000E+03  0.7818608E-02  0.1093470E+00
          1   -1    0    0  502    0  0.00000000000E+00  0.00000000000E+00  0.12509391712E+01  0.12509391712E+01  0.00000000000E+00 0.  1.
         13   -1    0    0    0    0 -0.00000000000E+00 -0.00000000000E+00 -0.10000000000E+04  0.10000000000E+04  0.00000000000E+00 0.  1.
    9000005    2    1    2  501    0 -0.33882031299E+01  0.34070847033E+02 -0.59714517430E+03  0.59819016930E+03  0.87645258673E+01 0.  0.
         13    1    3    3    0    0  0.48477179402E+00  0.19723234763E+01 -0.13685205513E+02  0.13835097164E+02  0.00000000000E+00 0.  1.
          3    1    3    3  501    0 -0.38729749239E+01  0.32098523557E+02 -0.58345996879E+03  0.58435507214E+03  0.00000000000E+00 0.  1.
         21    1    1    2  502  501  0.33882031299E+01 -0.34070847033E+02 -0.40160388652E+03  0.40306076987E+03  0.00000000000E+00 0.  1.
<mgrwt>
<rscale>  1 0.30000000E+03</rscale>
<asrwt>0</asrwt>
<pdfrwt beam="1">  1        1 0.45488793E-02 0.30000000E+03</pdfrwt>
<pdfrwt beam="2">0</pdfrwt>
<totfact> 0.22720760E+03</totfact>
</mgrwt>
</event>
<event>
 6    1  0.1956957E-002  0.3000000E+03  0.7818608E-02  0.1093470E+00
          1   -1    0    0  502    0  0.00000000000E+00  0.00000000000E+00  0.18589844394E+01  0.18589844394E+01  0.00000000000E+00 0.  1.
         13   -1    0    0    0    0 -0.00000000000E+00 -0.00000000000E+00 -0.10000000000E+04  0.10000000000E+04  0.00000000000E+00 0.  1.
    9000005    2    1    2  501    0 -0.60376136888E+00 -0.30589527839E+02 -0.14783548717E+03  0.15100319446E+03  0.32480343541E+01 0.  0.
         13    1    3    3    0    0  0.12510008070E-01 -0.77436212829E+01 -0.44710383604E+02  0.45376009401E+02  0.00000000000E+00 0.  1.
          3    1    3    3  501    0 -0.61627137695E+00 -0.22845906556E+02 -0.10312510357E+03  0.10562718506E+03  0.00000000000E+00 0.  1.
         21    1    1    2  502  501  0.60376136888E+00  0.30589527839E+02 -0.85030552839E+03  0.85085578998E+03  0.00000000000E+00 0.  1.
<mgrwt>
<rscale>  1 0.30000000E+03</rscale>
<asrwt>0</asrwt>
<pdfrwt beam="1">  1        1 0.67599577E-02 0.30000000E+03</pdfrwt>
<pdfrwt beam="2">0</pdfrwt>
<totfact> 0.13028807E+03</totfact>
</mgrwt>
</event>
<event>
 6    1  0.1956957E-002  0.3000000E+03  0.7818608E-02  0.1093470E+00
          1   -1    0    0  502    0  0.00000000000E+00  0.00000000000E+00  0.11267368695E+01  0.11267368695E+01  0.00000000000E+00 0.  1.
         13   -1    0    0    0    0 -0.00000000000E+00 -0.00000000000E+00 -0.10000000000E+04  0.10000000000E+04  0.00000000000E+00 0.  1.
    9000005    2    1    2  501    0  0.10084371860E+01 -0.32706781505E+02 -0.39711861225E+03  0.39848305246E+03  0.38471288940E+01 0.  0.
         13    1    3    3    0    0 -0.16712843041E+00 -0.44150086589E+01 -0.39887245207E+02  0.40131191903E+02  0.00000000000E+00 0.  1.
          1    1    3    3  501    0  0.11755656165E+01 -0.28291772846E+02 -0.35723136704E+03  0.35835186056E+03  0.00000000000E+00 0.  1.
         21    1    1    2  502  501 -0.10084371860E+01  0.32706781505E+02 -0.60175465088E+03  0.60264368441E+03  0.00000000000E+00 0.  1.
<mgrwt>
<rscale>  1 0.30000000E+03</rscale>
<asrwt>0</asrwt>
<pdfrwt beam="1">  1        1 0.40972336E-02 0.30000000E+03</pdfrwt>
<pdfrwt beam="2">0</pdfrwt>
<totfact> 0.26324116E+03</totfact>
</mgrwt>
</event>
<event>
 6    1  0.1956957E-002  0.3000000E+03  0.7818608E-02  0.1093470E+00
          3   -1    0    0  502    0  0.00000000000E+00  0.00000000000E+00  0.16963150826E+01  0.16963150826E+01  0.00000000000E+00 0.  1.
         13   -1    0    0    0    0 -0.00000000000E+00 -0.00000000000E+00 -0.10000000000E+04  0.10000000000E+04  0.00000000000E+00 0.  1.
    9000005    2    1    2  501    0  0.15721943896E+02  0.34267082526E+02 -0.69959567554E+03  0.70061843923E+03  0.32673663633E+01 0.  0.
         13    1    3    3    0    0  0.92249391712E+01  0.16485214459E+02 -0.33787951534E+03  0.33840719360E+03  0.00000000000E+00 0.  1.
          3    1    3    3  501    0  0.64970047251E+01  0.17781868067E+02 -0.36171616020E+03  0.36221124562E+03  0.00000000000E+00 0.  1.
         21    1    1    2  502  501 -0.15721943896E+02 -0.34267082526E+02 -0.29870800938E+03  0.30107787586E+03  0.00000000000E+00 0.  1.
<mgrwt>
<rscale>  1 0.30000000E+03</rscale>
<asrwt>0</asrwt>
<pdfrwt beam="1">  1        3 0.61684315E-02 0.30000000E+03</pdfrwt>
<pdfrwt beam="2">0</pdfrwt>
<totfact> 0.71417560E+02</totfact>
</mgrwt>
</event>
<event>
 6    1  0.1956957E-002  0.3000000E+03  0.7818608E-02  0.1093470E+00
          1   -1    0    0  502    0  0.00000000000E+00  0.00000000000E+00  0.93775561855E+00  0.93775561855E+00  0.00000000000E+00 0.  1.
         13   -1    0    0    0    0 -0.00000000000E+00 -0.00000000000E+00 -0.10000000000E+04  0.10000000000E+04  0.00000000000E+00 0.  1.
    9000005    2    1    2  501    0  0.22507727513E+02 -0.20589325740E+02 -0.51638273661E+03  0.51729529951E+03  0.35746454120E+01 0.  0.
         13    1    3    3    0    0  0.73503179193E+01 -0.90646200007E+01 -0.19889120734E+03  0.19923329758E+03  0.00000000000E+00 0.  1.
          1    1    3    3  501    0  0.15157409594E+02 -0.11524705739E+02 -0.31749152927E+03  0.31806200192E+03  0.00000000000E+00 0.  1.
         21    1    1    2  502  501 -0.22507727513E+02  0.20589325740E+02 -0.48267950777E+03  0.48364245611E+03  0.00000000000E+00 0.  1.
<mgrwt>
<rscale>  1 0.30000000E+03</rscale>
<asrwt>0</asrwt>
<pdfrwt beam="1">  1        1 0.34100276E-02 0.30000000E+03</pdfrwt>
<pdfrwt beam="2">0</pdfrwt>
<totfact> 0.34084503E+03</totfact>
</mgrwt>
</event>
<event>
 6    1  0.1956957E-002  0.3000000E+03  0.7818608E-02  0.1093470E+00
          1   -1    0    0  502    0  0.00000000000E+00  0.00000000000E+00  0.26815221705E+01  0.26815221705E+01  0.00000000000E+00 0.  1.
         13   -1    0    0    0    0 -0.00000000000E+00 -0.00000000000E+00 -0.10000000000E+04  0.10000000000E+04  0.00000000000E+00 0.  1.
    9000005    2    1    2  501    0 -0.38626241507E+02  0.17522468963E+01 -0.83175369132E+03  0.83266165441E+03  0.40212926414E+01 0.  0.
         13    1    3    3    0    0 -0.32018006578E+02  0.28265081748E+01 -0.70158293964E+03  0.70231884717E+03  0.00000000000E+00 0.  1.
          3    1    3    3  501    0 -0.66082349291E+01 -0.10742612785E+01 -0.13017075168E+03  0.13034280724E+03  0.00000000000E+00 0.  1.
         21    1    1    2  502  501  0.38626241507E+02 -0.17522468963E+01 -0.16556478651E+03  0.17001986776E+03  0.00000000000E+00 0.  1.
<mgrwt>
<rscale>  1 0.30000000E+03</rscale>
<asrwt>0</asrwt>
<pdfrwt beam="1">  1        1 0.97510103E-02 0.30000000E+03</pdfrwt>
<pdfrwt beam="2">0</pdfrwt>
<totfact> 0.78252286E+02</totfact>
</mgrwt>
</event>
<event>
 6    1  0.1956957E-002  0.3000000E+03  0.7818608E-02  0.1093470E+00
          3   -1    0    0  502    0  0.00000000000E+00  0.00000000000E+00  0.19700873541E+01  0.19700873541E+01  0.00000000000E+00 0.  1.
         13   -1    0    0    0    0 -0.00000000000E+00 -0.00000000000E+00 -0.10000000000E+04  0.10000000000E+04  0.00000000000E+00 0.  1.
    9000005    2    1    2  501    0 -0.43835870874E+02 -0.61713997451E+01 -0.49976260413E+03  0.50174015974E+03  0.45670180651E+01 0.  0.
         13    1    3    3    0    0 -0.20158370538E+02 -0.56390541883E+00 -0.22297357317E+03  0.22388365779E+03  0.00000000000E+00 0.  1.
          1    1    3    3  501    0 -0.23677500336E+02 -0.56074943263E+01 -0.27678903096E+03  0.27785650195E+03  0.00000000000E+00 0.  1.
         21    1    1    2  502  501  0.43835870874E+02  0.61713997451E+01 -0.49826730851E+03  0.50022992762E+03  0.00000000000E+00 0.  1.
<mgrwt>
<rscale>  1 0.30000000E+03</rscale>
<asrwt>0</asrwt>
<pdfrwt beam="1">  1        3 0.71639691E-02 0.30000000E+03</pdfrwt>
<pdfrwt beam="2">0</pdfrwt>
<totfact> 0.56473774E+02</totfact>
</mgrwt>
</event>
<event>
 6    1  0.1956957E-002  0.3000000E+03  0.7818608E-02  0.1093470E+00
          1   -1    0    0  502    0  0.00000000000E+00  0.00000000000E+00  0.15181516387E+01  0.15181516387E+01  0.00000000000E+00 0.  1.
         13   -1    0    0    0    0 -0.00000000000E+00 -0.00000000000E+00 -0.10000000000E+04  0.10000000000E+04  0.00000000000E+00 0.  1.
    9000005    2    1    2  501    0  0.35893644153E+02  0.14913865011E+02 -0.49270126052E+03  0.49424625206E+03  0.37481331285E+01 0.  0.
         13    1    3    3    0    0  0.98852937662E+01  0.30644940159E+01 -0.14874640649E+03  0.14910601463E+03  0.00000000000E+00 0.  1.
          3    1    3    3  501    0  0.26008350387E+02  0.11849370995E+02 -0.34395485403E+03  0.34514023743E+03  0.00000000000E+00 0.  1.
         21    1    1    2  502  501 -0.35893644153E+02 -0.14913865011E+02 -0.50578058784E+03  0.50727189957E+03  0.00000000000E+00 0.  1.
<mgrwt>
<rscale>  1 0.30000000E+03</rscale>
<asrwt>0</asrwt>
<pdfrwt beam="1">  1        1 0.55205631E-02 0.30000000E+03</pdfrwt>
<pdfrwt beam="2">0</pdfrwt>
<totfact> 0.17307857E+03</totfact>
</mgrwt>
</event>
<event>
 6    1  0.1956957E-002  0.3000000E+03  0.7818608E-02  0.1093470E+00
          3   -1    0    0  502    0  0.00000000000E+00  0.00000000000E+00  0.32367035044E+01  0.32367035044E+01  0.00000000000E+00 0.  1.
         13   -1    0    0    0    0 -0.00000000000E+00 -0.00000000000E+00 -0.10000000000E+04  0.10000000000E+04  0.00000000000E+00 0.  1.
    9000005    2    1    2  501    0  0.27951925969E+02 -0.11611085572E+02 -0.92288384634E+03  0.92339748614E+03  0.56741613659E+01 0.  0.
         13    1    3    3    0    0  0.36503249436E+01  0.35359435473E+00 -0.95661503676E+02  0.95731777309E+02  0.00000000000E+00 0.  1.
          3    1    3    3  501    0  0.24301601026E+02 -0.11964679926E+02 -0.82722234266E+03  0.82766570883E+03  0.00000000000E+00 0.  1.
         21    1    1    2  502  501 -0.27951925969E+02  0.11611085572E+02 -0.73879450158E+02  0.79839217363E+02  0.00000000000E+00 0.  1.
<mgrwt>
<rscale>  1 0.30000000E+03</rscale>
<asrwt>0</asrwt>
<pdfrwt beam="1">  1        3 0.11769856E-01 0.30000000E+03</pdfrwt>
<pdfrwt beam="2">0</pdfrwt>
<totfact> 0.25169303E+02</totfact>
</mgrwt>
</event>
<event>
 6    1  0.1956957E-002  0.3000000E+03  0.7818608E-02  0.1093470E+00
          1   -1    0    0  502    0  0.00000000000E+00  0.00000000000E+00  0.18890260222E+01  0.18890260222E+01  0.00000000000E+00 0.  1.
         13   -1    0    0    0    0 -0.00000000000E+00 -0.00000000000E+00 -0.10000000000E+04  0.10000000000E+04  0.00000000000E+00 0.  1.
    9000005    2    1    2  501    0 -0.14938892611E+02  0.37221424001E+02 -0.69093503752E+03  0.69210577784E+03  0.32521879015E+01 0.  0.
         13    1    3    3    0    0 -0.94940454316E+01  0.26811433741E+02 -0.50405886808E+03  0.50486070591E+03  0.00000000000E+00 0.  1.
          3    1    3    3  501    0 -0.54448471798E+01  0.10409990260E+02 -0.18687616944E+03  0.18724507193E+03  0.00000000000E+00 0.  1.
         21    1    1    2  502  501  0.14938892611E+02 -0.37221424001E+02 -0.30717593646E+03  0.30978324818E+03  0.00000000000E+00 0.  1.
<mgrwt>
<rscale>  1 0.30000000E+03</rscale>
<asrwt>0</asrwt>
<pdfrwt beam="1">  1        1 0.68692000E-02 0.30000000E+03</pdfrwt>
<pdfrwt beam="2">0</pdfrwt>
<totfact> 0.12739816E+03</totfact>
</mgrwt>
</event>
<event>
 6    1  0.1956957E-002  0.3000000E+03  0.7818608E-02  0.1093470E+00
          1   -1    0    0  502    0  0.00000000000E+00  0.00000000000E+00  0.15181933453E+01  0.15181933453E+01  0.00000000000E+00 0.  1.
         13   -1    0    0    0    0 -0.00000000000E+00 -0.00000000000E+00 -0.10000000000E+04  0.10000000000E+04  0.00000000000E+00 0.  1.
    9000005    2    1    2  501    0 -0.37414757995E+02  0.10041920397E+02 -0.54455933913E+03  0.54594568451E+03  0.33335150271E+01 0.  0.
         13    1    3    3    0    0 -0.24454575325E+02  0.76246100508E+01 -0.34228566967E+03  0.34324283036E+03  0.00000000000E+00 0.  1.
          1    1    3    3  501    0 -0.12960182670E+02  0.24173103460E+01 -0.20227366946E+03  0.20270285416E+03  0.00000000000E+00 0.  1.
         21    1    1    2  502  501  0.37414757995E+02 -0.10041920397E+02 -0.45392246752E+03  0.45557250883E+03  0.00000000000E+00 0.  1.
<mgrwt>
<rscale>  1 0.30000000E+03</rscale>
<asrwt>0</asrwt>
<pdfrwt beam="1">  1        1 0.55207147E-02 0.30000000E+03</pdfrwt>
<pdfrwt beam="2">0</pdfrwt>
<totfact> 0.17307189E+03</totfact>
</mgrwt>
</event>
<event>
 6    1  0.1956957E-002  0.3000000E+03  0.7818608E-02  0.1093470E+00
          3   -1    0    0  502    0  0.00000000000E+00  0.00000000000E+00  0.93560614074E+00  0.93560614074E+00  0.00000000000E+00 0.  1.
         13   -1    0    0    0    0 -0.00000000000E+00 -0.00000000000E+00 -0.10000000000E+04  0.10000000000E+04  0.00000000000E+00 0.  1.
    9000005    2    1    2  501    0 -0.29055156732E+02 -0.81486311233E+01 -0.56193809781E+03  0.56276897001E+03  0.48872806255E+01 0.  0.
         13    1    3    3    0    0 -0.83008996191E+01 -0.41664355287E+01 -0.19818404066E+03  0.19840155769E+03  0.00000000000E+00 0.  1.
          1    1    3    3  501    0 -0.20754257113E+02 -0.39821955946E+01 -0.36375405714E+03  0.36436741232E+03  0.00000000000E+00 0.  1.
         21    1    1    2  502  501  0.29055156732E+02  0.81486311233E+01 -0.43712629605E+03  0.43816663614E+03  0.00000000000E+00 0.  1.
<mgrwt>
<rscale>  1 0.30000000E+03</rscale>
<asrwt>0</asrwt>
<pdfrwt beam="1">  1        3 0.34022113E-02 0.30000000E+03</pdfrwt>
<pdfrwt beam="2">0</pdfrwt>
<totfact> 0.17903817E+03</totfact>
</mgrwt>
</event>
<event>
 6    1  0.1956957E-002  0.3000000E+03  0.7818608E-02  0.1093470E+00
          1   -1    0    0  502    0  0.00000000000E+00  0.00000000000E+00  0.18751444383E+01  0.18751444383E+01  0.00000000000E+00 0.  1.
         13   -1    0    0    0    0 -0.00000000000E+00 -0.00000000000E+00 -0.10000000000E+04  0.10000000000E+04  0.00000000000E+00 0.  1.
    9000005    2    1    2  501    0  0.77998492388E+01  0.40302104137E+02 -0.65735992724E+03  0.65864660014E+03  0.28587918808E+01 0.  0.
         13    1    3    3    0    0 -0.22220027596E+00  0.17814422992E+01 -0.31271661249E+02  0.31323149696E+02  0.00000000000E+00 0.  1.
          1    1    3    3  501    0  0.80220495148E+01  0.38520661838E+02 -0.62608826599E+03  0.62732345045E+03  0.00000000000E+00 0.  1.
         21    1    1    2  502  501 -0.77998492388E+01 -0.40302104137E+02 -0.34076492832E+03  0.34322854430E+03  0.00000000000E+00 0.  1.
<mgrwt>
<rscale>  1 0.30000000E+03</rscale>
<asrwt>0</asrwt>
<pdfrwt beam="1">  1        1 0.68187214E-02 0.30000000E+03</pdfrwt>
<pdfrwt beam="2">0</pdfrwt>
<totfact> 0.12871959E+03</totfact>
</mgrwt>
</event>
<event>
 6    1  0.1956957E-002  0.3000000E+03  0.7818608E-02  0.1093470E+00
          1   -1    0    0  502    0  0.00000000000E+00  0.00000000000E+00  0.23108826745E+01  0.23108826745E+01  0.00000000000E+00 0.  1.
         13   -1    0    0    0    0 -0.00000000000E+00 -0.00000000000E+00 -0.10000000000E+04  0.10000000000E+04  0.00000000000E+00 0.  1.
    9000005    2    1    2  501    0  0.22594883131E+02  0.35205341044E+02 -0.74511253359E+03  0.74629354843E+03  0.33805228377E+01 0.  0.
         13    1    3    3    0    0  0.10494282624E+02  0.14755788384E+02 -0.34801815056E+03  0.34848887555E+03  0.00000000000E+00 0.  1.
          3    1    3    3  501    0  0.12100600507E+02  0.20449552661E+02 -0.39709438303E+03  0.39780467289E+03  0.00000000000E+00 0.  1.
         21    1    1    2  502  501 -0.22594883131E+02 -0.35205341044E+02 -0.25257658373E+03  0.25601733424E+03  0.00000000000E+00 0.  1.
<mgrwt>
<rscale>  1 0.30000000E+03</rscale>
<asrwt>0</asrwt>
<pdfrwt beam="1">  1        1 0.84032274E-02 0.30000000E+03</pdfrwt>
<pdfrwt beam="2">0</pdfrwt>
<totfact> 0.96174946E+02</totfact>
</mgrwt>
</event>
<event>
 6    1  0.1956957E-002  0.3000000E+03  0.7818608E-02  0.1093470E+00
          3   -1    0    0  502    0  0.00000000000E+00  0.00000000000E+00  0.33157535741E+01  0.33157535741E+01  0.00000000000E+00 0.  1.
         13   -1    0    0    0    0 -0.00000000000E+00 -0.00000000000E+00 -0.10000000000E+04  0.10000000000E+04  0.00000000000E+00 0.  1.
    9000005    2    1    2  501    0 -0.79150722577E+01 -0.40838862160E+02 -0.84503027078E+03  0.84605994491E+03  0.32879787844E+01 0.  0.
         13    1    3    3    0    0 -0.16979548645E+01 -0.50746846754E+01 -0.92512595888E+02  0.92667231928E+02  0.00000000000E+00 0.  1.
          1    1    3    3  501    0 -0.62171173932E+01 -0.35764177485E+02 -0.75251767490E+03  0.75339271298E+03  0.00000000000E+00 0.  1.
         21    1    1    2  502  501  0.79150722577E+01  0.40838862160E+02 -0.15165397564E+03  0.15725580867E+03  0.00000000000E+00 0.  1.
<mgrwt>
<rscale>  1 0.30000000E+03</rscale>
<asrwt>0</asrwt>
<pdfrwt beam="1">  1        3 0.12057311E-01 0.30000000E+03</pdfrwt>
<pdfrwt beam="2">0</pdfrwt>
<totfact> 0.24166459E+02</totfact>
</mgrwt>
</event>
<event>
 6    1  0.1956957E-002  0.3000000E+03  0.7818608E-02  0.1093470E+00
          1   -1    0    0  502    0  0.00000000000E+00  0.00000000000E+00  0.15791040028E+01  0.15791040028E+01  0.00000000000E+00 0.  1.
         13   -1    0    0    0    0 -0.00000000000E+00 -0.00000000000E+00 -0.10000000000E+04  0.10000000000E+04  0.00000000000E+00 0.  1.
    9000005    2    1    2  501    0  0.19765677610E+02  0.24181053355E+02 -0.80827239697E+03  0.80888282216E+03  0.34273799286E+01 0.  0.
         13    1    3    3    0    0  0.31921883565E+01  0.24293879434E+01 -0.12147838254E+03  0.12154459847E+03  0.00000000000E+00 0.  1.
          3    1    3    3  501    0  0.16573489253E+02  0.21751665412E+02 -0.68679401443E+03  0.68733822369E+03  0.00000000000E+00 0.  1.
         21    1    1    2  502  501 -0.19765677610E+02 -0.24181053355E+02 -0.19014849903E+03  0.19269628184E+03  0.00000000000E+00 0.  1.
<mgrwt>
<rscale>  1 0.30000000E+03</rscale>
<asrwt>0</asrwt>
<pdfrwt beam="1">  1        1 0.57422085E-02 0.30000000E+03</pdfrwt>
<pdfrwt beam="2">0</pdfrwt>
<totfact> 0.16377297E+03</totfact>
</mgrwt>
</event>
<event>
 6    1  0.1956957E-002  0.3000000E+03  0.7818608E-02  0.1093470E+00
          1   -1    0    0  502    0  0.00000000000E+00  0.00000000000E+00  0.35597491093E+01  0.35597491093E+01  0.00000000000E+00 0.  1.
         13   -1    0    0    0    0 -0.00000000000E+00 -0.00000000000E+00 -0.10000000000E+04  0.10000000000E+04  0.00000000000E+00 0.  1.
    9000005    2    1    2  501    0  0.41628171315E+02 -0.64284025081E+01 -0.85330588663E+03  0.85435627985E+03  0.44144943879E+01 0.  0.
         13    1    3    3    0    0  0.30444157084E+02 -0.27505990599E+01 -0.62463699487E+03  0.62538451200E+03  0.00000000000E+00 0.  1.
          1    1    3    3  501    0  0.11184014231E+02 -0.36778034481E+01 -0.22866889176E+03  0.22897176785E+03  0.00000000000E+00 0.  1.
         21    1    1    2  502  501 -0.41628171315E+02  0.64284025081E+01 -0.14313436426E+03  0.14920346926E+03  0.00000000000E+00 0.  1.
<mgrwt>
<rscale>  1 0.30000000E+03</rscale>
<asrwt>0</asrwt>
<pdfrwt beam="1">  1        1 0.12944570E-01 0.30000000E+03</pdfrwt>
<pdfrwt beam="2">0</pdfrwt>
<totfact> 0.53022347E+02</totfact>
</mgrwt>
</event>
<event>
 6    1  0.1956957E-002  0.3000000E+03  0.7818608E-02  0.1093470E+00
          1   -1    0    0  502    0  0.00000000000E+00  0.00000000000E+00  0.22805368088E+01  0.22805368088E+01  0.00000000000E+00 0.  1.
         13   -1    0    0    0    0 -0.00000000000E+00 -0.00000000000E+00 -0.10000000000E+04  0.10000000000E+04  0.00000000000E+00 0.  1.
    9000005    2    1    2  501    0  0.21009068689E+00 -0.39191357270E+02 -0.78473582310E+03  0.78572098941E+03  0.33398384874E+01 0.  0.
         13    1    3    3    0    0  0.17611107184E+00 -0.26287760919E+02 -0.49404327800E+03  0.49474219340E+03  0.00000000000E+00 0.  1.
          1    1    3    3  501    0  0.33979615049E-01 -0.12903596351E+02 -0.29069254510E+03  0.29097879601E+03  0.00000000000E+00 0.  1.
         21    1    1    2  502  501 -0.21009068689E+00  0.39191357270E+02 -0.21298364009E+03  0.21655954740E+03  0.00000000000E+00 0.  1.
<mgrwt>
<rscale>  1 0.30000000E+03</rscale>
<asrwt>0</asrwt>
<pdfrwt beam="1">  1        1 0.82928786E-02 0.30000000E+03</pdfrwt>
<pdfrwt beam="2">0</pdfrwt>
<totfact> 0.97958653E+02</totfact>
</mgrwt>
</event>
<event>
 6    1  0.1956957E-002  0.3000000E+03  0.7818608E-02  0.1093470E+00
          3   -1    0    0  502    0  0.00000000000E+00  0.00000000000E+00  0.68276498663E+01  0.68276498663E+01  0.00000000000E+00 0.  1.
         13   -1    0    0    0    0 -0.00000000000E+00 -0.00000000000E+00 -0.10000000000E+04  0.10000000000E+04  0.00000000000E+00 0.  1.
    9000005    2    1    2  501    0  0.66781760867E+02 -0.21160620249E+02 -0.76232014867E+03  0.76558023671E+03  0.85740503199E+01 0.  0.
         13    1    3    3    0    0  0.31177968818E+02 -0.12024250880E+02 -0.32240690015E+03  0.32413401181E+03  0.00000000000E+00 0.  1.
          1    1    3    3  501    0  0.35603792049E+02 -0.91363693689E+01 -0.43991324852E+03  0.44144622490E+03  0.00000000000E+00 0.  1.
         21    1    1    2  502  501 -0.66781760867E+02  0.21160620249E+02 -0.23085220146E+03  0.24124741315E+03  0.00000000000E+00 0.  1.
<mgrwt>
<rscale>  1 0.30000000E+03</rscale>
<asrwt>0</asrwt>
<pdfrwt beam="1">  1        3 0.24827870E-01 0.30000000E+03</pdfrwt>
<pdfrwt beam="2">0</pdfrwt>
<totfact> 0.66872182E+01</totfact>
</mgrwt>
</event>
<event>
 6    1  0.1956957E-002  0.3000000E+03  0.7818608E-02  0.1093470E+00
          1   -1    0    0  502    0  0.00000000000E+00  0.00000000000E+00  0.30126804768E+01  0.30126804768E+01  0.00000000000E+00 0.  1.
         13   -1    0    0    0    0 -0.00000000000E+00 -0.00000000000E+00 -0.10000000000E+04  0.10000000000E+04  0.00000000000E+00 0.  1.
    9000005    2    1    2  501    0  0.41714352161E+02  0.35235805244E+02 -0.45255655424E+03  0.45585044920E+03  0.32477845153E+01 0.  0.
         13    1    3    3    0    0  0.19256655588E+01  0.10260773522E+01 -0.22080184333E+02  0.22187734511E+02  0.00000000000E+00 0.  1.
          3    1    3    3  501    0  0.39788686602E+02  0.34209727892E+02 -0.43047636991E+03  0.43366271469E+03  0.00000000000E+00 0.  1.
         21    1    1    2  502  501 -0.41714352161E+02 -0.35235805244E+02 -0.54443076528E+03  0.54716223127E+03  0.00000000000E+00 0.  1.
<mgrwt>
<rscale>  1 0.30000000E+03</rscale>
<asrwt>0</asrwt>
<pdfrwt beam="1">  1        1 0.10955225E-01 0.30000000E+03</pdfrwt>
<pdfrwt beam="2">0</pdfrwt>
<totfact> 0.66649904E+02</totfact>
</mgrwt>
</event>
<event>
 6    1  0.1956957E-002  0.3000000E+03  0.7818608E-02  0.1093470E+00
          1   -1    0    0  502    0  0.00000000000E+00  0.00000000000E+00  0.47615512831E+02  0.47615512831E+02  0.00000000000E+00 0.  1.
         13   -1    0    0    0    0 -0.00000000000E+00 -0.00000000000E+00 -0.10000000000E+04  0.10000000000E+04  0.00000000000E+00 0.  1.
    9000005    2    1    2  501    0 -0.17447040843E+02  0.59953884314E+02 -0.97809256008E+03  0.98008942534E+03  0.33701793853E+01 0.  0.
         13    1    3    3    0    0 -0.44146858690E+01  0.11004795055E+02 -0.17594335435E+03  0.17634244783E+03  0.00000000000E+00 0.  1.
          1    1    3    3  501    0 -0.13032354974E+02  0.48949089260E+02 -0.80214920573E+03  0.80374697752E+03  0.00000000000E+00 0.  1.
         21    1    1    2  502  501  0.17447040843E+02 -0.59953884314E+02  0.25708072911E+02  0.67526087487E+02  0.00000000000E+00 0.  1.
<mgrwt>
<rscale>  1 0.30000000E+03</rscale>
<asrwt>0</asrwt>
<pdfrwt beam="1">  1        1 0.17314768E+00 0.30000000E+03</pdfrwt>
<pdfrwt beam="2">0</pdfrwt>
<totfact> 0.13790989E+01</totfact>
</mgrwt>
</event>
<event>
 6    1  0.1956957E-002  0.3000000E+03  0.7818608E-02  0.1093470E+00
          1   -1    0    0  502    0  0.00000000000E+00  0.00000000000E+00  0.52831552658E+01  0.52831552658E+01  0.00000000000E+00 0.  1.
         13   -1    0    0    0    0 -0.00000000000E+00 -0.00000000000E+00 -0.10000000000E+04  0.10000000000E+04  0.00000000000E+00 0.  1.
    9000005    2    1    2  501    0  0.13585548962E+02 -0.55143604124E+02 -0.18427236570E+03  0.19285122715E+03  0.31475130089E+01 0.  0.
         13    1    3    3    0    0  0.22452884476E+01 -0.68838665086E+01 -0.20571703712E+02  0.21808804001E+02  0.00000000000E+00 0.  1.
          3    1    3    3  501    0  0.11340260515E+02 -0.48259737616E+02 -0.16370066198E+03  0.17104242315E+03  0.00000000000E+00 0.  1.
         21    1    1    2  502  501 -0.13585548962E+02  0.55143604124E+02 -0.81044447904E+03  0.81243192811E+03  0.00000000000E+00 0.  1.
<mgrwt>
<rscale>  1 0.30000000E+03</rscale>
<asrwt>0</asrwt>
<pdfrwt beam="1">  1        1 0.19211514E-01 0.30000000E+03</pdfrwt>
<pdfrwt beam="2">0</pdfrwt>
<totfact> 0.31070344E+02</totfact>
</mgrwt>
</event>
<event>
 6    1  0.1956957E-002  0.3000000E+03  0.7818608E-02  0.1093470E+00
          1   -1    0    0  502    0  0.00000000000E+00  0.00000000000E+00  0.80580093254E+01  0.80580093254E+01  0.00000000000E+00 0.  1.
         13   -1    0    0    0    0 -0.00000000000E+00 -0.00000000000E+00 -0.10000000000E+04  0.10000000000E+04  0.00000000000E+00 0.  1.
    9000005    2    1    2  501    0  0.52876156256E+02  0.29757337906E+01 -0.90289207605E+03  0.90444994889E+03  0.32963868689E+01 0.  0.
         13    1    3    3    0    0  0.15339564637E+02  0.17627631532E+01 -0.24308596857E+03  0.24357585613E+03  0.00000000000E+00 0.  1.
          3    1    3    3  501    0  0.37536591619E+02  0.12129706375E+01 -0.65980610748E+03  0.66087409276E+03  0.00000000000E+00 0.  1.
         21    1    1    2  502  501 -0.52876156256E+02 -0.29757337906E+01 -0.89049914627E+02  0.10360806043E+03  0.00000000000E+00 0.  1.
<mgrwt>
<rscale>  1 0.30000000E+03</rscale>
<asrwt>0</asrwt>
<pdfrwt beam="1">  1        1 0.29301914E-01 0.30000000E+03</pdfrwt>
<pdfrwt beam="2">0</pdfrwt>
<totfact> 0.17761954E+02</totfact>
</mgrwt>
</event>
<event>
 6    1  0.1956957E-002  0.3000000E+03  0.7818608E-02  0.1093470E+00
          1   -1    0    0  502    0  0.00000000000E+00  0.00000000000E+00  0.18734479491E+01  0.18734479491E+01  0.00000000000E+00 0.  1.
         13   -1    0    0    0    0 -0.00000000000E+00 -0.00000000000E+00 -0.10000000000E+04  0.10000000000E+04  0.00000000000E+00 0.  1.
    9000005    2    1    2  501    0  0.37303602686E+02 -0.20560422252E+02 -0.41805781702E+03  0.42024295778E+03  0.41851468084E+01 0.  0.
         13    1    3    3    0    0  0.34007661492E+02 -0.17412990505E+02 -0.36792233765E+03  0.36990077024E+03  0.00000000000E+00 0.  1.
          1    1    3    3  501    0  0.32959411940E+01 -0.31474317471E+01 -0.50135479366E+02  0.50342187539E+02  0.00000000000E+00 0.  1.
         21    1    1    2  502  501 -0.37303602686E+02  0.20560422252E+02 -0.58006873503E+03  0.58163049017E+03  0.00000000000E+00 0.  1.
<mgrwt>
<rscale>  1 0.30000000E+03</rscale>
<asrwt>0</asrwt>
<pdfrwt beam="1">  1        1 0.68125524E-02 0.30000000E+03</pdfrwt>
<pdfrwt beam="2">0</pdfrwt>
<totfact> 0.12888271E+03</totfact>
</mgrwt>
</event>
<event>
 6    1  0.1956957E-002  0.3000000E+03  0.7818608E-02  0.1093470E+00
          1   -1    0    0  502    0  0.00000000000E+00  0.00000000000E+00  0.16875070673E+01  0.16875070673E+01  0.00000000000E+00 0.  1.
         13   -1    0    0    0    0 -0.00000000000E+00 -0.00000000000E+00 -0.10000000000E+04  0.10000000000E+04  0.00000000000E+00 0.  1.
    9000005    2    1    2  501    0 -0.30596752997E+02  0.21063271233E+02 -0.71188964536E+03  0.71286598727E+03  0.33505134058E+01 0.  0.
         13    1    3    3    0    0 -0.18700977531E+02  0.13685553696E+02 -0.41493895575E+03  0.41558556031E+03  0.00000000000E+00 0.  1.
          3    1    3    3  501    0 -0.11895775466E+02  0.73777175371E+01 -0.29695068961E+03  0.29728042696E+03  0.00000000000E+00 0.  1.
         21    1    1    2  502  501  0.30596752997E+02 -0.21063271233E+02 -0.28642284757E+03  0.28882151980E+03  0.00000000000E+00 0.  1.
<mgrwt>
<rscale>  1 0.30000000E+03</rscale>
<asrwt>0</asrwt>
<pdfrwt beam="1">  1        1 0.61364023E-02 0.30000000E+03</pdfrwt>
<pdfrwt beam="2">0</pdfrwt>
<totfact> 0.14920540E+03</totfact>
</mgrwt>
</event>
<event>
 6    1  0.1956957E-002  0.3000000E+03  0.7818608E-02  0.1093470E+00
          1   -1    0    0  502    0  0.00000000000E+00  0.00000000000E+00  0.55989191315E+01  0.55989191315E+01  0.00000000000E+00 0.  1.
         13   -1    0    0    0    0 -0.00000000000E+00 -0.00000000000E+00 -0.10000000000E+04  0.10000000000E+04  0.00000000000E+00 0.  1.
    9000005    2    1    2  501    0  0.11968413709E+01  0.35609382388E+02 -0.93930658288E+03  0.93998745480E+03  0.31777338540E+01 0.  0.
         13    1    3    3    0    0  0.58195296821E+00  0.14027478674E+02 -0.41160912058E+03  0.41184848788E+03  0.00000000000E+00 0.  1.
          3    1    3    3  501    0  0.61488840272E+00  0.21581903715E+02 -0.52769746231E+03  0.52813896692E+03  0.00000000000E+00 0.  1.
         21    1    1    2  502  501 -0.11968413709E+01 -0.35609382388E+02 -0.55094497986E+02  0.65611464331E+02  0.00000000000E+00 0.  1.
<mgrwt>
<rscale>  1 0.30000000E+03</rscale>
<asrwt>0</asrwt>
<pdfrwt beam="1">  1        1 0.20359749E-01 0.30000000E+03</pdfrwt>
<pdfrwt beam="2">0</pdfrwt>
<totfact> 0.28748393E+02</totfact>
</mgrwt>
</event>
<event>
 6    1  0.1956957E-002  0.3000000E+03  0.7818608E-02  0.1093470E+00
          1   -1    0    0  502    0  0.00000000000E+00  0.00000000000E+00  0.10408491238E+01  0.10408491238E+01  0.00000000000E+00 0.  1.
         13   -1    0    0    0    0 -0.00000000000E+00 -0.00000000000E+00 -0.10000000000E+04  0.10000000000E+04  0.00000000000E+00 0.  1.
    9000005    2    1    2  501    0 -0.23269441079E+02  0.21151474134E+02 -0.60988862623E+03  0.61070160578E+03  0.18609542570E+01 0.  0.
         13    1    3    3    0    0 -0.97296658661E+00  0.71632460707E+00 -0.30848753039E+02  0.30872404328E+02  0.00000000000E+00 0.  1.
          3    1    3    3  501    0 -0.22296474493E+02  0.20435149527E+02 -0.57903987319E+03  0.57982920145E+03  0.00000000000E+00 0.  1.
         21    1    1    2  502  501  0.23269441079E+02 -0.21151474134E+02 -0.38907052465E+03  0.39033924335E+03  0.00000000000E+00 0.  1.
<mgrwt>
<rscale>  1 0.30000000E+03</rscale>
<asrwt>0</asrwt>
<pdfrwt beam="1">  1        1 0.37849139E-02 0.30000000E+03</pdfrwt>
<pdfrwt beam="2">0</pdfrwt>
<totfact> 0.29432846E+03</totfact>
</mgrwt>
</event>
<event>
 6    1  0.1956957E-002  0.3000000E+03  0.7818608E-02  0.1093470E+00
          3   -1    0    0  502    0  0.00000000000E+00  0.00000000000E+00  0.12384944291E+01  0.12384944291E+01  0.00000000000E+00 0.  1.
         13   -1    0    0    0    0 -0.00000000000E+00 -0.00000000000E+00 -0.10000000000E+04  0.10000000000E+04  0.00000000000E+00 0.  1.
    9000005    2    1    2  501    0  0.70191631574E+01  0.31419638009E+02 -0.70017545957E+03  0.70092184625E+03  0.30492735935E+01 0.  0.
         13    1    3    3    0    0 -0.34977578290E-01 -0.57674273532E-01 -0.79729981688E+00  0.80014795558E+00  0.00000000000E+00 0.  1.
          1    1    3    3  501    0  0.70541407357E+01  0.31477312282E+02 -0.69937815975E+03  0.70012169830E+03  0.00000000000E+00 0.  1.
         21    1    1    2  502  501 -0.70191631574E+01 -0.31419638009E+02 -0.29858604601E+03  0.30031664818E+03  0.00000000000E+00 0.  1.
<mgrwt>
<rscale>  1 0.30000000E+03</rscale>
<asrwt>0</asrwt>
<pdfrwt beam="1">  1        3 0.45036256E-02 0.30000000E+03</pdfrwt>
<pdfrwt beam="2">0</pdfrwt>
<totfact> 0.11626487E+03</totfact>
</mgrwt>
</event>
<event>
 6    1  0.1956957E-002  0.3000000E+03  0.7818608E-02  0.1093470E+00
          1   -1    0    0  502    0  0.00000000000E+00  0.00000000000E+00  0.34560668630E+01  0.34560668630E+01  0.00000000000E+00 0.  1.
         13   -1    0    0    0    0 -0.00000000000E+00 -0.00000000000E+00 -0.10000000000E+04  0.10000000000E+04  0.00000000000E+00 0.  1.
    9000005    2    1    2  501    0 -0.51512593587E+02  0.57801589490E+01 -0.73451047253E+03  0.73634468183E+03  0.33013134368E+01 0.  0.
         13    1    3    3    0    0 -0.50062715294E+02  0.61622834526E+01 -0.71254768663E+03  0.71433077417E+03  0.00000000000E+00 0.  1.
          1    1    3    3  501    0 -0.14498782930E+01 -0.38212450362E+00 -0.21962785899E+02  0.22013907665E+02  0.00000000000E+00 0.  1.
         21    1    1    2  502  501  0.51512593587E+02 -0.57801589490E+01 -0.26203346061E+03  0.26711138503E+03  0.00000000000E+00 0.  1.
<mgrwt>
<rscale>  1 0.30000000E+03</rscale>
<asrwt>0</asrwt>
<pdfrwt beam="1">  1        1 0.12567542E-01 0.30000000E+03</pdfrwt>
<pdfrwt beam="2">0</pdfrwt>
<totfact> 0.55209428E+02</totfact>
</mgrwt>
</event>
<event>
 6    1  0.1956957E-002  0.3000000E+03  0.7818608E-02  0.1093470E+00
          1   -1    0    0  502    0  0.00000000000E+00  0.00000000000E+00  0.14797753388E+01  0.14797753388E+01  0.00000000000E+00 0.  1.
         13   -1    0    0    0    0 -0.00000000000E+00 -0.00000000000E+00 -0.10000000000E+04  0.10000000000E+04  0.00000000000E+00 0.  1.
    9000005    2    1    2  501    0 -0.23270210954E+02 -0.26436167925E+02 -0.29982559101E+03  0.30189806832E+03  0.25855256351E+01 0.  0.
         13    1    3    3    0    0 -0.27332676562E+00 -0.45538119878E+00 -0.25651333829E+01  0.26195398124E+01  0.00000000000E+00 0.  1.
          1    1    3    3  501    0 -0.22996884188E+02 -0.25980786726E+02 -0.29726045762E+03  0.29927852851E+03  0.00000000000E+00 0.  1.
         21    1    1    2  502  501  0.23270210954E+02  0.26436167925E+02 -0.69869463366E+03  0.69958170702E+03  0.00000000000E+00 0.  1.
<mgrwt>
<rscale>  1 0.30000000E+03</rscale>
<asrwt>0</asrwt>
<pdfrwt beam="1">  1        1 0.53810126E-02 0.30000000E+03</pdfrwt>
<pdfrwt beam="2">0</pdfrwt>
<totfact> 0.17941488E+03</totfact>
</mgrwt>
</event>
<event>
 6    1  0.1956957E-002  0.3000000E+03  0.7818608E-02  0.1093470E+00
          1   -1    0    0  502    0  0.00000000000E+00  0.00000000000E+00  0.17824796258E+01  0.17824796258E+01  0.00000000000E+00 0.  1.
         13   -1    0    0    0    0 -0.00000000000E+00 -0.00000000000E+00 -0.10000000000E+04  0.10000000000E+04  0.00000000000E+00 0.  1.
    9000005    2    1    2  501    0  0.58000361296E+01  0.40288446354E+02 -0.60469876608E+03  0.60616421752E+03  0.10847192109E+02 0.  0.
         13    1    3    3    0    0  0.73789094856E+01  0.14392160561E+02 -0.22706521677E+03  0.22764049564E+03  0.00000000000E+00 0.  1.
          3    1    3    3  501    0 -0.15788733560E+01  0.25896285793E+02 -0.37763354931E+03  0.37852372188E+03  0.00000000000E+00 0.  1.
         21    1    1    2  502  501 -0.58000361296E+01 -0.40288446354E+02 -0.39351875429E+03  0.39561826210E+03  0.00000000000E+00 0.  1.
<mgrwt>
<rscale>  1 0.30000000E+03</rscale>
<asrwt>0</asrwt>
<pdfrwt beam="1">  1        1 0.64817578E-02 0.30000000E+03</pdfrwt>
<pdfrwt beam="2">0</pdfrwt>
<totfact> 0.13818411E+03</totfact>
</mgrwt>
</event>
<event>
 6    1  0.1956957E-002  0.3000000E+03  0.7818608E-02  0.1093470E+00
          1   -1    0    0  502    0  0.00000000000E+00  0.00000000000E+00  0.14456995331E+01  0.14456995331E+01  0.00000000000E+00 0.  1.
         13   -1    0    0    0    0 -0.00000000000E+00 -0.00000000000E+00 -0.10000000000E+04  0.10000000000E+04  0.00000000000E+00 0.  1.
    9000005    2    1    2  501    0 -0.20711634808E+02 -0.31275036868E+02 -0.57502451213E+03  0.57625799821E+03  0.36043312051E+01 0.  0.
         13    1    3    3    0    0 -0.42332359811E+01 -0.48696373977E+01 -0.83446648044E+02  0.83695738990E+02  0.00000000000E+00 0.  1.
          1    1    3    3  501    0 -0.16478398827E+02 -0.26405399470E+02 -0.49157786408E+03  0.49256225922E+03  0.00000000000E+00 0.  1.
         21    1    1    2  502  501  0.20711634808E+02  0.31275036868E+02 -0.42352978834E+03  0.42518770133E+03  0.00000000000E+00 0.  1.
<mgrwt>
<rscale>  1 0.30000000E+03</rscale>
<asrwt>0</asrwt>
<pdfrwt beam="1">  1        1 0.52571003E-02 0.30000000E+03</pdfrwt>
<pdfrwt beam="2">0</pdfrwt>
<totfact> 0.18538317E+03</totfact>
</mgrwt>
</event>
<event>
 6    1  0.1956957E-002  0.3000000E+03  0.7818608E-02  0.1093470E+00
          1   -1    0    0  502    0  0.00000000000E+00  0.00000000000E+00  0.13013644580E+01  0.13013644580E+01  0.00000000000E+00 0.  1.
         13   -1    0    0    0    0 -0.00000000000E+00 -0.00000000000E+00 -0.10000000000E+04  0.10000000000E+04  0.00000000000E+00 0.  1.
    9000005    2    1    2  501    0 -0.37090255223E+01 -0.35378779418E+02 -0.42499024341E+03  0.42649119222E+03  0.35517806356E+01 0.  0.
         13    1    3    3    0    0 -0.26080261093E+01 -0.11475995926E+02 -0.15122109425E+03  0.15167834265E+03  0.00000000000E+00 0.  1.
          1    1    3    3  501    0 -0.11009994130E+01 -0.23902783492E+02 -0.27376914916E+03  0.27481284957E+03  0.00000000000E+00 0.  1.
         21    1    1    2  502  501  0.37090255223E+01  0.35378779418E+02 -0.57370839214E+03  0.57481017224E+03  0.00000000000E+00 0.  1.
<mgrwt>
<rscale>  1 0.30000000E+03</rscale>
<asrwt>0</asrwt>
<pdfrwt beam="1">  1        1 0.47322444E-02 0.30000000E+03</pdfrwt>
<pdfrwt beam="2">0</pdfrwt>
<totfact> 0.21492037E+03</totfact>
</mgrwt>
</event>
<event>
 6    1  0.1956957E-002  0.3000000E+03  0.7818608E-02  0.1093470E+00
          1   -1    0    0  502    0  0.00000000000E+00  0.00000000000E+00  0.51617302238E+01  0.51617302238E+01  0.00000000000E+00 0.  1.
         13   -1    0    0    0    0 -0.00000000000E+00 -0.00000000000E+00 -0.10000000000E+04  0.10000000000E+04  0.00000000000E+00 0.  1.
    9000005    2    1    2  501    0 -0.34653660195E+02 -0.57973666587E+02 -0.66829147010E+03  0.67170313525E+03  0.31290119145E+01 0.  0.
         13    1    3    3    0    0 -0.16394057036E+02 -0.28515889510E+02 -0.33994016031E+03  0.34152779338E+03  0.00000000000E+00 0.  1.
          3    1    3    3  501    0 -0.18259603158E+02 -0.29457777077E+02 -0.32835130979E+03  0.33017534187E+03  0.00000000000E+00 0.  1.
         21    1    1    2  502  501  0.34653660195E+02  0.57973666587E+02 -0.32654679968E+03  0.33345859497E+03  0.00000000000E+00 0.  1.
<mgrwt>
<rscale>  1 0.30000000E+03</rscale>
<asrwt>0</asrwt>
<pdfrwt beam="1">  1        1 0.18769968E-01 0.30000000E+03</pdfrwt>
<pdfrwt beam="2">0</pdfrwt>
<totfact> 0.32054099E+02</totfact>
</mgrwt>
</event>
<event>
 6    1  0.1956957E-002  0.3000000E+03  0.7818608E-02  0.1093470E+00
          1   -1    0    0  502    0  0.00000000000E+00  0.00000000000E+00  0.13230022631E+01  0.13230022631E+01  0.00000000000E+00 0.  1.
         13   -1    0    0    0    0 -0.00000000000E+00 -0.00000000000E+00 -0.10000000000E+04  0.10000000000E+04  0.00000000000E+00 0.  1.
    9000005    2    1    2  501    0  0.36024812063E+02 -0.39394326668E+01 -0.47185855875E+03  0.47325958385E+03  0.32905960516E+01 0.  0.
         13    1    3    3    0    0  0.14096470214E+02 -0.74784753367E+00 -0.16577200872E+03  0.16637195865E+03  0.00000000000E+00 0.  1.
          3    1    3    3  501    0  0.21928341849E+02 -0.31915851331E+01 -0.30608655003E+03  0.30688762520E+03  0.00000000000E+00 0.  1.
         21    1    1    2  502  501 -0.36024812063E+02  0.39394326668E+01 -0.52681843898E+03  0.52806341841E+03  0.00000000000E+00 0.  1.
<mgrwt>
<rscale>  1 0.30000000E+03</rscale>
<asrwt>0</asrwt>
<pdfrwt beam="1">  1        1 0.48109275E-02 0.30000000E+03</pdfrwt>
<pdfrwt beam="2">0</pdfrwt>
<totfact> 0.20999350E+03</totfact>
</mgrwt>
</event>
<event>
 6    1  0.1956957E-002  0.3000000E+03  0.7818608E-02  0.1093470E+00
          1   -1    0    0  502    0  0.00000000000E+00  0.00000000000E+00  0.27586494980E+01  0.27586494980E+01  0.00000000000E+00 0.  1.
         13   -1    0    0    0    0 -0.00000000000E+00 -0.00000000000E+00 -0.10000000000E+04  0.10000000000E+04  0.00000000000E+00 0.  1.
    9000005    2    1    2  501    0  0.14362699497E+02  0.40299114675E+02 -0.78914494848E+03  0.79031002438E+03  0.31431102780E+01 0.  0.
         13    1    3    3    0    0  0.11438960275E+02  0.28072244774E+02 -0.56637281916E+03  0.56718345447E+03  0.00000000000E+00 0.  1.
          3    1    3    3  501    0  0.29237392218E+01  0.12226869901E+02 -0.22277212932E+03  0.22312656991E+03  0.00000000000E+00 0.  1.
         21    1    1    2  502  501 -0.14362699497E+02 -0.40299114675E+02 -0.20809640202E+03  0.21244862512E+03  0.00000000000E+00 0.  1.
<mgrwt>
<rscale>  1 0.30000000E+03</rscale>
<asrwt>0</asrwt>
<pdfrwt beam="1">  1        1 0.10031474E-01 0.30000000E+03</pdfrwt>
<pdfrwt beam="2">0</pdfrwt>
<totfact> 0.75246556E+02</totfact>
</mgrwt>
</event>
<event>
 6    1  0.1956957E-002  0.3000000E+03  0.7818608E-02  0.1093470E+00
          3   -1    0    0  502    0  0.00000000000E+00  0.00000000000E+00  0.15454586784E+01  0.15454586784E+01  0.00000000000E+00 0.  1.
         13   -1    0    0    0    0 -0.00000000000E+00 -0.00000000000E+00 -0.10000000000E+04  0.10000000000E+04  0.00000000000E+00 0.  1.
    9000005    2    1    2  501    0  0.31650851258E+02 -0.14789070412E+02 -0.72806155311E+03  0.72890492416E+03  0.28758228980E+01 0.  0.
         13    1    3    3    0    0  0.76221825663E+01 -0.22993108643E+01 -0.15773201133E+03  0.15793280817E+03  0.00000000000E+00 0.  1.
          3    1    3    3  501    0  0.24028668692E+02 -0.12489759548E+02 -0.57032954178E+03  0.57097211599E+03  0.00000000000E+00 0.  1.
         21    1    1    2  502  501 -0.31650851258E+02  0.14789070412E+02 -0.27039298821E+03  0.27264053452E+03  0.00000000000E+00 0.  1.
<mgrwt>
<rscale>  1 0.30000000E+03</rscale>
<asrwt>0</asrwt>
<pdfrwt beam="1">  1        3 0.56198616E-02 0.30000000E+03</pdfrwt>
<pdfrwt beam="2">0</pdfrwt>
<totfact> 0.82571515E+02</totfact>
</mgrwt>
</event>
<event>
 6    1  0.1956957E-002  0.3000000E+03  0.7818608E-02  0.1093470E+00
          1   -1    0    0  502    0  0.00000000000E+00  0.00000000000E+00  0.14564192723E+02  0.14564192723E+02  0.00000000000E+00 0.  1.
         13   -1    0    0    0    0 -0.00000000000E+00 -0.00000000000E+00 -0.10000000000E+04  0.10000000000E+04  0.00000000000E+00 0.  1.
    9000005    2    1    2  501    0  0.47848760775E+02 -0.30499858939E+02 -0.94041418479E+03  0.94213014138E+03  0.32586861046E+01 0.  0.
         13    1    3    3    0    0  0.37213828042E+02 -0.24717720763E+02 -0.72219939463E+03  0.72357985069E+03  0.00000000000E+00 0.  1.
          3    1    3    3  501    0  0.10634932732E+02 -0.57821381756E+01 -0.21821479016E+03  0.21855029069E+03  0.00000000000E+00 0.  1.
         21    1    1    2  502  501 -0.47848760775E+02  0.30499858939E+02 -0.45021622486E+02  0.72434051345E+02  0.00000000000E+00 0.  1.
<mgrwt>
<rscale>  1 0.30000000E+03</rscale>
<asrwt>0</asrwt>
<pdfrwt beam="1">  1        1 0.52960812E-01 0.30000000E+03</pdfrwt>
<pdfrwt beam="2">0</pdfrwt>
<totfact> 0.81810779E+01</totfact>
</mgrwt>
</event>
<event>
 6    1  0.1956957E-002  0.3000000E+03  0.7818608E-02  0.1093470E+00
          1   -1    0    0  502    0  0.00000000000E+00  0.00000000000E+00  0.14580454527E+01  0.14580454527E+01  0.00000000000E+00 0.  1.
         13   -1    0    0    0    0 -0.00000000000E+00 -0.00000000000E+00 -0.10000000000E+04  0.10000000000E+04  0.00000000000E+00 0.  1.
    9000005    2    1    2  501    0  0.28109147200E+02  0.17447926237E+02 -0.74831929447E+03  0.74905770095E+03  0.33344561683E+01 0.  0.
         13    1    3    3    0    0  0.27482135031E+02  0.17554910904E+02 -0.73569531792E+03  0.73641770990E+03  0.00000000000E+00 0.  1.
          3    1    3    3  501    0  0.62701216925E+00 -0.10698466710E+00 -0.12623976547E+02  0.12639991054E+02  0.00000000000E+00 0.  1.
         21    1    1    2  502  501 -0.28109147200E+02 -0.17447926237E+02 -0.25022266008E+03  0.25240034450E+03  0.00000000000E+00 0.  1.
<mgrwt>
<rscale>  1 0.30000000E+03</rscale>
<asrwt>0</asrwt>
<pdfrwt beam="1">  1        1 0.53019946E-02 0.30000000E+03</pdfrwt>
<pdfrwt beam="2">0</pdfrwt>
<totfact> 0.18318190E+03</totfact>
</mgrwt>
</event>
<event>
 6    1  0.1956957E-002  0.3000000E+03  0.7818608E-02  0.1093470E+00
          1   -1    0    0  502    0  0.00000000000E+00  0.00000000000E+00  0.24727257720E+01  0.24727257720E+01  0.00000000000E+00 0.  1.
         13   -1    0    0    0    0 -0.00000000000E+00 -0.00000000000E+00 -0.10000000000E+04  0.10000000000E+04  0.00000000000E+00 0.  1.
    9000005    2    1    2  501    0  0.36872276328E+02 -0.12370242749E+02 -0.81069534052E+03  0.81163572956E+03  0.36103604607E+01 0.  0.
         13    1    3    3    0    0  0.18958934771E+01 -0.73464533052E-01 -0.52849081365E+02  0.52883127841E+02  0.00000000000E+00 0.  1.
          1    1    3    3  501    0  0.34976382851E+02 -0.12296778216E+02 -0.75784625915E+03  0.75875260172E+03  0.00000000000E+00 0.  1.
         21    1    1    2  502  501 -0.36872276328E+02  0.12370242749E+02 -0.18683193371E+03  0.19083699621E+03  0.00000000000E+00 0.  1.
<mgrwt>
<rscale>  1 0.30000000E+03</rscale>
<asrwt>0</asrwt>
<pdfrwt beam="1">  1        1 0.89917490E-02 0.30000000E+03</pdfrwt>
<pdfrwt beam="2">0</pdfrwt>
<totfact> 0.87548767E+02</totfact>
</mgrwt>
</event>
<event>
 6    1  0.1956957E-002  0.3000000E+03  0.7818608E-02  0.1093470E+00
          1   -1    0    0  502    0  0.00000000000E+00  0.00000000000E+00  0.20719227008E+01  0.20719227008E+01  0.00000000000E+00 0.  1.
         13   -1    0    0    0    0 -0.00000000000E+00 -0.00000000000E+00 -0.10000000000E+04  0.10000000000E+04  0.00000000000E+00 0.  1.
    9000005    2    1    2  501    0  0.27492968777E+02  0.36000665581E+02 -0.45836560821E+03  0.46061133383E+03  0.34436616170E+01 0.  0.
         13    1    3    3    0    0  0.23345067326E+02  0.31854901000E+02 -0.40721646653E+03  0.40912709211E+03  0.00000000000E+00 0.  1.
          1    1    3    3  501    0  0.41479014515E+01  0.41457645806E+01 -0.51149141682E+02  0.51484241718E+02  0.00000000000E+00 0.  1.
         21    1    1    2  502  501 -0.27492968777E+02 -0.36000665581E+02 -0.53956246908E+03  0.54146058887E+03  0.00000000000E+00 0.  1.
<mgrwt>
<rscale>  1 0.30000000E+03</rscale>
<asrwt>0</asrwt>
<pdfrwt beam="1">  1        1 0.75342803E-02 0.30000000E+03</pdfrwt>
<pdfrwt beam="2">0</pdfrwt>
<totfact> 0.11196432E+03</totfact>
</mgrwt>
</event>
<event>
 6    1  0.1956957E-002  0.3000000E+03  0.7818608E-02  0.1093470E+00
          1   -1    0    0  502    0  0.00000000000E+00  0.00000000000E+00  0.27827129765E+01  0.27827129765E+01  0.00000000000E+00 0.  1.
         13   -1    0    0    0    0 -0.00000000000E+00 -0.00000000000E+00 -0.10000000000E+04  0.10000000000E+04  0.00000000000E+00 0.  1.
    9000005    2    1    2  501    0  0.20853361298E+02 -0.47610405862E+02 -0.58280274163E+03  0.58512133236E+03  0.25148575956E+01 0.  0.
         13    1    3    3    0    0  0.46732585824E+01 -0.11327724640E+02 -0.14936093271E+03  0.14986275359E+03  0.00000000000E+00 0.  1.
          3    1    3    3  501    0  0.16180102716E+02 -0.36282681222E+02 -0.43344180892E+03  0.43525857878E+03  0.00000000000E+00 0.  1.
         21    1    1    2  502  501 -0.20853361298E+02  0.47610405862E+02 -0.41441454539E+03  0.41766138062E+03  0.00000000000E+00 0.  1.
<mgrwt>
<rscale>  1 0.30000000E+03</rscale>
<asrwt>0</asrwt>
<pdfrwt beam="1">  1        1 0.10118978E-01 0.30000000E+03</pdfrwt>
<pdfrwt beam="2">0</pdfrwt>
<totfact> 0.74350166E+02</totfact>
</mgrwt>
</event>
<event>
 6    1  0.1956957E-002  0.3000000E+03  0.7818608E-02  0.1093470E+00
          1   -1    0    0  502    0  0.00000000000E+00  0.00000000000E+00  0.33071474454E+01  0.33071474454E+01  0.00000000000E+00 0.  1.
         13   -1    0    0    0    0 -0.00000000000E+00 -0.00000000000E+00 -0.10000000000E+04  0.10000000000E+04  0.00000000000E+00 0.  1.
    9000005    2    1    2  501    0  0.13972312632E+02 -0.29985697210E+02 -0.90798122841E+03  0.90862811167E+03  0.89870245423E+01 0.  0.
         13    1    3    3    0    0  0.94721422631E+01 -0.14191585305E+02 -0.36499461151E+03  0.36539319780E+03  0.00000000000E+00 0.  1.
          3    1    3    3  501    0  0.45001703693E+01 -0.15794111905E+02 -0.54298661690E+03  0.54323491386E+03  0.00000000000E+00 0.  1.
         21    1    1    2  502  501 -0.13972312632E+02  0.29985697210E+02 -0.88711624146E+02  0.94679035779E+02  0.00000000000E+00 0.  1.
<mgrwt>
<rscale>  1 0.30000000E+03</rscale>
<asrwt>0</asrwt>
<pdfrwt beam="1">  1        1 0.12026016E-01 0.30000000E+03</pdfrwt>
<pdfrwt beam="2">0</pdfrwt>
<totfact> 0.58642909E+02</totfact>
</mgrwt>
</event>
<event>
 6    1  0.1956957E-002  0.3000000E+03  0.7818608E-02  0.1093470E+00
          1   -1    0    0  502    0  0.00000000000E+00  0.00000000000E+00  0.13316597676E+01  0.13316597676E+01  0.00000000000E+00 0.  1.
         13   -1    0    0    0    0 -0.00000000000E+00 -0.00000000000E+00 -0.10000000000E+04  0.10000000000E+04  0.00000000000E+00 0.  1.
    9000005    2    1    2  501    0  0.26028416162E+02  0.17987707180E+02 -0.74502037917E+03  0.74571803688E+03  0.62441239234E+01 0.  0.
         13    1    3    3    0    0  0.20283939674E+02  0.14191580397E+02 -0.63503578790E+03  0.63551812805E+03  0.00000000000E+00 0.  1.
          1    1    3    3  501    0  0.57444764874E+01  0.37961267831E+01 -0.10998459127E+03  0.11019990883E+03  0.00000000000E+00 0.  1.
         21    1    1    2  502  501 -0.26028416162E+02 -0.17987707180E+02 -0.25364796106E+03  0.25561362289E+03  0.00000000000E+00 0.  1.
<mgrwt>
<rscale>  1 0.30000000E+03</rscale>
<asrwt>0</asrwt>
<pdfrwt beam="1">  1        1 0.48424094E-02 0.30000000E+03</pdfrwt>
<pdfrwt beam="2">0</pdfrwt>
<totfact> 0.20807633E+03</totfact>
</mgrwt>
</event>
<event>
 6    1  0.1956957E-002  0.3000000E+03  0.7818608E-02  0.1093470E+00
          1   -1    0    0  502    0  0.00000000000E+00  0.00000000000E+00  0.13885102167E+01  0.13885102167E+01  0.00000000000E+00 0.  1.
         13   -1    0    0    0    0 -0.00000000000E+00 -0.00000000000E+00 -0.10000000000E+04  0.10000000000E+04  0.00000000000E+00 0.  1.
    9000005    2    1    2  501    0 -0.20342988231E+02  0.26377584998E+02 -0.72244275433E+03  0.72321808655E+03  0.33545894199E+01 0.  0.
         13    1    3    3    0    0 -0.14779035663E+01  0.12951661823E+01 -0.60174310332E+02  0.60206389016E+02  0.00000000000E+00 0.  1.
          3    1    3    3  501    0 -0.18865084665E+02  0.25082418816E+02 -0.66226844400E+03  0.66301169753E+03  0.00000000000E+00 0.  1.
         21    1    1    2  502  501  0.20342988231E+02 -0.26377584998E+02 -0.27616873545E+03  0.27817042367E+03  0.00000000000E+00 0.  1.
<mgrwt>
<rscale>  1 0.30000000E+03</rscale>
<asrwt>0</asrwt>
<pdfrwt beam="1">  1        1 0.50491387E-02 0.30000000E+03</pdfrwt>
<pdfrwt beam="2">0</pdfrwt>
<totfact> 0.19620058E+03</totfact>
</mgrwt>
</event>
<event>
 6    1  0.1956957E-002  0.3000000E+03  0.7818608E-02  0.1093470E+00
          3   -1    0    0  502    0  0.00000000000E+00  0.00000000000E+00  0.13019141768E+02  0.13019141768E+02  0.00000000000E+00 0.  1.
         13   -1    0    0    0    0 -0.00000000000E+00 -0.00000000000E+00 -0.10000000000E+04  0.10000000000E+04  0.00000000000E+00 0.  1.
    9000005    2    1    2  501    0 -0.29534528737E+02 -0.26990005777E+02 -0.96783024524E+03  0.96866269041E+03  0.33578828806E+01 0.  0.
         13    1    3    3    0    0 -0.13323595813E+02 -0.13141916916E+02 -0.48916946850E+03  0.48952732007E+03  0.00000000000E+00 0.  1.
          3    1    3    3  501    0 -0.16210932924E+02 -0.13848088861E+02 -0.47866077674E+03  0.47913537033E+03  0.00000000000E+00 0.  1.
         21    1    1    2  502  501  0.29534528737E+02  0.26990005777E+02 -0.19150612989E+02  0.44356451361E+02  0.00000000000E+00 0.  1.
<mgrwt>
<rscale>  1 0.30000000E+03</rscale>
<asrwt>0</asrwt>
<pdfrwt beam="1">  1        3 0.47342434E-01 0.30000000E+03</pdfrwt>
<pdfrwt beam="2">0</pdfrwt>
<totfact> 0.19416782E+01</totfact>
</mgrwt>
</event>
<event>
 6    1  0.1956957E-002  0.3000000E+03  0.7818608E-02  0.1093470E+00
          1   -1    0    0  502    0  0.00000000000E+00  0.00000000000E+00  0.34232126698E+01  0.34232126698E+01  0.00000000000E+00 0.  1.
         13   -1    0    0    0    0 -0.00000000000E+00 -0.00000000000E+00 -0.10000000000E+04  0.10000000000E+04  0.00000000000E+00 0.  1.
    9000005    2    1    2  501    0  0.22157037727E+02 -0.21448842280E+02 -0.92457982778E+03  0.92509984872E+03  0.32992435345E+01 0.  0.
         13    1    3    3    0    0  0.19823919328E+02 -0.18586651838E+02 -0.78126588017E+03  0.78173833661E+03  0.00000000000E+00 0.  1.
          3    1    3    3  501    0  0.23331183988E+01 -0.28621904427E+01 -0.14331394761E+03  0.14336151211E+03  0.00000000000E+00 0.  1.
         21    1    1    2  502  501 -0.22157037727E+02  0.21448842280E+02 -0.71996959553E+02  0.78323363953E+02  0.00000000000E+00 0.  1.
<mgrwt>
<rscale>  1 0.30000000E+03</rscale>
<asrwt>0</asrwt>
<pdfrwt beam="1">  1        1 0.12448072E-01 0.30000000E+03</pdfrwt>
<pdfrwt beam="2">0</pdfrwt>
<totfact> 0.55935974E+02</totfact>
</mgrwt>
</event>
<event>
 6    1  0.1956957E-002  0.3000000E+03  0.7818608E-02  0.1093470E+00
          3   -1    0    0  502    0  0.00000000000E+00  0.00000000000E+00  0.16855986211E+01  0.16855986211E+01  0.00000000000E+00 0.  1.
         13   -1    0    0    0    0 -0.00000000000E+00 -0.00000000000E+00 -0.10000000000E+04  0.10000000000E+04  0.00000000000E+00 0.  1.
    9000005    2    1    2  501    0 -0.38269080246E+02 -0.14531734511E+02 -0.52711775568E+03  0.52871416954E+03  0.31386154214E+01 0.  0.
         13    1    3    3    0    0 -0.11003521203E+02 -0.33186043450E+01 -0.16323458211E+03  0.16363868556E+03  0.00000000000E+00 0.  1.
          1    1    3    3  501    0 -0.27265559043E+02 -0.11213130166E+02 -0.36388317357E+03  0.36507548398E+03  0.00000000000E+00 0.  1.
         21    1    1    2  502  501  0.38269080246E+02  0.14531734511E+02 -0.47119664570E+03  0.47297142908E+03  0.00000000000E+00 0.  1.
<mgrwt>
<rscale>  1 0.30000000E+03</rscale>
<asrwt>0</asrwt>
<pdfrwt beam="1">  1        3 0.61294625E-02 0.30000000E+03</pdfrwt>
<pdfrwt beam="2">0</pdfrwt>
<totfact> 0.72127668E+02</totfact>
</mgrwt>
</event>
<event>
 6    1  0.1956957E-002  0.3000000E+03  0.7818608E-02  0.1093470E+00
          1   -1    0    0  502    0  0.00000000000E+00  0.00000000000E+00  0.16171513470E+01  0.16171513470E+01  0.00000000000E+00 0.  1.
         13   -1    0    0    0    0 -0.00000000000E+00 -0.00000000000E+00 -0.10000000000E+04  0.10000000000E+04  0.00000000000E+00 0.  1.
    9000005    2    1    2  501    0  0.26460017122E+02  0.26944612724E+02 -0.67016129717E+03  0.67123020923E+03  0.27721657032E+01 0.  0.
         13    1    3    3    0    0  0.10115783633E+02  0.11297241427E+02 -0.28984137532E+03  0.29023779835E+03  0.00000000000E+00 0.  1.
          1    1    3    3  501    0  0.16344233489E+02  0.15647371298E+02 -0.38031992185E+03  0.38099241088E+03  0.00000000000E+00 0.  1.
         21    1    1    2  502  501 -0.26460017122E+02 -0.26944612724E+02 -0.32822155149E+03  0.33038694212E+03  0.00000000000E+00 0.  1.
<mgrwt>
<rscale>  1 0.30000000E+03</rscale>
<asrwt>0</asrwt>
<pdfrwt beam="1">  1        1 0.58805628E-02 0.30000000E+03</pdfrwt>
<pdfrwt beam="2">0</pdfrwt>
<totfact> 0.15839060E+03</totfact>
</mgrwt>
</event>
<event>
 6    1  0.1956957E-002  0.3000000E+03  0.7818608E-02  0.1093470E+00
          1   -1    0    0  502    0  0.00000000000E+00  0.00000000000E+00  0.30068650578E+01  0.30068650578E+01  0.00000000000E+00 0.  1.
         13   -1    0    0    0    0 -0.00000000000E+00 -0.00000000000E+00 -0.10000000000E+04  0.10000000000E+04  0.00000000000E+00 0.  1.
    9000005    2    1    2  501    0  0.45282497235E+02 -0.64921951286E+01 -0.77471399780E+03  0.77606927901E+03  0.30156722874E+01 0.  0.
         13    1    3    3    0    0  0.15185597788E+02 -0.13133804799E+01 -0.27750586718E+03  0.27792415093E+03  0.00000000000E+00 0.  1.
          3    1    3    3  501    0  0.30096899447E+02 -0.51788146487E+01 -0.49720813062E+03  0.49814512808E+03  0.00000000000E+00 0.  1.
         21    1    1    2  502  501 -0.45282497235E+02  0.64921951286E+01 -0.22227913714E+03  0.22693758605E+03  0.00000000000E+00 0.  1.
<mgrwt>
<rscale>  1 0.30000000E+03</rscale>
<asrwt>0</asrwt>
<pdfrwt beam="1">  1        1 0.10934078E-01 0.30000000E+03</pdfrwt>
<pdfrwt beam="2">0</pdfrwt>
<totfact> 0.66827158E+02</totfact>
</mgrwt>
</event>
<event>
 6    1  0.1956957E-002  0.3000000E+03  0.7818608E-02  0.1093470E+00
          1   -1    0    0  502    0  0.00000000000E+00  0.00000000000E+00  0.21885794754E+01  0.21885794754E+01  0.00000000000E+00 0.  1.
         13   -1    0    0    0    0 -0.00000000000E+00 -0.00000000000E+00 -0.10000000000E+04  0.10000000000E+04  0.00000000000E+00 0.  1.
    9000005    2    1    2  501    0  0.45324215004E+02  0.99029041815E+01 -0.43790617582E+03  0.44036455451E+03  0.26019364770E+01 0.  0.
         13    1    3    3    0    0  0.16950744675E+02  0.49468321910E+01 -0.16316458023E+03  0.16411727251E+03  0.00000000000E+00 0.  1.
          3    1    3    3  501    0  0.28373470329E+02  0.49560719905E+01 -0.27474159559E+03  0.27624728201E+03  0.00000000000E+00 0.  1.
         21    1    1    2  502  501 -0.45324215004E+02 -0.99029041815E+01 -0.55990524470E+03  0.56182402496E+03  0.00000000000E+00 0.  1.
<mgrwt>
<rscale>  1 0.30000000E+03</rscale>
<asrwt>0</asrwt>
<pdfrwt beam="1">  1        1 0.79584876E-02 0.30000000E+03</pdfrwt>
<pdfrwt beam="2">0</pdfrwt>
<totfact> 0.10373294E+03</totfact>
</mgrwt>
</event>
<event>
 6    1  0.1956957E-002  0.3000000E+03  0.7818608E-02  0.1093470E+00
          3   -1    0    0  502    0  0.00000000000E+00  0.00000000000E+00  0.74602863703E+01  0.74602863703E+01  0.00000000000E+00 0.  1.
         13   -1    0    0    0    0 -0.00000000000E+00 -0.00000000000E+00 -0.10000000000E+04  0.10000000000E+04  0.00000000000E+00 0.  1.
    9000005    2    1    2  501    0 -0.19372767649E+02  0.30316053004E+02 -0.95420705121E+03  0.95488880927E+03  0.26784881406E+01 0.  0.
         13    1    3    3    0    0 -0.89139776788E+01  0.13003531178E+02 -0.38575793867E+03  0.38607996331E+03  0.00000000000E+00 0.  1.
          3    1    3    3  501    0 -0.10458789970E+02  0.17312521826E+02 -0.56844911254E+03  0.56880884597E+03  0.00000000000E+00 0.  1.
         21    1    1    2  502  501  0.19372767649E+02 -0.30316053004E+02 -0.38332662421E+02  0.52571477099E+02  0.00000000000E+00 0.  1.
<mgrwt>
<rscale>  1 0.30000000E+03</rscale>
<asrwt>0</asrwt>
<pdfrwt beam="1">  1        3 0.27128371E-01 0.30000000E+03</pdfrwt>
<pdfrwt beam="2">0</pdfrwt>
<totfact> 0.56584960E+01</totfact>
</mgrwt>
</event>
<event>
 6    1  0.1956957E-002  0.3000000E+03  0.7818608E-02  0.1093470E+00
          1   -1    0    0  502    0  0.00000000000E+00  0.00000000000E+00  0.10634480687E+02  0.10634480687E+02  0.00000000000E+00 0.  1.
         13   -1    0    0    0    0 -0.00000000000E+00 -0.00000000000E+00 -0.10000000000E+04  0.10000000000E+04  0.00000000000E+00 0.  1.
    9000005    2    1    2  501    0 -0.61505535782E+01  0.30829354567E+02 -0.97593603039E+03  0.97644925603E+03  0.37061796592E+01 0.  0.
         13    1    3    3    0    0 -0.19213706396E+01  0.17255833573E+02 -0.50291414473E+03  0.50321376414E+03  0.00000000000E+00 0.  1.
          1    1    3    3  501    0 -0.42291829386E+01  0.13573520994E+02 -0.47302188567E+03  0.47323549188E+03  0.00000000000E+00 0.  1.
         21    1    1    2  502  501  0.61505535782E+01 -0.30829354567E+02 -0.13429488921E+02  0.34185224659E+02  0.00000000000E+00 0.  1.
<mgrwt>
<rscale>  1 0.30000000E+03</rscale>
<asrwt>0</asrwt>
<pdfrwt beam="1">  1        1 0.38670920E-01 0.30000000E+03</pdfrwt>
<pdfrwt beam="2">0</pdfrwt>
<totfact> 0.12353944E+02</totfact>
</mgrwt>
</event>
<event>
 6    1  0.1956957E-002  0.3000000E+03  0.7818608E-02  0.1093470E+00
          3   -1    0    0  502    0  0.00000000000E+00  0.00000000000E+00  0.17855295942E+01  0.17855295942E+01  0.00000000000E+00 0.  1.
         13   -1    0    0    0    0 -0.00000000000E+00 -0.00000000000E+00 -0.10000000000E+04  0.10000000000E+04  0.00000000000E+00 0.  1.
    9000005    2    1    2  501    0  0.31925927836E+02  0.23743003195E+02 -0.66708475150E+03  0.66827408180E+03  0.22776412122E+01 0.  0.
         13    1    3    3    0    0  0.13479716152E+02  0.11392883487E+02 -0.30005288303E+03  0.30057151089E+03  0.00000000000E+00 0.  1.
          3    1    3    3  501    0  0.18446211685E+02  0.12350119708E+02 -0.36703186847E+03  0.36770257091E+03  0.00000000000E+00 0.  1.
         21    1    1    2  502  501 -0.31925927836E+02 -0.23743003195E+02 -0.33112971890E+03  0.33351144779E+03  0.00000000000E+00 0.  1.
<mgrwt>
<rscale>  1 0.30000000E+03</rscale>
<asrwt>0</asrwt>
<pdfrwt beam="1">  1        3 0.64928486E-02 0.30000000E+03</pdfrwt>
<pdfrwt beam="2">0</pdfrwt>
<totfact> 0.65917676E+02</totfact>
</mgrwt>
</event>
<event>
 6    1  0.1956957E-002  0.3000000E+03  0.7818608E-02  0.1093470E+00
          1   -1    0    0  502    0  0.00000000000E+00  0.00000000000E+00  0.22146118031E+01  0.22146118031E+01  0.00000000000E+00 0.  1.
         13   -1    0    0    0    0 -0.00000000000E+00 -0.00000000000E+00 -0.10000000000E+04  0.10000000000E+04  0.00000000000E+00 0.  1.
    9000005    2    1    2  501    0 -0.22088078709E+01 -0.30762626927E+02 -0.87713358206E+03  0.87768318456E+03  0.36378056861E+01 0.  0.
         13    1    3    3    0    0  0.34929554475E+00 -0.13076516768E+02 -0.40666822865E+03  0.40687856356E+03  0.00000000000E+00 0.  1.
          1    1    3    3  501    0 -0.25581034157E+01 -0.17686110159E+02 -0.47046535342E+03  0.47080462100E+03  0.00000000000E+00 0.  1.
         21    1    1    2  502  501  0.22088078709E+01  0.30762626927E+02 -0.12065180613E+03  0.12453142724E+03  0.00000000000E+00 0.  1.
<mgrwt>
<rscale>  1 0.30000000E+03</rscale>
<asrwt>0</asrwt>
<pdfrwt beam="1">  1        1 0.80531508E-02 0.30000000E+03</pdfrwt>
<pdfrwt beam="2">0</pdfrwt>
<totfact> 0.10203913E+03</totfact>
</mgrwt>
</event>
<event>
 6    1  0.1956957E-002  0.3000000E+03  0.7818608E-02  0.1093470E+00
          1   -1    0    0  502    0  0.00000000000E+00  0.00000000000E+00  0.94116830040E+00  0.94116830040E+00  0.00000000000E+00 0.  1.
         13   -1    0    0    0    0 -0.00000000000E+00 -0.00000000000E+00 -0.10000000000E+04  0.10000000000E+04  0.00000000000E+00 0.  1.
    9000005    2    1    2  501    0  0.17616187556E+02  0.24688675940E+02 -0.55917053890E+03  0.56000855335E+03  0.42458767265E+01 0.  0.
         13    1    3    3    0    0  0.78627624212E+01  0.13332377881E+02 -0.31425187221E+03  0.31463282492E+03  0.00000000000E+00 0.  1.
          3    1    3    3  501    0  0.97534251351E+01  0.11356298059E+02 -0.24491866669E+03  0.24537572843E+03  0.00000000000E+00 0.  1.
         21    1    1    2  502  501 -0.17616187556E+02 -0.24688675940E+02 -0.43988829280E+03  0.44093261495E+03  0.00000000000E+00 0.  1.
<mgrwt>
<rscale>  1 0.30000000E+03</rscale>
<asrwt>0</asrwt>
<pdfrwt beam="1">  1        1 0.34224374E-02 0.30000000E+03</pdfrwt>
<pdfrwt beam="2">0</pdfrwt>
<totfact> 0.33910853E+03</totfact>
</mgrwt>
</event>
<event>
 6    1  0.1956957E-002  0.3000000E+03  0.7818608E-02  0.1093470E+00
          1   -1    0    0  502    0  0.00000000000E+00  0.00000000000E+00  0.41465085317E+01  0.41465085317E+01  0.00000000000E+00 0.  1.
         13   -1    0    0    0    0 -0.00000000000E+00 -0.00000000000E+00 -0.10000000000E+04  0.10000000000E+04  0.00000000000E+00 0.  1.
    9000005    2    1    2  501    0 -0.10839578310E+02  0.29927424619E+02 -0.93431401914E+03  0.93486264420E+03  0.35114037555E+01 0.  0.
         13    1    3    3    0    0 -0.32156746265E+00  0.82557002921E-01 -0.57360731494E+01  0.57456728472E+01  0.00000000000E+00 0.  1.
          1    1    3    3  501    0 -0.10518010847E+02  0.29844867616E+02 -0.92857794599E+03  0.92911697135E+03  0.00000000000E+00 0.  1.
         21    1    1    2  502  501  0.10839578310E+02 -0.29927424619E+02 -0.61539472326E+02  0.69283864330E+02  0.00000000000E+00 0.  1.
<mgrwt>
<rscale>  1 0.30000000E+03</rscale>
<asrwt>0</asrwt>
<pdfrwt beam="1">  1        1 0.15078245E-01 0.30000000E+03</pdfrwt>
<pdfrwt beam="2">0</pdfrwt>
<totfact> 0.43075211E+02</totfact>
</mgrwt>
</event>
<event>
 6    1  0.1956957E-002  0.3000000E+03  0.7818608E-02  0.1093470E+00
          3   -1    0    0  502    0  0.00000000000E+00  0.00000000000E+00  0.12956393199E+01  0.12956393199E+01  0.00000000000E+00 0.  1.
         13   -1    0    0    0    0 -0.00000000000E+00 -0.00000000000E+00 -0.10000000000E+04  0.10000000000E+04  0.00000000000E+00 0.  1.
    9000005    2    1    2  501    0 -0.17038324904E+02 -0.30651081377E+02 -0.60935082416E+03  0.61036601687E+03  0.29076356298E+01 0.  0.
         13    1    3    3    0    0 -0.82064614696E+01 -0.15065536896E+02 -0.32321379317E+03  0.32366876975E+03  0.00000000000E+00 0.  1.
          3    1    3    3  501    0 -0.88318634343E+01 -0.15585544481E+02 -0.28613703098E+03  0.28669724712E+03  0.00000000000E+00 0.  1.
         21    1    1    2  502  501  0.17038324904E+02  0.30651081377E+02 -0.38935353652E+03  0.39092962245E+03  0.00000000000E+00 0.  1.
<mgrwt>
<rscale>  1 0.30000000E+03</rscale>
<asrwt>0</asrwt>
<pdfrwt beam="1">  1        3 0.47114256E-02 0.30000000E+03</pdfrwt>
<pdfrwt beam="2">0</pdfrwt>
<totfact> 0.10844569E+03</totfact>
</mgrwt>
</event>
<event>
 6    1  0.1956957E-002  0.3000000E+03  0.7818608E-02  0.1093470E+00
          3   -1    0    0  502    0  0.00000000000E+00  0.00000000000E+00  0.33369014605E+01  0.33369014605E+01  0.00000000000E+00 0.  1.
         13   -1    0    0    0    0 -0.00000000000E+00 -0.00000000000E+00 -0.10000000000E+04  0.10000000000E+04  0.00000000000E+00 0.  1.
    9000005    2    1    2  501    0  0.29449502465E+02 -0.18149954273E+02 -0.90000484495E+03  0.90067477591E+03  0.31043503864E+01 0.  0.
         13    1    3    3    0    0  0.28376656697E+02 -0.17437502123E+02 -0.87874574710E+03  0.87937670493E+03  0.00000000000E+00 0.  1.
          3    1    3    3  501    0  0.10728457681E+01 -0.71245215054E+00 -0.21259097857E+02  0.21298070987E+02  0.00000000000E+00 0.  1.
         21    1    1    2  502  501 -0.29449502465E+02  0.18149954273E+02 -0.96658253586E+02  0.10266212555E+03  0.00000000000E+00 0.  1.
<mgrwt>
<rscale>  1 0.30000000E+03</rscale>
<asrwt>0</asrwt>
<pdfrwt beam="1">  1        3 0.12134213E-01 0.30000000E+03</pdfrwt>
<pdfrwt beam="2">0</pdfrwt>
<totfact> 0.23908615E+02</totfact>
</mgrwt>
</event>
<event>
 6    1  0.1956957E-002  0.3000000E+03  0.7818608E-02  0.1093470E+00
          1   -1    0    0  502    0  0.00000000000E+00  0.00000000000E+00  0.42900441027E+01  0.42900441027E+01  0.00000000000E+00 0.  1.
         13   -1    0    0    0    0 -0.00000000000E+00 -0.00000000000E+00 -0.10000000000E+04  0.10000000000E+04  0.00000000000E+00 0.  1.
    9000005    2    1    2  501    0 -0.19884680308E+02  0.62065807005E+02 -0.54534959407E+03  0.54923837625E+03  0.30082027172E+01 0.  0.
         13    1    3    3    0    0 -0.54921309561E+01  0.14756303395E+02 -0.12296868000E+03  0.12397261090E+03  0.00000000000E+00 0.  1.
          3    1    3    3  501    0 -0.14392549351E+02  0.47309503610E+02 -0.42238091407E+03  0.42526576535E+03  0.00000000000E+00 0.  1.
         21    1    1    2  502  501  0.19884680308E+02 -0.62065807005E+02 -0.45036036183E+03  0.45505166785E+03  0.00000000000E+00 0.  1.
<mgrwt>
<rscale>  1 0.30000000E+03</rscale>
<asrwt>0</asrwt>
<pdfrwt beam="1">  1        1 0.15600193E-01 0.30000000E+03</pdfrwt>
<pdfrwt beam="2">0</pdfrwt>
<totfact> 0.41132225E+02</totfact>
</mgrwt>
</event>
<event>
 6    1  0.1956957E-002  0.3000000E+03  0.7818608E-02  0.1093470E+00
          3   -1    0    0  502    0  0.00000000000E+00  0.00000000000E+00  0.30908051585E+01  0.30908051585E+01  0.00000000000E+00 0.  1.
         13   -1    0    0    0    0 -0.00000000000E+00 -0.00000000000E+00 -0.10000000000E+04  0.10000000000E+04  0.00000000000E+00 0.  1.
    9000005    2    1    2  501    0 -0.28955977108E+02 -0.91029087688E+01 -0.91856822302E+03  0.91907521479E+03  0.32184698784E+01 0.  0.
         13    1    3    3    0    0 -0.11880989860E+02 -0.21094530787E+01 -0.35524606778E+03  0.35545094793E+03  0.00000000000E+00 0.  1.
          1    1    3    3  501    0 -0.17074987249E+02 -0.69934556901E+01 -0.56332215524E+03  0.56362426686E+03  0.00000000000E+00 0.  1.
         21    1    1    2  502  501  0.28955977108E+02  0.91029087688E+01 -0.78340971821E+02  0.84015590364E+02  0.00000000000E+00 0.  1.
<mgrwt>
<rscale>  1 0.30000000E+03</rscale>
<asrwt>0</asrwt>
<pdfrwt beam="1">  1        3 0.11239315E-01 0.30000000E+03</pdfrwt>
<pdfrwt beam="2">0</pdfrwt>
<totfact> 0.27196242E+02</totfact>
</mgrwt>
</event>
<event>
 6    1  0.1956957E-002  0.3000000E+03  0.7818608E-02  0.1093470E+00
          1   -1    0    0  502    0  0.00000000000E+00  0.00000000000E+00  0.19006855586E+01  0.19006855586E+01  0.00000000000E+00 0.  1.
         13   -1    0    0    0    0 -0.00000000000E+00 -0.00000000000E+00 -0.10000000000E+04  0.10000000000E+04  0.00000000000E+00 0.  1.
    9000005    2    1    2  501    0  0.36284164599E+02  0.16755421239E+02 -0.69815872145E+03  0.69930913897E+03  0.32228514752E+01 0.  0.
         13    1    3    3    0    0  0.34134368982E+02  0.15135086452E+02 -0.64026899191E+03  0.64135684918E+03  0.00000000000E+00 0.  1.
          3    1    3    3  501    0  0.21497956177E+01  0.16203347879E+01 -0.57889729541E+02  0.57952289793E+02  0.00000000000E+00 0.  1.
         21    1    1    2  502  501 -0.36284164599E+02 -0.16755421239E+02 -0.29994059299E+03  0.30259154659E+03  0.00000000000E+00 0.  1.
<mgrwt>
<rscale>  1 0.30000000E+03</rscale>
<asrwt>0</asrwt>
<pdfrwt beam="1">  1        1 0.69115984E-02 0.30000000E+03</pdfrwt>
<pdfrwt beam="2">0</pdfrwt>
<totfact> 0.12630630E+03</totfact>
</mgrwt>
</event>
<event>
 6    1  0.1956957E-002  0.3000000E+03  0.7818608E-02  0.1093470E+00
          3   -1    0    0  502    0  0.00000000000E+00  0.00000000000E+00  0.19093823016E+01  0.19093823016E+01  0.00000000000E+00 0.  1.
         13   -1    0    0    0    0 -0.00000000000E+00 -0.00000000000E+00 -0.10000000000E+04  0.10000000000E+04  0.00000000000E+00 0.  1.
    9000005    2    1    2  501    0  0.43077697713E+02  0.44792628086E+01 -0.43779795051E+03  0.43994530449E+03  0.30122490320E+01 0.  0.
         13    1    3    3    0    0  0.41705853414E+02  0.39352698833E+01 -0.42621705350E+03  0.42827075694E+03  0.00000000000E+00 0.  1.
          1    1    3    3  501    0  0.13718442987E+01  0.54399292535E+00 -0.11580897005E+02  0.11674547551E+02  0.00000000000E+00 0.  1.
         21    1    1    2  502  501 -0.43077697713E+02 -0.44792628086E+01 -0.56029266719E+03  0.56196407781E+03  0.00000000000E+00 0.  1.
<mgrwt>
<rscale>  1 0.30000000E+03</rscale>
<asrwt>0</asrwt>
<pdfrwt beam="1">  1        3 0.69432230E-02 0.30000000E+03</pdfrwt>
<pdfrwt beam="2">0</pdfrwt>
<totfact> 0.59330837E+02</totfact>
</mgrwt>
</event>
<event>
 6    1  0.1956957E-002  0.3000000E+03  0.7818608E-02  0.1093470E+00
          1   -1    0    0  502    0  0.00000000000E+00  0.00000000000E+00  0.48190034567E+01  0.48190034567E+01  0.00000000000E+00 0.  1.
         13   -1    0    0    0    0 -0.00000000000E+00 -0.00000000000E+00 -0.10000000000E+04  0.10000000000E+04  0.00000000000E+00 0.  1.
    9000005    2    1    2  501    0 -0.79917006101E+01  0.35741193818E+02 -0.92432729449E+03  0.92505969486E+03  0.36320089431E+01 0.  0.
         13    1    3    3    0    0 -0.15080074411E+01  0.33377105867E+01 -0.74127810595E+02  0.74218236991E+02  0.00000000000E+00 0.  1.
          1    1    3    3  501    0 -0.64836931690E+01  0.32403483231E+02 -0.85019948390E+03  0.85084145787E+03  0.00000000000E+00 0.  1.
         21    1    1    2  502  501  0.79917006101E+01 -0.35741193818E+02 -0.70853702050E+02  0.79759308600E+02  0.00000000000E+00 0.  1.
<mgrwt>
<rscale>  1 0.30000000E+03</rscale>
<asrwt>0</asrwt>
<pdfrwt beam="1">  1        1 0.17523686E-01 0.30000000E+03</pdfrwt>
<pdfrwt beam="2">0</pdfrwt>
<totfact> 0.35154180E+02</totfact>
</mgrwt>
</event>
<event>
 6    1  0.1956957E-002  0.3000000E+03  0.7818608E-02  0.1093470E+00
          1   -1    0    0  502    0  0.00000000000E+00  0.00000000000E+00  0.32096634507E+01  0.32096634507E+01  0.00000000000E+00 0.  1.
         13   -1    0    0    0    0 -0.00000000000E+00 -0.00000000000E+00 -0.10000000000E+04  0.10000000000E+04  0.00000000000E+00 0.  1.
    9000005    2    1    2  501    0  0.18106984098E+02  0.39144316275E+02 -0.82283044959E+03  0.82398303976E+03  0.61612226640E+01 0.  0.
         13    1    3    3    0    0  0.10524782077E+02  0.24920662831E+02 -0.56742760102E+03  0.56807208423E+03  0.00000000000E+00 0.  1.
          1    1    3    3  501    0  0.75822020217E+01  0.14223653444E+02 -0.25540284856E+03  0.25591095553E+03  0.00000000000E+00 0.  1.
         21    1    1    2  502  501 -0.18106984098E+02 -0.39144316275E+02 -0.17395988696E+03  0.17922662369E+03  0.00000000000E+00 0.  1.
<mgrwt>
<rscale>  1 0.30000000E+03</rscale>
<asrwt>0</asrwt>
<pdfrwt beam="1">  1        1 0.11671528E-01 0.30000000E+03</pdfrwt>
<pdfrwt beam="2">0</pdfrwt>
<totfact> 0.61098805E+02</totfact>
</mgrwt>
</event>
<event>
 6    1  0.1956957E-002  0.3000000E+03  0.7818608E-02  0.1093470E+00
          1   -1    0    0  502    0  0.00000000000E+00  0.00000000000E+00  0.42983961842E+01  0.42983961842E+01  0.00000000000E+00 0.  1.
         13   -1    0    0    0    0 -0.00000000000E+00 -0.00000000000E+00 -0.10000000000E+04  0.10000000000E+04  0.00000000000E+00 0.  1.
    9000005    2    1    2  501    0 -0.30438351567E+02  0.15473884762E+02 -0.92629781033E+03  0.92694969932E+03  0.64944052781E+01 0.  0.
         13    1    3    3    0    0 -0.14131826307E+02  0.45975188293E+01 -0.46032418096E+03  0.46056399910E+03  0.00000000000E+00 0.  1.
          3    1    3    3  501    0 -0.16306525259E+02  0.10876365932E+02 -0.46597362937E+03  0.46638570022E+03  0.00000000000E+00 0.  1.
         21    1    1    2  502  501  0.30438351567E+02 -0.15473884762E+02 -0.69403793487E+02  0.77348696861E+02  0.00000000000E+00 0.  1.
<mgrwt>
<rscale>  1 0.30000000E+03</rscale>
<asrwt>0</asrwt>
<pdfrwt beam="1">  1        1 0.15630565E-01 0.30000000E+03</pdfrwt>
<pdfrwt beam="2">0</pdfrwt>
<totfact> 0.41023938E+02</totfact>
</mgrwt>
</event>
<event>
 6    1  0.1956957E-002  0.3000000E+03  0.7818608E-02  0.1093470E+00
          1   -1    0    0  502    0  0.00000000000E+00  0.00000000000E+00  0.26205874282E+02  0.26205874282E+02  0.00000000000E+00 0.  1.
         13   -1    0    0    0    0 -0.00000000000E+00 -0.00000000000E+00 -0.10000000000E+04  0.10000000000E+04  0.00000000000E+00 0.  1.
    9000005    2    1    2  501    0 -0.52686294929E+02 -0.15796445818E+02 -0.96946899982E+03  0.97103269159E+03  0.29955238819E+01 0.  0.
         13    1    3    3    0    0 -0.19695895539E+02 -0.70194071857E+01 -0.38580843365E+03  0.38637462113E+03  0.00000000000E+00 0.  1.
          1    1    3    3  501    0 -0.32990399390E+02 -0.87770386322E+01 -0.58366056617E+03  0.58465807047E+03  0.00000000000E+00 0.  1.
         21    1    1    2  502  501  0.52686294929E+02  0.15796445818E+02 -0.43251258997E+01  0.55173182687E+02  0.00000000000E+00 0.  1.
<mgrwt>
<rscale>  1 0.30000000E+03</rscale>
<asrwt>0</asrwt>
<pdfrwt beam="1">  1        1 0.95294289E-01 0.30000000E+03</pdfrwt>
<pdfrwt beam="2">0</pdfrwt>
<totfact> 0.36707198E+01</totfact>
</mgrwt>
</event>
<event>
 6    1  0.1956957E-002  0.3000000E+03  0.7818608E-02  0.1093470E+00
          1   -1    0    0  502    0  0.00000000000E+00  0.00000000000E+00  0.15514954355E+01  0.15514954355E+01  0.00000000000E+00 0.  1.
         13   -1    0    0    0    0 -0.00000000000E+00 -0.00000000000E+00 -0.10000000000E+04  0.10000000000E+04  0.00000000000E+00 0.  1.
    9000005    2    1    2  501    0  0.38412853531E+02  0.64595895412E+01 -0.57012057411E+03  0.57145605298E+03  0.26977491892E+01 0.  0.
         13    1    3    3    0    0  0.14329643995E+02  0.30637066849E+01 -0.19797015837E+03  0.19851173417E+03  0.00000000000E+00 0.  1.
          3    1    3    3  501    0  0.24083209535E+02  0.33958828563E+01 -0.37215041574E+03  0.37294431882E+03  0.00000000000E+00 0.  1.
         21    1    1    2  502  501 -0.38412853531E+02 -0.64595895412E+01 -0.42832793045E+03  0.43009544245E+03  0.00000000000E+00 0.  1.
<mgrwt>
<rscale>  1 0.30000000E+03</rscale>
<asrwt>0</asrwt>
<pdfrwt beam="1">  1        1 0.56418135E-02 0.30000000E+03</pdfrwt>
<pdfrwt beam="2">0</pdfrwt>
<totfact> 0.16787876E+03</totfact>
</mgrwt>
</event>
<event>
 6    1  0.1956957E-002  0.3000000E+03  0.7818608E-02  0.1093470E+00
          3   -1    0    0  502    0  0.00000000000E+00  0.00000000000E+00  0.58326667625E+01  0.58326667625E+01  0.00000000000E+00 0.  1.
         13   -1    0    0    0    0 -0.00000000000E+00 -0.00000000000E+00 -0.10000000000E+04  0.10000000000E+04  0.00000000000E+00 0.  1.
    9000005    2    1    2  501    0  0.32078228172E+02  0.18660106840E+02 -0.93621856707E+03  0.93701935547E+03  0.11083992983E+02 0.  0.
         13    1    3    3    0    0  0.23930382450E+02  0.78361331573E+01 -0.60406408174E+03  0.60458868914E+03  0.00000000000E+00 0.  1.
          1    1    3    3  501    0  0.81478457224E+01  0.10823973683E+02 -0.33215448532E+03  0.33243066633E+03  0.00000000000E+00 0.  1.
         21    1    1    2  502  501 -0.32078228172E+02 -0.18660106840E+02 -0.57948766172E+02  0.68813311291E+02  0.00000000000E+00 0.  1.
<mgrwt>
<rscale>  1 0.30000000E+03</rscale>
<asrwt>0</asrwt>
<pdfrwt beam="1">  1        3 0.21209742E-01 0.30000000E+03</pdfrwt>
<pdfrwt beam="2">0</pdfrwt>
<totfact> 0.89761186E+01</totfact>
</mgrwt>
</event>
<event>
 6    1  0.1956957E-002  0.3000000E+03  0.7818608E-02  0.1093470E+00
          3   -1    0    0  502    0  0.00000000000E+00  0.00000000000E+00  0.19587924188E+01  0.19587924188E+01  0.00000000000E+00 0.  1.
         13   -1    0    0    0    0 -0.00000000000E+00 -0.00000000000E+00 -0.10000000000E+04  0.10000000000E+04  0.00000000000E+00 0.  1.
    9000005    2    1    2  501    0 -0.42325975160E+02 -0.88013644291E+01 -0.60266777220E+03  0.60422885188E+03  0.38871090682E+01 0.  0.
         13    1    3    3    0    0 -0.37382010233E+02 -0.64684946908E+01 -0.52842859339E+03  0.52978866959E+03  0.00000000000E+00 0.  1.
          3    1    3    3  501    0 -0.49439649273E+01 -0.23328697382E+01 -0.74239178808E+02  0.74440182297E+02  0.00000000000E+00 0.  1.
         21    1    1    2  502  501  0.42325975160E+02  0.88013644291E+01 -0.39537343539E+03  0.39772994054E+03  0.00000000000E+00 0.  1.
<mgrwt>
<rscale>  1 0.30000000E+03</rscale>
<asrwt>0</asrwt>
<pdfrwt beam="1">  1        3 0.71228965E-02 0.30000000E+03</pdfrwt>
<pdfrwt beam="2">0</pdfrwt>
<totfact> 0.56988827E+02</totfact>
</mgrwt>
</event>
<event>
 6    1  0.1956957E-002  0.3000000E+03  0.7818608E-02  0.1093470E+00
          1   -1    0    0  502    0  0.00000000000E+00  0.00000000000E+00  0.62834909449E+01  0.62834909449E+01  0.00000000000E+00 0.  1.
         13   -1    0    0    0    0 -0.00000000000E+00 -0.00000000000E+00 -0.10000000000E+04  0.10000000000E+04  0.00000000000E+00 0.  1.
    9000005    2    1    2  501    0 -0.19074841187E+02 -0.40626827407E+02 -0.91146016609E+03  0.91257919740E+03  0.51738263977E+01 0.  0.
         13    1    3    3    0    0 -0.99235567549E+01 -0.26489711097E+02 -0.55007172693E+03  0.55079858981E+03  0.00000000000E+00 0.  1.
          3    1    3    3  501    0 -0.91512844317E+01 -0.14137116310E+02 -0.36138843917E+03  0.36178060759E+03  0.00000000000E+00 0.  1.
         21    1    1    2  502  501  0.19074841187E+02  0.40626827407E+02 -0.82256342963E+02  0.93704293547E+02  0.00000000000E+00 0.  1.
<mgrwt>
<rscale>  1 0.30000000E+03</rscale>
<asrwt>0</asrwt>
<pdfrwt beam="1">  1        1 0.22849106E-01 0.30000000E+03</pdfrwt>
<pdfrwt beam="2">0</pdfrwt>
<totfact> 0.24660363E+02</totfact>
</mgrwt>
</event>
<event>
 6    1  0.1956957E-002  0.3000000E+03  0.7818608E-02  0.1093470E+00
          1   -1    0    0  502    0  0.00000000000E+00  0.00000000000E+00  0.43234726143E+01  0.43234726143E+01  0.00000000000E+00 0.  1.
         13   -1    0    0    0    0 -0.00000000000E+00 -0.00000000000E+00 -0.10000000000E+04  0.10000000000E+04  0.00000000000E+00 0.  1.
    9000005    2    1    2  501    0  0.48495886703E+02 -0.17367145304E+02 -0.80975725597E+03  0.81140005712E+03  0.31257528995E+01 0.  0.
         13    1    3    3    0    0  0.20950407965E+02 -0.75158877529E+01 -0.32574484645E+03  0.32650438458E+03  0.00000000000E+00 0.  1.
          1    1    3    3  501    0  0.27545478739E+02 -0.98512575516E+01 -0.48401240952E+03  0.48489567253E+03  0.00000000000E+00 0.  1.
         21    1    1    2  502  501 -0.48495886703E+02  0.17367145304E+02 -0.18591927142E+03  0.19292341550E+03  0.00000000000E+00 0.  1.
<mgrwt>
<rscale>  1 0.30000000E+03</rscale>
<asrwt>0</asrwt>
<pdfrwt beam="1">  1        1 0.15721752E-01 0.30000000E+03</pdfrwt>
<pdfrwt beam="2">0</pdfrwt>
<totfact> 0.40701834E+02</totfact>
</mgrwt>
</event>
<event>
 6    1  0.1956957E-002  0.3000000E+03  0.7818608E-02  0.1093470E+00
          1   -1    0    0  502    0  0.00000000000E+00  0.00000000000E+00  0.27028551456E+01  0.27028551456E+01  0.00000000000E+00 0.  1.
         13   -1    0    0    0    0 -0.00000000000E+00 -0.00000000000E+00 -0.10000000000E+04  0.10000000000E+04  0.00000000000E+00 0.  1.
    9000005    2    1    2  501    0 -0.93322424764E+01  0.40833167398E+02 -0.79522583358E+03  0.79633606240E+03  0.35439484900E+01 0.  0.
         13    1    3    3    0    0 -0.11046966767E+01  0.10995630367E+02 -0.19551289517E+03  0.19582496373E+03  0.00000000000E+00 0.  1.
          1    1    3    3  501    0 -0.82275457996E+01  0.29837537031E+02 -0.59971293841E+03  0.60051109866E+03  0.00000000000E+00 0.  1.
         21    1    1    2  502  501  0.93322424764E+01 -0.40833167398E+02 -0.20207131128E+03  0.20636679275E+03  0.00000000000E+00 0.  1.
<mgrwt>
<rscale>  1 0.30000000E+03</rscale>
<asrwt>0</asrwt>
<pdfrwt beam="1">  1        1 0.98285849E-02 0.30000000E+03</pdfrwt>
<pdfrwt beam="2">0</pdfrwt>
<totfact> 0.77399982E+02</totfact>
</mgrwt>
</event>
<event>
 6    1  0.1956957E-002  0.3000000E+03  0.7818608E-02  0.1093470E+00
          3   -1    0    0  502    0  0.00000000000E+00  0.00000000000E+00  0.24030556113E+02  0.24030556113E+02  0.00000000000E+00 0.  1.
         13   -1    0    0    0    0 -0.00000000000E+00 -0.00000000000E+00 -0.10000000000E+04  0.10000000000E+04  0.00000000000E+00 0.  1.
    9000005    2    1    2  501    0  0.15061157088E+03  0.32835797584E+02 -0.43697016723E+03  0.46342173071E+03  0.73985508049E+01 0.  0.
         13    1    3    3    0    0  0.13573403803E+03  0.31797776466E+02 -0.39371088354E+03  0.41766384507E+03  0.00000000000E+00 0.  1.
          3    1    3    3  501    0  0.14877532857E+02  0.10380211175E+01 -0.43259283694E+02  0.45757885631E+02  0.00000000000E+00 0.  1.
         21    1    1    2  502  501 -0.15061157088E+03 -0.32835797584E+02 -0.53899927666E+03  0.56060882541E+03  0.00000000000E+00 0.  1.
<mgrwt>
<rscale>  1 0.30000000E+03</rscale>
<asrwt>0</asrwt>
<pdfrwt beam="1">  1        3 0.87384025E-01 0.30000000E+03</pdfrwt>
<pdfrwt beam="2">0</pdfrwt>
<totfact> 0.54743068E+00</totfact>
</mgrwt>
</event>
<event>
 6    1  0.1956957E-002  0.3000000E+03  0.7818608E-02  0.1093470E+00
          3   -1    0    0  502    0  0.00000000000E+00  0.00000000000E+00  0.16409950886E+01  0.16409950886E+01  0.00000000000E+00 0.  1.
         13   -1    0    0    0    0 -0.00000000000E+00 -0.00000000000E+00 -0.10000000000E+04  0.10000000000E+04  0.00000000000E+00 0.  1.
    9000005    2    1    2  501    0  0.20998612783E+02  0.32738153040E+02 -0.63634782192E+03  0.63754646751E+03  0.37708575114E+01 0.  0.
         13    1    3    3    0    0  0.72758012408E+01  0.10663060722E+02 -0.18375604942E+03  0.18420891359E+03  0.00000000000E+00 0.  1.
          1    1    3    3  501    0  0.13722811543E+02  0.22075092318E+02 -0.45259177250E+03  0.45333755392E+03  0.00000000000E+00 0.  1.
         21    1    1    2  502  501 -0.20998612783E+02 -0.32738153040E+02 -0.36201118299E+03  0.36409452758E+03  0.00000000000E+00 0.  1.
<mgrwt>
<rscale>  1 0.30000000E+03</rscale>
<asrwt>0</asrwt>
<pdfrwt beam="1">  1        3 0.59672675E-02 0.30000000E+03</pdfrwt>
<pdfrwt beam="2">0</pdfrwt>
<totfact> 0.75209497E+02</totfact>
</mgrwt>
</event>
<event>
 6    1  0.1956957E-002  0.3000000E+03  0.7818608E-02  0.1093470E+00
          1   -1    0    0  502    0  0.00000000000E+00  0.00000000000E+00  0.80219206762E+01  0.80219206762E+01  0.00000000000E+00 0.  1.
         13   -1    0    0    0    0 -0.00000000000E+00 -0.00000000000E+00 -0.10000000000E+04  0.10000000000E+04  0.00000000000E+00 0.  1.
    9000005    2    1    2  501    0 -0.38209609635E+02 -0.15193207193E+02 -0.94372060281E+03  0.94462166947E+03  0.32732939991E+01 0.  0.
         13    1    3    3    0    0 -0.28043212565E+02 -0.95994731868E+01 -0.67147198678E+03  0.67212588158E+03  0.00000000000E+00 0.  1.
          1    1    3    3  501    0 -0.10166397070E+02 -0.55937340060E+01 -0.27224861603E+03  0.27249578789E+03  0.00000000000E+00 0.  1.
         21    1    1    2  502  501  0.38209609635E+02  0.15193207193E+02 -0.48257476512E+02  0.63400251203E+02  0.00000000000E+00 0.  1.
<mgrwt>
<rscale>  1 0.30000000E+03</rscale>
<asrwt>0</asrwt>
<pdfrwt beam="1">  1        1 0.29170682E-01 0.30000000E+03</pdfrwt>
<pdfrwt beam="2">0</pdfrwt>
<totfact> 0.17866919E+02</totfact>
</mgrwt>
</event>
<event>
 6    1  0.1956957E-002  0.3000000E+03  0.7818608E-02  0.1093470E+00
          1   -1    0    0  502    0  0.00000000000E+00  0.00000000000E+00  0.41051139814E+01  0.41051139814E+01  0.00000000000E+00 0.  1.
         13   -1    0    0    0    0 -0.00000000000E+00 -0.00000000000E+00 -0.10000000000E+04  0.10000000000E+04  0.00000000000E+00 0.  1.
    9000005    2    1    2  501    0 -0.45853487489E+02 -0.27898525973E+02 -0.76939453673E+03  0.77133209515E+03  0.10216545300E+02 0.  0.
         13    1    3    3    0    0 -0.38898085429E+02 -0.27532818083E+02 -0.67737755459E+03  0.67905188946E+03  0.00000000000E+00 0.  1.
          1    1    3    3  501    0 -0.69554020593E+01 -0.36570789031E+00 -0.92016982137E+02  0.92280205687E+02  0.00000000000E+00 0.  1.
         21    1    1    2  502  501  0.45853487489E+02  0.27898525973E+02 -0.22650034929E+03  0.23277301883E+03  0.00000000000E+00 0.  1.
<mgrwt>
<rscale>  1 0.30000000E+03</rscale>
<asrwt>0</asrwt>
<pdfrwt beam="1">  1        1 0.14927719E-01 0.30000000E+03</pdfrwt>
<pdfrwt beam="2">0</pdfrwt>
<totfact> 0.43665912E+02</totfact>
</mgrwt>
</event>
<event>
 6    1  0.1956957E-002  0.3000000E+03  0.7818608E-02  0.1093470E+00
          1   -1    0    0  502    0  0.00000000000E+00  0.00000000000E+00  0.12707358607E+01  0.12707358607E+01  0.00000000000E+00 0.  1.
         13   -1    0    0    0    0 -0.00000000000E+00 -0.00000000000E+00 -0.10000000000E+04  0.10000000000E+04  0.00000000000E+00 0.  1.
    9000005    2    1    2  501    0  0.12975414431E+02 -0.30547208789E+02 -0.32300998636E+03  0.32473689657E+03  0.41361044923E+01 0.  0.
         13    1    3    3    0    0  0.51296088902E+01 -0.77769778730E+01 -0.82724547645E+02  0.83247492786E+02  0.00000000000E+00 0.  1.
          3    1    3    3  501    0  0.78458055408E+01 -0.22770230916E+02 -0.24028543872E+03  0.24148940378E+03  0.00000000000E+00 0.  1.
         21    1    1    2  502  501 -0.12975414431E+02  0.30547208789E+02 -0.67571927778E+03  0.67653383929E+03  0.00000000000E+00 0.  1.
<mgrwt>
<rscale>  1 0.30000000E+03</rscale>
<asrwt>0</asrwt>
<pdfrwt beam="1">  1        1 0.46208674E-02 0.30000000E+03</pdfrwt>
<pdfrwt beam="2">0</pdfrwt>
<totfact> 0.22224295E+03</totfact>
</mgrwt>
</event>
<event>
 6    1  0.1956957E-002  0.3000000E+03  0.7818608E-02  0.1093470E+00
          3   -1    0    0  502    0  0.00000000000E+00  0.00000000000E+00  0.29944104153E+01  0.29944104153E+01  0.00000000000E+00 0.  1.
         13   -1    0    0    0    0 -0.00000000000E+00 -0.00000000000E+00 -0.10000000000E+04  0.10000000000E+04  0.00000000000E+00 0.  1.
    9000005    2    1    2  501    0  0.15842403746E+02  0.52081239934E+02 -0.45321104978E+03  0.45648188646E+03  0.34669469994E+01 0.  0.
         13    1    3    3    0    0  0.52237192858E+01  0.22680780628E+02 -0.18834691569E+03  0.18977951866E+03  0.00000000000E+00 0.  1.
          1    1    3    3  501    0  0.10618684460E+02  0.29400459306E+02 -0.26486413409E+03  0.26670236781E+03  0.00000000000E+00 0.  1.
         21    1    1    2  502  501 -0.15842403746E+02 -0.52081239934E+02 -0.54379453981E+03  0.54651252395E+03  0.00000000000E+00 0.  1.
<mgrwt>
<rscale>  1 0.30000000E+03</rscale>
<asrwt>0</asrwt>
<pdfrwt beam="1">  1        3 0.10888788E-01 0.30000000E+03</pdfrwt>
<pdfrwt beam="2">0</pdfrwt>
<totfact> 0.28675604E+02</totfact>
</mgrwt>
</event>
<event>
 6    1  0.1956957E-002  0.3000000E+03  0.7818608E-02  0.1093470E+00
          1   -1    0    0  502    0  0.00000000000E+00  0.00000000000E+00  0.28682564417E+01  0.28682564417E+01  0.00000000000E+00 0.  1.
         13   -1    0    0    0    0 -0.00000000000E+00 -0.00000000000E+00 -0.10000000000E+04  0.10000000000E+04  0.00000000000E+00 0.  1.
    9000005    2    1    2  501    0  0.10530077156E+02  0.47829402621E+02 -0.70077160564E+03  0.70248872048E+03  0.33203681926E+01 0.  0.
         13    1    3    3    0    0  0.34942775578E+01  0.16991445349E+02 -0.22619087305E+03  0.22685508643E+03  0.00000000000E+00 0.  1.
          1    1    3    3  501    0  0.70357995981E+01  0.30837957272E+02 -0.47458073260E+03  0.47563363405E+03  0.00000000000E+00 0.  1.
         21    1    1    2  502  501 -0.10530077156E+02 -0.47829402621E+02 -0.29636013792E+03  0.30037953596E+03  0.00000000000E+00 0.  1.
<mgrwt>
<rscale>  1 0.30000000E+03</rscale>
<asrwt>0</asrwt>
<pdfrwt beam="1">  1        1 0.10430045E-01 0.30000000E+03</pdfrwt>
<pdfrwt beam="2">0</pdfrwt>
<totfact> 0.71310829E+02</totfact>
</mgrwt>
</event>
<event>
 6    1  0.1956957E-002  0.3000000E+03  0.7818608E-02  0.1093470E+00
          3   -1    0    0  502    0  0.00000000000E+00  0.00000000000E+00  0.19115367368E+01  0.19115367368E+01  0.00000000000E+00 0.  1.
         13   -1    0    0    0    0 -0.00000000000E+00 -0.00000000000E+00 -0.10000000000E+04  0.10000000000E+04  0.00000000000E+00 0.  1.
    9000005    2    1    2  501    0  0.36134566860E+02 -0.15573458183E+02 -0.71685786075E+03  0.71794165927E+03  0.26065428897E+01 0.  0.
         13    1    3    3    0    0  0.17034628509E+02 -0.62491920137E+01 -0.34521734603E+03  0.34569386307E+03  0.00000000000E+00 0.  1.
          3    1    3    3  501    0  0.19099938351E+02 -0.93242661697E+01 -0.37164051473E+03  0.37224779619E+03  0.00000000000E+00 0.  1.
         21    1    1    2  502  501 -0.36134566860E+02  0.15573458183E+02 -0.28123060251E+03  0.28396987747E+03  0.00000000000E+00 0.  1.
<mgrwt>
<rscale>  1 0.30000000E+03</rscale>
<asrwt>0</asrwt>
<pdfrwt beam="1">  1        3 0.69510573E-02 0.30000000E+03</pdfrwt>
<pdfrwt beam="2">0</pdfrwt>
<totfact> 0.59225589E+02</totfact>
</mgrwt>
</event>
<event>
 6    1  0.1956957E-002  0.3000000E+03  0.7818608E-02  0.1093470E+00
          1   -1    0    0  502    0  0.00000000000E+00  0.00000000000E+00  0.29425054082E+01  0.29425054082E+01  0.00000000000E+00 0.  1.
         13   -1    0    0    0    0 -0.00000000000E+00 -0.00000000000E+00 -0.10000000000E+04  0.10000000000E+04  0.00000000000E+00 0.  1.
    9000005    2    1    2  501    0  0.22306505037E+02  0.23594899771E+02 -0.90009718126E+03  0.90068986817E+03  0.36060279032E+01 0.  0.
         13    1    3    3    0    0  0.47476723286E+01  0.71980911215E+01 -0.22329964175E+03  0.22346606658E+03  0.00000000000E+00 0.  1.
          3    1    3    3  501    0  0.17558832708E+02  0.16396808649E+02 -0.67679753951E+03  0.67722380158E+03  0.00000000000E+00 0.  1.
         21    1    1    2  502  501 -0.22306505037E+02 -0.23594899771E+02 -0.96960313327E+02  0.10225263724E+03  0.00000000000E+00 0.  1.
<mgrwt>
<rscale>  1 0.30000000E+03</rscale>
<asrwt>0</asrwt>
<pdfrwt beam="1">  1        1 0.10700042E-01 0.30000000E+03</pdfrwt>
<pdfrwt beam="2">0</pdfrwt>
<totfact> 0.68845518E+02</totfact>
</mgrwt>
</event>
<event>
 6    1  0.1956957E-002  0.3000000E+03  0.7818608E-02  0.1093470E+00
          3   -1    0    0  502    0  0.00000000000E+00  0.00000000000E+00  0.15210576612E+01  0.15210576612E+01  0.00000000000E+00 0.  1.
         13   -1    0    0    0    0 -0.00000000000E+00 -0.00000000000E+00 -0.10000000000E+04  0.10000000000E+04  0.00000000000E+00 0.  1.
    9000005    2    1    2  501    0  0.23573054853E+02 -0.30315601641E+02 -0.58010848444E+03  0.58139183390E+03  0.39857477817E+01 0.  0.
         13    1    3    3    0    0  0.88598370543E+01 -0.13181619510E+02 -0.21538806522E+03  0.21597284654E+03  0.00000000000E+00 0.  1.
          3    1    3    3  501    0  0.14713217799E+02 -0.17133982131E+02 -0.36472041922E+03  0.36541898735E+03  0.00000000000E+00 0.  1.
         21    1    1    2  502  501 -0.23573054853E+02  0.30315601641E+02 -0.41837045790E+03  0.42012922377E+03  0.00000000000E+00 0.  1.
<mgrwt>
<rscale>  1 0.30000000E+03</rscale>
<asrwt>0</asrwt>
<pdfrwt beam="1">  1        3 0.55311304E-02 0.30000000E+03</pdfrwt>
<pdfrwt beam="2">0</pdfrwt>
<totfact> 0.84636444E+02</totfact>
</mgrwt>
</event>
<event>
 6    1  0.1956957E-002  0.3000000E+03  0.7818608E-02  0.1093470E+00
          1   -1    0    0  502    0  0.00000000000E+00  0.00000000000E+00  0.49266931614E+01  0.49266931614E+01  0.00000000000E+00 0.  1.
         13   -1    0    0    0    0 -0.00000000000E+00 -0.00000000000E+00 -0.10000000000E+04  0.10000000000E+04  0.00000000000E+00 0.  1.
    9000005    2    1    2  501    0  0.80314262111E+01 -0.69446478380E+02 -0.49024570195E+03  0.49528149519E+03  0.86944822994E+01 0.  0.
         13    1    3    3    0    0  0.56026033856E+01 -0.55829099232E+02 -0.36746666554E+03  0.37172574268E+03  0.00000000000E+00 0.  1.
          3    1    3    3  501    0  0.24288228255E+01 -0.13617379148E+02 -0.12277903641E+03  0.12355575250E+03  0.00000000000E+00 0.  1.
         21    1    1    2  502  501 -0.80314262111E+01  0.69446478380E+02 -0.50482760489E+03  0.50964519798E+03  0.00000000000E+00 0.  1.
<mgrwt>
<rscale>  1 0.30000000E+03</rscale>
<asrwt>0</asrwt>
<pdfrwt beam="1">  1        1 0.17915286E-01 0.30000000E+03</pdfrwt>
<pdfrwt beam="2">0</pdfrwt>
<totfact> 0.34124322E+02</totfact>
</mgrwt>
</event>
<event>
 6    1  0.1956957E-002  0.3000000E+03  0.7818608E-02  0.1093470E+00
          3   -1    0    0  502    0  0.00000000000E+00  0.00000000000E+00  0.36888141126E+01  0.36888141126E+01  0.00000000000E+00 0.  1.
         13   -1    0    0    0    0 -0.00000000000E+00 -0.00000000000E+00 -0.10000000000E+04  0.10000000000E+04  0.00000000000E+00 0.  1.
    9000005    2    1    2  501    0  0.34626847487E+01 -0.30095673879E+02 -0.93305073477E+03  0.93354877956E+03  0.34511425872E+01 0.  0.
         13    1    3    3    0    0 -0.29644403019E+00 -0.76410761125E+01 -0.26440116431E+03  0.26451171923E+03  0.00000000000E+00 0.  1.
          1    1    3    3  501    0  0.37591287789E+01 -0.22454597767E+02 -0.66864957046E+03  0.66903706033E+03  0.00000000000E+00 0.  1.
         21    1    1    2  502  501 -0.34626847487E+01  0.30095673879E+02 -0.63260451117E+02  0.70140034556E+02  0.00000000000E+00 0.  1.
<mgrwt>
<rscale>  1 0.30000000E+03</rscale>
<asrwt>0</asrwt>
<pdfrwt beam="1">  1        3 0.13413898E-01 0.30000000E+03</pdfrwt>
<pdfrwt beam="2">0</pdfrwt>
<totfact> 0.20169250E+02</totfact>
</mgrwt>
</event>
<event>
 6    1  0.1956957E-002  0.3000000E+03  0.7818608E-02  0.1093470E+00
          1   -1    0    0  502    0  0.00000000000E+00  0.00000000000E+00  0.99444133191E+00  0.99444133191E+00  0.00000000000E+00 0.  1.
         13   -1    0    0    0    0 -0.00000000000E+00 -0.00000000000E+00 -0.10000000000E+04  0.10000000000E+04  0.00000000000E+00 0.  1.
    9000005    2    1    2  501    0 -0.29539412119E+02 -0.81291406009E+01 -0.49521656747E+03  0.49627470975E+03  0.10510901291E+02 0.  0.
         13    1    3    3    0    0 -0.15279884329E+02 -0.67725877016E+01 -0.33588653569E+03  0.33630210773E+03  0.00000000000E+00 0.  1.
          3    1    3    3  501    0 -0.14259527789E+02 -0.13565528993E+01 -0.15933003178E+03  0.15997260202E+03  0.00000000000E+00 0.  1.
         21    1    1    2  502  501  0.29539412119E+02  0.81291406009E+01 -0.50378899120E+03  0.50471973158E+03  0.00000000000E+00 0.  1.
<mgrwt>
<rscale>  1 0.30000000E+03</rscale>
<asrwt>0</asrwt>
<pdfrwt beam="1">  1        1 0.36161579E-02 0.30000000E+03</pdfrwt>
<pdfrwt beam="2">0</pdfrwt>
<totfact> 0.31383941E+03</totfact>
</mgrwt>
</event>
<event>
 6    1  0.1956957E-002  0.3000000E+03  0.7818608E-02  0.1093470E+00
          3   -1    0    0  502    0  0.00000000000E+00  0.00000000000E+00  0.66582167459E+01  0.66582167459E+01  0.00000000000E+00 0.  1.
         13   -1    0    0    0    0 -0.00000000000E+00 -0.00000000000E+00 -0.10000000000E+04  0.10000000000E+04  0.00000000000E+00 0.  1.
    9000005    2    1    2  501    0 -0.24549478112E+02 -0.29116782406E+02 -0.94178734204E+03  0.94256200545E+03  0.30450950706E+01 0.  0.
         13    1    3    3    0    0 -0.16456401136E+02 -0.21429012306E+02 -0.68178642618E+03  0.68232158593E+03  0.00000000000E+00 0.  1.
          3    1    3    3  501    0 -0.80930769760E+01 -0.76877700996E+01 -0.26000091586E+03  0.26024041952E+03  0.00000000000E+00 0.  1.
         21    1    1    2  502  501  0.24549478112E+02  0.29116782406E+02 -0.51554441217E+02  0.64096211296E+02  0.00000000000E+00 0.  1.
<mgrwt>
<rscale>  1 0.30000000E+03</rscale>
<asrwt>0</asrwt>
<pdfrwt beam="1">  1        3 0.24211748E-01 0.30000000E+03</pdfrwt>
<pdfrwt beam="2">0</pdfrwt>
<totfact> 0.70112095E+01</totfact>
</mgrwt>
</event>
<event>
 6    1  0.1956957E-002  0.3000000E+03  0.7818608E-02  0.1093470E+00
          1   -1    0    0  502    0  0.00000000000E+00  0.00000000000E+00  0.21870327024E+02  0.21870327024E+02  0.00000000000E+00 0.  1.
         13   -1    0    0    0    0 -0.00000000000E+00 -0.00000000000E+00 -0.10000000000E+04  0.10000000000E+04  0.00000000000E+00 0.  1.
    9000005    2    1    2  501    0  0.67957904919E+02  0.67002244993E+02 -0.87934769335E+03  0.88451874467E+03  0.36696327672E+01 0.  0.
         13    1    3    3    0    0  0.22912116674E+02  0.24979214777E+02 -0.31613438295E+03  0.31794633879E+03  0.00000000000E+00 0.  1.
          3    1    3    3  501    0  0.45045788245E+02  0.42023030216E+02 -0.56321331040E+03  0.56657240589E+03  0.00000000000E+00 0.  1.
         21    1    1    2  502  501 -0.67957904919E+02 -0.67002244993E+02 -0.98781979625E+02  0.13735158235E+03  0.00000000000E+00 0.  1.
<mgrwt>
<rscale>  1 0.30000000E+03</rscale>
<asrwt>0</asrwt>
<pdfrwt beam="1">  1        1 0.79528630E-01 0.30000000E+03</pdfrwt>
<pdfrwt beam="2">0</pdfrwt>
<totfact> 0.47350914E+01</totfact>
</mgrwt>
</event>
<event>
 6    1  0.1956957E-002  0.3000000E+03  0.7818608E-02  0.1093470E+00
          3   -1    0    0  502    0  0.00000000000E+00  0.00000000000E+00  0.80724655934E+01  0.80724655934E+01  0.00000000000E+00 0.  1.
         13   -1    0    0    0    0 -0.00000000000E+00 -0.00000000000E+00 -0.10000000000E+04  0.10000000000E+04  0.00000000000E+00 0.  1.
    9000005    2    1    2  501    0  0.44456960108E+02 -0.11730099257E+02 -0.92894501970E+03  0.93009289334E+03  0.44636394716E+01 0.  0.
         13    1    3    3    0    0  0.99827127690E+00 -0.45727727569E+00 -0.39719165097E+02  0.39734339356E+02  0.00000000000E+00 0.  1.
          3    1    3    3  501    0  0.43458688831E+02 -0.11272821982E+02 -0.88922585461E+03  0.89035855398E+03  0.00000000000E+00 0.  1.
         21    1    1    2  502  501 -0.44456960108E+02  0.11730099257E+02 -0.62982514704E+02  0.77979572255E+02  0.00000000000E+00 0.  1.
<mgrwt>
<rscale>  1 0.30000000E+03</rscale>
<asrwt>0</asrwt>
<pdfrwt beam="1">  1        3 0.29354482E-01 0.30000000E+03</pdfrwt>
<pdfrwt beam="2">0</pdfrwt>
<totfact> 0.48736888E+01</totfact>
</mgrwt>
</event>
<event>
 6    1  0.1956957E-002  0.3000000E+03  0.7818608E-02  0.1093470E+00
          1   -1    0    0  502    0  0.00000000000E+00  0.00000000000E+00  0.13091733005E+01  0.13091733005E+01  0.00000000000E+00 0.  1.
         13   -1    0    0    0    0 -0.00000000000E+00 -0.00000000000E+00 -0.10000000000E+04  0.10000000000E+04  0.00000000000E+00 0.  1.
    9000005    2    1    2  501    0  0.26580822989E+02 -0.24314099397E+02 -0.46837809707E+03  0.46977431387E+03  0.34854811811E+01 0.  0.
         13    1    3    3    0    0  0.16317862062E+02 -0.14742256678E+02 -0.30743710240E+03  0.30822261222E+03  0.00000000000E+00 0.  1.
          1    1    3    3  501    0  0.10262960927E+02 -0.95718427194E+01 -0.16094099467E+03  0.16155170165E+03  0.00000000000E+00 0.  1.
         21    1    1    2  502  501 -0.26580822989E+02  0.24314099397E+02 -0.53031272963E+03  0.53153485943E+03  0.00000000000E+00 0.  1.
<mgrwt>
<rscale>  1 0.30000000E+03</rscale>
<asrwt>0</asrwt>
<pdfrwt beam="1">  1        1 0.47606402E-02 0.30000000E+03</pdfrwt>
<pdfrwt beam="2">0</pdfrwt>
<totfact> 0.21311959E+03</totfact>
</mgrwt>
</event>
<event>
 6    1  0.1956957E-002  0.3000000E+03  0.7818608E-02  0.1093470E+00
          1   -1    0    0  502    0  0.00000000000E+00  0.00000000000E+00  0.18483844987E+01  0.18483844987E+01  0.00000000000E+00 0.  1.
         13   -1    0    0    0    0 -0.00000000000E+00 -0.00000000000E+00 -0.10000000000E+04  0.10000000000E+04  0.00000000000E+00 0.  1.
    9000005    2    1    2  501    0 -0.32092370280E+02  0.26523559686E+02 -0.38989381626E+03  0.39216734511E+03  0.66797579671E+01 0.  0.
         13    1    3    3    0    0 -0.56625525358E+01  0.55287291121E+01 -0.53129139319E+02  0.53715331067E+02  0.00000000000E+00 0.  1.
          3    1    3    3  501    0 -0.26429817745E+02  0.20994830574E+02 -0.33676467694E+03  0.33845201405E+03  0.00000000000E+00 0.  1.
         21    1    1    2  502  501  0.32092370280E+02 -0.26523559686E+02 -0.60825779924E+03  0.60968103938E+03  0.00000000000E+00 0.  1.
<mgrwt>
<rscale>  1 0.30000000E+03</rscale>
<asrwt>0</asrwt>
<pdfrwt beam="1">  1        1 0.67214124E-02 0.30000000E+03</pdfrwt>
<pdfrwt beam="2">0</pdfrwt>
<totfact> 0.13133495E+03</totfact>
</mgrwt>
</event>
<event>
 6    1  0.1956957E-002  0.3000000E+03  0.7818608E-02  0.1093470E+00
          1   -1    0    0  502    0  0.00000000000E+00  0.00000000000E+00  0.17748199971E+01  0.17748199971E+01  0.00000000000E+00 0.  1.
         13   -1    0    0    0    0 -0.00000000000E+00 -0.00000000000E+00 -0.10000000000E+04  0.10000000000E+04  0.00000000000E+00 0.  1.
    9000005    2    1    2  501    0  0.15630854289E+02  0.27083910165E+02 -0.83438695078E+03  0.83497905521E+03  0.32522628492E+01 0.  0.
         13    1    3    3    0    0  0.11524041709E+02  0.20774103344E+02 -0.66687582665E+03  0.66729883491E+03  0.00000000000E+00 0.  1.
          3    1    3    3  501    0  0.41068125800E+01  0.63098068219E+01 -0.16751112413E+03  0.16768022029E+03  0.00000000000E+00 0.  1.
         21    1    1    2  502  501 -0.15630854289E+02 -0.27083910165E+02 -0.16383822923E+03  0.16679576479E+03  0.00000000000E+00 0.  1.
<mgrwt>
<rscale>  1 0.30000000E+03</rscale>
<asrwt>0</asrwt>
<pdfrwt beam="1">  1        1 0.64539045E-02 0.30000000E+03</pdfrwt>
<pdfrwt beam="2">0</pdfrwt>
<totfact> 0.13902022E+03</totfact>
</mgrwt>
</event>
<event>
 6    1  0.1956957E-002  0.3000000E+03  0.7818608E-02  0.1093470E+00
          3   -1    0    0  502    0  0.00000000000E+00  0.00000000000E+00  0.34430814383E+01  0.34430814383E+01  0.00000000000E+00 0.  1.
         13   -1    0    0    0    0 -0.00000000000E+00 -0.00000000000E+00 -0.10000000000E+04  0.10000000000E+04  0.00000000000E+00 0.  1.
    9000005    2    1    2  501    0  0.33683903513E+02 -0.20460401955E+01 -0.90782189635E+03  0.90850786245E+03  0.10351280855E+02 0.  0.
         13    1    3    3    0    0  0.21816299161E+02 -0.18596164531E+01 -0.70422185243E+03  0.70456215235E+03  0.00000000000E+00 0.  1.
          1    1    3    3  501    0  0.11867604352E+02 -0.18642374243E+00 -0.20360004392E+03  0.20394571011E+03  0.00000000000E+00 0.  1.
         21    1    1    2  502  501 -0.33683903513E+02  0.20460401955E+01 -0.88735022213E+02  0.94935218984E+02  0.00000000000E+00 0.  1.
<mgrwt>
<rscale>  1 0.30000000E+03</rscale>
<asrwt>0</asrwt>
<pdfrwt beam="1">  1        3 0.12520323E-01 0.30000000E+03</pdfrwt>
<pdfrwt beam="2">0</pdfrwt>
<totfact> 0.22675843E+02</totfact>
</mgrwt>
</event>
<event>
 6    1  0.1956957E-002  0.3000000E+03  0.7818608E-02  0.1093470E+00
          3   -1    0    0  502    0  0.00000000000E+00  0.00000000000E+00  0.20729584727E+01  0.20729584727E+01  0.00000000000E+00 0.  1.
         13   -1    0    0    0    0 -0.00000000000E+00 -0.00000000000E+00 -0.10000000000E+04  0.10000000000E+04  0.00000000000E+00 0.  1.
    9000005    2    1    2  501    0 -0.10003882241E+02  0.38390778493E+02 -0.74403779819E+03  0.74510277068E+03  0.34589308166E+01 0.  0.
         13    1    3    3    0    0 -0.45280332196E+01  0.20203361286E+02 -0.41739964829E+03  0.41791284412E+03  0.00000000000E+00 0.  1.
          3    1    3    3  501    0 -0.54758490211E+01  0.18187417207E+02 -0.32663814990E+03  0.32718992655E+03  0.00000000000E+00 0.  1.
         21    1    1    2  502  501  0.10003882241E+02 -0.38390778493E+02 -0.25388924334E+03  0.25697018779E+03  0.00000000000E+00 0.  1.
<mgrwt>
<rscale>  1 0.30000000E+03</rscale>
<asrwt>0</asrwt>
<pdfrwt beam="1">  1        3 0.75380467E-02 0.30000000E+03</pdfrwt>
<pdfrwt beam="2">0</pdfrwt>
<totfact> 0.52098512E+02</totfact>
</mgrwt>
</event>
<event>
 6    1  0.1956957E-002  0.3000000E+03  0.7818608E-02  0.1093470E+00
          1   -1    0    0  502    0  0.00000000000E+00  0.00000000000E+00  0.97389351647E+00  0.97389351647E+00  0.00000000000E+00 0.  1.
         13   -1    0    0    0    0 -0.00000000000E+00 -0.00000000000E+00 -0.10000000000E+04  0.10000000000E+04  0.00000000000E+00 0.  1.
    9000005    2    1    2  501    0 -0.18450953042E+02 -0.24548164782E+02 -0.42061123622E+03  0.42174439478E+03  0.33870980353E+01 0.  0.
         13    1    3    3    0    0 -0.11905930924E+02 -0.17679684674E+02 -0.30567380983E+03  0.30641605776E+03  0.00000000000E+00 0.  1.
          3    1    3    3  501    0 -0.65450221173E+01 -0.68684801083E+01 -0.11493742639E+03  0.11532833702E+03  0.00000000000E+00 0.  1.
         21    1    1    2  502  501  0.18450953042E+02  0.24548164782E+02 -0.57841487027E+03  0.57922949874E+03  0.00000000000E+00 0.  1.
<mgrwt>
<rscale>  1 0.30000000E+03</rscale>
<asrwt>0</asrwt>
<pdfrwt beam="1">  1        1 0.35414384E-02 0.30000000E+03</pdfrwt>
<pdfrwt beam="2">0</pdfrwt>
<totfact> 0.32319378E+03</totfact>
</mgrwt>
</event>
<event>
 6    1  0.1956957E-002  0.3000000E+03  0.7818608E-02  0.1093470E+00
          1   -1    0    0  502    0  0.00000000000E+00  0.00000000000E+00  0.13957667891E+01  0.13957667891E+01  0.00000000000E+00 0.  1.
         13   -1    0    0    0    0 -0.00000000000E+00 -0.00000000000E+00 -0.10000000000E+04  0.10000000000E+04  0.00000000000E+00 0.  1.
    9000005    2    1    2  501    0 -0.30220741406E+02 -0.20569256466E+02 -0.59898695682E+03  0.60010988975E+03  0.31808505210E+01 0.  0.
         13    1    3    3    0    0 -0.15700056210E+02 -0.12600239377E+02 -0.32915814568E+03  0.32977316850E+03  0.00000000000E+00 0.  1.
          3    1    3    3  501    0 -0.14520685196E+02 -0.79690170888E+01 -0.26982881115E+03  0.27033672125E+03  0.00000000000E+00 0.  1.
         21    1    1    2  502  501  0.30220741406E+02  0.20569256466E+02 -0.39961727639E+03  0.40128587704E+03  0.00000000000E+00 0.  1.
<mgrwt>
<rscale>  1 0.30000000E+03</rscale>
<asrwt>0</asrwt>
<pdfrwt beam="1">  1        1 0.50755263E-02 0.30000000E+03</pdfrwt>
<pdfrwt beam="2">0</pdfrwt>
<totfact> 0.19476855E+03</totfact>
</mgrwt>
</event>
<event>
 6    1  0.1956957E-002  0.3000000E+03  0.7818608E-02  0.1093470E+00
          1   -1    0    0  502    0  0.00000000000E+00  0.00000000000E+00  0.40848432480E+01  0.40848432480E+01  0.00000000000E+00 0.  1.
         13   -1    0    0    0    0 -0.00000000000E+00 -0.00000000000E+00 -0.10000000000E+04  0.10000000000E+04  0.00000000000E+00 0.  1.
    9000005    2    1    2  501    0 -0.23222538353E+01  0.45219759391E+02 -0.85213999506E+03  0.85334826301E+03  0.32353206259E+01 0.  0.
         13    1    3    3    0    0 -0.16781669596E+01  0.43832605664E+02 -0.82257781241E+03  0.82374654538E+03  0.00000000000E+00 0.  1.
          3    1    3    3  501    0 -0.64408687564E+00  0.13871537265E+01 -0.29562182649E+02  0.29601717625E+02  0.00000000000E+00 0.  1.
         21    1    1    2  502  501  0.23222538353E+01 -0.45219759391E+02 -0.14377516169E+03  0.15073658024E+03  0.00000000000E+00 0.  1.
<mgrwt>
<rscale>  1 0.30000000E+03</rscale>
<asrwt>0</asrwt>
<pdfrwt beam="1">  1        1 0.14854007E-01 0.30000000E+03</pdfrwt>
<pdfrwt beam="2">0</pdfrwt>
<totfact> 0.43960420E+02</totfact>
</mgrwt>
</event>
<event>
 6    1  0.1956957E-002  0.3000000E+03  0.7818608E-02  0.1093470E+00
          1   -1    0    0  502    0  0.00000000000E+00  0.00000000000E+00  0.34117862594E+01  0.34117862594E+01  0.00000000000E+00 0.  1.
         13   -1    0    0    0    0 -0.00000000000E+00 -0.00000000000E+00 -0.10000000000E+04  0.10000000000E+04  0.00000000000E+00 0.  1.
    9000005    2    1    2  501    0 -0.32395193231E+02  0.23689019290E+02 -0.86260429934E+03  0.86354646712E+03  0.39630113210E+01 0.  0.
         13    1    3    3    0    0 -0.26404196936E+01  0.20641999835E+01 -0.99084953409E+02  0.99141619564E+02  0.00000000000E+00 0.  1.
          3    1    3    3  501    0 -0.29754773538E+02  0.21624819306E+02 -0.76351934593E+03  0.76440484756E+03  0.00000000000E+00 0.  1.
         21    1    1    2  502  501  0.32395193231E+02 -0.23689019290E+02 -0.13398391440E+03  0.13986531913E+03  0.00000000000E+00 0.  1.
<mgrwt>
<rscale>  1 0.30000000E+03</rscale>
<asrwt>0</asrwt>
<pdfrwt beam="1">  1        1 0.12406522E-01 0.30000000E+03</pdfrwt>
<pdfrwt beam="2">0</pdfrwt>
<totfact> 0.56192631E+02</totfact>
</mgrwt>
</event>
<event>
 6    1  0.1956957E-002  0.3000000E+03  0.7818608E-02  0.1093470E+00
          1   -1    0    0  502    0  0.00000000000E+00  0.00000000000E+00  0.12216561985E+01  0.12216561985E+01  0.00000000000E+00 0.  1.
         13   -1    0    0    0    0 -0.00000000000E+00 -0.00000000000E+00 -0.10000000000E+04  0.10000000000E+04  0.00000000000E+00 0.  1.
    9000005    2    1    2  501    0 -0.24147261778E+02 -0.19218608320E+02 -0.73310602049E+03  0.73376282099E+03  0.33158757444E+01 0.  0.
         13    1    3    3    0    0 -0.10438414048E+02 -0.62511312891E+01 -0.29145243468E+03  0.29170628860E+03  0.00000000000E+00 0.  1.
          3    1    3    3  501    0 -0.13708847731E+02 -0.12967477031E+02 -0.44165358581E+03  0.44205653238E+03  0.00000000000E+00 0.  1.
         21    1    1    2  502  501  0.24147261778E+02  0.19218608320E+02 -0.26567232332E+03  0.26745883521E+03  0.00000000000E+00 0.  1.
<mgrwt>
<rscale>  1 0.30000000E+03</rscale>
<asrwt>0</asrwt>
<pdfrwt beam="1">  1        1 0.44423955E-02 0.30000000E+03</pdfrwt>
<pdfrwt beam="2">0</pdfrwt>
<totfact> 0.23490964E+03</totfact>
</mgrwt>
</event>
<event>
 6    1  0.1956957E-002  0.3000000E+03  0.7818608E-02  0.1093470E+00
          3   -1    0    0  502    0  0.00000000000E+00  0.00000000000E+00  0.24190126836E+01  0.24190126836E+01  0.00000000000E+00 0.  1.
         13   -1    0    0    0    0 -0.00000000000E+00 -0.00000000000E+00 -0.10000000000E+04  0.10000000000E+04  0.00000000000E+00 0.  1.
    9000005    2    1    2  501    0 -0.27077409289E+02  0.40436876842E+02 -0.47775572055E+03  0.48032071248E+03  0.94409332373E+01 0.  0.
         13    1    3    3    0    0 -0.22405496506E+02  0.26244492717E+02 -0.31735978176E+03  0.31923034121E+03  0.00000000000E+00 0.  1.
          3    1    3    3  501    0 -0.46719127831E+01  0.14192384125E+02 -0.16039593879E+03  0.16109037127E+03  0.00000000000E+00 0.  1.
         21    1    1    2  502  501  0.27077409289E+02 -0.40436876842E+02 -0.51982526677E+03  0.52209830020E+03  0.00000000000E+00 0.  1.
<mgrwt>
<rscale>  1 0.30000000E+03</rscale>
<asrwt>0</asrwt>
<pdfrwt beam="1">  1        3 0.87964283E-02 0.30000000E+03</pdfrwt>
<pdfrwt beam="2">0</pdfrwt>
<totfact> 0.40698565E+02</totfact>
</mgrwt>
</event>
<event>
 6    1  0.1956957E-002  0.3000000E+03  0.7818608E-02  0.1093470E+00
          1   -1    0    0  502    0  0.00000000000E+00  0.00000000000E+00  0.11580814164E+01  0.11580814164E+01  0.00000000000E+00 0.  1.
         13   -1    0    0    0    0 -0.00000000000E+00 -0.00000000000E+00 -0.10000000000E+04  0.10000000000E+04  0.00000000000E+00 0.  1.
    9000005    2    1    2  501    0 -0.32635138399E+02 -0.39645403040E+01 -0.62479544576E+03  0.62566968789E+03  0.35269631250E+01 0.  0.
         13    1    3    3    0    0 -0.28679599966E+02 -0.41199783635E+01 -0.56601410834E+03  0.56675520688E+03  0.00000000000E+00 0.  1.
          1    1    3    3  501    0 -0.39555384332E+01  0.15543805952E+00 -0.58781337414E+02  0.58914481017E+02  0.00000000000E+00 0.  1.
         21    1    1    2  502  501  0.32635138399E+02  0.39645403040E+01 -0.37404647283E+03  0.37548839352E+03  0.00000000000E+00 0.  1.
<mgrwt>
<rscale>  1 0.30000000E+03</rscale>
<asrwt>0</asrwt>
<pdfrwt beam="1">  1        1 0.42112140E-02 0.30000000E+03</pdfrwt>
<pdfrwt beam="2">0</pdfrwt>
<totfact> 0.25326512E+03</totfact>
</mgrwt>
</event>
<event>
 6    1  0.1956957E-002  0.3000000E+03  0.7818608E-02  0.1093470E+00
          3   -1    0    0  502    0  0.00000000000E+00  0.00000000000E+00  0.11798079450E+01  0.11798079450E+01  0.00000000000E+00 0.  1.
         13   -1    0    0    0    0 -0.00000000000E+00 -0.00000000000E+00 -0.10000000000E+04  0.10000000000E+04  0.00000000000E+00 0.  1.
    9000005    2    1    2  501    0  0.31693721056E+02 -0.37616206081E+01 -0.68333103032E+03  0.68408037100E+03  0.24525973356E+01 0.  0.
         13    1    3    3    0    0  0.18179629416E+02 -0.22302240161E+01 -0.36597265051E+03  0.36643069433E+03  0.00000000000E+00 0.  1.
          1    1    3    3  501    0  0.13514091640E+02 -0.15313965919E+01 -0.31735837981E+03  0.31764967666E+03  0.00000000000E+00 0.  1.
         21    1    1    2  502  501 -0.31693721056E+02  0.37616206081E+01 -0.31548916173E+03  0.31709943695E+03  0.00000000000E+00 0.  1.
<mgrwt>
<rscale>  1 0.30000000E+03</rscale>
<asrwt>0</asrwt>
<pdfrwt beam="1">  1        3 0.42902198E-02 0.30000000E+03</pdfrwt>
<pdfrwt beam="2">0</pdfrwt>
<totfact> 0.12529002E+03</totfact>
</mgrwt>
</event>
<event>
 6    1  0.1956957E-002  0.3000000E+03  0.7818608E-02  0.1093470E+00
          3   -1    0    0  502    0  0.00000000000E+00  0.00000000000E+00  0.24373404904E+01  0.24373404904E+01  0.00000000000E+00 0.  1.
         13   -1    0    0    0    0 -0.00000000000E+00 -0.00000000000E+00 -0.10000000000E+04  0.10000000000E+04  0.00000000000E+00 0.  1.
    9000005    2    1    2  501    0  0.48522963842E+01 -0.48517863064E+02 -0.57522343799E+03  0.57729272292E+03  0.27122878231E+01 0.  0.
         13    1    3    3    0    0  0.14044224644E+01 -0.16342138049E+02 -0.17886355207E+03  0.17961405329E+03  0.00000000000E+00 0.  1.
          1    1    3    3  501    0  0.34478739198E+01 -0.32175725015E+02 -0.39635988592E+03  0.39767866963E+03  0.00000000000E+00 0.  1.
         21    1    1    2  502  501 -0.48522963842E+01  0.48517863064E+02 -0.42233922152E+03  0.42514461757E+03  0.00000000000E+00 0.  1.
<mgrwt>
<rscale>  1 0.30000000E+03</rscale>
<asrwt>0</asrwt>
<pdfrwt beam="1">  1        3 0.88630750E-02 0.30000000E+03</pdfrwt>
<pdfrwt beam="2">0</pdfrwt>
<totfact> 0.40205727E+02</totfact>
</mgrwt>
</event>
<event>
 6    1  0.1956957E-002  0.3000000E+03  0.7818608E-02  0.1093470E+00
          3   -1    0    0  502    0  0.00000000000E+00  0.00000000000E+00  0.15850983228E+01  0.15850983228E+01  0.00000000000E+00 0.  1.
         13   -1    0    0    0    0 -0.00000000000E+00 -0.00000000000E+00 -0.10000000000E+04  0.10000000000E+04  0.00000000000E+00 0.  1.
    9000005    2    1    2  501    0  0.33952604471E+02  0.96284451681E+00 -0.75901695222E+03  0.75978955530E+03  0.44416404932E+01 0.  0.
         13    1    3    3    0    0  0.18340578838E+02  0.86929460797E+00 -0.45819679884E+03  0.45856454177E+03  0.00000000000E+00 0.  1.
          3    1    3    3  501    0  0.15612025632E+02  0.93549908840E-01 -0.30082015338E+03  0.30122501353E+03  0.00000000000E+00 0.  1.
         21    1    1    2  502  501 -0.33952604471E+02 -0.96284451681E+00 -0.23939794946E+03  0.24179554302E+03  0.00000000000E+00 0.  1.
<mgrwt>
<rscale>  1 0.30000000E+03</rscale>
<asrwt>0</asrwt>
<pdfrwt beam="1">  1        3 0.57640061E-02 0.30000000E+03</pdfrwt>
<pdfrwt beam="2">0</pdfrwt>
<totfact> 0.79383298E+02</totfact>
</mgrwt>
</event>
<event>
 6    1  0.1956957E-002  0.3000000E+03  0.7818608E-02  0.1093470E+00
          1   -1    0    0  502    0  0.00000000000E+00  0.00000000000E+00  0.10097312648E+02  0.10097312648E+02  0.00000000000E+00 0.  1.
         13   -1    0    0    0    0 -0.00000000000E+00 -0.00000000000E+00 -0.10000000000E+04  0.10000000000E+04  0.00000000000E+00 0.  1.
    9000005    2    1    2  501    0  0.21086428620E+02 -0.71250996886E+02 -0.83487824911E+03  0.83818478117E+03  0.32702456671E+01 0.  0.
         13    1    3    3    0    0  0.72793437093E+01 -0.22265963139E+02 -0.27881355574E+03  0.27979592710E+03  0.00000000000E+00 0.  1.
          1    1    3    3  501    0  0.13807084911E+02 -0.48985033747E+02 -0.55606469338E+03  0.55838885407E+03  0.00000000000E+00 0.  1.
         21    1    1    2  502  501 -0.21086428620E+02  0.71250996886E+02 -0.15502443824E+03  0.17191253148E+03  0.00000000000E+00 0.  1.
<mgrwt>
<rscale>  1 0.30000000E+03</rscale>
<asrwt>0</asrwt>
<pdfrwt beam="1">  1        1 0.36717578E-01 0.30000000E+03</pdfrwt>
<pdfrwt beam="2">0</pdfrwt>
<totfact> 0.13218694E+02</totfact>
</mgrwt>
</event>
<event>
 6    1  0.1956957E-002  0.3000000E+03  0.7818608E-02  0.1093470E+00
          1   -1    0    0  502    0  0.00000000000E+00  0.00000000000E+00  0.13168588930E+01  0.13168588930E+01  0.00000000000E+00 0.  1.
         13   -1    0    0    0    0 -0.00000000000E+00 -0.00000000000E+00 -0.10000000000E+04  0.10000000000E+04  0.00000000000E+00 0.  1.
    9000005    2    1    2  501    0 -0.31942833433E+02 -0.75887859252E+01 -0.71140007555E+03  0.71216379556E+03  0.30446564873E+01 0.  0.
         13    1    3    3    0    0 -0.30557412657E+02 -0.72934418912E+01 -0.66431714185E+03  0.66505955727E+03  0.00000000000E+00 0.  1.
          1    1    3    3  501    0 -0.13854207754E+01 -0.29534403396E+00 -0.47082933702E+02  0.47104238289E+02  0.00000000000E+00 0.  1.
         21    1    1    2  502  501  0.31942833433E+02  0.75887859252E+01 -0.28728306555E+03  0.28915306333E+03  0.00000000000E+00 0.  1.
<mgrwt>
<rscale>  1 0.30000000E+03</rscale>
<asrwt>0</asrwt>
<pdfrwt beam="1">  1        1 0.47885879E-02 0.30000000E+03</pdfrwt>
<pdfrwt beam="2">0</pdfrwt>
<totfact> 0.21137243E+03</totfact>
</mgrwt>
</event>
<event>
 6    1  0.1956957E-002  0.3000000E+03  0.7818608E-02  0.1093470E+00
          1   -1    0    0  502    0  0.00000000000E+00  0.00000000000E+00  0.83941841820E+01  0.83941841820E+01  0.00000000000E+00 0.  1.
         13   -1    0    0    0    0 -0.00000000000E+00 -0.00000000000E+00 -0.10000000000E+04  0.10000000000E+04  0.00000000000E+00 0.  1.
    9000005    2    1    2  501    0  0.65642093642E+02  0.31727195391E+02 -0.80107931562E+03  0.80439456001E+03  0.26530873243E+01 0.  0.
         13    1    3    3    0    0  0.48933802020E+02  0.22601371276E+02 -0.59940866328E+03  0.60182728800E+03  0.00000000000E+00 0.  1.
          3    1    3    3  501    0  0.16708291622E+02  0.91258241150E+01 -0.20167065234E+03  0.20256727201E+03  0.00000000000E+00 0.  1.
         21    1    1    2  502  501 -0.65642093642E+02 -0.31727195391E+02 -0.19052650020E+03  0.20399962417E+03  0.00000000000E+00 0.  1.
<mgrwt>
<rscale>  1 0.30000000E+03</rscale>
<asrwt>0</asrwt>
<pdfrwt beam="1">  1        1 0.30524370E-01 0.30000000E+03</pdfrwt>
<pdfrwt beam="2">0</pdfrwt>
<totfact> 0.16834618E+02</totfact>
</mgrwt>
</event>
<event>
 6    1  0.1956957E-002  0.3000000E+03  0.7818608E-02  0.1093470E+00
          3   -1    0    0  502    0  0.00000000000E+00  0.00000000000E+00  0.22462705506E+01  0.22462705506E+01  0.00000000000E+00 0.  1.
         13   -1    0    0    0    0 -0.00000000000E+00 -0.00000000000E+00 -0.10000000000E+04  0.10000000000E+04  0.00000000000E+00 0.  1.
    9000005    2    1    2  501    0 -0.29146422408E+02  0.10272955666E+02 -0.87863244474E+03  0.87918153950E+03  0.31873019812E+01 0.  0.
         13    1    3    3    0    0 -0.58570753095E+01  0.34373484937E+01 -0.19853809801E+03  0.19865421480E+03  0.00000000000E+00 0.  1.
          3    1    3    3  501    0 -0.23289347098E+02  0.68356071719E+01 -0.68009434673E+03  0.68052732470E+03  0.00000000000E+00 0.  1.
         21    1    1    2  502  501  0.29146422408E+02 -0.10272955666E+02 -0.11912128471E+03  0.12306473105E+03  0.00000000000E+00 0.  1.
<mgrwt>
<rscale>  1 0.30000000E+03</rscale>
<asrwt>0</asrwt>
<pdfrwt beam="1">  1        3 0.81682738E-02 0.30000000E+03</pdfrwt>
<pdfrwt beam="2">0</pdfrwt>
<totfact> 0.45840958E+02</totfact>
</mgrwt>
</event>
<event>
 6    1  0.1956957E-002  0.3000000E+03  0.7818608E-02  0.1093470E+00
          1   -1    0    0  502    0  0.00000000000E+00  0.00000000000E+00  0.24915573360E+01  0.24915573360E+01  0.00000000000E+00 0.  1.
         13   -1    0    0    0    0 -0.00000000000E+00 -0.00000000000E+00 -0.10000000000E+04  0.10000000000E+04  0.00000000000E+00 0.  1.
    9000005    2    1    2  501    0 -0.24705157593E+02  0.18771349573E+02 -0.89123494382E+03  0.89178128260E+03  0.33797227748E+01 0.  0.
         13    1    3    3    0    0 -0.97860501402E+01  0.91843660293E+01 -0.41067392115E+03  0.41089315992E+03  0.00000000000E+00 0.  1.
          1    1    3    3  501    0 -0.14919107453E+02  0.95869835437E+01 -0.48056102267E+03  0.48088812268E+03  0.00000000000E+00 0.  1.
         21    1    1    2  502  501  0.24705157593E+02 -0.18771349573E+02 -0.10627349884E+03  0.11071027474E+03  0.00000000000E+00 0.  1.
<mgrwt>
<rscale>  1 0.30000000E+03</rscale>
<asrwt>0</asrwt>
<pdfrwt beam="1">  1        1 0.90602276E-02 0.30000000E+03</pdfrwt>
<pdfrwt beam="2">0</pdfrwt>
<totfact> 0.86632646E+02</totfact>
</mgrwt>
</event>
<event>
 6    1  0.1956957E-002  0.3000000E+03  0.7818608E-02  0.1093470E+00
          3   -1    0    0  502    0  0.00000000000E+00  0.00000000000E+00  0.16351014182E+01  0.16351014182E+01  0.00000000000E+00 0.  1.
         13   -1    0    0    0    0 -0.00000000000E+00 -0.00000000000E+00 -0.10000000000E+04  0.10000000000E+04  0.00000000000E+00 0.  1.
    9000005    2    1    2  501    0 -0.34842138275E+02  0.20293284974E+02 -0.49398305445E+03  0.49564415614E+03  0.42519897053E+01 0.  0.
         13    1    3    3    0    0 -0.22495138156E+02  0.13946109905E+02 -0.30024848632E+03  0.30141280457E+03  0.00000000000E+00 0.  1.
          3    1    3    3  501    0 -0.12347000119E+02  0.63471750697E+01 -0.19373456813E+03  0.19423135157E+03  0.00000000000E+00 0.  1.
         21    1    1    2  502  501  0.34842138275E+02 -0.20293284974E+02 -0.50438184413E+03  0.50599094528E+03  0.00000000000E+00 0.  1.
<mgrwt>
<rscale>  1 0.30000000E+03</rscale>
<asrwt>0</asrwt>
<pdfrwt beam="1">  1        3 0.59458359E-02 0.30000000E+03</pdfrwt>
<pdfrwt beam="2">0</pdfrwt>
<totfact> 0.75632637E+02</totfact>
</mgrwt>
</event>
<event>
 6    1  0.1956957E-002  0.3000000E+03  0.7818608E-02  0.1093470E+00
          1   -1    0    0  502    0  0.00000000000E+00  0.00000000000E+00  0.24557731963E+02  0.24557731963E+02  0.00000000000E+00 0.  1.
         13   -1    0    0    0    0 -0.00000000000E+00 -0.00000000000E+00 -0.10000000000E+04  0.10000000000E+04  0.00000000000E+00 0.  1.
    9000005    2    1    2  501    0 -0.47391165481E+02  0.38874844542E+02 -0.95917728581E+03  0.96114065421E+03  0.36215274993E+01 0.  0.
         13    1    3    3    0    0 -0.12228369129E+02  0.11944742286E+02 -0.25679904109E+03  0.25736735881E+03  0.00000000000E+00 0.  1.
          3    1    3    3  501    0 -0.35162796352E+02  0.26930102256E+02 -0.70237824472E+03  0.70377329540E+03  0.00000000000E+00 0.  1.
         21    1    1    2  502  501  0.47391165481E+02 -0.38874844542E+02 -0.16264982228E+02  0.63417077752E+02  0.00000000000E+00 0.  1.
<mgrwt>
<rscale>  1 0.30000000E+03</rscale>
<asrwt>0</asrwt>
<pdfrwt beam="1">  1        1 0.89301032E-01 0.30000000E+03</pdfrwt>
<pdfrwt beam="2">0</pdfrwt>
<totfact> 0.40274118E+01</totfact>
</mgrwt>
</event>
<event>
 6    1  0.1956957E-002  0.3000000E+03  0.7818608E-02  0.1093470E+00
          1   -1    0    0  502    0  0.00000000000E+00  0.00000000000E+00  0.14945811447E+02  0.14945811447E+02  0.00000000000E+00 0.  1.
         13   -1    0    0    0    0 -0.00000000000E+00 -0.00000000000E+00 -0.10000000000E+04  0.10000000000E+04  0.00000000000E+00 0.  1.
    9000005    2    1    2  501    0  0.79332588588E+02  0.58845787669E+02 -0.79151830112E+03  0.79766114549E+03  0.23655159455E+01 0.  0.
         13    1    3    3    0    0  0.60224665742E+02  0.45741841220E+02 -0.60169238317E+03  0.60642645916E+03  0.00000000000E+00 0.  1.
          1    1    3    3  501    0  0.19107922846E+02  0.13103946449E+02 -0.18982591795E+03  0.19123468633E+03  0.00000000000E+00 0.  1.
         21    1    1    2  502  501 -0.79332588588E+02 -0.58845787669E+02 -0.19353588743E+03  0.21728466596E+03  0.00000000000E+00 0.  1.
<mgrwt>
<rscale>  1 0.30000000E+03</rscale>
<asrwt>0</asrwt>
<pdfrwt beam="1">  1        1 0.54348520E-01 0.30000000E+03</pdfrwt>
<pdfrwt beam="2">0</pdfrwt>
<totfact> 0.79060670E+01</totfact>
</mgrwt>
</event>
<event>
 6    1  0.1956957E-002  0.3000000E+03  0.7818608E-02  0.1093470E+00
          1   -1    0    0  502    0  0.00000000000E+00  0.00000000000E+00  0.21423513869E+01  0.21423513869E+01  0.00000000000E+00 0.  1.
         13   -1    0    0    0    0 -0.00000000000E+00 -0.00000000000E+00 -0.10000000000E+04  0.10000000000E+04  0.00000000000E+00 0.  1.
    9000005    2    1    2  501    0 -0.11514958147E+02 -0.43749330909E+02 -0.39704485556E+03  0.39962877436E+03  0.34556832503E+01 0.  0.
         13    1    3    3    0    0 -0.55122515558E+01 -0.16540217172E+02 -0.14192299383E+03  0.14298985936E+03  0.00000000000E+00 0.  1.
          1    1    3    3  501    0 -0.60027065917E+01 -0.27209113737E+02 -0.25512186173E+03  0.25663891500E+03  0.00000000000E+00 0.  1.
         21    1    1    2  502  501  0.11514958147E+02  0.43749330909E+02 -0.60081279305E+03  0.60251357703E+03  0.00000000000E+00 0.  1.
<mgrwt>
<rscale>  1 0.30000000E+03</rscale>
<asrwt>0</asrwt>
<pdfrwt beam="1">  1        1 0.77903851E-02 0.30000000E+03</pdfrwt>
<pdfrwt beam="2">0</pdfrwt>
<totfact> 0.10686455E+03</totfact>
</mgrwt>
</event>
<event>
 6    1  0.1956957E-002  0.3000000E+03  0.7818608E-02  0.1093470E+00
          3   -1    0    0  502    0  0.00000000000E+00  0.00000000000E+00  0.20714731775E+01  0.20714731775E+01  0.00000000000E+00 0.  1.
         13   -1    0    0    0    0 -0.00000000000E+00 -0.00000000000E+00 -0.10000000000E+04  0.10000000000E+04  0.00000000000E+00 0.  1.
    9000005    2    1    2  501    0 -0.45158722296E+02 -0.17733307650E+01 -0.44485780503E+03  0.44715735532E+03  0.29629061556E+01 0.  0.
         13    1    3    3    0    0 -0.28823996961E+01 -0.12361060332E+00 -0.36427990254E+02  0.36542057708E+02  0.00000000000E+00 0.  1.
          1    1    3    3  501    0 -0.42276322600E+02 -0.16497201617E+01 -0.40842981478E+03  0.41061529761E+03  0.00000000000E+00 0.  1.
         21    1    1    2  502  501  0.45158722296E+02  0.17733307650E+01 -0.55307072179E+03  0.55491411786E+03  0.00000000000E+00 0.  1.
<mgrwt>
<rscale>  1 0.30000000E+03</rscale>
<asrwt>0</asrwt>
<pdfrwt beam="1">  1        3 0.75326456E-02 0.30000000E+03</pdfrwt>
<pdfrwt beam="2">0</pdfrwt>
<totfact> 0.52157864E+02</totfact>
</mgrwt>
</event>
<event>
 6    1  0.1956957E-002  0.3000000E+03  0.7818608E-02  0.1093470E+00
          1   -1    0    0  502    0  0.00000000000E+00  0.00000000000E+00  0.16872119269E+01  0.16872119269E+01  0.00000000000E+00 0.  1.
         13   -1    0    0    0    0 -0.00000000000E+00 -0.00000000000E+00 -0.10000000000E+04  0.10000000000E+04  0.00000000000E+00 0.  1.
    9000005    2    1    2  501    0  0.65288097288E+01 -0.39904144053E+02 -0.58362311821E+03  0.58503089269E+03  0.31992535374E+01 0.  0.
         13    1    3    3    0    0  0.51832088481E+01 -0.29507440696E+02 -0.41192389827E+03  0.41301192801E+03  0.00000000000E+00 0.  1.
          3    1    3    3  501    0  0.13456008808E+01 -0.10396703357E+02 -0.17169921993E+03  0.17201896468E+03  0.00000000000E+00 0.  1.
         21    1    1    2  502  501 -0.65288097288E+01  0.39904144053E+02 -0.41468966987E+03  0.41665631924E+03  0.00000000000E+00 0.  1.
<mgrwt>
<rscale>  1 0.30000000E+03</rscale>
<asrwt>0</asrwt>
<pdfrwt beam="1">  1        1 0.61353290E-02 0.30000000E+03</pdfrwt>
<pdfrwt beam="2">0</pdfrwt>
<totfact> 0.14924200E+03</totfact>
</mgrwt>
</event>
<event>
 6    1  0.1956957E-002  0.3000000E+03  0.7818608E-02  0.1093470E+00
          3   -1    0    0  502    0  0.00000000000E+00  0.00000000000E+00  0.14471833373E+01  0.14471833373E+01  0.00000000000E+00 0.  1.
         13   -1    0    0    0    0 -0.00000000000E+00 -0.00000000000E+00 -0.10000000000E+04  0.10000000000E+04  0.00000000000E+00 0.  1.
    9000005    2    1    2  501    0 -0.14230106412E+02 -0.27441691750E+02 -0.79049109774E+03  0.79110170262E+03  0.31915383150E+01 0.  0.
         13    1    3    3    0    0 -0.81331241989E+01 -0.12267968475E+02 -0.36791554334E+03  0.36820985564E+03  0.00000000000E+00 0.  1.
          1    1    3    3  501    0 -0.60969822128E+01 -0.15173723276E+02 -0.42257555440E+03  0.42289184698E+03  0.00000000000E+00 0.  1.
         21    1    1    2  502  501  0.14230106412E+02  0.27441691750E+02 -0.20806171893E+03  0.21034548072E+03  0.00000000000E+00 0.  1.
<mgrwt>
<rscale>  1 0.30000000E+03</rscale>
<asrwt>0</asrwt>
<pdfrwt beam="1">  1        3 0.52624960E-02 0.30000000E+03</pdfrwt>
<pdfrwt beam="2">0</pdfrwt>
<totfact> 0.91419695E+02</totfact>
</mgrwt>
</event>
<event>
 6    1  0.1956957E-002  0.3000000E+03  0.7818608E-02  0.1093470E+00
          3   -1    0    0  502    0  0.00000000000E+00  0.00000000000E+00  0.14173039581E+01  0.14173039581E+01  0.00000000000E+00 0.  1.
         13   -1    0    0    0    0 -0.00000000000E+00 -0.00000000000E+00 -0.10000000000E+04  0.10000000000E+04  0.00000000000E+00 0.  1.
    9000005    2    1    2  501    0 -0.22724609395E+02  0.20819340313E+02 -0.78624074243E+03  0.78685039582E+03  0.30310964241E+01 0.  0.
         13    1    3    3    0    0 -0.15852429297E+02  0.14479586906E+02 -0.51081140405E+03  0.51126240665E+03  0.00000000000E+00 0.  1.
          1    1    3    3  501    0 -0.68721800983E+01  0.63397534075E+01 -0.27542933838E+03  0.27558798917E+03  0.00000000000E+00 0.  1.
         21    1    1    2  502  501  0.22724609395E+02 -0.20819340313E+02 -0.21234195361E+03  0.21456690813E+03  0.00000000000E+00 0.  1.
<mgrwt>
<rscale>  1 0.30000000E+03</rscale>
<asrwt>0</asrwt>
<pdfrwt beam="1">  1        3 0.51538434E-02 0.30000000E+03</pdfrwt>
<pdfrwt beam="2">0</pdfrwt>
<totfact> 0.94415736E+02</totfact>
</mgrwt>
</event>
<event>
 6    1  0.1956957E-002  0.3000000E+03  0.7818608E-02  0.1093470E+00
          3   -1    0    0  502    0  0.00000000000E+00  0.00000000000E+00  0.12589264353E+01  0.12589264353E+01  0.00000000000E+00 0.  1.
         13   -1    0    0    0    0 -0.00000000000E+00 -0.00000000000E+00 -0.10000000000E+04  0.10000000000E+04  0.00000000000E+00 0.  1.
    9000005    2    1    2  501    0 -0.19202412555E+02 -0.28586223633E+02 -0.38653375718E+03  0.38808382659E+03  0.38478819110E+01 0.  0.
         13    1    3    3    0    0 -0.12951953634E+02 -0.22247377975E+02 -0.28398790095E+03  0.28515228706E+03  0.00000000000E+00 0.  1.
          3    1    3    3  501    0 -0.62504589208E+01 -0.63388456582E+01 -0.10254585623E+03  0.10293153953E+03  0.00000000000E+00 0.  1.
         21    1    1    2  502  501  0.19202412555E+02  0.28586223633E+02 -0.61220731639E+03  0.61317509984E+03  0.00000000000E+00 0.  1.
<mgrwt>
<rscale>  1 0.30000000E+03</rscale>
<asrwt>0</asrwt>
<pdfrwt beam="1">  1        3 0.45779240E-02 0.30000000E+03</pdfrwt>
<pdfrwt beam="2">0</pdfrwt>
<totfact> 0.11336521E+03</totfact>
</mgrwt>
</event>
<event>
 6    1  0.1956957E-002  0.3000000E+03  0.7818608E-02  0.1093470E+00
          1   -1    0    0  502    0  0.00000000000E+00  0.00000000000E+00  0.98550415173E+00  0.98550415173E+00  0.00000000000E+00 0.  1.
         13   -1    0    0    0    0 -0.00000000000E+00 -0.00000000000E+00 -0.10000000000E+04  0.10000000000E+04  0.00000000000E+00 0.  1.
    9000005    2    1    2  501    0 -0.16028225072E+02  0.26869785085E+02 -0.46930429233E+03  0.47035211935E+03  0.23891489840E+01 0.  0.
         13    1    3    3    0    0 -0.50206767295E+01  0.65262275667E+01 -0.11719632544E+03  0.11748522263E+03  0.00000000000E+00 0.  1.
          3    1    3    3  501    0 -0.11007548343E+02  0.20343557519E+02 -0.35210796689E+03  0.35286689672E+03  0.00000000000E+00 0.  1.
         21    1    1    2  502  501  0.16028225072E+02 -0.26869785085E+02 -0.52971020352E+03  0.53063338480E+03  0.00000000000E+00 0.  1.
<mgrwt>
<rscale>  1 0.30000000E+03</rscale>
<asrwt>0</asrwt>
<pdfrwt beam="1">  1        1 0.35836590E-02 0.30000000E+03</pdfrwt>
<pdfrwt beam="2">0</pdfrwt>
<totfact> 0.31785069E+03</totfact>
</mgrwt>
</event>
<event>
 6    1  0.1956957E-002  0.3000000E+03  0.7818608E-02  0.1093470E+00
          3   -1    0    0  502    0  0.00000000000E+00  0.00000000000E+00  0.28342863173E+01  0.28342863173E+01  0.00000000000E+00 0.  1.
         13   -1    0    0    0    0 -0.00000000000E+00 -0.00000000000E+00 -0.10000000000E+04  0.10000000000E+04  0.00000000000E+00 0.  1.
    9000005    2    1    2  501    0  0.23665308620E+02 -0.20971861191E+02 -0.97472608423E+02  0.10258568207E+03  0.48007269730E+01 0.  0.
         13    1    3    3    0    0  0.16304067266E+02 -0.11373563835E+02 -0.59496318888E+02  0.62729518768E+02  0.00000000000E+00 0.  1.
          1    1    3    3  501    0  0.73612413542E+01 -0.95982973562E+01 -0.37976289535E+02  0.39856163303E+02  0.00000000000E+00 0.  1.
         21    1    1    2  502  501 -0.23665308620E+02  0.20971861191E+02 -0.89969310526E+03  0.90024860425E+03  0.00000000000E+00 0.  1.
<mgrwt>
<rscale>  1 0.30000000E+03</rscale>
<asrwt>0</asrwt>
<pdfrwt beam="1">  1        3 0.10306517E-01 0.30000000E+03</pdfrwt>
<pdfrwt beam="2">0</pdfrwt>
<totfact> 0.31418052E+02</totfact>
</mgrwt>
</event>
<event>
 6    1  0.1956957E-002  0.3000000E+03  0.7818608E-02  0.1093470E+00
          3   -1    0    0  502    0  0.00000000000E+00  0.00000000000E+00  0.12848822960E+01  0.12848822960E+01  0.00000000000E+00 0.  1.
         13   -1    0    0    0    0 -0.00000000000E+00 -0.00000000000E+00 -0.10000000000E+04  0.10000000000E+04  0.00000000000E+00 0.  1.
    9000005    2    1    2  501    0  0.31569393518E+02  0.15851341147E+02 -0.57790029848E+03  0.57898995727E+03  0.35670736205E+01 0.  0.
         13    1    3    3    0    0  0.13889026257E+02  0.67604933326E+01 -0.28173738738E+03  0.28216053014E+03  0.00000000000E+00 0.  1.
          3    1    3    3  501    0  0.17680367261E+02  0.90908478144E+01 -0.29616291110E+03  0.29682942713E+03  0.00000000000E+00 0.  1.
         21    1    1    2  502  501 -0.31569393518E+02 -0.15851341147E+02 -0.42081481922E+03  0.42229492502E+03  0.00000000000E+00 0.  1.
<mgrwt>
<rscale>  1 0.30000000E+03</rscale>
<asrwt>0</asrwt>
<pdfrwt beam="1">  1        3 0.46723091E-02 0.30000000E+03</pdfrwt>
<pdfrwt beam="2">0</pdfrwt>
<totfact> 0.10984996E+03</totfact>
</mgrwt>
</event>
<event>
 6    1  0.1956957E-002  0.3000000E+03  0.7818608E-02  0.1093470E+00
          3   -1    0    0  502    0  0.00000000000E+00  0.00000000000E+00  0.83455798017E+01  0.83455798017E+01  0.00000000000E+00 0.  1.
         13   -1    0    0    0    0 -0.00000000000E+00 -0.00000000000E+00 -0.10000000000E+04  0.10000000000E+04  0.00000000000E+00 0.  1.
    9000005    2    1    2  501    0 -0.44102485188E+01  0.84838350045E+02 -0.31106041252E+03  0.32247008146E+03  0.33730213323E+01 0.  0.
         13    1    3    3    0    0 -0.20733840402E+01  0.63888809946E+02 -0.23102861642E+03  0.23970878282E+03  0.00000000000E+00 0.  1.
          3    1    3    3  501    0 -0.23368644786E+01  0.20949540098E+02 -0.80031796098E+02  0.82761298640E+02  0.00000000000E+00 0.  1.
         21    1    1    2  502  501  0.44102485188E+01 -0.84838350045E+02 -0.68059400768E+03  0.68587549834E+03  0.00000000000E+00 0.  1.
<mgrwt>
<rscale>  1 0.30000000E+03</rscale>
<asrwt>0</asrwt>
<pdfrwt beam="1">  1        3 0.30347627E-01 0.30000000E+03</pdfrwt>
<pdfrwt beam="2">0</pdfrwt>
<totfact> 0.45750344E+01</totfact>
</mgrwt>
</event>
<event>
 6    1  0.1956957E-002  0.3000000E+03  0.7818608E-02  0.1093470E+00
          1   -1    0    0  502    0  0.00000000000E+00  0.00000000000E+00  0.14720932323E+01  0.14720932323E+01  0.00000000000E+00 0.  1.
         13   -1    0    0    0    0 -0.00000000000E+00 -0.00000000000E+00 -0.10000000000E+04  0.10000000000E+04  0.00000000000E+00 0.  1.
    9000005    2    1    2  501    0 -0.35815247226E+02  0.32359390195E+01 -0.67209250845E+03  0.67306187337E+03  0.32775348223E+01 0.  0.
         13    1    3    3    0    0 -0.27733166758E+02  0.29475047068E+01 -0.49546039610E+03  0.49624471829E+03  0.00000000000E+00 0.  1.
          3    1    3    3  501    0 -0.80820804679E+01  0.28843431275E+00 -0.17663211235E+03  0.17681715508E+03  0.00000000000E+00 0.  1.
         21    1    1    2  502  501  0.35815247226E+02 -0.32359390195E+01 -0.32643539832E+03  0.32841021986E+03  0.00000000000E+00 0.  1.
<mgrwt>
<rscale>  1 0.30000000E+03</rscale>
<asrwt>0</asrwt>
<pdfrwt beam="1">  1        1 0.53530776E-02 0.30000000E+03</pdfrwt>
<pdfrwt beam="2">0</pdfrwt>
<totfact> 0.18073129E+03</totfact>
</mgrwt>
</event>
<event>
 6    1  0.1956957E-002  0.3000000E+03  0.7818608E-02  0.1093470E+00
          3   -1    0    0  502    0  0.00000000000E+00  0.00000000000E+00  0.32274362040E+01  0.32274362040E+01  0.00000000000E+00 0.  1.
         13   -1    0    0    0    0 -0.00000000000E+00 -0.00000000000E+00 -0.10000000000E+04  0.10000000000E+04  0.00000000000E+00 0.  1.
    9000005    2    1    2  501    0 -0.29170493031E+02 -0.39014631962E+02 -0.75575165536E+03  0.75733287044E+03  0.44105433523E+01 0.  0.
         13    1    3    3    0    0 -0.23070725509E+02 -0.31960364346E+02 -0.63442245924E+03  0.63564579764E+03  0.00000000000E+00 0.  1.
          3    1    3    3  501    0 -0.60997675224E+01 -0.70542676161E+01 -0.12132919613E+03  0.12168707280E+03  0.00000000000E+00 0.  1.
         21    1    1    2  502  501  0.29170493031E+02  0.39014631962E+02 -0.24102090843E+03  0.24589456576E+03  0.00000000000E+00 0.  1.
<mgrwt>
<rscale>  1 0.30000000E+03</rscale>
<asrwt>0</asrwt>
<pdfrwt beam="1">  1        3 0.11736156E-01 0.30000000E+03</pdfrwt>
<pdfrwt beam="2">0</pdfrwt>
<totfact> 0.25291055E+02</totfact>
</mgrwt>
</event>
<event>
 6    1  0.1956957E-002  0.3000000E+03  0.7818608E-02  0.1093470E+00
          1   -1    0    0  502    0  0.00000000000E+00  0.00000000000E+00  0.31548680112E+01  0.31548680112E+01  0.00000000000E+00 0.  1.
         13   -1    0    0    0    0 -0.00000000000E+00 -0.00000000000E+00 -0.10000000000E+04  0.10000000000E+04  0.00000000000E+00 0.  1.
    9000005    2    1    2  501    0 -0.85221896997E+00  0.48932392414E+02 -0.74419637540E+03  0.74580976992E+03  0.29769864744E+01 0.  0.
         13    1    3    3    0    0 -0.13464880744E+01  0.95981273906E+01 -0.14543424073E+03  0.14575683674E+03  0.00000000000E+00 0.  1.
          1    1    3    3  501    0  0.49426910447E+00  0.39334265024E+02 -0.59876213466E+03  0.60005293318E+03  0.00000000000E+00 0.  1.
         21    1    1    2  502  501  0.85221896997E+00 -0.48932392414E+02 -0.25264875659E+03  0.25734509809E+03  0.00000000000E+00 0.  1.
<mgrwt>
<rscale>  1 0.30000000E+03</rscale>
<asrwt>0</asrwt>
<pdfrwt beam="1">  1        1 0.11472272E-01 0.30000000E+03</pdfrwt>
<pdfrwt beam="2">0</pdfrwt>
<totfact> 0.62559463E+02</totfact>
</mgrwt>
</event>
<event>
 6    1  0.1956957E-002  0.3000000E+03  0.7818608E-02  0.1093470E+00
          1   -1    0    0  502    0  0.00000000000E+00  0.00000000000E+00  0.62335244426E+01  0.62335244426E+01  0.00000000000E+00 0.  1.
         13   -1    0    0    0    0 -0.00000000000E+00 -0.00000000000E+00 -0.10000000000E+04  0.10000000000E+04  0.00000000000E+00 0.  1.
    9000005    2    1    2  501    0 -0.57598198126E+02 -0.42416526789E+02 -0.70944266856E+03  0.71304972305E+03  0.37806612368E+01 0.  0.
         13    1    3    3    0    0 -0.87226199805E+01 -0.69746784327E+01 -0.12429851848E+03  0.12479924653E+03  0.00000000000E+00 0.  1.
          1    1    3    3  501    0 -0.48875578145E+02 -0.35441848356E+02 -0.58514415007E+03  0.58825047651E+03  0.00000000000E+00 0.  1.
         21    1    1    2  502  501  0.57598198126E+02  0.42416526789E+02 -0.28432380700E+03  0.29318380139E+03  0.00000000000E+00 0.  1.
<mgrwt>
<rscale>  1 0.30000000E+03</rscale>
<asrwt>0</asrwt>
<pdfrwt beam="1">  1        1 0.22667409E-01 0.30000000E+03</pdfrwt>
<pdfrwt beam="2">0</pdfrwt>
<totfact> 0.24922662E+02</totfact>
</mgrwt>
</event>
<event>
 6    1  0.1956957E-002  0.3000000E+03  0.7818608E-02  0.1093470E+00
          1   -1    0    0  502    0  0.00000000000E+00  0.00000000000E+00  0.41199808485E+01  0.41199808485E+01  0.00000000000E+00 0.  1.
         13   -1    0    0    0    0 -0.00000000000E+00 -0.00000000000E+00 -0.10000000000E+04  0.10000000000E+04  0.00000000000E+00 0.  1.
    9000005    2    1    2  501    0  0.63670831263E+02 -0.49655321864E+01 -0.54587549672E+03  0.54960628307E+03  0.28943396613E+01 0.  0.
         13    1    3    3    0    0  0.39290841393E+02 -0.16523753353E+01 -0.33615637670E+03  0.33844882945E+03  0.00000000000E+00 0.  1.
          3    1    3    3  501    0  0.24379989870E+02 -0.33131568511E+01 -0.20971912002E+03  0.21115745361E+03  0.00000000000E+00 0.  1.
         21    1    1    2  502  501 -0.63670831263E+02  0.49655321864E+01 -0.45000452243E+03  0.45451369778E+03  0.00000000000E+00 0.  1.
<mgrwt>
<rscale>  1 0.30000000E+03</rscale>
<asrwt>0</asrwt>
<pdfrwt beam="1">  1        1 0.14981780E-01 0.30000000E+03</pdfrwt>
<pdfrwt beam="2">0</pdfrwt>
<totfact> 0.43452123E+02</totfact>
</mgrwt>
</event>
<event>
 6    1  0.1956957E-002  0.3000000E+03  0.7818608E-02  0.1093470E+00
          1   -1    0    0  502    0  0.00000000000E+00  0.00000000000E+00  0.26327748954E+01  0.26327748954E+01  0.00000000000E+00 0.  1.
         13   -1    0    0    0    0 -0.00000000000E+00 -0.00000000000E+00 -0.10000000000E+04  0.10000000000E+04  0.00000000000E+00 0.  1.
    9000005    2    1    2  501    0 -0.38610118737E+02  0.23993333965E+02 -0.26805815778E+03  0.27190838292E+03  0.35456179939E+01 0.  0.
         13    1    3    3    0    0 -0.45328219827E+01  0.17430687173E+01 -0.25186081422E+02  0.25650018734E+02  0.00000000000E+00 0.  1.
          3    1    3    3  501    0 -0.34077296754E+02  0.22250265248E+02 -0.24287207636E+03  0.24625836418E+03  0.00000000000E+00 0.  1.
         21    1    1    2  502  501  0.38610118737E+02 -0.23993333965E+02 -0.72930906733E+03  0.73072439198E+03  0.00000000000E+00 0.  1.
<mgrwt>
<rscale>  1 0.30000000E+03</rscale>
<asrwt>0</asrwt>
<pdfrwt beam="1">  1        1 0.95737471E-02 0.30000000E+03</pdfrwt>
<pdfrwt beam="2">0</pdfrwt>
<totfact> 0.80263341E+02</totfact>
</mgrwt>
</event>
<event>
 6    1  0.1956957E-002  0.3000000E+03  0.7818608E-02  0.1093470E+00
          1   -1    0    0  502    0  0.00000000000E+00  0.00000000000E+00  0.39108729227E+01  0.39108729227E+01  0.00000000000E+00 0.  1.
         13   -1    0    0    0    0 -0.00000000000E+00 -0.00000000000E+00 -0.10000000000E+04  0.10000000000E+04  0.00000000000E+00 0.  1.
    9000005    2    1    2  501    0  0.62270577792E+02 -0.39556794857E-01 -0.54009812470E+03  0.54368764375E+03  0.35557328620E+01 0.  0.
         13    1    3    3    0    0  0.50474950795E+02 -0.14252704315E+01 -0.43669327283E+03  0.43960296472E+03  0.00000000000E+00 0.  1.
          1    1    3    3  501    0  0.11795626996E+02  0.13857136367E+01 -0.10340485187E+03  0.10408467903E+03  0.00000000000E+00 0.  1.
         21    1    1    2  502  501 -0.62270577792E+02  0.39556794857E-01 -0.45599100238E+03  0.46022322917E+03  0.00000000000E+00 0.  1.
<mgrwt>
<rscale>  1 0.30000000E+03</rscale>
<asrwt>0</asrwt>
<pdfrwt beam="1">  1        1 0.14221386E-01 0.30000000E+03</pdfrwt>
<pdfrwt beam="2">0</pdfrwt>
<totfact> 0.46639623E+02</totfact>
</mgrwt>
</event>
<event>
 6    1  0.1956957E-002  0.3000000E+03  0.7818608E-02  0.1093470E+00
          3   -1    0    0  502    0  0.00000000000E+00  0.00000000000E+00  0.17946869799E+01  0.17946869799E+01  0.00000000000E+00 0.  1.
         13   -1    0    0    0    0 -0.00000000000E+00 -0.00000000000E+00 -0.10000000000E+04  0.10000000000E+04  0.00000000000E+00 0.  1.
    9000005    2    1    2  501    0  0.22639638775E+01 -0.37688723081E+02 -0.72470562573E+03  0.72570114427E+03  0.42826914419E+01 0.  0.
         13    1    3    3    0    0 -0.71831175085E+00 -0.12943214385E+02 -0.22230910792E+03  0.22268673565E+03  0.00000000000E+00 0.  1.
          1    1    3    3  501    0  0.29822756284E+01 -0.24745508696E+02 -0.50239651782E+03  0.50301440862E+03  0.00000000000E+00 0.  1.
         21    1    1    2  502  501 -0.22639638775E+01  0.37688723081E+02 -0.27349968729E+03  0.27609354271E+03  0.00000000000E+00 0.  1.
<mgrwt>
<rscale>  1 0.30000000E+03</rscale>
<asrwt>0</asrwt>
<pdfrwt beam="1">  1        3 0.65261482E-02 0.30000000E+03</pdfrwt>
<pdfrwt beam="2">0</pdfrwt>
<totfact> 0.65391701E+02</totfact>
</mgrwt>
</event>
<event>
 6    1  0.1956957E-002  0.3000000E+03  0.7818608E-02  0.1093470E+00
          3   -1    0    0  502    0  0.00000000000E+00  0.00000000000E+00  0.28126770771E+01  0.28126770771E+01  0.00000000000E+00 0.  1.
         13   -1    0    0    0    0 -0.00000000000E+00 -0.00000000000E+00 -0.10000000000E+04  0.10000000000E+04  0.00000000000E+00 0.  1.
    9000005    2    1    2  501    0 -0.63933987989E+01  0.49733921592E+02 -0.66161459118E+03  0.66351428806E+03  0.17334020507E+01 0.  0.
         13    1    3    3    0    0 -0.19962328566E+01  0.20131369529E+02 -0.25875230272E+03  0.25954192561E+03  0.00000000000E+00 0.  1.
          3    1    3    3  501    0 -0.43971659422E+01  0.29602552063E+02 -0.40286228846E+03  0.40397236245E+03  0.00000000000E+00 0.  1.
         21    1    1    2  502  501  0.63933987989E+01 -0.49733921592E+02 -0.33557273174E+03  0.33929838902E+03  0.00000000000E+00 0.  1.
<mgrwt>
<rscale>  1 0.30000000E+03</rscale>
<asrwt>0</asrwt>
<pdfrwt beam="1">  1        3 0.10227938E-01 0.30000000E+03</pdfrwt>
<pdfrwt beam="2">0</pdfrwt>
<totfact> 0.31818345E+02</totfact>
</mgrwt>
</event>
<event>
 6    1  0.1956957E-002  0.3000000E+03  0.7818608E-02  0.1093470E+00
          3   -1    0    0  502    0  0.00000000000E+00  0.00000000000E+00  0.94697986248E+00  0.94697986248E+00  0.00000000000E+00 0.  1.
         13   -1    0    0    0    0 -0.00000000000E+00 -0.00000000000E+00 -0.10000000000E+04  0.10000000000E+04  0.00000000000E+00 0.  1.
    9000005    2    1    2  501    0 -0.28611751228E+02 -0.10777324502E+02 -0.51599886007E+03  0.51692621110E+03  0.48063603934E+01 0.  0.
         13    1    3    3    0    0 -0.23894085443E+02 -0.73082986208E+01 -0.43381440667E+03  0.43453340261E+03  0.00000000000E+00 0.  1.
          3    1    3    3  501    0 -0.47176657848E+01 -0.34690258817E+01 -0.82184453395E+02  0.82392808490E+02  0.00000000000E+00 0.  1.
         21    1    1    2  502  501  0.28611751228E+02  0.10777324502E+02 -0.48305416007E+03  0.48402076876E+03  0.00000000000E+00 0.  1.
<mgrwt>
<rscale>  1 0.30000000E+03</rscale>
<asrwt>0</asrwt>
<pdfrwt beam="1">  1        3 0.34435704E-02 0.30000000E+03</pdfrwt>
<pdfrwt beam="2">0</pdfrwt>
<totfact> 0.17572985E+03</totfact>
</mgrwt>
</event>
<event>
 6    1  0.1956957E-002  0.3000000E+03  0.7818608E-02  0.1093470E+00
          3   -1    0    0  502    0  0.00000000000E+00  0.00000000000E+00  0.13271184154E+01  0.13271184154E+01  0.00000000000E+00 0.  1.
         13   -1    0    0    0    0 -0.00000000000E+00 -0.00000000000E+00 -0.10000000000E+04  0.10000000000E+04  0.00000000000E+00 0.  1.
    9000005    2    1    2  501    0  0.32062365047E+02 -0.38184871407E+01 -0.73018090662E+03  0.73090057254E+03  0.29857064292E+01 0.  0.
         13    1    3    3    0    0  0.10795921523E+02 -0.13706674041E+01 -0.21532915425E+03  0.21560397798E+03  0.00000000000E+00 0.  1.
          1    1    3    3  501    0  0.21266443524E+02 -0.24478197366E+01 -0.51485175237E+03  0.51529659456E+03  0.00000000000E+00 0.  1.
         21    1    1    2  502  501 -0.32062365047E+02  0.38184871407E+01 -0.26849197496E+03  0.27042654588E+03  0.00000000000E+00 0.  1.
<mgrwt>
<rscale>  1 0.30000000E+03</rscale>
<asrwt>0</asrwt>
<pdfrwt beam="1">  1        3 0.48258953E-02 0.30000000E+03</pdfrwt>
<pdfrwt beam="2">0</pdfrwt>
<totfact> 0.10450203E+03</totfact>
</mgrwt>
</event>
<event>
 6    1  0.1956957E-002  0.3000000E+03  0.7818608E-02  0.1093470E+00
          1   -1    0    0  502    0  0.00000000000E+00  0.00000000000E+00  0.38155136454E+01  0.38155136454E+01  0.00000000000E+00 0.  1.
         13   -1    0    0    0    0 -0.00000000000E+00 -0.00000000000E+00 -0.10000000000E+04  0.10000000000E+04  0.00000000000E+00 0.  1.
    9000005    2    1    2  501    0  0.48884669107E+02  0.47927953660E+01 -0.80219381674E+03  0.80370289121E+03  0.32765774312E+01 0.  0.
         13    1    3    3    0    0  0.63316209882E+01  0.17371384799E+01 -0.10711650396E+03  0.10731753116E+03  0.00000000000E+00 0.  1.
          1    1    3    3  501    0  0.42553048119E+02  0.30556568861E+01 -0.69507731278E+03  0.69638536005E+03  0.00000000000E+00 0.  1.
         21    1    1    2  502  501 -0.48884669107E+02 -0.47927953660E+01 -0.19399066961E+03  0.20011262244E+03  0.00000000000E+00 0.  1.
<mgrwt>
<rscale>  1 0.30000000E+03</rscale>
<asrwt>0</asrwt>
<pdfrwt beam="1">  1        1 0.13874624E-01 0.30000000E+03</pdfrwt>
<pdfrwt beam="2">0</pdfrwt>
<totfact> 0.48233560E+02</totfact>
</mgrwt>
</event>
<event>
 6    1  0.1956957E-002  0.3000000E+03  0.7818608E-02  0.1093470E+00
          3   -1    0    0  502    0  0.00000000000E+00  0.00000000000E+00  0.22124657886E+01  0.22124657886E+01  0.00000000000E+00 0.  1.
         13   -1    0    0    0    0 -0.00000000000E+00 -0.00000000000E+00 -0.10000000000E+04  0.10000000000E+04  0.00000000000E+00 0.  1.
    9000005    2    1    2  501    0 -0.77139971667E+01 -0.37353009441E+02 -0.78726106237E+03  0.78825885303E+03  0.10829865625E+02 0.  0.
         13    1    3    3    0    0 -0.55518714665E+01 -0.64843215456E+01 -0.14218777522E+03  0.14244378935E+03  0.00000000000E+00 0.  1.
          3    1    3    3  501    0 -0.21621257002E+01 -0.30868687895E+02 -0.64507328715E+03  0.64581506368E+03  0.00000000000E+00 0.  1.
         21    1    1    2  502  501  0.77139971667E+01  0.37353009441E+02 -0.21052647184E+03  0.21395361276E+03  0.00000000000E+00 0.  1.
<mgrwt>
<rscale>  1 0.30000000E+03</rscale>
<asrwt>0</asrwt>
<pdfrwt beam="1">  1        3 0.80453471E-02 0.30000000E+03</pdfrwt>
<pdfrwt beam="2">0</pdfrwt>
<totfact> 0.46965449E+02</totfact>
</mgrwt>
</event>
<event>
 6    1  0.1956957E-002  0.3000000E+03  0.7818608E-02  0.1093470E+00
          1   -1    0    0  502    0  0.00000000000E+00  0.00000000000E+00  0.21412772036E+01  0.21412772036E+01  0.00000000000E+00 0.  1.
         13   -1    0    0    0    0 -0.00000000000E+00 -0.00000000000E+00 -0.10000000000E+04  0.10000000000E+04  0.00000000000E+00 0.  1.
    9000005    2    1    2  501    0 -0.48700094820E+01  0.37268691120E+02 -0.79068859068E+03  0.79158929794E+03  0.35350889299E+01 0.  0.
         13    1    3    3    0    0 -0.28101366891E+01  0.30574348632E+02 -0.62835119903E+03  0.62910087982E+03  0.00000000000E+00 0.  1.
          3    1    3    3  501    0 -0.20598727929E+01  0.66943424872E+01 -0.16233739164E+03  0.16248841812E+03  0.00000000000E+00 0.  1.
         21    1    1    2  502  501  0.48700094820E+01 -0.37268691120E+02 -0.20717013212E+03  0.21055197926E+03  0.00000000000E+00 0.  1.
<mgrwt>
<rscale>  1 0.30000000E+03</rscale>
<asrwt>0</asrwt>
<pdfrwt beam="1">  1        1 0.77864790E-02 0.30000000E+03</pdfrwt>
<pdfrwt beam="2">0</pdfrwt>
<totfact> 0.10693927E+03</totfact>
</mgrwt>
</event>
<event>
 6    1  0.1956957E-002  0.3000000E+03  0.7818608E-02  0.1093470E+00
          1   -1    0    0  502    0  0.00000000000E+00  0.00000000000E+00  0.46016228046E+01  0.46016228046E+01  0.00000000000E+00 0.  1.
         13   -1    0    0    0    0 -0.00000000000E+00 -0.00000000000E+00 -0.10000000000E+04  0.10000000000E+04  0.00000000000E+00 0.  1.
    9000005    2    1    2  501    0  0.66084149202E+01  0.64506396125E+02 -0.64408855666E+03  0.64735753777E+03  0.41190528565E+01 0.  0.
         13    1    3    3    0    0  0.68788430586E+01  0.51594742916E+02 -0.52028391121E+03  0.52288113778E+03  0.00000000000E+00 0.  1.
          3    1    3    3  501    0 -0.27042813837E+00  0.12911653209E+02 -0.12380464545E+03  0.12447640000E+03  0.00000000000E+00 0.  1.
         21    1    1    2  502  501 -0.66084149202E+01 -0.64506396125E+02 -0.35130982053E+03  0.35724408503E+03  0.00000000000E+00 0.  1.
<mgrwt>
<rscale>  1 0.30000000E+03</rscale>
<asrwt>0</asrwt>
<pdfrwt beam="1">  1        1 0.16733209E-01 0.30000000E+03</pdfrwt>
<pdfrwt beam="2">0</pdfrwt>
<totfact> 0.37410832E+02</totfact>
</mgrwt>
</event>
<event>
 6    1  0.1956957E-002  0.3000000E+03  0.7818608E-02  0.1093470E+00
          1   -1    0    0  502    0  0.00000000000E+00  0.00000000000E+00  0.98874373206E+00  0.98874373206E+00  0.00000000000E+00 0.  1.
         13   -1    0    0    0    0 -0.00000000000E+00 -0.00000000000E+00 -0.10000000000E+04  0.10000000000E+04  0.00000000000E+00 0.  1.
    9000005    2    1    2  501    0 -0.24208114800E+02  0.18927694204E+02 -0.60088185324E+03  0.60167519276E+03  0.31217953651E+01 0.  0.
         13    1    3    3    0    0 -0.90671318063E+01  0.79915242935E+01 -0.21030487321E+03  0.21065188590E+03  0.00000000000E+00 0.  1.
          1    1    3    3  501    0 -0.15140982994E+02  0.10936169911E+02 -0.39057698003E+03  0.39102330686E+03  0.00000000000E+00 0.  1.
         21    1    1    2  502  501  0.24208114800E+02 -0.18927694204E+02 -0.39812940303E+03  0.39931355097E+03  0.00000000000E+00 0.  1.
<mgrwt>
<rscale>  1 0.30000000E+03</rscale>
<asrwt>0</asrwt>
<pdfrwt beam="1">  1        1 0.35954393E-02 0.30000000E+03</pdfrwt>
<pdfrwt beam="2">0</pdfrwt>
<totfact> 0.31638663E+03</totfact>
</mgrwt>
</event>
<event>
 6    1  0.1956957E-002  0.3000000E+03  0.7818608E-02  0.1093470E+00
          1   -1    0    0  502    0  0.00000000000E+00  0.00000000000E+00  0.97367107177E+00  0.97367107177E+00  0.00000000000E+00 0.  1.
         13   -1    0    0    0    0 -0.00000000000E+00 -0.00000000000E+00 -0.10000000000E+04  0.10000000000E+04  0.00000000000E+00 0.  1.
    9000005    2    1    2  501    0  0.18353705645E+02 -0.24357824164E+02 -0.40458481295E+03  0.40575028609E+03  0.37764645637E+01 0.  0.
         13    1    3    3    0    0  0.10382680830E+02 -0.16462948231E+02 -0.26750151904E+03  0.26820867140E+03  0.00000000000E+00 0.  1.
          1    1    3    3  501    0  0.79710248148E+01 -0.78948759329E+01 -0.13708329390E+03  0.13754161469E+03  0.00000000000E+00 0.  1.
         21    1    1    2  502  501 -0.18353705645E+02  0.24357824164E+02 -0.59444151598E+03  0.59522338498E+03  0.00000000000E+00 0.  1.
<mgrwt>
<rscale>  1 0.30000000E+03</rscale>
<asrwt>0</asrwt>
<pdfrwt beam="1">  1        1 0.35406295E-02 0.30000000E+03</pdfrwt>
<pdfrwt beam="2">0</pdfrwt>
<totfact> 0.32329763E+03</totfact>
</mgrwt>
</event>
<event>
 6    1  0.1956957E-002  0.3000000E+03  0.7818608E-02  0.1093470E+00
          1   -1    0    0  502    0  0.00000000000E+00  0.00000000000E+00  0.12747573016E+01  0.12747573016E+01  0.00000000000E+00 0.  1.
         13   -1    0    0    0    0 -0.00000000000E+00 -0.00000000000E+00 -0.10000000000E+04  0.10000000000E+04  0.00000000000E+00 0.  1.
    9000005    2    1    2  501    0  0.20163037824E+02 -0.28518053223E+02 -0.59824316237E+03  0.59927261288E+03  0.35994129960E+01 0.  0.
         13    1    3    3    0    0  0.60402532577E+01 -0.86081053134E+01 -0.15317232133E+03  0.15353287647E+03  0.00000000000E+00 0.  1.
          3    1    3    3  501    0  0.14122784567E+02 -0.19909947910E+02 -0.44507084105E+03  0.44573973641E+03  0.00000000000E+00 0.  1.
         21    1    1    2  502  501 -0.20163037824E+02  0.28518053223E+02 -0.40048208033E+03  0.40200214442E+03  0.00000000000E+00 0.  1.
<mgrwt>
<rscale>  1 0.30000000E+03</rscale>
<asrwt>0</asrwt>
<pdfrwt beam="1">  1        1 0.46354909E-02 0.30000000E+03</pdfrwt>
<pdfrwt beam="2">0</pdfrwt>
<totfact> 0.22125721E+03</totfact>
</mgrwt>
</event>
<event>
 6    1  0.1956957E-002  0.3000000E+03  0.7818608E-02  0.1093470E+00
          1   -1    0    0  502    0  0.00000000000E+00  0.00000000000E+00  0.14569282919E+01  0.14569282919E+01  0.00000000000E+00 0.  1.
         13   -1    0    0    0    0 -0.00000000000E+00 -0.00000000000E+00 -0.10000000000E+04  0.10000000000E+04  0.00000000000E+00 0.  1.
    9000005    2    1    2  501    0 -0.27223130679E+02 -0.18664423091E+02 -0.74960631572E+03  0.75034148071E+03  0.36399959505E+01 0.  0.
         13    1    3    3    0    0 -0.13247950932E+01 -0.20388629770E+01 -0.54493319945E+02  0.54547538559E+02  0.00000000000E+00 0.  1.
          3    1    3    3  501    0 -0.25898335586E+02 -0.16625560114E+02 -0.69511299578E+03  0.69579394215E+03  0.00000000000E+00 0.  1.
         21    1    1    2  502  501  0.27223130679E+02  0.18664423091E+02 -0.24893675599E+03  0.25111544758E+03  0.00000000000E+00 0.  1.
<mgrwt>
<rscale>  1 0.30000000E+03</rscale>
<asrwt>0</asrwt>
<pdfrwt beam="1">  1        1 0.52979322E-02 0.30000000E+03</pdfrwt>
<pdfrwt beam="2">0</pdfrwt>
<totfact> 0.18337923E+03</totfact>
</mgrwt>
</event>
<event>
 6    1  0.1956957E-002  0.3000000E+03  0.7818608E-02  0.1093470E+00
          1   -1    0    0  502    0  0.00000000000E+00  0.00000000000E+00  0.20612425817E+01  0.20612425817E+01  0.00000000000E+00 0.  1.
         13   -1    0    0    0    0 -0.00000000000E+00 -0.00000000000E+00 -0.10000000000E+04  0.10000000000E+04  0.00000000000E+00 0.  1.
    9000005    2    1    2  501    0  0.38302421281E+01  0.38888024689E+02 -0.75265130060E+03  0.75368071659E+03  0.48675504606E+01 0.  0.
         13    1    3    3    0    0  0.45895744999E+01  0.23400797101E+02 -0.44267008072E+03  0.44331192390E+03  0.00000000000E+00 0.  1.
          1    1    3    3  501    0 -0.75933237181E+00  0.15487227588E+02 -0.30998121987E+03  0.31036879269E+03  0.00000000000E+00 0.  1.
         21    1    1    2  502  501 -0.38302421281E+01 -0.38888024689E+02 -0.24528745682E+03  0.24838052599E+03  0.00000000000E+00 0.  1.
<mgrwt>
<rscale>  1 0.30000000E+03</rscale>
<asrwt>0</asrwt>
<pdfrwt beam="1">  1        1 0.74954434E-02 0.30000000E+03</pdfrwt>
<pdfrwt beam="2">0</pdfrwt>
<totfact> 0.11277482E+03</totfact>
</mgrwt>
</event>
<event>
 6    1  0.1956957E-002  0.3000000E+03  0.7818608E-02  0.1093470E+00
          1   -1    0    0  502    0  0.00000000000E+00  0.00000000000E+00  0.18389823516E+02  0.18389823516E+02  0.00000000000E+00 0.  1.
         13   -1    0    0    0    0 -0.00000000000E+00 -0.00000000000E+00 -0.10000000000E+04  0.10000000000E+04  0.00000000000E+00 0.  1.
    9000005    2    1    2  501    0 -0.51501663480E+02 -0.11924816828E+03 -0.63684639052E+03  0.64996803386E+03  0.35458351281E+01 0.  0.
         13    1    3    3    0    0 -0.22304562795E+02 -0.55553969968E+02 -0.28917540093E+03  0.29530687361E+03  0.00000000000E+00 0.  1.
          1    1    3    3  501    0 -0.29197100686E+02 -0.63694198308E+02 -0.34767098959E+03  0.35466116024E+03  0.00000000000E+00 0.  1.
         21    1    1    2  502  501  0.51501663480E+02  0.11924816828E+03 -0.34476378597E+03  0.36842178966E+03  0.00000000000E+00 0.  1.
<mgrwt>
<rscale>  1 0.30000000E+03</rscale>
<asrwt>0</asrwt>
<pdfrwt beam="1">  1        1 0.66872227E-01 0.30000000E+03</pdfrwt>
<pdfrwt beam="2">0</pdfrwt>
<totfact> 0.59980587E+01</totfact>
</mgrwt>
</event>
<event>
 6    1  0.1956957E-002  0.3000000E+03  0.7818608E-02  0.1093470E+00
          1   -1    0    0  502    0  0.00000000000E+00  0.00000000000E+00  0.37689001971E+01  0.37689001971E+01  0.00000000000E+00 0.  1.
         13   -1    0    0    0    0 -0.00000000000E+00 -0.00000000000E+00 -0.10000000000E+04  0.10000000000E+04  0.00000000000E+00 0.  1.
    9000005    2    1    2  501    0 -0.36735206626E+02 -0.46692694021E+02 -0.62366190374E+03  0.62649249100E+03  0.29980032721E+01 0.  0.
         13    1    3    3    0    0 -0.83611513571E+01 -0.97568311776E+01 -0.14691698120E+03  0.14747780840E+03  0.00000000000E+00 0.  1.
          3    1    3    3  501    0 -0.28374055269E+02 -0.36935862843E+02 -0.47674492254E+03  0.47901468260E+03  0.00000000000E+00 0.  1.
         21    1    1    2  502  501  0.36735206626E+02  0.46692694021E+02 -0.37256919607E+03  0.37727640920E+03  0.00000000000E+00 0.  1.
<mgrwt>
<rscale>  1 0.30000000E+03</rscale>
<asrwt>0</asrwt>
<pdfrwt beam="1">  1        1 0.13705121E-01 0.30000000E+03</pdfrwt>
<pdfrwt beam="2">0</pdfrwt>
<totfact> 0.49048142E+02</totfact>
</mgrwt>
</event>
<event>
 6    1  0.1956957E-002  0.3000000E+03  0.7818608E-02  0.1093470E+00
          3   -1    0    0  502    0  0.00000000000E+00  0.00000000000E+00  0.14383781083E+01  0.14383781083E+01  0.00000000000E+00 0.  1.
         13   -1    0    0    0    0 -0.00000000000E+00 -0.00000000000E+00 -0.10000000000E+04  0.10000000000E+04  0.00000000000E+00 0.  1.
    9000005    2    1    2  501    0 -0.19250380633E+02  0.29692590983E+02 -0.36302547413E+03  0.36491781896E+03  0.11193418121E+02 0.  0.
         13    1    3    3    0    0  0.14253315215E+01  0.28797833353E+01 -0.36768569048E+02  0.36908703470E+02  0.00000000000E+00 0.  1.
          3    1    3    3  501    0 -0.20675712155E+02  0.26812807648E+02 -0.32625690509E+03  0.32800911549E+03  0.00000000000E+00 0.  1.
         21    1    1    2  502  501  0.19250380633E+02 -0.29692590983E+02 -0.63553614776E+03  0.63652055915E+03  0.00000000000E+00 0.  1.
<mgrwt>
<rscale>  1 0.30000000E+03</rscale>
<asrwt>0</asrwt>
<pdfrwt beam="1">  1        3 0.52304769E-02 0.30000000E+03</pdfrwt>
<pdfrwt beam="2">0</pdfrwt>
<totfact> 0.92286423E+02</totfact>
</mgrwt>
</event>
<event>
 6    1  0.1956957E-002  0.3000000E+03  0.7818608E-02  0.1093470E+00
          1   -1    0    0  502    0  0.00000000000E+00  0.00000000000E+00  0.61040251113E+01  0.61040251113E+01  0.00000000000E+00 0.  1.
         13   -1    0    0    0    0 -0.00000000000E+00 -0.00000000000E+00 -0.10000000000E+04  0.10000000000E+04  0.00000000000E+00 0.  1.
    9000005    2    1    2  501    0  0.65853446090E+02 -0.17337649502E+01 -0.76727693829E+03  0.77010430043E+03  0.26554093930E+01 0.  0.
         13    1    3    3    0    0  0.25068362964E+02  0.57739098056E+00 -0.29608684008E+03  0.29714671977E+03  0.00000000000E+00 0.  1.
          3    1    3    3  501    0  0.40785083127E+02 -0.23111559308E+01 -0.47119009821E+03  0.47295758066E+03  0.00000000000E+00 0.  1.
         21    1    1    2  502  501 -0.65853446090E+02  0.17337649502E+01 -0.22661903660E+03  0.23599972468E+03  0.00000000000E+00 0.  1.
<mgrwt>
<rscale>  1 0.30000000E+03</rscale>
<asrwt>0</asrwt>
<pdfrwt beam="1">  1        1 0.22196502E-01 0.30000000E+03</pdfrwt>
<pdfrwt beam="2">0</pdfrwt>
<totfact> 0.25626314E+02</totfact>
</mgrwt>
</event>
<event>
 6    1  0.1956957E-002  0.3000000E+03  0.7818608E-02  0.1093470E+00
          3   -1    0    0  502    0  0.00000000000E+00  0.00000000000E+00  0.12384704949E+01  0.12384704949E+01  0.00000000000E+00 0.  1.
         13   -1    0    0    0    0 -0.00000000000E+00 -0.00000000000E+00 -0.10000000000E+04  0.10000000000E+04  0.00000000000E+00 0.  1.
    9000005    2    1    2  501    0 -0.30611045516E+02  0.17204985979E+02 -0.49409359383E+03  0.49535036730E+03  0.32340803353E+01 0.  0.
         13    1    3    3    0    0 -0.10892904645E+02  0.45771137202E+01 -0.17594282671E+03  0.17633911538E+03  0.00000000000E+00 0.  1.
          3    1    3    3  501    0 -0.19718140871E+02  0.12627872259E+02 -0.31815076712E+03  0.31901125192E+03  0.00000000000E+00 0.  1.
         21    1    1    2  502  501  0.30611045516E+02 -0.17204985979E+02 -0.50466793568E+03  0.50588810319E+03  0.00000000000E+00 0.  1.
<mgrwt>
<rscale>  1 0.30000000E+03</rscale>
<asrwt>0</asrwt>
<pdfrwt beam="1">  1        3 0.45035386E-02 0.30000000E+03</pdfrwt>
<pdfrwt beam="2">0</pdfrwt>
<totfact> 0.11626834E+03</totfact>
</mgrwt>
</event>
<event>
 6    1  0.1956957E-002  0.3000000E+03  0.7818608E-02  0.1093470E+00
          1   -1    0    0  502    0  0.00000000000E+00  0.00000000000E+00  0.21235634749E+01  0.21235634749E+01  0.00000000000E+00 0.  1.
         13   -1    0    0    0    0 -0.00000000000E+00 -0.00000000000E+00 -0.10000000000E+04  0.10000000000E+04  0.00000000000E+00 0.  1.
    9000005    2    1    2  501    0  0.42068882954E+02  0.15044582244E+02 -0.62000420779E+03  0.62161922497E+03  0.30187436962E+01 0.  0.
         13    1    3    3    0    0  0.28117634564E+02  0.85743993489E+01 -0.40243754672E+03  0.40350972814E+03  0.00000000000E+00 0.  1.
          3    1    3    3  501    0  0.13951248390E+02  0.64701828952E+01 -0.21756666107E+03  0.21810949683E+03  0.00000000000E+00 0.  1.
         21    1    1    2  502  501 -0.42068882954E+02 -0.15044582244E+02 -0.37787222874E+03  0.38050433850E+03  0.00000000000E+00 0.  1.
<mgrwt>
<rscale>  1 0.30000000E+03</rscale>
<asrwt>0</asrwt>
<pdfrwt beam="1">  1        1 0.77220653E-02 0.30000000E+03</pdfrwt>
<pdfrwt beam="2">0</pdfrwt>
<totfact> 0.10818479E+03</totfact>
</mgrwt>
</event>
<event>
 6    1  0.1956957E-002  0.3000000E+03  0.7818608E-02  0.1093470E+00
          3   -1    0    0  502    0  0.00000000000E+00  0.00000000000E+00  0.23093874703E+01  0.23093874703E+01  0.00000000000E+00 0.  1.
         13   -1    0    0    0    0 -0.00000000000E+00 -0.00000000000E+00 -0.10000000000E+04  0.10000000000E+04  0.00000000000E+00 0.  1.
    9000005    2    1    2  501    0  0.35088968288E+02  0.31531071003E+02 -0.40745216308E+03  0.41018873140E+03  0.34764977295E+01 0.  0.
         13    1    3    3    0    0  0.25408903458E+01  0.12812267841E+01 -0.21689975834E+02  0.21875847812E+02  0.00000000000E+00 0.  1.
          3    1    3    3  501    0  0.32548077942E+02  0.30249844219E+02 -0.38576218724E+03  0.38831288359E+03  0.00000000000E+00 0.  1.
         21    1    1    2  502  501 -0.35088968288E+02 -0.31531071003E+02 -0.59023844945E+03  0.59212065607E+03  0.00000000000E+00 0.  1.
<mgrwt>
<rscale>  1 0.30000000E+03</rscale>
<asrwt>0</asrwt>
<pdfrwt beam="1">  1        3 0.83977903E-02 0.30000000E+03</pdfrwt>
<pdfrwt beam="2">0</pdfrwt>
<totfact> 0.43850819E+02</totfact>
</mgrwt>
</event>
<event>
 6    1  0.1956957E-002  0.3000000E+03  0.7818608E-02  0.1093470E+00
          3   -1    0    0  502    0  0.00000000000E+00  0.00000000000E+00  0.15074023799E+01  0.15074023799E+01  0.00000000000E+00 0.  1.
         13   -1    0    0    0    0 -0.00000000000E+00 -0.00000000000E+00 -0.10000000000E+04  0.10000000000E+04  0.00000000000E+00 0.  1.
    9000005    2    1    2  501    0 -0.77570223929E+00  0.31619805897E+02 -0.78873173641E+03  0.78937529087E+03  0.38966618409E+01 0.  0.
         13    1    3    3    0    0 -0.35454020400E+00  0.70279370524E+00 -0.36282322001E+02  0.36290859835E+02  0.00000000000E+00 0.  1.
          1    1    3    3  501    0 -0.42116203529E+00  0.30917012192E+02 -0.75244941441E+03  0.75308443104E+03  0.00000000000E+00 0.  1.
         21    1    1    2  502  501  0.77570223929E+00 -0.31619805897E+02 -0.20976086121E+03  0.21213211151E+03  0.00000000000E+00 0.  1.
<mgrwt>
<rscale>  1 0.30000000E+03</rscale>
<asrwt>0</asrwt>
<pdfrwt beam="1">  1        3 0.54814748E-02 0.30000000E+03</pdfrwt>
<pdfrwt beam="2">0</pdfrwt>
<totfact> 0.85828212E+02</totfact>
</mgrwt>
</event>
<event>
 6    1  0.1956957E-002  0.3000000E+03  0.7818608E-02  0.1093470E+00
          3   -1    0    0  502    0  0.00000000000E+00  0.00000000000E+00  0.25403701437E+01  0.25403701437E+01  0.00000000000E+00 0.  1.
         13   -1    0    0    0    0 -0.00000000000E+00 -0.00000000000E+00 -0.10000000000E+04  0.10000000000E+04  0.00000000000E+00 0.  1.
    9000005    2    1    2  501    0  0.37413834185E+02  0.19908705493E+02 -0.22887653616E+03  0.23278968099E+03  0.32272629603E+01 0.  0.
         13    1    3    3    0    0  0.26852317869E+02  0.15031915385E+02 -0.17287836050E+03  0.17559593670E+03  0.00000000000E+00 0.  1.
          1    1    3    3  501    0  0.10561516315E+02  0.48767901084E+01 -0.55998175661E+02  0.57193744291E+02  0.00000000000E+00 0.  1.
         21    1    1    2  502  501 -0.37413834185E+02 -0.19908705493E+02 -0.76858309370E+03  0.76975068916E+03  0.00000000000E+00 0.  1.
<mgrwt>
<rscale>  1 0.30000000E+03</rscale>
<asrwt>0</asrwt>
<pdfrwt beam="1">  1        3 0.92377291E-02 0.30000000E+03</pdfrwt>
<pdfrwt beam="2">0</pdfrwt>
<totfact> 0.37597820E+02</totfact>
</mgrwt>
</event>
<event>
 6    1  0.1956957E-002  0.3000000E+03  0.7818608E-02  0.1093470E+00
          1   -1    0    0  502    0  0.00000000000E+00  0.00000000000E+00  0.11327824157E+01  0.11327824157E+01  0.00000000000E+00 0.  1.
         13   -1    0    0    0    0 -0.00000000000E+00 -0.00000000000E+00 -0.10000000000E+04  0.10000000000E+04  0.00000000000E+00 0.  1.
    9000005    2    1    2  501    0  0.31219770396E+02  0.89593088197E+01 -0.61288413884E+03  0.61378554756E+03  0.71265325653E+01 0.  0.
         13    1    3    3    0    0  0.18574113817E+02  0.22092882203E+01 -0.31207670650E+03  0.31263676911E+03  0.00000000000E+00 0.  1.
          3    1    3    3  501    0  0.12645656579E+02  0.67500205995E+01 -0.30080743234E+03  0.30114877845E+03  0.00000000000E+00 0.  1.
         21    1    1    2  502  501 -0.31219770396E+02 -0.89593088197E+01 -0.38598307874E+03  0.38734723486E+03  0.00000000000E+00 0.  1.
<mgrwt>
<rscale>  1 0.30000000E+03</rscale>
<asrwt>0</asrwt>
<pdfrwt beam="1">  1        1 0.41192175E-02 0.30000000E+03</pdfrwt>
<pdfrwt beam="2">0</pdfrwt>
<totfact> 0.26126522E+03</totfact>
</mgrwt>
</event>
<event>
 6    1  0.1956957E-002  0.3000000E+03  0.7818608E-02  0.1093470E+00
          3   -1    0    0  502    0  0.00000000000E+00  0.00000000000E+00  0.13226306694E+01  0.13226306694E+01  0.00000000000E+00 0.  1.
         13   -1    0    0    0    0 -0.00000000000E+00 -0.00000000000E+00 -0.10000000000E+04  0.10000000000E+04  0.00000000000E+00 0.  1.
    9000005    2    1    2  501    0  0.19161662475E+02  0.30742974645E+02 -0.51074779086E+03  0.51205013671E+03  0.44426160580E+01 0.  0.
         13    1    3    3    0    0  0.39815193780E+01  0.10229564279E+02 -0.15502074419E+03  0.15540890454E+03  0.00000000000E+00 0.  1.
          1    1    3    3  501    0  0.15180143097E+02  0.20513410366E+02 -0.35572704667E+03  0.35664123216E+03  0.00000000000E+00 0.  1.
         21    1    1    2  502  501 -0.19161662475E+02 -0.30742974645E+02 -0.48792957847E+03  0.48927249396E+03  0.00000000000E+00 0.  1.
<mgrwt>
<rscale>  1 0.30000000E+03</rscale>
<asrwt>0</asrwt>
<pdfrwt beam="1">  1        3 0.48095762E-02 0.30000000E+03</pdfrwt>
<pdfrwt beam="2">0</pdfrwt>
<totfact> 0.10504968E+03</totfact>
</mgrwt>
</event>
<event>
 6    1  0.1956957E-002  0.3000000E+03  0.7818608E-02  0.1093470E+00
          1   -1    0    0  502    0  0.00000000000E+00  0.00000000000E+00  0.39284149691E+01  0.39284149691E+01  0.00000000000E+00 0.  1.
         13   -1    0    0    0    0 -0.00000000000E+00 -0.00000000000E+00 -0.10000000000E+04  0.10000000000E+04  0.00000000000E+00 0.  1.
    9000005    2    1    2  501    0 -0.30173684560E+02 -0.12287394201E+02 -0.92683431175E+03  0.92740893178E+03  0.20134576485E+01 0.  0.
         13    1    3    3    0    0 -0.10135959729E+02 -0.36564101920E+01 -0.28299566118E+03  0.28320072609E+03  0.00000000000E+00 0.  1.
          3    1    3    3  501    0 -0.20037724830E+02 -0.86309840092E+01 -0.64383865057E+03  0.64420820569E+03  0.00000000000E+00 0.  1.
         21    1    1    2  502  501  0.30173684560E+02  0.12287394201E+02 -0.69237273280E+02  0.76519483188E+02  0.00000000000E+00 0.  1.
<mgrwt>
<rscale>  1 0.30000000E+03</rscale>
<asrwt>0</asrwt>
<pdfrwt beam="1">  1        1 0.14285175E-01 0.30000000E+03</pdfrwt>
<pdfrwt beam="2">0</pdfrwt>
<totfact> 0.46356518E+02</totfact>
</mgrwt>
</event>
<event>
 6    1  0.1956957E-002  0.3000000E+03  0.7818608E-02  0.1093470E+00
          1   -1    0    0  502    0  0.00000000000E+00  0.00000000000E+00  0.11480884368E+01  0.11480884368E+01  0.00000000000E+00 0.  1.
         13   -1    0    0    0    0 -0.00000000000E+00 -0.00000000000E+00 -0.10000000000E+04  0.10000000000E+04  0.00000000000E+00 0.  1.
    9000005    2    1    2  501    0  0.26850102549E+02  0.13986620406E+02 -0.72056638594E+03  0.72122062046E+03  0.51684882729E+01 0.  0.
         13    1    3    3    0    0  0.58933450460E+01  0.98180219548E+00 -0.16143991461E+03  0.16155043014E+03  0.00000000000E+00 0.  1.
          3    1    3    3  501    0  0.20956757503E+02  0.13004818210E+02 -0.55912647134E+03  0.55967019032E+03  0.00000000000E+00 0.  1.
         21    1    1    2  502  501 -0.26850102549E+02 -0.13986620406E+02 -0.27828552562E+03  0.27992746797E+03  0.00000000000E+00 0.  1.
<mgrwt>
<rscale>  1 0.30000000E+03</rscale>
<asrwt>0</asrwt>
<pdfrwt beam="1">  1        1 0.41748758E-02 0.30000000E+03</pdfrwt>
<pdfrwt beam="2">0</pdfrwt>
<totfact> 0.25637439E+03</totfact>
</mgrwt>
</event>
<event>
 6    1  0.1956957E-002  0.3000000E+03  0.7818608E-02  0.1093470E+00
          3   -1    0    0  502    0  0.00000000000E+00  0.00000000000E+00  0.10808377248E+01  0.10808377248E+01  0.00000000000E+00 0.  1.
         13   -1    0    0    0    0 -0.00000000000E+00 -0.00000000000E+00 -0.10000000000E+04  0.10000000000E+04  0.00000000000E+00 0.  1.
    9000005    2    1    2  501    0 -0.24560730812E+02  0.21645072454E+02 -0.52001455812E+03  0.52105858976E+03  0.38954649093E+01 0.  0.
         13    1    3    3    0    0 -0.21045049335E+02  0.19728045023E+02 -0.46970142528E+03  0.47058635634E+03  0.00000000000E+00 0.  1.
          1    1    3    3  501    0 -0.35156814770E+01  0.19170274306E+01 -0.50313132842E+02  0.50472233424E+02  0.00000000000E+00 0.  1.
         21    1    1    2  502  501  0.24560730812E+02 -0.21645072454E+02 -0.47890460416E+03  0.48002224796E+03  0.00000000000E+00 0.  1.
<mgrwt>
<rscale>  1 0.30000000E+03</rscale>
<asrwt>0</asrwt>
<pdfrwt beam="1">  1        3 0.39303273E-02 0.30000000E+03</pdfrwt>
<pdfrwt beam="2">0</pdfrwt>
<totfact> 0.14334431E+03</totfact>
</mgrwt>
</event>
<event>
 6    1  0.1956957E-002  0.3000000E+03  0.7818608E-02  0.1093470E+00
          1   -1    0    0  502    0  0.00000000000E+00  0.00000000000E+00  0.36995040387E+01  0.36995040387E+01  0.00000000000E+00 0.  1.
         13   -1    0    0    0    0 -0.00000000000E+00 -0.00000000000E+00 -0.10000000000E+04  0.10000000000E+04  0.00000000000E+00 0.  1.
    9000005    2    1    2  501    0 -0.51408520470E+02  0.79631175875E+01 -0.75784211230E+03  0.75963261166E+03  0.32848589690E+01 0.  0.
         13    1    3    3    0    0 -0.22761465000E+01  0.51570546629E+00 -0.45000745153E+02  0.45061223456E+02  0.00000000000E+00 0.  1.
          3    1    3    3  501    0 -0.49132373970E+02  0.74474121212E+01 -0.71284136715E+03  0.71457138820E+03  0.00000000000E+00 0.  1.
         21    1    1    2  502  501  0.51408520470E+02 -0.79631175875E+01 -0.23845838366E+03  0.24406689238E+03  0.00000000000E+00 0.  1.
<mgrwt>
<rscale>  1 0.30000000E+03</rscale>
<asrwt>0</asrwt>
<pdfrwt beam="1">  1        1 0.13452770E-01 0.30000000E+03</pdfrwt>
<pdfrwt beam="2">0</pdfrwt>
<totfact> 0.50306811E+02</totfact>
</mgrwt>
</event>
<event>
 6    1  0.1956957E-002  0.3000000E+03  0.7818608E-02  0.1093470E+00
          1   -1    0    0  502    0  0.00000000000E+00  0.00000000000E+00  0.23982672124E+01  0.23982672124E+01  0.00000000000E+00 0.  1.
         13   -1    0    0    0    0 -0.00000000000E+00 -0.00000000000E+00 -0.10000000000E+04  0.10000000000E+04  0.00000000000E+00 0.  1.
    9000005    2    1    2  501    0  0.11665216113E+02 -0.39388410326E+02 -0.77121915453E+03  0.77231872472E+03  0.31151411238E+01 0.  0.
         13    1    3    3    0    0  0.11070445044E+02 -0.33668431253E+02 -0.65937486451E+03  0.66032668428E+03  0.00000000000E+00 0.  1.
          3    1    3    3  501    0  0.59477106895E+00 -0.57199790723E+01 -0.11184429002E+03  0.11199204045E+03  0.00000000000E+00 0.  1.
         21    1    1    2  502  501 -0.11665216113E+02  0.39388410326E+02 -0.22638257825E+03  0.23007954249E+03  0.00000000000E+00 0.  1.
<mgrwt>
<rscale>  1 0.30000000E+03</rscale>
<asrwt>0</asrwt>
<pdfrwt beam="1">  1        1 0.87209901E-02 0.30000000E+03</pdfrwt>
<pdfrwt beam="2">0</pdfrwt>
<totfact> 0.91342350E+02</totfact>
</mgrwt>
</event>
<event>
 6    1  0.1956957E-002  0.3000000E+03  0.7818608E-02  0.1093470E+00
          1   -1    0    0  502    0  0.00000000000E+00  0.00000000000E+00  0.25730178664E+01  0.25730178664E+01  0.00000000000E+00 0.  1.
         13   -1    0    0    0    0 -0.00000000000E+00 -0.00000000000E+00 -0.10000000000E+04  0.10000000000E+04  0.00000000000E+00 0.  1.
    9000005    2    1    2  501    0 -0.31877195473E+02  0.13460702694E+02 -0.86483271549E+03  0.86553803819E+03  0.48087069926E+01 0.  0.
         13    1    3    3    0    0 -0.55144289395E+01  0.22920512205E+01 -0.10928548872E+03  0.10944852886E+03  0.00000000000E+00 0.  1.
          1    1    3    3  501    0 -0.26362766533E+02  0.11168651474E+02 -0.75554722678E+03  0.75608950934E+03  0.00000000000E+00 0.  1.
         21    1    1    2  502  501  0.31877195473E+02 -0.13460702694E+02 -0.13259426664E+03  0.13703497967E+03  0.00000000000E+00 0.  1.
<mgrwt>
<rscale>  1 0.30000000E+03</rscale>
<asrwt>0</asrwt>
<pdfrwt beam="1">  1        1 0.93564483E-02 0.30000000E+03</pdfrwt>
<pdfrwt beam="2">0</pdfrwt>
<totfact> 0.82855545E+02</totfact>
</mgrwt>
</event>
<event>
 6    1  0.1956957E-002  0.3000000E+03  0.7818608E-02  0.1093470E+00
          3   -1    0    0  502    0  0.00000000000E+00  0.00000000000E+00  0.80814205309E+01  0.80814205309E+01  0.00000000000E+00 0.  1.
         13   -1    0    0    0    0 -0.00000000000E+00 -0.00000000000E+00 -0.10000000000E+04  0.10000000000E+04  0.00000000000E+00 0.  1.
    9000005    2    1    2  501    0 -0.83909176120E+02 -0.17788656029E+02 -0.34580608578E+03  0.35630036786E+03  0.33040965093E+01 0.  0.
         13    1    3    3    0    0 -0.15040800462E+02 -0.42161562654E+01 -0.66262646478E+02  0.68078924569E+02  0.00000000000E+00 0.  1.
          1    1    3    3  501    0 -0.68868375658E+02 -0.13572499764E+02 -0.27954343930E+03  0.28822144329E+03  0.00000000000E+00 0.  1.
         21    1    1    2  502  501  0.83909176120E+02  0.17788656029E+02 -0.64611249369E+03  0.65178105267E+03  0.00000000000E+00 0.  1.
<mgrwt>
<rscale>  1 0.30000000E+03</rscale>
<asrwt>0</asrwt>
<pdfrwt beam="1">  1        3 0.29387046E-01 0.30000000E+03</pdfrwt>
<pdfrwt beam="2">0</pdfrwt>
<totfact> 0.48634424E+01</totfact>
</mgrwt>
</event>
<event>
 6    1  0.1956957E-002  0.3000000E+03  0.7818608E-02  0.1093470E+00
          1   -1    0    0  502    0  0.00000000000E+00  0.00000000000E+00  0.15994279544E+01  0.15994279544E+01  0.00000000000E+00 0.  1.
         13   -1    0    0    0    0 -0.00000000000E+00 -0.00000000000E+00 -0.10000000000E+04  0.10000000000E+04  0.00000000000E+00 0.  1.
    9000005    2    1    2  501    0 -0.32795765615E+02  0.16119223994E+01 -0.78439991461E+03  0.78509436584E+03  0.34317204536E+01 0.  0.
         13    1    3    3    0    0 -0.17854617131E+02 -0.55650434028E+00 -0.40279809298E+03  0.40319399891E+03  0.00000000000E+00 0.  1.
          1    1    3    3  501    0 -0.14941148484E+02  0.21684267397E+01 -0.38160182163E+03  0.38190036693E+03  0.00000000000E+00 0.  1.
         21    1    1    2  502  501  0.32795765615E+02 -0.16119223994E+01 -0.21400065744E+03  0.21650506211E+03  0.00000000000E+00 0.  1.
<mgrwt>
<rscale>  1 0.30000000E+03</rscale>
<asrwt>0</asrwt>
<pdfrwt beam="1">  1        1 0.58161139E-02 0.30000000E+03</pdfrwt>
<pdfrwt beam="2">0</pdfrwt>
<totfact> 0.16085938E+03</totfact>
</mgrwt>
</event>
<event>
 6    1  0.1956957E-002  0.3000000E+03  0.7818608E-02  0.1093470E+00
          3   -1    0    0  502    0  0.00000000000E+00  0.00000000000E+00  0.10879643053E+01  0.10879643053E+01  0.00000000000E+00 0.  1.
         13   -1    0    0    0    0 -0.00000000000E+00 -0.00000000000E+00 -0.10000000000E+04  0.10000000000E+04  0.00000000000E+00 0.  1.
    9000005    2    1    2  501    0 -0.20963403623E+00 -0.32772965590E+02 -0.54425853733E+03  0.54525475490E+03  0.33587298549E+01 0.  0.
         13    1    3    3    0    0 -0.15875209809E+01 -0.15111986434E+02 -0.23872449514E+03  0.23920760218E+03  0.00000000000E+00 0.  1.
          1    1    3    3  501    0  0.13778869447E+01 -0.17660979156E+02 -0.30553404218E+03  0.30604715272E+03  0.00000000000E+00 0.  1.
         21    1    1    2  502  501  0.20963403623E+00  0.32772965590E+02 -0.45465349837E+03  0.45583320941E+03  0.00000000000E+00 0.  1.
<mgrwt>
<rscale>  1 0.30000000E+03</rscale>
<asrwt>0</asrwt>
<pdfrwt beam="1">  1        3 0.39562422E-02 0.30000000E+03</pdfrwt>
<pdfrwt beam="2">0</pdfrwt>
<totfact> 0.14190426E+03</totfact>
</mgrwt>
</event>
<event>
 6    1  0.1956957E-002  0.3000000E+03  0.7818608E-02  0.1093470E+00
          3   -1    0    0  502    0  0.00000000000E+00  0.00000000000E+00  0.20984433107E+01  0.20984433107E+01  0.00000000000E+00 0.  1.
         13   -1    0    0    0    0 -0.00000000000E+00 -0.00000000000E+00 -0.10000000000E+04  0.10000000000E+04  0.00000000000E+00 0.  1.
    9000005    2    1    2  501    0 -0.50223789094E+01  0.29700447076E+02 -0.87621192336E+03  0.87673613755E+03  0.34028513134E+01 0.  0.
         13    1    3    3    0    0 -0.25660450673E+01  0.13124218440E+02 -0.43737900834E+03  0.43758339392E+03  0.00000000000E+00 0.  1.
          3    1    3    3  501    0 -0.24563338422E+01  0.16576228636E+02 -0.43883291502E+03  0.43915274363E+03  0.00000000000E+00 0.  1.
         21    1    1    2  502  501  0.50223789094E+01 -0.29700447076E+02 -0.12168963332E+03  0.12536230576E+03  0.00000000000E+00 0.  1.
<mgrwt>
<rscale>  1 0.30000000E+03</rscale>
<asrwt>0</asrwt>
<pdfrwt beam="1">  1        3 0.76307190E-02 0.30000000E+03</pdfrwt>
<pdfrwt beam="2">0</pdfrwt>
<totfact> 0.51096588E+02</totfact>
</mgrwt>
</event>
<event>
 6    1  0.1956957E-002  0.3000000E+03  0.7818608E-02  0.1093470E+00
          1   -1    0    0  502    0  0.00000000000E+00  0.00000000000E+00  0.21948592199E+01  0.21948592199E+01  0.00000000000E+00 0.  1.
         13   -1    0    0    0    0 -0.00000000000E+00 -0.00000000000E+00 -0.10000000000E+04  0.10000000000E+04  0.00000000000E+00 0.  1.
    9000005    2    1    2  501    0  0.34081480250E+02  0.99817715200E+01 -0.82541782416E+03  0.82618755826E+03  0.31802403770E+01 0.  0.
         13    1    3    3    0    0  0.25353834711E+02  0.83989334921E+01 -0.64216010691E+03  0.64271530395E+03  0.00000000000E+00 0.  1.
          1    1    3    3  501    0  0.87276455391E+01  0.15828380280E+01 -0.18325771724E+03  0.18347225431E+03  0.00000000000E+00 0.  1.
         21    1    1    2  502  501 -0.34081480250E+02 -0.99817715200E+01 -0.17238731662E+03  0.17600730096E+03  0.00000000000E+00 0.  1.
<mgrwt>
<rscale>  1 0.30000000E+03</rscale>
<asrwt>0</asrwt>
<pdfrwt beam="1">  1        1 0.79813231E-02 0.30000000E+03</pdfrwt>
<pdfrwt beam="2">0</pdfrwt>
<totfact> 0.10331987E+03</totfact>
</mgrwt>
</event>
<event>
 6    1  0.1956957E-002  0.3000000E+03  0.7818608E-02  0.1093470E+00
          1   -1    0    0  502    0  0.00000000000E+00  0.00000000000E+00  0.21320677855E+01  0.21320677855E+01  0.00000000000E+00 0.  1.
         13   -1    0    0    0    0 -0.00000000000E+00 -0.00000000000E+00 -0.10000000000E+04  0.10000000000E+04  0.00000000000E+00 0.  1.
    9000005    2    1    2  501    0  0.25941492226E+02 -0.25862742980E+02 -0.80359265837E+03  0.80443349793E+03  0.32014874089E+01 0.  0.
         13    1    3    3    0    0  0.11309638307E+02 -0.13410148118E+02 -0.39494086296E+03  0.39533027360E+03  0.00000000000E+00 0.  1.
          1    1    3    3  501    0  0.14631853918E+02 -0.12452594862E+02 -0.40865179541E+03  0.40910322433E+03  0.00000000000E+00 0.  1.
         21    1    1    2  502  501 -0.25941492226E+02  0.25862742980E+02 -0.19427527385E+03  0.19769856985E+03  0.00000000000E+00 0.  1.
<mgrwt>
<rscale>  1 0.30000000E+03</rscale>
<asrwt>0</asrwt>
<pdfrwt beam="1">  1        1 0.77529901E-02 0.30000000E+03</pdfrwt>
<pdfrwt beam="2">0</pdfrwt>
<totfact> 0.10758368E+03</totfact>
</mgrwt>
</event>
<event>
 6    1  0.1956957E-002  0.3000000E+03  0.7818608E-02  0.1093470E+00
          1   -1    0    0  502    0  0.00000000000E+00  0.00000000000E+00  0.21331508059E+01  0.21331508059E+01  0.00000000000E+00 0.  1.
         13   -1    0    0    0    0 -0.00000000000E+00 -0.00000000000E+00 -0.10000000000E+04  0.10000000000E+04  0.00000000000E+00 0.  1.
    9000005    2    1    2  501    0  0.45476556307E+02 -0.76458452614E+01 -0.50116376728E+03  0.50329397061E+03  0.36225801605E+01 0.  0.
         13    1    3    3    0    0  0.24030631966E+02 -0.50089468562E+01 -0.28316795929E+03  0.28422993155E+03  0.00000000000E+00 0.  1.
          1    1    3    3  501    0  0.21445924341E+02 -0.26368984052E+01 -0.21799580799E+03  0.21906403905E+03  0.00000000000E+00 0.  1.
         21    1    1    2  502  501 -0.45476556307E+02  0.76458452614E+01 -0.49670308191E+03  0.49883918020E+03  0.00000000000E+00 0.  1.
<mgrwt>
<rscale>  1 0.30000000E+03</rscale>
<asrwt>0</asrwt>
<pdfrwt beam="1">  1        1 0.77569284E-02 0.30000000E+03</pdfrwt>
<pdfrwt beam="2">0</pdfrwt>
<totfact> 0.10750755E+03</totfact>
</mgrwt>
</event>
<event>
 6    1  0.1956957E-002  0.3000000E+03  0.7818608E-02  0.1093470E+00
          3   -1    0    0  502    0  0.00000000000E+00  0.00000000000E+00  0.17772616199E+01  0.17772616199E+01  0.00000000000E+00 0.  1.
         13   -1    0    0    0    0 -0.00000000000E+00 -0.00000000000E+00 -0.10000000000E+04  0.10000000000E+04  0.00000000000E+00 0.  1.
    9000005    2    1    2  501    0  0.40542241058E+02  0.14509920561E+01 -0.63089791708E+03  0.63221900771E+03  0.47867785767E+01 0.  0.
         13    1    3    3    0    0  0.64477797900E+01 -0.65404832074E+00 -0.12631375400E+03  0.12647990391E+03  0.00000000000E+00 0.  1.
          1    1    3    3  501    0  0.34094461268E+02  0.21050403769E+01 -0.50458416307E+03  0.50573910379E+03  0.00000000000E+00 0.  1.
         21    1    1    2  502  501 -0.40542241058E+02 -0.14509920561E+01 -0.36732482130E+03  0.36955825391E+03  0.00000000000E+00 0.  1.
<mgrwt>
<rscale>  1 0.30000000E+03</rscale>
<asrwt>0</asrwt>
<pdfrwt beam="1">  1        3 0.64627832E-02 0.30000000E+03</pdfrwt>
<pdfrwt beam="2">0</pdfrwt>
<totfact> 0.66398393E+02</totfact>
</mgrwt>
</event>
<event>
 6    1  0.1956957E-002  0.3000000E+03  0.7818608E-02  0.1093470E+00
          1   -1    0    0  502    0  0.00000000000E+00  0.00000000000E+00  0.13119309755E+01  0.13119309755E+01  0.00000000000E+00 0.  1.
         13   -1    0    0    0    0 -0.00000000000E+00 -0.00000000000E+00 -0.10000000000E+04  0.10000000000E+04  0.00000000000E+00 0.  1.
    9000005    2    1    2  501    0  0.33474904059E+02  0.70097263468E+01 -0.66206267642E+03  0.66295359960E+03  0.32836334576E+01 0.  0.
         13    1    3    3    0    0  0.93057276335E+01  0.48486840478E+00 -0.17438944833E+03  0.17463822993E+03  0.00000000000E+00 0.  1.
          3    1    3    3  501    0  0.24169176425E+02  0.65248579420E+01 -0.48767322809E+03  0.48831536967E+03  0.00000000000E+00 0.  1.
         21    1    1    2  502  501 -0.33474904059E+02 -0.70097263468E+01 -0.33662539260E+03  0.33835833137E+03  0.00000000000E+00 0.  1.
<mgrwt>
<rscale>  1 0.30000000E+03</rscale>
<asrwt>0</asrwt>
<pdfrwt beam="1">  1        1 0.47706682E-02 0.30000000E+03</pdfrwt>
<pdfrwt beam="2">0</pdfrwt>
<totfact> 0.21248984E+03</totfact>
</mgrwt>
</event>
<event>
 6    1  0.1956957E-002  0.3000000E+03  0.7818608E-02  0.1093470E+00
          1   -1    0    0  502    0  0.00000000000E+00  0.00000000000E+00  0.12850044028E+02  0.12850044028E+02  0.00000000000E+00 0.  1.
         13   -1    0    0    0    0 -0.00000000000E+00 -0.00000000000E+00 -0.10000000000E+04  0.10000000000E+04  0.00000000000E+00 0.  1.
    9000005    2    1    2  501    0 -0.40981727517E+02  0.40657621137E+02 -0.92939407577E+03  0.93119047114E+03  0.31307053291E+01 0.  0.
         13    1    3    3    0    0 -0.29198349377E+02  0.29723236742E+02 -0.64924304264E+03  0.65057862156E+03  0.00000000000E+00 0.  1.
          1    1    3    3  501    0 -0.11783378140E+02  0.10934384395E+02 -0.28015103313E+03  0.28061184958E+03  0.00000000000E+00 0.  1.
         21    1    1    2  502  501  0.40981727517E+02 -0.40657621137E+02 -0.57755880204E+02  0.81659572892E+02  0.00000000000E+00 0.  1.
<mgrwt>
<rscale>  1 0.30000000E+03</rscale>
<asrwt>0</asrwt>
<pdfrwt beam="1">  1        1 0.46727531E-01 0.30000000E+03</pdfrwt>
<pdfrwt beam="2">0</pdfrwt>
<totfact> 0.96443649E+01</totfact>
</mgrwt>
</event>
<event>
 6    1  0.1956957E-002  0.3000000E+03  0.7818608E-02  0.1093470E+00
          1   -1    0    0  502    0  0.00000000000E+00  0.00000000000E+00  0.16313688072E+01  0.16313688072E+01  0.00000000000E+00 0.  1.
         13   -1    0    0    0    0 -0.00000000000E+00 -0.00000000000E+00 -0.10000000000E+04  0.10000000000E+04  0.00000000000E+00 0.  1.
    9000005    2    1    2  501    0  0.33836212528E+02 -0.69895398665E+01 -0.75764508810E+03  0.75844097602E+03  0.35904923562E+01 0.  0.
         13    1    3    3    0    0  0.79312504397E+01 -0.17884074056E+01 -0.14723407190E+03  0.14745838418E+03  0.00000000000E+00 0.  1.
          3    1    3    3  501    0  0.25904962089E+02 -0.52011324609E+01 -0.61041101620E+03  0.61098259184E+03  0.00000000000E+00 0.  1.
         21    1    1    2  502  501 -0.33836212528E+02  0.69895398665E+01 -0.24072354309E+03  0.24319039279E+03  0.00000000000E+00 0.  1.
<mgrwt>
<rscale>  1 0.30000000E+03</rscale>
<asrwt>0</asrwt>
<pdfrwt beam="1">  1        1 0.59322627E-02 0.30000000E+03</pdfrwt>
<pdfrwt beam="2">0</pdfrwt>
<totfact> 0.15645701E+03</totfact>
</mgrwt>
</event>
<event>
 6    1  0.1956957E-002  0.3000000E+03  0.7818608E-02  0.1093470E+00
          1   -1    0    0  502    0  0.00000000000E+00  0.00000000000E+00  0.97330414393E+01  0.97330414393E+01  0.00000000000E+00 0.  1.
         13   -1    0    0    0    0 -0.00000000000E+00 -0.00000000000E+00 -0.10000000000E+04  0.10000000000E+04  0.00000000000E+00 0.  1.
    9000005    2    1    2  501    0 -0.11218730591E+02  0.38378581173E+02 -0.95666192950E+03  0.95750207948E+03  0.30674817426E+01 0.  0.
         13    1    3    3    0    0 -0.61895291150E+01  0.18185446899E+02 -0.48991293879E+03  0.49028941284E+03  0.00000000000E+00 0.  1.
          1    1    3    3  501    0 -0.50292014758E+01  0.20193134274E+02 -0.46674899072E+03  0.46721266665E+03  0.00000000000E+00 0.  1.
         21    1    1    2  502  501  0.11218730591E+02 -0.38378581173E+02 -0.33605029056E+02  0.52230961955E+02  0.00000000000E+00 0.  1.
<mgrwt>
<rscale>  1 0.30000000E+03</rscale>
<asrwt>0</asrwt>
<pdfrwt beam="1">  1        1 0.35392953E-01 0.30000000E+03</pdfrwt>
<pdfrwt beam="2">0</pdfrwt>
<totfact> 0.13868393E+02</totfact>
</mgrwt>
</event>
<event>
 6    1  0.1956957E-002  0.3000000E+03  0.7818608E-02  0.1093470E+00
          3   -1    0    0  502    0  0.00000000000E+00  0.00000000000E+00  0.21762144620E+01  0.21762144620E+01  0.00000000000E+00 0.  1.
         13   -1    0    0    0    0 -0.00000000000E+00 -0.00000000000E+00 -0.10000000000E+04  0.10000000000E+04  0.00000000000E+00 0.  1.
    9000005    2    1    2  501    0 -0.23063943961E+02 -0.27167553953E+02 -0.82190360515E+03  0.82268267317E+03  0.33500853787E+01 0.  0.
         13    1    3    3    0    0 -0.19429042238E+02 -0.20840229885E+02 -0.65992089786E+03  0.66053568737E+03  0.00000000000E+00 0.  1.
          3    1    3    3  501    0 -0.36349017231E+01 -0.63273240686E+01 -0.16198270729E+03  0.16214698579E+03  0.00000000000E+00 0.  1.
         21    1    1    2  502  501  0.23063943961E+02  0.27167553953E+02 -0.17592018039E+03  0.17949354130E+03  0.00000000000E+00 0.  1.
<mgrwt>
<rscale>  1 0.30000000E+03</rscale>
<asrwt>0</asrwt>
<pdfrwt beam="1">  1        3 0.79135238E-02 0.30000000E+03</pdfrwt>
<pdfrwt beam="2">0</pdfrwt>
<totfact> 0.48220098E+02</totfact>
</mgrwt>
</event>
<event>
 6    1  0.1956957E-002  0.3000000E+03  0.7818608E-02  0.1093470E+00
          1   -1    0    0  502    0  0.00000000000E+00  0.00000000000E+00  0.24449734134E+01  0.24449734134E+01  0.00000000000E+00 0.  1.
         13   -1    0    0    0    0 -0.00000000000E+00 -0.00000000000E+00 -0.10000000000E+04  0.10000000000E+04  0.00000000000E+00 0.  1.
    9000005    2    1    2  501    0 -0.13507426888E+02  0.28681853478E+02 -0.11541790552E+03  0.11973834057E+03  0.32981795101E+01 0.  0.
         13    1    3    3    0    0 -0.94154850812E+01  0.23053522177E+02 -0.88733169746E+02  0.92161226431E+02  0.00000000000E+00 0.  1.
          3    1    3    3  501    0 -0.40919418063E+01  0.56283313005E+01 -0.26684735774E+02  0.27577114140E+02  0.00000000000E+00 0.  1.
         21    1    1    2  502  501  0.13507426888E+02 -0.28681853478E+02 -0.88213712107E+03  0.88270663284E+03  0.00000000000E+00 0.  1.
<mgrwt>
<rscale>  1 0.30000000E+03</rscale>
<asrwt>0</asrwt>
<pdfrwt beam="1">  1        1 0.88908312E-02 0.30000000E+03</pdfrwt>
<pdfrwt beam="2">0</pdfrwt>
<totfact> 0.88930050E+02</totfact>
</mgrwt>
</event>
<event>
 6    1  0.1956957E-002  0.3000000E+03  0.7818608E-02  0.1093470E+00
          1   -1    0    0  502    0  0.00000000000E+00  0.00000000000E+00  0.17517324212E+01  0.17517324212E+01  0.00000000000E+00 0.  1.
         13   -1    0    0    0    0 -0.00000000000E+00 -0.00000000000E+00 -0.10000000000E+04  0.10000000000E+04  0.00000000000E+00 0.  1.
    9000005    2    1    2  501    0  0.40627436179E+02 -0.30688349007E+01 -0.38907598751E+03  0.39121846296E+03  0.34286124862E+01 0.  0.
         13    1    3    3    0    0  0.21252645059E+01 -0.94187645937E+00 -0.22957605401E+02  0.23074997860E+02  0.00000000000E+00 0.  1.
          1    1    3    3  501    0  0.38502171673E+02 -0.21269584414E+01 -0.36611838211E+03  0.36814346510E+03  0.00000000000E+00 0.  1.
         21    1    1    2  502  501 -0.40627436179E+02  0.30688349007E+01 -0.60917228007E+03  0.61053326946E+03  0.00000000000E+00 0.  1.
<mgrwt>
<rscale>  1 0.30000000E+03</rscale>
<asrwt>0</asrwt>
<pdfrwt beam="1">  1        1 0.63699495E-02 0.30000000E+03</pdfrwt>
<pdfrwt beam="2">0</pdfrwt>
<totfact> 0.14159408E+03</totfact>
</mgrwt>
</event>
<event>
 6    1  0.1956957E-002  0.3000000E+03  0.7818608E-02  0.1093470E+00
          1   -1    0    0  502    0  0.00000000000E+00  0.00000000000E+00  0.54382056389E+01  0.54382056389E+01  0.00000000000E+00 0.  1.
         13   -1    0    0    0    0 -0.00000000000E+00 -0.00000000000E+00 -0.10000000000E+04  0.10000000000E+04  0.00000000000E+00 0.  1.
    9000005    2    1    2  501    0  0.13465297128E+02  0.72416559434E+02 -0.52074928316E+03  0.52593453717E+03  0.13598406241E+01 0.  0.
         13    1    3    3    0    0  0.77390005643E+01  0.44097138701E+02 -0.31302249593E+03  0.31620805292E+03  0.00000000000E+00 0.  1.
          1    1    3    3  501    0  0.57262965640E+01  0.28319420733E+02 -0.20772678724E+03  0.20972648426E+03  0.00000000000E+00 0.  1.
         21    1    1    2  502  501 -0.13465297128E+02 -0.72416559434E+02 -0.47381251120E+03  0.47950366847E+03  0.00000000000E+00 0.  1.
<mgrwt>
<rscale>  1 0.30000000E+03</rscale>
<asrwt>0</asrwt>
<pdfrwt beam="1">  1        1 0.19775335E-01 0.30000000E+03</pdfrwt>
<pdfrwt beam="2">0</pdfrwt>
<totfact> 0.29889955E+02</totfact>
</mgrwt>
</event>
<event>
 6    1  0.1956957E-002  0.3000000E+03  0.7818608E-02  0.1093470E+00
          1   -1    0    0  502    0  0.00000000000E+00  0.00000000000E+00  0.13409694638E+01  0.13409694638E+01  0.00000000000E+00 0.  1.
         13   -1    0    0    0    0 -0.00000000000E+00 -0.00000000000E+00 -0.10000000000E+04  0.10000000000E+04  0.00000000000E+00 0.  1.
    9000005    2    1    2  501    0  0.30402963665E+02 -0.20369500820E+00 -0.77761584180E+03  0.77821662526E+03  0.32150763785E+01 0.  0.
         13    1    3    3    0    0  0.25302590291E+01 -0.43250862622E+00 -0.88680446210E+02  0.88717590221E+02  0.00000000000E+00 0.  1.
          1    1    3    3  501    0  0.27872704636E+02  0.22881361802E+00 -0.68893539559E+03  0.68949903504E+03  0.00000000000E+00 0.  1.
         21    1    1    2  502  501 -0.30402963665E+02  0.20369500820E+00 -0.22104318874E+03  0.22312434421E+03  0.00000000000E+00 0.  1.
<mgrwt>
<rscale>  1 0.30000000E+03</rscale>
<asrwt>0</asrwt>
<pdfrwt beam="1">  1        1 0.48762629E-02 0.30000000E+03</pdfrwt>
<pdfrwt beam="2">0</pdfrwt>
<totfact> 0.20604808E+03</totfact>
</mgrwt>
</event>
<event>
 6    1  0.1956957E-002  0.3000000E+03  0.7818608E-02  0.1093470E+00
          1   -1    0    0  502    0  0.00000000000E+00  0.00000000000E+00  0.41537399781E+01  0.41537399781E+01  0.00000000000E+00 0.  1.
         13   -1    0    0    0    0 -0.00000000000E+00 -0.00000000000E+00 -0.10000000000E+04  0.10000000000E+04  0.00000000000E+00 0.  1.
    9000005    2    1    2  501    0 -0.56826883319E+00  0.46385771600E+02 -0.84632791091E+03  0.84760438847E+03  0.32099582724E+01 0.  0.
         13    1    3    3    0    0 -0.37091660318E+00  0.40746849138E+02 -0.76092938082E+03  0.76201966241E+03  0.00000000000E+00 0.  1.
          1    1    3    3  501    0 -0.19735223001E+00  0.56389224620E+01 -0.85398530089E+02  0.85584726066E+02  0.00000000000E+00 0.  1.
         21    1    1    2  502  501  0.56826883319E+00 -0.46385771600E+02 -0.14951834911E+03  0.15654935151E+03  0.00000000000E+00 0.  1.
<mgrwt>
<rscale>  1 0.30000000E+03</rscale>
<asrwt>0</asrwt>
<pdfrwt beam="1">  1        1 0.15104541E-01 0.30000000E+03</pdfrwt>
<pdfrwt beam="2">0</pdfrwt>
<totfact> 0.42973465E+02</totfact>
</mgrwt>
</event>
<event>
 6    1  0.1956957E-002  0.3000000E+03  0.7818608E-02  0.1093470E+00
          3   -1    0    0  502    0  0.00000000000E+00  0.00000000000E+00  0.11078781019E+01  0.11078781019E+01  0.00000000000E+00 0.  1.
         13   -1    0    0    0    0 -0.00000000000E+00 -0.00000000000E+00 -0.10000000000E+04  0.10000000000E+04  0.00000000000E+00 0.  1.
    9000005    2    1    2  501    0 -0.27562913812E+01  0.31038847825E+02 -0.67219602723E+03  0.67292904653E+03  0.38723935477E+01 0.  0.
         13    1    3    3    0    0 -0.23541706214E+01  0.30166010194E+02 -0.63484336100E+03  0.63556401983E+03  0.00000000000E+00 0.  1.
          3    1    3    3  501    0 -0.40212075978E+00  0.87283763069E+00 -0.37352666224E+02  0.37365026705E+02  0.00000000000E+00 0.  1.
         21    1    1    2  502  501  0.27562913812E+01 -0.31038847825E+02 -0.32669609467E+03  0.32817883157E+03  0.00000000000E+00 0.  1.
<mgrwt>
<rscale>  1 0.30000000E+03</rscale>
<asrwt>0</asrwt>
<pdfrwt beam="1">  1        3 0.40286561E-02 0.30000000E+03</pdfrwt>
<pdfrwt beam="2">0</pdfrwt>
<totfact> 0.13800502E+03</totfact>
</mgrwt>
</event>
<event>
 6    1  0.1956957E-002  0.3000000E+03  0.7818608E-02  0.1093470E+00
          3   -1    0    0  502    0  0.00000000000E+00  0.00000000000E+00  0.18767395111E+01  0.18767395111E+01  0.00000000000E+00 0.  1.
         13   -1    0    0    0    0 -0.00000000000E+00 -0.00000000000E+00 -0.10000000000E+04  0.10000000000E+04  0.00000000000E+00 0.  1.
    9000005    2    1    2  501    0 -0.32522769871E+02  0.48566668960E+01 -0.82477340769E+03  0.82543556166E+03  0.33726339222E+01 0.  0.
         13    1    3    3    0    0 -0.22959607452E+02  0.30532432044E+01 -0.61644969942E+03  0.61688467138E+03  0.00000000000E+00 0.  1.
          1    1    3    3  501    0 -0.95631624195E+01  0.18034236916E+01 -0.20832370827E+03  0.20855089028E+03  0.00000000000E+00 0.  1.
         21    1    1    2  502  501  0.32522769871E+02 -0.48566668960E+01 -0.17334985280E+03  0.17644117785E+03  0.00000000000E+00 0.  1.
<mgrwt>
<rscale>  1 0.30000000E+03</rscale>
<asrwt>0</asrwt>
<pdfrwt beam="1">  1        3 0.68245217E-02 0.30000000E+03</pdfrwt>
<pdfrwt beam="2">0</pdfrwt>
<totfact> 0.60962245E+02</totfact>
</mgrwt>
</event>
<event>
 6    1  0.1956957E-002  0.3000000E+03  0.7818608E-02  0.1093470E+00
          3   -1    0    0  502    0  0.00000000000E+00  0.00000000000E+00  0.15223369514E+01  0.15223369514E+01  0.00000000000E+00 0.  1.
         13   -1    0    0    0    0 -0.00000000000E+00 -0.00000000000E+00 -0.10000000000E+04  0.10000000000E+04  0.00000000000E+00 0.  1.
    9000005    2    1    2  501    0 -0.23052637404E+02  0.19692428492E+02 -0.81398581035E+03  0.81455587059E+03  0.30250672291E+01 0.  0.
         13    1    3    3    0    0 -0.21306673538E+02  0.17187413356E+02 -0.74412957053E+03  0.74463292920E+03  0.00000000000E+00 0.  1.
          1    1    3    3  501    0 -0.17459638656E+01  0.25050151359E+01 -0.69856239821E+02  0.69922941389E+02  0.00000000000E+00 0.  1.
         21    1    1    2  502  501  0.23052637404E+02 -0.19692428492E+02 -0.18449185270E+03  0.18696646636E+03  0.00000000000E+00 0.  1.
<mgrwt>
<rscale>  1 0.30000000E+03</rscale>
<asrwt>0</asrwt>
<pdfrwt beam="1">  1        3 0.55357824E-02 0.30000000E+03</pdfrwt>
<pdfrwt beam="2">0</pdfrwt>
<totfact> 0.84526149E+02</totfact>
</mgrwt>
</event>
<event>
 6    1  0.1956957E-002  0.3000000E+03  0.7818608E-02  0.1093470E+00
          1   -1    0    0  502    0  0.00000000000E+00  0.00000000000E+00  0.72801871263E+01  0.72801871263E+01  0.00000000000E+00 0.  1.
         13   -1    0    0    0    0 -0.00000000000E+00 -0.00000000000E+00 -0.10000000000E+04  0.10000000000E+04  0.00000000000E+00 0.  1.
    9000005    2    1    2  501    0 -0.39829261059E+01  0.46351554015E+02 -0.91849038118E+03  0.91967688359E+03  0.40816222069E+01 0.  0.
         13    1    3    3    0    0 -0.39932821894E+01  0.46382357032E+02 -0.91277967386E+03  0.91396608381E+03  0.00000000000E+00 0.  1.
          3    1    3    3  501    0  0.10356083556E-01 -0.30803016622E-01 -0.57107073193E+01  0.57107997829E+01  0.00000000000E+00 0.  1.
         21    1    1    2  502  501  0.39829261059E+01 -0.46351554015E+02 -0.74229431697E+02  0.87603303534E+02  0.00000000000E+00 0.  1.
<mgrwt>
<rscale>  1 0.30000000E+03</rscale>
<asrwt>0</asrwt>
<pdfrwt beam="1">  1        1 0.26473464E-01 0.30000000E+03</pdfrwt>
<pdfrwt beam="2">0</pdfrwt>
<totfact> 0.20298971E+02</totfact>
</mgrwt>
</event>
<event>
 6    1  0.1956957E-002  0.3000000E+03  0.7818608E-02  0.1093470E+00
          1   -1    0    0  502    0  0.00000000000E+00  0.00000000000E+00  0.15847333362E+01  0.15847333362E+01  0.00000000000E+00 0.  1.
         13   -1    0    0    0    0 -0.00000000000E+00 -0.00000000000E+00 -0.10000000000E+04  0.10000000000E+04  0.00000000000E+00 0.  1.
    9000005    2    1    2  501    0  0.74843667348E+01  0.35725896177E+02 -0.69760695678E+03  0.69856989096E+03  0.34743358446E+01 0.  0.
         13    1    3    3    0    0  0.12376912770E+01  0.93623289292E+01 -0.15582423073E+03  0.15611014050E+03  0.00000000000E+00 0.  1.
          1    1    3    3  501    0  0.62466754579E+01  0.26363567248E+02 -0.54178272605E+03  0.54245975047E+03  0.00000000000E+00 0.  1.
         21    1    1    2  502  501 -0.74843667348E+01 -0.35725896177E+02 -0.30080830988E+03  0.30301484237E+03  0.00000000000E+00 0.  1.
<mgrwt>
<rscale>  1 0.30000000E+03</rscale>
<asrwt>0</asrwt>
<pdfrwt beam="1">  1        1 0.57626788E-02 0.30000000E+03</pdfrwt>
<pdfrwt beam="2">0</pdfrwt>
<totfact> 0.16295694E+03</totfact>
</mgrwt>
</event>
<event>
 6    1  0.1956957E-002  0.3000000E+03  0.7818608E-02  0.1093470E+00
          1   -1    0    0  502    0  0.00000000000E+00  0.00000000000E+00  0.65111503822E+01  0.65111503822E+01  0.00000000000E+00 0.  1.
         13   -1    0    0    0    0 -0.00000000000E+00 -0.00000000000E+00 -0.10000000000E+04  0.10000000000E+04  0.00000000000E+00 0.  1.
    9000005    2    1    2  501    0 -0.23058932831E+02 -0.73900883021E+02 -0.35716571147E+03  0.36549618095E+03  0.52017251119E+01 0.  0.
         13    1    3    3    0    0 -0.47452485590E+01 -0.10894390022E+02 -0.61489576068E+02  0.62627255112E+02  0.00000000000E+00 0.  1.
          3    1    3    3  501    0 -0.18313684272E+02 -0.63006493000E+02 -0.29567613541E+03  0.30286892584E+03  0.00000000000E+00 0.  1.
         21    1    1    2  502  501  0.23058932831E+02  0.73900883021E+02 -0.63632313814E+03  0.64101496943E+03  0.00000000000E+00 0.  1.
<mgrwt>
<rscale>  1 0.30000000E+03</rscale>
<asrwt>0</asrwt>
<pdfrwt beam="1">  1        1 0.23676960E-01 0.30000000E+03</pdfrwt>
<pdfrwt beam="2">0</pdfrwt>
<totfact> 0.23525329E+02</totfact>
</mgrwt>
</event>
<event>
 6    1  0.1956957E-002  0.3000000E+03  0.7818608E-02  0.1093470E+00
          1   -1    0    0  502    0  0.00000000000E+00  0.00000000000E+00  0.14538590076E+01  0.14538590076E+01  0.00000000000E+00 0.  1.
         13   -1    0    0    0    0 -0.00000000000E+00 -0.00000000000E+00 -0.10000000000E+04  0.10000000000E+04  0.00000000000E+00 0.  1.
    9000005    2    1    2  501    0  0.18811174527E+02  0.32705482760E+02 -0.56749755006E+03  0.56875720241E+03  0.27887406967E+01 0.  0.
         13    1    3    3    0    0  0.13110487847E+02  0.24897314629E+02 -0.43144416111E+03  0.43236075831E+03  0.00000000000E+00 0.  1.
          3    1    3    3  501    0  0.57006866799E+01  0.78081681306E+01 -0.13605338895E+03  0.13639644410E+03  0.00000000000E+00 0.  1.
         21    1    1    2  502  501 -0.18811174527E+02 -0.32705482760E+02 -0.43104859093E+03  0.43269665660E+03  0.00000000000E+00 0.  1.
<mgrwt>
<rscale>  1 0.30000000E+03</rscale>
<asrwt>0</asrwt>
<pdfrwt beam="1">  1        1 0.52867712E-02 0.30000000E+03</pdfrwt>
<pdfrwt beam="2">0</pdfrwt>
<totfact> 0.18392328E+03</totfact>
</mgrwt>
</event>
<event>
 6    1  0.1956957E-002  0.3000000E+03  0.7818608E-02  0.1093470E+00
          1   -1    0    0  502    0  0.00000000000E+00  0.00000000000E+00  0.54719761016E+01  0.54719761016E+01  0.00000000000E+00 0.  1.
         13   -1    0    0    0    0 -0.00000000000E+00 -0.00000000000E+00 -0.10000000000E+04  0.10000000000E+04  0.00000000000E+00 0.  1.
    9000005    2    1    2  501    0 -0.10558516696E+02 -0.62256033651E+02 -0.75865787679E+03  0.76129576453E+03  0.47086170552E+01 0.  0.
         13    1    3    3    0    0 -0.24017435712E+01 -0.59212367156E+01 -0.80364483282E+02  0.80618109564E+02  0.00000000000E+00 0.  1.
          3    1    3    3  501    0 -0.81567731244E+01 -0.56334796935E+02 -0.67829339350E+03  0.68067765496E+03  0.00000000000E+00 0.  1.
         21    1    1    2  502  501  0.10558516696E+02  0.62256033651E+02 -0.23587014711E+03  0.24417621158E+03  0.00000000000E+00 0.  1.
<mgrwt>
<rscale>  1 0.30000000E+03</rscale>
<asrwt>0</asrwt>
<pdfrwt beam="1">  1        1 0.19898137E-01 0.30000000E+03</pdfrwt>
<pdfrwt beam="2">0</pdfrwt>
<totfact> 0.29643403E+02</totfact>
</mgrwt>
</event>
<event>
 6    1  0.1956957E-002  0.3000000E+03  0.7818608E-02  0.1093470E+00
          1   -1    0    0  502    0  0.00000000000E+00  0.00000000000E+00  0.10824248908E+02  0.10824248908E+02  0.00000000000E+00 0.  1.
         13   -1    0    0    0    0 -0.00000000000E+00 -0.00000000000E+00 -0.10000000000E+04  0.10000000000E+04  0.00000000000E+00 0.  1.
    9000005    2    1    2  501    0  0.36766758671E+02 -0.57968347194E+01 -0.96653124526E+03  0.96725623908E+03  0.40726091984E+01 0.  0.
         13    1    3    3    0    0  0.29358970306E+02 -0.53852521799E+01 -0.73399822526E+03  0.73460489024E+03  0.00000000000E+00 0.  1.
          1    1    3    3  501    0  0.74077883646E+01 -0.41158253956E+00 -0.23253302000E+03  0.23265134884E+03  0.00000000000E+00 0.  1.
         21    1    1    2  502  501 -0.36766758671E+02  0.57968347194E+01 -0.22644505837E+02  0.43568009830E+02  0.00000000000E+00 0.  1.
<mgrwt>
<rscale>  1 0.30000000E+03</rscale>
<asrwt>0</asrwt>
<pdfrwt beam="1">  1        1 0.39360988E-01 0.30000000E+03</pdfrwt>
<pdfrwt beam="2">0</pdfrwt>
<totfact> 0.12071902E+02</totfact>
</mgrwt>
</event>
<event>
 6    1  0.1956957E-002  0.3000000E+03  0.7818608E-02  0.1093470E+00
          3   -1    0    0  502    0  0.00000000000E+00  0.00000000000E+00  0.66656380008E+01  0.66656380008E+01  0.00000000000E+00 0.  1.
         13   -1    0    0    0    0 -0.00000000000E+00 -0.00000000000E+00 -0.10000000000E+04  0.10000000000E+04  0.00000000000E+00 0.  1.
    9000005    2    1    2  501    0 -0.46583544461E+02  0.65654426675E+02 -0.41469336503E+03  0.42245169283E+03  0.37835723478E+01 0.  0.
         13    1    3    3    0    0 -0.33433805734E+02  0.47487286800E+02 -0.29014366501E+03  0.29589898297E+03  0.00000000000E+00 0.  1.
          1    1    3    3  501    0 -0.13149738728E+02  0.18167139875E+02 -0.12454970002E+03  0.12655270986E+03  0.00000000000E+00 0.  1.
         21    1    1    2  502  501  0.46583544461E+02 -0.65654426675E+02 -0.57864099697E+03  0.58421394517E+03  0.00000000000E+00 0.  1.
<mgrwt>
<rscale>  1 0.30000000E+03</rscale>
<asrwt>0</asrwt>
<pdfrwt beam="1">  1        3 0.24238735E-01 0.30000000E+03</pdfrwt>
<pdfrwt beam="2">0</pdfrwt>
<totfact> 0.69965283E+01</totfact>
</mgrwt>
</event>
<event>
 6    1  0.1956957E-002  0.3000000E+03  0.7818608E-02  0.1093470E+00
          1   -1    0    0  502    0  0.00000000000E+00  0.00000000000E+00  0.11121102977E+01  0.11121102977E+01  0.00000000000E+00 0.  1.
         13   -1    0    0    0    0 -0.00000000000E+00 -0.00000000000E+00 -0.10000000000E+04  0.10000000000E+04  0.00000000000E+00 0.  1.
    9000005    2    1    2  501    0  0.13645867901E+02 -0.30012248732E+02 -0.55907846823E+03  0.56006872015E+03  0.46144184658E+01 0.  0.
         13    1    3    3    0    0  0.54309436329E+01 -0.11534918676E+02 -0.17968325401E+03  0.18013500845E+03  0.00000000000E+00 0.  1.
          1    1    3    3  501    0  0.82149242686E+01 -0.18477330056E+02 -0.37939521422E+03  0.37993371170E+03  0.00000000000E+00 0.  1.
         21    1    1    2  502  501 -0.13645867901E+02  0.30012248732E+02 -0.43980942147E+03  0.44104339015E+03  0.00000000000E+00 0.  1.
<mgrwt>
<rscale>  1 0.30000000E+03</rscale>
<asrwt>0</asrwt>
<pdfrwt beam="1">  1        1 0.40440460E-02 0.30000000E+03</pdfrwt>
<pdfrwt beam="2">0</pdfrwt>
<totfact> 0.26812892E+03</totfact>
</mgrwt>
</event>
<event>
 6    1  0.1956957E-002  0.3000000E+03  0.7818608E-02  0.1093470E+00
          3   -1    0    0  502    0  0.00000000000E+00  0.00000000000E+00  0.63146026231E+01  0.63146026231E+01  0.00000000000E+00 0.  1.
         13   -1    0    0    0    0 -0.00000000000E+00 -0.00000000000E+00 -0.10000000000E+04  0.10000000000E+04  0.00000000000E+00 0.  1.
    9000005    2    1    2  501    0 -0.58771139712E+02  0.47757358261E+02 -0.64864351746E+03  0.65306014614E+03  0.37854455296E+01 0.  0.
         13    1    3    3    0    0 -0.76134775078E+01  0.47774846957E+01 -0.81738878251E+02  0.82231585279E+02  0.00000000000E+00 0.  1.
          1    1    3    3  501    0 -0.51157662204E+02  0.42979873565E+02 -0.56690463921E+03  0.57082856086E+03  0.00000000000E+00 0.  1.
         21    1    1    2  502  501  0.58771139712E+02 -0.47757358261E+02 -0.34504187992E+03  0.35325445649E+03  0.00000000000E+00 0.  1.
<mgrwt>
<rscale>  1 0.30000000E+03</rscale>
<asrwt>0</asrwt>
<pdfrwt beam="1">  1        3 0.22962240E-01 0.30000000E+03</pdfrwt>
<pdfrwt beam="2">0</pdfrwt>
<totfact> 0.77444631E+01</totfact>
</mgrwt>
</event>
<event>
 6    1  0.1956957E-002  0.3000000E+03  0.7818608E-02  0.1093470E+00
          1   -1    0    0  502    0  0.00000000000E+00  0.00000000000E+00  0.13291161236E+01  0.13291161236E+01  0.00000000000E+00 0.  1.
         13   -1    0    0    0    0 -0.00000000000E+00 -0.00000000000E+00 -0.10000000000E+04  0.10000000000E+04  0.00000000000E+00 0.  1.
    9000005    2    1    2  501    0 -0.22189766183E+02 -0.28146402731E+02 -0.41641866393E+03  0.41797480411E+03  0.37185337572E+01 0.  0.
         13    1    3    3    0    0 -0.14849228378E+02 -0.20614654791E+02 -0.30887753711E+03  0.30992062937E+03  0.00000000000E+00 0.  1.
          1    1    3    3  501    0 -0.73405378051E+01 -0.75317479401E+01 -0.10754112682E+03  0.10805417474E+03  0.00000000000E+00 0.  1.
         21    1    1    2  502  501  0.22189766183E+02  0.28146402731E+02 -0.58225221995E+03  0.58335431201E+03  0.00000000000E+00 0.  1.
<mgrwt>
<rscale>  1 0.30000000E+03</rscale>
<asrwt>0</asrwt>
<pdfrwt beam="1">  1        1 0.48331597E-02 0.30000000E+03</pdfrwt>
<pdfrwt beam="2">0</pdfrwt>
<totfact> 0.20863647E+03</totfact>
</mgrwt>
</event>
<event>
 6    1  0.1956957E-002  0.3000000E+03  0.7818608E-02  0.1093470E+00
          3   -1    0    0  502    0  0.00000000000E+00  0.00000000000E+00  0.36727753757E+01  0.36727753757E+01  0.00000000000E+00 0.  1.
         13   -1    0    0    0    0 -0.00000000000E+00 -0.00000000000E+00 -0.10000000000E+04  0.10000000000E+04  0.00000000000E+00 0.  1.
    9000005    2    1    2  501    0  0.25171387841E+02  0.17402175502E+02 -0.93125929813E+03  0.93176818904E+03  0.34122240481E+01 0.  0.
         13    1    3    3    0    0  0.22263079874E+02  0.16606605610E+02 -0.84246899013E+03  0.84292670108E+03  0.00000000000E+00 0.  1.
          3    1    3    3  501    0  0.29083079670E+01  0.79556989183E+00 -0.88790308002E+02  0.88841487954E+02  0.00000000000E+00 0.  1.
         21    1    1    2  502  501 -0.25171387841E+02 -0.17402175502E+02 -0.65067926496E+02  0.71904586338E+02  0.00000000000E+00 0.  1.
<mgrwt>
<rscale>  1 0.30000000E+03</rscale>
<asrwt>0</asrwt>
<pdfrwt beam="1">  1        3 0.13355575E-01 0.30000000E+03</pdfrwt>
<pdfrwt beam="2">0</pdfrwt>
<totfact> 0.20319707E+02</totfact>
</mgrwt>
</event>
<event>
 6    1  0.1956957E-002  0.3000000E+03  0.7818608E-02  0.1093470E+00
          3   -1    0    0  502    0  0.00000000000E+00  0.00000000000E+00  0.22435221756E+02  0.22435221756E+02  0.00000000000E+00 0.  1.
         13   -1    0    0    0    0 -0.00000000000E+00 -0.00000000000E+00 -0.10000000000E+04  0.10000000000E+04  0.00000000000E+00 0.  1.
    9000005    2    1    2  501    0 -0.45559024735E+01 -0.53460554632E+02 -0.96599410558E+03  0.96754744885E+03  0.11165420081E+02 0.  0.
         13    1    3    3    0    0  0.30907236550E-01  0.61501579365E-01 -0.84853360750E-02  0.69352018455E-01  0.00000000000E+00 0.  1.
          1    1    3    3  501    0 -0.45868097100E+01 -0.53522056211E+02 -0.96598562025E+03  0.96747809683E+03  0.00000000000E+00 0.  1.
         21    1    1    2  502  501  0.45559024735E+01  0.53460554632E+02 -0.11570672662E+02  0.54887772908E+02  0.00000000000E+00 0.  1.
<mgrwt>
<rscale>  1 0.30000000E+03</rscale>
<asrwt>0</asrwt>
<pdfrwt beam="1">  1        3 0.81582797E-01 0.30000000E+03</pdfrwt>
<pdfrwt beam="2">0</pdfrwt>
<totfact> 0.64102192E+00</totfact>
</mgrwt>
</event>
<event>
 6    1  0.1956957E-002  0.3000000E+03  0.7818608E-02  0.1093470E+00
          1   -1    0    0  502    0  0.00000000000E+00  0.00000000000E+00  0.12375352828E+01  0.12375352828E+01  0.00000000000E+00 0.  1.
         13   -1    0    0    0    0 -0.00000000000E+00 -0.00000000000E+00 -0.10000000000E+04  0.10000000000E+04  0.00000000000E+00 0.  1.
    9000005    2    1    2  501    0 -0.30224013214E+02 -0.70237047223E+01 -0.26652434067E+03  0.26834225373E+03  0.30850557016E+01 0.  0.
         13    1    3    3    0    0 -0.14332024305E+02 -0.17534059559E+01 -0.12409275225E+03  0.12492995043E+03  0.00000000000E+00 0.  1.
          3    1    3    3  501    0 -0.15891988908E+02 -0.52702987664E+01 -0.14243158841E+03  0.14341230330E+03  0.00000000000E+00 0.  1.
         21    1    1    2  502  501  0.30224013214E+02  0.70237047223E+01 -0.73223812405E+03  0.73289528155E+03  0.00000000000E+00 0.  1.
<mgrwt>
<rscale>  1 0.30000000E+03</rscale>
<asrwt>0</asrwt>
<pdfrwt beam="1">  1        1 0.45001378E-02 0.30000000E+03</pdfrwt>
<pdfrwt beam="2">0</pdfrwt>
<totfact> 0.23067844E+03</totfact>
</mgrwt>
</event>
<event>
 6    1  0.1956957E-002  0.3000000E+03  0.7818608E-02  0.1093470E+00
          1   -1    0    0  502    0  0.00000000000E+00  0.00000000000E+00  0.14832009019E+01  0.14832009019E+01  0.00000000000E+00 0.  1.
         13   -1    0    0    0    0 -0.00000000000E+00 -0.00000000000E+00 -0.10000000000E+04  0.10000000000E+04  0.00000000000E+00 0.  1.
    9000005    2    1    2  501    0 -0.33411357807E+02 -0.19004268251E+02 -0.49924895145E+03  0.50073789165E+03  0.33822430816E+01 0.  0.
         13    1    3    3    0    0 -0.30438214021E+02 -0.18304088250E+02 -0.45590121302E+03  0.45728267029E+03  0.00000000000E+00 0.  1.
          1    1    3    3  501    0 -0.29731437866E+01 -0.70018000085E+00 -0.43347738435E+02  0.43455221360E+02  0.00000000000E+00 0.  1.
         21    1    1    2  502  501  0.33411357807E+02  0.19004268251E+02 -0.49926784765E+03  0.50074530925E+03  0.00000000000E+00 0.  1.
<mgrwt>
<rscale>  1 0.30000000E+03</rscale>
<asrwt>0</asrwt>
<pdfrwt beam="1">  1        1 0.53934692E-02 0.30000000E+03</pdfrwt>
<pdfrwt beam="2">0</pdfrwt>
<totfact> 0.17883318E+03</totfact>
</mgrwt>
</event>
<event>
 6    1  0.1956957E-002  0.3000000E+03  0.7818608E-02  0.1093470E+00
          1   -1    0    0  502    0  0.00000000000E+00  0.00000000000E+00  0.13563069281E+01  0.13563069281E+01  0.00000000000E+00 0.  1.
         13   -1    0    0    0    0 -0.00000000000E+00 -0.00000000000E+00 -0.10000000000E+04  0.10000000000E+04  0.00000000000E+00 0.  1.
    9000005    2    1    2  501    0 -0.35204546003E+02 -0.10156439229E+02 -0.53403408604E+03  0.53530416364E+03  0.39533834646E+01 0.  0.
         13    1    3    3    0    0 -0.17393859331E+02 -0.69684098066E+01 -0.26255589100E+03  0.26322367100E+03  0.00000000000E+00 0.  1.
          3    1    3    3  501    0 -0.17810686672E+02 -0.31880294220E+01 -0.27147819504E+03  0.27208049264E+03  0.00000000000E+00 0.  1.
         21    1    1    2  502  501  0.35204546003E+02  0.10156439229E+02 -0.46460960703E+03  0.46605214329E+03  0.00000000000E+00 0.  1.
<mgrwt>
<rscale>  1 0.30000000E+03</rscale>
<asrwt>0</asrwt>
<pdfrwt beam="1">  1        1 0.49320356E-02 0.30000000E+03</pdfrwt>
<pdfrwt beam="2">0</pdfrwt>
<totfact> 0.20277986E+03</totfact>
</mgrwt>
</event>
<event>
 6    1  0.1956957E-002  0.3000000E+03  0.7818608E-02  0.1093470E+00
          1   -1    0    0  502    0  0.00000000000E+00  0.00000000000E+00  0.13923999389E+02  0.13923999389E+02  0.00000000000E+00 0.  1.
         13   -1    0    0    0    0 -0.00000000000E+00 -0.00000000000E+00 -0.10000000000E+04  0.10000000000E+04  0.00000000000E+00 0.  1.
    9000005    2    1    2  501    0 -0.58774753123E+01 -0.63971793300E+02 -0.91825788819E+03  0.92050969949E+03  0.36908761645E+01 0.  0.
         13    1    3    3    0    0 -0.23482352298E+01 -0.19465678336E+02 -0.25775988095E+03  0.25850451267E+03  0.00000000000E+00 0.  1.
          1    1    3    3  501    0 -0.35292400825E+01 -0.44506114964E+02 -0.66049800725E+03  0.66200518682E+03  0.00000000000E+00 0.  1.
         21    1    1    2  502  501  0.58774753123E+01  0.63971793300E+02 -0.67818112417E+02  0.93414299900E+02  0.00000000000E+00 0.  1.
<mgrwt>
<rscale>  1 0.30000000E+03</rscale>
<asrwt>0</asrwt>
<pdfrwt beam="1">  1        1 0.50632832E-01 0.30000000E+03</pdfrwt>
<pdfrwt beam="2">0</pdfrwt>
<totfact> 0.86802805E+01</totfact>
</mgrwt>
</event>
<event>
 6    1  0.1956957E-002  0.3000000E+03  0.7818608E-02  0.1093470E+00
          3   -1    0    0  502    0  0.00000000000E+00  0.00000000000E+00  0.21219136340E+01  0.21219136340E+01  0.00000000000E+00 0.  1.
         13   -1    0    0    0    0 -0.00000000000E+00 -0.00000000000E+00 -0.10000000000E+04  0.10000000000E+04  0.00000000000E+00 0.  1.
    9000005    2    1    2  501    0  0.57952199332E+01  0.42734619914E+02 -0.67382951162E+03  0.67521625277E+03  0.33083160054E+01 0.  0.
         13    1    3    3    0    0  0.61594163654E+01  0.38104281185E+02 -0.60560037066E+03  0.60682920463E+03  0.00000000000E+00 0.  1.
          3    1    3    3  501    0 -0.36419643223E+00  0.46303387286E+01 -0.68229140963E+02  0.68387048133E+02  0.00000000000E+00 0.  1.
         21    1    1    2  502  501 -0.57952199332E+01 -0.42734619914E+02 -0.32404857474E+03  0.32690566087E+03  0.00000000000E+00 0.  1.
<mgrwt>
<rscale>  1 0.30000000E+03</rscale>
<asrwt>0</asrwt>
<pdfrwt beam="1">  1        3 0.77160658E-02 0.30000000E+03</pdfrwt>
<pdfrwt beam="2">0</pdfrwt>
<totfact> 0.50200566E+02</totfact>
</mgrwt>
</event>
<event>
 6    1  0.1956957E-002  0.3000000E+03  0.7818608E-02  0.1093470E+00
          3   -1    0    0  502    0  0.00000000000E+00  0.00000000000E+00  0.13815596528E+01  0.13815596528E+01  0.00000000000E+00 0.  1.
         13   -1    0    0    0    0 -0.00000000000E+00 -0.00000000000E+00 -0.10000000000E+04  0.10000000000E+04  0.00000000000E+00 0.  1.
    9000005    2    1    2  501    0  0.27299826061E+02  0.19783055862E+02 -0.69676241318E+03  0.69764859974E+03  0.99528132720E+01 0.  0.
         13    1    3    3    0    0  0.26475110721E+02  0.20657628192E+02 -0.68554304545E+03  0.68636501678E+03  0.00000000000E+00 0.  1.
          1    1    3    3  501    0  0.82471533964E+00 -0.87457233026E+00 -0.11219367736E+02  0.11283582966E+02  0.00000000000E+00 0.  1.
         21    1    1    2  502  501 -0.27299826061E+02 -0.19783055862E+02 -0.30185602716E+03  0.30373295991E+03  0.00000000000E+00 0.  1.
<mgrwt>
<rscale>  1 0.30000000E+03</rscale>
<asrwt>0</asrwt>
<pdfrwt beam="1">  1        3 0.50238639E-02 0.30000000E+03</pdfrwt>
<pdfrwt beam="2">0</pdfrwt>
<totfact> 0.98214855E+02</totfact>
</mgrwt>
</event>
<event>
 6    1  0.1956957E-002  0.3000000E+03  0.7818608E-02  0.1093470E+00
          1   -1    0    0  502    0  0.00000000000E+00  0.00000000000E+00  0.31373303519E+02  0.31373303519E+02  0.00000000000E+00 0.  1.
         13   -1    0    0    0    0 -0.00000000000E+00 -0.00000000000E+00 -0.10000000000E+04  0.10000000000E+04  0.00000000000E+00 0.  1.
    9000005    2    1    2  501    0 -0.17949511134E+02 -0.85330414468E+02 -0.93317267628E+03  0.93724332885E+03  0.32170064762E+01 0.  0.
         13    1    3    3    0    0 -0.14633243190E+02 -0.62917941435E+02 -0.69451099006E+03  0.69750864831E+03  0.00000000000E+00 0.  1.
          1    1    3    3  501    0 -0.33162679437E+01 -0.22412473033E+02 -0.23866168622E+03  0.23973468054E+03  0.00000000000E+00 0.  1.
         21    1    1    2  502  501  0.17949511134E+02  0.85330414468E+02 -0.35454020201E+02  0.94129974671E+02  0.00000000000E+00 0.  1.
<mgrwt>
<rscale>  1 0.30000000E+03</rscale>
<asrwt>0</asrwt>
<pdfrwt beam="1">  1        1 0.11408498E+00 0.30000000E+03</pdfrwt>
<pdfrwt beam="2">0</pdfrwt>
<totfact> 0.28108031E+01</totfact>
</mgrwt>
</event>
<event>
 6    1  0.1956957E-002  0.3000000E+03  0.7818608E-02  0.1093470E+00
          1   -1    0    0  502    0  0.00000000000E+00  0.00000000000E+00  0.11238800559E+01  0.11238800559E+01  0.00000000000E+00 0.  1.
         13   -1    0    0    0    0 -0.00000000000E+00 -0.00000000000E+00 -0.10000000000E+04  0.10000000000E+04  0.00000000000E+00 0.  1.
    9000005    2    1    2  501    0  0.84320520456E+01 -0.32341008180E+02 -0.48930587139E+03  0.49045874660E+03  0.35363868546E+01 0.  0.
         13    1    3    3    0    0  0.50290890752E+01 -0.22256548212E+02 -0.31146507683E+03  0.31229975947E+03  0.00000000000E+00 0.  1.
          1    1    3    3  501    0  0.34029629703E+01 -0.10084459968E+02 -0.17784079455E+03  0.17815898713E+03  0.00000000000E+00 0.  1.
         21    1    1    2  502  501 -0.84320520456E+01  0.32341008180E+02 -0.50957024856E+03  0.51066513346E+03  0.00000000000E+00 0.  1.
<mgrwt>
<rscale>  1 0.30000000E+03</rscale>
<asrwt>0</asrwt>
<pdfrwt beam="1">  1        1 0.40868452E-02 0.30000000E+03</pdfrwt>
<pdfrwt beam="2">0</pdfrwt>
<totfact> 0.26418379E+03</totfact>
</mgrwt>
</event>
<event>
 6    1  0.1956957E-002  0.3000000E+03  0.7818608E-02  0.1093470E+00
          1   -1    0    0  502    0  0.00000000000E+00  0.00000000000E+00  0.27114704126E+01  0.27114704126E+01  0.00000000000E+00 0.  1.
         13   -1    0    0    0    0 -0.00000000000E+00 -0.00000000000E+00 -0.10000000000E+04  0.10000000000E+04  0.00000000000E+00 0.  1.
    9000005    2    1    2  501    0  0.29129860948E+02 -0.75443031398E+01 -0.90770525647E+03  0.90820946974E+03  0.31848066306E+01 0.  0.
         13    1    3    3    0    0  0.19284907890E+02 -0.55749436969E+01 -0.64545542535E+03  0.64576752302E+03  0.00000000000E+00 0.  1.
          3    1    3    3  501    0  0.98449530585E+01 -0.19693594429E+01 -0.26224983112E+03  0.26244194672E+03  0.00000000000E+00 0.  1.
         21    1    1    2  502  501 -0.29129860948E+02  0.75443031398E+01 -0.89583273117E+02  0.94502000673E+02  0.00000000000E+00 0.  1.
<mgrwt>
<rscale>  1 0.30000000E+03</rscale>
<asrwt>0</asrwt>
<pdfrwt beam="1">  1        1 0.98599132E-02 0.30000000E+03</pdfrwt>
<pdfrwt beam="2">0</pdfrwt>
<totfact> 0.77060413E+02</totfact>
</mgrwt>
</event>
<event>
 6    1  0.1956957E-002  0.3000000E+03  0.7818608E-02  0.1093470E+00
          1   -1    0    0  502    0  0.00000000000E+00  0.00000000000E+00  0.77203642892E+01  0.77203642892E+01  0.00000000000E+00 0.  1.
         13   -1    0    0    0    0 -0.00000000000E+00 -0.00000000000E+00 -0.10000000000E+04  0.10000000000E+04  0.00000000000E+00 0.  1.
    9000005    2    1    2  501    0 -0.40129820875E+02 -0.78131351273E+02 -0.49520190448E+03  0.50294201545E+03  0.32915232105E+01 0.  0.
         13    1    3    3    0    0 -0.66642075117E+01 -0.15490537571E+02 -0.91641409910E+02  0.93180021605E+02  0.00000000000E+00 0.  1.
          1    1    3    3  501    0 -0.33465613363E+02 -0.62640813702E+02 -0.40356049457E+03  0.40976199384E+03  0.00000000000E+00 0.  1.
         21    1    1    2  502  501  0.40129820875E+02  0.78131351273E+02 -0.49707773123E+03  0.50477834884E+03  0.00000000000E+00 0.  1.
<mgrwt>
<rscale>  1 0.30000000E+03</rscale>
<asrwt>0</asrwt>
<pdfrwt beam="1">  1        1 0.28074111E-01 0.30000000E+03</pdfrwt>
<pdfrwt beam="2">0</pdfrwt>
<totfact> 0.18789252E+02</totfact>
</mgrwt>
</event>
<event>
 6    1  0.1956957E-002  0.3000000E+03  0.7818608E-02  0.1093470E+00
          1   -1    0    0  502    0  0.00000000000E+00  0.00000000000E+00  0.59551085889E+01  0.59551085889E+01  0.00000000000E+00 0.  1.
         13   -1    0    0    0    0 -0.00000000000E+00 -0.00000000000E+00 -0.10000000000E+04  0.10000000000E+04  0.00000000000E+00 0.  1.
    9000005    2    1    2  501    0  0.52034276449E+02 -0.37606941260E+01 -0.86754457898E+03  0.86911930264E+03  0.36134399588E+01 0.  0.
         13    1    3    3    0    0  0.69456300200E+01  0.39599711273E+00 -0.13019859408E+03  0.13038432609E+03  0.00000000000E+00 0.  1.
          1    1    3    3  501    0  0.45088646429E+02 -0.41566912388E+01 -0.73734598491E+03  0.73873497655E+03  0.00000000000E+00 0.  1.
         21    1    1    2  502  501 -0.52034276449E+02  0.37606941260E+01 -0.12650031243E+03  0.13683580595E+03  0.00000000000E+00 0.  1.
<mgrwt>
<rscale>  1 0.30000000E+03</rscale>
<asrwt>0</asrwt>
<pdfrwt beam="1">  1        1 0.21654986E-01 0.30000000E+03</pdfrwt>
<pdfrwt beam="2">0</pdfrwt>
<totfact> 0.26480816E+02</totfact>
</mgrwt>
</event>
<event>
 6    1  0.1956957E-002  0.3000000E+03  0.7818608E-02  0.1093470E+00
          1   -1    0    0  502    0  0.00000000000E+00  0.00000000000E+00  0.32996316324E+01  0.32996316324E+01  0.00000000000E+00 0.  1.
         13   -1    0    0    0    0 -0.00000000000E+00 -0.00000000000E+00 -0.10000000000E+04  0.10000000000E+04  0.00000000000E+00 0.  1.
    9000005    2    1    2  501    0  0.33199190923E+02 -0.91515906714E+01 -0.89940020141E+03  0.90008499905E+03  0.68077399298E+01 0.  0.
         13    1    3    3    0    0  0.24786363265E+02 -0.39895002738E+01 -0.60953549641E+03  0.61005229390E+03  0.00000000000E+00 0.  1.
          3    1    3    3  501    0  0.84128276584E+01 -0.51620903976E+01 -0.28986470500E+03  0.29003270514E+03  0.00000000000E+00 0.  1.
         21    1    1    2  502  501 -0.33199190923E+02  0.91515906714E+01 -0.97300166955E+02  0.10321463258E+03  0.00000000000E+00 0.  1.
<mgrwt>
<rscale>  1 0.30000000E+03</rscale>
<asrwt>0</asrwt>
<pdfrwt beam="1">  1        1 0.11998686E-01 0.30000000E+03</pdfrwt>
<pdfrwt beam="2">0</pdfrwt>
<totfact> 0.58826085E+02</totfact>
</mgrwt>
</event>
<event>
 6    1  0.1956957E-002  0.3000000E+03  0.7818608E-02  0.1093470E+00
          1   -1    0    0  502    0  0.00000000000E+00  0.00000000000E+00  0.28174008724E+01  0.28174008724E+01  0.00000000000E+00 0.  1.
         13   -1    0    0    0    0 -0.00000000000E+00 -0.00000000000E+00 -0.10000000000E+04  0.10000000000E+04  0.00000000000E+00 0.  1.
    9000005    2    1    2  501    0 -0.32336369097E+02  0.19738430850E+02 -0.84932781654E+03  0.85018620107E+03  0.48569665625E+01 0.  0.
         13    1    3    3    0    0 -0.17232562842E+02  0.90151032252E+01 -0.38901724150E+03  0.38950307764E+03  0.00000000000E+00 0.  1.
          3    1    3    3  501    0 -0.15103806255E+02  0.10723327625E+02 -0.46031057504E+03  0.46068312343E+03  0.00000000000E+00 0.  1.
         21    1    1    2  502  501  0.32336369097E+02 -0.19738430850E+02 -0.14785478259E+03  0.15263119980E+03  0.00000000000E+00 0.  1.
<mgrwt>
<rscale>  1 0.30000000E+03</rscale>
<asrwt>0</asrwt>
<pdfrwt beam="1">  1        1 0.10245116E-01 0.30000000E+03</pdfrwt>
<pdfrwt beam="2">0</pdfrwt>
<totfact> 0.73090689E+02</totfact>
</mgrwt>
</event>
<event>
 6    1  0.1956957E-002  0.3000000E+03  0.7818608E-02  0.1093470E+00
          1   -1    0    0  502    0  0.00000000000E+00  0.00000000000E+00  0.21405028508E+02  0.21405028508E+02  0.00000000000E+00 0.  1.
         13   -1    0    0    0    0 -0.00000000000E+00 -0.00000000000E+00 -0.10000000000E+04  0.10000000000E+04  0.00000000000E+00 0.  1.
    9000005    2    1    2  501    0 -0.23017378795E+02 -0.36232570670E+02 -0.97751838311E+03  0.97846602588E+03  0.33129434515E+01 0.  0.
         13    1    3    3    0    0 -0.11548488147E+02 -0.16567764971E+02 -0.49169519070E+03  0.49210976313E+03  0.00000000000E+00 0.  1.
          3    1    3    3  501    0 -0.11468890648E+02 -0.19664805699E+02 -0.48582319241E+03  0.48635626275E+03  0.00000000000E+00 0.  1.
         21    1    1    2  502  501  0.23017378795E+02  0.36232570670E+02 -0.10765883868E+01  0.42939002625E+02  0.00000000000E+00 0.  1.
<mgrwt>
<rscale>  1 0.30000000E+03</rscale>
<asrwt>0</asrwt>
<pdfrwt beam="1">  1        1 0.77836631E-01 0.30000000E+03</pdfrwt>
<pdfrwt beam="2">0</pdfrwt>
<totfact> 0.48775834E+01</totfact>
</mgrwt>
</event>
<event>
 6    1  0.1956957E-002  0.3000000E+03  0.7818608E-02  0.1093470E+00
          1   -1    0    0  502    0  0.00000000000E+00  0.00000000000E+00  0.11228177295E+01  0.11228177295E+01  0.00000000000E+00 0.  1.
         13   -1    0    0    0    0 -0.00000000000E+00 -0.00000000000E+00 -0.10000000000E+04  0.10000000000E+04  0.00000000000E+00 0.  1.
    9000005    2    1    2  501    0 -0.17409716111E+02 -0.25651573102E+02 -0.68798388509E+03  0.68868763461E+03  0.27803788633E+01 0.  0.
         13    1    3    3    0    0 -0.32325537347E+00 -0.42199694178E-01 -0.96280393184E+01  0.96335567661E+01  0.00000000000E+00 0.  1.
          3    1    3    3  501    0 -0.17086460738E+02 -0.25609373408E+02 -0.67835584577E+03  0.67905407784E+03  0.00000000000E+00 0.  1.
         21    1    1    2  502  501  0.17409716111E+02  0.25651573102E+02 -0.31089329718E+03  0.31243518312E+03  0.00000000000E+00 0.  1.
<mgrwt>
<rscale>  1 0.30000000E+03</rscale>
<asrwt>0</asrwt>
<pdfrwt beam="1">  1        1 0.40829822E-02 0.30000000E+03</pdfrwt>
<pdfrwt beam="2">0</pdfrwt>
<totfact> 0.26453579E+03</totfact>
</mgrwt>
</event>
<event>
 6    1  0.1956957E-002  0.3000000E+03  0.7818608E-02  0.1093470E+00
          1   -1    0    0  502    0  0.00000000000E+00  0.00000000000E+00  0.21507665901E+01  0.21507665901E+01  0.00000000000E+00 0.  1.
         13   -1    0    0    0    0 -0.00000000000E+00 -0.00000000000E+00 -0.10000000000E+04  0.10000000000E+04  0.00000000000E+00 0.  1.
    9000005    2    1    2  501    0  0.27129633721E+02 -0.12860289864E+02 -0.88063185829E+03  0.88114945622E+03  0.32388702779E+01 0.  0.
         13    1    3    3    0    0  0.23214065098E+02 -0.99954736378E+01 -0.71510257105E+03  0.71554908248E+03  0.00000000000E+00 0.  1.
          1    1    3    3  501    0  0.39155686226E+01 -0.28648162266E+01 -0.16552928724E+03  0.16560037374E+03  0.00000000000E+00 0.  1.
         21    1    1    2  502  501 -0.27129633721E+02  0.12860289864E+02 -0.11721737512E+03  0.12100131037E+03  0.00000000000E+00 0.  1.
<mgrwt>
<rscale>  1 0.30000000E+03</rscale>
<asrwt>0</asrwt>
<pdfrwt beam="1">  1        1 0.78209859E-02 0.30000000E+03</pdfrwt>
<pdfrwt beam="2">0</pdfrwt>
<totfact> 0.10628229E+03</totfact>
</mgrwt>
</event>
<event>
 6    1  0.1956957E-002  0.3000000E+03  0.7818608E-02  0.1093470E+00
          3   -1    0    0  502    0  0.00000000000E+00  0.00000000000E+00  0.30841159360E+01  0.30841159360E+01  0.00000000000E+00 0.  1.
         13   -1    0    0    0    0 -0.00000000000E+00 -0.00000000000E+00 -0.10000000000E+04  0.10000000000E+04  0.00000000000E+00 0.  1.
    9000005    2    1    2  501    0 -0.45466961292E+02 -0.15654321825E+02 -0.74896695029E+03  0.75051536070E+03  0.30840981410E+01 0.  0.
         13    1    3    3    0    0 -0.50989545944E+01 -0.18644820113E+01 -0.70570702366E+02  0.70779231866E+02  0.00000000000E+00 0.  1.
          1    1    3    3  501    0 -0.40368006698E+02 -0.13789839814E+02 -0.67839624793E+03  0.67973612884E+03  0.00000000000E+00 0.  1.
         21    1    1    2  502  501  0.45466961292E+02  0.15654321825E+02 -0.24794893377E+03  0.25256875523E+03  0.00000000000E+00 0.  1.
<mgrwt>
<rscale>  1 0.30000000E+03</rscale>
<asrwt>0</asrwt>
<pdfrwt beam="1">  1        3 0.11214991E-01 0.30000000E+03</pdfrwt>
<pdfrwt beam="2">0</pdfrwt>
<totfact> 0.27295104E+02</totfact>
</mgrwt>
</event>
<event>
 6    1  0.1956957E-002  0.3000000E+03  0.7818608E-02  0.1093470E+00
          1   -1    0    0  502    0  0.00000000000E+00  0.00000000000E+00  0.10208752262E+01  0.10208752262E+01  0.00000000000E+00 0.  1.
         13   -1    0    0    0    0 -0.00000000000E+00 -0.00000000000E+00 -0.10000000000E+04  0.10000000000E+04  0.00000000000E+00 0.  1.
    9000005    2    1    2  501    0 -0.19240055185E+02  0.24123423602E+02 -0.62486841367E+03  0.62563981090E+03  0.35382615037E+01 0.  0.
         13    1    3    3    0    0 -0.16815243738E+02  0.19302718365E+02 -0.50017437727E+03  0.50082906769E+03  0.00000000000E+00 0.  1.
          3    1    3    3  501    0 -0.24248114460E+01  0.48207052377E+01 -0.12469403640E+03  0.12481074322E+03  0.00000000000E+00 0.  1.
         21    1    1    2  502  501  0.19240055185E+02 -0.24123423602E+02 -0.37411071110E+03  0.37538106432E+03  0.00000000000E+00 0.  1.
<mgrwt>
<rscale>  1 0.30000000E+03</rscale>
<asrwt>0</asrwt>
<pdfrwt beam="1">  1        1 0.37122814E-02 0.30000000E+03</pdfrwt>
<pdfrwt beam="2">0</pdfrwt>
<totfact> 0.30246546E+03</totfact>
</mgrwt>
</event>
<event>
 6    1  0.1956957E-002  0.3000000E+03  0.7818608E-02  0.1093470E+00
          1   -1    0    0  502    0  0.00000000000E+00  0.00000000000E+00  0.40974747449E+01  0.40974747449E+01  0.00000000000E+00 0.  1.
         13   -1    0    0    0    0 -0.00000000000E+00 -0.00000000000E+00 -0.10000000000E+04  0.10000000000E+04  0.00000000000E+00 0.  1.
    9000005    2    1    2  501    0  0.46013698456E+02  0.34495357127E+02 -0.71804815427E+03  0.72035420772E+03  0.31372940431E+01 0.  0.
         13    1    3    3    0    0  0.38695751017E+02  0.27992274368E+02 -0.60619857668E+03  0.60807700412E+03  0.00000000000E+00 0.  1.
          3    1    3    3  501    0  0.73179474396E+01  0.65030827591E+01 -0.11184957760E+03  0.11227720360E+03  0.00000000000E+00 0.  1.
         21    1    1    2  502  501 -0.46013698456E+02 -0.34495357127E+02 -0.27785437098E+03  0.28374326702E+03  0.00000000000E+00 0.  1.
<mgrwt>
<rscale>  1 0.30000000E+03</rscale>
<asrwt>0</asrwt>
<pdfrwt beam="1">  1        1 0.14899940E-01 0.30000000E+03</pdfrwt>
<pdfrwt beam="2">0</pdfrwt>
<totfact> 0.43776490E+02</totfact>
</mgrwt>
</event>
<event>
 6    1  0.1956957E-002  0.3000000E+03  0.7818608E-02  0.1093470E+00
          3   -1    0    0  502    0  0.00000000000E+00  0.00000000000E+00  0.13120282979E+01  0.13120282979E+01  0.00000000000E+00 0.  1.
         13   -1    0    0    0    0 -0.00000000000E+00 -0.00000000000E+00 -0.10000000000E+04  0.10000000000E+04  0.00000000000E+00 0.  1.
    9000005    2    1    2  501    0  0.23264561447E+02  0.21993200732E+02 -0.72405324584E+03  0.72481759192E+03  0.90828437132E+01 0.  0.
         13    1    3    3    0    0 -0.56031136285E+00  0.57810540066E+00 -0.47009585958E+02  0.47016479309E+02  0.00000000000E+00 0.  1.
          1    1    3    3  501    0  0.23824872810E+02  0.21415095331E+02 -0.67704365988E+03  0.67780111261E+03  0.00000000000E+00 0.  1.
         21    1    1    2  502  501 -0.23264561447E+02 -0.21993200732E+02 -0.27463472586E+03  0.27649443638E+03  0.00000000000E+00 0.  1.
<mgrwt>
<rscale>  1 0.30000000E+03</rscale>
<asrwt>0</asrwt>
<pdfrwt beam="1">  1        3 0.47710221E-02 0.30000000E+03</pdfrwt>
<pdfrwt beam="2">0</pdfrwt>
<totfact> 0.10636246E+03</totfact>
</mgrwt>
</event>
<event>
 6    1  0.1956957E-002  0.3000000E+03  0.7818608E-02  0.1093470E+00
          1   -1    0    0  502    0  0.00000000000E+00  0.00000000000E+00  0.32027356404E+01  0.32027356404E+01  0.00000000000E+00 0.  1.
         13   -1    0    0    0    0 -0.00000000000E+00 -0.00000000000E+00 -0.10000000000E+04  0.10000000000E+04  0.00000000000E+00 0.  1.
    9000005    2    1    2  501    0 -0.31509116959E+02  0.20935883955E+01 -0.91457077527E+03  0.91512093802E+03  0.30693096326E+01 0.  0.
         13    1    3    3    0    0 -0.28111476030E+02  0.12908510560E+01 -0.83378891437E+03  0.83426367241E+03  0.00000000000E+00 0.  1.
          3    1    3    3  501    0 -0.33976409298E+01  0.80273733952E+00 -0.80781860906E+02  0.80857265614E+02  0.00000000000E+00 0.  1.
         21    1    1    2  502  501  0.31509116959E+02 -0.20935883955E+01 -0.82226489087E+02  0.88081797617E+02  0.00000000000E+00 0.  1.
<mgrwt>
<rscale>  1 0.30000000E+03</rscale>
<asrwt>0</asrwt>
<pdfrwt beam="1">  1        1 0.11646336E-01 0.30000000E+03</pdfrwt>
<pdfrwt beam="2">0</pdfrwt>
<totfact> 0.61280168E+02</totfact>
</mgrwt>
</event>
<event>
 6    1  0.1956957E-002  0.3000000E+03  0.7818608E-02  0.1093470E+00
          3   -1    0    0  502    0  0.00000000000E+00  0.00000000000E+00  0.10033122078E+01  0.10033122078E+01  0.00000000000E+00 0.  1.
         13   -1    0    0    0    0 -0.00000000000E+00 -0.00000000000E+00 -0.10000000000E+04  0.10000000000E+04  0.00000000000E+00 0.  1.
    9000005    2    1    2  501    0  0.30309858231E+02  0.25579072007E+01 -0.63564561175E+03  0.63638126837E+03  0.32472439565E+01 0.  0.
         13    1    3    3    0    0  0.19405076399E+02  0.56403882862E+00 -0.38040901579E+03  0.38090404884E+03  0.00000000000E+00 0.  1.
          3    1    3    3  501    0  0.10904781832E+02  0.19938683721E+01 -0.25523659596E+03  0.25547721952E+03  0.00000000000E+00 0.  1.
         21    1    1    2  502  501 -0.30309858231E+02 -0.25579072007E+01 -0.36335107604E+03  0.36462204384E+03  0.00000000000E+00 0.  1.
<mgrwt>
<rscale>  1 0.30000000E+03</rscale>
<asrwt>0</asrwt>
<pdfrwt beam="1">  1        3 0.36484157E-02 0.30000000E+03</pdfrwt>
<pdfrwt beam="2">0</pdfrwt>
<totfact> 0.16073552E+03</totfact>
</mgrwt>
</event>
<event>
 6    1  0.1956957E-002  0.3000000E+03  0.7818608E-02  0.1093470E+00
          3   -1    0    0  502    0  0.00000000000E+00  0.00000000000E+00  0.79863983005E+01  0.79863983005E+01  0.00000000000E+00 0.  1.
         13   -1    0    0    0    0 -0.00000000000E+00 -0.00000000000E+00 -0.10000000000E+04  0.10000000000E+04  0.00000000000E+00 0.  1.
    9000005    2    1    2  501    0 -0.44684873909E+02 -0.70913310919E+01 -0.93061237045E+03  0.93171624600E+03  0.29587319594E+01 0.  0.
         13    1    3    3    0    0 -0.19405736693E+02 -0.18882430815E+01 -0.38265023612E+03  0.38314664461E+03  0.00000000000E+00 0.  1.
          3    1    3    3  501    0 -0.25279137217E+02 -0.52030880104E+01 -0.54796213433E+03  0.54856960138E+03  0.00000000000E+00 0.  1.
         21    1    1    2  502  501  0.44684873909E+02  0.70913310919E+01 -0.61401231254E+02  0.76270152304E+02  0.00000000000E+00 0.  1.
<mgrwt>
<rscale>  1 0.30000000E+03</rscale>
<asrwt>0</asrwt>
<pdfrwt beam="1">  1        3 0.29041510E-01 0.30000000E+03</pdfrwt>
<pdfrwt beam="2">0</pdfrwt>
<totfact> 0.49738290E+01</totfact>
</mgrwt>
</event>
<event>
 6    1  0.1956957E-002  0.3000000E+03  0.7818608E-02  0.1093470E+00
          3   -1    0    0  502    0  0.00000000000E+00  0.00000000000E+00  0.35312128215E+01  0.35312128215E+01  0.00000000000E+00 0.  1.
         13   -1    0    0    0    0 -0.00000000000E+00 -0.00000000000E+00 -0.10000000000E+04  0.10000000000E+04  0.00000000000E+00 0.  1.
    9000005    2    1    2  501    0 -0.40498126696E+02 -0.88888015436E+01 -0.85752606162E+03  0.85853400580E+03  0.32532594322E+01 0.  0.
         13    1    3    3    0    0 -0.38334927545E+01 -0.93038252371E+00 -0.63955581337E+02  0.64077122770E+02  0.00000000000E+00 0.  1.
          3    1    3    3  501    0 -0.36664633941E+02 -0.79584190199E+01 -0.79357048028E+03  0.79445688303E+03  0.00000000000E+00 0.  1.
         21    1    1    2  502  501  0.40498126696E+02  0.88888015436E+01 -0.13894272556E+03  0.14499720703E+03  0.00000000000E+00 0.  1.
<mgrwt>
<rscale>  1 0.30000000E+03</rscale>
<asrwt>0</asrwt>
<pdfrwt beam="1">  1        3 0.12840801E-01 0.30000000E+03</pdfrwt>
<pdfrwt beam="2">0</pdfrwt>
<totfact> 0.21724902E+02</totfact>
</mgrwt>
</event>
<event>
 6    1  0.1956957E-002  0.3000000E+03  0.7818608E-02  0.1093470E+00
          1   -1    0    0  502    0  0.00000000000E+00  0.00000000000E+00  0.41027421654E+02  0.41027421654E+02  0.00000000000E+00 0.  1.
         13   -1    0    0    0    0 -0.00000000000E+00 -0.00000000000E+00 -0.10000000000E+04  0.10000000000E+04  0.00000000000E+00 0.  1.
    9000005    2    1    2  501    0 -0.86111833546E+01  0.74429417148E+02 -0.96307380276E+03  0.96598936026E+03  0.32255174234E+01 0.  0.
         13    1    3    3    0    0 -0.35441517459E+01  0.41759467813E+02 -0.55075564700E+03  0.55234789478E+03  0.00000000000E+00 0.  1.
          1    1    3    3  501    0 -0.50670316087E+01  0.32669949336E+02 -0.41231815576E+03  0.41364146548E+03  0.00000000000E+00 0.  1.
         21    1    1    2  502  501  0.86111833546E+01 -0.74429417148E+02  0.41012244128E+01  0.75038061392E+02  0.00000000000E+00 0.  1.
<mgrwt>
<rscale>  1 0.30000000E+03</rscale>
<asrwt>0</asrwt>
<pdfrwt beam="1">  1        1 0.14919094E+00 0.30000000E+03</pdfrwt>
<pdfrwt beam="2">0</pdfrwt>
<totfact> 0.18136135E+01</totfact>
</mgrwt>
</event>
<event>
 6    1  0.1956957E-002  0.3000000E+03  0.7818608E-02  0.1093470E+00
          3   -1    0    0  502    0  0.00000000000E+00  0.00000000000E+00  0.63627882895E+01  0.63627882895E+01  0.00000000000E+00 0.  1.
         13   -1    0    0    0    0 -0.00000000000E+00 -0.00000000000E+00 -0.10000000000E+04  0.10000000000E+04  0.00000000000E+00 0.  1.
    9000005    2    1    2  501    0 -0.69301926947E+02  0.29454658288E+02 -0.65995853183E+03  0.66429291914E+03  0.83357489554E+01 0.  0.
         13    1    3    3    0    0 -0.61599045169E+02  0.27400432123E+02 -0.56726975032E+03  0.57126193264E+03  0.00000000000E+00 0.  1.
          1    1    3    3  501    0 -0.77028817776E+01  0.20542261650E+01 -0.92688781501E+02  0.93030986499E+02  0.00000000000E+00 0.  1.
         21    1    1    2  502  501  0.69301926947E+02 -0.29454658288E+02 -0.33367867989E+03  0.34206986915E+03  0.00000000000E+00 0.  1.
<mgrwt>
<rscale>  1 0.30000000E+03</rscale>
<asrwt>0</asrwt>
<pdfrwt beam="1">  1        3 0.23137461E-01 0.30000000E+03</pdfrwt>
<pdfrwt beam="2">0</pdfrwt>
<totfact> 0.76350035E+01</totfact>
</mgrwt>
</event>
<event>
 6    1  0.1956957E-002  0.3000000E+03  0.7818608E-02  0.1093470E+00
          3   -1    0    0  502    0  0.00000000000E+00  0.00000000000E+00  0.91336137551E+01  0.91336137551E+01  0.00000000000E+00 0.  1.
         13   -1    0    0    0    0 -0.00000000000E+00 -0.00000000000E+00 -0.10000000000E+04  0.10000000000E+04  0.00000000000E+00 0.  1.
    9000005    2    1    2  501    0 -0.86938360739E+01  0.74745710637E+02 -0.80640122912E+03  0.80991037656E+03  0.30613221839E+01 0.  0.
         13    1    3    3    0    0 -0.72704460478E+01  0.67632544246E+02 -0.72104343589E+03  0.72424488736E+03  0.00000000000E+00 0.  1.
          3    1    3    3  501    0 -0.14233900261E+01  0.71131663914E+01 -0.85357793226E+02  0.85665489199E+02  0.00000000000E+00 0.  1.
         21    1    1    2  502  501  0.86938360739E+01 -0.74745710637E+02 -0.18446515712E+03  0.19922323719E+03  0.00000000000E+00 0.  1.
<mgrwt>
<rscale>  1 0.30000000E+03</rscale>
<asrwt>0</asrwt>
<pdfrwt beam="1">  1        3 0.33213211E-01 0.30000000E+03</pdfrwt>
<pdfrwt beam="2">0</pdfrwt>
<totfact> 0.38505812E+01</totfact>
</mgrwt>
</event>
<event>
 6    1  0.1956957E-002  0.3000000E+03  0.7818608E-02  0.1093470E+00
          3   -1    0    0  502    0  0.00000000000E+00  0.00000000000E+00  0.11279276371E+01  0.11279276371E+01  0.00000000000E+00 0.  1.
         13   -1    0    0    0    0 -0.00000000000E+00 -0.00000000000E+00 -0.10000000000E+04  0.10000000000E+04  0.00000000000E+00 0.  1.
    9000005    2    1    2  501    0 -0.19681103122E+02  0.25085769138E+02 -0.34682305396E+03  0.34829980016E+03  0.31429914958E+01 0.  0.
         13    1    3    3    0    0 -0.83339822211E+01  0.89174701019E+01 -0.12063821481E+03  0.12125409438E+03  0.00000000000E+00 0.  1.
          3    1    3    3  501    0 -0.11347120901E+02  0.16168299036E+02 -0.22618483915E+03  0.22704570577E+03  0.00000000000E+00 0.  1.
         21    1    1    2  502  501  0.19681103122E+02 -0.25085769138E+02 -0.65204901840E+03  0.65282812748E+03  0.00000000000E+00 0.  1.
<mgrwt>
<rscale>  1 0.30000000E+03</rscale>
<asrwt>0</asrwt>
<pdfrwt beam="1">  1        3 0.41015637E-02 0.30000000E+03</pdfrwt>
<pdfrwt beam="2">0</pdfrwt>
<totfact> 0.13425497E+03</totfact>
</mgrwt>
</event>
<event>
 6    1  0.1956957E-002  0.3000000E+03  0.7818608E-02  0.1093470E+00
          3   -1    0    0  502    0  0.00000000000E+00  0.00000000000E+00  0.14282387817E+01  0.14282387817E+01  0.00000000000E+00 0.  1.
         13   -1    0    0    0    0 -0.00000000000E+00 -0.00000000000E+00 -0.10000000000E+04  0.10000000000E+04  0.00000000000E+00 0.  1.
    9000005    2    1    2  501    0 -0.36900227578E+02  0.38335672637E+01 -0.40962439261E+03  0.41131356685E+03  0.32224562222E+01 0.  0.
         13    1    3    3    0    0 -0.27790456947E+02  0.16203317246E+01 -0.29960223940E+03  0.30089273309E+03  0.00000000000E+00 0.  1.
          3    1    3    3  501    0 -0.91097706311E+01  0.22132355391E+01 -0.11002215321E+03  0.11042083376E+03  0.00000000000E+00 0.  1.
         21    1    1    2  502  501  0.36900227578E+02 -0.38335672637E+01 -0.58894736861E+03  0.59011467193E+03  0.00000000000E+00 0.  1.
<mgrwt>
<rscale>  1 0.30000000E+03</rscale>
<asrwt>0</asrwt>
<pdfrwt beam="1">  1        3 0.51936065E-02 0.30000000E+03</pdfrwt>
<pdfrwt beam="2">0</pdfrwt>
<totfact> 0.93301064E+02</totfact>
</mgrwt>
</event>
<event>
 6    1  0.1956957E-002  0.3000000E+03  0.7818608E-02  0.1093470E+00
          1   -1    0    0  502    0  0.00000000000E+00  0.00000000000E+00  0.48054054013E+01  0.48054054013E+01  0.00000000000E+00 0.  1.
         13   -1    0    0    0    0 -0.00000000000E+00 -0.00000000000E+00 -0.10000000000E+04  0.10000000000E+04  0.00000000000E+00 0.  1.
    9000005    2    1    2  501    0  0.54832248986E+02  0.16073918857E+02 -0.78185097475E+03  0.78394244670E+03  0.31411182239E+01 0.  0.
         13    1    3    3    0    0  0.33983389384E+02  0.11176626462E+02 -0.50231859747E+03  0.50359086677E+03  0.00000000000E+00 0.  1.
          3    1    3    3  501    0  0.20848859602E+02  0.48972923947E+01 -0.27953237728E+03  0.28035157993E+03  0.00000000000E+00 0.  1.
         21    1    1    2  502  501 -0.54832248986E+02 -0.16073918857E+02 -0.21334361985E+03  0.22086295870E+03  0.00000000000E+00 0.  1.
<mgrwt>
<rscale>  1 0.30000000E+03</rscale>
<asrwt>0</asrwt>
<pdfrwt beam="1">  1        1 0.17474238E-01 0.30000000E+03</pdfrwt>
<pdfrwt beam="2">0</pdfrwt>
<totfact> 0.35288167E+02</totfact>
</mgrwt>
</event>
<event>
 6    1  0.1956957E-002  0.3000000E+03  0.7818608E-02  0.1093470E+00
          1   -1    0    0  502    0  0.00000000000E+00  0.00000000000E+00  0.17279809197E+01  0.17279809197E+01  0.00000000000E+00 0.  1.
         13   -1    0    0    0    0 -0.00000000000E+00 -0.00000000000E+00 -0.10000000000E+04  0.10000000000E+04  0.00000000000E+00 0.  1.
    9000005    2    1    2  501    0  0.97158793944E+01 -0.39026923583E+02 -0.37634981292E+03  0.37850672840E+03  0.32653763363E+01 0.  0.
         13    1    3    3    0    0  0.97941134075E+01 -0.38858131693E+02 -0.37568981964E+03  0.37782101535E+03  0.00000000000E+00 0.  1.
          3    1    3    3  501    0 -0.78234013144E-01 -0.16879188966E+00 -0.65999327961E+00  0.68571305366E+00  0.00000000000E+00 0.  1.
         21    1    1    2  502  501 -0.97158793944E+01  0.39026923583E+02 -0.62192220616E+03  0.62322125252E+03  0.00000000000E+00 0.  1.
<mgrwt>
<rscale>  1 0.30000000E+03</rscale>
<asrwt>0</asrwt>
<pdfrwt beam="1">  1        1 0.62835802E-02 0.30000000E+03</pdfrwt>
<pdfrwt beam="2">0</pdfrwt>
<totfact> 0.14432910E+03</totfact>
</mgrwt>
</event>
<event>
 6    1  0.1956957E-002  0.3000000E+03  0.7818608E-02  0.1093470E+00
          1   -1    0    0  502    0  0.00000000000E+00  0.00000000000E+00  0.31711448521E+01  0.31711448521E+01  0.00000000000E+00 0.  1.
         13   -1    0    0    0    0 -0.00000000000E+00 -0.00000000000E+00 -0.10000000000E+04  0.10000000000E+04  0.00000000000E+00 0.  1.
    9000005    2    1    2  501    0 -0.41729022309E+02 -0.17231806320E+02 -0.79795187491E+03  0.79923414546E+03  0.31270029188E+01 0.  0.
         13    1    3    3    0    0 -0.11940092870E+02 -0.48196538775E+01 -0.20350894025E+03  0.20391587394E+03  0.00000000000E+00 0.  1.
          1    1    3    3  501    0 -0.29788929439E+02 -0.12412152442E+02 -0.59444293466E+03  0.59531827153E+03  0.00000000000E+00 0.  1.
         21    1    1    2  502  501  0.41729022309E+02  0.17231806320E+02 -0.19887698024E+03  0.20393699939E+03  0.00000000000E+00 0.  1.
<mgrwt>
<rscale>  1 0.30000000E+03</rscale>
<asrwt>0</asrwt>
<pdfrwt beam="1">  1        1 0.11531460E-01 0.30000000E+03</pdfrwt>
<pdfrwt beam="2">0</pdfrwt>
<totfact> 0.62119250E+02</totfact>
</mgrwt>
</event>
<event>
 6    1  0.1956957E-002  0.3000000E+03  0.7818608E-02  0.1093470E+00
          1   -1    0    0  502    0  0.00000000000E+00  0.00000000000E+00  0.24683468795E+02  0.24683468795E+02  0.00000000000E+00 0.  1.
         13   -1    0    0    0    0 -0.00000000000E+00 -0.00000000000E+00 -0.10000000000E+04  0.10000000000E+04  0.00000000000E+00 0.  1.
    9000005    2    1    2  501    0  0.54189119268E+02  0.62157949243E+02 -0.92374147746E+03  0.92742064203E+03  0.32647792475E+01 0.  0.
         13    1    3    3    0    0  0.40627260066E+02  0.46510692142E+02 -0.67552911147E+03  0.67834607626E+03  0.00000000000E+00 0.  1.
          3    1    3    3  501    0  0.13561859202E+02  0.15647257101E+02 -0.24821236600E+03  0.24907456577E+03  0.00000000000E+00 0.  1.
         21    1    1    2  502  501 -0.54189119268E+02 -0.62157949243E+02 -0.51575053741E+02  0.97262826761E+02  0.00000000000E+00 0.  1.
<mgrwt>
<rscale>  1 0.30000000E+03</rscale>
<asrwt>0</asrwt>
<pdfrwt beam="1">  1        1 0.89758258E-01 0.30000000E+03</pdfrwt>
<pdfrwt beam="2">0</pdfrwt>
<totfact> 0.39983986E+01</totfact>
</mgrwt>
</event>
<event>
 6    1  0.1956957E-002  0.3000000E+03  0.7818608E-02  0.1093470E+00
          3   -1    0    0  502    0  0.00000000000E+00  0.00000000000E+00  0.55487522173E+01  0.55487522173E+01  0.00000000000E+00 0.  1.
         13   -1    0    0    0    0 -0.00000000000E+00 -0.00000000000E+00 -0.10000000000E+04  0.10000000000E+04  0.00000000000E+00 0.  1.
    9000005    2    1    2  501    0  0.59325579786E+02 -0.44936095947E+02 -0.51100151237E+03  0.51640416847E+03  0.34557829516E+01 0.  0.
         13    1    3    3    0    0  0.26167098319E+02 -0.17709426889E+02 -0.21874995141E+03  0.22102009428E+03  0.00000000000E+00 0.  1.
          1    1    3    3  501    0  0.33158481467E+02 -0.27226669059E+02 -0.29225156096E+03  0.29538407419E+03  0.00000000000E+00 0.  1.
         21    1    1    2  502  501 -0.59325579786E+02  0.44936095947E+02 -0.48344973542E+03  0.48914458375E+03  0.00000000000E+00 0.  1.
<mgrwt>
<rscale>  1 0.30000000E+03</rscale>
<asrwt>0</asrwt>
<pdfrwt beam="1">  1        3 0.20177323E-01 0.30000000E+03</pdfrwt>
<pdfrwt beam="2">0</pdfrwt>
<totfact> 0.98359152E+01</totfact>
</mgrwt>
</event>
<event>
 6    1  0.1956957E-002  0.3000000E+03  0.7818608E-02  0.1093470E+00
          1   -1    0    0  502    0  0.00000000000E+00  0.00000000000E+00  0.29623029909E+01  0.29623029909E+01  0.00000000000E+00 0.  1.
         13   -1    0    0    0    0 -0.00000000000E+00 -0.00000000000E+00 -0.10000000000E+04  0.10000000000E+04  0.00000000000E+00 0.  1.
    9000005    2    1    2  501    0 -0.14487184534E+02  0.29147529192E+02 -0.90033233272E+03  0.90092611110E+03  0.31766874967E+01 0.  0.
         13    1    3    3    0    0 -0.13445644240E+02  0.26663918873E+02 -0.84632163675E+03  0.84684831153E+03  0.00000000000E+00 0.  1.
          1    1    3    3  501    0 -0.10415402937E+01  0.24836103195E+01 -0.54010695971E+02  0.54077799564E+02  0.00000000000E+00 0.  1.
         21    1    1    2  502  501  0.14487184534E+02 -0.29147529192E+02 -0.96705364292E+02  0.10203619190E+03  0.00000000000E+00 0.  1.
<mgrwt>
<rscale>  1 0.30000000E+03</rscale>
<asrwt>0</asrwt>
<pdfrwt beam="1">  1        1 0.10772034E-01 0.30000000E+03</pdfrwt>
<pdfrwt beam="2">0</pdfrwt>
<totfact> 0.68213361E+02</totfact>
</mgrwt>
</event>
<event>
 6    1  0.1956957E-002  0.3000000E+03  0.7818608E-02  0.1093470E+00
          1   -1    0    0  502    0  0.00000000000E+00  0.00000000000E+00  0.10969833759E+01  0.10969833759E+01  0.00000000000E+00 0.  1.
         13   -1    0    0    0    0 -0.00000000000E+00 -0.00000000000E+00 -0.10000000000E+04  0.10000000000E+04  0.00000000000E+00 0.  1.
    9000005    2    1    2  501    0 -0.74786369445E+01  0.29501382619E+02 -0.31105150293E+03  0.31257249835E+03  0.47188625369E+01 0.  0.
         13    1    3    3    0    0 -0.40876231104E+01  0.20025414857E+02 -0.18707689940E+03  0.18819004275E+03  0.00000000000E+00 0.  1.
          1    1    3    3  501    0 -0.33910138341E+01  0.94759677621E+01 -0.12397460353E+03  0.12438245560E+03  0.00000000000E+00 0.  1.
         21    1    1    2  502  501  0.74786369445E+01 -0.29501382619E+02 -0.68785151369E+03  0.68852448502E+03  0.00000000000E+00 0.  1.
<mgrwt>
<rscale>  1 0.30000000E+03</rscale>
<asrwt>0</asrwt>
<pdfrwt beam="1">  1        1 0.39890389E-02 0.30000000E+03</pdfrwt>
<pdfrwt beam="2">0</pdfrwt>
<totfact> 0.27334930E+03</totfact>
</mgrwt>
</event>
<event>
 6    1  0.1956957E-002  0.3000000E+03  0.7818608E-02  0.1093470E+00
          1   -1    0    0  502    0  0.00000000000E+00  0.00000000000E+00  0.13575808382E+01  0.13575808382E+01  0.00000000000E+00 0.  1.
         13   -1    0    0    0    0 -0.00000000000E+00 -0.00000000000E+00 -0.10000000000E+04  0.10000000000E+04  0.00000000000E+00 0.  1.
    9000005    2    1    2  501    0 -0.99227294879E+01 -0.31451680725E+02 -0.72148537203E+03  0.72224524225E+03  0.30625331601E+01 0.  0.
         13    1    3    3    0    0 -0.44500118535E+00 -0.34555340230E+01 -0.61924834775E+02  0.62022769234E+02  0.00000000000E+00 0.  1.
          1    1    3    3  501    0 -0.94777283026E+01 -0.27996146702E+02 -0.65956053726E+03  0.66022247301E+03  0.00000000000E+00 0.  1.
         21    1    1    2  502  501  0.99227294879E+01  0.31451680725E+02 -0.27715704713E+03  0.27911233859E+03  0.00000000000E+00 0.  1.
<mgrwt>
<rscale>  1 0.30000000E+03</rscale>
<asrwt>0</asrwt>
<pdfrwt beam="1">  1        1 0.49366680E-02 0.30000000E+03</pdfrwt>
<pdfrwt beam="2">0</pdfrwt>
<totfact> 0.20251242E+03</totfact>
</mgrwt>
</event>
<event>
 6    1  0.1956957E-002  0.3000000E+03  0.7818608E-02  0.1093470E+00
          1   -1    0    0  502    0  0.00000000000E+00  0.00000000000E+00  0.21160133853E+01  0.21160133853E+01  0.00000000000E+00 0.  1.
         13   -1    0    0    0    0 -0.00000000000E+00 -0.00000000000E+00 -0.10000000000E+04  0.10000000000E+04  0.00000000000E+00 0.  1.
    9000005    2    1    2  501    0 -0.24883428877E+02  0.22334720867E+02 -0.84274639154E+03  0.84341598757E+03  0.33200666462E+01 0.  0.
         13    1    3    3    0    0 -0.42659102582E-01 -0.55018879026E-02 -0.11869112303E+00  0.12624441568E+00  0.00000000000E+00 0.  1.
          3    1    3    3  501    0 -0.24840769775E+02  0.22340222755E+02 -0.84262770042E+03  0.84328974315E+03  0.00000000000E+00 0.  1.
         21    1    1    2  502  501  0.24883428877E+02 -0.22334720867E+02 -0.15513759507E+03  0.15870002582E+03  0.00000000000E+00 0.  1.
<mgrwt>
<rscale>  1 0.30000000E+03</rscale>
<asrwt>0</asrwt>
<pdfrwt beam="1">  1        1 0.76946104E-02 0.30000000E+03</pdfrwt>
<pdfrwt beam="2">0</pdfrwt>
<totfact> 0.10872339E+03</totfact>
</mgrwt>
</event>
<event>
 6    1  0.1956957E-002  0.3000000E+03  0.7818608E-02  0.1093470E+00
          1   -1    0    0  502    0  0.00000000000E+00  0.00000000000E+00  0.13534217827E+01  0.13534217827E+01  0.00000000000E+00 0.  1.
         13   -1    0    0    0    0 -0.00000000000E+00 -0.00000000000E+00 -0.10000000000E+04  0.10000000000E+04  0.00000000000E+00 0.  1.
    9000005    2    1    2  501    0  0.21061710629E+02  0.22473794608E+02 -0.77240531561E+03  0.77302520188E+03  0.30535318880E+01 0.  0.
         13    1    3    3    0    0  0.15258601705E+02  0.15731099261E+02 -0.51463338735E+03  0.51509981148E+03  0.00000000000E+00 0.  1.
          3    1    3    3  501    0  0.58031089248E+01  0.67426953471E+01 -0.25777192826E+03  0.25792539040E+03  0.00000000000E+00 0.  1.
         21    1    1    2  502  501 -0.21061710629E+02 -0.22473794608E+02 -0.22624126260E+03  0.22832821990E+03  0.00000000000E+00 0.  1.
<mgrwt>
<rscale>  1 0.30000000E+03</rscale>
<asrwt>0</asrwt>
<pdfrwt beam="1">  1        1 0.49215441E-02 0.30000000E+03</pdfrwt>
<pdfrwt beam="2">0</pdfrwt>
<totfact> 0.20338781E+03</totfact>
</mgrwt>
</event>
<event>
 6    1  0.1956957E-002  0.3000000E+03  0.7818608E-02  0.1093470E+00
          1   -1    0    0  502    0  0.00000000000E+00  0.00000000000E+00  0.14760317800E+01  0.14760317800E+01  0.00000000000E+00 0.  1.
         13   -1    0    0    0    0 -0.00000000000E+00 -0.00000000000E+00 -0.10000000000E+04  0.10000000000E+04  0.00000000000E+00 0.  1.
    9000005    2    1    2  501    0 -0.35620421758E+02  0.98680539982E+01 -0.36911065377E+03  0.37097836061E+03  0.40095365310E+01 0.  0.
         13    1    3    3    0    0 -0.17206155254E+02  0.27292280657E+01 -0.16916349160E+03  0.17005818814E+03  0.00000000000E+00 0.  1.
          3    1    3    3  501    0 -0.18414266504E+02  0.71388259324E+01 -0.19994716217E+03  0.20092017247E+03  0.00000000000E+00 0.  1.
         21    1    1    2  502  501  0.35620421758E+02 -0.98680539982E+01 -0.62941331445E+03  0.63049767117E+03  0.00000000000E+00 0.  1.
<mgrwt>
<rscale>  1 0.30000000E+03</rscale>
<asrwt>0</asrwt>
<pdfrwt beam="1">  1        1 0.53673996E-02 0.30000000E+03</pdfrwt>
<pdfrwt beam="2">0</pdfrwt>
<totfact> 0.18005431E+03</totfact>
</mgrwt>
</event>
<event>
 6    1  0.1956957E-002  0.3000000E+03  0.7818608E-02  0.1093470E+00
          1   -1    0    0  502    0  0.00000000000E+00  0.00000000000E+00  0.16956560609E+01  0.16956560609E+01  0.00000000000E+00 0.  1.
         13   -1    0    0    0    0 -0.00000000000E+00 -0.00000000000E+00 -0.10000000000E+04  0.10000000000E+04  0.00000000000E+00 0.  1.
    9000005    2    1    2  501    0  0.18423713034E+02 -0.33004457342E+02 -0.30435004738E+03  0.30671271158E+03  0.38741061159E+01 0.  0.
         13    1    3    3    0    0  0.23896752658E+01 -0.21099219572E+01 -0.26213071341E+02  0.26406200554E+02  0.00000000000E+00 0.  1.
          3    1    3    3  501    0  0.16034037768E+02 -0.30894535384E+02 -0.27813697604E+03  0.28030651103E+03  0.00000000000E+00 0.  1.
         21    1    1    2  502  501 -0.18423713034E+02  0.33004457342E+02 -0.69395429656E+03  0.69498294448E+03  0.00000000000E+00 0.  1.
<mgrwt>
<rscale>  1 0.30000000E+03</rscale>
<asrwt>0</asrwt>
<pdfrwt beam="1">  1        1 0.61660350E-02 0.30000000E+03</pdfrwt>
<pdfrwt beam="2">0</pdfrwt>
<totfact> 0.14820093E+03</totfact>
</mgrwt>
</event>
<event>
 6    1  0.1956957E-002  0.3000000E+03  0.7818608E-02  0.1093470E+00
          1   -1    0    0  502    0  0.00000000000E+00  0.00000000000E+00  0.35814343848E+01  0.35814343848E+01  0.00000000000E+00 0.  1.
         13   -1    0    0    0    0 -0.00000000000E+00 -0.00000000000E+00 -0.10000000000E+04  0.10000000000E+04  0.00000000000E+00 0.  1.
    9000005    2    1    2  501    0  0.36664954353E+02 -0.31853366366E+02 -0.79110642667E+03  0.79260269085E+03  0.32697695201E+01 0.  0.
         13    1    3    3    0    0  0.10206035674E+02 -0.89231735747E+01 -0.19771943522E+03  0.19818365537E+03  0.00000000000E+00 0.  1.
          1    1    3    3  501    0  0.26458918679E+02 -0.22930192791E+02 -0.59338699145E+03  0.59441903548E+03  0.00000000000E+00 0.  1.
         21    1    1    2  502  501 -0.36664954353E+02  0.31853366366E+02 -0.20531213895E+03  0.21097874354E+03  0.00000000000E+00 0.  1.
<mgrwt>
<rscale>  1 0.30000000E+03</rscale>
<asrwt>0</asrwt>
<pdfrwt beam="1">  1        1 0.13023425E-01 0.30000000E+03</pdfrwt>
<pdfrwt beam="2">0</pdfrwt>
<totfact> 0.52584198E+02</totfact>
</mgrwt>
</event>
<event>
 6    1  0.1956957E-002  0.3000000E+03  0.7818608E-02  0.1093470E+00
          1   -1    0    0  502    0  0.00000000000E+00  0.00000000000E+00  0.94155223671E+00  0.94155223671E+00  0.00000000000E+00 0.  1.
         13   -1    0    0    0    0 -0.00000000000E+00 -0.00000000000E+00 -0.10000000000E+04  0.10000000000E+04  0.00000000000E+00 0.  1.
    9000005    2    1    2  501    0  0.12932372844E+02 -0.27711258524E+02 -0.48439007994E+03  0.48536547739E+03  0.32767333499E+01 0.  0.
         13    1    3    3    0    0  0.95690719625E+01 -0.21166516368E+02 -0.34479157568E+03  0.34557317490E+03  0.00000000000E+00 0.  1.
          1    1    3    3  501    0  0.33633008815E+01 -0.65447421564E+01 -0.13959850426E+03  0.13979230249E+03  0.00000000000E+00 0.  1.
         21    1    1    2  502  501 -0.12932372844E+02  0.27711258524E+02 -0.51466836782E+03  0.51557607485E+03  0.00000000000E+00 0.  1.
<mgrwt>
<rscale>  1 0.30000000E+03</rscale>
<asrwt>0</asrwt>
<pdfrwt beam="1">  1        1 0.34238335E-02 0.30000000E+03</pdfrwt>
<pdfrwt beam="2">0</pdfrwt>
<totfact> 0.33891411E+03</totfact>
</mgrwt>
</event>
<event>
 6    1  0.1956957E-002  0.3000000E+03  0.7818608E-02  0.1093470E+00
          3   -1    0    0  502    0  0.00000000000E+00  0.00000000000E+00  0.33436924349E+01  0.33436924349E+01  0.00000000000E+00 0.  1.
         13   -1    0    0    0    0 -0.00000000000E+00 -0.00000000000E+00 -0.10000000000E+04  0.10000000000E+04  0.00000000000E+00 0.  1.
    9000005    2    1    2  501    0  0.17663938646E+02 -0.29635377709E+02 -0.90075242974E+03  0.90142301679E+03  0.42714389013E+01 0.  0.
         13    1    3    3    0    0  0.94536324185E+01 -0.11855978664E+02 -0.40692217434E+03  0.40720460627E+03  0.00000000000E+00 0.  1.
          3    1    3    3  501    0  0.82103062271E+01 -0.17779399045E+02 -0.49383025540E+03  0.49421841053E+03  0.00000000000E+00 0.  1.
         21    1    1    2  502  501 -0.17663938646E+02  0.29635377709E+02 -0.95903877829E+02  0.10192067564E+03  0.00000000000E+00 0.  1.
<mgrwt>
<rscale>  1 0.30000000E+03</rscale>
<asrwt>0</asrwt>
<pdfrwt beam="1">  1        3 0.12158907E-01 0.30000000E+03</pdfrwt>
<pdfrwt beam="2">0</pdfrwt>
<totfact> 0.23826718E+02</totfact>
</mgrwt>
</event>
<event>
 6    1  0.1956957E-002  0.3000000E+03  0.7818608E-02  0.1093470E+00
          1   -1    0    0  502    0  0.00000000000E+00  0.00000000000E+00  0.14481745625E+01  0.14481745625E+01  0.00000000000E+00 0.  1.
         13   -1    0    0    0    0 -0.00000000000E+00 -0.00000000000E+00 -0.10000000000E+04  0.10000000000E+04  0.00000000000E+00 0.  1.
    9000005    2    1    2  501    0  0.10991341424E+02 -0.28839308932E+02 -0.79149510007E+03  0.79210395361E+03  0.34153426067E+01 0.  0.
         13    1    3    3    0    0  0.17884538064E+01 -0.82440018781E+01 -0.23756125828E+03  0.23771098748E+03  0.00000000000E+00 0.  1.
          3    1    3    3  501    0  0.92028876176E+01 -0.20595307054E+02 -0.55393384178E+03  0.55439296612E+03  0.00000000000E+00 0.  1.
         21    1    1    2  502  501 -0.10991341424E+02  0.28839308932E+02 -0.20705672537E+03  0.20934422096E+03  0.00000000000E+00 0.  1.
<mgrwt>
<rscale>  1 0.30000000E+03</rscale>
<asrwt>0</asrwt>
<pdfrwt beam="1">  1        1 0.52661004E-02 0.30000000E+03</pdfrwt>
<pdfrwt beam="2">0</pdfrwt>
<totfact> 0.18493824E+03</totfact>
</mgrwt>
</event>
<event>
 6    1  0.1956957E-002  0.3000000E+03  0.7818608E-02  0.1093470E+00
          3   -1    0    0  502    0  0.00000000000E+00  0.00000000000E+00  0.13786417477E+01  0.13786417477E+01  0.00000000000E+00 0.  1.
         13   -1    0    0    0    0 -0.00000000000E+00 -0.00000000000E+00 -0.10000000000E+04  0.10000000000E+04  0.00000000000E+00 0.  1.
    9000005    2    1    2  501    0  0.20651334258E+02 -0.30242536093E+02 -0.57719801370E+03  0.57836714789E+03  0.31499446870E+01 0.  0.
         13    1    3    3    0    0  0.13326797119E+02 -0.16942905436E+02 -0.33000124124E+03  0.33070452792E+03  0.00000000000E+00 0.  1.
          3    1    3    3  501    0  0.73245371390E+01 -0.13299630657E+02 -0.24719677246E+03  0.24766261997E+03  0.00000000000E+00 0.  1.
         21    1    1    2  502  501 -0.20651334258E+02  0.30242536093E+02 -0.42142334455E+03  0.42301149385E+03  0.00000000000E+00 0.  1.
<mgrwt>
<rscale>  1 0.30000000E+03</rscale>
<asrwt>0</asrwt>
<pdfrwt beam="1">  1        3 0.50132533E-02 0.30000000E+03</pdfrwt>
<pdfrwt beam="2">0</pdfrwt>
<totfact> 0.98535964E+02</totfact>
</mgrwt>
</event>
<event>
 6    1  0.1956957E-002  0.3000000E+03  0.7818608E-02  0.1093470E+00
          3   -1    0    0  502    0  0.00000000000E+00  0.00000000000E+00  0.53418956627E+01  0.53418956627E+01  0.00000000000E+00 0.  1.
         13   -1    0    0    0    0 -0.00000000000E+00 -0.00000000000E+00 -0.10000000000E+04  0.10000000000E+04  0.00000000000E+00 0.  1.
    9000005    2    1    2  501    0  0.70721749810E+02 -0.17477790029E+02 -0.53515899772E+03  0.54010381895E+03  0.31533100042E+01 0.  0.
         13    1    3    3    0    0  0.28687278367E+02 -0.85619570007E+01 -0.21529958338E+03  0.21737105983E+03  0.00000000000E+00 0.  1.
          3    1    3    3  501    0  0.42034471443E+02 -0.89158330287E+01 -0.31985941434E+03  0.32273275912E+03  0.00000000000E+00 0.  1.
         21    1    1    2  502  501 -0.70721749810E+02  0.17477790029E+02 -0.45949910662E+03  0.46523807671E+03  0.00000000000E+00 0.  1.
<mgrwt>
<rscale>  1 0.30000000E+03</rscale>
<asrwt>0</asrwt>
<pdfrwt beam="1">  1        3 0.19425116E-01 0.30000000E+03</pdfrwt>
<pdfrwt beam="2">0</pdfrwt>
<totfact> 0.10537525E+02</totfact>
</mgrwt>
</event>
<event>
 6    1  0.1956957E-002  0.3000000E+03  0.7818608E-02  0.1093470E+00
          1   -1    0    0  502    0  0.00000000000E+00  0.00000000000E+00  0.49358240317E+01  0.49358240317E+01  0.00000000000E+00 0.  1.
         13   -1    0    0    0    0 -0.00000000000E+00 -0.00000000000E+00 -0.10000000000E+04  0.10000000000E+04  0.00000000000E+00 0.  1.
    9000005    2    1    2  501    0  0.30919560258E+02 -0.30428564345E+01 -0.94815728782E+03  0.94867274255E+03  0.35287155381E+01 0.  0.
         13    1    3    3    0    0  0.79535246301E+01 -0.51324373128E+00 -0.19990713421E+03  0.20006594983E+03  0.00000000000E+00 0.  1.
          3    1    3    3  501    0  0.22966035628E+02 -0.25296127032E+01 -0.74825015361E+03  0.74860679272E+03  0.00000000000E+00 0.  1.
         21    1    1    2  502  501 -0.30919560258E+02  0.30428564345E+01 -0.46906888151E+02  0.56263081482E+02  0.00000000000E+00 0.  1.
<mgrwt>
<rscale>  1 0.30000000E+03</rscale>
<asrwt>0</asrwt>
<pdfrwt beam="1">  1        1 0.17948489E-01 0.30000000E+03</pdfrwt>
<pdfrwt beam="2">0</pdfrwt>
<totfact> 0.34039476E+02</totfact>
</mgrwt>
</event>
<event>
 6    1  0.1956957E-002  0.3000000E+03  0.7818608E-02  0.1093470E+00
          1   -1    0    0  502    0  0.00000000000E+00  0.00000000000E+00  0.56503643895E+01  0.56503643895E+01  0.00000000000E+00 0.  1.
         13   -1    0    0    0    0 -0.00000000000E+00 -0.00000000000E+00 -0.10000000000E+04  0.10000000000E+04  0.00000000000E+00 0.  1.
    9000005    2    1    2  501    0  0.50668611503E+02  0.37409034764E+02 -0.77116736510E+03  0.77375152881E+03  0.50575947680E+01 0.  0.
         13    1    3    3    0    0  0.18854408378E+02  0.11195906711E+02 -0.28009848542E+03  0.28095550996E+03  0.00000000000E+00 0.  1.
          1    1    3    3  501    0  0.31814203125E+02  0.26213128053E+02 -0.49106887967E+03  0.49279601884E+03  0.00000000000E+00 0.  1.
         21    1    1    2  502  501 -0.50668611503E+02 -0.37409034764E+02 -0.22318227051E+03  0.23189883558E+03  0.00000000000E+00 0.  1.
<mgrwt>
<rscale>  1 0.30000000E+03</rscale>
<asrwt>0</asrwt>
<pdfrwt beam="1">  1        1 0.20546823E-01 0.30000000E+03</pdfrwt>
<pdfrwt beam="2">0</pdfrwt>
<totfact> 0.28399504E+02</totfact>
</mgrwt>
</event>
<event>
 6    1  0.1956957E-002  0.3000000E+03  0.7818608E-02  0.1093470E+00
          3   -1    0    0  502    0  0.00000000000E+00  0.00000000000E+00  0.20319700556E+01  0.20319700556E+01  0.00000000000E+00 0.  1.
         13   -1    0    0    0    0 -0.00000000000E+00 -0.00000000000E+00 -0.10000000000E+04  0.10000000000E+04  0.00000000000E+00 0.  1.
    9000005    2    1    2  501    0  0.35806930839E+02 -0.19616139346E+02 -0.71065084345E+03  0.71182842963E+03  0.28570471519E+01 0.  0.
         13    1    3    3    0    0  0.18363377323E+02 -0.11682135716E+02 -0.37951568573E+03  0.38013923980E+03  0.00000000000E+00 0.  1.
          3    1    3    3  501    0  0.17443553515E+02 -0.79340036294E+01 -0.33113515772E+03  0.33168918983E+03  0.00000000000E+00 0.  1.
         21    1    1    2  502  501 -0.35806930839E+02  0.19616139346E+02 -0.28731718650E+03  0.29020354042E+03  0.00000000000E+00 0.  1.
<mgrwt>
<rscale>  1 0.30000000E+03</rscale>
<asrwt>0</asrwt>
<pdfrwt beam="1">  1        3 0.73889976E-02 0.30000000E+03</pdfrwt>
<pdfrwt beam="2">0</pdfrwt>
<totfact> 0.53776431E+02</totfact>
</mgrwt>
</event>
<event>
 6    1  0.1956957E-002  0.3000000E+03  0.7818608E-02  0.1093470E+00
          1   -1    0    0  502    0  0.00000000000E+00  0.00000000000E+00  0.83017549211E+01  0.83017549211E+01  0.00000000000E+00 0.  1.
         13   -1    0    0    0    0 -0.00000000000E+00 -0.00000000000E+00 -0.10000000000E+04  0.10000000000E+04  0.00000000000E+00 0.  1.
    9000005    2    1    2  501    0 -0.24896702022E+02 -0.41466839156E+02 -0.92306248291E+03  0.92433621217E+03  0.37069190531E+01 0.  0.
         13    1    3    3    0    0 -0.11427366739E+02 -0.19475304792E+02 -0.39612241169E+03  0.39676546883E+03  0.00000000000E+00 0.  1.
          1    1    3    3  501    0 -0.13469335282E+02 -0.21991534364E+02 -0.52694007122E+03  0.52757074334E+03  0.00000000000E+00 0.  1.
         21    1    1    2  502  501  0.24896702022E+02  0.41466839156E+02 -0.68635762165E+02  0.83965542749E+02  0.00000000000E+00 0.  1.
<mgrwt>
<rscale>  1 0.30000000E+03</rscale>
<asrwt>0</asrwt>
<pdfrwt beam="1">  1        1 0.30188263E-01 0.30000000E+03</pdfrwt>
<pdfrwt beam="2">0</pdfrwt>
<totfact> 0.17080858E+02</totfact>
</mgrwt>
</event>
<event>
 6    1  0.1956957E-002  0.3000000E+03  0.7818608E-02  0.1093470E+00
          3   -1    0    0  502    0  0.00000000000E+00  0.00000000000E+00  0.79257575486E+01  0.79257575486E+01  0.00000000000E+00 0.  1.
         13   -1    0    0    0    0 -0.00000000000E+00 -0.00000000000E+00 -0.10000000000E+04  0.10000000000E+04  0.00000000000E+00 0.  1.
    9000005    2    1    2  501    0 -0.39875823315E+02 -0.37265720231E+02 -0.89413807984E+03  0.89580837649E+03  0.33055063341E+01 0.  0.
         13    1    3    3    0    0 -0.51031238790E+01 -0.34025154821E+01 -0.10522667317E+03  0.10540527374E+03  0.00000000000E+00 0.  1.
          3    1    3    3  501    0 -0.34772699436E+02 -0.33863204749E+02 -0.78891140667E+03  0.79040310275E+03  0.00000000000E+00 0.  1.
         21    1    1    2  502  501  0.39875823315E+02  0.37265720231E+02 -0.97936162611E+02  0.11211738106E+03  0.00000000000E+00 0.  1.
<mgrwt>
<rscale>  1 0.30000000E+03</rscale>
<asrwt>0</asrwt>
<pdfrwt beam="1">  1        3 0.28820997E-01 0.30000000E+03</pdfrwt>
<pdfrwt beam="2">0</pdfrwt>
<totfact> 0.50462377E+01</totfact>
</mgrwt>
</event>
<event>
 6    1  0.1956957E-002  0.3000000E+03  0.7818608E-02  0.1093470E+00
          1   -1    0    0  502    0  0.00000000000E+00  0.00000000000E+00  0.12050164075E+01  0.12050164075E+01  0.00000000000E+00 0.  1.
         13   -1    0    0    0    0 -0.00000000000E+00 -0.00000000000E+00 -0.10000000000E+04  0.10000000000E+04  0.00000000000E+00 0.  1.
    9000005    2    1    2  501    0 -0.16630155755E+02 -0.25513754966E+02 -0.73868920729E+03  0.73932235444E+03  0.28783738763E+01 0.  0.
         13    1    3    3    0    0 -0.15817167644E+02 -0.22885306853E+02 -0.66413107939E+03  0.66471348013E+03  0.00000000000E+00 0.  1.
          1    1    3    3  501    0 -0.81298811056E+00 -0.26284481132E+01 -0.74558127901E+02  0.74608874307E+02  0.00000000000E+00 0.  1.
         21    1    1    2  502  501  0.16630155755E+02  0.25513754966E+02 -0.26010577630E+03  0.26188266197E+03  0.00000000000E+00 0.  1.
<mgrwt>
<rscale>  1 0.30000000E+03</rscale>
<asrwt>0</asrwt>
<pdfrwt beam="1">  1        1 0.43818871E-02 0.30000000E+03</pdfrwt>
<pdfrwt beam="2">0</pdfrwt>
<totfact> 0.23948850E+03</totfact>
</mgrwt>
</event>
<event>
 6    1  0.1956957E-002  0.3000000E+03  0.7818608E-02  0.1093470E+00
          1   -1    0    0  502    0  0.00000000000E+00  0.00000000000E+00  0.56627862419E+01  0.56627862419E+01  0.00000000000E+00 0.  1.
         13   -1    0    0    0    0 -0.00000000000E+00 -0.00000000000E+00 -0.10000000000E+04  0.10000000000E+04  0.00000000000E+00 0.  1.
    9000005    2    1    2  501    0 -0.55056969815E+02 -0.25996517117E+02 -0.20242499372E+03  0.21141342170E+03  0.35592085361E+01 0.  0.
         13    1    3    3    0    0 -0.38639338593E+02 -0.17623246222E+02 -0.14636934329E+03  0.15240591179E+03  0.00000000000E+00 0.  1.
          3    1    3    3  501    0 -0.16417631222E+02 -0.83732708946E+01 -0.56055650425E+02  0.59007509904E+02  0.00000000000E+00 0.  1.
         21    1    1    2  502  501  0.55056969815E+02  0.25996517117E+02 -0.79191222004E+03  0.79424936454E+03  0.00000000000E+00 0.  1.
<mgrwt>
<rscale>  1 0.30000000E+03</rscale>
<asrwt>0</asrwt>
<pdfrwt beam="1">  1        1 0.20591993E-01 0.30000000E+03</pdfrwt>
<pdfrwt beam="2">0</pdfrwt>
<totfact> 0.28316411E+02</totfact>
</mgrwt>
</event>
<event>
 6    1  0.1956957E-002  0.3000000E+03  0.7818608E-02  0.1093470E+00
          3   -1    0    0  502    0  0.00000000000E+00  0.00000000000E+00  0.34204613807E+01  0.34204613807E+01  0.00000000000E+00 0.  1.
         13   -1    0    0    0    0 -0.00000000000E+00 -0.00000000000E+00 -0.10000000000E+04  0.10000000000E+04  0.00000000000E+00 0.  1.
    9000005    2    1    2  501    0  0.15394791523E+02 -0.41864303413E+02 -0.82231446109E+03  0.82353734168E+03  0.48021578848E+01 0.  0.
         13    1    3    3    0    0  0.13405067489E+02 -0.39745932745E+02 -0.77334759600E+03  0.77448430535E+03  0.00000000000E+00 0.  1.
          3    1    3    3  501    0  0.19897240339E+01 -0.21183706683E+01 -0.48966865091E+02  0.49053036327E+02  0.00000000000E+00 0.  1.
         21    1    1    2  502  501 -0.15394791523E+02  0.41864303413E+02 -0.17426507753E+03  0.17988311970E+03  0.00000000000E+00 0.  1.
<mgrwt>
<rscale>  1 0.30000000E+03</rscale>
<asrwt>0</asrwt>
<pdfrwt beam="1">  1        3 0.12438068E-01 0.30000000E+03</pdfrwt>
<pdfrwt beam="2">0</pdfrwt>
<totfact> 0.22930174E+02</totfact>
</mgrwt>
</event>
<event>
 6    1  0.1956957E-002  0.3000000E+03  0.7818608E-02  0.1093470E+00
          1   -1    0    0  502    0  0.00000000000E+00  0.00000000000E+00  0.92328080079E+00  0.92328080079E+00  0.00000000000E+00 0.  1.
         13   -1    0    0    0    0 -0.00000000000E+00 -0.00000000000E+00 -0.10000000000E+04  0.10000000000E+04  0.00000000000E+00 0.  1.
    9000005    2    1    2  501    0  0.17665327646E+02  0.24254799497E+02 -0.43717120436E+03  0.43821717038E+03  0.39073512429E+01 0.  0.
         13    1    3    3    0    0  0.81435269881E+01  0.79896309476E+01 -0.16155892722E+03  0.16196122437E+03  0.00000000000E+00 0.  1.
          1    1    3    3  501    0  0.95218006580E+01  0.16265168550E+02 -0.27561227714E+03  0.27625594601E+03  0.00000000000E+00 0.  1.
         21    1    1    2  502  501 -0.17665327646E+02 -0.24254799497E+02 -0.56190551484E+03  0.56270611042E+03  0.00000000000E+00 0.  1.
<mgrwt>
<rscale>  1 0.30000000E+03</rscale>
<asrwt>0</asrwt>
<pdfrwt beam="1">  1        1 0.33573918E-02 0.30000000E+03</pdfrwt>
<pdfrwt beam="2">0</pdfrwt>
<totfact> 0.34838171E+03</totfact>
</mgrwt>
</event>
<event>
 6    1  0.1956957E-002  0.3000000E+03  0.7818608E-02  0.1093470E+00
          1   -1    0    0  502    0  0.00000000000E+00  0.00000000000E+00  0.14166121839E+01  0.14166121839E+01  0.00000000000E+00 0.  1.
         13   -1    0    0    0    0 -0.00000000000E+00 -0.00000000000E+00 -0.10000000000E+04  0.10000000000E+04  0.00000000000E+00 0.  1.
    9000005    2    1    2  501    0 -0.14551697273E+02 -0.33128642338E+02 -0.37001177468E+03  0.37180440481E+03  0.45324602492E+01 0.  0.
         13    1    3    3    0    0 -0.56250382207E+01 -0.83382796584E+01 -0.92985865477E+02  0.93528279901E+02  0.00000000000E+00 0.  1.
          3    1    3    3  501    0 -0.89266590524E+01 -0.24790362679E+02 -0.27702590920E+03  0.27827612491E+03  0.00000000000E+00 0.  1.
         21    1    1    2  502  501  0.14551697273E+02  0.33128642338E+02 -0.62857161313E+03  0.62961220737E+03  0.00000000000E+00 0.  1.
<mgrwt>
<rscale>  1 0.30000000E+03</rscale>
<asrwt>0</asrwt>
<pdfrwt beam="1">  1        1 0.51513279E-02 0.30000000E+03</pdfrwt>
<pdfrwt beam="2">0</pdfrwt>
<totfact> 0.19075324E+03</totfact>
</mgrwt>
</event>
<event>
 6    1  0.1956957E-002  0.3000000E+03  0.7818608E-02  0.1093470E+00
          3   -1    0    0  502    0  0.00000000000E+00  0.00000000000E+00  0.93045789279E+01  0.93045789279E+01  0.00000000000E+00 0.  1.
         13   -1    0    0    0    0 -0.00000000000E+00 -0.00000000000E+00 -0.10000000000E+04  0.10000000000E+04  0.00000000000E+00 0.  1.
    9000005    2    1    2  501    0 -0.37719305433E+02  0.58412781540E+02 -0.84505467621E+03  0.84791676769E+03  0.32619181190E+01 0.  0.
         13    1    3    3    0    0 -0.18569940010E+02  0.27675662126E+02 -0.38651024083E+03  0.38794452080E+03  0.00000000000E+00 0.  1.
          1    1    3    3  501    0 -0.19149365424E+02  0.30737119414E+02 -0.45854443537E+03  0.45997224690E+03  0.00000000000E+00 0.  1.
         21    1    1    2  502  501  0.37719305433E+02 -0.58412781540E+02 -0.14564074487E+03  0.16138781123E+03  0.00000000000E+00 0.  1.
<mgrwt>
<rscale>  1 0.30000000E+03</rscale>
<asrwt>0</asrwt>
<pdfrwt beam="1">  1        3 0.33834904E-01 0.30000000E+03</pdfrwt>
<pdfrwt beam="2">0</pdfrwt>
<totfact> 0.37160204E+01</totfact>
</mgrwt>
</event>
<event>
 6    1  0.1956957E-002  0.3000000E+03  0.7818608E-02  0.1093470E+00
          1   -1    0    0  502    0  0.00000000000E+00  0.00000000000E+00  0.18773832318E+01  0.18773832318E+01  0.00000000000E+00 0.  1.
         13   -1    0    0    0    0 -0.00000000000E+00 -0.00000000000E+00 -0.10000000000E+04  0.10000000000E+04  0.00000000000E+00 0.  1.
    9000005    2    1    2  501    0 -0.22336347236E+02  0.37038637096E+02 -0.50817818489E+03  0.51002748807E+03  0.34925548815E+01 0.  0.
         13    1    3    3    0    0 -0.38804769490E+01  0.51927920434E+01 -0.89529498935E+02  0.89763881211E+02  0.00000000000E+00 0.  1.
          1    1    3    3  501    0 -0.18455870287E+02  0.31845845052E+02 -0.41864868596E+03  0.42026360686E+03  0.00000000000E+00 0.  1.
         21    1    1    2  502  501  0.22336347236E+02 -0.37038637096E+02 -0.48994443188E+03  0.49184989516E+03  0.00000000000E+00 0.  1.
<mgrwt>
<rscale>  1 0.30000000E+03</rscale>
<asrwt>0</asrwt>
<pdfrwt beam="1">  1        1 0.68268625E-02 0.30000000E+03</pdfrwt>
<pdfrwt beam="2">0</pdfrwt>
<totfact> 0.12850487E+03</totfact>
</mgrwt>
</event>
<event>
 6    1  0.1956957E-002  0.3000000E+03  0.7818608E-02  0.1093470E+00
          1   -1    0    0  502    0  0.00000000000E+00  0.00000000000E+00  0.14197672427E+01  0.14197672427E+01  0.00000000000E+00 0.  1.
         13   -1    0    0    0    0 -0.00000000000E+00 -0.00000000000E+00 -0.10000000000E+04  0.10000000000E+04  0.00000000000E+00 0.  1.
    9000005    2    1    2  501    0  0.27164077976E+02  0.24109273036E+02 -0.37796235179E+03  0.37974002787E+03  0.52730647932E+01 0.  0.
         13    1    3    3    0    0  0.13238211900E+02  0.82765945562E+01 -0.15855805513E+03  0.15932485406E+03  0.00000000000E+00 0.  1.
          3    1    3    3  501    0  0.13925866076E+02  0.15832678480E+02 -0.21940429666E+03  0.22041517381E+03  0.00000000000E+00 0.  1.
         21    1    1    2  502  501 -0.27164077976E+02 -0.24109273036E+02 -0.62061788096E+03  0.62167973937E+03  0.00000000000E+00 0.  1.
<mgrwt>
<rscale>  1 0.30000000E+03</rscale>
<asrwt>0</asrwt>
<pdfrwt beam="1">  1        1 0.51628009E-02 0.30000000E+03</pdfrwt>
<pdfrwt beam="2">0</pdfrwt>
<totfact> 0.19015789E+03</totfact>
</mgrwt>
</event>
<event>
 6    1  0.1956957E-002  0.3000000E+03  0.7818608E-02  0.1093470E+00
          1   -1    0    0  502    0  0.00000000000E+00  0.00000000000E+00  0.44904181994E+01  0.44904181994E+01  0.00000000000E+00 0.  1.
         13   -1    0    0    0    0 -0.00000000000E+00 -0.00000000000E+00 -0.10000000000E+04  0.10000000000E+04  0.00000000000E+00 0.  1.
    9000005    2    1    2  501    0 -0.44613724922E+02  0.12251952050E+02 -0.86088051926E+03  0.86213354530E+03  0.42996179375E+01 0.  0.
         13    1    3    3    0    0 -0.35069215886E+02  0.94620513093E+01 -0.64107615096E+03  0.64210436196E+03  0.00000000000E+00 0.  1.
          1    1    3    3  501    0 -0.95445090357E+01  0.27899007402E+01 -0.21980436830E+03  0.22002918334E+03  0.00000000000E+00 0.  1.
         21    1    1    2  502  501  0.44613724922E+02 -0.12251952050E+02 -0.13462906254E+03  0.14235687290E+03  0.00000000000E+00 0.  1.
<mgrwt>
<rscale>  1 0.30000000E+03</rscale>
<asrwt>0</asrwt>
<pdfrwt beam="1">  1        1 0.16328828E-01 0.30000000E+03</pdfrwt>
<pdfrwt beam="2">0</pdfrwt>
<totfact> 0.38667612E+02</totfact>
</mgrwt>
</event>
<event>
 6    1  0.1956957E-002  0.3000000E+03  0.7818608E-02  0.1093470E+00
          3   -1    0    0  502    0  0.00000000000E+00  0.00000000000E+00  0.72192247192E+01  0.72192247192E+01  0.00000000000E+00 0.  1.
         13   -1    0    0    0    0 -0.00000000000E+00 -0.00000000000E+00 -0.10000000000E+04  0.10000000000E+04  0.00000000000E+00 0.  1.
    9000005    2    1    2  501    0 -0.83173999638E+01  0.68146505748E+02 -0.79285528252E+03  0.79583491110E+03  0.45366641259E+01 0.  0.
         13    1    3    3    0    0 -0.83012200164E+01  0.65530650907E+02 -0.77077720883E+03  0.77360240571E+03  0.00000000000E+00 0.  1.
          3    1    3    3  501    0 -0.16179947410E-01  0.26158548409E+01 -0.22078073686E+02  0.22232505392E+02  0.00000000000E+00 0.  1.
         21    1    1    2  502  501  0.83173999638E+01 -0.68146505748E+02 -0.19992549276E+03  0.21138431362E+03  0.00000000000E+00 0.  1.
<mgrwt>
<rscale>  1 0.30000000E+03</rscale>
<asrwt>0</asrwt>
<pdfrwt beam="1">  1        3 0.26251782E-01 0.30000000E+03</pdfrwt>
<pdfrwt beam="2">0</pdfrwt>
<totfact> 0.60202973E+01</totfact>
</mgrwt>
</event>
<event>
 6    1  0.1956957E-002  0.3000000E+03  0.7818608E-02  0.1093470E+00
          3   -1    0    0  502    0  0.00000000000E+00  0.00000000000E+00  0.26624554030E+01  0.26624554030E+01  0.00000000000E+00 0.  1.
         13   -1    0    0    0    0 -0.00000000000E+00 -0.00000000000E+00 -0.10000000000E+04  0.10000000000E+04  0.00000000000E+00 0.  1.
    9000005    2    1    2  501    0 -0.39057885722E+02 -0.93077559088E+00 -0.82587519763E+03  0.82680535089E+03  0.32956667821E+01 0.  0.
         13    1    3    3    0    0 -0.31578539717E+02 -0.15916697424E+01 -0.64544993744E+03  0.64622392351E+03  0.00000000000E+00 0.  1.
          1    1    3    3  501    0 -0.74793460054E+01  0.66089415153E+00 -0.18042526019E+03  0.18058142738E+03  0.00000000000E+00 0.  1.
         21    1    1    2  502  501  0.39057885722E+02  0.93077559088E+00 -0.17146234697E+03  0.17585710451E+03  0.00000000000E+00 0.  1.
<mgrwt>
<rscale>  1 0.30000000E+03</rscale>
<asrwt>0</asrwt>
<pdfrwt beam="1">  1        3 0.96816764E-02 0.30000000E+03</pdfrwt>
<pdfrwt beam="2">0</pdfrwt>
<totfact> 0.34826373E+02</totfact>
</mgrwt>
</event>
<event>
 6    1  0.1956957E-002  0.3000000E+03  0.7818608E-02  0.1093470E+00
          1   -1    0    0  502    0  0.00000000000E+00  0.00000000000E+00  0.10456668879E+01  0.10456668879E+01  0.00000000000E+00 0.  1.
         13   -1    0    0    0    0 -0.00000000000E+00 -0.00000000000E+00 -0.10000000000E+04  0.10000000000E+04  0.00000000000E+00 0.  1.
    9000005    2    1    2  501    0  0.25981723547E+02  0.18799606787E+02 -0.44684703892E+03  0.44800774823E+03  0.31923515149E+01 0.  0.
         13    1    3    3    0    0  0.76238506204E+01  0.69450499660E+01 -0.13054264682E+03  0.13094937745E+03  0.00000000000E+00 0.  1.
          3    1    3    3  501    0  0.18357872927E+02  0.11854556821E+02 -0.31630439210E+03  0.31705837077E+03  0.00000000000E+00 0.  1.
         21    1    1    2  502  501 -0.25981723547E+02 -0.18799606787E+02 -0.55210729419E+03  0.55303791866E+03  0.00000000000E+00 0.  1.
<mgrwt>
<rscale>  1 0.30000000E+03</rscale>
<asrwt>0</asrwt>
<pdfrwt beam="1">  1        1 0.38024331E-02 0.30000000E+03</pdfrwt>
<pdfrwt beam="2">0</pdfrwt>
<totfact> 0.29242150E+03</totfact>
</mgrwt>
</event>
<event>
 6    1  0.1956957E-002  0.3000000E+03  0.7818608E-02  0.1093470E+00
          1   -1    0    0  502    0  0.00000000000E+00  0.00000000000E+00  0.17641411707E+01  0.17641411707E+01  0.00000000000E+00 0.  1.
         13   -1    0    0    0    0 -0.00000000000E+00 -0.00000000000E+00 -0.10000000000E+04  0.10000000000E+04  0.00000000000E+00 0.  1.
    9000005    2    1    2  501    0  0.45160210272E+01 -0.31090259035E+02 -0.83038989513E+03  0.83100329618E+03  0.56658335965E+01 0.  0.
         13    1    3    3    0    0  0.24211708954E+01 -0.28357497218E+02 -0.73138316364E+03  0.73193670612E+03  0.00000000000E+00 0.  1.
          3    1    3    3  501    0  0.20948501318E+01 -0.27327618178E+01 -0.99006731491E+02  0.99066590053E+02  0.00000000000E+00 0.  1.
         21    1    1    2  502  501 -0.45160210272E+01  0.31090259035E+02 -0.16784596370E+03  0.17076084499E+03  0.00000000000E+00 0.  1.
<mgrwt>
<rscale>  1 0.30000000E+03</rscale>
<asrwt>0</asrwt>
<pdfrwt beam="1">  1        1 0.64150723E-02 0.30000000E+03</pdfrwt>
<pdfrwt beam="2">0</pdfrwt>
<totfact> 0.14020058E+03</totfact>
</mgrwt>
</event>
<event>
 6    1  0.1956957E-002  0.3000000E+03  0.7818608E-02  0.1093470E+00
          1   -1    0    0  502    0  0.00000000000E+00  0.00000000000E+00  0.23079672946E+01  0.23079672946E+01  0.00000000000E+00 0.  1.
         13   -1    0    0    0    0 -0.00000000000E+00 -0.00000000000E+00 -0.10000000000E+04  0.10000000000E+04  0.00000000000E+00 0.  1.
    9000005    2    1    2  501    0  0.22942608820E+02 -0.31966110800E+02 -0.78602707556E+03  0.78701688614E+03  0.29698527110E+01 0.  0.
         13    1    3    3    0    0  0.18430178834E+02 -0.27141686332E+02 -0.63955206774E+03  0.64039299651E+03  0.00000000000E+00 0.  1.
          1    1    3    3  501    0  0.45124299860E+01 -0.48244244678E+01 -0.14647500782E+03  0.14662388964E+03  0.00000000000E+00 0.  1.
         21    1    1    2  502  501 -0.22942608820E+02  0.31966110800E+02 -0.21166495715E+03  0.21529108115E+03  0.00000000000E+00 0.  1.
<mgrwt>
<rscale>  1 0.30000000E+03</rscale>
<asrwt>0</asrwt>
<pdfrwt beam="1">  1        1 0.83926260E-02 0.30000000E+03</pdfrwt>
<pdfrwt beam="2">0</pdfrwt>
<totfact> 0.96343841E+02</totfact>
</mgrwt>
</event>
<event>
 6    1  0.1956957E-002  0.3000000E+03  0.7818608E-02  0.1093470E+00
          1   -1    0    0  502    0  0.00000000000E+00  0.00000000000E+00  0.27927667879E+01  0.27927667879E+01  0.00000000000E+00 0.  1.
         13   -1    0    0    0    0 -0.00000000000E+00 -0.00000000000E+00 -0.10000000000E+04  0.10000000000E+04  0.00000000000E+00 0.  1.
    9000005    2    1    2  501    0 -0.30902655321E+02 -0.48014176400E+01 -0.90266095027E+03  0.90320849426E+03  0.32810423955E+01 0.  0.
         13    1    3    3    0    0 -0.15707373265E+02 -0.78317256116E+00 -0.44868658817E+03  0.44896212461E+03  0.00000000000E+00 0.  1.
          1    1    3    3  501    0 -0.15195282056E+02 -0.40182450788E+01 -0.45397436210E+03  0.45424636964E+03  0.00000000000E+00 0.  1.
         21    1    1    2  502  501  0.30902655321E+02  0.48014176400E+01 -0.94546282943E+02  0.99584272531E+02  0.00000000000E+00 0.  1.
<mgrwt>
<rscale>  1 0.30000000E+03</rscale>
<asrwt>0</asrwt>
<pdfrwt beam="1">  1        1 0.10155537E-01 0.30000000E+03</pdfrwt>
<pdfrwt beam="2">0</pdfrwt>
<totfact> 0.73981209E+02</totfact>
</mgrwt>
</event>
<event>
 6    1  0.1956957E-002  0.3000000E+03  0.7818608E-02  0.1093470E+00
          1   -1    0    0  502    0  0.00000000000E+00  0.00000000000E+00  0.15839918836E+01  0.15839918836E+01  0.00000000000E+00 0.  1.
         13   -1    0    0    0    0 -0.00000000000E+00 -0.00000000000E+00 -0.10000000000E+04  0.10000000000E+04  0.00000000000E+00 0.  1.
    9000005    2    1    2  501    0  0.28803498827E+02 -0.15960173685E+02 -0.77971367931E+03  0.78041645965E+03  0.34727656880E+01 0.  0.
         13    1    3    3    0    0  0.47379247228E+01 -0.38461412070E+01 -0.12566863419E+03  0.12581671730E+03  0.00000000000E+00 0.  1.
          3    1    3    3  501    0  0.24065574105E+02 -0.12114032478E+02 -0.65404504512E+03  0.65459974235E+03  0.00000000000E+00 0.  1.
         21    1    1    2  502  501 -0.28803498827E+02  0.15960173685E+02 -0.21870232881E+03  0.22116753223E+03  0.00000000000E+00 0.  1.
<mgrwt>
<rscale>  1 0.30000000E+03</rscale>
<asrwt>0</asrwt>
<pdfrwt beam="1">  1        1 0.57599826E-02 0.30000000E+03</pdfrwt>
<pdfrwt beam="2">0</pdfrwt>
<totfact> 0.16306402E+03</totfact>
</mgrwt>
</event>
<event>
 6    1  0.1956957E-002  0.3000000E+03  0.7818608E-02  0.1093470E+00
          3   -1    0    0  502    0  0.00000000000E+00  0.00000000000E+00  0.11417632668E+01  0.11417632668E+01  0.00000000000E+00 0.  1.
         13   -1    0    0    0    0 -0.00000000000E+00 -0.00000000000E+00 -0.10000000000E+04  0.10000000000E+04  0.00000000000E+00 0.  1.
    9000005    2    1    2  501    0  0.31563181114E+02 -0.11864037735E+02 -0.48420682101E+03  0.48538690919E+03  0.26863192714E+01 0.  0.
         13    1    3    3    0    0  0.28180243038E+02 -0.10436905990E+02 -0.44220964009E+03  0.44322953522E+03  0.00000000000E+00 0.  1.
          3    1    3    3  501    0  0.33829380756E+01 -0.14271317447E+01 -0.41997180924E+02  0.42157373976E+02  0.00000000000E+00 0.  1.
         21    1    1    2  502  501 -0.31563181114E+02  0.11864037735E+02 -0.51465141572E+03  0.51575485407E+03  0.00000000000E+00 0.  1.
<mgrwt>
<rscale>  1 0.30000000E+03</rscale>
<asrwt>0</asrwt>
<pdfrwt beam="1">  1        3 0.41518752E-02 0.30000000E+03</pdfrwt>
<pdfrwt beam="2">0</pdfrwt>
<totfact> 0.13176389E+03</totfact>
</mgrwt>
</event>
<event>
 6    1  0.1956957E-002  0.3000000E+03  0.7818608E-02  0.1093470E+00
          1   -1    0    0  502    0  0.00000000000E+00  0.00000000000E+00  0.16829474879E+01  0.16829474879E+01  0.00000000000E+00 0.  1.
         13   -1    0    0    0    0 -0.00000000000E+00 -0.00000000000E+00 -0.10000000000E+04  0.10000000000E+04  0.00000000000E+00 0.  1.
    9000005    2    1    2  501    0 -0.38799397333E+02 -0.84912680716E+01 -0.37726766660E+03  0.37936483381E+03  0.30479509304E+01 0.  0.
         13    1    3    3    0    0 -0.23528385735E+02 -0.55396651177E+01 -0.21563635701E+03  0.21698689198E+03  0.00000000000E+00 0.  1.
          1    1    3    3  501    0 -0.15271011597E+02 -0.29516029538E+01 -0.16163130959E+03  0.16237794184E+03  0.00000000000E+00 0.  1.
         21    1    1    2  502  501  0.38799397333E+02  0.84912680716E+01 -0.62104938591E+03  0.62231811368E+03  0.00000000000E+00 0.  1.
<mgrwt>
<rscale>  1 0.30000000E+03</rscale>
<asrwt>0</asrwt>
<pdfrwt beam="1">  1        1 0.61198220E-02 0.30000000E+03</pdfrwt>
<pdfrwt beam="2">0</pdfrwt>
<totfact> 0.14977258E+03</totfact>
</mgrwt>
</event>
<event>
 6    1  0.1956957E-002  0.3000000E+03  0.7818608E-02  0.1093470E+00
          3   -1    0    0  502    0  0.00000000000E+00  0.00000000000E+00  0.49998263982E+01  0.49998263982E+01  0.00000000000E+00 0.  1.
         13   -1    0    0    0    0 -0.00000000000E+00 -0.00000000000E+00 -0.10000000000E+04  0.10000000000E+04  0.00000000000E+00 0.  1.
    9000005    2    1    2  501    0 -0.26917707473E+02  0.64538157598E+02 -0.42583884797E+03  0.43155902618E+03  0.38382123239E+01 0.  0.
         13    1    3    3    0    0 -0.19263284569E+02  0.44768055792E+02 -0.30686522242E+03  0.31071130923E+03  0.00000000000E+00 0.  1.
          1    1    3    3  501    0 -0.76544229040E+01  0.19770101806E+02 -0.11897362555E+03  0.12084771695E+03  0.00000000000E+00 0.  1.
         21    1    1    2  502  501  0.26917707473E+02 -0.64538157598E+02 -0.56916132563E+03  0.57344080022E+03  0.00000000000E+00 0.  1.
<mgrwt>
<rscale>  1 0.30000000E+03</rscale>
<asrwt>0</asrwt>
<pdfrwt beam="1">  1        3 0.18181225E-01 0.30000000E+03</pdfrwt>
<pdfrwt beam="2">0</pdfrwt>
<totfact> 0.11867485E+02</totfact>
</mgrwt>
</event>
<event>
 6    1  0.1956957E-002  0.3000000E+03  0.7818608E-02  0.1093470E+00
          1   -1    0    0  502    0  0.00000000000E+00  0.00000000000E+00  0.20445540637E+01  0.20445540637E+01  0.00000000000E+00 0.  1.
         13   -1    0    0    0    0 -0.00000000000E+00 -0.00000000000E+00 -0.10000000000E+04  0.10000000000E+04  0.00000000000E+00 0.  1.
    9000005    2    1    2  501    0  0.25237625629E+02 -0.37417200699E+02 -0.51614587206E+03  0.51812570743E+03  0.32715122173E+01 0.  0.
         13    1    3    3    0    0  0.21873415623E+02 -0.32288095969E+02 -0.45786288527E+03  0.45952082560E+03  0.00000000000E+00 0.  1.
          1    1    3    3  501    0  0.33642100064E+01 -0.51291047297E+01 -0.58282986793E+02  0.58604881826E+02  0.00000000000E+00 0.  1.
         21    1    1    2  502  501 -0.25237625629E+02  0.37417200699E+02 -0.48180957387E+03  0.48391884664E+03  0.00000000000E+00 0.  1.
<mgrwt>
<rscale>  1 0.30000000E+03</rscale>
<asrwt>0</asrwt>
<pdfrwt beam="1">  1        1 0.74347577E-02 0.30000000E+03</pdfrwt>
<pdfrwt beam="2">0</pdfrwt>
<totfact> 0.11406195E+03</totfact>
</mgrwt>
</event>
<event>
 6    1  0.1956957E-002  0.3000000E+03  0.7818608E-02  0.1093470E+00
          1   -1    0    0  502    0  0.00000000000E+00  0.00000000000E+00  0.16310144136E+01  0.16310144136E+01  0.00000000000E+00 0.  1.
         13   -1    0    0    0    0 -0.00000000000E+00 -0.00000000000E+00 -0.10000000000E+04  0.10000000000E+04  0.00000000000E+00 0.  1.
    9000005    2    1    2  501    0  0.29303111623E+02  0.11529532326E+02 -0.81221353213E+03  0.81283097385E+03  0.34304231676E+01 0.  0.
         13    1    3    3    0    0  0.18373811406E+02  0.77248122957E+01 -0.55346321890E+03  0.55382199698E+03  0.00000000000E+00 0.  1.
          3    1    3    3  501    0  0.10929300218E+02  0.38047200308E+01 -0.25875031323E+03  0.25900897686E+03  0.00000000000E+00 0.  1.
         21    1    1    2  502  501 -0.29303111623E+02 -0.11529532326E+02 -0.18615545346E+03  0.18880004057E+03  0.00000000000E+00 0.  1.
<mgrwt>
<rscale>  1 0.30000000E+03</rscale>
<asrwt>0</asrwt>
<pdfrwt beam="1">  1        1 0.59309740E-02 0.30000000E+03</pdfrwt>
<pdfrwt beam="2">0</pdfrwt>
<totfact> 0.15650471E+03</totfact>
</mgrwt>
</event>
<event>
 6    1  0.1956957E-002  0.3000000E+03  0.7818608E-02  0.1093470E+00
          1   -1    0    0  502    0  0.00000000000E+00  0.00000000000E+00  0.27148911100E+01  0.27148911100E+01  0.00000000000E+00 0.  1.
         13   -1    0    0    0    0 -0.00000000000E+00 -0.00000000000E+00 -0.10000000000E+04  0.10000000000E+04  0.00000000000E+00 0.  1.
    9000005    2    1    2  501    0  0.37385483707E+02  0.35098011076E+02 -0.58457355550E+03  0.58682984561E+03  0.36716656889E+01 0.  0.
         13    1    3    3    0    0  0.96522044338E+01  0.94547014232E+01 -0.13651495619E+03  0.13718195834E+03  0.00000000000E+00 0.  1.
          1    1    3    3  501    0  0.27733279273E+02  0.25643309653E+02 -0.44805859931E+03  0.44964788727E+03  0.00000000000E+00 0.  1.
         21    1    1    2  502  501 -0.37385483707E+02 -0.35098011076E+02 -0.41271155339E+03  0.41588504550E+03  0.00000000000E+00 0.  1.
<mgrwt>
<rscale>  1 0.30000000E+03</rscale>
<asrwt>0</asrwt>
<pdfrwt beam="1">  1        1 0.98723521E-02 0.30000000E+03</pdfrwt>
<pdfrwt beam="2">0</pdfrwt>
<totfact> 0.76926315E+02</totfact>
</mgrwt>
</event>
<event>
 6    1  0.1956957E-002  0.3000000E+03  0.7818608E-02  0.1093470E+00
          1   -1    0    0  502    0  0.00000000000E+00  0.00000000000E+00  0.34369743813E+01  0.34369743813E+01  0.00000000000E+00 0.  1.
         13   -1    0    0    0    0 -0.00000000000E+00 -0.00000000000E+00 -0.10000000000E+04  0.10000000000E+04  0.00000000000E+00 0.  1.
    9000005    2    1    2  501    0 -0.25556436868E+02  0.41554729784E+02 -0.77627264027E+03  0.77780944744E+03  0.28978397862E+01 0.  0.
         13    1    3    3    0    0 -0.11796392692E+02  0.20805063560E+02 -0.36169464970E+03  0.36248451714E+03  0.00000000000E+00 0.  1.
          3    1    3    3  501    0 -0.13760044176E+02  0.20749666225E+02 -0.41457799057E+03  0.41532493030E+03  0.00000000000E+00 0.  1.
         21    1    1    2  502  501  0.25556436868E+02 -0.41554729784E+02 -0.22029038535E+03  0.22562752694E+03  0.00000000000E+00 0.  1.
<mgrwt>
<rscale>  1 0.30000000E+03</rscale>
<asrwt>0</asrwt>
<pdfrwt beam="1">  1        1 0.12498115E-01 0.30000000E+03</pdfrwt>
<pdfrwt beam="2">0</pdfrwt>
<totfact> 0.55629600E+02</totfact>
</mgrwt>
</event>
<event>
 6    1  0.1956957E-002  0.3000000E+03  0.7818608E-02  0.1093470E+00
          1   -1    0    0  502    0  0.00000000000E+00  0.00000000000E+00  0.24753333056E+01  0.24753333056E+01  0.00000000000E+00 0.  1.
         13   -1    0    0    0    0 -0.00000000000E+00 -0.00000000000E+00 -0.10000000000E+04  0.10000000000E+04  0.00000000000E+00 0.  1.
    9000005    2    1    2  501    0 -0.17163814310E+02 -0.27694734210E+02 -0.87735777984E+03  0.87796960846E+03  0.35163472368E+01 0.  0.
         13    1    3    3    0    0 -0.88786736760E+00 -0.34948977783E+01 -0.99123575210E+02  0.99189141449E+02  0.00000000000E+00 0.  1.
          1    1    3    3  501    0 -0.16275946942E+02 -0.24199836431E+02 -0.77823420463E+03  0.77878046701E+03  0.00000000000E+00 0.  1.
         21    1    1    2  502  501  0.17163814310E+02  0.27694734210E+02 -0.12016688685E+03  0.12450572485E+03  0.00000000000E+00 0.  1.
<mgrwt>
<rscale>  1 0.30000000E+03</rscale>
<asrwt>0</asrwt>
<pdfrwt beam="1">  1        1 0.90012310E-02 0.30000000E+03</pdfrwt>
<pdfrwt beam="2">0</pdfrwt>
<totfact> 0.87420910E+02</totfact>
</mgrwt>
</event>
<event>
 6    1  0.1956957E-002  0.3000000E+03  0.7818608E-02  0.1093470E+00
          1   -1    0    0  502    0  0.00000000000E+00  0.00000000000E+00  0.40783508074E+01  0.40783508074E+01  0.00000000000E+00 0.  1.
         13   -1    0    0    0    0 -0.00000000000E+00 -0.00000000000E+00 -0.10000000000E+04  0.10000000000E+04  0.00000000000E+00 0.  1.
    9000005    2    1    2  501    0  0.52159278913E+02 -0.29449643659E+02 -0.66955851365E+03  0.67226399288E+03  0.65116071623E+01 0.  0.
         13    1    3    3    0    0  0.45397661598E+02 -0.24846248801E+02 -0.59948116716E+03  0.60171085543E+03  0.00000000000E+00 0.  1.
          1    1    3    3  501    0  0.67616173148E+01 -0.46033948573E+01 -0.70077346489E+02  0.70553137449E+02  0.00000000000E+00 0.  1.
         21    1    1    2  502  501 -0.52159278913E+02  0.29449643659E+02 -0.32636313554E+03  0.33181435793E+03  0.00000000000E+00 0.  1.
<mgrwt>
<rscale>  1 0.30000000E+03</rscale>
<asrwt>0</asrwt>
<pdfrwt beam="1">  1        1 0.14830398E-01 0.30000000E+03</pdfrwt>
<pdfrwt beam="2">0</pdfrwt>
<totfact> 0.44055490E+02</totfact>
</mgrwt>
</event>
<event>
 6    1  0.1956957E-002  0.3000000E+03  0.7818608E-02  0.1093470E+00
          1   -1    0    0  502    0  0.00000000000E+00  0.00000000000E+00  0.16040275022E+02  0.16040275022E+02  0.00000000000E+00 0.  1.
         13   -1    0    0    0    0 -0.00000000000E+00 -0.00000000000E+00 -0.10000000000E+04  0.10000000000E+04  0.00000000000E+00 0.  1.
    9000005    2    1    2  501    0  0.21999378081E+02 -0.61099656556E+02 -0.92808096641E+03  0.93036894769E+03  0.59125248944E+01 0.  0.
         13    1    3    3    0    0  0.21377969746E+02 -0.57882417631E+02 -0.86114425114E+03  0.86335207947E+03  0.00000000000E+00 0.  1.
          3    1    3    3  501    0  0.62140833522E+00 -0.32172389246E+01 -0.66936715275E+02  0.67016868223E+02  0.00000000000E+00 0.  1.
         21    1    1    2  502  501 -0.21999378081E+02  0.61099656556E+02 -0.55878758566E+02  0.85671327327E+02  0.00000000000E+00 0.  1.
<mgrwt>
<rscale>  1 0.30000000E+03</rscale>
<asrwt>0</asrwt>
<pdfrwt beam="1">  1        1 0.58328396E-01 0.30000000E+03</pdfrwt>
<pdfrwt beam="2">0</pdfrwt>
<totfact> 0.71995529E+01</totfact>
</mgrwt>
</event>
<event>
 6    1  0.1956957E-002  0.3000000E+03  0.7818608E-02  0.1093470E+00
          1   -1    0    0  502    0  0.00000000000E+00  0.00000000000E+00  0.26034039032E+01  0.26034039032E+01  0.00000000000E+00 0.  1.
         13   -1    0    0    0    0 -0.00000000000E+00 -0.00000000000E+00 -0.10000000000E+04  0.10000000000E+04  0.00000000000E+00 0.  1.
    9000005    2    1    2  501    0  0.45293994298E+02 -0.16344005321E+01 -0.72842620546E+03  0.72984107471E+03  0.30067185521E+01 0.  0.
         13    1    3    3    0    0  0.13469430183E+02 -0.16573025135E+01 -0.20631087115E+03  0.20675673569E+03  0.00000000000E+00 0.  1.
          1    1    3    3  501    0  0.31824564115E+02  0.22901981350E-01 -0.52211533431E+03  0.52308433902E+03  0.00000000000E+00 0.  1.
         21    1    1    2  502  501 -0.45293994298E+02  0.16344005321E+01 -0.26897039064E+03  0.27276232919E+03  0.00000000000E+00 0.  1.
<mgrwt>
<rscale>  1 0.30000000E+03</rscale>
<asrwt>0</asrwt>
<pdfrwt beam="1">  1        1 0.94669432E-02 0.30000000E+03</pdfrwt>
<pdfrwt beam="2">0</pdfrwt>
<totfact> 0.81519469E+02</totfact>
</mgrwt>
</event>
<event>
 6    1  0.1956957E-002  0.3000000E+03  0.7818608E-02  0.1093470E+00
          3   -1    0    0  502    0  0.00000000000E+00  0.00000000000E+00  0.11929634779E+02  0.11929634779E+02  0.00000000000E+00 0.  1.
         13   -1    0    0    0    0 -0.00000000000E+00 -0.00000000000E+00 -0.10000000000E+04  0.10000000000E+04  0.00000000000E+00 0.  1.
    9000005    2    1    2  501    0 -0.16143120939E+01  0.45336777167E+02 -0.95428155244E+03  0.95536362699E+03  0.28894799591E+01 0.  0.
         13    1    3    3    0    0 -0.12432925516E+01  0.76081088772E+01 -0.15207731164E+03  0.15227257735E+03  0.00000000000E+00 0.  1.
          1    1    3    3  501    0 -0.37101954234E+00  0.37728668290E+02 -0.80220424079E+03  0.80309104964E+03  0.00000000000E+00 0.  1.
         21    1    1    2  502  501  0.16143120939E+01 -0.45336777167E+02 -0.33788812783E+02  0.56566007785E+02  0.00000000000E+00 0.  1.
<mgrwt>
<rscale>  1 0.30000000E+03</rscale>
<asrwt>0</asrwt>
<pdfrwt beam="1">  1        3 0.43380582E-01 0.30000000E+03</pdfrwt>
<pdfrwt beam="2">0</pdfrwt>
<totfact> 0.23001347E+01</totfact>
</mgrwt>
</event>
<event>
 6    1  0.1956957E-002  0.3000000E+03  0.7818608E-02  0.1093470E+00
          1   -1    0    0  502    0  0.00000000000E+00  0.00000000000E+00  0.15591026718E+01  0.15591026718E+01  0.00000000000E+00 0.  1.
         13   -1    0    0    0    0 -0.00000000000E+00 -0.00000000000E+00 -0.10000000000E+04  0.10000000000E+04  0.00000000000E+00 0.  1.
    9000005    2    1    2  501    0  0.33764709605E+02 -0.19516117390E+02 -0.56456264418E+03  0.56593165518E+03  0.51695917906E+01 0.  0.
         13    1    3    3    0    0  0.22131592790E+02 -0.15410768841E+02 -0.37601339549E+03  0.37697927368E+03  0.00000000000E+00 0.  1.
          1    1    3    3  501    0  0.11633116815E+02 -0.41053485490E+01 -0.18854924869E+03  0.18895238150E+03  0.00000000000E+00 0.  1.
         21    1    1    2  502  501 -0.33764709605E+02  0.19516117390E+02 -0.43387825315E+03  0.43562744749E+03  0.00000000000E+00 0.  1.
<mgrwt>
<rscale>  1 0.30000000E+03</rscale>
<asrwt>0</asrwt>
<pdfrwt beam="1">  1        1 0.56694762E-02 0.30000000E+03</pdfrwt>
<pdfrwt beam="2">0</pdfrwt>
<totfact> 0.16672994E+03</totfact>
</mgrwt>
</event>
<event>
 6    1  0.1956957E-002  0.3000000E+03  0.7818608E-02  0.1093470E+00
          3   -1    0    0  502    0  0.00000000000E+00  0.00000000000E+00  0.22017309508E+01  0.22017309508E+01  0.00000000000E+00 0.  1.
         13   -1    0    0    0    0 -0.00000000000E+00 -0.00000000000E+00 -0.10000000000E+04  0.10000000000E+04  0.00000000000E+00 0.  1.
    9000005    2    1    2  501    0  0.30625147324E+02  0.51422621879E+01 -0.87427879867E+03  0.87483846281E+03  0.38178130806E+01 0.  0.
         13    1    3    3    0    0  0.28333749756E+02  0.54171244014E+01 -0.78502923983E+03  0.78555907098E+03  0.00000000000E+00 0.  1.
          1    1    3    3  501    0  0.22913975678E+01 -0.27486221352E+00 -0.89249558848E+02  0.89279391836E+02  0.00000000000E+00 0.  1.
         21    1    1    2  502  501 -0.30625147324E+02 -0.51422621879E+01 -0.12351947037E+03  0.12736326814E+03  0.00000000000E+00 0.  1.
<mgrwt>
<rscale>  1 0.30000000E+03</rscale>
<asrwt>0</asrwt>
<pdfrwt beam="1">  1        3 0.80063112E-02 0.30000000E+03</pdfrwt>
<pdfrwt beam="2">0</pdfrwt>
<totfact> 0.47331590E+02</totfact>
</mgrwt>
</event>
<event>
 6    1  0.1956957E-002  0.3000000E+03  0.7818608E-02  0.1093470E+00
          1   -1    0    0  502    0  0.00000000000E+00  0.00000000000E+00  0.77612520609E+01  0.77612520609E+01  0.00000000000E+00 0.  1.
         13   -1    0    0    0    0 -0.00000000000E+00 -0.00000000000E+00 -0.10000000000E+04  0.10000000000E+04  0.00000000000E+00 0.  1.
    9000005    2    1    2  501    0 -0.54466468735E+02 -0.31075253650E+01 -0.10399036234E+03  0.11783909398E+03  0.97879353990E+01 0.  0.
         13    1    3    3    0    0 -0.88582824997E+01  0.24386714946E+01 -0.13159873602E+02  0.16049877281E+02  0.00000000000E+00 0.  1.
          3    1    3    3  501    0 -0.45608186235E+02 -0.55461968596E+01 -0.90830488742E+02  0.10178921670E+03  0.00000000000E+00 0.  1.
         21    1    1    2  502  501  0.54466468735E+02  0.31075253650E+01 -0.88824838559E+03  0.88992215808E+03  0.00000000000E+00 0.  1.
<mgrwt>
<rscale>  1 0.30000000E+03</rscale>
<asrwt>0</asrwt>
<pdfrwt beam="1">  1        1 0.28222794E-01 0.30000000E+03</pdfrwt>
<pdfrwt beam="2">0</pdfrwt>
<totfact> 0.18659245E+02</totfact>
</mgrwt>
</event>
<event>
 6    1  0.1956957E-002  0.3000000E+03  0.7818608E-02  0.1093470E+00
          1   -1    0    0  502    0  0.00000000000E+00  0.00000000000E+00  0.18720953711E+01  0.18720953711E+01  0.00000000000E+00 0.  1.
         13   -1    0    0    0    0 -0.00000000000E+00 -0.00000000000E+00 -0.10000000000E+04  0.10000000000E+04  0.00000000000E+00 0.  1.
    9000005    2    1    2  501    0  0.29698774434E+02  0.26889242910E+02 -0.68393173273E+03  0.68513200788E+03  0.61809870642E+01 0.  0.
         13    1    3    3    0    0  0.12543761661E+02  0.14609922646E+02 -0.29392398552E+03  0.29455407833E+03  0.00000000000E+00 0.  1.
          1    1    3    3  501    0  0.17155012773E+02  0.12279320264E+02 -0.39000774721E+03  0.39057792955E+03  0.00000000000E+00 0.  1.
         21    1    1    2  502  501 -0.29698774434E+02 -0.26889242910E+02 -0.31419617190E+03  0.31674008749E+03  0.00000000000E+00 0.  1.
<mgrwt>
<rscale>  1 0.30000000E+03</rscale>
<asrwt>0</asrwt>
<pdfrwt beam="1">  1        1 0.68076339E-02 0.30000000E+03</pdfrwt>
<pdfrwt beam="2">0</pdfrwt>
<totfact> 0.12901302E+03</totfact>
</mgrwt>
</event>
<event>
 6    1  0.1956957E-002  0.3000000E+03  0.7818608E-02  0.1093470E+00
          1   -1    0    0  502    0  0.00000000000E+00  0.00000000000E+00  0.99327014177E+00  0.99327014177E+00  0.00000000000E+00 0.  1.
         13   -1    0    0    0    0 -0.00000000000E+00 -0.00000000000E+00 -0.10000000000E+04  0.10000000000E+04  0.00000000000E+00 0.  1.
    9000005    2    1    2  501    0 -0.13773816278E+02 -0.26987084102E+02 -0.62853410777E+03  0.62928372703E+03  0.49863565616E+01 0.  0.
         13    1    3    3    0    0 -0.47946397466E+01 -0.85926923765E+01 -0.25423917242E+03  0.25442951819E+03  0.00000000000E+00 0.  1.
          1    1    3    3  501    0 -0.89791765314E+01 -0.18394391726E+02 -0.37429493534E+03  0.37485420883E+03  0.00000000000E+00 0.  1.
         21    1    1    2  502  501  0.13773816278E+02  0.26987084102E+02 -0.37047262209E+03  0.37170954312E+03  0.00000000000E+00 0.  1.
<mgrwt>
<rscale>  1 0.30000000E+03</rscale>
<asrwt>0</asrwt>
<pdfrwt beam="1">  1        1 0.36118990E-02 0.30000000E+03</pdfrwt>
<pdfrwt beam="2">0</pdfrwt>
<totfact> 0.31436016E+03</totfact>
</mgrwt>
</event>
<event>
 6    1  0.1956957E-002  0.3000000E+03  0.7818608E-02  0.1093470E+00
          3   -1    0    0  502    0  0.00000000000E+00  0.00000000000E+00  0.17680651838E+01  0.17680651838E+01  0.00000000000E+00 0.  1.
         13   -1    0    0    0    0 -0.00000000000E+00 -0.00000000000E+00 -0.10000000000E+04  0.10000000000E+04  0.00000000000E+00 0.  1.
    9000005    2    1    2  501    0  0.25967770350E+02  0.15133623809E+02 -0.84900008299E+03  0.84953962742E+03  0.36174524018E+01 0.  0.
         13    1    3    3    0    0  0.21421081876E+02  0.10860182137E+02 -0.66241224333E+03  0.66284748353E+03  0.00000000000E+00 0.  1.
          3    1    3    3  501    0  0.45466884737E+01  0.42734416723E+01 -0.18658783966E+03  0.18669214388E+03  0.00000000000E+00 0.  1.
         21    1    1    2  502  501 -0.25967770350E+02 -0.15133623809E+02 -0.14923185182E+03  0.15222843777E+03  0.00000000000E+00 0.  1.
<mgrwt>
<rscale>  1 0.30000000E+03</rscale>
<asrwt>0</asrwt>
<pdfrwt beam="1">  1        3 0.64293415E-02 0.30000000E+03</pdfrwt>
<pdfrwt beam="2">0</pdfrwt>
<totfact> 0.66939707E+02</totfact>
</mgrwt>
</event>
<event>
 6    1  0.1956957E-002  0.3000000E+03  0.7818608E-02  0.1093470E+00
          3   -1    0    0  502    0  0.00000000000E+00  0.00000000000E+00  0.21665268513E+01  0.21665268513E+01  0.00000000000E+00 0.  1.
         13   -1    0    0    0    0 -0.00000000000E+00 -0.00000000000E+00 -0.10000000000E+04  0.10000000000E+04  0.00000000000E+00 0.  1.
    9000005    2    1    2  501    0 -0.35333899277E+02  0.29240208826E+02 -0.57054305445E+03  0.57242174659E+03  0.66185147328E+01 0.  0.
         13    1    3    3    0    0 -0.27970529034E+02  0.20086241904E+02 -0.44488379221E+03  0.44621451812E+03  0.00000000000E+00 0.  1.
          3    1    3    3  501    0 -0.73633702432E+01  0.91539669224E+01 -0.12565926224E+03  0.12620722847E+03  0.00000000000E+00 0.  1.
         21    1    1    2  502  501  0.35333899277E+02 -0.29240208826E+02 -0.42729041869E+03  0.42974478026E+03  0.00000000000E+00 0.  1.
<mgrwt>
<rscale>  1 0.30000000E+03</rscale>
<asrwt>0</asrwt>
<pdfrwt beam="1">  1        3 0.78782961E-02 0.30000000E+03</pdfrwt>
<pdfrwt beam="2">0</pdfrwt>
<totfact> 0.48564310E+02</totfact>
</mgrwt>
</event>
<event>
 6    1  0.1956957E-002  0.3000000E+03  0.7818608E-02  0.1093470E+00
          3   -1    0    0  502    0  0.00000000000E+00  0.00000000000E+00  0.29842594458E+01  0.29842594458E+01  0.00000000000E+00 0.  1.
         13   -1    0    0    0    0 -0.00000000000E+00 -0.00000000000E+00 -0.10000000000E+04  0.10000000000E+04  0.00000000000E+00 0.  1.
    9000005    2    1    2  501    0  0.47948738222E+02 -0.87267997464E+01 -0.72420896151E+03  0.72585833640E+03  0.40578393868E+01 0.  0.
         13    1    3    3    0    0  0.11492229452E+02 -0.36126646119E+01 -0.19230109558E+03  0.19267805803E+03  0.00000000000E+00 0.  1.
          3    1    3    3  501    0  0.36456508770E+02 -0.51141351345E+01 -0.53190786593E+03  0.53318027837E+03  0.00000000000E+00 0.  1.
         21    1    1    2  502  501 -0.47948738222E+02  0.87267997464E+01 -0.27280677904E+03  0.27712592304E+03  0.00000000000E+00 0.  1.
<mgrwt>
<rscale>  1 0.30000000E+03</rscale>
<asrwt>0</asrwt>
<pdfrwt beam="1">  1        3 0.10851875E-01 0.30000000E+03</pdfrwt>
<pdfrwt beam="2">0</pdfrwt>
<totfact> 0.28838484E+02</totfact>
</mgrwt>
</event>
<event>
 6    1  0.1956957E-002  0.3000000E+03  0.7818608E-02  0.1093470E+00
          3   -1    0    0  502    0  0.00000000000E+00  0.00000000000E+00  0.10936988392E+01  0.10936988392E+01  0.00000000000E+00 0.  1.
         13   -1    0    0    0    0 -0.00000000000E+00 -0.00000000000E+00 -0.10000000000E+04  0.10000000000E+04  0.00000000000E+00 0.  1.
    9000005    2    1    2  501    0 -0.77804527713E+01 -0.30964238284E+02 -0.61105822886E+03  0.61193377453E+03  0.71739710050E+01 0.  0.
         13    1    3    3    0    0 -0.58246220228E+00 -0.23479123274E+01 -0.21128675642E+02  0.21266708464E+02  0.00000000000E+00 0.  1.
          3    1    3    3  501    0 -0.71979905690E+01 -0.28616325956E+02 -0.58992955321E+03  0.59066706607E+03  0.00000000000E+00 0.  1.
         21    1    1    2  502  501  0.77804527713E+01  0.30964238284E+02 -0.38784807230E+03  0.38915992431E+03  0.00000000000E+00 0.  1.
<mgrwt>
<rscale>  1 0.30000000E+03</rscale>
<asrwt>0</asrwt>
<pdfrwt beam="1">  1        3 0.39770951E-02 0.30000000E+03</pdfrwt>
<pdfrwt beam="2">0</pdfrwt>
<totfact> 0.14076285E+03</totfact>
</mgrwt>
</event>
<event>
 6    1  0.1956957E-002  0.3000000E+03  0.7818608E-02  0.1093470E+00
          1   -1    0    0  502    0  0.00000000000E+00  0.00000000000E+00  0.21568531317E+01  0.21568531317E+01  0.00000000000E+00 0.  1.
         13   -1    0    0    0    0 -0.00000000000E+00 -0.00000000000E+00 -0.10000000000E+04  0.10000000000E+04  0.00000000000E+00 0.  1.
    9000005    2    1    2  501    0  0.12565955568E+02 -0.39972722774E+02 -0.71423413183E+03  0.71546922659E+03  0.31776265491E+01 0.  0.
         13    1    3    3    0    0  0.89067167651E+01 -0.31122117231E+02 -0.53280186825E+03  0.53378436338E+03  0.00000000000E+00 0.  1.
          1    1    3    3  501    0  0.36592388024E+01 -0.88506055432E+01 -0.18143226359E+03  0.18168486320E+03  0.00000000000E+00 0.  1.
         21    1    1    2  502  501 -0.12565955568E+02  0.39972722774E+02 -0.28360901504E+03  0.28668762655E+03  0.00000000000E+00 0.  1.
<mgrwt>
<rscale>  1 0.30000000E+03</rscale>
<asrwt>0</asrwt>
<pdfrwt beam="1">  1        1 0.78431188E-02 0.30000000E+03</pdfrwt>
<pdfrwt beam="2">0</pdfrwt>
<totfact> 0.10586459E+03</totfact>
</mgrwt>
</event>
<event>
 6    1  0.1956957E-002  0.3000000E+03  0.7818608E-02  0.1093470E+00
          1   -1    0    0  502    0  0.00000000000E+00  0.00000000000E+00  0.12643753990E+01  0.12643753990E+01  0.00000000000E+00 0.  1.
         13   -1    0    0    0    0 -0.00000000000E+00 -0.00000000000E+00 -0.10000000000E+04  0.10000000000E+04  0.00000000000E+00 0.  1.
    9000005    2    1    2  501    0 -0.13122504914E+01  0.32931924724E+02 -0.68159528980E+03  0.68241609545E+03  0.57753430374E+01 0.  0.
         13    1    3    3    0    0  0.77593143369E+00  0.28621121137E+02 -0.57184162422E+03  0.57255795675E+03  0.00000000000E+00 0.  1.
          1    1    3    3  501    0 -0.20881819251E+01  0.43108035874E+01 -0.10975366558E+03  0.10985813870E+03  0.00000000000E+00 0.  1.
         21    1    1    2  502  501  0.13122504914E+01 -0.32931924724E+02 -0.31714033480E+03  0.31884827995E+03  0.00000000000E+00 0.  1.
<mgrwt>
<rscale>  1 0.30000000E+03</rscale>
<asrwt>0</asrwt>
<pdfrwt beam="1">  1        1 0.45977384E-02 0.30000000E+03</pdfrwt>
<pdfrwt beam="2">0</pdfrwt>
<totfact> 0.22381753E+03</totfact>
</mgrwt>
</event>
<event>
 6    1  0.1956957E-002  0.3000000E+03  0.7818608E-02  0.1093470E+00
          3   -1    0    0  502    0  0.00000000000E+00  0.00000000000E+00  0.27980879850E+01  0.27980879850E+01  0.00000000000E+00 0.  1.
         13   -1    0    0    0    0 -0.00000000000E+00 -0.00000000000E+00 -0.10000000000E+04  0.10000000000E+04  0.00000000000E+00 0.  1.
    9000005    2    1    2  501    0 -0.30289622290E+02 -0.10169973427E+01 -0.90943166927E+03  0.90994276496E+03  0.33732676420E+01 0.  0.
         13    1    3    3    0    0 -0.18237516313E+02 -0.18656612140E+01 -0.57975688891E+03  0.58004666876E+03  0.00000000000E+00 0.  1.
          1    1    3    3  501    0 -0.12052105977E+02  0.84866387130E+00 -0.32967478035E+03  0.32989609620E+03  0.00000000000E+00 0.  1.
         21    1    1    2  502  501  0.30289622290E+02  0.10169973427E+01 -0.87770242747E+02  0.92855323024E+02  0.00000000000E+00 0.  1.
<mgrwt>
<rscale>  1 0.30000000E+03</rscale>
<asrwt>0</asrwt>
<pdfrwt beam="1">  1        3 0.10174887E-01 0.30000000E+03</pdfrwt>
<pdfrwt beam="2">0</pdfrwt>
<totfact> 0.32092965E+02</totfact>
</mgrwt>
</event>
<event>
 6    1  0.1956957E-002  0.3000000E+03  0.7818608E-02  0.1093470E+00
          3   -1    0    0  502    0  0.00000000000E+00  0.00000000000E+00  0.33559237634E+01  0.33559237634E+01  0.00000000000E+00 0.  1.
         13   -1    0    0    0    0 -0.00000000000E+00 -0.00000000000E+00 -0.10000000000E+04  0.10000000000E+04  0.00000000000E+00 0.  1.
    9000005    2    1    2  501    0  0.38080066639E+02  0.15887963064E+02 -0.85029617609E+03  0.85130255575E+03  0.31520652784E+01 0.  0.
         13    1    3    3    0    0  0.33702808269E+02  0.13041952766E+02 -0.75193048451E+03  0.75279839622E+03  0.00000000000E+00 0.  1.
          3    1    3    3  501    0  0.43772583702E+01  0.28460102972E+01 -0.98365691578E+02  0.98504159532E+02  0.00000000000E+00 0.  1.
         21    1    1    2  502  501 -0.38080066639E+02 -0.15887963064E+02 -0.14634790015E+03  0.15205336801E+03  0.00000000000E+00 0.  1.
<mgrwt>
<rscale>  1 0.30000000E+03</rscale>
<asrwt>0</asrwt>
<pdfrwt beam="1">  1        3 0.12203385E-01 0.30000000E+03</pdfrwt>
<pdfrwt beam="2">0</pdfrwt>
<totfact> 0.23680304E+02</totfact>
</mgrwt>
</event>
<event>
 6    1  0.1956957E-002  0.3000000E+03  0.7818608E-02  0.1093470E+00
          3   -1    0    0  502    0  0.00000000000E+00  0.00000000000E+00  0.21818045159E+01  0.21818045159E+01  0.00000000000E+00 0.  1.
         13   -1    0    0    0    0 -0.00000000000E+00 -0.00000000000E+00 -0.10000000000E+04  0.10000000000E+04  0.00000000000E+00 0.  1.
    9000005    2    1    2  501    0 -0.28524344794E+02  0.23979574094E+02 -0.80049397002E+03  0.80136968293E+03  0.37569223937E+01 0.  0.
         13    1    3    3    0    0 -0.18487351943E+02  0.17498619432E+02 -0.56381064981E+03  0.56438500397E+03  0.00000000000E+00 0.  1.
          3    1    3    3  501    0 -0.10036992851E+02  0.64809546620E+01 -0.23668332021E+03  0.23698467896E+03  0.00000000000E+00 0.  1.
         21    1    1    2  502  501  0.28524344794E+02 -0.23979574094E+02 -0.19732422546E+03  0.20081212158E+03  0.00000000000E+00 0.  1.
<mgrwt>
<rscale>  1 0.30000000E+03</rscale>
<asrwt>0</asrwt>
<pdfrwt beam="1">  1        3 0.79338513E-02 0.30000000E+03</pdfrwt>
<pdfrwt beam="2">0</pdfrwt>
<totfact> 0.48023219E+02</totfact>
</mgrwt>
</event>
<event>
 6    1  0.1956957E-002  0.3000000E+03  0.7818608E-02  0.1093470E+00
          1   -1    0    0  502    0  0.00000000000E+00  0.00000000000E+00  0.87652665576E+01  0.87652665576E+01  0.00000000000E+00 0.  1.
         13   -1    0    0    0    0 -0.00000000000E+00 -0.00000000000E+00 -0.10000000000E+04  0.10000000000E+04  0.00000000000E+00 0.  1.
    9000005    2    1    2  501    0  0.50823798069E+02 -0.44190109852E+02 -0.84592737890E+03  0.84860893187E+03  0.28573772605E+01 0.  0.
         13    1    3    3    0    0  0.49659636550E+02 -0.43374473771E+02 -0.82258095481E+03  0.82521927492E+03  0.00000000000E+00 0.  1.
          3    1    3    3  501    0  0.11641615184E+01 -0.81563608103E+00 -0.23346424088E+02  0.23389656944E+02  0.00000000000E+00 0.  1.
         21    1    1    2  502  501 -0.50823798069E+02  0.44190109852E+02 -0.14530735454E+03  0.16015633469E+03  0.00000000000E+00 0.  1.
<mgrwt>
<rscale>  1 0.30000000E+03</rscale>
<asrwt>0</asrwt>
<pdfrwt beam="1">  1        1 0.31873764E-01 0.30000000E+03</pdfrwt>
<pdfrwt beam="2">0</pdfrwt>
<totfact> 0.15906439E+02</totfact>
</mgrwt>
</event>
<event>
 6    1  0.1956957E-002  0.3000000E+03  0.7818608E-02  0.1093470E+00
          1   -1    0    0  502    0  0.00000000000E+00  0.00000000000E+00  0.44245486755E+01  0.44245486755E+01  0.00000000000E+00 0.  1.
         13   -1    0    0    0    0 -0.00000000000E+00 -0.00000000000E+00 -0.10000000000E+04  0.10000000000E+04  0.00000000000E+00 0.  1.
    9000005    2    1    2  501    0 -0.62884098606E+02 -0.52006151973E+01 -0.65602877626E+03  0.65906473514E+03  0.33337024008E+01 0.  0.
         13    1    3    3    0    0 -0.60781111171E+02 -0.54657299190E+01 -0.62933015167E+03  0.63228210276E+03  0.00000000000E+00 0.  1.
          1    1    3    3  501    0 -0.21029874354E+01  0.26511472174E+00 -0.26698624589E+02  0.26782632375E+02  0.00000000000E+00 0.  1.
         21    1    1    2  502  501  0.62884098606E+02  0.52006151973E+01 -0.33954667507E+03  0.34535981354E+03  0.00000000000E+00 0.  1.
<mgrwt>
<rscale>  1 0.30000000E+03</rscale>
<asrwt>0</asrwt>
<pdfrwt beam="1">  1        1 0.16089302E-01 0.30000000E+03</pdfrwt>
<pdfrwt beam="2">0</pdfrwt>
<totfact> 0.39448100E+02</totfact>
</mgrwt>
</event>
<event>
 6    1  0.1956957E-002  0.3000000E+03  0.7818608E-02  0.1093470E+00
          1   -1    0    0  502    0  0.00000000000E+00  0.00000000000E+00  0.20805182754E+02  0.20805182754E+02  0.00000000000E+00 0.  1.
         13   -1    0    0    0    0 -0.00000000000E+00 -0.00000000000E+00 -0.10000000000E+04  0.10000000000E+04  0.00000000000E+00 0.  1.
    9000005    2    1    2  501    0 -0.49431400789E+02 -0.12265740691E+02 -0.96711596541E+03  0.96846198415E+03  0.33782257806E+01 0.  0.
         13    1    3    3    0    0 -0.44273152523E+02 -0.10886073052E+02 -0.88368603421E+03  0.88486135958E+03  0.00000000000E+00 0.  1.
          1    1    3    3  501    0 -0.51582482660E+01 -0.13796676385E+01 -0.83429931205E+02  0.83600624572E+02  0.00000000000E+00 0.  1.
         21    1    1    2  502  501  0.49431400789E+02  0.12265740691E+02 -0.12078851834E+02  0.52343198605E+02  0.00000000000E+00 0.  1.
<mgrwt>
<rscale>  1 0.30000000E+03</rscale>
<asrwt>0</asrwt>
<pdfrwt beam="1">  1        1 0.75655370E-01 0.30000000E+03</pdfrwt>
<pdfrwt beam="2">0</pdfrwt>
<totfact> 0.50717348E+01</totfact>
</mgrwt>
</event>
<event>
 6    1  0.1956957E-002  0.3000000E+03  0.7818608E-02  0.1093470E+00
          1   -1    0    0  502    0  0.00000000000E+00  0.00000000000E+00  0.17937284333E+02  0.17937284333E+02  0.00000000000E+00 0.  1.
         13   -1    0    0    0    0 -0.00000000000E+00 -0.00000000000E+00 -0.10000000000E+04  0.10000000000E+04  0.00000000000E+00 0.  1.
    9000005    2    1    2  501    0  0.18362975819E+02  0.39504046970E+02 -0.97231383240E+03  0.97329639128E+03  0.37293413733E+01 0.  0.
         13    1    3    3    0    0  0.10930327916E+02  0.26667741406E+02 -0.61555398310E+03  0.61622832344E+03  0.00000000000E+00 0.  1.
          1    1    3    3  501    0  0.74326479033E+01  0.12836305564E+02 -0.35675984930E+03  0.35706806784E+03  0.00000000000E+00 0.  1.
         21    1    1    2  502  501 -0.18362975819E+02 -0.39504046970E+02 -0.97488832676E+01  0.44640893057E+02  0.00000000000E+00 0.  1.
<mgrwt>
<rscale>  1 0.30000000E+03</rscale>
<asrwt>0</asrwt>
<pdfrwt beam="1">  1        1 0.65226626E-01 0.30000000E+03</pdfrwt>
<pdfrwt beam="2">0</pdfrwt>
<totfact> 0.62024569E+01</totfact>
</mgrwt>
</event>
<event>
 6    1  0.1956957E-002  0.3000000E+03  0.7818608E-02  0.1093470E+00
          1   -1    0    0  502    0  0.00000000000E+00  0.00000000000E+00  0.23122751508E+01  0.23122751508E+01  0.00000000000E+00 0.  1.
         13   -1    0    0    0    0 -0.00000000000E+00 -0.00000000000E+00 -0.10000000000E+04  0.10000000000E+04  0.00000000000E+00 0.  1.
    9000005    2    1    2  501    0 -0.15608507584E+02 -0.26562086860E+02 -0.88332171286E+03  0.88386923118E+03  0.42894574330E+01 0.  0.
         13    1    3    3    0    0 -0.15550525700E+02 -0.24350422440E+02 -0.82238216177E+03  0.82288953203E+03  0.00000000000E+00 0.  1.
          1    1    3    3  501    0 -0.57981883968E-01 -0.22116644199E+01 -0.60939551090E+02  0.60979699150E+02  0.00000000000E+00 0.  1.
         21    1    1    2  502  501  0.15608507584E+02  0.26562086860E+02 -0.11436601199E+03  0.11844304397E+03  0.00000000000E+00 0.  1.
<mgrwt>
<rscale>  1 0.30000000E+03</rscale>
<asrwt>0</asrwt>
<pdfrwt beam="1">  1        1 0.84082910E-02 0.30000000E+03</pdfrwt>
<pdfrwt beam="2">0</pdfrwt>
<totfact> 0.96094458E+02</totfact>
</mgrwt>
</event>
<event>
 6    1  0.1956957E-002  0.3000000E+03  0.7818608E-02  0.1093470E+00
          1   -1    0    0  502    0  0.00000000000E+00  0.00000000000E+00  0.88253445660E+01  0.88253445660E+01  0.00000000000E+00 0.  1.
         13   -1    0    0    0    0 -0.00000000000E+00 -0.00000000000E+00 -0.10000000000E+04  0.10000000000E+04  0.00000000000E+00 0.  1.
    9000005    2    1    2  501    0  0.28599485451E+02  0.21455526620E+02 -0.96202594757E+03  0.96269598991E+03  0.33726851833E+01 0.  0.
         13    1    3    3    0    0  0.86864540109E+01  0.48119933498E+01 -0.24932351513E+03  0.24952119140E+03  0.00000000000E+00 0.  1.
          1    1    3    3  501    0  0.19913031440E+02  0.16643533270E+02 -0.71270243244E+03  0.71317479851E+03  0.00000000000E+00 0.  1.
         21    1    1    2  502  501 -0.28599485451E+02 -0.21455526620E+02 -0.29148707864E+02  0.46129354653E+02  0.00000000000E+00 0.  1.
<mgrwt>
<rscale>  1 0.30000000E+03</rscale>
<asrwt>0</asrwt>
<pdfrwt beam="1">  1        1 0.32092230E-01 0.30000000E+03</pdfrwt>
<pdfrwt beam="2">0</pdfrwt>
<totfact> 0.15764644E+02</totfact>
</mgrwt>
</event>
<event>
 6    1  0.1956957E-002  0.3000000E+03  0.7818608E-02  0.1093470E+00
          1   -1    0    0  502    0  0.00000000000E+00  0.00000000000E+00  0.18038420296E+01  0.18038420296E+01  0.00000000000E+00 0.  1.
         13   -1    0    0    0    0 -0.00000000000E+00 -0.00000000000E+00 -0.10000000000E+04  0.10000000000E+04  0.00000000000E+00 0.  1.
    9000005    2    1    2  501    0 -0.35464675823E+02  0.17014762089E+02 -0.32918836309E+03  0.33164067162E+03  0.85622029734E+01 0.  0.
         13    1    3    3    0    0 -0.19185304082E+02  0.51762182595E+01 -0.14487708817E+03  0.14623351123E+03  0.00000000000E+00 0.  1.
          1    1    3    3  501    0 -0.16279371740E+02  0.11838543829E+02 -0.18431127491E+03  0.18540716039E+03  0.00000000000E+00 0.  1.
         21    1    1    2  502  501  0.35464675823E+02 -0.17014762089E+02 -0.66900779488E+03  0.67016317041E+03  0.00000000000E+00 0.  1.
<mgrwt>
<rscale>  1 0.30000000E+03</rscale>
<asrwt>0</asrwt>
<pdfrwt beam="1">  1        1 0.65594394E-02 0.30000000E+03</pdfrwt>
<pdfrwt beam="2">0</pdfrwt>
<totfact> 0.13589759E+03</totfact>
</mgrwt>
</event>
<event>
 6    1  0.1956957E-002  0.3000000E+03  0.7818608E-02  0.1093470E+00
          3   -1    0    0  502    0  0.00000000000E+00  0.00000000000E+00  0.19003480721E+01  0.19003480721E+01  0.00000000000E+00 0.  1.
         13   -1    0    0    0    0 -0.00000000000E+00 -0.00000000000E+00 -0.10000000000E+04  0.10000000000E+04  0.00000000000E+00 0.  1.
    9000005    2    1    2  501    0  0.84886434525E+01 -0.31263014185E+02 -0.83388550794E+03  0.83452138222E+03  0.33858393950E+01 0.  0.
         13    1    3    3    0    0 -0.48668340280E-01 -0.32799395023E+01 -0.73164085266E+02  0.73237584234E+02  0.00000000000E+00 0.  1.
          1    1    3    3  501    0  0.85373117928E+01 -0.27983074683E+02 -0.76072142267E+03  0.76128379799E+03  0.00000000000E+00 0.  1.
         21    1    1    2  502  501 -0.84886434525E+01  0.31263014185E+02 -0.16421414399E+03  0.16737896585E+03  0.00000000000E+00 0.  1.
<mgrwt>
<rscale>  1 0.30000000E+03</rscale>
<asrwt>0</asrwt>
<pdfrwt beam="1">  1        3 0.69103712E-02 0.30000000E+03</pdfrwt>
<pdfrwt beam="2">0</pdfrwt>
<totfact> 0.59775395E+02</totfact>
</mgrwt>
</event>
<event>
 6    1  0.1956957E-002  0.3000000E+03  0.7818608E-02  0.1093470E+00
          1   -1    0    0  502    0  0.00000000000E+00  0.00000000000E+00  0.33263341558E+01  0.33263341558E+01  0.00000000000E+00 0.  1.
         13   -1    0    0    0    0 -0.00000000000E+00 -0.00000000000E+00 -0.10000000000E+04  0.10000000000E+04  0.00000000000E+00 0.  1.
    9000005    2    1    2  501    0 -0.32247231029E+02  0.26939632681E+02 -0.84174095408E+03  0.84279667056E+03  0.35730129891E+01 0.  0.
         13    1    3    3    0    0 -0.31362544907E+02  0.25396145009E+02 -0.79846666734E+03  0.79948582993E+03  0.00000000000E+00 0.  1.
          1    1    3    3  501    0 -0.88468612178E+00  0.15434876717E+01 -0.43274286742E+02  0.43310840638E+02  0.00000000000E+00 0.  1.
         21    1    1    2  502  501  0.32247231029E+02 -0.26939632681E+02 -0.15493271176E+03  0.16052966359E+03  0.00000000000E+00 0.  1.
<mgrwt>
<rscale>  1 0.30000000E+03</rscale>
<asrwt>0</asrwt>
<pdfrwt beam="1">  1        1 0.12095786E-01 0.30000000E+03</pdfrwt>
<pdfrwt beam="2">0</pdfrwt>
<totfact> 0.58179770E+02</totfact>
</mgrwt>
</event>
<event>
 6    1  0.1956957E-002  0.3000000E+03  0.7818608E-02  0.1093470E+00
          1   -1    0    0  502    0  0.00000000000E+00  0.00000000000E+00  0.26346486195E+01  0.26346486195E+01  0.00000000000E+00 0.  1.
         13   -1    0    0    0    0 -0.00000000000E+00 -0.00000000000E+00 -0.10000000000E+04  0.10000000000E+04  0.00000000000E+00 0.  1.
    9000005    2    1    2  501    0 -0.18739097079E+02 -0.29364447709E+02 -0.86672243997E+03  0.86742741933E+03  0.30191589954E+01 0.  0.
         13    1    3    3    0    0 -0.15234436660E+01 -0.39457596400E+01 -0.11832823349E+03  0.11840380374E+03  0.00000000000E+00 0.  1.
          3    1    3    3  501    0 -0.17215653412E+02 -0.25418688069E+02 -0.74839420648E+03  0.74902361559E+03  0.00000000000E+00 0.  1.
         21    1    1    2  502  501  0.18739097079E+02  0.29364447709E+02 -0.13064291141E+03  0.13520722929E+03  0.00000000000E+00 0.  1.
<mgrwt>
<rscale>  1 0.30000000E+03</rscale>
<asrwt>0</asrwt>
<pdfrwt beam="1">  1        1 0.95805606E-02 0.30000000E+03</pdfrwt>
<pdfrwt beam="2">0</pdfrwt>
<totfact> 0.80184359E+02</totfact>
</mgrwt>
</event>
<event>
 6    1  0.1956957E-002  0.3000000E+03  0.7818608E-02  0.1093470E+00
          1   -1    0    0  502    0  0.00000000000E+00  0.00000000000E+00  0.16418920632E+01  0.16418920632E+01  0.00000000000E+00 0.  1.
         13   -1    0    0    0    0 -0.00000000000E+00 -0.00000000000E+00 -0.10000000000E+04  0.10000000000E+04  0.00000000000E+00 0.  1.
    9000005    2    1    2  501    0 -0.38877168634E+02 -0.84153680726E+01 -0.54140641126E+03  0.54296215002E+03  0.10234331687E+02 0.  0.
         13    1    3    3    0    0 -0.18727984994E+02 -0.27458013343E+01 -0.19247169266E+03  0.19340017922E+03  0.00000000000E+00 0.  1.
          3    1    3    3  501    0 -0.20149183640E+02 -0.56695667383E+01 -0.34893471860E+03  0.34956197081E+03  0.00000000000E+00 0.  1.
         21    1    1    2  502  501  0.38877168634E+02  0.84153680726E+01 -0.45695169668E+03  0.45867974204E+03  0.00000000000E+00 0.  1.
<mgrwt>
<rscale>  1 0.30000000E+03</rscale>
<asrwt>0</asrwt>
<pdfrwt beam="1">  1        1 0.59705292E-02 0.30000000E+03</pdfrwt>
<pdfrwt beam="2">0</pdfrwt>
<totfact> 0.15505190E+03</totfact>
</mgrwt>
</event>
<event>
 6    1  0.1956957E-002  0.3000000E+03  0.7818608E-02  0.1093470E+00
          1   -1    0    0  502    0  0.00000000000E+00  0.00000000000E+00  0.29922701141E+01  0.29922701141E+01  0.00000000000E+00 0.  1.
         13   -1    0    0    0    0 -0.00000000000E+00 -0.00000000000E+00 -0.10000000000E+04  0.10000000000E+04  0.00000000000E+00 0.  1.
    9000005    2    1    2  501    0  0.32540495361E+02 -0.36181855569E+02 -0.72596177686E+03  0.72761267908E+03  0.56301664139E+01 0.  0.
         13    1    3    3    0    0  0.14755430855E+02 -0.20484364970E+02 -0.38457287043E+03  0.38540060278E+03  0.00000000000E+00 0.  1.
          3    1    3    3  501    0  0.17785064505E+02 -0.15697490599E+02 -0.34138890643E+03  0.34221207630E+03  0.00000000000E+00 0.  1.
         21    1    1    2  502  501 -0.32540495361E+02  0.36181855569E+02 -0.27104595302E+03  0.27537959104E+03  0.00000000000E+00 0.  1.
<mgrwt>
<rscale>  1 0.30000000E+03</rscale>
<asrwt>0</asrwt>
<pdfrwt beam="1">  1        1 0.10881005E-01 0.30000000E+03</pdfrwt>
<pdfrwt beam="2">0</pdfrwt>
<totfact> 0.67275677E+02</totfact>
</mgrwt>
</event>
<event>
 6    1  0.1956957E-002  0.3000000E+03  0.7818608E-02  0.1093470E+00
          3   -1    0    0  502    0  0.00000000000E+00  0.00000000000E+00  0.25579673689E+01  0.25579673689E+01  0.00000000000E+00 0.  1.
         13   -1    0    0    0    0 -0.00000000000E+00 -0.00000000000E+00 -0.10000000000E+04  0.10000000000E+04  0.00000000000E+00 0.  1.
    9000005    2    1    2  501    0 -0.15038867391E+02 -0.30356191586E+02 -0.12749670343E+03  0.13195326850E+03  0.29308328791E+01 0.  0.
         13    1    3    3    0    0 -0.41460145188E+01 -0.11537074359E+02 -0.46086539941E+02  0.47689230282E+02  0.00000000000E+00 0.  1.
          3    1    3    3  501    0 -0.10892852873E+02 -0.18819117227E+02 -0.81410163493E+02  0.84264038219E+02  0.00000000000E+00 0.  1.
         21    1    1    2  502  501  0.15038867391E+02  0.30356191586E+02 -0.86994532920E+03  0.87060469887E+03  0.00000000000E+00 0.  1.
<mgrwt>
<rscale>  1 0.30000000E+03</rscale>
<asrwt>0</asrwt>
<pdfrwt beam="1">  1        3 0.93017191E-02 0.30000000E+03</pdfrwt>
<pdfrwt beam="2">0</pdfrwt>
<totfact> 0.37178217E+02</totfact>
</mgrwt>
</event>
<event>
 6    1  0.1956957E-002  0.3000000E+03  0.7818608E-02  0.1093470E+00
          1   -1    0    0  502    0  0.00000000000E+00  0.00000000000E+00  0.10494115611E+02  0.10494115611E+02  0.00000000000E+00 0.  1.
         13   -1    0    0    0    0 -0.00000000000E+00 -0.00000000000E+00 -0.10000000000E+04  0.10000000000E+04  0.00000000000E+00 0.  1.
    9000005    2    1    2  501    0 -0.13026060656E+02 -0.60553736191E+02 -0.89714618137E+03  0.89928823463E+03  0.34095417115E+01 0.  0.
         13    1    3    3    0    0 -0.51945871727E+01 -0.17310475248E+02 -0.25316520415E+03  0.25380948934E+03  0.00000000000E+00 0.  1.
          3    1    3    3  501    0 -0.78314734837E+01 -0.43243260943E+02 -0.64398097723E+03  0.64547874529E+03  0.00000000000E+00 0.  1.
         21    1    1    2  502  501  0.13026060656E+02  0.60553736191E+02 -0.92359703017E+02  0.11120588098E+03  0.00000000000E+00 0.  1.
<mgrwt>
<rscale>  1 0.30000000E+03</rscale>
<asrwt>0</asrwt>
<pdfrwt beam="1">  1        1 0.38160501E-01 0.30000000E+03</pdfrwt>
<pdfrwt beam="2">0</pdfrwt>
<totfact> 0.12570088E+02</totfact>
</mgrwt>
</event>
<event>
 6    1  0.1956957E-002  0.3000000E+03  0.7818608E-02  0.1093470E+00
          1   -1    0    0  502    0  0.00000000000E+00  0.00000000000E+00  0.21199355950E+02  0.21199355950E+02  0.00000000000E+00 0.  1.
         13   -1    0    0    0    0 -0.00000000000E+00 -0.00000000000E+00 -0.10000000000E+04  0.10000000000E+04  0.00000000000E+00 0.  1.
    9000005    2    1    2  501    0 -0.55656938799E+02  0.39080013667E+02 -0.94085822217E+03  0.94332400887E+03  0.45879384281E+01 0.  0.
         13    1    3    3    0    0 -0.51370890257E+02  0.37426200759E+02 -0.88115618763E+03  0.88344547985E+03  0.00000000000E+00 0.  1.
          1    1    3    3  501    0 -0.42860485429E+01  0.16538129086E+01 -0.59702034543E+02  0.59878529021E+02  0.00000000000E+00 0.  1.
         21    1    1    2  502  501  0.55656938799E+02 -0.39080013667E+02 -0.37942421878E+02  0.77875347080E+02  0.00000000000E+00 0.  1.
<mgrwt>
<rscale>  1 0.30000000E+03</rscale>
<asrwt>0</asrwt>
<pdfrwt beam="1">  1        1 0.77088730E-01 0.30000000E+03</pdfrwt>
<pdfrwt beam="2">0</pdfrwt>
<totfact> 0.49427795E+01</totfact>
</mgrwt>
</event>
<event>
 6    1  0.1956957E-002  0.3000000E+03  0.7818608E-02  0.1093470E+00
          1   -1    0    0  502    0  0.00000000000E+00  0.00000000000E+00  0.14817390918E+01  0.14817390918E+01  0.00000000000E+00 0.  1.
         13   -1    0    0    0    0 -0.00000000000E+00 -0.00000000000E+00 -0.10000000000E+04  0.10000000000E+04  0.00000000000E+00 0.  1.
    9000005    2    1    2  501    0  0.27046171030E+02  0.15117918419E+02 -0.79566898439E+03  0.79627970253E+03  0.34907188663E+01 0.  0.
         13    1    3    3    0    0  0.19269595944E+02  0.90709063450E+01 -0.56046211450E+03  0.56086663340E+03  0.00000000000E+00 0.  1.
          1    1    3    3  501    0  0.77765750859E+01  0.60470120739E+01 -0.23520686989E+03  0.23541306913E+03  0.00000000000E+00 0.  1.
         21    1    1    2  502  501 -0.27046171030E+02 -0.15117918419E+02 -0.20284927652E+03  0.20520203656E+03  0.00000000000E+00 0.  1.
<mgrwt>
<rscale>  1 0.30000000E+03</rscale>
<asrwt>0</asrwt>
<pdfrwt beam="1">  1        1 0.53881535E-02 0.30000000E+03</pdfrwt>
<pdfrwt beam="2">0</pdfrwt>
<totfact> 0.17908102E+03</totfact>
</mgrwt>
</event>
<event>
 6    1  0.1956957E-002  0.3000000E+03  0.7818608E-02  0.1093470E+00
          1   -1    0    0  502    0  0.00000000000E+00  0.00000000000E+00  0.14196691488E+02  0.14196691488E+02  0.00000000000E+00 0.  1.
         13   -1    0    0    0    0 -0.00000000000E+00 -0.00000000000E+00 -0.10000000000E+04  0.10000000000E+04  0.00000000000E+00 0.  1.
    9000005    2    1    2  501    0 -0.49266599629E+02  0.67985164295E+01 -0.95370210351E+03  0.95500289935E+03  0.30688548586E+01 0.  0.
         13    1    3    3    0    0 -0.14999946151E+02  0.34669847568E+01 -0.30061169497E+03  0.30100566360E+03  0.00000000000E+00 0.  1.
          3    1    3    3  501    0 -0.34266653478E+02  0.33315316727E+01 -0.65309040854E+03  0.65399723575E+03  0.00000000000E+00 0.  1.
         21    1    1    2  502  501  0.49266599629E+02 -0.67985164295E+01 -0.32101205004E+02  0.59193792136E+02  0.00000000000E+00 0.  1.
<mgrwt>
<rscale>  1 0.30000000E+03</rscale>
<asrwt>0</asrwt>
<pdfrwt beam="1">  1        1 0.51624442E-01 0.30000000E+03</pdfrwt>
<pdfrwt beam="2">0</pdfrwt>
<totfact> 0.84615025E+01</totfact>
</mgrwt>
</event>
<event>
 6    1  0.1956957E-002  0.3000000E+03  0.7818608E-02  0.1093470E+00
          1   -1    0    0  502    0  0.00000000000E+00  0.00000000000E+00  0.11717633076E+01  0.11717633076E+01  0.00000000000E+00 0.  1.
         13   -1    0    0    0    0 -0.00000000000E+00 -0.00000000000E+00 -0.10000000000E+04  0.10000000000E+04  0.00000000000E+00 0.  1.
    9000005    2    1    2  501    0 -0.27419422877E+02  0.16711148997E+02 -0.67011303675E+03  0.67089192753E+03  0.36618497490E+01 0.  0.
         13    1    3    3    0    0 -0.65021559632E+01  0.25913215838E+01 -0.16621190446E+03  0.16635922026E+03  0.00000000000E+00 0.  1.
          3    1    3    3  501    0 -0.20917266914E+02  0.14119827413E+02 -0.50390113229E+03  0.50453270727E+03  0.00000000000E+00 0.  1.
         21    1    1    2  502  501  0.27419422877E+02 -0.16711148997E+02 -0.32871519994E+03  0.33027983578E+03  0.00000000000E+00 0.  1.
<mgrwt>
<rscale>  1 0.30000000E+03</rscale>
<asrwt>0</asrwt>
<pdfrwt beam="1">  1        1 0.42609665E-02 0.30000000E+03</pdfrwt>
<pdfrwt beam="2">0</pdfrwt>
<totfact> 0.24911152E+03</totfact>
</mgrwt>
</event>
<event>
 6    1  0.1956957E-002  0.3000000E+03  0.7818608E-02  0.1093470E+00
          1   -1    0    0  502    0  0.00000000000E+00  0.00000000000E+00  0.10295283035E+01  0.10295283035E+01  0.00000000000E+00 0.  1.
         13   -1    0    0    0    0 -0.00000000000E+00 -0.00000000000E+00 -0.10000000000E+04  0.10000000000E+04  0.00000000000E+00 0.  1.
    9000005    2    1    2  501    0  0.30986261495E+02 -0.78841901056E+01 -0.51911333607E+03  0.52010835028E+03  0.34251270607E+01 0.  0.
         13    1    3    3    0    0  0.59552146115E+01 -0.56745997753E+00 -0.11348949965E+03  0.11364705506E+03  0.00000000000E+00 0.  1.
          1    1    3    3  501    0  0.25031046884E+02 -0.73167301281E+01 -0.40562383641E+03  0.40646129522E+03  0.00000000000E+00 0.  1.
         21    1    1    2  502  501 -0.30986261495E+02  0.78841901056E+01 -0.47985713563E+03  0.48092117802E+03  0.00000000000E+00 0.  1.
<mgrwt>
<rscale>  1 0.30000000E+03</rscale>
<asrwt>0</asrwt>
<pdfrwt beam="1">  1        1 0.37437472E-02 0.30000000E+03</pdfrwt>
<pdfrwt beam="2">0</pdfrwt>
<totfact> 0.29889386E+03</totfact>
</mgrwt>
</event>
<event>
 6    1  0.1956957E-002  0.3000000E+03  0.7818608E-02  0.1093470E+00
          1   -1    0    0  502    0  0.00000000000E+00  0.00000000000E+00  0.14967152070E+01  0.14967152070E+01  0.00000000000E+00 0.  1.
         13   -1    0    0    0    0 -0.00000000000E+00 -0.00000000000E+00 -0.10000000000E+04  0.10000000000E+04  0.00000000000E+00 0.  1.
    9000005    2    1    2  501    0  0.10483742653E+02  0.34205336082E+02 -0.68788451637E+03  0.68882446960E+03  0.37587472693E+01 0.  0.
         13    1    3    3    0    0  0.37682490889E+01  0.10416960093E+02 -0.24575037632E+03  0.24599991915E+03  0.00000000000E+00 0.  1.
          3    1    3    3  501    0  0.67154935644E+01  0.23788375989E+02 -0.44213414004E+03  0.44282455045E+03  0.00000000000E+00 0.  1.
         21    1    1    2  502  501 -0.10483742653E+02 -0.34205336082E+02 -0.31061876843E+03  0.31267224561E+03  0.00000000000E+00 0.  1.
<mgrwt>
<rscale>  1 0.30000000E+03</rscale>
<asrwt>0</asrwt>
<pdfrwt beam="1">  1        1 0.54426122E-02 0.30000000E+03</pdfrwt>
<pdfrwt beam="2">0</pdfrwt>
<totfact> 0.17656959E+03</totfact>
</mgrwt>
</event>
<event>
 6    1  0.1956957E-002  0.3000000E+03  0.7818608E-02  0.1093470E+00
          3   -1    0    0  502    0  0.00000000000E+00  0.00000000000E+00  0.62393837362E+01  0.62393837362E+01  0.00000000000E+00 0.  1.
         13   -1    0    0    0    0 -0.00000000000E+00 -0.00000000000E+00 -0.10000000000E+04  0.10000000000E+04  0.00000000000E+00 0.  1.
    9000005    2    1    2  501    0  0.55916484264E+02 -0.41280925221E+01 -0.85096625229E+03  0.85283167616E+03  0.58831088099E+01 0.  0.
         13    1    3    3    0    0  0.23852775795E+02  0.11009781357E+01 -0.35220035008E+03  0.35300885777E+03  0.00000000000E+00 0.  1.
          3    1    3    3  501    0  0.32063708469E+02 -0.52290706578E+01 -0.49876590221E+03  0.49982281839E+03  0.00000000000E+00 0.  1.
         21    1    1    2  502  501 -0.55916484264E+02  0.41280925221E+01 -0.14279436397E+03  0.15340770757E+03  0.00000000000E+00 0.  1.
<mgrwt>
<rscale>  1 0.30000000E+03</rscale>
<asrwt>0</asrwt>
<pdfrwt beam="1">  1        3 0.22688716E-01 0.30000000E+03</pdfrwt>
<pdfrwt beam="2">0</pdfrwt>
<totfact> 0.79199660E+01</totfact>
</mgrwt>
</event>
<event>
 6    1  0.1956957E-002  0.3000000E+03  0.7818608E-02  0.1093470E+00
          1   -1    0    0  502    0  0.00000000000E+00  0.00000000000E+00  0.22069742390E+01  0.22069742390E+01  0.00000000000E+00 0.  1.
         13   -1    0    0    0    0 -0.00000000000E+00 -0.00000000000E+00 -0.10000000000E+04  0.10000000000E+04  0.00000000000E+00 0.  1.
    9000005    2    1    2  501    0  0.28546416744E+02  0.32370292459E+02 -0.69618565044E+03  0.69752723649E+03  0.26555664766E+01 0.  0.
         13    1    3    3    0    0  0.15885457224E+02  0.16181415942E+02 -0.35648874557E+03  0.35720919878E+03  0.00000000000E+00 0.  1.
          1    1    3    3  501    0  0.12660959519E+02  0.16188876517E+02 -0.33969690486E+03  0.34031803771E+03  0.00000000000E+00 0.  1.
         21    1    1    2  502  501 -0.28546416744E+02 -0.32370292459E+02 -0.30160737532E+03  0.30467973775E+03  0.00000000000E+00 0.  1.
<mgrwt>
<rscale>  1 0.30000000E+03</rscale>
<asrwt>0</asrwt>
<pdfrwt beam="1">  1        1 0.80253778E-02 0.30000000E+03</pdfrwt>
<pdfrwt beam="2">0</pdfrwt>
<totfact> 0.10253104E+03</totfact>
</mgrwt>
</event>
<event>
 6    1  0.1956957E-002  0.3000000E+03  0.7818608E-02  0.1093470E+00
          3   -1    0    0  502    0  0.00000000000E+00  0.00000000000E+00  0.86882767325E+01  0.86882767325E+01  0.00000000000E+00 0.  1.
         13   -1    0    0    0    0 -0.00000000000E+00 -0.00000000000E+00 -0.10000000000E+04  0.10000000000E+04  0.00000000000E+00 0.  1.
    9000005    2    1    2  501    0  0.74758247611E+02 -0.38515950306E+02 -0.71294656241E+03  0.71789722323E+03  0.33687186357E+01 0.  0.
         13    1    3    3    0    0  0.12438379283E+01 -0.27352977838E+00 -0.13103072975E+02  0.13164819509E+02  0.00000000000E+00 0.  1.
          1    1    3    3  501    0  0.73514409683E+02 -0.38242420527E+02 -0.69984348943E+03  0.70473240372E+03  0.00000000000E+00 0.  1.
         21    1    1    2  502  501 -0.74758247611E+02  0.38515950306E+02 -0.27836516086E+03  0.29079105350E+03  0.00000000000E+00 0.  1.
<mgrwt>
<rscale>  1 0.30000000E+03</rscale>
<asrwt>0</asrwt>
<pdfrwt beam="1">  1        3 0.31593800E-01 0.30000000E+03</pdfrwt>
<pdfrwt beam="2">0</pdfrwt>
<totfact> 0.42371999E+01</totfact>
</mgrwt>
</event>
<event>
 6    1  0.1956957E-002  0.3000000E+03  0.7818608E-02  0.1093470E+00
          1   -1    0    0  502    0  0.00000000000E+00  0.00000000000E+00  0.24636181673E+02  0.24636181673E+02  0.00000000000E+00 0.  1.
         13   -1    0    0    0    0 -0.00000000000E+00 -0.00000000000E+00 -0.10000000000E+04  0.10000000000E+04  0.00000000000E+00 0.  1.
    9000005    2    1    2  501    0 -0.12563588245E+03 -0.28479653963E+02 -0.78032218455E+03  0.79089122546E+03  0.32792014812E+01 0.  0.
         13    1    3    3    0    0 -0.11713035682E+03 -0.26813916969E+02 -0.73242201008E+03  0.74221324933E+03  0.00000000000E+00 0.  1.
          3    1    3    3  501    0 -0.85055256249E+01 -0.16657369939E+01 -0.47900174475E+02  0.48677976136E+02  0.00000000000E+00 0.  1.
         21    1    1    2  502  501  0.12563588245E+03  0.28479653963E+02 -0.19504163378E+03  0.23374495621E+03  0.00000000000E+00 0.  1.
<mgrwt>
<rscale>  1 0.30000000E+03</rscale>
<asrwt>0</asrwt>
<pdfrwt beam="1">  1        1 0.89586304E-01 0.30000000E+03</pdfrwt>
<pdfrwt beam="2">0</pdfrwt>
<totfact> 0.40092727E+01</totfact>
</mgrwt>
</event>
<event>
 6    1  0.1956957E-002  0.3000000E+03  0.7818608E-02  0.1093470E+00
          1   -1    0    0  502    0  0.00000000000E+00  0.00000000000E+00  0.47950976565E+01  0.47950976565E+01  0.00000000000E+00 0.  1.
         13   -1    0    0    0    0 -0.00000000000E+00 -0.00000000000E+00 -0.10000000000E+04  0.10000000000E+04  0.00000000000E+00 0.  1.
    9000005    2    1    2  501    0 -0.38613688640E+02 -0.19613325781E+02 -0.88951522524E+03  0.89057597778E+03  0.35407303722E+01 0.  0.
         13    1    3    3    0    0 -0.29854374819E+02 -0.13880000441E+02 -0.69457781676E+03  0.69535766454E+03  0.00000000000E+00 0.  1.
          1    1    3    3  501    0 -0.87593138202E+01 -0.57333253396E+01 -0.19493740848E+03  0.19521831324E+03  0.00000000000E+00 0.  1.
         21    1    1    2  502  501  0.38613688640E+02  0.19613325781E+02 -0.10568967711E+03  0.11421911988E+03  0.00000000000E+00 0.  1.
<mgrwt>
<rscale>  1 0.30000000E+03</rscale>
<asrwt>0</asrwt>
<pdfrwt beam="1">  1        1 0.17436756E-01 0.30000000E+03</pdfrwt>
<pdfrwt beam="2">0</pdfrwt>
<totfact> 0.35390342E+02</totfact>
</mgrwt>
</event>
<event>
 6    1  0.1956957E-002  0.3000000E+03  0.7818608E-02  0.1093470E+00
          1   -1    0    0  502    0  0.00000000000E+00  0.00000000000E+00  0.37459646526E+01  0.37459646526E+01  0.00000000000E+00 0.  1.
         13   -1    0    0    0    0 -0.00000000000E+00 -0.00000000000E+00 -0.10000000000E+04  0.10000000000E+04  0.00000000000E+00 0.  1.
    9000005    2    1    2  501    0  0.10744286350E+02 -0.31058691556E+02 -0.92142784770E+03  0.92202056855E+03  0.35451799009E+01 0.  0.
         13    1    3    3    0    0  0.30535274809E+00 -0.35778195457E+01 -0.12020035326E+03  0.12025397689E+03  0.00000000000E+00 0.  1.
          3    1    3    3  501    0  0.10438933602E+02 -0.27480872010E+02 -0.80122749444E+03  0.80176659166E+03  0.00000000000E+00 0.  1.
         21    1    1    2  502  501 -0.10744286350E+02  0.31058691556E+02 -0.74826187643E+02  0.81725396099E+02  0.00000000000E+00 0.  1.
<mgrwt>
<rscale>  1 0.30000000E+03</rscale>
<asrwt>0</asrwt>
<pdfrwt beam="1">  1        1 0.13621718E-01 0.30000000E+03</pdfrwt>
<pdfrwt beam="2">0</pdfrwt>
<totfact> 0.49457922E+02</totfact>
</mgrwt>
</event>
<event>
 6    1  0.1956957E-002  0.3000000E+03  0.7818608E-02  0.1093470E+00
          1   -1    0    0  502    0  0.00000000000E+00  0.00000000000E+00  0.33109673445E+01  0.33109673445E+01  0.00000000000E+00 0.  1.
         13   -1    0    0    0    0 -0.00000000000E+00 -0.00000000000E+00 -0.10000000000E+04  0.10000000000E+04  0.00000000000E+00 0.  1.
    9000005    2    1    2  501    0 -0.50362050128E+02 -0.75076902855E+01 -0.26604236741E+03  0.27089219988E+03  0.33676682966E+01 0.  0.
         13    1    3    3    0    0 -0.29239893124E+02 -0.48865704840E+01 -0.16314515303E+03  0.16581673884E+03  0.00000000000E+00 0.  1.
          1    1    3    3  501    0 -0.21122157004E+02 -0.26211198016E+01 -0.10289721438E+03  0.10507546104E+03  0.00000000000E+00 0.  1.
         21    1    1    2  502  501  0.50362050128E+02  0.75076902855E+01 -0.73064666525E+03  0.73241876747E+03  0.00000000000E+00 0.  1.
<mgrwt>
<rscale>  1 0.30000000E+03</rscale>
<asrwt>0</asrwt>
<pdfrwt beam="1">  1        1 0.12039907E-01 0.30000000E+03</pdfrwt>
<pdfrwt beam="2">0</pdfrwt>
<totfact> 0.58550190E+02</totfact>
</mgrwt>
</event>
<event>
 6    1  0.1956957E-002  0.3000000E+03  0.7818608E-02  0.1093470E+00
          3   -1    0    0  502    0  0.00000000000E+00  0.00000000000E+00  0.23711953122E+01  0.23711953122E+01  0.00000000000E+00 0.  1.
         13   -1    0    0    0    0 -0.00000000000E+00 -0.00000000000E+00 -0.10000000000E+04  0.10000000000E+04  0.00000000000E+00 0.  1.
    9000005    2    1    2  501    0 -0.23206893566E+02  0.21955710889E+02 -0.87688795342E+03  0.87747537347E+03  0.31519894119E+01 0.  0.
         13    1    3    3    0    0 -0.27094350234E+01  0.22383152655E+01 -0.12589945000E+03  0.12594849187E+03  0.00000000000E+00 0.  1.
          3    1    3    3  501    0 -0.20497458543E+02  0.19717395623E+02 -0.75098850342E+03  0.75152688160E+03  0.00000000000E+00 0.  1.
         21    1    1    2  502  501  0.23206893566E+02 -0.21955710889E+02 -0.12074085126E+03  0.12489582184E+03  0.00000000000E+00 0.  1.
<mgrwt>
<rscale>  1 0.30000000E+03</rscale>
<asrwt>0</asrwt>
<pdfrwt beam="1">  1        3 0.86225466E-02 0.30000000E+03</pdfrwt>
<pdfrwt beam="2">0</pdfrwt>
<totfact> 0.42029037E+02</totfact>
</mgrwt>
</event>
<event>
 6    1  0.1956957E-002  0.3000000E+03  0.7818608E-02  0.1093470E+00
          3   -1    0    0  502    0  0.00000000000E+00  0.00000000000E+00  0.76551524666E+01  0.76551524666E+01  0.00000000000E+00 0.  1.
         13   -1    0    0    0    0 -0.00000000000E+00 -0.00000000000E+00 -0.10000000000E+04  0.10000000000E+04  0.00000000000E+00 0.  1.
    9000005    2    1    2  501    0 -0.67840458298E+02  0.46605939085E+02 -0.66402345880E+03  0.66917416978E+03  0.96163571453E+01 0.  0.
         13    1    3    3    0    0 -0.17315387384E+02  0.16919254996E+02 -0.18305886805E+03  0.18465273624E+03  0.00000000000E+00 0.  1.
          1    1    3    3  501    0 -0.50525070914E+02  0.29686684089E+02 -0.48096459075E+03  0.48452143354E+03  0.00000000000E+00 0.  1.
         21    1    1    2  502  501  0.67840458298E+02 -0.46605939085E+02 -0.32832138873E+03  0.33848098268E+03  0.00000000000E+00 0.  1.
<mgrwt>
<rscale>  1 0.30000000E+03</rscale>
<asrwt>0</asrwt>
<pdfrwt beam="1">  1        3 0.27836977E-01 0.30000000E+03</pdfrwt>
<pdfrwt beam="2">0</pdfrwt>
<totfact> 0.53893426E+01</totfact>
</mgrwt>
</event>
<event>
 6    1  0.1956957E-002  0.3000000E+03  0.7818608E-02  0.1093470E+00
          3   -1    0    0  502    0  0.00000000000E+00  0.00000000000E+00  0.20509277593E+01  0.20509277593E+01  0.00000000000E+00 0.  1.
         13   -1    0    0    0    0 -0.00000000000E+00 -0.00000000000E+00 -0.10000000000E+04  0.10000000000E+04  0.00000000000E+00 0.  1.
    9000005    2    1    2  501    0  0.92080704408E+01  0.37624741288E+02 -0.75795852083E+03  0.75895449733E+03  0.32249045277E+01 0.  0.
         13    1    3    3    0    0  0.40049305297E+00  0.29848722533E+01 -0.76566318316E+02  0.76625524191E+02  0.00000000000E+00 0.  1.
          3    1    3    3  501    0  0.88075773878E+01  0.34639869034E+02 -0.68139220251E+03  0.68232897314E+03  0.00000000000E+00 0.  1.
         21    1    1    2  502  501 -0.92080704408E+01 -0.37624741288E+02 -0.23999055141E+03  0.24309643043E+03  0.00000000000E+00 0.  1.
<mgrwt>
<rscale>  1 0.30000000E+03</rscale>
<asrwt>0</asrwt>
<pdfrwt beam="1">  1        3 0.74579349E-02 0.30000000E+03</pdfrwt>
<pdfrwt beam="2">0</pdfrwt>
<totfact> 0.52989984E+02</totfact>
</mgrwt>
</event>
<event>
 6    1  0.1956957E-002  0.3000000E+03  0.7818608E-02  0.1093470E+00
          1   -1    0    0  502    0  0.00000000000E+00  0.00000000000E+00  0.14111601684E+02  0.14111601684E+02  0.00000000000E+00 0.  1.
         13   -1    0    0    0    0 -0.00000000000E+00 -0.00000000000E+00 -0.10000000000E+04  0.10000000000E+04  0.00000000000E+00 0.  1.
    9000005    2    1    2  501    0 -0.25314226139E+02 -0.49324371013E+02 -0.94137531483E+03  0.94301224710E+03  0.33032094561E+01 0.  0.
         13    1    3    3    0    0 -0.18343280504E+01 -0.21423176370E+01 -0.42888783541E+02  0.42981415029E+02  0.00000000000E+00 0.  1.
          1    1    3    3  501    0 -0.23479898089E+02 -0.47182053376E+02 -0.89848653128E+03  0.90003083207E+03  0.00000000000E+00 0.  1.
         21    1    1    2  502  501  0.25314226139E+02  0.49324371013E+02 -0.44513083490E+02  0.71099354586E+02  0.00000000000E+00 0.  1.
<mgrwt>
<rscale>  1 0.30000000E+03</rscale>
<asrwt>0</asrwt>
<pdfrwt beam="1">  1        1 0.51315023E-01 0.30000000E+03</pdfrwt>
<pdfrwt beam="2">0</pdfrwt>
<totfact> 0.85287548E+01</totfact>
</mgrwt>
</event>
<event>
 6    1  0.1956957E-002  0.3000000E+03  0.7818608E-02  0.1093470E+00
          1   -1    0    0  502    0  0.00000000000E+00  0.00000000000E+00  0.12957247037E+01  0.12957247037E+01  0.00000000000E+00 0.  1.
         13   -1    0    0    0    0 -0.00000000000E+00 -0.00000000000E+00 -0.10000000000E+04  0.10000000000E+04  0.00000000000E+00 0.  1.
    9000005    2    1    2  501    0  0.26714091931E+02  0.22263040682E+02 -0.62515903652E+03  0.62613531754E+03  0.35113024296E+01 0.  0.
         13    1    3    3    0    0  0.36149877603E+01  0.15862608547E+01 -0.72934579408E+02  0.73041339209E+02  0.00000000000E+00 0.  1.
          1    1    3    3  501    0  0.23099104170E+02  0.20676779827E+02 -0.55222445711E+03  0.55309397833E+03  0.00000000000E+00 0.  1.
         21    1    1    2  502  501 -0.26714091931E+02 -0.22263040682E+02 -0.37354523878E+03  0.37516040716E+03  0.00000000000E+00 0.  1.
<mgrwt>
<rscale>  1 0.30000000E+03</rscale>
<asrwt>0</asrwt>
<pdfrwt beam="1">  1        1 0.47117361E-02 0.30000000E+03</pdfrwt>
<pdfrwt beam="2">0</pdfrwt>
<totfact> 0.21623728E+03</totfact>
</mgrwt>
</event>
<event>
 6    1  0.1956957E-002  0.3000000E+03  0.7818608E-02  0.1093470E+00
          3   -1    0    0  502    0  0.00000000000E+00  0.00000000000E+00  0.38200605366E+01  0.38200605366E+01  0.00000000000E+00 0.  1.
         13   -1    0    0    0    0 -0.00000000000E+00 -0.00000000000E+00 -0.10000000000E+04  0.10000000000E+04  0.00000000000E+00 0.  1.
    9000005    2    1    2  501    0  0.22457401275E+02 -0.41575536254E+02 -0.82140879654E+03  0.82277362317E+03  0.33412352229E+01 0.  0.
         13    1    3    3    0    0  0.12910445525E+02 -0.21619547340E+02 -0.45918079612E+03  0.45987072962E+03  0.00000000000E+00 0.  1.
          1    1    3    3  501    0  0.95469557503E+01 -0.19955988914E+02 -0.36222800042E+03  0.36290289355E+03  0.00000000000E+00 0.  1.
         21    1    1    2  502  501 -0.22457401275E+02  0.41575536254E+02 -0.17477114292E+03  0.18104643737E+03  0.00000000000E+00 0.  1.
<mgrwt>
<rscale>  1 0.30000000E+03</rscale>
<asrwt>0</asrwt>
<pdfrwt beam="1">  1        3 0.13891159E-01 0.30000000E+03</pdfrwt>
<pdfrwt beam="2">0</pdfrwt>
<totfact> 0.18998916E+02</totfact>
</mgrwt>
</event>
<event>
 6    1  0.1956957E-002  0.3000000E+03  0.7818608E-02  0.1093470E+00
          3   -1    0    0  502    0  0.00000000000E+00  0.00000000000E+00  0.21895149208E+01  0.21895149208E+01  0.00000000000E+00 0.  1.
         13   -1    0    0    0    0 -0.00000000000E+00 -0.00000000000E+00 -0.10000000000E+04  0.10000000000E+04  0.00000000000E+00 0.  1.
    9000005    2    1    2  501    0 -0.43761782956E+02  0.20262529835E+01 -0.67326319417E+03  0.67469883813E+03  0.39992750246E+01 0.  0.
         13    1    3    3    0    0 -0.97329095374E+01 -0.11211224799E+01 -0.14182472887E+03  0.14216272424E+03  0.00000000000E+00 0.  1.
          1    1    3    3  501    0 -0.34028873419E+02  0.31473754634E+01 -0.53143846530E+03  0.53253611389E+03  0.00000000000E+00 0.  1.
         21    1    1    2  502  501  0.43761782956E+02 -0.20262529835E+01 -0.32454729091E+03  0.32749067679E+03  0.00000000000E+00 0.  1.
<mgrwt>
<rscale>  1 0.30000000E+03</rscale>
<asrwt>0</asrwt>
<pdfrwt beam="1">  1        3 0.79618892E-02 0.30000000E+03</pdfrwt>
<pdfrwt beam="2">0</pdfrwt>
<totfact> 0.47753727E+02</totfact>
</mgrwt>
</event>
<event>
 6    1  0.1956957E-002  0.3000000E+03  0.7818608E-02  0.1093470E+00
          1   -1    0    0  502    0  0.00000000000E+00  0.00000000000E+00  0.43593759321E+01  0.43593759321E+01  0.00000000000E+00 0.  1.
         13   -1    0    0    0    0 -0.00000000000E+00 -0.00000000000E+00 -0.10000000000E+04  0.10000000000E+04  0.00000000000E+00 0.  1.
    9000005    2    1    2  501    0 -0.11352626184E+02 -0.30245695139E+02 -0.93574150910E+03  0.93630360344E+03  0.29294650022E+01 0.  0.
         13    1    3    3    0    0 -0.31512297245E+01 -0.98508586499E+01 -0.33717533843E+03  0.33733392730E+03  0.00000000000E+00 0.  1.
          1    1    3    3  501    0 -0.82013964592E+01 -0.20394836489E+02 -0.59856617067E+03  0.59896967614E+03  0.00000000000E+00 0.  1.
         21    1    1    2  502  501  0.11352626184E+02  0.30245695139E+02 -0.59899114971E+02  0.68055772496E+02  0.00000000000E+00 0.  1.
<mgrwt>
<rscale>  1 0.30000000E+03</rscale>
<asrwt>0</asrwt>
<pdfrwt beam="1">  1        1 0.15852310E-01 0.30000000E+03</pdfrwt>
<pdfrwt beam="2">0</pdfrwt>
<totfact> 0.40248445E+02</totfact>
</mgrwt>
</event>
<event>
 6    1  0.1956957E-002  0.3000000E+03  0.7818608E-02  0.1093470E+00
          1   -1    0    0  502    0  0.00000000000E+00  0.00000000000E+00  0.35486548868E+01  0.35486548868E+01  0.00000000000E+00 0.  1.
         13   -1    0    0    0    0 -0.00000000000E+00 -0.00000000000E+00 -0.10000000000E+04  0.10000000000E+04  0.00000000000E+00 0.  1.
    9000005    2    1    2  501    0 -0.22834034953E+02 -0.42669492554E+02 -0.79054326590E+03  0.79202982397E+03  0.32416124705E+01 0.  0.
         13    1    3    3    0    0 -0.12621898470E+01 -0.39642297507E+01 -0.76411773164E+02  0.76524945728E+02  0.00000000000E+00 0.  1.
          1    1    3    3  501    0 -0.21571845106E+02 -0.38705262803E+02 -0.71413149274E+03  0.71550487825E+03  0.00000000000E+00 0.  1.
         21    1    1    2  502  501  0.22834034953E+02  0.42669492554E+02 -0.20590807921E+03  0.21151883091E+03  0.00000000000E+00 0.  1.
<mgrwt>
<rscale>  1 0.30000000E+03</rscale>
<asrwt>0</asrwt>
<pdfrwt beam="1">  1        1 0.12904227E-01 0.30000000E+03</pdfrwt>
<pdfrwt beam="2">0</pdfrwt>
<totfact> 0.53249006E+02</totfact>
</mgrwt>
</event>
<event>
 6    1  0.1956957E-002  0.3000000E+03  0.7818608E-02  0.1093470E+00
          3   -1    0    0  502    0  0.00000000000E+00  0.00000000000E+00  0.43237616427E+01  0.43237616427E+01  0.00000000000E+00 0.  1.
         13   -1    0    0    0    0 -0.00000000000E+00 -0.00000000000E+00 -0.10000000000E+04  0.10000000000E+04  0.00000000000E+00 0.  1.
    9000005    2    1    2  501    0 -0.10110279451E+02  0.34594477454E+02 -0.91780188397E+03  0.91851344355E+03  0.27662487483E+01 0.  0.
         13    1    3    3    0    0 -0.63219390005E+01  0.17705620155E+02 -0.49903052159E+03  0.49938453858E+03  0.00000000000E+00 0.  1.
          3    1    3    3  501    0 -0.37883404505E+01  0.16888857299E+02 -0.41877136239E+03  0.41912890497E+03  0.00000000000E+00 0.  1.
         21    1    1    2  502  501  0.10110279451E+02 -0.34594477454E+02 -0.77874354386E+02  0.85810318097E+02  0.00000000000E+00 0.  1.
<mgrwt>
<rscale>  1 0.30000000E+03</rscale>
<asrwt>0</asrwt>
<pdfrwt beam="1">  1        3 0.15722803E-01 0.30000000E+03</pdfrwt>
<pdfrwt beam="2">0</pdfrwt>
<totfact> 0.15336210E+02</totfact>
</mgrwt>
</event>
<event>
 6    1  0.1956957E-002  0.3000000E+03  0.7818608E-02  0.1093470E+00
          1   -1    0    0  502    0  0.00000000000E+00  0.00000000000E+00  0.10378147464E+01  0.10378147464E+01  0.00000000000E+00 0.  1.
         13   -1    0    0    0    0 -0.00000000000E+00 -0.00000000000E+00 -0.10000000000E+04  0.10000000000E+04  0.00000000000E+00 0.  1.
    9000005    2    1    2  501    0 -0.28996815774E+02 -0.13660622956E+02 -0.46781469974E+03  0.46892403057E+03  0.34242090114E+01 0.  0.
         13    1    3    3    0    0 -0.81231779537E+01 -0.24437959139E+01 -0.11147065186E+03  0.11179295320E+03  0.00000000000E+00 0.  1.
          1    1    3    3  501    0 -0.20873637820E+02 -0.11216827042E+02 -0.35634404788E+03  0.35713107737E+03  0.00000000000E+00 0.  1.
         21    1    1    2  502  501  0.28996815774E+02  0.13660622956E+02 -0.53114748551E+03  0.53211378417E+03  0.00000000000E+00 0.  1.
<mgrwt>
<rscale>  1 0.30000000E+03</rscale>
<asrwt>0</asrwt>
<pdfrwt beam="1">  1        1 0.37738798E-02 0.30000000E+03</pdfrwt>
<pdfrwt beam="2">0</pdfrwt>
<totfact> 0.29554043E+03</totfact>
</mgrwt>
</event>
<event>
 6    1  0.1956957E-002  0.3000000E+03  0.7818608E-02  0.1093470E+00
          1   -1    0    0  502    0  0.00000000000E+00  0.00000000000E+00  0.17066965287E+01  0.17066965287E+01  0.00000000000E+00 0.  1.
         13   -1    0    0    0    0 -0.00000000000E+00 -0.00000000000E+00 -0.10000000000E+04  0.10000000000E+04  0.00000000000E+00 0.  1.
    9000005    2    1    2  501    0 -0.17865664439E+02  0.29272225487E+02 -0.77796170293E+03  0.77872225907E+03  0.28107645981E+01 0.  0.
         13    1    3    3    0    0 -0.61827927484E+00  0.23839265189E+01 -0.54042937817E+02  0.54099024971E+02  0.00000000000E+00 0.  1.
          3    1    3    3  501    0 -0.17247385164E+02  0.26888298968E+02 -0.72391876511E+03  0.72462323410E+03  0.00000000000E+00 0.  1.
         21    1    1    2  502  501  0.17865664439E+02 -0.29272225487E+02 -0.22033160055E+03  0.22298443746E+03  0.00000000000E+00 0.  1.
<mgrwt>
<rscale>  1 0.30000000E+03</rscale>
<asrwt>0</asrwt>
<pdfrwt beam="1">  1        1 0.62061823E-02 0.30000000E+03</pdfrwt>
<pdfrwt beam="2">0</pdfrwt>
<totfact> 0.14685854E+03</totfact>
</mgrwt>
</event>
<event>
 6    1  0.1956957E-002  0.3000000E+03  0.7818608E-02  0.1093470E+00
          1   -1    0    0  502    0  0.00000000000E+00  0.00000000000E+00  0.36878086238E+02  0.36878086238E+02  0.00000000000E+00 0.  1.
         13   -1    0    0    0    0 -0.00000000000E+00 -0.00000000000E+00 -0.10000000000E+04  0.10000000000E+04  0.00000000000E+00 0.  1.
    9000005    2    1    2  501    0  0.33842356382E+02 -0.27758394554E+02 -0.98634995775E+03  0.98732633974E+03  0.33508865679E+01 0.  0.
         13    1    3    3    0    0  0.10084202939E+02 -0.70824225080E+01 -0.30503076408E+03  0.30527957497E+03  0.00000000000E+00 0.  1.
          1    1    3    3  501    0  0.23758153443E+02 -0.20675972046E+02 -0.68131919367E+03  0.68204676477E+03  0.00000000000E+00 0.  1.
         21    1    1    2  502  501 -0.33842356382E+02  0.27758394554E+02  0.23228043985E+02  0.49551746499E+02  0.00000000000E+00 0.  1.
<mgrwt>
<rscale>  1 0.30000000E+03</rscale>
<asrwt>0</asrwt>
<pdfrwt beam="1">  1        1 0.13410241E+00 0.30000000E+03</pdfrwt>
<pdfrwt beam="2">0</pdfrwt>
<totfact> 0.21741536E+01</totfact>
</mgrwt>
</event>
<event>
 6    1  0.1956957E-002  0.3000000E+03  0.7818608E-02  0.1093470E+00
          1   -1    0    0  502    0  0.00000000000E+00  0.00000000000E+00  0.12170582070E+01  0.12170582070E+01  0.00000000000E+00 0.  1.
         13   -1    0    0    0    0 -0.00000000000E+00 -0.00000000000E+00 -0.10000000000E+04  0.10000000000E+04  0.00000000000E+00 0.  1.
    9000005    2    1    2  501    0 -0.33801020779E+02 -0.27107600478E+01 -0.61084496027E+03  0.61179988507E+03  0.42043618850E+01 0.  0.
         13    1    3    3    0    0 -0.21012020597E+02  0.32528573927E+00 -0.38303022840E+03  0.38360626519E+03  0.00000000000E+00 0.  1.
          3    1    3    3  501    0 -0.12789000182E+02 -0.30360457871E+01 -0.22781473186E+03  0.22819361988E+03  0.00000000000E+00 0.  1.
         21    1    1    2  502  501  0.33801020779E+02  0.27107600478E+01 -0.38793798152E+03  0.38941717314E+03  0.00000000000E+00 0.  1.
<mgrwt>
<rscale>  1 0.30000000E+03</rscale>
<asrwt>0</asrwt>
<pdfrwt beam="1">  1        1 0.44256755E-02 0.30000000E+03</pdfrwt>
<pdfrwt beam="2">0</pdfrwt>
<totfact> 0.23615978E+03</totfact>
</mgrwt>
</event>
<event>
 6    1  0.1956957E-002  0.3000000E+03  0.7818608E-02  0.1093470E+00
          1   -1    0    0  502    0  0.00000000000E+00  0.00000000000E+00  0.32297243328E+01  0.32297243328E+01  0.00000000000E+00 0.  1.
         13   -1    0    0    0    0 -0.00000000000E+00 -0.00000000000E+00 -0.10000000000E+04  0.10000000000E+04  0.00000000000E+00 0.  1.
    9000005    2    1    2  501    0  0.40524642483E+02 -0.30824993072E+02 -0.72060717431E+03  0.72241219390E+03  0.35001977269E+01 0.  0.
         13    1    3    3    0    0  0.19837127947E+02 -0.14247999897E+02 -0.36847194628E+03  0.36928050631E+03  0.00000000000E+00 0.  1.
          3    1    3    3  501    0  0.20687514537E+02 -0.16576993175E+02 -0.35213522803E+03  0.35313168759E+03  0.00000000000E+00 0.  1.
         21    1    1    2  502  501 -0.40524642483E+02  0.30824993072E+02 -0.27616310136E+03  0.28081753043E+03  0.00000000000E+00 0.  1.
<mgrwt>
<rscale>  1 0.30000000E+03</rscale>
<asrwt>0</asrwt>
<pdfrwt beam="1">  1        1 0.11744477E-01 0.30000000E+03</pdfrwt>
<pdfrwt beam="2">0</pdfrwt>
<totfact> 0.60578889E+02</totfact>
</mgrwt>
</event>
<event>
 6    1  0.1956957E-002  0.3000000E+03  0.7818608E-02  0.1093470E+00
          3   -1    0    0  502    0  0.00000000000E+00  0.00000000000E+00  0.11235548995E+01  0.11235548995E+01  0.00000000000E+00 0.  1.
         13   -1    0    0    0    0 -0.00000000000E+00 -0.00000000000E+00 -0.10000000000E+04  0.10000000000E+04  0.00000000000E+00 0.  1.
    9000005    2    1    2  501    0  0.27411289977E+02 -0.16961952540E+02 -0.61537860290E+03  0.61627334816E+03  0.79327232175E+01 0.  0.
         13    1    3    3    0    0  0.13839276165E+01 -0.36573344431E+01 -0.61882155821E+02  0.62005584909E+02  0.00000000000E+00 0.  1.
          1    1    3    3  501    0  0.26027362360E+02 -0.13304618097E+02 -0.55349644708E+03  0.55426776325E+03  0.00000000000E+00 0.  1.
         21    1    1    2  502  501 -0.27411289977E+02  0.16961952540E+02 -0.38349784220E+03  0.38485020674E+03  0.00000000000E+00 0.  1.
<mgrwt>
<rscale>  1 0.30000000E+03</rscale>
<asrwt>0</asrwt>
<pdfrwt beam="1">  1        3 0.40856628E-02 0.30000000E+03</pdfrwt>
<pdfrwt beam="2">0</pdfrwt>
<totfact> 0.13505841E+03</totfact>
</mgrwt>
</event>
<event>
 6    1  0.1956957E-002  0.3000000E+03  0.7818608E-02  0.1093470E+00
          3   -1    0    0  502    0  0.00000000000E+00  0.00000000000E+00  0.13347090470E+01  0.13347090470E+01  0.00000000000E+00 0.  1.
         13   -1    0    0    0    0 -0.00000000000E+00 -0.00000000000E+00 -0.10000000000E+04  0.10000000000E+04  0.00000000000E+00 0.  1.
    9000005    2    1    2  501    0  0.25724265536E+02  0.18825847466E+02 -0.74214082073E+03  0.74283721546E+03  0.42403420810E+01 0.  0.
         13    1    3    3    0    0  0.27288267416E+01  0.25606781569E+01 -0.61393720394E+02  0.61507661896E+02  0.00000000000E+00 0.  1.
          1    1    3    3  501    0  0.22995438794E+02  0.16265169309E+02 -0.68074710034E+03  0.68132955356E+03  0.00000000000E+00 0.  1.
         21    1    1    2  502  501 -0.25724265536E+02 -0.18825847466E+02 -0.25652447022E+03  0.25849749359E+03  0.00000000000E+00 0.  1.
<mgrwt>
<rscale>  1 0.30000000E+03</rscale>
<asrwt>0</asrwt>
<pdfrwt beam="1">  1        3 0.48534977E-02 0.30000000E+03</pdfrwt>
<pdfrwt beam="2">0</pdfrwt>
<totfact> 0.10358636E+03</totfact>
</mgrwt>
</event>
<event>
 6    1  0.1956957E-002  0.3000000E+03  0.7818608E-02  0.1093470E+00
          3   -1    0    0  502    0  0.00000000000E+00  0.00000000000E+00  0.11866300139E+01  0.11866300139E+01  0.00000000000E+00 0.  1.
         13   -1    0    0    0    0 -0.00000000000E+00 -0.00000000000E+00 -0.10000000000E+04  0.10000000000E+04  0.00000000000E+00 0.  1.
    9000005    2    1    2  501    0 -0.18263112479E+02  0.26747521338E+02 -0.66485017532E+03  0.66565662157E+03  0.49001062297E+01 0.  0.
         13    1    3    3    0    0 -0.41625523103E+01  0.55531786784E+01 -0.10598827064E+03  0.10621524443E+03  0.00000000000E+00 0.  1.
          1    1    3    3  501    0 -0.14100560169E+02  0.21194342659E+02 -0.55886190468E+03  0.55944137714E+03  0.00000000000E+00 0.  1.
         21    1    1    2  502  501  0.18263112479E+02 -0.26747521338E+02 -0.33396319467E+03  0.33553000845E+03  0.00000000000E+00 0.  1.
<mgrwt>
<rscale>  1 0.30000000E+03</rscale>
<asrwt>0</asrwt>
<pdfrwt beam="1">  1        3 0.43150273E-02 0.30000000E+03</pdfrwt>
<pdfrwt beam="2">0</pdfrwt>
<totfact> 0.12418382E+03</totfact>
</mgrwt>
</event>
<event>
 6    1  0.1956957E-002  0.3000000E+03  0.7818608E-02  0.1093470E+00
          1   -1    0    0  502    0  0.00000000000E+00  0.00000000000E+00  0.33214313512E+01  0.33214313512E+01  0.00000000000E+00 0.  1.
         13   -1    0    0    0    0 -0.00000000000E+00 -0.00000000000E+00 -0.10000000000E+04  0.10000000000E+04  0.00000000000E+00 0.  1.
    9000005    2    1    2  501    0  0.68237067458E+01 -0.42666966723E+02 -0.83012171231E+03  0.83125104047E+03  0.30334827866E+01 0.  0.
         13    1    3    3    0    0  0.24565386493E+01 -0.82902600242E+01 -0.17497794519E+03  0.17519145040E+03  0.00000000000E+00 0.  1.
          1    1    3    3  501    0  0.43671680966E+01 -0.34376706699E+02 -0.65514376712E+03  0.65605959007E+03  0.00000000000E+00 0.  1.
         21    1    1    2  502  501 -0.68237067458E+01  0.42666966723E+02 -0.16655685634E+03  0.17207039088E+03  0.00000000000E+00 0.  1.
<mgrwt>
<rscale>  1 0.30000000E+03</rscale>
<asrwt>0</asrwt>
<pdfrwt beam="1">  1        1 0.12077958E-01 0.30000000E+03</pdfrwt>
<pdfrwt beam="2">0</pdfrwt>
<totfact> 0.58297509E+02</totfact>
</mgrwt>
</event>
<event>
 6    1  0.1956957E-002  0.3000000E+03  0.7818608E-02  0.1093470E+00
          1   -1    0    0  502    0  0.00000000000E+00  0.00000000000E+00  0.20155812212E+02  0.20155812212E+02  0.00000000000E+00 0.  1.
         13   -1    0    0    0    0 -0.00000000000E+00 -0.00000000000E+00 -0.10000000000E+04  0.10000000000E+04  0.00000000000E+00 0.  1.
    9000005    2    1    2  501    0  0.10820366923E+02 -0.35073278103E+02 -0.98265328064E+03  0.98334404534E+03  0.32903466497E+01 0.  0.
         13    1    3    3    0    0  0.10889251419E+02 -0.34512091145E+02 -0.95590863986E+03  0.95659342878E+03  0.00000000000E+00 0.  1.
          1    1    3    3  501    0 -0.68884495443E-01 -0.56118695834E+00 -0.26744640784E+02  0.26750616564E+02  0.00000000000E+00 0.  1.
         21    1    1    2  502  501 -0.10820366923E+02  0.35073278103E+02  0.28090928528E+01  0.36811766868E+02  0.00000000000E+00 0.  1.
<mgrwt>
<rscale>  1 0.30000000E+03</rscale>
<asrwt>0</asrwt>
<pdfrwt beam="1">  1        1 0.73294017E-01 0.30000000E+03</pdfrwt>
<pdfrwt beam="2">0</pdfrwt>
<totfact> 0.52964626E+01</totfact>
</mgrwt>
</event>
<event>
 6    1  0.1956957E-002  0.3000000E+03  0.7818608E-02  0.1093470E+00
          3   -1    0    0  502    0  0.00000000000E+00  0.00000000000E+00  0.13731929857E+02  0.13731929857E+02  0.00000000000E+00 0.  1.
         13   -1    0    0    0    0 -0.00000000000E+00 -0.00000000000E+00 -0.10000000000E+04  0.10000000000E+04  0.00000000000E+00 0.  1.
    9000005    2    1    2  501    0 -0.58846725388E+02 -0.35545653938E+02 -0.90357541254E+03  0.90619353567E+03  0.34303562956E+01 0.  0.
         13    1    3    3    0    0 -0.16224899512E+02 -0.84114389845E+01 -0.25257674441E+03  0.25323706578E+03  0.00000000000E+00 0.  1.
          1    1    3    3  501    0 -0.42621825877E+02 -0.27134214953E+02 -0.65099866813E+03  0.65295646988E+03  0.00000000000E+00 0.  1.
         21    1    1    2  502  501  0.58846725388E+02  0.35545653938E+02 -0.82692657607E+02  0.10753839419E+03  0.00000000000E+00 0.  1.
<mgrwt>
<rscale>  1 0.30000000E+03</rscale>
<asrwt>0</asrwt>
<pdfrwt beam="1">  1        3 0.49934396E-01 0.30000000E+03</pdfrwt>
<pdfrwt beam="2">0</pdfrwt>
<totfact> 0.17505958E+01</totfact>
</mgrwt>
</event>
<event>
 6    1  0.1956957E-002  0.3000000E+03  0.7818608E-02  0.1093470E+00
          1   -1    0    0  502    0  0.00000000000E+00  0.00000000000E+00  0.25573585095E+02  0.25573585095E+02  0.00000000000E+00 0.  1.
         13   -1    0    0    0    0 -0.00000000000E+00 -0.00000000000E+00 -0.10000000000E+04  0.10000000000E+04  0.00000000000E+00 0.  1.
    9000005    2    1    2  501    0 -0.14537157993E+03  0.58663390485E+02 -0.58765023457E+03  0.60823666687E+03  0.66899257690E+01 0.  0.
         13    1    3    3    0    0 -0.64806784441E+02  0.29597205475E+02 -0.26320342267E+03  0.27267555004E+03  0.00000000000E+00 0.  1.
          1    1    3    3  501    0 -0.80564795490E+02  0.29066185010E+02 -0.32444681189E+03  0.33556111684E+03  0.00000000000E+00 0.  1.
         21    1    1    2  502  501  0.14537157993E+03 -0.58663390485E+02 -0.38677618034E+03  0.41733691822E+03  0.00000000000E+00 0.  1.
<mgrwt>
<rscale>  1 0.30000000E+03</rscale>
<asrwt>0</asrwt>
<pdfrwt beam="1">  1        1 0.92995051E-01 0.30000000E+03</pdfrwt>
<pdfrwt beam="2">0</pdfrwt>
<totfact> 0.38017339E+01</totfact>
</mgrwt>
</event>
<event>
 6    1  0.1956957E-002  0.3000000E+03  0.7818608E-02  0.1093470E+00
          1   -1    0    0  502    0  0.00000000000E+00  0.00000000000E+00  0.98789211229E+00  0.98789211229E+00  0.00000000000E+00 0.  1.
         13   -1    0    0    0    0 -0.00000000000E+00 -0.00000000000E+00 -0.10000000000E+04  0.10000000000E+04  0.00000000000E+00 0.  1.
    9000005    2    1    2  501    0 -0.30959240438E+02 -0.39187922832E+01 -0.54672821054E+03  0.54762870196E+03  0.34099122468E+01 0.  0.
         13    1    3    3    0    0 -0.23786353298E+02 -0.21242043506E+01 -0.39629772225E+03  0.39701660861E+03  0.00000000000E+00 0.  1.
          1    1    3    3  501    0 -0.71728871394E+01 -0.17945879326E+01 -0.15043048829E+03  0.15061209335E+03  0.00000000000E+00 0.  1.
         21    1    1    2  502  501  0.30959240438E+02  0.39187922832E+01 -0.45228389734E+03  0.45335919016E+03  0.00000000000E+00 0.  1.
<mgrwt>
<rscale>  1 0.30000000E+03</rscale>
<asrwt>0</asrwt>
<pdfrwt beam="1">  1        1 0.35923425E-02 0.30000000E+03</pdfrwt>
<pdfrwt beam="2">0</pdfrwt>
<totfact> 0.31677039E+03</totfact>
</mgrwt>
</event>
<event>
 6    1  0.1956957E-002  0.3000000E+03  0.7818608E-02  0.1093470E+00
          1   -1    0    0  502    0  0.00000000000E+00  0.00000000000E+00  0.18766419013E+01  0.18766419013E+01  0.00000000000E+00 0.  1.
         13   -1    0    0    0    0 -0.00000000000E+00 -0.00000000000E+00 -0.10000000000E+04  0.10000000000E+04  0.00000000000E+00 0.  1.
    9000005    2    1    2  501    0  0.17284105292E+02 -0.28005556026E+02 -0.82454283603E+03  0.82520392441E+03  0.27526259198E+01 0.  0.
         13    1    3    3    0    0  0.39708302416E+01 -0.44275575050E+01 -0.14986178688E+03  0.14997975171E+03  0.00000000000E+00 0.  1.
          1    1    3    3  501    0  0.13313275050E+02 -0.23577998521E+02 -0.67468104916E+03  0.67522417270E+03  0.00000000000E+00 0.  1.
         21    1    1    2  502  501 -0.17284105292E+02  0.28005556026E+02 -0.17358052207E+03  0.17667271749E+03  0.00000000000E+00 0.  1.
<mgrwt>
<rscale>  1 0.30000000E+03</rscale>
<asrwt>0</asrwt>
<pdfrwt beam="1">  1        1 0.68241668E-02 0.30000000E+03</pdfrwt>
<pdfrwt beam="2">0</pdfrwt>
<totfact> 0.12857590E+03</totfact>
</mgrwt>
</event>
<event>
 6    1  0.1956957E-002  0.3000000E+03  0.7818608E-02  0.1093470E+00
          3   -1    0    0  502    0  0.00000000000E+00  0.00000000000E+00  0.32872244264E+01  0.32872244264E+01  0.00000000000E+00 0.  1.
         13   -1    0    0    0    0 -0.00000000000E+00 -0.00000000000E+00 -0.10000000000E+04  0.10000000000E+04  0.00000000000E+00 0.  1.
    9000005    2    1    2  501    0 -0.45468013149E+02 -0.63131972131E+00 -0.80357986012E+03  0.80487335944E+03  0.35769223519E+01 0.  0.
         13    1    3    3    0    0 -0.46966752877E+01 -0.55138252871E+00 -0.10239886308E+03  0.10250799941E+03  0.00000000000E+00 0.  1.
          1    1    3    3  501    0 -0.40771337861E+02 -0.79937192605E-01 -0.70118099703E+03  0.70236536004E+03  0.00000000000E+00 0.  1.
         21    1    1    2  502  501  0.45468013149E+02  0.63131972131E+00 -0.19313291546E+03  0.19841386498E+03  0.00000000000E+00 0.  1.
<mgrwt>
<rscale>  1 0.30000000E+03</rscale>
<asrwt>0</asrwt>
<pdfrwt beam="1">  1        3 0.11953569E-01 0.30000000E+03</pdfrwt>
<pdfrwt beam="2">0</pdfrwt>
<totfact> 0.24521164E+02</totfact>
</mgrwt>
</event>
<event>
 6    1  0.1956957E-002  0.3000000E+03  0.7818608E-02  0.1093470E+00
          1   -1    0    0  502    0  0.00000000000E+00  0.00000000000E+00  0.23138749370E+01  0.23138749370E+01  0.00000000000E+00 0.  1.
         13   -1    0    0    0    0 -0.00000000000E+00 -0.00000000000E+00 -0.10000000000E+04  0.10000000000E+04  0.00000000000E+00 0.  1.
    9000005    2    1    2  501    0 -0.25079552939E+02  0.21530760482E+02 -0.86272984473E+03  0.86336872308E+03  0.31952130787E+01 0.  0.
         13    1    3    3    0    0 -0.15734663012E+01  0.19830449842E+01 -0.86596240565E+02  0.86633233482E+02  0.00000000000E+00 0.  1.
          3    1    3    3  501    0 -0.23506086638E+02  0.19547715497E+02 -0.77613360417E+03  0.77673548960E+03  0.00000000000E+00 0.  1.
         21    1    1    2  502  501  0.25079552939E+02 -0.21530760482E+02 -0.13495628033E+03  0.13894515185E+03  0.00000000000E+00 0.  1.
<mgrwt>
<rscale>  1 0.30000000E+03</rscale>
<asrwt>0</asrwt>
<pdfrwt beam="1">  1        1 0.84141084E-02 0.30000000E+03</pdfrwt>
<pdfrwt beam="2">0</pdfrwt>
<totfact> 0.96002133E+02</totfact>
</mgrwt>
</event>
<event>
 6    1  0.1956957E-002  0.3000000E+03  0.7818608E-02  0.1093470E+00
          3   -1    0    0  502    0  0.00000000000E+00  0.00000000000E+00  0.15363930565E+01  0.15363930565E+01  0.00000000000E+00 0.  1.
         13   -1    0    0    0    0 -0.00000000000E+00 -0.00000000000E+00 -0.10000000000E+04  0.10000000000E+04  0.00000000000E+00 0.  1.
    9000005    2    1    2  501    0 -0.26002067706E+02 -0.17601920998E+02 -0.79817865160E+03  0.79880504747E+03  0.37958978052E+01 0.  0.
         13    1    3    3    0    0 -0.48466242515E+01 -0.21654045333E+01 -0.16402405542E+03  0.16410993115E+03  0.00000000000E+00 0.  1.
          1    1    3    3  501    0 -0.21155443455E+02 -0.15436516464E+02 -0.63415459617E+03  0.63469511632E+03  0.00000000000E+00 0.  1.
         21    1    1    2  502  501  0.26002067706E+02  0.17601920998E+02 -0.20028495534E+03  0.20273134559E+03  0.00000000000E+00 0.  1.
<mgrwt>
<rscale>  1 0.30000000E+03</rscale>
<asrwt>0</asrwt>
<pdfrwt beam="1">  1        3 0.55868956E-02 0.30000000E+03</pdfrwt>
<pdfrwt beam="2">0</pdfrwt>
<totfact> 0.83329231E+02</totfact>
</mgrwt>
</event>
<event>
 6    1  0.1956957E-002  0.3000000E+03  0.7818608E-02  0.1093470E+00
          3   -1    0    0  502    0  0.00000000000E+00  0.00000000000E+00  0.10783140119E+01  0.10783140119E+01  0.00000000000E+00 0.  1.
         13   -1    0    0    0    0 -0.00000000000E+00 -0.00000000000E+00 -0.10000000000E+04  0.10000000000E+04  0.00000000000E+00 0.  1.
    9000005    2    1    2  501    0  0.27490829222E+01 -0.31000566431E+02 -0.65001249068E+03  0.65078383911E+03  0.58970018991E+01 0.  0.
         13    1    3    3    0    0 -0.10531864172E+01 -0.12306633822E+02 -0.21685995300E+03  0.21721142155E+03  0.00000000000E+00 0.  1.
          1    1    3    3  501    0  0.38022693394E+01 -0.18693932609E+02 -0.43315253768E+03  0.43357241756E+03  0.00000000000E+00 0.  1.
         21    1    1    2  502  501 -0.27490829222E+01  0.31000566431E+02 -0.34890919531E+03  0.35029447490E+03  0.00000000000E+00 0.  1.
<mgrwt>
<rscale>  1 0.30000000E+03</rscale>
<asrwt>0</asrwt>
<pdfrwt beam="1">  1        3 0.39211501E-02 0.30000000E+03</pdfrwt>
<pdfrwt beam="2">0</pdfrwt>
<totfact> 0.14386011E+03</totfact>
</mgrwt>
</event>
<event>
 6    1  0.1956957E-002  0.3000000E+03  0.7818608E-02  0.1093470E+00
          3   -1    0    0  502    0  0.00000000000E+00  0.00000000000E+00  0.25741134355E+01  0.25741134355E+01  0.00000000000E+00 0.  1.
         13   -1    0    0    0    0 -0.00000000000E+00 -0.00000000000E+00 -0.10000000000E+04  0.10000000000E+04  0.00000000000E+00 0.  1.
    9000005    2    1    2  501    0  0.40660818353E+02 -0.12228246016E+02 -0.77272040231E+03  0.77389226718E+03  0.30965974044E+01 0.  0.
         13    1    3    3    0    0  0.89373006059E+01 -0.30670318219E+01 -0.15048127678E+03  0.15077763988E+03  0.00000000000E+00 0.  1.
          3    1    3    3  501    0  0.31723517747E+02 -0.91612141938E+01 -0.62223912553E+03  0.62311462730E+03  0.00000000000E+00 0.  1.
         21    1    1    2  502  501 -0.40660818353E+02  0.12228246016E+02 -0.22470548426E+03  0.22868184625E+03  0.00000000000E+00 0.  1.
<mgrwt>
<rscale>  1 0.30000000E+03</rscale>
<asrwt>0</asrwt>
<pdfrwt beam="1">  1        3 0.93604322E-02 0.30000000E+03</pdfrwt>
<pdfrwt beam="2">0</pdfrwt>
<totfact> 0.36799425E+02</totfact>
</mgrwt>
</event>
<event>
 6    1  0.1956957E-002  0.3000000E+03  0.7818608E-02  0.1093470E+00
          1   -1    0    0  502    0  0.00000000000E+00  0.00000000000E+00  0.43160077183E+01  0.43160077183E+01  0.00000000000E+00 0.  1.
         13   -1    0    0    0    0 -0.00000000000E+00 -0.00000000000E+00 -0.10000000000E+04  0.10000000000E+04  0.00000000000E+00 0.  1.
    9000005    2    1    2  501    0  0.45639264695E+02  0.23500403546E+02 -0.81099814564E+03  0.81262857100E+03  0.34627609068E+01 0.  0.
         13    1    3    3    0    0  0.10276308617E+02  0.63394397536E+01 -0.20908852753E+03  0.20943687201E+03  0.00000000000E+00 0.  1.
          3    1    3    3  501    0  0.35362956078E+02  0.17160963792E+02 -0.60190961811E+03  0.60319169898E+03  0.00000000000E+00 0.  1.
         21    1    1    2  502  501 -0.45639264695E+02 -0.23500403546E+02 -0.18468584664E+03  0.19168743672E+03  0.00000000000E+00 0.  1.
<mgrwt>
<rscale>  1 0.30000000E+03</rscale>
<asrwt>0</asrwt>
<pdfrwt beam="1">  1        1 0.15694607E-01 0.30000000E+03</pdfrwt>
<pdfrwt beam="2">0</pdfrwt>
<totfact> 0.40797247E+02</totfact>
</mgrwt>
</event>
<event>
 6    1  0.1956957E-002  0.3000000E+03  0.7818608E-02  0.1093470E+00
          3   -1    0    0  502    0  0.00000000000E+00  0.00000000000E+00  0.13155754483E+01  0.13155754483E+01  0.00000000000E+00 0.  1.
         13   -1    0    0    0    0 -0.00000000000E+00 -0.00000000000E+00 -0.10000000000E+04  0.10000000000E+04  0.00000000000E+00 0.  1.
    9000005    2    1    2  501    0  0.20481569138E+02 -0.29515305888E+02 -0.44140862861E+03  0.44288298265E+03  0.36209051809E+01 0.  0.
         13    1    3    3    0    0  0.27442947346E+01 -0.22558174862E+01 -0.49441422880E+02  0.49568883006E+02  0.00000000000E+00 0.  1.
          1    1    3    3  501    0  0.17737274403E+02 -0.27259488402E+02 -0.39196720573E+03  0.39331409965E+03  0.00000000000E+00 0.  1.
         21    1    1    2  502  501 -0.20481569138E+02  0.29515305888E+02 -0.55727579594E+03  0.55843259279E+03  0.00000000000E+00 0.  1.
<mgrwt>
<rscale>  1 0.30000000E+03</rscale>
<asrwt>0</asrwt>
<pdfrwt beam="1">  1        3 0.47839208E-02 0.30000000E+03</pdfrwt>
<pdfrwt beam="2">0</pdfrwt>
<totfact> 0.10592025E+03</totfact>
</mgrwt>
</event>
<event>
 6    1  0.1956957E-002  0.3000000E+03  0.7818608E-02  0.1093470E+00
          1   -1    0    0  502    0  0.00000000000E+00  0.00000000000E+00  0.11378911437E+01  0.11378911437E+01  0.00000000000E+00 0.  1.
         13   -1    0    0    0    0 -0.00000000000E+00 -0.00000000000E+00 -0.10000000000E+04  0.10000000000E+04  0.00000000000E+00 0.  1.
    9000005    2    1    2  501    0 -0.30824916457E+02 -0.21624352689E+01 -0.69826945391E+03  0.69896112862E+03  0.34025665328E+01 0.  0.
         13    1    3    3    0    0 -0.21425293210E+02 -0.20951377086E+00 -0.46149021832E+03  0.46198734689E+03  0.00000000000E+00 0.  1.
          3    1    3    3  501    0 -0.93996232463E+01 -0.19529214981E+01 -0.23677923558E+03  0.23697378172E+03  0.00000000000E+00 0.  1.
         21    1    1    2  502  501  0.30824916457E+02  0.21624352689E+01 -0.30059265495E+03  0.30217676253E+03  0.00000000000E+00 0.  1.
<mgrwt>
<rscale>  1 0.30000000E+03</rscale>
<asrwt>0</asrwt>
<pdfrwt beam="1">  1        1 0.41377947E-02 0.30000000E+03</pdfrwt>
<pdfrwt beam="2">0</pdfrwt>
<totfact> 0.25961517E+03</totfact>
</mgrwt>
</event>
<event>
 6    1  0.1956957E-002  0.3000000E+03  0.7818608E-02  0.1093470E+00
          1   -1    0    0  502    0  0.00000000000E+00  0.00000000000E+00  0.11570825750E+01  0.11570825750E+01  0.00000000000E+00 0.  1.
         13   -1    0    0    0    0 -0.00000000000E+00 -0.00000000000E+00 -0.10000000000E+04  0.10000000000E+04  0.00000000000E+00 0.  1.
    9000005    2    1    2  501    0 -0.15252732105E+01 -0.31361293851E+02 -0.68836590024E+03  0.68909645480E+03  0.45226305750E+01 0.  0.
         13    1    3    3    0    0 -0.15058138734E+01 -0.30150744680E+02 -0.63541324516E+03  0.63612996078E+03  0.00000000000E+00 0.  1.
          1    1    3    3  501    0 -0.19459337049E-01 -0.12105491706E+01 -0.52952655083E+02  0.52966494016E+02  0.00000000000E+00 0.  1.
         21    1    1    2  502  501  0.15252732105E+01  0.31361293851E+02 -0.31047701718E+03  0.31206062778E+03  0.00000000000E+00 0.  1.
<mgrwt>
<rscale>  1 0.30000000E+03</rscale>
<asrwt>0</asrwt>
<pdfrwt beam="1">  1        1 0.42075819E-02 0.30000000E+03</pdfrwt>
<pdfrwt beam="2">0</pdfrwt>
<totfact> 0.25357300E+03</totfact>
</mgrwt>
</event>
<event>
 6    1  0.1956957E-002  0.3000000E+03  0.7818608E-02  0.1093470E+00
          3   -1    0    0  502    0  0.00000000000E+00  0.00000000000E+00  0.12401333647E+01  0.12401333647E+01  0.00000000000E+00 0.  1.
         13   -1    0    0    0    0 -0.00000000000E+00 -0.00000000000E+00 -0.10000000000E+04  0.10000000000E+04  0.00000000000E+00 0.  1.
    9000005    2    1    2  501    0  0.34008399188E+02 -0.43081140400E+01 -0.61073774158E+03  0.61170669373E+03  0.30592647666E+01 0.  0.
         13    1    3    3    0    0  0.29318208559E+02 -0.42623192207E+01 -0.50995473608E+03  0.51081460195E+03  0.00000000000E+00 0.  1.
          1    1    3    3  501    0  0.46901906284E+01 -0.45794819347E-01 -0.10078300550E+03  0.10089209178E+03  0.00000000000E+00 0.  1.
         21    1    1    2  502  501 -0.34008399188E+02  0.43081140400E+01 -0.38802212505E+03  0.38953343963E+03  0.00000000000E+00 0.  1.
<mgrwt>
<rscale>  1 0.30000000E+03</rscale>
<asrwt>0</asrwt>
<pdfrwt beam="1">  1        3 0.45095854E-02 0.30000000E+03</pdfrwt>
<pdfrwt beam="2">0</pdfrwt>
<totfact> 0.11602791E+03</totfact>
</mgrwt>
</event>
<event>
 6    1  0.1956957E-002  0.3000000E+03  0.7818608E-02  0.1093470E+00
          1   -1    0    0  502    0  0.00000000000E+00  0.00000000000E+00  0.12891330015E+01  0.12891330015E+01  0.00000000000E+00 0.  1.
         13   -1    0    0    0    0 -0.00000000000E+00 -0.00000000000E+00 -0.10000000000E+04  0.10000000000E+04  0.00000000000E+00 0.  1.
    9000005    2    1    2  501    0 -0.14503611609E+02  0.30444677444E+02 -0.66823586431E+03  0.66909798240E+03  0.39631515822E+01 0.  0.
         13    1    3    3    0    0 -0.97767515081E+01  0.18257319924E+02 -0.44174164696E+03  0.44222686175E+03  0.00000000000E+00 0.  1.
          3    1    3    3  501    0 -0.47268601012E+01  0.12187357521E+02 -0.22649421735E+03  0.22687112065E+03  0.00000000000E+00 0.  1.
         21    1    1    2  502  501  0.14503611609E+02 -0.30444677444E+02 -0.33047500269E+03  0.33219115060E+03  0.00000000000E+00 0.  1.
<mgrwt>
<rscale>  1 0.30000000E+03</rscale>
<asrwt>0</asrwt>
<pdfrwt beam="1">  1        1 0.46877663E-02 0.30000000E+03</pdfrwt>
<pdfrwt beam="2">0</pdfrwt>
<totfact> 0.21779415E+03</totfact>
</mgrwt>
</event>
<event>
 6    1  0.1956957E-002  0.3000000E+03  0.7818608E-02  0.1093470E+00
          3   -1    0    0  502    0  0.00000000000E+00  0.00000000000E+00  0.15222828577E+01  0.15222828577E+01  0.00000000000E+00 0.  1.
         13   -1    0    0    0    0 -0.00000000000E+00 -0.00000000000E+00 -0.10000000000E+04  0.10000000000E+04  0.00000000000E+00 0.  1.
    9000005    2    1    2  501    0 -0.12871187270E+02  0.28595550998E+02 -0.79650722579E+03  0.79713184185E+03  0.34698062632E+01 0.  0.
         13    1    3    3    0    0  0.97499214500E-01  0.31564030742E+00 -0.38033515206E+01  0.38176717630E+01  0.00000000000E+00 0.  1.
          1    1    3    3  501    0 -0.12968686485E+02  0.28279910690E+02 -0.79270387427E+03  0.79331417009E+03  0.00000000000E+00 0.  1.
         21    1    1    2  502  501  0.12871187270E+02 -0.28595550998E+02 -0.20197049135E+03  0.20439044101E+03  0.00000000000E+00 0.  1.
<mgrwt>
<rscale>  1 0.30000000E+03</rscale>
<asrwt>0</asrwt>
<pdfrwt beam="1">  1        3 0.55355857E-02 0.30000000E+03</pdfrwt>
<pdfrwt beam="2">0</pdfrwt>
<totfact> 0.84530808E+02</totfact>
</mgrwt>
</event>
<event>
 6    1  0.1956957E-002  0.3000000E+03  0.7818608E-02  0.1093470E+00
          1   -1    0    0  502    0  0.00000000000E+00  0.00000000000E+00  0.75621318627E+01  0.75621318627E+01  0.00000000000E+00 0.  1.
         13   -1    0    0    0    0 -0.00000000000E+00 -0.00000000000E+00 -0.10000000000E+04  0.10000000000E+04  0.00000000000E+00 0.  1.
    9000005    2    1    2  501    0 -0.46577825119E+02  0.15619697819E+02 -0.91186169285E+03  0.91319058543E+03  0.34394291597E+01 0.  0.
         13    1    3    3    0    0 -0.17475194928E+02  0.72640755137E+01 -0.36971689774E+03  0.37020093693E+03  0.00000000000E+00 0.  1.
          3    1    3    3  501    0 -0.29102630191E+02  0.83556223049E+01 -0.54214479511E+03  0.54298964850E+03  0.00000000000E+00 0.  1.
         21    1    1    2  502  501  0.46577825119E+02 -0.15619697819E+02 -0.80576175289E+02  0.94371546437E+02  0.00000000000E+00 0.  1.
<mgrwt>
<rscale>  1 0.30000000E+03</rscale>
<asrwt>0</asrwt>
<pdfrwt beam="1">  1        1 0.27498719E-01 0.30000000E+03</pdfrwt>
<pdfrwt beam="2">0</pdfrwt>
<totfact> 0.19308037E+02</totfact>
</mgrwt>
</event>
<event>
 6    1  0.1956957E-002  0.3000000E+03  0.7818608E-02  0.1093470E+00
          1   -1    0    0  502    0  0.00000000000E+00  0.00000000000E+00  0.26624810464E+01  0.26624810464E+01  0.00000000000E+00 0.  1.
         13   -1    0    0    0    0 -0.00000000000E+00 -0.00000000000E+00 -0.10000000000E+04  0.10000000000E+04  0.00000000000E+00 0.  1.
    9000005    2    1    2  501    0 -0.51264189425E+02 -0.16511322467E+01 -0.54924395408E+03  0.55164298453E+03  0.32121541930E+01 0.  0.
         13    1    3    3    0    0 -0.10172558181E+02  0.95357517125E+00 -0.10923120617E+03  0.10970800631E+03  0.00000000000E+00 0.  1.
          3    1    3    3  501    0 -0.41091631245E+02 -0.26047074179E+01 -0.44001274791E+03  0.44193497823E+03  0.00000000000E+00 0.  1.
         21    1    1    2  502  501  0.51264189425E+02  0.16511322467E+01 -0.44809356487E+03  0.45101949651E+03  0.00000000000E+00 0.  1.
<mgrwt>
<rscale>  1 0.30000000E+03</rscale>
<asrwt>0</asrwt>
<pdfrwt beam="1">  1        1 0.96817697E-02 0.30000000E+03</pdfrwt>
<pdfrwt beam="2">0</pdfrwt>
<totfact> 0.79027123E+02</totfact>
</mgrwt>
</event>
<event>
 6    1  0.1956957E-002  0.3000000E+03  0.7818608E-02  0.1093470E+00
          3   -1    0    0  502    0  0.00000000000E+00  0.00000000000E+00  0.19536265326E+01  0.19536265326E+01  0.00000000000E+00 0.  1.
         13   -1    0    0    0    0 -0.00000000000E+00 -0.00000000000E+00 -0.10000000000E+04  0.10000000000E+04  0.00000000000E+00 0.  1.
    9000005    2    1    2  501    0  0.43599054426E+02 -0.32170222946E+01 -0.54715983719E+03  0.54895263826E+03  0.73406294039E+01 0.  0.
         13    1    3    3    0    0  0.12076274355E+01 -0.21779081398E+00 -0.38855467613E+02  0.38874839682E+02  0.00000000000E+00 0.  1.
          3    1    3    3  501    0  0.42391426990E+02 -0.29992314806E+01 -0.50830436957E+03  0.51007779858E+03  0.00000000000E+00 0.  1.
         21    1    1    2  502  501 -0.43599054426E+02  0.32170222946E+01 -0.45088653628E+03  0.45300098827E+03  0.00000000000E+00 0.  1.
<mgrwt>
<rscale>  1 0.30000000E+03</rscale>
<asrwt>0</asrwt>
<pdfrwt beam="1">  1        3 0.71041115E-02 0.30000000E+03</pdfrwt>
<pdfrwt beam="2">0</pdfrwt>
<totfact> 0.57226844E+02</totfact>
</mgrwt>
</event>
<event>
 6    1  0.1956957E-002  0.3000000E+03  0.7818608E-02  0.1093470E+00
          1   -1    0    0  502    0  0.00000000000E+00  0.00000000000E+00  0.23531495993E+01  0.23531495993E+01  0.00000000000E+00 0.  1.
         13   -1    0    0    0    0 -0.00000000000E+00 -0.00000000000E+00 -0.10000000000E+04  0.10000000000E+04  0.00000000000E+00 0.  1.
    9000005    2    1    2  501    0 -0.37073706779E+02  0.16041504453E+02 -0.22346161278E+03  0.22711475288E+03  0.37721333026E+01 0.  0.
         13    1    3    3    0    0 -0.30457288435E+01  0.27019618433E+00 -0.15670364849E+02  0.15965895048E+02  0.00000000000E+00 0.  1.
          3    1    3    3  501    0 -0.34027977936E+02  0.15771308269E+02 -0.20779124793E+03  0.21114885783E+03  0.00000000000E+00 0.  1.
         21    1    1    2  502  501  0.37073706779E+02 -0.16041504453E+02 -0.77418523762E+03  0.77523839672E+03  0.00000000000E+00 0.  1.
<mgrwt>
<rscale>  1 0.30000000E+03</rscale>
<asrwt>0</asrwt>
<pdfrwt beam="1">  1        1 0.85569257E-02 0.30000000E+03</pdfrwt>
<pdfrwt beam="2">0</pdfrwt>
<totfact> 0.93783162E+02</totfact>
</mgrwt>
</event>
<event>
 6    1  0.1956957E-002  0.3000000E+03  0.7818608E-02  0.1093470E+00
          1   -1    0    0  502    0  0.00000000000E+00  0.00000000000E+00  0.30881489341E+02  0.30881489341E+02  0.00000000000E+00 0.  1.
         13   -1    0    0    0    0 -0.00000000000E+00 -0.00000000000E+00 -0.10000000000E+04  0.10000000000E+04  0.00000000000E+00 0.  1.
    9000005    2    1    2  501    0  0.11984330391E+03  0.19049369548E+02 -0.85735757583E+03  0.86590936282E+03  0.34228391668E+01 0.  0.
         13    1    3    3    0    0  0.31406659725E+02  0.50878479445E+01 -0.23566941501E+03  0.23780735405E+03  0.00000000000E+00 0.  1.
          3    1    3    3  501    0  0.88436644188E+02  0.13961521604E+02 -0.62168816082E+03  0.62810200877E+03  0.00000000000E+00 0.  1.
         21    1    1    2  502  501 -0.11984330391E+03 -0.19049369548E+02 -0.11176093483E+03  0.16497212652E+03  0.00000000000E+00 0.  1.
<mgrwt>
<rscale>  1 0.30000000E+03</rscale>
<asrwt>0</asrwt>
<pdfrwt beam="1">  1        1 0.11229656E+00 0.30000000E+03</pdfrwt>
<pdfrwt beam="2">0</pdfrwt>
<totfact> 0.28793733E+01</totfact>
</mgrwt>
</event>
<event>
 6    1  0.1956957E-002  0.3000000E+03  0.7818608E-02  0.1093470E+00
          1   -1    0    0  502    0  0.00000000000E+00  0.00000000000E+00  0.42711546506E+02  0.42711546506E+02  0.00000000000E+00 0.  1.
         13   -1    0    0    0    0 -0.00000000000E+00 -0.00000000000E+00 -0.10000000000E+04  0.10000000000E+04  0.00000000000E+00 0.  1.
    9000005    2    1    2  501    0 -0.19749708304E+01 -0.42595145191E+02 -0.98877604829E+03  0.98970479666E+03  0.43890717641E+01 0.  0.
         13    1    3    3    0    0 -0.66932431326E+00 -0.17295165943E+02 -0.35263392448E+03  0.35305843065E+03  0.00000000000E+00 0.  1.
          3    1    3    3  501    0 -0.13056465171E+01 -0.25299979248E+02 -0.63614212381E+03  0.63664636601E+03  0.00000000000E+00 0.  1.
         21    1    1    2  502  501  0.19749708304E+01  0.42595145191E+02  0.31487594796E+02  0.53006749850E+02  0.00000000000E+00 0.  1.
<mgrwt>
<rscale>  1 0.30000000E+03</rscale>
<asrwt>0</asrwt>
<pdfrwt beam="1">  1        1 0.15531504E+00 0.30000000E+03</pdfrwt>
<pdfrwt beam="2">0</pdfrwt>
<totfact> 0.16888349E+01</totfact>
</mgrwt>
</event>
<event>
 6    1  0.1956957E-002  0.3000000E+03  0.7818608E-02  0.1093470E+00
          1   -1    0    0  502    0  0.00000000000E+00  0.00000000000E+00  0.15666276855E+01  0.15666276855E+01  0.00000000000E+00 0.  1.
         13   -1    0    0    0    0 -0.00000000000E+00 -0.00000000000E+00 -0.10000000000E+04  0.10000000000E+04  0.00000000000E+00 0.  1.
    9000005    2    1    2  501    0 -0.28717222247E+02  0.27004995780E+02 -0.49856666732E+03  0.50014796886E+03  0.50319327385E+01 0.  0.
         13    1    3    3    0    0 -0.43520133841E+01  0.36945398605E+01 -0.97106543410E+02  0.97274202224E+02  0.00000000000E+00 0.  1.
          1    1    3    3  501    0 -0.24365208863E+02  0.23310455919E+02 -0.40146012391E+03  0.40287376664E+03  0.00000000000E+00 0.  1.
         21    1    1    2  502  501  0.28717222247E+02 -0.27004995780E+02 -0.49986670500E+03  0.50141865882E+03  0.00000000000E+00 0.  1.
<mgrwt>
<rscale>  1 0.30000000E+03</rscale>
<asrwt>0</asrwt>
<pdfrwt beam="1">  1        1 0.56968400E-02 0.30000000E+03</pdfrwt>
<pdfrwt beam="2">0</pdfrwt>
<totfact> 0.16560677E+03</totfact>
</mgrwt>
</event>
<event>
 6    1  0.1956957E-002  0.3000000E+03  0.7818608E-02  0.1093470E+00
          3   -1    0    0  502    0  0.00000000000E+00  0.00000000000E+00  0.93410141624E+01  0.93410141624E+01  0.00000000000E+00 0.  1.
         13   -1    0    0    0    0 -0.00000000000E+00 -0.00000000000E+00 -0.10000000000E+04  0.10000000000E+04  0.00000000000E+00 0.  1.
    9000005    2    1    2  501    0 -0.95954872701E+02  0.92360591458E+01 -0.47503164854E+03  0.48478006122E+03  0.79998911101E+01 0.  0.
         13    1    3    3    0    0 -0.92906631829E+02  0.10287317573E+02 -0.45684706940E+03  0.46631182267E+03  0.00000000000E+00 0.  1.
          1    1    3    3  501    0 -0.30482408725E+01 -0.10512584272E+01 -0.18184579143E+02  0.18468238555E+02  0.00000000000E+00 0.  1.
         21    1    1    2  502  501  0.95954872701E+02 -0.92360591458E+01 -0.51562733730E+03  0.52456095294E+03  0.00000000000E+00 0.  1.
<mgrwt>
<rscale>  1 0.30000000E+03</rscale>
<asrwt>0</asrwt>
<pdfrwt beam="1">  1        3 0.33967396E-01 0.30000000E+03</pdfrwt>
<pdfrwt beam="2">0</pdfrwt>
<totfact> 0.36882596E+01</totfact>
</mgrwt>
</event>
<event>
 6    1  0.1956957E-002  0.3000000E+03  0.7818608E-02  0.1093470E+00
          1   -1    0    0  502    0  0.00000000000E+00  0.00000000000E+00  0.11088780531E+01  0.11088780531E+01  0.00000000000E+00 0.  1.
         13   -1    0    0    0    0 -0.00000000000E+00 -0.00000000000E+00 -0.10000000000E+04  0.10000000000E+04  0.00000000000E+00 0.  1.
    9000005    2    1    2  501    0 -0.15496854820E+02  0.26407136946E+02 -0.69447918802E+03  0.69516098232E+03  0.31558431214E+01 0.  0.
         13    1    3    3    0    0 -0.35457708523E+01  0.61980986556E+01 -0.13375083756E+03  0.13394131352E+03  0.00000000000E+00 0.  1.
          3    1    3    3  501    0 -0.11951083967E+02  0.20209038291E+02 -0.56072835046E+03  0.56121966880E+03  0.00000000000E+00 0.  1.
         21    1    1    2  502  501  0.15496854820E+02 -0.26407136946E+02 -0.30441193392E+03  0.30594789574E+03  0.00000000000E+00 0.  1.
<mgrwt>
<rscale>  1 0.30000000E+03</rscale>
<asrwt>0</asrwt>
<pdfrwt beam="1">  1        1 0.40322923E-02 0.30000000E+03</pdfrwt>
<pdfrwt beam="2">0</pdfrwt>
<totfact> 0.26923000E+03</totfact>
</mgrwt>
</event>
<event>
 6    1  0.1956957E-002  0.3000000E+03  0.7818608E-02  0.1093470E+00
          1   -1    0    0  502    0  0.00000000000E+00  0.00000000000E+00  0.17935528073E+01  0.17935528073E+01  0.00000000000E+00 0.  1.
         13   -1    0    0    0    0 -0.00000000000E+00 -0.00000000000E+00 -0.10000000000E+04  0.10000000000E+04  0.00000000000E+00 0.  1.
    9000005    2    1    2  501    0 -0.22096042458E+02 -0.21965045772E+02 -0.83807487776E+03  0.83865919757E+03  0.30084242376E+01 0.  0.
         13    1    3    3    0    0 -0.11830566468E+02 -0.13682975837E+02 -0.46876709433E+03  0.46911595033E+03  0.00000000000E+00 0.  1.
          1    1    3    3  501    0 -0.10265475990E+02 -0.82820699353E+01 -0.36930778343E+03  0.36954324724E+03  0.00000000000E+00 0.  1.
         21    1    1    2  502  501  0.22096042458E+02  0.21965045772E+02 -0.16013156943E+03  0.16313435523E+03  0.00000000000E+00 0.  1.
<mgrwt>
<rscale>  1 0.30000000E+03</rscale>
<asrwt>0</asrwt>
<pdfrwt beam="1">  1        1 0.65220240E-02 0.30000000E+03</pdfrwt>
<pdfrwt beam="2">0</pdfrwt>
<totfact> 0.13699066E+03</totfact>
</mgrwt>
</event>
<event>
 6    1  0.1956957E-002  0.3000000E+03  0.7818608E-02  0.1093470E+00
          1   -1    0    0  502    0  0.00000000000E+00  0.00000000000E+00  0.53994292571E+01  0.53994292571E+01  0.00000000000E+00 0.  1.
         13   -1    0    0    0    0 -0.00000000000E+00 -0.00000000000E+00 -0.10000000000E+04  0.10000000000E+04  0.00000000000E+00 0.  1.
    9000005    2    1    2  501    0  0.76284882686E+01 -0.65532190464E+02 -0.71826540466E+03  0.72129771185E+03  0.35405884783E+01 0.  0.
         13    1    3    3    0    0  0.60177488355E+01 -0.37762589918E+02 -0.42318343033E+03  0.42490756901E+03  0.00000000000E+00 0.  1.
          3    1    3    3  501    0  0.16107394331E+01 -0.27769600545E+02 -0.29508197434E+03  0.29639014284E+03  0.00000000000E+00 0.  1.
         21    1    1    2  502  501 -0.76284882686E+01  0.65532190464E+02 -0.27633516608E+03  0.28410171740E+03  0.00000000000E+00 0.  1.
<mgrwt>
<rscale>  1 0.30000000E+03</rscale>
<asrwt>0</asrwt>
<pdfrwt beam="1">  1        1 0.19634330E-01 0.30000000E+03</pdfrwt>
<pdfrwt beam="2">0</pdfrwt>
<totfact> 0.30177589E+02</totfact>
</mgrwt>
</event>
<event>
 6    1  0.1956957E-002  0.3000000E+03  0.7818608E-02  0.1093470E+00
          3   -1    0    0  502    0  0.00000000000E+00  0.00000000000E+00  0.48348674926E+01  0.48348674926E+01  0.00000000000E+00 0.  1.
         13   -1    0    0    0    0 -0.00000000000E+00 -0.00000000000E+00 -0.10000000000E+04  0.10000000000E+04  0.00000000000E+00 0.  1.
    9000005    2    1    2  501    0  0.45481891599E+02  0.49290075088E+02 -0.36614585781E+03  0.37225019972E+03  0.30509066488E+01 0.  0.
         13    1    3    3    0    0  0.24354445036E+02  0.25863563389E+02 -0.18570844960E+03  0.18907588730E+03  0.00000000000E+00 0.  1.
          3    1    3    3  501    0  0.21127446562E+02  0.23426511699E+02 -0.18043740821E+03  0.18317431242E+03  0.00000000000E+00 0.  1.
         21    1    1    2  502  501 -0.45481891599E+02 -0.49290075088E+02 -0.62901927470E+03  0.63258466778E+03  0.00000000000E+00 0.  1.
<mgrwt>
<rscale>  1 0.30000000E+03</rscale>
<asrwt>0</asrwt>
<pdfrwt beam="1">  1        3 0.17581373E-01 0.30000000E+03</pdfrwt>
<pdfrwt beam="2">0</pdfrwt>
<totfact> 0.12598022E+02</totfact>
</mgrwt>
</event>
<event>
 6    1  0.1956957E-002  0.3000000E+03  0.7818608E-02  0.1093470E+00
          1   -1    0    0  502    0  0.00000000000E+00  0.00000000000E+00  0.22464820280E+01  0.22464820280E+01  0.00000000000E+00 0.  1.
         13   -1    0    0    0    0 -0.00000000000E+00 -0.00000000000E+00 -0.10000000000E+04  0.10000000000E+04  0.00000000000E+00 0.  1.
    9000005    2    1    2  501    0  0.65515440480E+01 -0.30311039524E+02 -0.87772309199E+03  0.87827477151E+03  0.26582359287E+01 0.  0.
         13    1    3    3    0    0  0.44904816379E+01 -0.19722030948E+02 -0.53629974986E+03  0.53668104552E+03  0.00000000000E+00 0.  1.
          3    1    3    3  501    0  0.20610624101E+01 -0.10589008576E+02 -0.34142334214E+03  0.34159372599E+03  0.00000000000E+00 0.  1.
         21    1    1    2  502  501 -0.65515440480E+01  0.30311039524E+02 -0.12003042598E+03  0.12397171051E+03  0.00000000000E+00 0.  1.
<mgrwt>
<rscale>  1 0.30000000E+03</rscale>
<asrwt>0</asrwt>
<pdfrwt beam="1">  1        1 0.81690428E-02 0.30000000E+03</pdfrwt>
<pdfrwt beam="2">0</pdfrwt>
<totfact> 0.10003020E+03</totfact>
</mgrwt>
</event>
<event>
 6    1  0.1956957E-002  0.3000000E+03  0.7818608E-02  0.1093470E+00
          3   -1    0    0  502    0  0.00000000000E+00  0.00000000000E+00  0.16976088803E+01  0.16976088803E+01  0.00000000000E+00 0.  1.
         13   -1    0    0    0    0 -0.00000000000E+00 -0.00000000000E+00 -0.10000000000E+04  0.10000000000E+04  0.00000000000E+00 0.  1.
    9000005    2    1    2  501    0 -0.38469715639E+02 -0.14484949019E+02 -0.52385205971E+03  0.52546988001E+03  0.28074128202E+01 0.  0.
         13    1    3    3    0    0 -0.59607029477E+01 -0.16648236654E+01 -0.90201834845E+02  0.90413896204E+02  0.00000000000E+00 0.  1.
          3    1    3    3  501    0 -0.32509012691E+02 -0.12820125353E+02 -0.43365022486E+03  0.43505598380E+03  0.00000000000E+00 0.  1.
         21    1    1    2  502  501  0.38469715639E+02  0.14484949019E+02 -0.47445033141E+03  0.47622772887E+03  0.00000000000E+00 0.  1.
<mgrwt>
<rscale>  1 0.30000000E+03</rscale>
<asrwt>0</asrwt>
<pdfrwt beam="1">  1        3 0.61731362E-02 0.30000000E+03</pdfrwt>
<pdfrwt beam="2">0</pdfrwt>
<totfact> 0.71332592E+02</totfact>
</mgrwt>
</event>
<event>
 6    1  0.1956957E-002  0.3000000E+03  0.7818608E-02  0.1093470E+00
          1   -1    0    0  502    0  0.00000000000E+00  0.00000000000E+00  0.25339329433E+01  0.25339329433E+01  0.00000000000E+00 0.  1.
         13   -1    0    0    0    0 -0.00000000000E+00 -0.00000000000E+00 -0.10000000000E+04  0.10000000000E+04  0.00000000000E+00 0.  1.
    9000005    2    1    2  501    0 -0.16280615031E+02  0.41280661265E+02 -0.73484414400E+03  0.73618937060E+03  0.31180108618E+01 0.  0.
         13    1    3    3    0    0 -0.79992697685E+01  0.16595526771E+02 -0.29252842832E+03  0.29310796850E+03  0.00000000000E+00 0.  1.
          1    1    3    3  501    0 -0.82813452627E+01  0.24685134495E+02 -0.44231571568E+03  0.44308140209E+03  0.00000000000E+00 0.  1.
         21    1    1    2  502  501  0.16280615031E+02 -0.41280661265E+02 -0.26262192306E+03  0.26634456235E+03  0.00000000000E+00 0.  1.
<mgrwt>
<rscale>  1 0.30000000E+03</rscale>
<asrwt>0</asrwt>
<pdfrwt beam="1">  1        1 0.92143210E-02 0.30000000E+03</pdfrwt>
<pdfrwt beam="2">0</pdfrwt>
<totfact> 0.84631185E+02</totfact>
</mgrwt>
</event>
<event>
 6    1  0.1956957E-002  0.3000000E+03  0.7818608E-02  0.1093470E+00
          3   -1    0    0  502    0  0.00000000000E+00  0.00000000000E+00  0.21904653676E+01  0.21904653676E+01  0.00000000000E+00 0.  1.
         13   -1    0    0    0    0 -0.00000000000E+00 -0.00000000000E+00 -0.10000000000E+04  0.10000000000E+04  0.00000000000E+00 0.  1.
    9000005    2    1    2  501    0  0.21923233737E+02 -0.40384884037E+02 -0.59202815535E+03  0.59381552147E+03  0.28230777534E+01 0.  0.
         13    1    3    3    0    0  0.56089553292E+01 -0.99651308968E+01 -0.16345905640E+03  0.16385855893E+03  0.00000000000E+00 0.  1.
          1    1    3    3  501    0  0.16314278408E+02 -0.30419753140E+02 -0.42856909895E+03  0.42995696254E+03  0.00000000000E+00 0.  1.
         21    1    1    2  502  501 -0.21923233737E+02  0.40384884037E+02 -0.40578137928E+03  0.40837494390E+03  0.00000000000E+00 0.  1.
<mgrwt>
<rscale>  1 0.30000000E+03</rscale>
<asrwt>0</asrwt>
<pdfrwt beam="1">  1        3 0.79653454E-02 0.30000000E+03</pdfrwt>
<pdfrwt beam="2">0</pdfrwt>
<totfact> 0.47720672E+02</totfact>
</mgrwt>
</event>
<event>
 6    1  0.1956957E-002  0.3000000E+03  0.7818608E-02  0.1093470E+00
          1   -1    0    0  502    0  0.00000000000E+00  0.00000000000E+00  0.82441372421E+01  0.82441372421E+01  0.00000000000E+00 0.  1.
         13   -1    0    0    0    0 -0.00000000000E+00 -0.00000000000E+00 -0.10000000000E+04  0.10000000000E+04  0.00000000000E+00 0.  1.
    9000005    2    1    2  501    0  0.42675250714E+02  0.24736198221E+02 -0.91909125496E+03  0.92041930162E+03  0.31463186013E+01 0.  0.
         13    1    3    3    0    0  0.88730848149E+01  0.39142141799E+01 -0.19295655159E+03  0.19320011260E+03  0.00000000000E+00 0.  1.
          1    1    3    3  501    0  0.33802165899E+02  0.20821984041E+02 -0.72613470337E+03  0.72721918902E+03  0.00000000000E+00 0.  1.
         21    1    1    2  502  501 -0.42675250714E+02 -0.24736198221E+02 -0.72664607796E+02  0.87824835623E+02  0.00000000000E+00 0.  1.
<mgrwt>
<rscale>  1 0.30000000E+03</rscale>
<asrwt>0</asrwt>
<pdfrwt beam="1">  1        1 0.29978744E-01 0.30000000E+03</pdfrwt>
<pdfrwt beam="2">0</pdfrwt>
<totfact> 0.17237617E+02</totfact>
</mgrwt>
</event>
<event>
 6    1  0.1956957E-002  0.3000000E+03  0.7818608E-02  0.1093470E+00
          1   -1    0    0  502    0  0.00000000000E+00  0.00000000000E+00  0.15562249219E+02  0.15562249219E+02  0.00000000000E+00 0.  1.
         13   -1    0    0    0    0 -0.00000000000E+00 -0.00000000000E+00 -0.10000000000E+04  0.10000000000E+04  0.00000000000E+00 0.  1.
    9000005    2    1    2  501    0  0.70881536708E+02  0.54079807337E+02 -0.84735124520E+03  0.85203387915E+03  0.29632169548E+01 0.  0.
         13    1    3    3    0    0  0.70086149729E+02  0.53141536658E+02 -0.83335005350E+03  0.83797876045E+03  0.00000000000E+00 0.  1.
          3    1    3    3  501    0  0.79538697879E+00  0.93827067922E+00 -0.14001191709E+02  0.14055118697E+02  0.00000000000E+00 0.  1.
         21    1    1    2  502  501 -0.70881536708E+02 -0.54079807337E+02 -0.13708650558E+03  0.16352837007E+03  0.00000000000E+00 0.  1.
<mgrwt>
<rscale>  1 0.30000000E+03</rscale>
<asrwt>0</asrwt>
<pdfrwt beam="1">  1        1 0.56590116E-01 0.30000000E+03</pdfrwt>
<pdfrwt beam="2">0</pdfrwt>
<totfact> 0.74941963E+01</totfact>
</mgrwt>
</event>
<event>
 6    1  0.1956957E-002  0.3000000E+03  0.7818608E-02  0.1093470E+00
          3   -1    0    0  502    0  0.00000000000E+00  0.00000000000E+00  0.76128223624E+01  0.76128223624E+01  0.00000000000E+00 0.  1.
         13   -1    0    0    0    0 -0.00000000000E+00 -0.00000000000E+00 -0.10000000000E+04  0.10000000000E+04  0.00000000000E+00 0.  1.
    9000005    2    1    2  501    0 -0.24065680074E+02 -0.53738918090E+02 -0.86790992809E+03  0.86991164615E+03  0.34059593410E+01 0.  0.
         13    1    3    3    0    0 -0.15960668385E+02 -0.32299604258E+02 -0.54427688634E+03  0.54546799758E+03  0.00000000000E+00 0.  1.
          3    1    3    3  501    0 -0.81050116890E+01 -0.21439313832E+02 -0.32363304174E+03  0.32444364857E+03  0.00000000000E+00 0.  1.
         21    1    1    2  502  501  0.24065680074E+02  0.53738918090E+02 -0.12447724955E+03  0.13770117622E+03  0.00000000000E+00 0.  1.
<mgrwt>
<rscale>  1 0.30000000E+03</rscale>
<asrwt>0</asrwt>
<pdfrwt beam="1">  1        3 0.27683049E-01 0.30000000E+03</pdfrwt>
<pdfrwt beam="2">0</pdfrwt>
<totfact> 0.54461550E+01</totfact>
</mgrwt>
</event>
<event>
 6    1  0.1956957E-002  0.3000000E+03  0.7818608E-02  0.1093470E+00
          3   -1    0    0  502    0  0.00000000000E+00  0.00000000000E+00  0.43881337181E+01  0.43881337181E+01  0.00000000000E+00 0.  1.
         13   -1    0    0    0    0 -0.00000000000E+00 -0.00000000000E+00 -0.10000000000E+04  0.10000000000E+04  0.00000000000E+00 0.  1.
    9000005    2    1    2  501    0 -0.14995425546E+02 -0.31816403939E+02 -0.92328652777E+03  0.92396362913E+03  0.36917816269E+01 0.  0.
         13    1    3    3    0    0 -0.40089270956E+01 -0.12363999190E+02 -0.35754043262E+03  0.35777660758E+03  0.00000000000E+00 0.  1.
          1    1    3    3  501    0 -0.10986498450E+02 -0.19452404749E+02 -0.56574609515E+03  0.56618702155E+03  0.00000000000E+00 0.  1.
         21    1    1    2  502  501  0.14995425546E+02  0.31816403939E+02 -0.72325338512E+02  0.80424504585E+02  0.00000000000E+00 0.  1.
<mgrwt>
<rscale>  1 0.30000000E+03</rscale>
<asrwt>0</asrwt>
<pdfrwt beam="1">  1        3 0.15956884E-01 0.30000000E+03</pdfrwt>
<pdfrwt beam="2">0</pdfrwt>
<totfact> 0.14945189E+02</totfact>
</mgrwt>
</event>
<event>
 6    1  0.1956957E-002  0.3000000E+03  0.7818608E-02  0.1093470E+00
          3   -1    0    0  502    0  0.00000000000E+00  0.00000000000E+00  0.42054633827E+01  0.42054633827E+01  0.00000000000E+00 0.  1.
         13   -1    0    0    0    0 -0.00000000000E+00 -0.00000000000E+00 -0.10000000000E+04  0.10000000000E+04  0.00000000000E+00 0.  1.
    9000005    2    1    2  501    0  0.64204671505E+02  0.73049371784E+01 -0.53740251824E+03  0.54128123150E+03  0.28814953312E+01 0.  0.
         13    1    3    3    0    0  0.52004093228E+02  0.47738632112E+01 -0.43377116444E+03  0.43690346598E+03  0.00000000000E+00 0.  1.
          3    1    3    3  501    0  0.12200578278E+02  0.25310739672E+01 -0.10363135380E+03  0.10437776553E+03  0.00000000000E+00 0.  1.
         21    1    1    2  502  501 -0.64204671505E+02 -0.73049371784E+01 -0.45839201838E+03  0.46292423188E+03  0.00000000000E+00 0.  1.
<mgrwt>
<rscale>  1 0.30000000E+03</rscale>
<asrwt>0</asrwt>
<pdfrwt beam="1">  1        3 0.15292626E-01 0.30000000E+03</pdfrwt>
<pdfrwt beam="2">0</pdfrwt>
<totfact> 0.16095521E+02</totfact>
</mgrwt>
</event>
<event>
 6    1  0.1956957E-002  0.3000000E+03  0.7818608E-02  0.1093470E+00
          1   -1    0    0  502    0  0.00000000000E+00  0.00000000000E+00  0.12562710459E+01  0.12562710459E+01  0.00000000000E+00 0.  1.
         13   -1    0    0    0    0 -0.00000000000E+00 -0.00000000000E+00 -0.10000000000E+04  0.10000000000E+04  0.00000000000E+00 0.  1.
    9000005    2    1    2  501    0  0.31348131946E+02 -0.62627057180E+01 -0.71449884878E+03  0.71521942244E+03  0.28793154334E+01 0.  0.
         13    1    3    3    0    0  0.26345630843E+02 -0.57875126396E+01 -0.58040972683E+03  0.58103617664E+03  0.00000000000E+00 0.  1.
          1    1    3    3  501    0  0.50025011036E+01 -0.47519307838E+00 -0.13408912196E+03  0.13418324580E+03  0.00000000000E+00 0.  1.
         21    1    1    2  502  501 -0.31348131946E+02  0.62627057180E+01 -0.28424488017E+03  0.28603684861E+03  0.00000000000E+00 0.  1.
<mgrwt>
<rscale>  1 0.30000000E+03</rscale>
<asrwt>0</asrwt>
<pdfrwt beam="1">  1        1 0.45682680E-02 0.30000000E+03</pdfrwt>
<pdfrwt beam="2">0</pdfrwt>
<totfact> 0.22585182E+03</totfact>
</mgrwt>
</event>
<event>
 6    1  0.1956957E-002  0.3000000E+03  0.7818608E-02  0.1093470E+00
          1   -1    0    0  502    0  0.00000000000E+00  0.00000000000E+00  0.50544860743E+01  0.50544860743E+01  0.00000000000E+00 0.  1.
         13   -1    0    0    0    0 -0.00000000000E+00 -0.00000000000E+00 -0.10000000000E+04  0.10000000000E+04  0.00000000000E+00 0.  1.
    9000005    2    1    2  501    0 -0.61139895175E+00 -0.54485800846E+02 -0.82016129058E+03  0.82197362680E+03  0.26503366343E+01 0.  0.
         13    1    3    3    0    0  0.67771043131E+00 -0.32368992808E+02 -0.47510811893E+03  0.47620997014E+03  0.00000000000E+00 0.  1.
          3    1    3    3  501    0 -0.12891093831E+01 -0.22116808038E+02 -0.34505317165E+03  0.34576365666E+03  0.00000000000E+00 0.  1.
         21    1    1    2  502  501  0.61139895175E+00  0.54485800846E+02 -0.17478422334E+03  0.18308085927E+03  0.00000000000E+00 0.  1.
<mgrwt>
<rscale>  1 0.30000000E+03</rscale>
<asrwt>0</asrwt>
<pdfrwt beam="1">  1        1 0.18379988E-01 0.30000000E+03</pdfrwt>
<pdfrwt beam="2">0</pdfrwt>
<totfact> 0.32970138E+02</totfact>
</mgrwt>
</event>
<event>
 6    1  0.1956957E-002  0.3000000E+03  0.7818608E-02  0.1093470E+00
          3   -1    0    0  502    0  0.00000000000E+00  0.00000000000E+00  0.31788467734E+01  0.31788467734E+01  0.00000000000E+00 0.  1.
         13   -1    0    0    0    0 -0.00000000000E+00 -0.00000000000E+00 -0.10000000000E+04  0.10000000000E+04  0.00000000000E+00 0.  1.
    9000005    2    1    2  501    0  0.39929957629E+01  0.33253975174E+02 -0.90179375610E+03  0.90242182675E+03  0.33769760808E+01 0.  0.
         13    1    3    3    0    0  0.29377884547E+01  0.21587810782E+02 -0.62736931021E+03  0.62774749348E+03  0.00000000000E+00 0.  1.
          1    1    3    3  501    0  0.10552073082E+01  0.11666164392E+02 -0.27442444589E+03  0.27467433327E+03  0.00000000000E+00 0.  1.
         21    1    1    2  502  501 -0.39929957629E+01 -0.33253975174E+02 -0.95027397125E+02  0.10075702003E+03  0.00000000000E+00 0.  1.
<mgrwt>
<rscale>  1 0.30000000E+03</rscale>
<asrwt>0</asrwt>
<pdfrwt beam="1">  1        3 0.11559467E-01 0.30000000E+03</pdfrwt>
<pdfrwt beam="2">0</pdfrwt>
<totfact> 0.25944472E+02</totfact>
</mgrwt>
</event>
<event>
 6    1  0.1956957E-002  0.3000000E+03  0.7818608E-02  0.1093470E+00
          3   -1    0    0  502    0  0.00000000000E+00  0.00000000000E+00  0.12632622896E+01  0.12632622896E+01  0.00000000000E+00 0.  1.
         13   -1    0    0    0    0 -0.00000000000E+00 -0.00000000000E+00 -0.10000000000E+04  0.10000000000E+04  0.00000000000E+00 0.  1.
    9000005    2    1    2  501    0  0.30539495159E+02  0.41304115696E+01 -0.74721958450E+03  0.74786515768E+03  0.39326245981E+01 0.  0.
         13    1    3    3    0    0  0.26890894093E+01  0.15197461272E+01 -0.78871088438E+02  0.78931548962E+02  0.00000000000E+00 0.  1.
          1    1    3    3  501    0  0.27850405750E+02  0.26106654424E+01 -0.66834849607E+03  0.66893360871E+03  0.00000000000E+00 0.  1.
         21    1    1    2  502  501 -0.30539495159E+02 -0.41304115696E+01 -0.25151715321E+03  0.25339810461E+03  0.00000000000E+00 0.  1.
<mgrwt>
<rscale>  1 0.30000000E+03</rscale>
<asrwt>0</asrwt>
<pdfrwt beam="1">  1        3 0.45936907E-02 0.30000000E+03</pdfrwt>
<pdfrwt beam="2">0</pdfrwt>
<totfact> 0.11276512E+03</totfact>
</mgrwt>
</event>
<event>
 6    1  0.1956957E-002  0.3000000E+03  0.7818608E-02  0.1093470E+00
          3   -1    0    0  502    0  0.00000000000E+00  0.00000000000E+00  0.27015929910E+01  0.27015929910E+01  0.00000000000E+00 0.  1.
         13   -1    0    0    0    0 -0.00000000000E+00 -0.00000000000E+00 -0.10000000000E+04  0.10000000000E+04  0.00000000000E+00 0.  1.
    9000005    2    1    2  501    0  0.29729814803E+02  0.46449879289E+01 -0.90723970163E+03  0.90774892997E+03  0.43365698843E+01 0.  0.
         13    1    3    3    0    0  0.12986438009E+02 -0.49396728639E-01 -0.36947872156E+03  0.36970687808E+03  0.00000000000E+00 0.  1.
          1    1    3    3  501    0  0.16743376794E+02  0.46943846575E+01 -0.53776098007E+03  0.53804205189E+03  0.00000000000E+00 0.  1.
         21    1    1    2  502  501 -0.29729814803E+02 -0.46449879289E+01 -0.90058705374E+02  0.94952663021E+02  0.00000000000E+00 0.  1.
<mgrwt>
<rscale>  1 0.30000000E+03</rscale>
<asrwt>0</asrwt>
<pdfrwt beam="1">  1        3 0.98239952E-02 0.30000000E+03</pdfrwt>
<pdfrwt beam="2">0</pdfrwt>
<totfact> 0.34002733E+02</totfact>
</mgrwt>
</event>
<event>
 6    1  0.1956957E-002  0.3000000E+03  0.7818608E-02  0.1093470E+00
          1   -1    0    0  502    0  0.00000000000E+00  0.00000000000E+00  0.33849306360E+01  0.33849306360E+01  0.00000000000E+00 0.  1.
         13   -1    0    0    0    0 -0.00000000000E+00 -0.00000000000E+00 -0.10000000000E+04  0.10000000000E+04  0.00000000000E+00 0.  1.
    9000005    2    1    2  501    0  0.73916676347E+01  0.29098542150E+02 -0.92796692679E+03  0.92845877109E+03  0.34220591433E+01 0.  0.
         13    1    3    3    0    0  0.74723453907E+01  0.27031152822E+02 -0.84190042965E+03  0.84236740952E+03  0.00000000000E+00 0.  1.
          1    1    3    3  501    0 -0.80677756008E-01  0.20673893285E+01 -0.86066497141E+02  0.86091361574E+02  0.00000000000E+00 0.  1.
         21    1    1    2  502  501 -0.73916676347E+01 -0.29098542150E+02 -0.68648142570E+02  0.74926159544E+02  0.00000000000E+00 0.  1.
<mgrwt>
<rscale>  1 0.30000000E+03</rscale>
<asrwt>0</asrwt>
<pdfrwt beam="1">  1        1 0.12308865E-01 0.30000000E+03</pdfrwt>
<pdfrwt beam="2">0</pdfrwt>
<totfact> 0.56804116E+02</totfact>
</mgrwt>
</event>
<event>
 6    1  0.1956957E-002  0.3000000E+03  0.7818608E-02  0.1093470E+00
          1   -1    0    0  502    0  0.00000000000E+00  0.00000000000E+00  0.13011817107E+01  0.13011817107E+01  0.00000000000E+00 0.  1.
         13   -1    0    0    0    0 -0.00000000000E+00 -0.00000000000E+00 -0.10000000000E+04  0.10000000000E+04  0.00000000000E+00 0.  1.
    9000005    2    1    2  501    0  0.25996842813E+02 -0.19102378040E+02 -0.72194860785E+03  0.72267703405E+03  0.34009527635E+01 0.  0.
         13    1    3    3    0    0  0.13566559056E+02 -0.11896548797E+02 -0.41663078874E+03  0.41702133462E+03  0.00000000000E+00 0.  1.
          3    1    3    3  501    0  0.12430283756E+02 -0.72058292433E+01 -0.30531781911E+03  0.30565569943E+03  0.00000000000E+00 0.  1.
         21    1    1    2  502  501 -0.25996842813E+02  0.19102378040E+02 -0.27675021044E+03  0.27862414766E+03  0.00000000000E+00 0.  1.
<mgrwt>
<rscale>  1 0.30000000E+03</rscale>
<asrwt>0</asrwt>
<pdfrwt beam="1">  1        1 0.47315798E-02 0.30000000E+03</pdfrwt>
<pdfrwt beam="2">0</pdfrwt>
<totfact> 0.21496282E+03</totfact>
</mgrwt>
</event>
<event>
 6    1  0.1956957E-002  0.3000000E+03  0.7818608E-02  0.1093470E+00
          3   -1    0    0  502    0  0.00000000000E+00  0.00000000000E+00  0.24467085990E+01  0.24467085990E+01  0.00000000000E+00 0.  1.
         13   -1    0    0    0    0 -0.00000000000E+00 -0.00000000000E+00 -0.10000000000E+04  0.10000000000E+04  0.00000000000E+00 0.  1.
    9000005    2    1    2  501    0  0.37284600092E+02  0.20916112932E+02 -0.74803087669E+03  0.74928853546E+03  0.74492754545E+01 0.  0.
         13    1    3    3    0    0  0.26952116159E+01  0.35188309089E+01 -0.10451365704E+03  0.10460760415E+03  0.00000000000E+00 0.  1.
          3    1    3    3  501    0  0.34589388476E+02  0.17397282023E+02 -0.64351721965E+03  0.64468093132E+03  0.00000000000E+00 0.  1.
         21    1    1    2  502  501 -0.37284600092E+02 -0.20916112932E+02 -0.24952241471E+03  0.25315817314E+03  0.00000000000E+00 0.  1.
<mgrwt>
<rscale>  1 0.30000000E+03</rscale>
<asrwt>0</asrwt>
<pdfrwt beam="1">  1        3 0.88971409E-02 0.30000000E+03</pdfrwt>
<pdfrwt beam="2">0</pdfrwt>
<totfact> 0.39957345E+02</totfact>
</mgrwt>
</event>
<event>
 6    1  0.1956957E-002  0.3000000E+03  0.7818608E-02  0.1093470E+00
          1   -1    0    0  502    0  0.00000000000E+00  0.00000000000E+00  0.19896724800E+01  0.19896724800E+01  0.00000000000E+00 0.  1.
         13   -1    0    0    0    0 -0.00000000000E+00 -0.00000000000E+00 -0.10000000000E+04  0.10000000000E+04  0.00000000000E+00 0.  1.
    9000005    2    1    2  501    0  0.33375510977E+02  0.94536820609E+01 -0.81353594882E+03  0.81428220530E+03  0.33871835398E+01 0.  0.
         13    1    3    3    0    0  0.26845474075E+02  0.81969676902E+01 -0.62757336915E+03  0.62820076681E+03  0.00000000000E+00 0.  1.
          3    1    3    3  501    0  0.65300369017E+01  0.12567143707E+01 -0.18596257967E+03  0.18608143849E+03  0.00000000000E+00 0.  1.
         21    1    1    2  502  501 -0.33375510977E+02 -0.94536820609E+01 -0.18447437870E+03  0.18770746718E+03  0.00000000000E+00 0.  1.
<mgrwt>
<rscale>  1 0.30000000E+03</rscale>
<asrwt>0</asrwt>
<pdfrwt beam="1">  1        1 0.72351879E-02 0.30000000E+03</pdfrwt>
<pdfrwt beam="2">0</pdfrwt>
<totfact> 0.11848013E+03</totfact>
</mgrwt>
</event>
<event>
 6    1  0.1956957E-002  0.3000000E+03  0.7818608E-02  0.1093470E+00
          1   -1    0    0  502    0  0.00000000000E+00  0.00000000000E+00  0.22236639923E+01  0.22236639923E+01  0.00000000000E+00 0.  1.
         13   -1    0    0    0    0 -0.00000000000E+00 -0.00000000000E+00 -0.10000000000E+04  0.10000000000E+04  0.00000000000E+00 0.  1.
    9000005    2    1    2  501    0 -0.27998496877E+02 -0.37261475536E+02 -0.42745940783E+03  0.43000540847E+03  0.32821616310E+01 0.  0.
         13    1    3    3    0    0 -0.26923852935E+01 -0.53305003752E+01 -0.51899113845E+02  0.52241565737E+02  0.00000000000E+00 0.  1.
          3    1    3    3  501    0 -0.25306111584E+02 -0.31930975160E+02 -0.37556029398E+03  0.37776384273E+03  0.00000000000E+00 0.  1.
         21    1    1    2  502  501  0.27998496877E+02  0.37261475536E+02 -0.57031692818E+03  0.57221825552E+03  0.00000000000E+00 0.  1.
<mgrwt>
<rscale>  1 0.30000000E+03</rscale>
<asrwt>0</asrwt>
<pdfrwt beam="1">  1        1 0.80860679E-02 0.30000000E+03</pdfrwt>
<pdfrwt beam="2">0</pdfrwt>
<totfact> 0.10146142E+03</totfact>
</mgrwt>
</event>
<event>
 6    1  0.1956957E-002  0.3000000E+03  0.7818608E-02  0.1093470E+00
          3   -1    0    0  502    0  0.00000000000E+00  0.00000000000E+00  0.94725061383E+00  0.94725061383E+00  0.00000000000E+00 0.  1.
         13   -1    0    0    0    0 -0.00000000000E+00 -0.00000000000E+00 -0.10000000000E+04  0.10000000000E+04  0.00000000000E+00 0.  1.
    9000005    2    1    2  501    0 -0.64667896276E+01 -0.29811151902E+02 -0.44615462360E+03  0.44720826730E+03  0.32805539511E+01 0.  0.
         13    1    3    3    0    0 -0.31698603101E+01 -0.11254106469E+02 -0.19209048662E+03  0.19244598717E+03  0.00000000000E+00 0.  1.
          1    1    3    3  501    0 -0.32969293175E+01 -0.18557045433E+02 -0.25406413698E+03  0.25476228013E+03  0.00000000000E+00 0.  1.
         21    1    1    2  502  501  0.64667896276E+01  0.29811151902E+02 -0.55289812579E+03  0.55373898332E+03  0.00000000000E+00 0.  1.
<mgrwt>
<rscale>  1 0.30000000E+03</rscale>
<asrwt>0</asrwt>
<pdfrwt beam="1">  1        3 0.34445550E-02 0.30000000E+03</pdfrwt>
<pdfrwt beam="2">0</pdfrwt>
<totfact> 0.17565232E+03</totfact>
</mgrwt>
</event>
<event>
 6    1  0.1956957E-002  0.3000000E+03  0.7818608E-02  0.1093470E+00
          1   -1    0    0  502    0  0.00000000000E+00  0.00000000000E+00  0.37054136066E+01  0.37054136066E+01  0.00000000000E+00 0.  1.
         13   -1    0    0    0    0 -0.00000000000E+00 -0.00000000000E+00 -0.10000000000E+04  0.10000000000E+04  0.00000000000E+00 0.  1.
    9000005    2    1    2  501    0 -0.36201759129E+02  0.22551203968E+02 -0.85536670591E+03  0.85646482253E+03  0.77888689337E+01 0.  0.
         13    1    3    3    0    0 -0.58597920874E+01  0.59579453526E+00 -0.12397079961E+03  0.12411064133E+03  0.00000000000E+00 0.  1.
          3    1    3    3  501    0 -0.30341967042E+02  0.21955409432E+02 -0.73139590630E+03  0.73235418120E+03  0.00000000000E+00 0.  1.
         21    1    1    2  502  501  0.36201759129E+02 -0.22551203968E+02 -0.14092788048E+03  0.14724059108E+03  0.00000000000E+00 0.  1.
<mgrwt>
<rscale>  1 0.30000000E+03</rscale>
<asrwt>0</asrwt>
<pdfrwt beam="1">  1        1 0.13474260E-01 0.30000000E+03</pdfrwt>
<pdfrwt beam="2">0</pdfrwt>
<totfact> 0.50197412E+02</totfact>
</mgrwt>
</event>
<event>
 6    1  0.1956957E-002  0.3000000E+03  0.7818608E-02  0.1093470E+00
          3   -1    0    0  502    0  0.00000000000E+00  0.00000000000E+00  0.26152225052E+02  0.26152225052E+02  0.00000000000E+00 0.  1.
         13   -1    0    0    0    0 -0.00000000000E+00 -0.00000000000E+00 -0.10000000000E+04  0.10000000000E+04  0.00000000000E+00 0.  1.
    9000005    2    1    2  501    0  0.22526884422E+02  0.32349735523E+02 -0.98451924643E+03  0.98531295212E+03  0.30823869267E+01 0.  0.
         13    1    3    3    0    0  0.13478727307E+02  0.19191601638E+02 -0.62277504185E+03  0.62321645230E+03  0.00000000000E+00 0.  1.
          1    1    3    3  501    0  0.90481571159E+01  0.13158133885E+02 -0.36174420458E+03  0.36209649982E+03  0.00000000000E+00 0.  1.
         21    1    1    2  502  501 -0.22526884422E+02 -0.32349735523E+02  0.10671471482E+02  0.40839272934E+02  0.00000000000E+00 0.  1.
<mgrwt>
<rscale>  1 0.30000000E+03</rscale>
<asrwt>0</asrwt>
<pdfrwt beam="1">  1        3 0.95099201E-01 0.30000000E+03</pdfrwt>
<pdfrwt beam="2">0</pdfrwt>
<totfact> 0.44558543E+00</totfact>
</mgrwt>
</event>
<event>
 6    1  0.1956957E-002  0.3000000E+03  0.7818608E-02  0.1093470E+00
          3   -1    0    0  502    0  0.00000000000E+00  0.00000000000E+00  0.29065342286E+01  0.29065342286E+01  0.00000000000E+00 0.  1.
         13   -1    0    0    0    0 -0.00000000000E+00 -0.00000000000E+00 -0.10000000000E+04  0.10000000000E+04  0.00000000000E+00 0.  1.
    9000005    2    1    2  501    0 -0.41796206009E+02 -0.31674247326E+02 -0.60225126425E+03  0.60459692490E+03  0.89819557250E+01 0.  0.
         13    1    3    3    0    0 -0.27842635487E+01 -0.78103218801E+00 -0.59144619747E+02  0.59215269820E+02  0.00000000000E+00 0.  1.
          3    1    3    3  501    0 -0.39011942460E+02 -0.30893215138E+02 -0.54310664451E+03  0.54538165508E+03  0.00000000000E+00 0.  1.
         21    1    1    2  502  501  0.41796206009E+02  0.31674247326E+02 -0.39484220152E+03  0.39830960932E+03  0.00000000000E+00 0.  1.
<mgrwt>
<rscale>  1 0.30000000E+03</rscale>
<asrwt>0</asrwt>
<pdfrwt beam="1">  1        3 0.10569238E-01 0.30000000E+03</pdfrwt>
<pdfrwt beam="2">0</pdfrwt>
<totfact> 0.30133558E+02</totfact>
</mgrwt>
</event>
<event>
 6    1  0.1956957E-002  0.3000000E+03  0.7818608E-02  0.1093470E+00
          1   -1    0    0  502    0  0.00000000000E+00  0.00000000000E+00  0.31626222249E+01  0.31626222249E+01  0.00000000000E+00 0.  1.
         13   -1    0    0    0    0 -0.00000000000E+00 -0.00000000000E+00 -0.10000000000E+04  0.10000000000E+04  0.00000000000E+00 0.  1.
    9000005    2    1    2  501    0 -0.26964144224E+02 -0.24329695141E+02 -0.88122386507E+03  0.88197894569E+03  0.35158392257E+01 0.  0.
         13    1    3    3    0    0 -0.22583397782E+02 -0.20549634486E+02 -0.70700468422E+03  0.70766370604E+03  0.00000000000E+00 0.  1.
          1    1    3    3  501    0 -0.43807464417E+01 -0.37800606555E+01 -0.17421918085E+03  0.17431523965E+03  0.00000000000E+00 0.  1.
         21    1    1    2  502  501  0.26964144224E+02  0.24329695141E+02 -0.11561351270E+03  0.12118367654E+03  0.00000000000E+00 0.  1.
<mgrwt>
<rscale>  1 0.30000000E+03</rscale>
<asrwt>0</asrwt>
<pdfrwt beam="1">  1        1 0.11500469E-01 0.30000000E+03</pdfrwt>
<pdfrwt beam="2">0</pdfrwt>
<totfact> 0.62349069E+02</totfact>
</mgrwt>
</event>
<event>
 6    1  0.1956957E-002  0.3000000E+03  0.7818608E-02  0.1093470E+00
          1   -1    0    0  502    0  0.00000000000E+00  0.00000000000E+00  0.11800291860E+01  0.11800291860E+01  0.00000000000E+00 0.  1.
         13   -1    0    0    0    0 -0.00000000000E+00 -0.00000000000E+00 -0.10000000000E+04  0.10000000000E+04  0.00000000000E+00 0.  1.
    9000005    2    1    2  501    0  0.27579484801E+02  0.17392086683E+02 -0.65334474956E+03  0.65416959539E+03  0.39223841429E+01 0.  0.
         13    1    3    3    0    0  0.15200111559E+02  0.86228929951E+01 -0.38489972920E+03  0.38529624864E+03  0.00000000000E+00 0.  1.
          3    1    3    3  501    0  0.12379373243E+02  0.87691936877E+01 -0.26844502036E+03  0.26887334675E+03  0.00000000000E+00 0.  1.
         21    1    1    2  502  501 -0.27579484801E+02 -0.17392086683E+02 -0.34547522126E+03  0.34701043380E+03  0.00000000000E+00 0.  1.
<mgrwt>
<rscale>  1 0.30000000E+03</rscale>
<asrwt>0</asrwt>
<pdfrwt beam="1">  1        1 0.42910243E-02 0.30000000E+03</pdfrwt>
<pdfrwt beam="2">0</pdfrwt>
<totfact> 0.24665831E+03</totfact>
</mgrwt>
</event>
<event>
 6    1  0.1956957E-002  0.3000000E+03  0.7818608E-02  0.1093470E+00
          3   -1    0    0  502    0  0.00000000000E+00  0.00000000000E+00  0.31965477710E+01  0.31965477710E+01  0.00000000000E+00 0.  1.
         13   -1    0    0    0    0 -0.00000000000E+00 -0.00000000000E+00 -0.10000000000E+04  0.10000000000E+04  0.00000000000E+00 0.  1.
    9000005    2    1    2  501    0 -0.13568643867E+02 -0.52673927483E+02 -0.63426370309E+03  0.63659905673E+03  0.30435566701E+01 0.  0.
         13    1    3    3    0    0 -0.10804679393E+02 -0.38585762723E+02 -0.47891321553E+03  0.48058658970E+03  0.00000000000E+00 0.  1.
          3    1    3    3  501    0 -0.27639644739E+01 -0.14088164761E+02 -0.15535048755E+03  0.15601246703E+03  0.00000000000E+00 0.  1.
         21    1    1    2  502  501  0.13568643867E+02  0.52673927483E+02 -0.36253974914E+03  0.36659749104E+03  0.00000000000E+00 0.  1.
<mgrwt>
<rscale>  1 0.30000000E+03</rscale>
<asrwt>0</asrwt>
<pdfrwt beam="1">  1        3 0.11623835E-01 0.30000000E+03</pdfrwt>
<pdfrwt beam="2">0</pdfrwt>
<totfact> 0.25703464E+02</totfact>
</mgrwt>
</event>
<event>
 6    1  0.1956957E-002  0.3000000E+03  0.7818608E-02  0.1093470E+00
          1   -1    0    0  502    0  0.00000000000E+00  0.00000000000E+00  0.10384728355E+02  0.10384728355E+02  0.00000000000E+00 0.  1.
         13   -1    0    0    0    0 -0.00000000000E+00 -0.00000000000E+00 -0.10000000000E+04  0.10000000000E+04  0.00000000000E+00 0.  1.
    9000005    2    1    2  501    0 -0.31708035548E+02 -0.62415910935E+01 -0.97391492913E+03  0.97445621972E+03  0.32059301962E+01 0.  0.
         13    1    3    3    0    0 -0.22122953680E+02 -0.29663504669E+01 -0.65191631185E+03  0.65229832284E+03  0.00000000000E+00 0.  1.
          1    1    3    3  501    0 -0.95850818683E+01 -0.32752406266E+01 -0.32199861728E+03  0.32215789688E+03  0.00000000000E+00 0.  1.
         21    1    1    2  502  501  0.31708035548E+02  0.62415910935E+01 -0.15700342513E+02  0.35928508635E+02  0.00000000000E+00 0.  1.
<mgrwt>
<rscale>  1 0.30000000E+03</rscale>
<asrwt>0</asrwt>
<pdfrwt beam="1">  1        1 0.37762728E-01 0.30000000E+03</pdfrwt>
<pdfrwt beam="2">0</pdfrwt>
<totfact> 0.12743190E+02</totfact>
</mgrwt>
</event>
<event>
 6    1  0.1956957E-002  0.3000000E+03  0.7818608E-02  0.1093470E+00
          1   -1    0    0  502    0  0.00000000000E+00  0.00000000000E+00  0.23513436846E+01  0.23513436846E+01  0.00000000000E+00 0.  1.
         13   -1    0    0    0    0 -0.00000000000E+00 -0.00000000000E+00 -0.10000000000E+04  0.10000000000E+04  0.00000000000E+00 0.  1.
    9000005    2    1    2  501    0  0.19173771922E+02  0.34979283028E+02 -0.78353565399E+03  0.78455427865E+03  0.24721065830E+01 0.  0.
         13    1    3    3    0    0  0.15005932202E+01  0.27079541230E+01 -0.75120753180E+02  0.75184522036E+02  0.00000000000E+00 0.  1.
          3    1    3    3  501    0  0.17673178701E+02  0.32271328905E+02 -0.70841490081E+03  0.70936975662E+03  0.00000000000E+00 0.  1.
         21    1    1    2  502  501 -0.19173771922E+02 -0.34979283028E+02 -0.21411300233E+03  0.21779706503E+03  0.00000000000E+00 0.  1.
<mgrwt>
<rscale>  1 0.30000000E+03</rscale>
<asrwt>0</asrwt>
<pdfrwt beam="1">  1        1 0.85503587E-02 0.30000000E+03</pdfrwt>
<pdfrwt beam="2">0</pdfrwt>
<totfact> 0.93883226E+02</totfact>
</mgrwt>
</event>
<event>
 6    1  0.1956957E-002  0.3000000E+03  0.7818608E-02  0.1093470E+00
          1   -1    0    0  502    0  0.00000000000E+00  0.00000000000E+00  0.12350162748E+01  0.12350162748E+01  0.00000000000E+00 0.  1.
         13   -1    0    0    0    0 -0.00000000000E+00 -0.00000000000E+00 -0.10000000000E+04  0.10000000000E+04  0.00000000000E+00 0.  1.
    9000005    2    1    2  501    0 -0.29247124046E+02  0.93490855048E+01 -0.25956601821E+03  0.26139860849E+03  0.34518178592E+01 0.  0.
         13    1    3    3    0    0 -0.62962044315E+01  0.20522768536E+01 -0.44859507098E+02  0.45345665809E+02  0.00000000000E+00 0.  1.
          1    1    3    3  501    0 -0.22950919614E+02  0.72968086512E+01 -0.21470651111E+03  0.21605294268E+03  0.00000000000E+00 0.  1.
         21    1    1    2  502  501  0.29247124046E+02 -0.93490855048E+01 -0.73919896552E+03  0.73983640779E+03  0.00000000000E+00 0.  1.
<mgrwt>
<rscale>  1 0.30000000E+03</rscale>
<asrwt>0</asrwt>
<pdfrwt beam="1">  1        1 0.44909777E-02 0.30000000E+03</pdfrwt>
<pdfrwt beam="2">0</pdfrwt>
<totfact> 0.23134089E+03</totfact>
</mgrwt>
</event>
<event>
 6    1  0.1956957E-002  0.3000000E+03  0.7818608E-02  0.1093470E+00
          1   -1    0    0  502    0  0.00000000000E+00  0.00000000000E+00  0.12334465494E+01  0.12334465494E+01  0.00000000000E+00 0.  1.
         13   -1    0    0    0    0 -0.00000000000E+00 -0.00000000000E+00 -0.10000000000E+04  0.10000000000E+04  0.00000000000E+00 0.  1.
    9000005    2    1    2  501    0 -0.30026028935E+02 -0.11566282872E+02 -0.69869500148E+03  0.69944166797E+03  0.29326597896E+01 0.  0.
         13    1    3    3    0    0 -0.27681415306E+02 -0.10455756698E+02 -0.62318243586E+03  0.62388455019E+03  0.00000000000E+00 0.  1.
          1    1    3    3  501    0 -0.23446136298E+01 -0.11105261736E+01 -0.75512565619E+02  0.75557117784E+02  0.00000000000E+00 0.  1.
         21    1    1    2  502  501  0.30026028935E+02  0.11566282872E+02 -0.30007155198E+03  0.30179177858E+03  0.00000000000E+00 0.  1.
<mgrwt>
<rscale>  1 0.30000000E+03</rscale>
<asrwt>0</asrwt>
<pdfrwt beam="1">  1        1 0.44852696E-02 0.30000000E+03</pdfrwt>
<pdfrwt beam="2">0</pdfrwt>
<totfact> 0.23175536E+03</totfact>
</mgrwt>
</event>
<event>
 6    1  0.1956957E-002  0.3000000E+03  0.7818608E-02  0.1093470E+00
          3   -1    0    0  502    0  0.00000000000E+00  0.00000000000E+00  0.36730654573E+01  0.36730654573E+01  0.00000000000E+00 0.  1.
         13   -1    0    0    0    0 -0.00000000000E+00 -0.00000000000E+00 -0.10000000000E+04  0.10000000000E+04  0.00000000000E+00 0.  1.
    9000005    2    1    2  501    0  0.27816186235E+02 -0.41715509792E+02 -0.77988478750E+03  0.78149942393E+03  0.26727985427E+01 0.  0.
         13    1    3    3    0    0  0.59357523413E+01 -0.10516588099E+02 -0.17685991638E+03  0.17727171744E+03  0.00000000000E+00 0.  1.
          1    1    3    3  501    0  0.21880433893E+02 -0.31198921693E+02 -0.60302487113E+03  0.60422770650E+03  0.00000000000E+00 0.  1.
         21    1    1    2  502  501 -0.27816186235E+02  0.41715509792E+02 -0.21644214704E+03  0.22217364152E+03  0.00000000000E+00 0.  1.
<mgrwt>
<rscale>  1 0.30000000E+03</rscale>
<asrwt>0</asrwt>
<pdfrwt beam="1">  1        3 0.13356630E-01 0.30000000E+03</pdfrwt>
<pdfrwt beam="2">0</pdfrwt>
<totfact> 0.20316971E+02</totfact>
</mgrwt>
</event>
<event>
 6    1  0.1956957E-002  0.3000000E+03  0.7818608E-02  0.1093470E+00
          1   -1    0    0  502    0  0.00000000000E+00  0.00000000000E+00  0.14388644358E+02  0.14388644358E+02  0.00000000000E+00 0.  1.
         13   -1    0    0    0    0 -0.00000000000E+00 -0.00000000000E+00 -0.10000000000E+04  0.10000000000E+04  0.00000000000E+00 0.  1.
    9000005    2    1    2  501    0  0.97715519618E+01  0.68526338613E+02 -0.90700910197E+03  0.90965251595E+03  0.32933885766E+01 0.  0.
         13    1    3    3    0    0  0.33765921918E+01  0.14179689446E+02 -0.19120695767E+03  0.19176174183E+03  0.00000000000E+00 0.  1.
          3    1    3    3  501    0  0.63949597701E+01  0.54346649167E+02 -0.71580214429E+03  0.71789077412E+03  0.00000000000E+00 0.  1.
         21    1    1    2  502  501 -0.97715519618E+01 -0.68526338613E+02 -0.78602253677E+02  0.10473612841E+03  0.00000000000E+00 0.  1.
<mgrwt>
<rscale>  1 0.30000000E+03</rscale>
<asrwt>0</asrwt>
<pdfrwt beam="1">  1        1 0.52322453E-01 0.30000000E+03</pdfrwt>
<pdfrwt beam="2">0</pdfrwt>
<totfact> 0.83130431E+01</totfact>
</mgrwt>
</event>
<event>
 6    1  0.1956957E-002  0.3000000E+03  0.7818608E-02  0.1093470E+00
          1   -1    0    0  502    0  0.00000000000E+00  0.00000000000E+00  0.25046260116E+01  0.25046260116E+01  0.00000000000E+00 0.  1.
         13   -1    0    0    0    0 -0.00000000000E+00 -0.00000000000E+00 -0.10000000000E+04  0.10000000000E+04  0.00000000000E+00 0.  1.
    9000005    2    1    2  501    0 -0.14282924876E+02 -0.27209020444E+02 -0.89423909303E+03  0.89477258670E+03  0.31770541486E+01 0.  0.
         13    1    3    3    0    0 -0.70600244073E+01 -0.11423143959E+02 -0.35383605045E+03  0.35409078322E+03  0.00000000000E+00 0.  1.
          3    1    3    3  501    0 -0.72229004691E+01 -0.15785876485E+02 -0.54040304258E+03  0.54068180348E+03  0.00000000000E+00 0.  1.
         21    1    1    2  502  501  0.14282924876E+02  0.27209020444E+02 -0.10325628096E+03  0.10773203931E+03  0.00000000000E+00 0.  1.
<mgrwt>
<rscale>  1 0.30000000E+03</rscale>
<asrwt>0</asrwt>
<pdfrwt beam="1">  1        1 0.91077502E-02 0.30000000E+03</pdfrwt>
<pdfrwt beam="2">0</pdfrwt>
<totfact> 0.86006659E+02</totfact>
</mgrwt>
</event>
<event>
 6    1  0.1956957E-002  0.3000000E+03  0.7818608E-02  0.1093470E+00
          1   -1    0    0  502    0  0.00000000000E+00  0.00000000000E+00  0.32495422038E+01  0.32495422038E+01  0.00000000000E+00 0.  1.
         13   -1    0    0    0    0 -0.00000000000E+00 -0.00000000000E+00 -0.10000000000E+04  0.10000000000E+04  0.00000000000E+00 0.  1.
    9000005    2    1    2  501    0 -0.30137184906E+02  0.30920536711E+02 -0.82566896969E+03  0.82680350208E+03  0.32332691488E+01 0.  0.
         13    1    3    3    0    0 -0.96931791180E+01  0.10260869085E+02 -0.24202072041E+03  0.24243199513E+03  0.00000000000E+00 0.  1.
          3    1    3    3  501    0 -0.20444005788E+02  0.20659667626E+02 -0.58364824928E+03  0.58437150694E+03  0.00000000000E+00 0.  1.
         21    1    1    2  502  501  0.30137184906E+02 -0.30920536711E+02 -0.17108148810E+03  0.17644604013E+03  0.00000000000E+00 0.  1.
<mgrwt>
<rscale>  1 0.30000000E+03</rscale>
<asrwt>0</asrwt>
<pdfrwt beam="1">  1        1 0.11816542E-01 0.30000000E+03</pdfrwt>
<pdfrwt beam="2">0</pdfrwt>
<totfact> 0.60072815E+02</totfact>
</mgrwt>
</event>
<event>
 6    1  0.1956957E-002  0.3000000E+03  0.7818608E-02  0.1093470E+00
          3   -1    0    0  502    0  0.00000000000E+00  0.00000000000E+00  0.11740977051E+01  0.11740977051E+01  0.00000000000E+00 0.  1.
         13   -1    0    0    0    0 -0.00000000000E+00 -0.00000000000E+00 -0.10000000000E+04  0.10000000000E+04  0.00000000000E+00 0.  1.
    9000005    2    1    2  501    0 -0.17512287306E+02 -0.27211299741E+02 -0.66063077383E+03  0.66143437386E+03  0.39085231580E+01 0.  0.
         13    1    3    3    0    0 -0.17627499655E+02 -0.26215217774E+02 -0.64131239481E+03  0.64208998911E+03  0.00000000000E+00 0.  1.
          3    1    3    3  501    0  0.11521234851E+00 -0.99608196660E+00 -0.19318379023E+02  0.19344384747E+02  0.00000000000E+00 0.  1.
         21    1    1    2  502  501  0.17512287306E+02  0.27211299741E+02 -0.33819512846E+03  0.33973972384E+03  0.00000000000E+00 0.  1.
<mgrwt>
<rscale>  1 0.30000000E+03</rscale>
<asrwt>0</asrwt>
<pdfrwt beam="1">  1        3 0.42694552E-02 0.30000000E+03</pdfrwt>
<pdfrwt beam="2">0</pdfrwt>
<totfact> 0.12622827E+03</totfact>
</mgrwt>
</event>
<event>
 6    1  0.1956957E-002  0.3000000E+03  0.7818608E-02  0.1093470E+00
          1   -1    0    0  502    0  0.00000000000E+00  0.00000000000E+00  0.21555105448E+01  0.21555105448E+01  0.00000000000E+00 0.  1.
         13   -1    0    0    0    0 -0.00000000000E+00 -0.00000000000E+00 -0.10000000000E+04  0.10000000000E+04  0.00000000000E+00 0.  1.
    9000005    2    1    2  501    0 -0.35743923165E+02  0.21321904013E+01 -0.81707101385E+03  0.81786979823E+03  0.48775928495E+01 0.  0.
         13    1    3    3    0    0 -0.13342941607E+02  0.11692021906E+01 -0.25461646482E+03  0.25496851822E+03  0.00000000000E+00 0.  1.
          1    1    3    3  501    0 -0.22400981558E+02  0.96298821071E+00 -0.56245454903E+03  0.56290128001E+03  0.00000000000E+00 0.  1.
         21    1    1    2  502  501  0.35743923165E+02 -0.21321904013E+01 -0.18077347561E+03  0.18428571231E+03  0.00000000000E+00 0.  1.
<mgrwt>
<rscale>  1 0.30000000E+03</rscale>
<asrwt>0</asrwt>
<pdfrwt beam="1">  1        1 0.78382367E-02 0.30000000E+03</pdfrwt>
<pdfrwt beam="2">0</pdfrwt>
<totfact> 0.10595648E+03</totfact>
</mgrwt>
</event>
<event>
 6    1  0.1956957E-002  0.3000000E+03  0.7818608E-02  0.1093470E+00
          3   -1    0    0  502    0  0.00000000000E+00  0.00000000000E+00  0.57834325412E+01  0.57834325412E+01  0.00000000000E+00 0.  1.
         13   -1    0    0    0    0 -0.00000000000E+00 -0.00000000000E+00 -0.10000000000E+04  0.10000000000E+04  0.00000000000E+00 0.  1.
    9000005    2    1    2  501    0  0.33841126134E+02  0.63155920102E+02 -0.66522356908E+03  0.66907839094E+03  0.30990792429E+01 0.  0.
         13    1    3    3    0    0  0.14538934648E+02  0.30371811277E+02 -0.31447368545E+03  0.31627128605E+03  0.00000000000E+00 0.  1.
          1    1    3    3  501    0  0.19302191486E+02  0.32784108825E+02 -0.35074988364E+03  0.35280710489E+03  0.00000000000E+00 0.  1.
         21    1    1    2  502  501 -0.33841126134E+02 -0.63155920102E+02 -0.32899299838E+03  0.33670504161E+03  0.00000000000E+00 0.  1.
<mgrwt>
<rscale>  1 0.30000000E+03</rscale>
<asrwt>0</asrwt>
<pdfrwt beam="1">  1        3 0.21030708E-01 0.30000000E+03</pdfrwt>
<pdfrwt beam="2">0</pdfrwt>
<totfact> 0.91174150E+01</totfact>
</mgrwt>
</event>
<event>
 6    1  0.1956957E-002  0.3000000E+03  0.7818608E-02  0.1093470E+00
          1   -1    0    0  502    0  0.00000000000E+00  0.00000000000E+00  0.21566466154E+01  0.21566466154E+01  0.00000000000E+00 0.  1.
         13   -1    0    0    0    0 -0.00000000000E+00 -0.00000000000E+00 -0.10000000000E+04  0.10000000000E+04  0.00000000000E+00 0.  1.
    9000005    2    1    2  501    0 -0.16901737296E+02  0.27343087731E+02 -0.86022308585E+03  0.86083201605E+03  0.38326549065E+01 0.  0.
         13    1    3    3    0    0 -0.10984630371E+02  0.16086347832E+02 -0.56337520810E+03  0.56371185706E+03  0.00000000000E+00 0.  1.
          3    1    3    3  501    0 -0.59171069252E+01  0.11256739899E+02 -0.29684787776E+03  0.29712015898E+03  0.00000000000E+00 0.  1.
         21    1    1    2  502  501  0.16901737296E+02 -0.27343087731E+02 -0.13762026753E+03  0.14132463057E+03  0.00000000000E+00 0.  1.
<mgrwt>
<rscale>  1 0.30000000E+03</rscale>
<asrwt>0</asrwt>
<pdfrwt beam="1">  1        1 0.78423679E-02 0.30000000E+03</pdfrwt>
<pdfrwt beam="2">0</pdfrwt>
<totfact> 0.10587871E+03</totfact>
</mgrwt>
</event>
<event>
 6    1  0.1956957E-002  0.3000000E+03  0.7818608E-02  0.1093470E+00
          3   -1    0    0  502    0  0.00000000000E+00  0.00000000000E+00  0.10657896441E+01  0.10657896441E+01  0.00000000000E+00 0.  1.
         13   -1    0    0    0    0 -0.00000000000E+00 -0.00000000000E+00 -0.10000000000E+04  0.10000000000E+04  0.00000000000E+00 0.  1.
    9000005    2    1    2  501    0  0.12156773934E+02  0.27623259047E+02 -0.68873425891E+03  0.68940115984E+03  0.28719682930E+01 0.  0.
         13    1    3    3    0    0  0.12304133366E+02  0.27481169023E+02 -0.68344248743E+03  0.68410543045E+03  0.00000000000E+00 0.  1.
          3    1    3    3  501    0 -0.14735943221E+00  0.14209002453E+00 -0.52917714775E+01  0.52957293877E+01  0.00000000000E+00 0.  1.
         21    1    1    2  502  501 -0.12156773934E+02 -0.27623259047E+02 -0.31019995145E+03  0.31166462981E+03  0.00000000000E+00 0.  1.
<mgrwt>
<rscale>  1 0.30000000E+03</rscale>
<asrwt>0</asrwt>
<pdfrwt beam="1">  1        3 0.38756069E-02 0.30000000E+03</pdfrwt>
<pdfrwt beam="2">0</pdfrwt>
<totfact> 0.14646623E+03</totfact>
</mgrwt>
</event>
<event>
 6    1  0.1956957E-002  0.3000000E+03  0.7818608E-02  0.1093470E+00
          1   -1    0    0  502    0  0.00000000000E+00  0.00000000000E+00  0.12359643378E+01  0.12359643378E+01  0.00000000000E+00 0.  1.
         13   -1    0    0    0    0 -0.00000000000E+00 -0.00000000000E+00 -0.10000000000E+04  0.10000000000E+04  0.00000000000E+00 0.  1.
    9000005    2    1    2  501    0  0.13988553744E+02 -0.31780916622E+02 -0.55764791572E+03  0.55875530084E+03  0.55301005537E+01 0.  0.
         13    1    3    3    0    0  0.11113145133E+02 -0.28111693509E+02 -0.45625944103E+03  0.45725971486E+03  0.00000000000E+00 0.  1.
          1    1    3    3  501    0  0.28754086108E+01 -0.36692231126E+01 -0.10138847469E+03  0.10149558598E+03  0.00000000000E+00 0.  1.
         21    1    1    2  502  501 -0.13988553744E+02  0.31780916622E+02 -0.44111611994E+03  0.44248066350E+03  0.00000000000E+00 0.  1.
<mgrwt>
<rscale>  1 0.30000000E+03</rscale>
<asrwt>0</asrwt>
<pdfrwt beam="1">  1        1 0.44944253E-02 0.30000000E+03</pdfrwt>
<pdfrwt beam="2">0</pdfrwt>
<totfact> 0.23109118E+03</totfact>
</mgrwt>
</event>
<event>
 6    1  0.1956957E-002  0.3000000E+03  0.7818608E-02  0.1093470E+00
          1   -1    0    0  502    0  0.00000000000E+00  0.00000000000E+00  0.29156443603E+01  0.29156443603E+01  0.00000000000E+00 0.  1.
         13   -1    0    0    0    0 -0.00000000000E+00 -0.00000000000E+00 -0.10000000000E+04  0.10000000000E+04  0.00000000000E+00 0.  1.
    9000005    2    1    2  501    0  0.20585497977E+02  0.22997514407E+02 -0.90990700582E+03  0.91043570753E+03  0.31256832819E+01 0.  0.
         13    1    3    3    0    0  0.34718905147E+01  0.28461899210E+01 -0.15933222629E+03  0.15939546153E+03  0.00000000000E+00 0.  1.
          1    1    3    3  501    0  0.17113607463E+02  0.20151324486E+02 -0.75057477953E+03  0.75104024600E+03  0.00000000000E+00 0.  1.
         21    1    1    2  502  501 -0.20585497977E+02 -0.22997514407E+02 -0.87177349816E+02  0.92479936834E+02  0.00000000000E+00 0.  1.
<mgrwt>
<rscale>  1 0.30000000E+03</rscale>
<asrwt>0</asrwt>
<pdfrwt beam="1">  1        1 0.10602365E-01 0.30000000E+03</pdfrwt>
<pdfrwt beam="2">0</pdfrwt>
<totfact> 0.69719851E+02</totfact>
</mgrwt>
</event>
<event>
 6    1  0.1956957E-002  0.3000000E+03  0.7818608E-02  0.1093470E+00
          1   -1    0    0  502    0  0.00000000000E+00  0.00000000000E+00  0.85478998773E+01  0.85478998773E+01  0.00000000000E+00 0.  1.
         13   -1    0    0    0    0 -0.00000000000E+00 -0.00000000000E+00 -0.10000000000E+04  0.10000000000E+04  0.00000000000E+00 0.  1.
    9000005    2    1    2  501    0  0.29100887275E+00  0.36538154852E+02 -0.95892016355E+03  0.95962501829E+03  0.41441776559E+01 0.  0.
         13    1    3    3    0    0  0.81968222150E+00  0.27425354570E+02 -0.76101181360E+03  0.76150627206E+03  0.00000000000E+00 0.  1.
          1    1    3    3  501    0 -0.52867334875E+00  0.91128002817E+01 -0.19790834995E+03  0.19811874622E+03  0.00000000000E+00 0.  1.
         21    1    1    2  502  501 -0.29100887275E+00 -0.36538154852E+02 -0.32531936571E+02  0.48922881592E+02  0.00000000000E+00 0.  1.
<mgrwt>
<rscale>  1 0.30000000E+03</rscale>
<asrwt>0</asrwt>
<pdfrwt beam="1">  1        1 0.31083338E-01 0.30000000E+03</pdfrwt>
<pdfrwt beam="2">0</pdfrwt>
<totfact> 0.16438787E+02</totfact>
</mgrwt>
</event>
<event>
 6    1  0.1956957E-002  0.3000000E+03  0.7818608E-02  0.1093470E+00
          1   -1    0    0  502    0  0.00000000000E+00  0.00000000000E+00  0.27080134895E+01  0.27080134895E+01  0.00000000000E+00 0.  1.
         13   -1    0    0    0    0 -0.00000000000E+00 -0.00000000000E+00 -0.10000000000E+04  0.10000000000E+04  0.00000000000E+00 0.  1.
    9000005    2    1    2  501    0 -0.42857406906E+02 -0.25679051127E+02 -0.63817759440E+03  0.64013482416E+03  0.24041891840E+01 0.  0.
         13    1    3    3    0    0 -0.90050054136E+01 -0.50865821771E+01 -0.14449641345E+03  0.14486606553E+03  0.00000000000E+00 0.  1.
          3    1    3    3  501    0 -0.33852401492E+02 -0.20592468950E+02 -0.49368118094E+03  0.49526875864E+03  0.00000000000E+00 0.  1.
         21    1    1    2  502  501  0.42857406906E+02  0.25679051127E+02 -0.35911439211E+03  0.36257318933E+03  0.00000000000E+00 0.  1.
<mgrwt>
<rscale>  1 0.30000000E+03</rscale>
<asrwt>0</asrwt>
<pdfrwt beam="1">  1        1 0.98473425E-02 0.30000000E+03</pdfrwt>
<pdfrwt beam="2">0</pdfrwt>
<totfact> 0.77196351E+02</totfact>
</mgrwt>
</event>
<event>
 6    1  0.1956957E-002  0.3000000E+03  0.7818608E-02  0.1093470E+00
          1   -1    0    0  502    0  0.00000000000E+00  0.00000000000E+00  0.41731797793E+01  0.41731797793E+01  0.00000000000E+00 0.  1.
         13   -1    0    0    0    0 -0.00000000000E+00 -0.00000000000E+00 -0.10000000000E+04  0.10000000000E+04  0.00000000000E+00 0.  1.
    9000005    2    1    2  501    0 -0.20899246848E+02  0.35060833703E+02 -0.88642248850E+03  0.88740268531E+03  0.85239194585E+01 0.  0.
         13    1    3    3    0    0 -0.10117323965E+02  0.24643336702E+02 -0.59075330688E+03  0.59135363690E+03  0.00000000000E+00 0.  1.
          1    1    3    3  501    0 -0.10781922883E+02  0.10417497001E+02 -0.29566918162E+03  0.29604904841E+03  0.00000000000E+00 0.  1.
         21    1    1    2  502  501  0.20899246848E+02 -0.35060833703E+02 -0.10940433172E+03  0.11677049447E+03  0.00000000000E+00 0.  1.
<mgrwt>
<rscale>  1 0.30000000E+03</rscale>
<asrwt>0</asrwt>
<pdfrwt beam="1">  1        1 0.15175231E-01 0.30000000E+03</pdfrwt>
<pdfrwt beam="2">0</pdfrwt>
<totfact> 0.42702043E+02</totfact>
</mgrwt>
</event>
<event>
 6    1  0.1956957E-002  0.3000000E+03  0.7818608E-02  0.1093470E+00
          1   -1    0    0  502    0  0.00000000000E+00  0.00000000000E+00  0.27977853899E+01  0.27977853899E+01  0.00000000000E+00 0.  1.
         13   -1    0    0    0    0 -0.00000000000E+00 -0.00000000000E+00 -0.10000000000E+04  0.10000000000E+04  0.00000000000E+00 0.  1.
    9000005    2    1    2  501    0 -0.37034472600E+02  0.19213874972E+02 -0.19345079940E+03  0.19796422334E+03  0.50888880246E+01 0.  0.
         13    1    3    3    0    0 -0.18557458161E+02  0.10716828705E+02 -0.88142478508E+02  0.90710121753E+02  0.00000000000E+00 0.  1.
          1    1    3    3  501    0 -0.18477014439E+02  0.84970462661E+01 -0.10530832090E+03  0.10725410159E+03  0.00000000000E+00 0.  1.
         21    1    1    2  502  501  0.37034472600E+02 -0.19213874972E+02 -0.80375141521E+03  0.80483356205E+03  0.00000000000E+00 0.  1.
<mgrwt>
<rscale>  1 0.30000000E+03</rscale>
<asrwt>0</asrwt>
<pdfrwt beam="1">  1        1 0.10173787E-01 0.30000000E+03</pdfrwt>
<pdfrwt beam="2">0</pdfrwt>
<totfact> 0.73798241E+02</totfact>
</mgrwt>
</event>
<event>
 6    1  0.1956957E-002  0.3000000E+03  0.7818608E-02  0.1093470E+00
          1   -1    0    0  502    0  0.00000000000E+00  0.00000000000E+00  0.12140399014E+01  0.12140399014E+01  0.00000000000E+00 0.  1.
         13   -1    0    0    0    0 -0.00000000000E+00 -0.00000000000E+00 -0.10000000000E+04  0.10000000000E+04  0.00000000000E+00 0.  1.
    9000005    2    1    2  501    0 -0.41155184003E+01  0.34320879537E+02 -0.55454728490E+03  0.55563255375E+03  0.31596402105E+01 0.  0.
         13    1    3    3    0    0 -0.26250331590E+01  0.26803265650E+02 -0.41184466184E+03  0.41272428004E+03  0.00000000000E+00 0.  1.
          1    1    3    3  501    0 -0.14904852413E+01  0.75176138875E+01 -0.14270262307E+03  0.14290827371E+03  0.00000000000E+00 0.  1.
         21    1    1    2  502  501  0.41155184003E+01 -0.34320879537E+02 -0.44423867519E+03  0.44558148615E+03  0.00000000000E+00 0.  1.
<mgrwt>
<rscale>  1 0.30000000E+03</rscale>
<asrwt>0</asrwt>
<pdfrwt beam="1">  1        1 0.44146999E-02 0.30000000E+03</pdfrwt>
<pdfrwt beam="2">0</pdfrwt>
<totfact> 0.23698664E+03</totfact>
</mgrwt>
</event>
<event>
 6    1  0.1956957E-002  0.3000000E+03  0.7818608E-02  0.1093470E+00
          1   -1    0    0  502    0  0.00000000000E+00  0.00000000000E+00  0.19360451854E+01  0.19360451854E+01  0.00000000000E+00 0.  1.
         13   -1    0    0    0    0 -0.00000000000E+00 -0.00000000000E+00 -0.10000000000E+04  0.10000000000E+04  0.00000000000E+00 0.  1.
    9000005    2    1    2  501    0  0.17195919192E+02 -0.27327417539E+02 -0.83902034831E+03  0.83964816469E+03  0.33776026964E+01 0.  0.
         13    1    3    3    0    0  0.16995803116E+02 -0.25628368651E+02 -0.79639367214E+03  0.79698717156E+03  0.00000000000E+00 0.  1.
          1    1    3    3  501    0  0.20011607645E+00 -0.16990488880E+01 -0.42626676172E+02  0.42660993132E+02  0.00000000000E+00 0.  1.
         21    1    1    2  502  501 -0.17195919192E+02  0.27327417539E+02 -0.15904360650E+03  0.16228788049E+03  0.00000000000E+00 0.  1.
<mgrwt>
<rscale>  1 0.30000000E+03</rscale>
<asrwt>0</asrwt>
<pdfrwt beam="1">  1        1 0.70401792E-02 0.30000000E+03</pdfrwt>
<pdfrwt beam="2">0</pdfrwt>
<totfact> 0.12309212E+03</totfact>
</mgrwt>
</event>
<event>
 6    1  0.1956957E-002  0.3000000E+03  0.7818608E-02  0.1093470E+00
          3   -1    0    0  502    0  0.00000000000E+00  0.00000000000E+00  0.80586800712E+01  0.80586800712E+01  0.00000000000E+00 0.  1.
         13   -1    0    0    0    0 -0.00000000000E+00 -0.00000000000E+00 -0.10000000000E+04  0.10000000000E+04  0.00000000000E+00 0.  1.
    9000005    2    1    2  501    0  0.32316222817E+02 -0.19237497353E+02 -0.95352976578E+03  0.95430119637E+03  0.75722920237E+01 0.  0.
         13    1    3    3    0    0  0.11546897067E+02 -0.30126486100E+01 -0.27032035332E+03  0.27058362904E+03  0.00000000000E+00 0.  1.
          1    1    3    3  501    0  0.20769325750E+02 -0.16224848743E+02 -0.68320941246E+03  0.68371756733E+03  0.00000000000E+00 0.  1.
         21    1    1    2  502  501 -0.32316222817E+02  0.19237497353E+02 -0.38411554149E+02  0.53757483700E+02  0.00000000000E+00 0.  1.
<mgrwt>
<rscale>  1 0.30000000E+03</rscale>
<asrwt>0</asrwt>
<pdfrwt beam="1">  1        3 0.29304353E-01 0.30000000E+03</pdfrwt>
<pdfrwt beam="2">0</pdfrwt>
<totfact> 0.48895253E+01</totfact>
</mgrwt>
</event>
<event>
 6    1  0.1956957E-002  0.3000000E+03  0.7818608E-02  0.1093470E+00
          1   -1    0    0  502    0  0.00000000000E+00  0.00000000000E+00  0.28094199305E+01  0.28094199305E+01  0.00000000000E+00 0.  1.
         13   -1    0    0    0    0 -0.00000000000E+00 -0.00000000000E+00 -0.10000000000E+04  0.10000000000E+04  0.00000000000E+00 0.  1.
    9000005    2    1    2  501    0  0.14112216559E+02  0.50342862208E+02 -0.57856758481E+03  0.58093411775E+03  0.32311823106E+01 0.  0.
         13    1    3    3    0    0  0.12991760616E+02  0.44395370302E+02 -0.52088311253E+03  0.52293302790E+03  0.00000000000E+00 0.  1.
          3    1    3    3  501    0  0.11204559427E+01  0.59474919067E+01 -0.57684472283E+02  0.58001089852E+02  0.00000000000E+00 0.  1.
         21    1    1    2  502  501 -0.14112216559E+02 -0.50342862208E+02 -0.41862299526E+03  0.42187530218E+03  0.00000000000E+00 0.  1.
<mgrwt>
<rscale>  1 0.30000000E+03</rscale>
<asrwt>0</asrwt>
<pdfrwt beam="1">  1        1 0.10216094E-01 0.30000000E+03</pdfrwt>
<pdfrwt beam="2">0</pdfrwt>
<totfact> 0.73377122E+02</totfact>
</mgrwt>
</event>
<event>
 6    1  0.1956957E-002  0.3000000E+03  0.7818608E-02  0.1093470E+00
          1   -1    0    0  502    0  0.00000000000E+00  0.00000000000E+00  0.58814585204E+01  0.58814585204E+01  0.00000000000E+00 0.  1.
         13   -1    0    0    0    0 -0.00000000000E+00 -0.00000000000E+00 -0.10000000000E+04  0.10000000000E+04  0.00000000000E+00 0.  1.
    9000005    2    1    2  501    0  0.18449776782E+01 -0.32099414217E+02 -0.95362832438E+03  0.95417813159E+03  0.38922220892E+01 0.  0.
         13    1    3    3    0    0  0.88237121562E+00 -0.15669576911E+02 -0.40833630270E+03  0.40863779845E+03  0.00000000000E+00 0.  1.
          3    1    3    3  501    0  0.96260646258E+00 -0.16429837306E+02 -0.54529202168E+03  0.54554033313E+03  0.00000000000E+00 0.  1.
         21    1    1    2  502  501 -0.18449776782E+01  0.32099414217E+02 -0.40490217096E+02  0.51703326935E+02  0.00000000000E+00 0.  1.
<mgrwt>
<rscale>  1 0.30000000E+03</rscale>
<asrwt>0</asrwt>
<pdfrwt beam="1">  1        1 0.21387167E-01 0.30000000E+03</pdfrwt>
<pdfrwt beam="2">0</pdfrwt>
<totfact> 0.26922643E+02</totfact>
</mgrwt>
</event>
<event>
 6    1  0.1956957E-002  0.3000000E+03  0.7818608E-02  0.1093470E+00
          1   -1    0    0  502    0  0.00000000000E+00  0.00000000000E+00  0.13118615325E+01  0.13118615325E+01  0.00000000000E+00 0.  1.
         13   -1    0    0    0    0 -0.00000000000E+00 -0.00000000000E+00 -0.10000000000E+04  0.10000000000E+04  0.00000000000E+00 0.  1.
    9000005    2    1    2  501    0  0.99771719648E+01  0.33922746689E+02 -0.59395379167E+03  0.59503586153E+03  0.60227203031E+01 0.  0.
         13    1    3    3    0    0  0.94083027078E+01  0.26214587002E+02 -0.43110357319E+03  0.43200232817E+03  0.00000000000E+00 0.  1.
          3    1    3    3  501    0  0.56886925697E+00  0.77081596868E+01 -0.16285021849E+03  0.16303353336E+03  0.00000000000E+00 0.  1.
         21    1    1    2  502  501 -0.99771719648E+01 -0.33922746689E+02 -0.40473434679E+03  0.40627600000E+03  0.00000000000E+00 0.  1.
<mgrwt>
<rscale>  1 0.30000000E+03</rscale>
<asrwt>0</asrwt>
<pdfrwt beam="1">  1        1 0.47704156E-02 0.30000000E+03</pdfrwt>
<pdfrwt beam="2">0</pdfrwt>
<totfact> 0.21250566E+03</totfact>
</mgrwt>
</event>
<event>
 6    1  0.1956957E-002  0.3000000E+03  0.7818608E-02  0.1093470E+00
          1   -1    0    0  502    0  0.00000000000E+00  0.00000000000E+00  0.12674407682E+01  0.12674407682E+01  0.00000000000E+00 0.  1.
         13   -1    0    0    0    0 -0.00000000000E+00 -0.00000000000E+00 -0.10000000000E+04  0.10000000000E+04  0.00000000000E+00 0.  1.
    9000005    2    1    2  501    0  0.57036699181E+01 -0.29977590933E+02 -0.24441349431E+03  0.24633139082E+03  0.31638731340E+01 0.  0.
         13    1    3    3    0    0  0.60079944028E+01 -0.26619273013E+02 -0.22006413087E+03  0.22174964124E+03  0.00000000000E+00 0.  1.
          1    1    3    3  501    0 -0.30432448474E+00 -0.33583179201E+01 -0.24349363441E+02  0.24581749584E+02  0.00000000000E+00 0.  1.
         21    1    1    2  502  501 -0.57036699181E+01  0.29977590933E+02 -0.75431906492E+03  0.75493604995E+03  0.00000000000E+00 0.  1.
<mgrwt>
<rscale>  1 0.30000000E+03</rscale>
<asrwt>0</asrwt>
<pdfrwt beam="1">  1        1 0.46088852E-02 0.30000000E+03</pdfrwt>
<pdfrwt beam="2">0</pdfrwt>
<totfact> 0.22305629E+03</totfact>
</mgrwt>
</event>
<event>
 6    1  0.1956957E-002  0.3000000E+03  0.7818608E-02  0.1093470E+00
          1   -1    0    0  502    0  0.00000000000E+00  0.00000000000E+00  0.13173514669E+01  0.13173514669E+01  0.00000000000E+00 0.  1.
         13   -1    0    0    0    0 -0.00000000000E+00 -0.00000000000E+00 -0.10000000000E+04  0.10000000000E+04  0.00000000000E+00 0.  1.
    9000005    2    1    2  501    0 -0.34539523014E+02 -0.18451286450E+01 -0.64836213006E+03  0.64929341931E+03  0.34798721641E+01 0.  0.
         13    1    3    3    0    0 -0.33090569493E+02 -0.22585272803E+01 -0.60908305395E+03  0.60998545339E+03  0.00000000000E+00 0.  1.
          3    1    3    3  501    0 -0.14489535204E+01  0.41339863531E+00 -0.39279076107E+02  0.39307965918E+02  0.00000000000E+00 0.  1.
         21    1    1    2  502  501  0.34539523014E+02  0.18451286450E+01 -0.35032051847E+03  0.35202393216E+03  0.00000000000E+00 0.  1.
<mgrwt>
<rscale>  1 0.30000000E+03</rscale>
<asrwt>0</asrwt>
<pdfrwt beam="1">  1        1 0.47903791E-02 0.30000000E+03</pdfrwt>
<pdfrwt beam="2">0</pdfrwt>
<totfact> 0.21126129E+03</totfact>
</mgrwt>
</event>
<event>
 6    1  0.1956957E-002  0.3000000E+03  0.7818608E-02  0.1093470E+00
          3   -1    0    0  502    0  0.00000000000E+00  0.00000000000E+00  0.94743418964E+00  0.94743418964E+00  0.00000000000E+00 0.  1.
         13   -1    0    0    0    0 -0.00000000000E+00 -0.00000000000E+00 -0.10000000000E+04  0.10000000000E+04  0.00000000000E+00 0.  1.
    9000005    2    1    2  501    0  0.25714896497E+01  0.30631260331E+02 -0.49786553540E+03  0.49881863983E+03  0.22488750901E+01 0.  0.
         13    1    3    3    0    0  0.28392173211E+01  0.25549222025E+02 -0.42286679622E+03  0.42364743744E+03  0.00000000000E+00 0.  1.
          1    1    3    3  501    0 -0.26772767139E+00  0.50820383062E+01 -0.74998739177E+02  0.75171202396E+02  0.00000000000E+00 0.  1.
         21    1    1    2  502  501 -0.25714896497E+01 -0.30631260331E+02 -0.50118703041E+03  0.50212879435E+03  0.00000000000E+00 0.  1.
<mgrwt>
<rscale>  1 0.30000000E+03</rscale>
<asrwt>0</asrwt>
<pdfrwt beam="1">  1        3 0.34452225E-02 0.30000000E+03</pdfrwt>
<pdfrwt beam="2">0</pdfrwt>
<totfact> 0.17559979E+03</totfact>
</mgrwt>
</event>
<event>
 6    1  0.1956957E-002  0.3000000E+03  0.7818608E-02  0.1093470E+00
          3   -1    0    0  502    0  0.00000000000E+00  0.00000000000E+00  0.29490056423E+01  0.29490056423E+01  0.00000000000E+00 0.  1.
         13   -1    0    0    0    0 -0.00000000000E+00 -0.00000000000E+00 -0.10000000000E+04  0.10000000000E+04  0.00000000000E+00 0.  1.
    9000005    2    1    2  501    0  0.15060850271E+02 -0.27865679107E+02 -0.90574875459E+03  0.90630830888E+03  0.32586854723E+01 0.  0.
         13    1    3    3    0    0  0.32411360959E+00 -0.20802405994E+00 -0.51131692347E+01  0.51276528026E+01  0.00000000000E+00 0.  1.
          3    1    3    3  501    0  0.14736736662E+02 -0.27657655047E+02 -0.90063558535E+03  0.90118065608E+03  0.00000000000E+00 0.  1.
         21    1    1    2  502  501 -0.15060850271E+02  0.27865679107E+02 -0.91302239770E+02  0.96640696759E+02  0.00000000000E+00 0.  1.
<mgrwt>
<rscale>  1 0.30000000E+03</rscale>
<asrwt>0</asrwt>
<pdfrwt beam="1">  1        3 0.10723679E-01 0.30000000E+03</pdfrwt>
<pdfrwt beam="2">0</pdfrwt>
<totfact> 0.29415212E+02</totfact>
</mgrwt>
</event>
<event>
 6    1  0.1956957E-002  0.3000000E+03  0.7818608E-02  0.1093470E+00
          1   -1    0    0  502    0  0.00000000000E+00  0.00000000000E+00  0.15257130023E+01  0.15257130023E+01  0.00000000000E+00 0.  1.
         13   -1    0    0    0    0 -0.00000000000E+00 -0.00000000000E+00 -0.10000000000E+04  0.10000000000E+04  0.00000000000E+00 0.  1.
    9000005    2    1    2  501    0  0.29665198304E+02 -0.22496497615E+02 -0.64292858671E+03  0.64403604687E+03  0.62566499903E+01 0.  0.
         13    1    3    3    0    0  0.23348449159E+02 -0.17463937024E+02 -0.54264705403E+03  0.54342981554E+03  0.00000000000E+00 0.  1.
          3    1    3    3  501    0  0.63167491450E+01 -0.50325605913E+01 -0.10028153268E+03  0.10060623133E+03  0.00000000000E+00 0.  1.
         21    1    1    2  502  501 -0.29665198304E+02  0.22496497615E+02 -0.35554570029E+03  0.35748966613E+03  0.00000000000E+00 0.  1.
<mgrwt>
<rscale>  1 0.30000000E+03</rscale>
<asrwt>0</asrwt>
<pdfrwt beam="1">  1        1 0.55480590E-02 0.30000000E+03</pdfrwt>
<pdfrwt beam="2">0</pdfrwt>
<totfact> 0.17187535E+03</totfact>
</mgrwt>
</event>
<event>
 6    1  0.1956957E-002  0.3000000E+03  0.7818608E-02  0.1093470E+00
          1   -1    0    0  502    0  0.00000000000E+00  0.00000000000E+00  0.32028535912E+01  0.32028535912E+01  0.00000000000E+00 0.  1.
         13   -1    0    0    0    0 -0.00000000000E+00 -0.00000000000E+00 -0.10000000000E+04  0.10000000000E+04  0.00000000000E+00 0.  1.
    9000005    2    1    2  501    0 -0.34734109189E+02  0.10367694519E+02 -0.88348058970E+03  0.88422979170E+03  0.32287346436E+01 0.  0.
         13    1    3    3    0    0 -0.60487343016E+01  0.11718778387E+01 -0.17728283057E+03  0.17738986019E+03  0.00000000000E+00 0.  1.
          3    1    3    3  501    0 -0.28685374887E+02  0.91958166800E+01 -0.70619775913E+03  0.70683993151E+03  0.00000000000E+00 0.  1.
         21    1    1    2  502  501  0.34734109189E+02 -0.10367694519E+02 -0.11331655671E+03  0.11897306189E+03  0.00000000000E+00 0.  1.
<mgrwt>
<rscale>  1 0.30000000E+03</rscale>
<asrwt>0</asrwt>
<pdfrwt beam="1">  1        1 0.11646765E-01 0.30000000E+03</pdfrwt>
<pdfrwt beam="2">0</pdfrwt>
<totfact> 0.61277072E+02</totfact>
</mgrwt>
</event>
<event>
 6    1  0.1956957E-002  0.3000000E+03  0.7818608E-02  0.1093470E+00
          1   -1    0    0  502    0  0.00000000000E+00  0.00000000000E+00  0.47702745313E+01  0.47702745313E+01  0.00000000000E+00 0.  1.
         13   -1    0    0    0    0 -0.00000000000E+00 -0.00000000000E+00 -0.10000000000E+04  0.10000000000E+04  0.00000000000E+00 0.  1.
    9000005    2    1    2  501    0 -0.14898931569E+02 -0.62628306514E+02 -0.31685022983E+03  0.32334307883E+03  0.35207307558E+01 0.  0.
         13    1    3    3    0    0 -0.50308680485E+01 -0.25426470759E+02 -0.13466387488E+03  0.13713560532E+03  0.00000000000E+00 0.  1.
          3    1    3    3  501    0 -0.98680635210E+01 -0.37201835755E+02 -0.18218635495E+03  0.18620747351E+03  0.00000000000E+00 0.  1.
         21    1    1    2  502  501  0.14898931569E+02  0.62628306514E+02 -0.67837949564E+03  0.68142719570E+03  0.00000000000E+00 0.  1.
<mgrwt>
<rscale>  1 0.30000000E+03</rscale>
<asrwt>0</asrwt>
<pdfrwt beam="1">  1        1 0.17346489E-01 0.30000000E+03</pdfrwt>
<pdfrwt beam="2">0</pdfrwt>
<totfact> 0.35638578E+02</totfact>
</mgrwt>
</event>
<event>
 6    1  0.1956957E-002  0.3000000E+03  0.7818608E-02  0.1093470E+00
          3   -1    0    0  502    0  0.00000000000E+00  0.00000000000E+00  0.37762756223E+01  0.37762756223E+01  0.00000000000E+00 0.  1.
         13   -1    0    0    0    0 -0.00000000000E+00 -0.00000000000E+00 -0.10000000000E+04  0.10000000000E+04  0.00000000000E+00 0.  1.
    9000005    2    1    2  501    0 -0.20232835744E+01  0.32106055798E+02 -0.92566489371E+03  0.92622989543E+03  0.33810131688E+01 0.  0.
         13    1    3    3    0    0  0.65127897947E+00  0.13290261909E+02 -0.35994509884E+03  0.36019096242E+03  0.00000000000E+00 0.  1.
          1    1    3    3  501    0 -0.26745625539E+01  0.18815793889E+02 -0.56571979487E+03  0.56603893302E+03  0.00000000000E+00 0.  1.
         21    1    1    2  502  501  0.20232835744E+01 -0.32106055798E+02 -0.70558830665E+02  0.77546380188E+02  0.00000000000E+00 0.  1.
<mgrwt>
<rscale>  1 0.30000000E+03</rscale>
<asrwt>0</asrwt>
<pdfrwt beam="1">  1        3 0.13731940E-01 0.30000000E+03</pdfrwt>
<pdfrwt beam="2">0</pdfrwt>
<totfact> 0.19377687E+02</totfact>
</mgrwt>
</event>
<event>
 6    1  0.1956957E-002  0.3000000E+03  0.7818608E-02  0.1093470E+00
          1   -1    0    0  502    0  0.00000000000E+00  0.00000000000E+00  0.70172788256E+01  0.70172788256E+01  0.00000000000E+00 0.  1.
         13   -1    0    0    0    0 -0.00000000000E+00 -0.00000000000E+00 -0.10000000000E+04  0.10000000000E+04  0.00000000000E+00 0.  1.
    9000005    2    1    2  501    0  0.26712438884E+02 -0.24787768228E+02 -0.94983651956E+03  0.95054088944E+03  0.32528067669E+01 0.  0.
         13    1    3    3    0    0  0.23119743304E+02 -0.19888025867E+02 -0.78205838982E+03  0.78265278457E+03  0.00000000000E+00 0.  1.
          1    1    3    3  501    0  0.35926955797E+01 -0.48997423604E+01 -0.16777812974E+03  0.16788810487E+03  0.00000000000E+00 0.  1.
         21    1    1    2  502  501 -0.26712438884E+02  0.24787768228E+02 -0.43146201611E+02  0.56476389387E+02  0.00000000000E+00 0.  1.
<mgrwt>
<rscale>  1 0.30000000E+03</rscale>
<asrwt>0</asrwt>
<pdfrwt beam="1">  1        1 0.25517431E-01 0.30000000E+03</pdfrwt>
<pdfrwt beam="2">0</pdfrwt>
<totfact> 0.21308891E+02</totfact>
</mgrwt>
</event>
<event>
 6    1  0.1956957E-002  0.3000000E+03  0.7818608E-02  0.1093470E+00
          3   -1    0    0  502    0  0.00000000000E+00  0.00000000000E+00  0.10013981529E+01  0.10013981529E+01  0.00000000000E+00 0.  1.
         13   -1    0    0    0    0 -0.00000000000E+00 -0.00000000000E+00 -0.10000000000E+04  0.10000000000E+04  0.00000000000E+00 0.  1.
    9000005    2    1    2  501    0  0.30939761468E+02  0.51444398493E+01 -0.55773312716E+03  0.55862265402E+03  0.30486657125E+01 0.  0.
         13    1    3    3    0    0  0.24034738122E+02  0.27103764398E+01 -0.42443596178E+03  0.42512457048E+03  0.00000000000E+00 0.  1.
          3    1    3    3  501    0  0.69050233464E+01  0.24340634095E+01 -0.13329716537E+03  0.13349808354E+03  0.00000000000E+00 0.  1.
         21    1    1    2  502  501 -0.30939761468E+02 -0.51444398493E+01 -0.44126547469E+03  0.44237874413E+03  0.00000000000E+00 0.  1.
<mgrwt>
<rscale>  1 0.30000000E+03</rscale>
<asrwt>0</asrwt>
<pdfrwt beam="1">  1        3 0.36414555E-02 0.30000000E+03</pdfrwt>
<pdfrwt beam="2">0</pdfrwt>
<totfact> 0.16120936E+03</totfact>
</mgrwt>
</event>
<event>
 6    1  0.1956957E-002  0.3000000E+03  0.7818608E-02  0.1093470E+00
          3   -1    0    0  502    0  0.00000000000E+00  0.00000000000E+00  0.11422172670E+01  0.11422172670E+01  0.00000000000E+00 0.  1.
         13   -1    0    0    0    0 -0.00000000000E+00 -0.00000000000E+00 -0.10000000000E+04  0.10000000000E+04  0.00000000000E+00 0.  1.
    9000005    2    1    2  501    0 -0.20056215280E+02 -0.26711973644E+02 -0.56874118693E+03  0.56973050290E+03  0.32445211629E+01 0.  0.
         13    1    3    3    0    0 -0.89861853558E+01 -0.11206537222E+02 -0.21868464791E+03  0.21915591079E+03  0.00000000000E+00 0.  1.
          3    1    3    3  501    0 -0.11070029924E+02 -0.15505436421E+02 -0.35005653902E+03  0.35057459210E+03  0.00000000000E+00 0.  1.
         21    1    1    2  502  501  0.20056215280E+02  0.26711973644E+02 -0.43011659581E+03  0.43141171437E+03  0.00000000000E+00 0.  1.
<mgrwt>
<rscale>  1 0.30000000E+03</rscale>
<asrwt>0</asrwt>
<pdfrwt beam="1">  1        3 0.41535261E-02 0.30000000E+03</pdfrwt>
<pdfrwt beam="2">0</pdfrwt>
<totfact> 0.13168343E+03</totfact>
</mgrwt>
</event>
<event>
 6    1  0.1956957E-002  0.3000000E+03  0.7818608E-02  0.1093470E+00
          1   -1    0    0  502    0  0.00000000000E+00  0.00000000000E+00  0.10279869842E+02  0.10279869842E+02  0.00000000000E+00 0.  1.
         13   -1    0    0    0    0 -0.00000000000E+00 -0.00000000000E+00 -0.10000000000E+04  0.10000000000E+04  0.00000000000E+00 0.  1.
    9000005    2    1    2  501    0  0.81135123012E+02 -0.13662122296E+02 -0.78994191923E+03  0.79422224944E+03  0.33442455923E+01 0.  0.
         13    1    3    3    0    0  0.48048793257E+02 -0.77844255938E+01 -0.48278656772E+03  0.48523412265E+03  0.00000000000E+00 0.  1.
          3    1    3    3  501    0  0.33086329755E+02 -0.58776967019E+01 -0.30715535151E+03  0.30898812678E+03  0.00000000000E+00 0.  1.
         21    1    1    2  502  501 -0.81135123012E+02  0.13662122296E+02 -0.19977821093E+03  0.21605762040E+03  0.00000000000E+00 0.  1.
<mgrwt>
<rscale>  1 0.30000000E+03</rscale>
<asrwt>0</asrwt>
<pdfrwt beam="1">  1        1 0.37381424E-01 0.30000000E+03</pdfrwt>
<pdfrwt beam="2">0</pdfrwt>
<totfact> 0.12913113E+02</totfact>
</mgrwt>
</event>
<event>
 6    1  0.1956957E-002  0.3000000E+03  0.7818608E-02  0.1093470E+00
          1   -1    0    0  502    0  0.00000000000E+00  0.00000000000E+00  0.17914377026E+01  0.17914377026E+01  0.00000000000E+00 0.  1.
         13   -1    0    0    0    0 -0.00000000000E+00 -0.00000000000E+00 -0.10000000000E+04  0.10000000000E+04  0.00000000000E+00 0.  1.
    9000005    2    1    2  501    0  0.37390668559E+02 -0.46856343011E+01 -0.72611097153E+03  0.72709685064E+03  0.35594886641E+01 0.  0.
         13    1    3    3    0    0  0.16858070419E+02 -0.31653875224E+01 -0.35769639446E+03  0.35810742079E+03  0.00000000000E+00 0.  1.
          1    1    3    3  501    0  0.20532598139E+02 -0.15202467787E+01 -0.36841457707E+03  0.36898942984E+03  0.00000000000E+00 0.  1.
         21    1    1    2  502  501 -0.37390668559E+02  0.46856343011E+01 -0.27209759076E+03  0.27469458707E+03  0.00000000000E+00 0.  1.
<mgrwt>
<rscale>  1 0.30000000E+03</rscale>
<asrwt>0</asrwt>
<pdfrwt beam="1">  1        1 0.65143327E-02 0.30000000E+03</pdfrwt>
<pdfrwt beam="2">0</pdfrwt>
<totfact> 0.13721724E+03</totfact>
</mgrwt>
</event>
<event>
 6    1  0.1956957E-002  0.3000000E+03  0.7818608E-02  0.1093470E+00
          1   -1    0    0  502    0  0.00000000000E+00  0.00000000000E+00  0.27535800501E+01  0.27535800501E+01  0.00000000000E+00 0.  1.
         13   -1    0    0    0    0 -0.00000000000E+00 -0.00000000000E+00 -0.10000000000E+04  0.10000000000E+04  0.00000000000E+00 0.  1.
    9000005    2    1    2  501    0 -0.49022363588E+02  0.68927113231E+01 -0.66341836918E+03  0.66527488579E+03  0.40049333881E+01 0.  0.
         13    1    3    3    0    0 -0.13494133656E+02  0.29380448686E+01 -0.16581088903E+03  0.16638501937E+03  0.00000000000E+00 0.  1.
          3    1    3    3  501    0 -0.35528229932E+02  0.39546664545E+01 -0.49760748015E+03  0.49888986642E+03  0.00000000000E+00 0.  1.
         21    1    1    2  502  501  0.49022363588E+02 -0.68927113231E+01 -0.33382805077E+03  0.33747869426E+03  0.00000000000E+00 0.  1.
<mgrwt>
<rscale>  1 0.30000000E+03</rscale>
<asrwt>0</asrwt>
<pdfrwt beam="1">  1        1 0.10013039E-01 0.30000000E+03</pdfrwt>
<pdfrwt beam="2">0</pdfrwt>
<totfact> 0.75437831E+02</totfact>
</mgrwt>
</event>
<event>
 6    1  0.1956957E-002  0.3000000E+03  0.7818608E-02  0.1093470E+00
          3   -1    0    0  502    0  0.00000000000E+00  0.00000000000E+00  0.22125286827E+01  0.22125286827E+01  0.00000000000E+00 0.  1.
         13   -1    0    0    0    0 -0.00000000000E+00 -0.00000000000E+00 -0.10000000000E+04  0.10000000000E+04  0.00000000000E+00 0.  1.
    9000005    2    1    2  501    0  0.43811050882E+01 -0.30533912205E+02 -0.87583379658E+03  0.87641820187E+03  0.85153661414E+01 0.  0.
         13    1    3    3    0    0 -0.14552097870E+01 -0.58551607429E+01 -0.24620441756E+03  0.24627832988E+03  0.00000000000E+00 0.  1.
          1    1    3    3  501    0  0.58363148751E+01 -0.24678751463E+02 -0.62962937903E+03  0.63013987199E+03  0.00000000000E+00 0.  1.
         21    1    1    2  502  501 -0.43811050882E+01  0.30533912205E+02 -0.12195367474E+03  0.12579432681E+03  0.00000000000E+00 0.  1.
<mgrwt>
<rscale>  1 0.30000000E+03</rscale>
<asrwt>0</asrwt>
<pdfrwt beam="1">  1        3 0.80455758E-02 0.30000000E+03</pdfrwt>
<pdfrwt beam="2">0</pdfrwt>
<totfact> 0.46963317E+02</totfact>
</mgrwt>
</event>
<event>
 6    1  0.1956957E-002  0.3000000E+03  0.7818608E-02  0.1093470E+00
          1   -1    0    0  502    0  0.00000000000E+00  0.00000000000E+00  0.15685463169E+02  0.15685463169E+02  0.00000000000E+00 0.  1.
         13   -1    0    0    0    0 -0.00000000000E+00 -0.00000000000E+00 -0.10000000000E+04  0.10000000000E+04  0.00000000000E+00 0.  1.
    9000005    2    1    2  501    0 -0.10190967211E+02  0.38409029888E+02 -0.97374309241E+03  0.97456533638E+03  0.47828321667E+01 0.  0.
         13    1    3    3    0    0 -0.60836556392E+01  0.20193382305E+02 -0.57163475666E+03  0.57202366960E+03  0.00000000000E+00 0.  1.
          3    1    3    3  501    0 -0.41073115718E+01  0.18215647583E+02 -0.40210833574E+03  0.40254166679E+03  0.00000000000E+00 0.  1.
         21    1    1    2  502  501  0.10190967211E+02 -0.38409029888E+02 -0.10571444426E+02  0.41120126786E+02  0.00000000000E+00 0.  1.
<mgrwt>
<rscale>  1 0.30000000E+03</rscale>
<asrwt>0</asrwt>
<pdfrwt beam="1">  1        1 0.57038168E-01 0.30000000E+03</pdfrwt>
<pdfrwt beam="2">0</pdfrwt>
<totfact> 0.74162971E+01</totfact>
</mgrwt>
</event>
<event>
 6    1  0.1956957E-002  0.3000000E+03  0.7818608E-02  0.1093470E+00
          1   -1    0    0  502    0  0.00000000000E+00  0.00000000000E+00  0.27367150764E+01  0.27367150764E+01  0.00000000000E+00 0.  1.
         13   -1    0    0    0    0 -0.00000000000E+00 -0.00000000000E+00 -0.10000000000E+04  0.10000000000E+04  0.00000000000E+00 0.  1.
    9000005    2    1    2  501    0  0.37438287745E+02 -0.18216965997E+02 -0.80187796339E+03  0.80296457710E+03  0.32188000254E+01 0.  0.
         13    1    3    3    0    0  0.24258545494E+02 -0.11144370742E+02 -0.54077681357E+03  0.54143534805E+03  0.00000000000E+00 0.  1.
          3    1    3    3  501    0  0.13179742252E+02 -0.70725952545E+01 -0.26110114982E+03  0.26152922905E+03  0.00000000000E+00 0.  1.
         21    1    1    2  502  501 -0.37438287745E+02  0.18216965997E+02 -0.19538532154E+03  0.19977213798E+03  0.00000000000E+00 0.  1.
<mgrwt>
<rscale>  1 0.30000000E+03</rscale>
<asrwt>0</asrwt>
<pdfrwt beam="1">  1        1 0.99517122E-02 0.30000000E+03</pdfrwt>
<pdfrwt beam="2">0</pdfrwt>
<totfact> 0.76080378E+02</totfact>
</mgrwt>
</event>
<event>
 6    1  0.1956957E-002  0.3000000E+03  0.7818608E-02  0.1093470E+00
          1   -1    0    0  502    0  0.00000000000E+00  0.00000000000E+00  0.47342670353E+01  0.47342670353E+01  0.00000000000E+00 0.  1.
         13   -1    0    0    0    0 -0.00000000000E+00 -0.00000000000E+00 -0.10000000000E+04  0.10000000000E+04  0.00000000000E+00 0.  1.
    9000005    2    1    2  501    0  0.14767943277E+02 -0.64602226164E+02 -0.63181771487E+03  0.63529414789E+03  0.36728396917E+01 0.  0.
         13    1    3    3    0    0  0.37131698649E+01 -0.23985253883E+02 -0.23480879269E+03  0.23605984232E+03  0.00000000000E+00 0.  1.
          3    1    3    3  501    0  0.11054773412E+02 -0.40616972280E+02 -0.39700892218E+03  0.39923430557E+03  0.00000000000E+00 0.  1.
         21    1    1    2  502  501 -0.14767943277E+02  0.64602226164E+02 -0.36344801810E+03  0.36944011914E+03  0.00000000000E+00 0.  1.
<mgrwt>
<rscale>  1 0.30000000E+03</rscale>
<asrwt>0</asrwt>
<pdfrwt beam="1">  1        1 0.17215553E-01 0.30000000E+03</pdfrwt>
<pdfrwt beam="2">0</pdfrwt>
<totfact> 0.36004227E+02</totfact>
</mgrwt>
</event>
<event>
 6    1  0.1956957E-002  0.3000000E+03  0.7818608E-02  0.1093470E+00
          1   -1    0    0  502    0  0.00000000000E+00  0.00000000000E+00  0.11350096891E+01  0.11350096891E+01  0.00000000000E+00 0.  1.
         13   -1    0    0    0    0 -0.00000000000E+00 -0.00000000000E+00 -0.10000000000E+04  0.10000000000E+04  0.00000000000E+00 0.  1.
    9000005    2    1    2  501    0  0.24899225293E+02 -0.20378651869E+02 -0.38474524023E+03  0.38617295532E+03  0.80864497898E+01 0.  0.
         13    1    3    3    0    0  0.90063830392E+01 -0.28920697321E+01 -0.12305828510E+03  0.12342131313E+03  0.00000000000E+00 0.  1.
          1    1    3    3  501    0  0.15892842253E+02 -0.17486582137E+02 -0.26168695513E+03  0.26275164219E+03  0.00000000000E+00 0.  1.
         21    1    1    2  502  501 -0.24899225293E+02  0.20378651869E+02 -0.61411975008E+03  0.61496205437E+03  0.00000000000E+00 0.  1.
<mgrwt>
<rscale>  1 0.30000000E+03</rscale>
<asrwt>0</asrwt>
<pdfrwt beam="1">  1        1 0.41273167E-02 0.30000000E+03</pdfrwt>
<pdfrwt beam="2">0</pdfrwt>
<totfact> 0.26054365E+03</totfact>
</mgrwt>
</event>
<event>
 6    1  0.1956957E-002  0.3000000E+03  0.7818608E-02  0.1093470E+00
          1   -1    0    0  502    0  0.00000000000E+00  0.00000000000E+00  0.24933392233E+01  0.24933392233E+01  0.00000000000E+00 0.  1.
         13   -1    0    0    0    0 -0.00000000000E+00 -0.00000000000E+00 -0.10000000000E+04  0.10000000000E+04  0.00000000000E+00 0.  1.
    9000005    2    1    2  501    0  0.29103109341E+02  0.10894532992E+02 -0.89095339890E+03  0.89150108977E+03  0.32484188641E+01 0.  0.
         13    1    3    3    0    0  0.13347858433E+02  0.33222150455E+01 -0.38166361117E+03  0.38191139618E+03  0.00000000000E+00 0.  1.
          1    1    3    3  501    0  0.15755250908E+02  0.75723179466E+01 -0.50928978773E+03  0.50958969359E+03  0.00000000000E+00 0.  1.
         21    1    1    2  502  501 -0.29103109341E+02 -0.10894532992E+02 -0.10655326188E+03  0.11099224946E+03  0.00000000000E+00 0.  1.
<mgrwt>
<rscale>  1 0.30000000E+03</rscale>
<asrwt>0</asrwt>
<pdfrwt beam="1">  1        1 0.90667072E-02 0.30000000E+03</pdfrwt>
<pdfrwt beam="2">0</pdfrwt>
<totfact> 0.86546827E+02</totfact>
</mgrwt>
</event>
<event>
 6    1  0.1956957E-002  0.3000000E+03  0.7818608E-02  0.1093470E+00
          1   -1    0    0  502    0  0.00000000000E+00  0.00000000000E+00  0.10055544633E+01  0.10055544633E+01  0.00000000000E+00 0.  1.
         13   -1    0    0    0    0 -0.00000000000E+00 -0.00000000000E+00 -0.10000000000E+04  0.10000000000E+04  0.00000000000E+00 0.  1.
    9000005    2    1    2  501    0 -0.30119233958E+02  0.78312559286E+01 -0.41151430737E+03  0.41270171327E+03  0.31909467768E+01 0.  0.
         13    1    3    3    0    0 -0.44573509328E+01  0.22043694304E+01 -0.73456952332E+02  0.73625070919E+02  0.00000000000E+00 0.  1.
          1    1    3    3  501    0 -0.25661883025E+02  0.56268864982E+01 -0.33805735504E+03  0.33907664235E+03  0.00000000000E+00 0.  1.
         21    1    1    2  502  501  0.30119233958E+02 -0.78312559286E+01 -0.58748013816E+03  0.58830384119E+03  0.00000000000E+00 0.  1.
<mgrwt>
<rscale>  1 0.30000000E+03</rscale>
<asrwt>0</asrwt>
<pdfrwt beam="1">  1        1 0.36565694E-02 0.30000000E+03</pdfrwt>
<pdfrwt beam="2">0</pdfrwt>
<totfact> 0.30897036E+03</totfact>
</mgrwt>
</event>
<event>
 6    1  0.1956957E-002  0.3000000E+03  0.7818608E-02  0.1093470E+00
          1   -1    0    0  502    0  0.00000000000E+00  0.00000000000E+00  0.28440221241E+01  0.28440221241E+01  0.00000000000E+00 0.  1.
         13   -1    0    0    0    0 -0.00000000000E+00 -0.00000000000E+00 -0.10000000000E+04  0.10000000000E+04  0.00000000000E+00 0.  1.
    9000005    2    1    2  501    0 -0.30595710700E+02  0.43007387489E+02 -0.43155823864E+03  0.43478897592E+03  0.36341917543E+01 0.  0.
         13    1    3    3    0    0 -0.10495927170E+02  0.17771955217E+02 -0.16604575720E+03  0.16732363958E+03  0.00000000000E+00 0.  1.
          1    1    3    3  501    0 -0.20099783530E+02  0.25235432272E+02 -0.26551248144E+03  0.26746533633E+03  0.00000000000E+00 0.  1.
         21    1    1    2  502  501  0.30595710700E+02 -0.43007387489E+02 -0.56559773924E+03  0.56805504621E+03  0.00000000000E+00 0.  1.
<mgrwt>
<rscale>  1 0.30000000E+03</rscale>
<asrwt>0</asrwt>
<pdfrwt beam="1">  1        1 0.10341920E-01 0.30000000E+03</pdfrwt>
<pdfrwt beam="2">0</pdfrwt>
<totfact> 0.72149356E+02</totfact>
</mgrwt>
</event>
<event>
 6    1  0.1956957E-002  0.3000000E+03  0.7818608E-02  0.1093470E+00
          1   -1    0    0  502    0  0.00000000000E+00  0.00000000000E+00  0.98118220141E+00  0.98118220141E+00  0.00000000000E+00 0.  1.
         13   -1    0    0    0    0 -0.00000000000E+00 -0.00000000000E+00 -0.10000000000E+04  0.10000000000E+04  0.00000000000E+00 0.  1.
    9000005    2    1    2  501    0  0.25269501323E+02  0.17275038631E+02 -0.60088826901E+03  0.60167564939E+03  0.31465180159E+01 0.  0.
         13    1    3    3    0    0  0.59374077053E+00  0.10384971444E+01 -0.29765177080E+02  0.29789205612E+02  0.00000000000E+00 0.  1.
          3    1    3    3  501    0  0.24675760553E+02  0.16236541486E+02 -0.57112309193E+03  0.57188644378E+03  0.00000000000E+00 0.  1.
         21    1    1    2  502  501 -0.25269501323E+02 -0.17275038631E+02 -0.39813054879E+03  0.39930553281E+03  0.00000000000E+00 0.  1.
<mgrwt>
<rscale>  1 0.30000000E+03</rscale>
<asrwt>0</asrwt>
<pdfrwt beam="1">  1        1 0.35679428E-02 0.30000000E+03</pdfrwt>
<pdfrwt beam="2">0</pdfrwt>
<totfact> 0.31982192E+03</totfact>
</mgrwt>
</event>
<event>
 6    1  0.1956957E-002  0.3000000E+03  0.7818608E-02  0.1093470E+00
          1   -1    0    0  502    0  0.00000000000E+00  0.00000000000E+00  0.13132526918E+01  0.13132526918E+01  0.00000000000E+00 0.  1.
         13   -1    0    0    0    0 -0.00000000000E+00 -0.00000000000E+00 -0.10000000000E+04  0.10000000000E+04  0.00000000000E+00 0.  1.
    9000005    2    1    2  501    0 -0.32984003480E+02  0.55472769192E+01 -0.68945505398E+03  0.69027795417E+03  0.40823755614E+01 0.  0.
         13    1    3    3    0    0 -0.28753638857E+02  0.34258990376E+01 -0.59702981763E+03  0.59773163850E+03  0.00000000000E+00 0.  1.
          3    1    3    3  501    0 -0.42303646236E+01  0.21213778816E+01 -0.92425236349E+02  0.92546315665E+02  0.00000000000E+00 0.  1.
         21    1    1    2  502  501  0.32984003480E+02 -0.55472769192E+01 -0.30923169333E+03  0.31103529852E+03  0.00000000000E+00 0.  1.
<mgrwt>
<rscale>  1 0.30000000E+03</rscale>
<asrwt>0</asrwt>
<pdfrwt beam="1">  1        1 0.47754744E-02 0.30000000E+03</pdfrwt>
<pdfrwt beam="2">0</pdfrwt>
<totfact> 0.21218915E+03</totfact>
</mgrwt>
</event>
<event>
 6    1  0.1956957E-002  0.3000000E+03  0.7818608E-02  0.1093470E+00
          1   -1    0    0  502    0  0.00000000000E+00  0.00000000000E+00  0.11303245799E+01  0.11303245799E+01  0.00000000000E+00 0.  1.
         13   -1    0    0    0    0 -0.00000000000E+00 -0.00000000000E+00 -0.10000000000E+04  0.10000000000E+04  0.00000000000E+00 0.  1.
    9000005    2    1    2  501    0 -0.24601124464E+02 -0.22516891278E+02 -0.55382475110E+03  0.55483758390E+03  0.32655570356E+01 0.  0.
         13    1    3    3    0    0 -0.80534297518E+01 -0.95091611025E+01 -0.20524260828E+03  0.20562054890E+03  0.00000000000E+00 0.  1.
          3    1    3    3  501    0 -0.16547694712E+02 -0.13007730175E+02 -0.34858214282E+03  0.34921703500E+03  0.00000000000E+00 0.  1.
         21    1    1    2  502  501  0.24601124464E+02  0.22516891278E+02 -0.44504492432E+03  0.44629274068E+03  0.00000000000E+00 0.  1.
<mgrwt>
<rscale>  1 0.30000000E+03</rscale>
<asrwt>0</asrwt>
<pdfrwt beam="1">  1        1 0.41102799E-02 0.30000000E+03</pdfrwt>
<pdfrwt beam="2">0</pdfrwt>
<totfact> 0.26206548E+03</totfact>
</mgrwt>
</event>
<event>
 6    1  0.1956957E-002  0.3000000E+03  0.7818608E-02  0.1093470E+00
          1   -1    0    0  502    0  0.00000000000E+00  0.00000000000E+00  0.10468698803E+01  0.10468698803E+01  0.00000000000E+00 0.  1.
         13   -1    0    0    0    0 -0.00000000000E+00 -0.00000000000E+00 -0.10000000000E+04  0.10000000000E+04  0.00000000000E+00 0.  1.
    9000005    2    1    2  501    0 -0.23805805905E+02  0.19321935414E+02 -0.65673331181E+03  0.65745633213E+03  0.31831184308E+01 0.  0.
         13    1    3    3    0    0 -0.55212337840E+01  0.36634367935E+01 -0.16774001320E+03  0.16787083374E+03  0.00000000000E+00 0.  1.
          3    1    3    3  501    0 -0.18284572121E+02  0.15658498620E+02 -0.48899329861E+03  0.48958549840E+03  0.00000000000E+00 0.  1.
         21    1    1    2  502  501  0.23805805905E+02 -0.19321935414E+02 -0.34221981831E+03  0.34359053775E+03  0.00000000000E+00 0.  1.
<mgrwt>
<rscale>  1 0.30000000E+03</rscale>
<asrwt>0</asrwt>
<pdfrwt beam="1">  1        1 0.38068076E-02 0.30000000E+03</pdfrwt>
<pdfrwt beam="2">0</pdfrwt>
<totfact> 0.29194862E+03</totfact>
</mgrwt>
</event>
<event>
 6    1  0.1956957E-002  0.3000000E+03  0.7818608E-02  0.1093470E+00
          3   -1    0    0  502    0  0.00000000000E+00  0.00000000000E+00  0.25878009212E+01  0.25878009212E+01  0.00000000000E+00 0.  1.
         13   -1    0    0    0    0 -0.00000000000E+00 -0.00000000000E+00 -0.10000000000E+04  0.10000000000E+04  0.00000000000E+00 0.  1.
    9000005    2    1    2  501    0  0.48333766435E+02 -0.13843350725E+02 -0.57285373257E+03  0.57506273403E+03  0.28209594159E+01 0.  0.
         13    1    3    3    0    0  0.22363521043E+02 -0.56036189765E+01 -0.27603814862E+03  0.27699925472E+03  0.00000000000E+00 0.  1.
          1    1    3    3  501    0  0.25970245392E+02 -0.82397317488E+01 -0.29681558395E+03  0.29806347931E+03  0.00000000000E+00 0.  1.
         21    1    1    2  502  501 -0.48333766435E+02  0.13843350725E+02 -0.42455846651E+03  0.42752506689E+03  0.00000000000E+00 0.  1.
<mgrwt>
<rscale>  1 0.30000000E+03</rscale>
<asrwt>0</asrwt>
<pdfrwt beam="1">  1        3 0.94102050E-02 0.30000000E+03</pdfrwt>
<pdfrwt beam="2">0</pdfrwt>
<totfact> 0.36482865E+02</totfact>
</mgrwt>
</event>
<event>
 6    1  0.1956957E-002  0.3000000E+03  0.7818608E-02  0.1093470E+00
          3   -1    0    0  502    0  0.00000000000E+00  0.00000000000E+00  0.13291161236E+01  0.13291161236E+01  0.00000000000E+00 0.  1.
         13   -1    0    0    0    0 -0.00000000000E+00 -0.00000000000E+00 -0.10000000000E+04  0.10000000000E+04  0.00000000000E+00 0.  1.
    9000005    2    1    2  501    0  0.31782140483E+02 -0.43678799306E+01 -0.26531247458E+03  0.26726935063E+03  0.36074631507E+01 0.  0.
         13    1    3    3    0    0  0.56033545952E+01 -0.21681223005E+01 -0.47798992473E+02  0.48175118250E+02  0.00000000000E+00 0.  1.
          1    1    3    3  501    0  0.26178785888E+02 -0.21997576301E+01 -0.21751348210E+03  0.21909423238E+03  0.00000000000E+00 0.  1.
         21    1    1    2  502  501 -0.31782140483E+02  0.43678799306E+01 -0.73335840930E+03  0.73405976550E+03  0.00000000000E+00 0.  1.
<mgrwt>
<rscale>  1 0.30000000E+03</rscale>
<asrwt>0</asrwt>
<pdfrwt beam="1">  1        3 0.48331597E-02 0.30000000E+03</pdfrwt>
<pdfrwt beam="2">0</pdfrwt>
<totfact> 0.10425975E+03</totfact>
</mgrwt>
</event>
<event>
 6    1  0.1956957E-002  0.3000000E+03  0.7818608E-02  0.1093470E+00
          3   -1    0    0  502    0  0.00000000000E+00  0.00000000000E+00  0.12370871362E+02  0.12370871362E+02  0.00000000000E+00 0.  1.
         13   -1    0    0    0    0 -0.00000000000E+00 -0.00000000000E+00 -0.10000000000E+04  0.10000000000E+04  0.00000000000E+00 0.  1.
    9000005    2    1    2  501    0  0.32579748974E+02 -0.41594122641E+02 -0.93922361532E+03  0.94071471461E+03  0.34152041406E+01 0.  0.
         13    1    3    3    0    0  0.30200732571E+02 -0.37000734481E+02 -0.85294053355E+03  0.85427670715E+03  0.00000000000E+00 0.  1.
          1    1    3    3  501    0  0.23790164029E+01 -0.45933881599E+01 -0.86283081773E+02  0.86438007462E+02  0.00000000000E+00 0.  1.
         21    1    1    2  502  501 -0.32579748974E+02  0.41594122641E+02 -0.48405513314E+02  0.71656156753E+02  0.00000000000E+00 0.  1.
<mgrwt>
<rscale>  1 0.30000000E+03</rscale>
<asrwt>0</asrwt>
<pdfrwt beam="1">  1        3 0.44985082E-01 0.30000000E+03</pdfrwt>
<pdfrwt beam="2">0</pdfrwt>
<totfact> 0.21437495E+01</totfact>
</mgrwt>
</event>
<event>
 6    1  0.1956957E-002  0.3000000E+03  0.7818608E-02  0.1093470E+00
          3   -1    0    0  502    0  0.00000000000E+00  0.00000000000E+00  0.10616089580E+01  0.10616089580E+01  0.00000000000E+00 0.  1.
         13   -1    0    0    0    0 -0.00000000000E+00 -0.00000000000E+00 -0.10000000000E+04  0.10000000000E+04  0.00000000000E+00 0.  1.
    9000005    2    1    2  501    0  0.29931844479E+02  0.10217714028E+02 -0.56640984287E+03  0.56737824292E+03  0.98814698130E+01 0.  0.
         13    1    3    3    0    0  0.28506565038E+02  0.74312689126E+01 -0.53567872380E+03  0.53648815750E+03  0.00000000000E+00 0.  1.
          3    1    3    3  501    0  0.14252794405E+01  0.27864451155E+01 -0.30731119071E+02  0.30890085419E+02  0.00000000000E+00 0.  1.
         21    1    1    2  502  501 -0.29931844479E+02 -0.10217714028E+02 -0.43252854817E+03  0.43368336604E+03  0.00000000000E+00 0.  1.
<mgrwt>
<rscale>  1 0.30000000E+03</rscale>
<asrwt>0</asrwt>
<pdfrwt beam="1">  1        3 0.38604044E-02 0.30000000E+03</pdfrwt>
<pdfrwt beam="2">0</pdfrwt>
<totfact> 0.14735375E+03</totfact>
</mgrwt>
</event>
<event>
 6    1  0.1956957E-002  0.3000000E+03  0.7818608E-02  0.1093470E+00
          1   -1    0    0  502    0  0.00000000000E+00  0.00000000000E+00  0.30214328581E+01  0.30214328581E+01  0.00000000000E+00 0.  1.
         13   -1    0    0    0    0 -0.00000000000E+00 -0.00000000000E+00 -0.10000000000E+04  0.10000000000E+04  0.00000000000E+00 0.  1.
    9000005    2    1    2  501    0 -0.49449811893E+01 -0.42393875470E+02 -0.81353381152E+03  0.81467687658E+03  0.62814984817E+01 0.  0.
         13    1    3    3    0    0  0.63251708382E+00 -0.20738778356E+02 -0.40694352333E+03  0.40747211952E+03  0.00000000000E+00 0.  1.
          3    1    3    3  501    0 -0.55774982732E+01 -0.21655097114E+02 -0.40659028820E+03  0.40720475706E+03  0.00000000000E+00 0.  1.
         21    1    1    2  502  501  0.49449811893E+01  0.42393875470E+02 -0.18344475562E+03  0.18834455628E+03  0.00000000000E+00 0.  1.
<mgrwt>
<rscale>  1 0.30000000E+03</rscale>
<asrwt>0</asrwt>
<pdfrwt beam="1">  1        1 0.10987052E-01 0.30000000E+03</pdfrwt>
<pdfrwt beam="2">0</pdfrwt>
<totfact> 0.66384683E+02</totfact>
</mgrwt>
</event>
<event>
 6    1  0.1956957E-002  0.3000000E+03  0.7818608E-02  0.1093470E+00
          1   -1    0    0  502    0  0.00000000000E+00  0.00000000000E+00  0.13160503263E+01  0.13160503263E+01  0.00000000000E+00 0.  1.
         13   -1    0    0    0    0 -0.00000000000E+00 -0.00000000000E+00 -0.10000000000E+04  0.10000000000E+04  0.00000000000E+00 0.  1.
    9000005    2    1    2  501    0 -0.29547217308E+02 -0.56380889077E+01 -0.77832058717E+03  0.77890913130E+03  0.34164764554E+01 0.  0.
         13    1    3    3    0    0 -0.22841300256E+02 -0.43111267508E+01 -0.63565851263E+03  0.63608337150E+03  0.00000000000E+00 0.  1.
          3    1    3    3  501    0 -0.67059170522E+01 -0.13269621570E+01 -0.14266207454E+03  0.14282575981E+03  0.00000000000E+00 0.  1.
         21    1    1    2  502  501  0.29547217308E+02  0.56380889077E+01 -0.22036336250E+03  0.22240691902E+03  0.00000000000E+00 0.  1.
<mgrwt>
<rscale>  1 0.30000000E+03</rscale>
<asrwt>0</asrwt>
<pdfrwt beam="1">  1        1 0.47856476E-02 0.30000000E+03</pdfrwt>
<pdfrwt beam="2">0</pdfrwt>
<totfact> 0.21155508E+03</totfact>
</mgrwt>
</event>
<event>
 6    1  0.1956957E-002  0.3000000E+03  0.7818608E-02  0.1093470E+00
          1   -1    0    0  502    0  0.00000000000E+00  0.00000000000E+00  0.32242879709E+01  0.32242879709E+01  0.00000000000E+00 0.  1.
         13   -1    0    0    0    0 -0.00000000000E+00 -0.00000000000E+00 -0.10000000000E+04  0.10000000000E+04  0.00000000000E+00 0.  1.
    9000005    2    1    2  501    0  0.15322333347E+02 -0.46913464289E+02 -0.74622143132E+03  0.74785574133E+03  0.24775494521E+01 0.  0.
         13    1    3    3    0    0  0.47677591506E+01 -0.18227975495E+02 -0.29097761923E+03  0.29158697760E+03  0.00000000000E+00 0.  1.
          3    1    3    3  501    0  0.10554574197E+02 -0.28685488794E+02 -0.45524381209E+03  0.45626876373E+03  0.00000000000E+00 0.  1.
         21    1    1    2  502  501 -0.15322333347E+02  0.46913464289E+02 -0.25055428071E+03  0.25536854664E+03  0.00000000000E+00 0.  1.
<mgrwt>
<rscale>  1 0.30000000E+03</rscale>
<asrwt>0</asrwt>
<pdfrwt beam="1">  1        1 0.11724708E-01 0.30000000E+03</pdfrwt>
<pdfrwt beam="2">0</pdfrwt>
<totfact> 0.60719017E+02</totfact>
</mgrwt>
</event>
<event>
 6    1  0.1956957E-002  0.3000000E+03  0.7818608E-02  0.1093470E+00
          3   -1    0    0  502    0  0.00000000000E+00  0.00000000000E+00  0.27464641587E+01  0.27464641587E+01  0.00000000000E+00 0.  1.
         13   -1    0    0    0    0 -0.00000000000E+00 -0.00000000000E+00 -0.10000000000E+04  0.10000000000E+04  0.00000000000E+00 0.  1.
    9000005    2    1    2  501    0  0.38678183884E+02  0.91019592028E+01 -0.82520861096E+03  0.82617267294E+03  0.36312988186E+01 0.  0.
         13    1    3    3    0    0  0.98517498452E+01  0.28271315994E+01 -0.24555367053E+03  0.24576748109E+03  0.00000000000E+00 0.  1.
          3    1    3    3  501    0  0.28826434039E+02  0.62748276034E+01 -0.57965494043E+03  0.58040519185E+03  0.00000000000E+00 0.  1.
         21    1    1    2  502  501 -0.38678183884E+02 -0.91019592028E+01 -0.17204492488E+03  0.17657379122E+03  0.00000000000E+00 0.  1.
<mgrwt>
<rscale>  1 0.30000000E+03</rscale>
<asrwt>0</asrwt>
<pdfrwt beam="1">  1        3 0.99871635E-02 0.30000000E+03</pdfrwt>
<pdfrwt beam="2">0</pdfrwt>
<totfact> 0.33093968E+02</totfact>
</mgrwt>
</event>
<event>
 6    1  0.1956957E-002  0.3000000E+03  0.7818608E-02  0.1093470E+00
          3   -1    0    0  502    0  0.00000000000E+00  0.00000000000E+00  0.31941725007E+01  0.31941725007E+01  0.00000000000E+00 0.  1.
         13   -1    0    0    0    0 -0.00000000000E+00 -0.00000000000E+00 -0.10000000000E+04  0.10000000000E+04  0.00000000000E+00 0.  1.
    9000005    2    1    2  501    0  0.34069265687E+02  0.39301770632E+02 -0.69394531393E+03  0.69589979455E+03  0.33288576456E+01 0.  0.
         13    1    3    3    0    0  0.24910935352E+02  0.30380403695E+02 -0.53586969849E+03  0.53730797258E+03  0.00000000000E+00 0.  1.
          1    1    3    3  501    0  0.91583303345E+01  0.89213669367E+01 -0.15807561543E+03  0.15859182197E+03  0.00000000000E+00 0.  1.
         21    1    1    2  502  501 -0.34069265687E+02 -0.39301770632E+02 -0.30286051357E+03  0.30729437795E+03  0.00000000000E+00 0.  1.
<mgrwt>
<rscale>  1 0.30000000E+03</rscale>
<asrwt>0</asrwt>
<pdfrwt beam="1">  1        3 0.11615197E-01 0.30000000E+03</pdfrwt>
<pdfrwt beam="2">0</pdfrwt>
<totfact> 0.25735605E+02</totfact>
</mgrwt>
</event>
<event>
 6    1  0.1956957E-002  0.3000000E+03  0.7818608E-02  0.1093470E+00
          3   -1    0    0  502    0  0.00000000000E+00  0.00000000000E+00  0.17771738709E+01  0.17771738709E+01  0.00000000000E+00 0.  1.
         13   -1    0    0    0    0 -0.00000000000E+00 -0.00000000000E+00 -0.10000000000E+04  0.10000000000E+04  0.00000000000E+00 0.  1.
    9000005    2    1    2  501    0  0.41337914187E+02  0.77669516828E+01 -0.51284196499E+03  0.51457728774E+03  0.37088156016E+01 0.  0.
         13    1    3    3    0    0  0.39790358072E+02  0.79105412432E+01 -0.48597571714E+03  0.48766612238E+03  0.00000000000E+00 0.  1.
          1    1    3    3  501    0  0.15475561155E+01 -0.14358956038E+00 -0.26866247849E+02  0.26911165367E+02  0.00000000000E+00 0.  1.
         21    1    1    2  502  501 -0.41337914187E+02 -0.77669516828E+01 -0.48538086114E+03  0.48719988613E+03  0.00000000000E+00 0.  1.
<mgrwt>
<rscale>  1 0.30000000E+03</rscale>
<asrwt>0</asrwt>
<pdfrwt beam="1">  1        3 0.64624641E-02 0.30000000E+03</pdfrwt>
<pdfrwt beam="2">0</pdfrwt>
<totfact> 0.66403525E+02</totfact>
</mgrwt>
</event>
<event>
 6    1  0.1956957E-002  0.3000000E+03  0.7818608E-02  0.1093470E+00
          3   -1    0    0  502    0  0.00000000000E+00  0.00000000000E+00  0.21277341928E+01  0.21277341928E+01  0.00000000000E+00 0.  1.
         13   -1    0    0    0    0 -0.00000000000E+00 -0.00000000000E+00 -0.10000000000E+04  0.10000000000E+04  0.00000000000E+00 0.  1.
    9000005    2    1    2  501    0 -0.31884701400E+02  0.32903592477E+02 -0.46746047168E+03  0.46974070211E+03  0.61444327457E+01 0.  0.
         13    1    3    3    0    0 -0.22199203395E+02  0.26452039435E+02 -0.35954158850E+03  0.36119616399E+03  0.00000000000E+00 0.  1.
          1    1    3    3  501    0 -0.96854980050E+01  0.64515530425E+01 -0.10791888318E+03  0.10854453812E+03  0.00000000000E+00 0.  1.
         21    1    1    2  502  501  0.31884701400E+02 -0.32903592477E+02 -0.53041179413E+03  0.53238703208E+03  0.00000000000E+00 0.  1.
<mgrwt>
<rscale>  1 0.30000000E+03</rscale>
<asrwt>0</asrwt>
<pdfrwt beam="1">  1        3 0.77372316E-02 0.30000000E+03</pdfrwt>
<pdfrwt beam="2">0</pdfrwt>
<totfact> 0.49982195E+02</totfact>
</mgrwt>
</event>
<event>
 6    1  0.1956957E-002  0.3000000E+03  0.7818608E-02  0.1093470E+00
          1   -1    0    0  502    0  0.00000000000E+00  0.00000000000E+00  0.14519784803E+01  0.14519784803E+01  0.00000000000E+00 0.  1.
         13   -1    0    0    0    0 -0.00000000000E+00 -0.00000000000E+00 -0.10000000000E+04  0.10000000000E+04  0.00000000000E+00 0.  1.
    9000005    2    1    2  501    0  0.30813945646E+02  0.13574464442E+02 -0.73253749808E+03  0.73331886991E+03  0.34078645943E+01 0.  0.
         13    1    3    3    0    0  0.19883971638E+02  0.10039675498E+02 -0.45866237949E+03  0.45920294617E+03  0.00000000000E+00 0.  1.
          3    1    3    3  501    0  0.10929974008E+02  0.35347889431E+01 -0.27387511859E+03  0.27411592374E+03  0.00000000000E+00 0.  1.
         21    1    1    2  502  501 -0.30813945646E+02 -0.13574464442E+02 -0.26601052344E+03  0.26813310857E+03  0.00000000000E+00 0.  1.
<mgrwt>
<rscale>  1 0.30000000E+03</rscale>
<asrwt>0</asrwt>
<pdfrwt beam="1">  1        1 0.52799329E-02 0.30000000E+03</pdfrwt>
<pdfrwt beam="2">0</pdfrwt>
<totfact> 0.18425799E+03</totfact>
</mgrwt>
</event>
<event>
 6    1  0.1956957E-002  0.3000000E+03  0.7818608E-02  0.1093470E+00
          1   -1    0    0  502    0  0.00000000000E+00  0.00000000000E+00  0.72973640483E+01  0.72973640483E+01  0.00000000000E+00 0.  1.
         13   -1    0    0    0    0 -0.00000000000E+00 -0.00000000000E+00 -0.10000000000E+04  0.10000000000E+04  0.00000000000E+00 0.  1.
    9000005    2    1    2  501    0  0.54187139686E+02 -0.50150693608E+02 -0.74948277814E+03  0.75311782630E+03  0.32691563744E+01 0.  0.
         13    1    3    3    0    0  0.50396538395E+02 -0.47563035369E+02 -0.69862781188E+03  0.70205617506E+03  0.00000000000E+00 0.  1.
          3    1    3    3  501    0  0.37906012908E+01 -0.25876582394E+01 -0.50854966263E+02  0.51061651235E+02  0.00000000000E+00 0.  1.
         21    1    1    2  502  501 -0.54187139686E+02  0.50150693608E+02 -0.24321985781E+03  0.25417953775E+03  0.00000000000E+00 0.  1.
<mgrwt>
<rscale>  1 0.30000000E+03</rscale>
<asrwt>0</asrwt>
<pdfrwt beam="1">  1        1 0.26535925E-01 0.30000000E+03</pdfrwt>
<pdfrwt beam="2">0</pdfrwt>
<totfact> 0.20235996E+02</totfact>
</mgrwt>
</event>
<event>
 6    1  0.1956957E-002  0.3000000E+03  0.7818608E-02  0.1093470E+00
          1   -1    0    0  502    0  0.00000000000E+00  0.00000000000E+00  0.17892005197E+01  0.17892005197E+01  0.00000000000E+00 0.  1.
         13   -1    0    0    0    0 -0.00000000000E+00 -0.00000000000E+00 -0.10000000000E+04  0.10000000000E+04  0.00000000000E+00 0.  1.
    9000005    2    1    2  501    0  0.19917535058E+02 -0.35419609142E+02 -0.63546285832E+03  0.63677231635E+03  0.38316639013E+01 0.  0.
         13    1    3    3    0    0  0.10328667048E+01 -0.31456038984E+01 -0.66114918744E+02  0.66197765204E+02  0.00000000000E+00 0.  1.
          3    1    3    3  501    0  0.18884668353E+02 -0.32274005244E+02 -0.56934793957E+03  0.57057455114E+03  0.00000000000E+00 0.  1.
         21    1    1    2  502  501 -0.19917535058E+02  0.35419609142E+02 -0.36274794116E+03  0.36501688417E+03  0.00000000000E+00 0.  1.
<mgrwt>
<rscale>  1 0.30000000E+03</rscale>
<asrwt>0</asrwt>
<pdfrwt beam="1">  1        1 0.65061974E-02 0.30000000E+03</pdfrwt>
<pdfrwt beam="2">0</pdfrwt>
<totfact> 0.13745761E+03</totfact>
</mgrwt>
</event>
<event>
 6    1  0.1956957E-002  0.3000000E+03  0.7818608E-02  0.1093470E+00
          1   -1    0    0  502    0  0.00000000000E+00  0.00000000000E+00  0.19557080869E+01  0.19557080869E+01  0.00000000000E+00 0.  1.
         13   -1    0    0    0    0 -0.00000000000E+00 -0.00000000000E+00 -0.10000000000E+04  0.10000000000E+04  0.00000000000E+00 0.  1.
    9000005    2    1    2  501    0 -0.22116205319E+02 -0.22221785494E+02 -0.85204646020E+03  0.85262955112E+03  0.33236762025E+01 0.  0.
         13    1    3    3    0    0 -0.19091992164E+02 -0.19813742760E+02 -0.77124623860E+03  0.77173690408E+03  0.00000000000E+00 0.  1.
          3    1    3    3  501    0 -0.30242131544E+01 -0.24080427341E+01 -0.80800221598E+02  0.80892647041E+02  0.00000000000E+00 0.  1.
         21    1    1    2  502  501  0.22116205319E+02  0.22221785494E+02 -0.14599783172E+03  0.14932615697E+03  0.00000000000E+00 0.  1.
<mgrwt>
<rscale>  1 0.30000000E+03</rscale>
<asrwt>0</asrwt>
<pdfrwt beam="1">  1        1 0.71116808E-02 0.30000000E+03</pdfrwt>
<pdfrwt beam="2">0</pdfrwt>
<totfact> 0.12136551E+03</totfact>
</mgrwt>
</event>
<event>
 6    1  0.1956957E-002  0.3000000E+03  0.7818608E-02  0.1093470E+00
          1   -1    0    0  502    0  0.00000000000E+00  0.00000000000E+00  0.15517555294E+01  0.15517555294E+01  0.00000000000E+00 0.  1.
         13   -1    0    0    0    0 -0.00000000000E+00 -0.00000000000E+00 -0.10000000000E+04  0.10000000000E+04  0.00000000000E+00 0.  1.
    9000005    2    1    2  501    0 -0.37089994366E+02 -0.29768357073E+00 -0.66611863792E+03  0.66715868789E+03  0.33043517362E+01 0.  0.
         13    1    3    3    0    0 -0.31576258115E+02 -0.10494985328E+01 -0.58095853963E+03  0.58181696975E+03  0.00000000000E+00 0.  1.
          3    1    3    3  501    0 -0.55137362503E+01  0.75181496206E+00 -0.85160098292E+02  0.85341718135E+02  0.00000000000E+00 0.  1.
         21    1    1    2  502  501  0.37089994366E+02  0.29768357073E+00 -0.33232960655E+03  0.33439306764E+03  0.00000000000E+00 0.  1.
<mgrwt>
<rscale>  1 0.30000000E+03</rscale>
<asrwt>0</asrwt>
<pdfrwt beam="1">  1        1 0.56427593E-02 0.30000000E+03</pdfrwt>
<pdfrwt beam="2">0</pdfrwt>
<totfact> 0.16783926E+03</totfact>
</mgrwt>
</event>
<event>
 6    1  0.1956957E-002  0.3000000E+03  0.7818608E-02  0.1093470E+00
          3   -1    0    0  502    0  0.00000000000E+00  0.00000000000E+00  0.47105538721E+01  0.47105538721E+01  0.00000000000E+00 0.  1.
         13   -1    0    0    0    0 -0.00000000000E+00 -0.00000000000E+00 -0.10000000000E+04  0.10000000000E+04  0.00000000000E+00 0.  1.
    9000005    2    1    2  501    0  0.28109656899E+02 -0.17861497534E+02 -0.93649816709E+03  0.93714132718E+03  0.97910284260E+01 0.  0.
         13    1    3    3    0    0  0.25192420942E+02 -0.14468869053E+02 -0.70261042195E+03  0.70321078723E+03  0.00000000000E+00 0.  1.
          1    1    3    3  501    0  0.29172359568E+01 -0.33926284808E+01 -0.23388774514E+03  0.23393053995E+03  0.00000000000E+00 0.  1.
         21    1    1    2  502  501 -0.28109656899E+02  0.17861497534E+02 -0.58791279041E+02  0.67569226697E+02  0.00000000000E+00 0.  1.
<mgrwt>
<rscale>  1 0.30000000E+03</rscale>
<asrwt>0</asrwt>
<pdfrwt beam="1">  1        3 0.17129323E-01 0.30000000E+03</pdfrwt>
<pdfrwt beam="2">0</pdfrwt>
<totfact> 0.13193113E+02</totfact>
</mgrwt>
</event>
<event>
 6    1  0.1956957E-002  0.3000000E+03  0.7818608E-02  0.1093470E+00
          1   -1    0    0  502    0  0.00000000000E+00  0.00000000000E+00  0.28103657528E+01  0.28103657528E+01  0.00000000000E+00 0.  1.
         13   -1    0    0    0    0 -0.00000000000E+00 -0.00000000000E+00 -0.10000000000E+04  0.10000000000E+04  0.00000000000E+00 0.  1.
    9000005    2    1    2  501    0 -0.59199210841E+01  0.41608163536E+02 -0.80393111076E+03  0.80503488285E+03  0.31059641166E+01 0.  0.
         13    1    3    3    0    0 -0.77661488929E+00  0.29307593128E+01 -0.73300675547E+02  0.73363352680E+02  0.00000000000E+00 0.  1.
          3    1    3    3  501    0 -0.51433061948E+01  0.38677404223E+02 -0.73063043521E+03  0.73167153017E+03  0.00000000000E+00 0.  1.
         21    1    1    2  502  501  0.59199210841E+01 -0.41608163536E+02 -0.19325852349E+03  0.19777548290E+03  0.00000000000E+00 0.  1.
<mgrwt>
<rscale>  1 0.30000000E+03</rscale>
<asrwt>0</asrwt>
<pdfrwt beam="1">  1        1 0.10219533E-01 0.30000000E+03</pdfrwt>
<pdfrwt beam="2">0</pdfrwt>
<totfact> 0.73343074E+02</totfact>
</mgrwt>
</event>
<event>
 6    1  0.1956957E-002  0.3000000E+03  0.7818608E-02  0.1093470E+00
          3   -1    0    0  502    0  0.00000000000E+00  0.00000000000E+00  0.11263642502E+01  0.11263642502E+01  0.00000000000E+00 0.  1.
         13   -1    0    0    0    0 -0.00000000000E+00 -0.00000000000E+00 -0.10000000000E+04  0.10000000000E+04  0.00000000000E+00 0.  1.
    9000005    2    1    2  501    0 -0.23465053008E+02  0.23319198806E+02 -0.42675781975E+03  0.42805490216E+03  0.37906199192E+01 0.  0.
         13    1    3    3    0    0 -0.19378993761E+01  0.12030829799E+01 -0.20523111601E+02  0.20649478745E+02  0.00000000000E+00 0.  1.
          3    1    3    3  501    0 -0.21527153632E+02  0.22116115826E+02 -0.40623470815E+03  0.40740542341E+03  0.00000000000E+00 0.  1.
         21    1    1    2  502  501  0.23465053008E+02 -0.23319198806E+02 -0.57211581600E+03  0.57307146209E+03  0.00000000000E+00 0.  1.
<mgrwt>
<rscale>  1 0.30000000E+03</rscale>
<asrwt>0</asrwt>
<pdfrwt beam="1">  1        3 0.40958786E-02 0.30000000E+03</pdfrwt>
<pdfrwt beam="2">0</pdfrwt>
<totfact> 0.13454132E+03</totfact>
</mgrwt>
</event>
<event>
 6    1  0.1956957E-002  0.3000000E+03  0.7818608E-02  0.1093470E+00
          1   -1    0    0  502    0  0.00000000000E+00  0.00000000000E+00  0.12731921981E+01  0.12731921981E+01  0.00000000000E+00 0.  1.
         13   -1    0    0    0    0 -0.00000000000E+00 -0.00000000000E+00 -0.10000000000E+04  0.10000000000E+04  0.00000000000E+00 0.  1.
    9000005    2    1    2  501    0 -0.29271604918E+02 -0.19753943730E+02 -0.45840833760E+03  0.45980196084E+03  0.57091210887E+01 0.  0.
         13    1    3    3    0    0 -0.16389575342E+02 -0.13181027233E+02 -0.29908136996E+03  0.29981998519E+03  0.00000000000E+00 0.  1.
          3    1    3    3  501    0 -0.12882029575E+02 -0.65729164973E+01 -0.15932696764E+03  0.15998197566E+03  0.00000000000E+00 0.  1.
         21    1    1    2  502  501  0.29271604918E+02  0.19753943730E+02 -0.54031847020E+03  0.54147123135E+03  0.00000000000E+00 0.  1.
<mgrwt>
<rscale>  1 0.30000000E+03</rscale>
<asrwt>0</asrwt>
<pdfrwt beam="1">  1        1 0.46297996E-02 0.30000000E+03</pdfrwt>
<pdfrwt beam="2">0</pdfrwt>
<totfact> 0.22163995E+03</totfact>
</mgrwt>
</event>
<event>
 6    1  0.1956957E-002  0.3000000E+03  0.7818608E-02  0.1093470E+00
          1   -1    0    0  502    0  0.00000000000E+00  0.00000000000E+00  0.25849498442E+01  0.25849498442E+01  0.00000000000E+00 0.  1.
         13   -1    0    0    0    0 -0.00000000000E+00 -0.00000000000E+00 -0.10000000000E+04  0.10000000000E+04  0.00000000000E+00 0.  1.
    9000005    2    1    2  501    0 -0.32918948854E+02  0.23041863097E+02 -0.80526930975E+03  0.80628270787E+03  0.43080313167E+01 0.  0.
         13    1    3    3    0    0 -0.85255951091E+01  0.83591228334E+01 -0.24042874218E+03  0.24072503147E+03  0.00000000000E+00 0.  1.
          1    1    3    3  501    0 -0.24393353745E+02  0.14682740263E+02 -0.56484056757E+03  0.56555767640E+03  0.00000000000E+00 0.  1.
         21    1    1    2  502  501  0.32918948854E+02 -0.23041863097E+02 -0.19214574040E+03  0.19630224197E+03  0.00000000000E+00 0.  1.
<mgrwt>
<rscale>  1 0.30000000E+03</rscale>
<asrwt>0</asrwt>
<pdfrwt beam="1">  1        1 0.93998374E-02 0.30000000E+03</pdfrwt>
<pdfrwt beam="2">0</pdfrwt>
<totfact> 0.82326372E+02</totfact>
</mgrwt>
</event>
<event>
 6    1  0.1956957E-002  0.3000000E+03  0.7818608E-02  0.1093470E+00
          1   -1    0    0  502    0  0.00000000000E+00  0.00000000000E+00  0.43203783043E+01  0.43203783043E+01  0.00000000000E+00 0.  1.
         13   -1    0    0    0    0 -0.00000000000E+00 -0.00000000000E+00 -0.10000000000E+04  0.10000000000E+04  0.00000000000E+00 0.  1.
    9000005    2    1    2  501    0  0.22429181554E+02  0.31317911326E+02 -0.90463732753E+03  0.90546402251E+03  0.35386345110E+01 0.  0.
         13    1    3    3    0    0  0.18711795924E+01  0.14819055005E+01 -0.69779358840E+02  0.69820170990E+02  0.00000000000E+00 0.  1.
          1    1    3    3  501    0  0.20558001961E+02  0.29836005826E+02 -0.83485796869E+03  0.83564385152E+03  0.00000000000E+00 0.  1.
         21    1    1    2  502  501 -0.22429181554E+02 -0.31317911326E+02 -0.91042294162E+02  0.98856355796E+02  0.00000000000E+00 0.  1.
<mgrwt>
<rscale>  1 0.30000000E+03</rscale>
<asrwt>0</asrwt>
<pdfrwt beam="1">  1        1 0.15710500E-01 0.30000000E+03</pdfrwt>
<pdfrwt beam="2">0</pdfrwt>
<totfact> 0.40741336E+02</totfact>
</mgrwt>
</event>
<event>
 6    1  0.1956957E-002  0.3000000E+03  0.7818608E-02  0.1093470E+00
          3   -1    0    0  502    0  0.00000000000E+00  0.00000000000E+00  0.24398923117E+01  0.24398923117E+01  0.00000000000E+00 0.  1.
         13   -1    0    0    0    0 -0.00000000000E+00 -0.00000000000E+00 -0.10000000000E+04  0.10000000000E+04  0.00000000000E+00 0.  1.
    9000005    2    1    2  501    0 -0.32305882504E+01 -0.38683044451E+02 -0.80832025514E+03  0.80925983014E+03  0.36087641812E+01 0.  0.
         13    1    3    3    0    0 -0.34025996899E+01 -0.19827851361E+02 -0.42702948640E+03  0.42750310365E+03  0.00000000000E+00 0.  1.
          3    1    3    3  501    0  0.17201143947E+00 -0.18855193090E+02 -0.38129076875E+03  0.38175672650E+03  0.00000000000E+00 0.  1.
         21    1    1    2  502  501  0.32305882504E+01  0.38683044451E+02 -0.18923985254E+03  0.19318006217E+03  0.00000000000E+00 0.  1.
<mgrwt>
<rscale>  1 0.30000000E+03</rscale>
<asrwt>0</asrwt>
<pdfrwt beam="1">  1        3 0.88723544E-02 0.30000000E+03</pdfrwt>
<pdfrwt beam="2">0</pdfrwt>
<totfact> 0.40137835E+02</totfact>
</mgrwt>
</event>
<event>
 6    1  0.1956957E-002  0.3000000E+03  0.7818608E-02  0.1093470E+00
          3   -1    0    0  502    0  0.00000000000E+00  0.00000000000E+00  0.11855023323E+01  0.11855023323E+01  0.00000000000E+00 0.  1.
         13   -1    0    0    0    0 -0.00000000000E+00 -0.00000000000E+00 -0.10000000000E+04  0.10000000000E+04  0.00000000000E+00 0.  1.
    9000005    2    1    2  501    0 -0.32927240944E+02  0.22799926998E+01 -0.36261484565E+03  0.36413024665E+03  0.34508952420E+01 0.  0.
         13    1    3    3    0    0 -0.39699066871E+01  0.11142134085E+01 -0.37367648390E+02  0.37594451410E+02  0.00000000000E+00 0.  1.
          1    1    3    3  501    0 -0.28957334257E+02  0.11657792913E+01 -0.32524719726E+03  0.32653579524E+03  0.00000000000E+00 0.  1.
         21    1    1    2  502  501  0.32927240944E+02 -0.22799926998E+01 -0.63619965202E+03  0.63705525568E+03  0.00000000000E+00 0.  1.
<mgrwt>
<rscale>  1 0.30000000E+03</rscale>
<asrwt>0</asrwt>
<pdfrwt beam="1">  1        3 0.43109267E-02 0.30000000E+03</pdfrwt>
<pdfrwt beam="2">0</pdfrwt>
<totfact> 0.12436558E+03</totfact>
</mgrwt>
</event>
<event>
 6    1  0.1956957E-002  0.3000000E+03  0.7818608E-02  0.1093470E+00
          3   -1    0    0  502    0  0.00000000000E+00  0.00000000000E+00  0.28263750985E+01  0.28263750985E+01  0.00000000000E+00 0.  1.
         13   -1    0    0    0    0 -0.00000000000E+00 -0.00000000000E+00 -0.10000000000E+04  0.10000000000E+04  0.00000000000E+00 0.  1.
    9000005    2    1    2  501    0  0.21104431028E+02 -0.30841855155E+02 -0.85492878315E+03  0.85575424298E+03  0.39348566084E+01 0.  0.
         13    1    3    3    0    0  0.14803201560E+00  0.11111184285E+00 -0.61022080440E+01  0.61050145234E+01  0.00000000000E+00 0.  1.
          3    1    3    3  501    0  0.20956399012E+02 -0.30952966998E+02 -0.84882657510E+03  0.84964922846E+03  0.00000000000E+00 0.  1.
         21    1    1    2  502  501 -0.21104431028E+02  0.30841855155E+02 -0.14224484176E+03  0.14707213211E+03  0.00000000000E+00 0.  1.
<mgrwt>
<rscale>  1 0.30000000E+03</rscale>
<asrwt>0</asrwt>
<pdfrwt beam="1">  1        3 0.10277749E-01 0.30000000E+03</pdfrwt>
<pdfrwt beam="2">0</pdfrwt>
<totfact> 0.31563714E+02</totfact>
</mgrwt>
</event>
<event>
 6    1  0.1956957E-002  0.3000000E+03  0.7818608E-02  0.1093470E+00
          1   -1    0    0  502    0  0.00000000000E+00  0.00000000000E+00  0.14811557941E+01  0.14811557941E+01  0.00000000000E+00 0.  1.
         13   -1    0    0    0    0 -0.00000000000E+00 -0.00000000000E+00 -0.10000000000E+04  0.10000000000E+04  0.00000000000E+00 0.  1.
    9000005    2    1    2  501    0 -0.56259385757E+01  0.32550944215E+02 -0.75527897630E+03  0.75600845162E+03  0.33513774436E+01 0.  0.
         13    1    3    3    0    0 -0.40468286350E+01  0.13942472368E+02 -0.32122710961E+03  0.32155501132E+03  0.00000000000E+00 0.  1.
          3    1    3    3  501    0 -0.15791099408E+01  0.18608471846E+02 -0.43405186669E+03  0.43445344030E+03  0.00000000000E+00 0.  1.
         21    1    1    2  502  501  0.56259385757E+01 -0.32550944215E+02 -0.24323986791E+03  0.24547270418E+03  0.00000000000E+00 0.  1.
<mgrwt>
<rscale>  1 0.30000000E+03</rscale>
<asrwt>0</asrwt>
<pdfrwt beam="1">  1        1 0.53860324E-02 0.30000000E+03</pdfrwt>
<pdfrwt beam="2">0</pdfrwt>
<totfact> 0.17918008E+03</totfact>
</mgrwt>
</event>
<event>
 6    1  0.1956957E-002  0.3000000E+03  0.7818608E-02  0.1093470E+00
          1   -1    0    0  502    0  0.00000000000E+00  0.00000000000E+00  0.21618984400E+01  0.21618984400E+01  0.00000000000E+00 0.  1.
         13   -1    0    0    0    0 -0.00000000000E+00 -0.00000000000E+00 -0.10000000000E+04  0.10000000000E+04  0.00000000000E+00 0.  1.
    9000005    2    1    2  501    0 -0.26883021347E+02 -0.26235356897E+02 -0.79371445010E+03  0.79461080624E+03  0.35657126511E+01 0.  0.
         13    1    3    3    0    0 -0.23360978529E+02 -0.23077456589E+02 -0.66650774530E+03  0.66731617609E+03  0.00000000000E+00 0.  1.
          3    1    3    3  501    0 -0.35220428183E+01 -0.31579003089E+01 -0.12720670479E+03  0.12729463015E+03  0.00000000000E+00 0.  1.
         21    1    1    2  502  501  0.26883021347E+02  0.26235356897E+02 -0.20412365146E+03  0.20755109220E+03  0.00000000000E+00 0.  1.
<mgrwt>
<rscale>  1 0.30000000E+03</rscale>
<asrwt>0</asrwt>
<pdfrwt beam="1">  1        1 0.78614655E-02 0.30000000E+03</pdfrwt>
<pdfrwt beam="2">0</pdfrwt>
<totfact> 0.10552051E+03</totfact>
</mgrwt>
</event>
<event>
 6    1  0.1956957E-002  0.3000000E+03  0.7818608E-02  0.1093470E+00
          1   -1    0    0  502    0  0.00000000000E+00  0.00000000000E+00  0.28113414784E+01  0.28113414784E+01  0.00000000000E+00 0.  1.
         13   -1    0    0    0    0 -0.00000000000E+00 -0.00000000000E+00 -0.10000000000E+04  0.10000000000E+04  0.00000000000E+00 0.  1.
    9000005    2    1    2  501    0 -0.19137992091E+02  0.26290524872E+02 -0.89450248843E+03  0.89509920675E+03  0.32301208070E+01 0.  0.
         13    1    3    3    0    0 -0.26235731565E+01  0.21841998119E+01 -0.10880704391E+03  0.10886058364E+03  0.00000000000E+00 0.  1.
          3    1    3    3  501    0 -0.16514418935E+02  0.24106325061E+02 -0.78569544452E+03  0.78623862311E+03  0.00000000000E+00 0.  1.
         21    1    1    2  502  501  0.19137992091E+02 -0.26290524872E+02 -0.10268617009E+03  0.10771213473E+03  0.00000000000E+00 0.  1.
<mgrwt>
<rscale>  1 0.30000000E+03</rscale>
<asrwt>0</asrwt>
<pdfrwt beam="1">  1        1 0.10223081E-01 0.30000000E+03</pdfrwt>
<pdfrwt beam="2">0</pdfrwt>
<totfact> 0.73307978E+02</totfact>
</mgrwt>
</event>
<event>
 6    1  0.1956957E-002  0.3000000E+03  0.7818608E-02  0.1093470E+00
          3   -1    0    0  502    0  0.00000000000E+00  0.00000000000E+00  0.19355478409E+01  0.19355478409E+01  0.00000000000E+00 0.  1.
         13   -1    0    0    0    0 -0.00000000000E+00 -0.00000000000E+00 -0.10000000000E+04  0.10000000000E+04  0.00000000000E+00 0.  1.
    9000005    2    1    2  501    0 -0.37062685276E+02  0.23609965468E+02 -0.50656078879E+03  0.50847134021E+03  0.28632087655E+01 0.  0.
         13    1    3    3    0    0 -0.28084816518E+02  0.16404809970E+02 -0.37529739388E+03  0.37670413929E+03  0.00000000000E+00 0.  1.
          1    1    3    3  501    0 -0.89778687578E+01  0.72051554980E+01 -0.13126339491E+03  0.13176720092E+03  0.00000000000E+00 0.  1.
         21    1    1    2  502  501  0.37062685276E+02 -0.23609965468E+02 -0.49150366337E+03  0.49346420763E+03  0.00000000000E+00 0.  1.
<mgrwt>
<rscale>  1 0.30000000E+03</rscale>
<asrwt>0</asrwt>
<pdfrwt beam="1">  1        3 0.70383706E-02 0.30000000E+03</pdfrwt>
<pdfrwt beam="2">0</pdfrwt>
<totfact> 0.58072194E+02</totfact>
</mgrwt>
</event>
<event>
 6    1  0.1956957E-002  0.3000000E+03  0.7818608E-02  0.1093470E+00
          1   -1    0    0  502    0  0.00000000000E+00  0.00000000000E+00  0.14381653971E+02  0.14381653971E+02  0.00000000000E+00 0.  1.
         13   -1    0    0    0    0 -0.00000000000E+00 -0.00000000000E+00 -0.10000000000E+04  0.10000000000E+04  0.00000000000E+00 0.  1.
    9000005    2    1    2  501    0 -0.19738307792E+02 -0.30673838460E+02 -0.97596265936E+03  0.97664947347E+03  0.32552113331E+01 0.  0.
         13    1    3    3    0    0 -0.41211492083E+00 -0.13180923572E+01 -0.52697509003E+02  0.52715601688E+02  0.00000000000E+00 0.  1.
          3    1    3    3  501    0 -0.19326192871E+02 -0.29355746103E+02 -0.92326515036E+03  0.92393387178E+03  0.00000000000E+00 0.  1.
         21    1    1    2  502  501  0.19738307792E+02  0.30673838460E+02 -0.96556866681E+01  0.37732180501E+02  0.00000000000E+00 0.  1.
<mgrwt>
<rscale>  1 0.30000000E+03</rscale>
<asrwt>0</asrwt>
<pdfrwt beam="1">  1        1 0.52297034E-01 0.30000000E+03</pdfrwt>
<pdfrwt beam="2">0</pdfrwt>
<totfact> 0.83183721E+01</totfact>
</mgrwt>
</event>
<event>
 6    1  0.1956957E-002  0.3000000E+03  0.7818608E-02  0.1093470E+00
          3   -1    0    0  502    0  0.00000000000E+00  0.00000000000E+00  0.32619715621E+01  0.32619715621E+01  0.00000000000E+00 0.  1.
         13   -1    0    0    0    0 -0.00000000000E+00 -0.00000000000E+00 -0.10000000000E+04  0.10000000000E+04  0.00000000000E+00 0.  1.
    9000005    2    1    2  501    0 -0.24195264008E+02  0.30197628444E+02 -0.86551515249E+03  0.86645279520E+03  0.11254312990E+02 0.  0.
         13    1    3    3    0    0 -0.10141505523E+02  0.10806454554E+02 -0.22327652754E+03  0.22376782017E+03  0.00000000000E+00 0.  1.
          3    1    3    3  501    0 -0.14053758485E+02  0.19391173890E+02 -0.64223862495E+03  0.64268497503E+03  0.00000000000E+00 0.  1.
         21    1    1    2  502  501  0.24195264008E+02 -0.30197628444E+02 -0.13122287595E+03  0.13680917636E+03  0.00000000000E+00 0.  1.
<mgrwt>
<rscale>  1 0.30000000E+03</rscale>
<asrwt>0</asrwt>
<pdfrwt beam="1">  1        3 0.11861740E-01 0.30000000E+03</pdfrwt>
<pdfrwt beam="2">0</pdfrwt>
<totfact> 0.24841881E+02</totfact>
</mgrwt>
</event>
<event>
 6    1  0.1956957E-002  0.3000000E+03  0.7818608E-02  0.1093470E+00
          1   -1    0    0  502    0  0.00000000000E+00  0.00000000000E+00  0.99236718489E+01  0.99236718489E+01  0.00000000000E+00 0.  1.
         13   -1    0    0    0    0 -0.00000000000E+00 -0.00000000000E+00 -0.10000000000E+04  0.10000000000E+04  0.00000000000E+00 0.  1.
    9000005    2    1    2  501    0  0.45066842911E+02  0.87176630555E+02 -0.58121306830E+03  0.58944780988E+03  0.30503378506E+01 0.  0.
         13    1    3    3    0    0  0.99526657533E+01  0.19331908032E+02 -0.12132779371E+03  0.12326074700E+03  0.00000000000E+00 0.  1.
          3    1    3    3  501    0  0.35114177158E+02  0.67844722523E+02 -0.45988527459E+03  0.46618706288E+03  0.00000000000E+00 0.  1.
         21    1    1    2  502  501 -0.45066842911E+02 -0.87176630555E+02 -0.40886325985E+03  0.42047586197E+03  0.00000000000E+00 0.  1.
<mgrwt>
<rscale>  1 0.30000000E+03</rscale>
<asrwt>0</asrwt>
<pdfrwt beam="1">  1        1 0.36086156E-01 0.30000000E+03</pdfrwt>
<pdfrwt beam="2">0</pdfrwt>
<totfact> 0.13521471E+02</totfact>
</mgrwt>
</event>
<event>
 6    1  0.1956957E-002  0.3000000E+03  0.7818608E-02  0.1093470E+00
          1   -1    0    0  502    0  0.00000000000E+00  0.00000000000E+00  0.25878729995E+01  0.25878729995E+01  0.00000000000E+00 0.  1.
         13   -1    0    0    0    0 -0.00000000000E+00 -0.00000000000E+00 -0.10000000000E+04  0.10000000000E+04  0.00000000000E+00 0.  1.
    9000005    2    1    2  501    0 -0.23232187024E+02  0.25164011772E+02 -0.12921586909E+03  0.13371636107E+03  0.32190665288E+01 0.  0.
         13    1    3    3    0    0 -0.20760713351E+02  0.23659832422E+02 -0.11671030605E+03  0.12088047993E+03  0.00000000000E+00 0.  1.
          3    1    3    3  501    0 -0.24714736730E+01  0.15041793493E+01 -0.12505563043E+02  0.12835881140E+02  0.00000000000E+00 0.  1.
         21    1    1    2  502  501  0.23232187024E+02 -0.25164011772E+02 -0.86819625791E+03  0.86887151193E+03  0.00000000000E+00 0.  1.
<mgrwt>
<rscale>  1 0.30000000E+03</rscale>
<asrwt>0</asrwt>
<pdfrwt beam="1">  1        1 0.94104671E-02 0.30000000E+03</pdfrwt>
<pdfrwt beam="2">0</pdfrwt>
<totfact> 0.82197631E+02</totfact>
</mgrwt>
</event>
<event>
 6    1  0.1956957E-002  0.3000000E+03  0.7818608E-02  0.1093470E+00
          1   -1    0    0  502    0  0.00000000000E+00  0.00000000000E+00  0.18628399893E+01  0.18628399893E+01  0.00000000000E+00 0.  1.
         13   -1    0    0    0    0 -0.00000000000E+00 -0.00000000000E+00 -0.10000000000E+04  0.10000000000E+04  0.00000000000E+00 0.  1.
    9000005    2    1    2  501    0  0.32567129575E+02 -0.41936430145E+01 -0.82374922141E+03  0.82441043031E+03  0.34019501672E+01 0.  0.
         13    1    3    3    0    0  0.17158640870E+02 -0.16934359061E+01 -0.47259322609E+03  0.47290764852E+03  0.00000000000E+00 0.  1.
          1    1    3    3  501    0  0.15408488705E+02 -0.25002071084E+01 -0.35115599532E+03  0.35150278179E+03  0.00000000000E+00 0.  1.
         21    1    1    2  502  501 -0.32567129575E+02  0.41936430145E+01 -0.17438793860E+03  0.17745240968E+03  0.00000000000E+00 0.  1.
<mgrwt>
<rscale>  1 0.30000000E+03</rscale>
<asrwt>0</asrwt>
<pdfrwt beam="1">  1        1 0.67739779E-02 0.30000000E+03</pdfrwt>
<pdfrwt beam="2">0</pdfrwt>
<totfact> 0.12991086E+03</totfact>
</mgrwt>
</event>
<event>
 6    1  0.1956957E-002  0.3000000E+03  0.7818608E-02  0.1093470E+00
          1   -1    0    0  502    0  0.00000000000E+00  0.00000000000E+00  0.40757267999E+01  0.40757267999E+01  0.00000000000E+00 0.  1.
         13   -1    0    0    0    0 -0.00000000000E+00 -0.00000000000E+00 -0.10000000000E+04  0.10000000000E+04  0.00000000000E+00 0.  1.
    9000005    2    1    2  501    0 -0.58721918309E+02 -0.22747426778E+02 -0.57842803178E+03  0.58185680170E+03  0.35553646090E+01 0.  0.
         13    1    3    3    0    0 -0.60433911713E+01 -0.17778897783E+01 -0.66976700075E+02  0.67272296094E+02  0.00000000000E+00 0.  1.
          3    1    3    3  501    0 -0.52678527138E+02 -0.20969537000E+02 -0.51145133171E+03  0.51458450561E+03  0.00000000000E+00 0.  1.
         21    1    1    2  502  501  0.58721918309E+02  0.22747426778E+02 -0.41749624142E+03  0.42221892510E+03  0.00000000000E+00 0.  1.
<mgrwt>
<rscale>  1 0.30000000E+03</rscale>
<asrwt>0</asrwt>
<pdfrwt beam="1">  1        1 0.14820856E-01 0.30000000E+03</pdfrwt>
<pdfrwt beam="2">0</pdfrwt>
<totfact> 0.44094017E+02</totfact>
</mgrwt>
</event>
<event>
 6    1  0.1956957E-002  0.3000000E+03  0.7818608E-02  0.1093470E+00
          1   -1    0    0  502    0  0.00000000000E+00  0.00000000000E+00  0.32230862741E+01  0.32230862741E+01  0.00000000000E+00 0.  1.
         13   -1    0    0    0    0 -0.00000000000E+00 -0.00000000000E+00 -0.10000000000E+04  0.10000000000E+04  0.00000000000E+00 0.  1.
    9000005    2    1    2  501    0 -0.28234384476E+02  0.43251813695E+02 -0.70596218922E+03  0.70785703568E+03  0.33272357106E+01 0.  0.
         13    1    3    3    0    0 -0.21624994673E+00  0.12505657108E+01 -0.16701844236E+02  0.16749993418E+02  0.00000000000E+00 0.  1.
          1    1    3    3  501    0 -0.28018134529E+02  0.42001247984E+02 -0.68926034499E+03  0.69110704226E+03  0.00000000000E+00 0.  1.
         21    1    1    2  502  501  0.28234384476E+02 -0.43251813695E+02 -0.29081472450E+03  0.29536605059E+03  0.00000000000E+00 0.  1.
<mgrwt>
<rscale>  1 0.30000000E+03</rscale>
<asrwt>0</asrwt>
<pdfrwt beam="1">  1        1 0.11720338E-01 0.30000000E+03</pdfrwt>
<pdfrwt beam="2">0</pdfrwt>
<totfact> 0.60750068E+02</totfact>
</mgrwt>
</event>
<event>
 6    1  0.1956957E-002  0.3000000E+03  0.7818608E-02  0.1093470E+00
          1   -1    0    0  502    0  0.00000000000E+00  0.00000000000E+00  0.11543544334E+01  0.11543544334E+01  0.00000000000E+00 0.  1.
         13   -1    0    0    0    0 -0.00000000000E+00 -0.00000000000E+00 -0.10000000000E+04  0.10000000000E+04  0.00000000000E+00 0.  1.
    9000005    2    1    2  501    0 -0.18485648342E+01 -0.32013749273E+02 -0.66253867170E+03  0.66332203211E+03  0.32139463808E+01 0.  0.
         13    1    3    3    0    0 -0.19509560691E+01 -0.12109427165E+02 -0.27213825737E+03  0.27241452894E+03  0.00000000000E+00 0.  1.
          3    1    3    3  501    0  0.10239123485E+00 -0.19904322108E+02 -0.39040041434E+03  0.39090750317E+03  0.00000000000E+00 0.  1.
         21    1    1    2  502  501  0.18485648342E+01  0.32013749273E+02 -0.33630697387E+03  0.33783232232E+03  0.00000000000E+00 0.  1.
<mgrwt>
<rscale>  1 0.30000000E+03</rscale>
<asrwt>0</asrwt>
<pdfrwt beam="1">  1        1 0.41976613E-02 0.30000000E+03</pdfrwt>
<pdfrwt beam="2">0</pdfrwt>
<totfact> 0.25441717E+03</totfact>
</mgrwt>
</event>
<event>
 6    1  0.1956957E-002  0.3000000E+03  0.7818608E-02  0.1093470E+00
          1   -1    0    0  502    0  0.00000000000E+00  0.00000000000E+00  0.29694552124E+01  0.29694552124E+01  0.00000000000E+00 0.  1.
         13   -1    0    0    0    0 -0.00000000000E+00 -0.00000000000E+00 -0.10000000000E+04  0.10000000000E+04  0.00000000000E+00 0.  1.
    9000005    2    1    2  501    0 -0.49786150481E+02  0.10404064945E+02 -0.32040259807E+03  0.32443258545E+03  0.34310792680E+01 0.  0.
         13    1    3    3    0    0 -0.15972722915E+02  0.49488737706E+01 -0.10720144318E+03  0.10849778176E+03  0.00000000000E+00 0.  1.
          3    1    3    3  501    0 -0.33813427566E+02  0.54551911744E+01 -0.21320115489E+03  0.21593480369E+03  0.00000000000E+00 0.  1.
         21    1    1    2  502  501  0.49786150481E+02 -0.10404064945E+02 -0.67662794672E+03  0.67853686976E+03  0.00000000000E+00 0.  1.
<mgrwt>
<rscale>  1 0.30000000E+03</rscale>
<asrwt>0</asrwt>
<pdfrwt beam="1">  1        1 0.10798042E-01 0.30000000E+03</pdfrwt>
<pdfrwt beam="2">0</pdfrwt>
<totfact> 0.67987486E+02</totfact>
</mgrwt>
</event>
<event>
 6    1  0.1956957E-002  0.3000000E+03  0.7818608E-02  0.1093470E+00
          1   -1    0    0  502    0  0.00000000000E+00  0.00000000000E+00  0.47218331242E+01  0.47218331242E+01  0.00000000000E+00 0.  1.
         13   -1    0    0    0    0 -0.00000000000E+00 -0.00000000000E+00 -0.10000000000E+04  0.10000000000E+04  0.00000000000E+00 0.  1.
    9000005    2    1    2  501    0  0.48095701100E+02 -0.42718639999E+02 -0.67374727202E+03  0.67681911125E+03  0.32625339041E+01 0.  0.
         13    1    3    3    0    0  0.34866976576E+02 -0.31923814263E+02 -0.50781826224E+03  0.51001394436E+03  0.00000000000E+00 0.  1.
          1    1    3    3  501    0  0.13228724524E+02 -0.10794825736E+02 -0.16592900978E+03  0.16680516689E+03  0.00000000000E+00 0.  1.
         21    1    1    2  502  501 -0.48095701100E+02  0.42718639999E+02 -0.32153089485E+03  0.32790272188E+03  0.00000000000E+00 0.  1.
<mgrwt>
<rscale>  1 0.30000000E+03</rscale>
<asrwt>0</asrwt>
<pdfrwt beam="1">  1        1 0.17170338E-01 0.30000000E+03</pdfrwt>
<pdfrwt beam="2">0</pdfrwt>
<totfact> 0.36132049E+02</totfact>
</mgrwt>
</event>
<event>
 6    1  0.1956957E-002  0.3000000E+03  0.7818608E-02  0.1093470E+00
          3   -1    0    0  502    0  0.00000000000E+00  0.00000000000E+00  0.14949948329E+02  0.14949948329E+02  0.00000000000E+00 0.  1.
         13   -1    0    0    0    0 -0.00000000000E+00 -0.00000000000E+00 -0.10000000000E+04  0.10000000000E+04  0.00000000000E+00 0.  1.
    9000005    2    1    2  501    0  0.11244129777E+02  0.39149492219E+02 -0.97100232965E+03  0.97186338790E+03  0.37158261748E+01 0.  0.
         13    1    3    3    0    0  0.34598656684E+01  0.16571337044E+02 -0.43494571592E+03  0.43527503452E+03  0.00000000000E+00 0.  1.
          3    1    3    3  501    0  0.77842641083E+01  0.22578155175E+02 -0.53605661373E+03  0.53658835338E+03  0.00000000000E+00 0.  1.
         21    1    1    2  502  501 -0.11244129777E+02 -0.39149492219E+02 -0.14047722021E+02  0.43086560427E+02  0.00000000000E+00 0.  1.
<mgrwt>
<rscale>  1 0.30000000E+03</rscale>
<asrwt>0</asrwt>
<pdfrwt beam="1">  1        3 0.54363563E-01 0.30000000E+03</pdfrwt>
<pdfrwt beam="2">0</pdfrwt>
<totfact> 0.14816810E+01</totfact>
</mgrwt>
</event>
<event>
 6    1  0.1956957E-002  0.3000000E+03  0.7818608E-02  0.1093470E+00
          1   -1    0    0  502    0  0.00000000000E+00  0.00000000000E+00  0.10633579301E+01  0.10633579301E+01  0.00000000000E+00 0.  1.
         13   -1    0    0    0    0 -0.00000000000E+00 -0.00000000000E+00 -0.10000000000E+04  0.10000000000E+04  0.00000000000E+00 0.  1.
    9000005    2    1    2  501    0 -0.19954957927E+02 -0.25697523021E+02 -0.49720594420E+03  0.49827885517E+03  0.30827782739E+01 0.  0.
         13    1    3    3    0    0 -0.14369404607E+02 -0.20471818350E+02 -0.37305715957E+03  0.37389466356E+03  0.00000000000E+00 0.  1.
          3    1    3    3  501    0 -0.55855533200E+01 -0.52257046709E+01 -0.12414878463E+03  0.12438419160E+03  0.00000000000E+00 0.  1.
         21    1    1    2  502  501  0.19954957927E+02  0.25697523021E+02 -0.50173069787E+03  0.50278450276E+03  0.00000000000E+00 0.  1.
<mgrwt>
<rscale>  1 0.30000000E+03</rscale>
<asrwt>0</asrwt>
<pdfrwt beam="1">  1        1 0.38667643E-02 0.30000000E+03</pdfrwt>
<pdfrwt beam="2">0</pdfrwt>
<totfact> 0.28559651E+03</totfact>
</mgrwt>
</event>
<event>
 6    1  0.1956957E-002  0.3000000E+03  0.7818608E-02  0.1093470E+00
          1   -1    0    0  502    0  0.00000000000E+00  0.00000000000E+00  0.12364471500E+01  0.12364471500E+01  0.00000000000E+00 0.  1.
         13   -1    0    0    0    0 -0.00000000000E+00 -0.00000000000E+00 -0.10000000000E+04  0.10000000000E+04  0.00000000000E+00 0.  1.
    9000005    2    1    2  501    0  0.30543518022E+02 -0.12930754936E+02 -0.63824877383E+03  0.63919913303E+03  0.10673493661E+02 0.  0.
         13    1    3    3    0    0  0.22249289931E+02 -0.41758519337E+01 -0.38782383787E+03  0.38848397375E+03  0.00000000000E+00 0.  1.
          3    1    3    3  501    0  0.82942280909E+01 -0.87549030019E+01 -0.25042493596E+03  0.25071515928E+03  0.00000000000E+00 0.  1.
         21    1    1    2  502  501 -0.30543518022E+02  0.12930754936E+02 -0.36051477902E+03  0.36203731412E+03  0.00000000000E+00 0.  1.
<mgrwt>
<rscale>  1 0.30000000E+03</rscale>
<asrwt>0</asrwt>
<pdfrwt beam="1">  1        1 0.44961809E-02 0.30000000E+03</pdfrwt>
<pdfrwt beam="2">0</pdfrwt>
<totfact> 0.23096420E+03</totfact>
</mgrwt>
</event>
<event>
 6    1  0.1956957E-002  0.3000000E+03  0.7818608E-02  0.1093470E+00
          1   -1    0    0  502    0  0.00000000000E+00  0.00000000000E+00  0.13006782882E+01  0.13006782882E+01  0.00000000000E+00 0.  1.
         13   -1    0    0    0    0 -0.00000000000E+00 -0.00000000000E+00 -0.10000000000E+04  0.10000000000E+04  0.00000000000E+00 0.  1.
    9000005    2    1    2  501    0 -0.29251190647E+02  0.12146619272E+02 -0.73717023248E+03  0.73786067178E+03  0.39047141716E+01 0.  0.
         13    1    3    3    0    0 -0.25206435900E+02  0.11690611680E+02 -0.62728161525E+03  0.62789669504E+03  0.00000000000E+00 0.  1.
          1    1    3    3  501    0 -0.40447547465E+01  0.45600759204E+00 -0.10988861723E+03  0.10996397674E+03  0.00000000000E+00 0.  1.
         21    1    1    2  502  501  0.29251190647E+02 -0.12146619272E+02 -0.26152908923E+03  0.26344000650E+03  0.00000000000E+00 0.  1.
<mgrwt>
<rscale>  1 0.30000000E+03</rscale>
<asrwt>0</asrwt>
<pdfrwt beam="1">  1        1 0.47297492E-02 0.30000000E+03</pdfrwt>
<pdfrwt beam="2">0</pdfrwt>
<totfact> 0.21507985E+03</totfact>
</mgrwt>
</event>
<event>
 6    1  0.1956957E-002  0.3000000E+03  0.7818608E-02  0.1093470E+00
          1   -1    0    0  502    0  0.00000000000E+00  0.00000000000E+00  0.23985632324E+01  0.23985632324E+01  0.00000000000E+00 0.  1.
         13   -1    0    0    0    0 -0.00000000000E+00 -0.00000000000E+00 -0.10000000000E+04  0.10000000000E+04  0.00000000000E+00 0.  1.
    9000005    2    1    2  501    0 -0.44372098165E+02 -0.20332515214E+02 -0.46283550380E+03  0.46540983213E+03  0.27044395125E+01 0.  0.
         13    1    3    3    0    0 -0.28319083983E+02 -0.11775185139E+02 -0.28362250725E+03  0.28527592278E+03  0.00000000000E+00 0.  1.
          1    1    3    3  501    0 -0.16053014181E+02 -0.85573300741E+01 -0.17921299656E+03  0.18013390935E+03  0.00000000000E+00 0.  1.
         21    1    1    2  502  501  0.44372098165E+02  0.20332515214E+02 -0.53476593296E+03  0.53698873110E+03  0.00000000000E+00 0.  1.
<mgrwt>
<rscale>  1 0.30000000E+03</rscale>
<asrwt>0</asrwt>
<pdfrwt beam="1">  1        1 0.87220665E-02 0.30000000E+03</pdfrwt>
<pdfrwt beam="2">0</pdfrwt>
<totfact> 0.91326703E+02</totfact>
</mgrwt>
</event>
<event>
 6    1  0.1956957E-002  0.3000000E+03  0.7818608E-02  0.1093470E+00
          1   -1    0    0  502    0  0.00000000000E+00  0.00000000000E+00  0.57848414343E+02  0.57848414343E+02  0.00000000000E+00 0.  1.
         13   -1    0    0    0    0 -0.00000000000E+00 -0.00000000000E+00 -0.10000000000E+04  0.10000000000E+04  0.00000000000E+00 0.  1.
    9000005    2    1    2  501    0 -0.14190663381E+02  0.11597316509E+03 -0.93339013466E+03  0.94068223760E+03  0.38443089342E+01 0.  0.
         13    1    3    3    0    0 -0.32703571397E+01  0.41898148534E+02 -0.33486110914E+03  0.33748794423E+03  0.00000000000E+00 0.  1.
          1    1    3    3  501    0 -0.10920306241E+02  0.74075016556E+02 -0.59852902552E+03  0.60319429338E+03  0.00000000000E+00 0.  1.
         21    1    1    2  502  501  0.14190663381E+02 -0.11597316509E+03 -0.87614509942E+01  0.11716617674E+03  0.00000000000E+00 0.  1.
<mgrwt>
<rscale>  1 0.30000000E+03</rscale>
<asrwt>0</asrwt>
<pdfrwt beam="1">  1        1 0.21035831E+00 0.30000000E+03</pdfrwt>
<pdfrwt beam="2">0</pdfrwt>
<totfact> 0.91496740E+00</totfact>
</mgrwt>
</event>
<event>
 6    1  0.1956957E-002  0.3000000E+03  0.7818608E-02  0.1093470E+00
          1   -1    0    0  502    0  0.00000000000E+00  0.00000000000E+00  0.17776579793E+01  0.17776579793E+01  0.00000000000E+00 0.  1.
         13   -1    0    0    0    0 -0.00000000000E+00 -0.00000000000E+00 -0.10000000000E+04  0.10000000000E+04  0.00000000000E+00 0.  1.
    9000005    2    1    2  501    0  0.35015154915E+02  0.18064269938E+02 -0.67571142953E+03  0.67686895142E+03  0.36417684673E+01 0.  0.
         13    1    3    3    0    0  0.14620583975E+02  0.76281857072E+01 -0.25257280561E+03  0.25311059406E+03  0.00000000000E+00 0.  1.
          1    1    3    3  501    0  0.20394570940E+02  0.10436084231E+02 -0.42313862392E+03  0.42375835736E+03  0.00000000000E+00 0.  1.
         21    1    1    2  502  501 -0.35015154915E+02 -0.18064269938E+02 -0.32251091249E+03  0.32490870656E+03  0.00000000000E+00 0.  1.
<mgrwt>
<rscale>  1 0.30000000E+03</rscale>
<asrwt>0</asrwt>
<pdfrwt beam="1">  1        1 0.64642245E-02 0.30000000E+03</pdfrwt>
<pdfrwt beam="2">0</pdfrwt>
<totfact> 0.13870941E+03</totfact>
</mgrwt>
</event>
<event>
 6    1  0.1956957E-002  0.3000000E+03  0.7818608E-02  0.1093470E+00
          1   -1    0    0  502    0  0.00000000000E+00  0.00000000000E+00  0.25078304370E+01  0.25078304370E+01  0.00000000000E+00 0.  1.
         13   -1    0    0    0    0 -0.00000000000E+00 -0.00000000000E+00 -0.10000000000E+04  0.10000000000E+04  0.00000000000E+00 0.  1.
    9000005    2    1    2  501    0 -0.29062083631E+02  0.23351047560E+02 -0.83314490495E+03  0.83398513311E+03  0.33005279495E+01 0.  0.
         13    1    3    3    0    0 -0.10210246615E+02  0.74373247362E+01 -0.31519263184E+03  0.31544565000E+03  0.00000000000E+00 0.  1.
          1    1    3    3  501    0 -0.18851837016E+02  0.15913722824E+02 -0.51795227311E+03  0.51853948312E+03  0.00000000000E+00 0.  1.
         21    1    1    2  502  501  0.29062083631E+02 -0.23351047560E+02 -0.16434726461E+03  0.16852269732E+03  0.00000000000E+00 0.  1.
<mgrwt>
<rscale>  1 0.30000000E+03</rscale>
<asrwt>0</asrwt>
<pdfrwt beam="1">  1        1 0.91194026E-02 0.30000000E+03</pdfrwt>
<pdfrwt beam="2">0</pdfrwt>
<totfact> 0.85854371E+02</totfact>
</mgrwt>
</event>
<event>
 6    1  0.1956957E-002  0.3000000E+03  0.7818608E-02  0.1093470E+00
          3   -1    0    0  502    0  0.00000000000E+00  0.00000000000E+00  0.69739843800E+01  0.69739843800E+01  0.00000000000E+00 0.  1.
         13   -1    0    0    0    0 -0.00000000000E+00 -0.00000000000E+00 -0.10000000000E+04  0.10000000000E+04  0.00000000000E+00 0.  1.
    9000005    2    1    2  501    0  0.27421649477E+02 -0.77908276071E+02 -0.56988166155E+03  0.57584431628E+03  0.31499322205E+01 0.  0.
         13    1    3    3    0    0  0.86063690351E+00 -0.30305992164E+01 -0.18084355616E+02  0.18356719356E+02  0.00000000000E+00 0.  1.
          1    1    3    3  501    0  0.26561012574E+02 -0.74877676855E+02 -0.55179730594E+03  0.55748759692E+03  0.00000000000E+00 0.  1.
         21    1    1    2  502  501 -0.27421649477E+02  0.77908276071E+02 -0.42314435407E+03  0.43112966810E+03  0.00000000000E+00 0.  1.
<mgrwt>
<rscale>  1 0.30000000E+03</rscale>
<asrwt>0</asrwt>
<pdfrwt beam="1">  1        3 0.25359997E-01 0.30000000E+03</pdfrwt>
<pdfrwt beam="2">0</pdfrwt>
<totfact> 0.64253367E+01</totfact>
</mgrwt>
</event>
<event>
 6    1  0.1956957E-002  0.3000000E+03  0.7818608E-02  0.1093470E+00
          1   -1    0    0  502    0  0.00000000000E+00  0.00000000000E+00  0.18433158778E+01  0.18433158778E+01  0.00000000000E+00 0.  1.
         13   -1    0    0    0    0 -0.00000000000E+00 -0.00000000000E+00 -0.10000000000E+04  0.10000000000E+04  0.00000000000E+00 0.  1.
    9000005    2    1    2  501    0 -0.35377309918E+02 -0.18541771886E+02 -0.68153511045E+03  0.68271235173E+03  0.32706375636E+01 0.  0.
         13    1    3    3    0    0 -0.22193377315E+02 -0.13372524216E+02 -0.44504333548E+03  0.44579697268E+03  0.00000000000E+00 0.  1.
          1    1    3    3  501    0 -0.13183932603E+02 -0.51692476708E+01 -0.23649177497E+03  0.23691537905E+03  0.00000000000E+00 0.  1.
         21    1    1    2  502  501  0.35377309918E+02  0.18541771886E+02 -0.31662157368E+03  0.31913096415E+03  0.00000000000E+00 0.  1.
<mgrwt>
<rscale>  1 0.30000000E+03</rscale>
<asrwt>0</asrwt>
<pdfrwt beam="1">  1        1 0.67029810E-02 0.30000000E+03</pdfrwt>
<pdfrwt beam="2">0</pdfrwt>
<totfact> 0.13184070E+03</totfact>
</mgrwt>
</event>
<event>
 6    1  0.1956957E-002  0.3000000E+03  0.7818608E-02  0.1093470E+00
          1   -1    0    0  502    0  0.00000000000E+00  0.00000000000E+00  0.10510479987E+01  0.10510479987E+01  0.00000000000E+00 0.  1.
         13   -1    0    0    0    0 -0.00000000000E+00 -0.00000000000E+00 -0.10000000000E+04  0.10000000000E+04  0.00000000000E+00 0.  1.
    9000005    2    1    2  501    0 -0.29427992998E+02  0.13408799492E+02 -0.51670797216E+03  0.51772696903E+03  0.28780702602E+01 0.  0.
         13    1    3    3    0    0 -0.21868958230E+02  0.90432774643E+01 -0.36157721221E+03  0.36235081425E+03  0.00000000000E+00 0.  1.
          3    1    3    3  501    0 -0.75590347677E+01  0.43655220277E+01 -0.15513075995E+03  0.15537615477E+03  0.00000000000E+00 0.  1.
         21    1    1    2  502  501  0.29427992998E+02 -0.13408799492E+02 -0.48224097984E+03  0.48332407897E+03  0.00000000000E+00 0.  1.
<mgrwt>
<rscale>  1 0.30000000E+03</rscale>
<asrwt>0</asrwt>
<pdfrwt beam="1">  1        1 0.38220008E-02 0.30000000E+03</pdfrwt>
<pdfrwt beam="2">0</pdfrwt>
<totfact> 0.29031634E+03</totfact>
</mgrwt>
</event>
<event>
 6    1  0.1956957E-002  0.3000000E+03  0.7818608E-02  0.1093470E+00
          1   -1    0    0  502    0  0.00000000000E+00  0.00000000000E+00  0.11910618659E+01  0.11910618659E+01  0.00000000000E+00 0.  1.
         13   -1    0    0    0    0 -0.00000000000E+00 -0.00000000000E+00 -0.10000000000E+04  0.10000000000E+04  0.00000000000E+00 0.  1.
    9000005    2    1    2  501    0  0.23003487707E+01  0.30812219678E+02 -0.72067478666E+03  0.72134594273E+03  0.36244288870E+01 0.  0.
         13    1    3    3    0    0  0.61460029968E+00  0.11836397957E+02 -0.23711378858E+03  0.23740982875E+03  0.00000000000E+00 0.  1.
          3    1    3    3  501    0  0.16857484710E+01  0.18975821721E+02 -0.48356099807E+03  0.48393611398E+03  0.00000000000E+00 0.  1.
         21    1    1    2  502  501 -0.23003487707E+01 -0.30812219678E+02 -0.27813415148E+03  0.27984511914E+03  0.00000000000E+00 0.  1.
<mgrwt>
<rscale>  1 0.30000000E+03</rscale>
<asrwt>0</asrwt>
<pdfrwt beam="1">  1        1 0.43311432E-02 0.30000000E+03</pdfrwt>
<pdfrwt beam="2">0</pdfrwt>
<totfact> 0.24344784E+03</totfact>
</mgrwt>
</event>
<event>
 6    1  0.1956957E-002  0.3000000E+03  0.7818608E-02  0.1093470E+00
          3   -1    0    0  502    0  0.00000000000E+00  0.00000000000E+00  0.10753950808E+01  0.10753950808E+01  0.00000000000E+00 0.  1.
         13   -1    0    0    0    0 -0.00000000000E+00 -0.00000000000E+00 -0.10000000000E+04  0.10000000000E+04  0.00000000000E+00 0.  1.
    9000005    2    1    2  501    0  0.27669043569E+02  0.16479675763E+02 -0.58826773084E+03  0.58915765582E+03  0.32656674949E+01 0.  0.
         13    1    3    3    0    0  0.15614712640E+02  0.10117422225E+02 -0.31272097358E+03  0.31327398360E+03  0.00000000000E+00 0.  1.
          3    1    3    3  501    0  0.12054330929E+02  0.63622535376E+01 -0.27554675725E+03  0.27588367222E+03  0.00000000000E+00 0.  1.
         21    1    1    2  502  501 -0.27669043569E+02 -0.16479675763E+02 -0.41065687408E+03  0.41191773926E+03  0.00000000000E+00 0.  1.
<mgrwt>
<rscale>  1 0.30000000E+03</rscale>
<asrwt>0</asrwt>
<pdfrwt beam="1">  1        3 0.39105358E-02 0.30000000E+03</pdfrwt>
<pdfrwt beam="2">0</pdfrwt>
<totfact> 0.14446055E+03</totfact>
</mgrwt>
</event>
<event>
 6    1  0.1956957E-002  0.3000000E+03  0.7818608E-02  0.1093470E+00
          3   -1    0    0  502    0  0.00000000000E+00  0.00000000000E+00  0.14089631321E+01  0.14089631321E+01  0.00000000000E+00 0.  1.
         13   -1    0    0    0    0 -0.00000000000E+00 -0.00000000000E+00 -0.10000000000E+04  0.10000000000E+04  0.00000000000E+00 0.  1.
    9000005    2    1    2  501    0 -0.36466103538E+02  0.73468051469E+01 -0.55697616249E+03  0.55823016228E+03  0.38361756436E+01 0.  0.
         13    1    3    3    0    0 -0.34284172952E+02  0.77713422516E+01 -0.51934617672E+03  0.52053458055E+03  0.00000000000E+00 0.  1.
          3    1    3    3  501    0 -0.21819305867E+01 -0.42453710468E+00 -0.37629985769E+02  0.37695581728E+02  0.00000000000E+00 0.  1.
         21    1    1    2  502  501  0.36466103538E+02 -0.73468051469E+01 -0.44161487438E+03  0.44317880086E+03  0.00000000000E+00 0.  1.
<mgrwt>
<rscale>  1 0.30000000E+03</rscale>
<asrwt>0</asrwt>
<pdfrwt beam="1">  1        3 0.51235131E-02 0.30000000E+03</pdfrwt>
<pdfrwt beam="2">0</pdfrwt>
<totfact> 0.95280599E+02</totfact>
</mgrwt>
</event>
<event>
 6    1  0.1956957E-002  0.3000000E+03  0.7818608E-02  0.1093470E+00
          1   -1    0    0  502    0  0.00000000000E+00  0.00000000000E+00  0.14149535736E+01  0.14149535736E+01  0.00000000000E+00 0.  1.
         13   -1    0    0    0    0 -0.00000000000E+00 -0.00000000000E+00 -0.10000000000E+04  0.10000000000E+04  0.00000000000E+00 0.  1.
    9000005    2    1    2  501    0  0.24507999711E+02  0.27744706020E+02 -0.58114113168E+03  0.58233282234E+03  0.40112691361E+01 0.  0.
         13    1    3    3    0    0  0.14754263722E+02  0.16270239748E+02 -0.37463422367E+03  0.37527751137E+03  0.00000000000E+00 0.  1.
          1    1    3    3  501    0  0.97537359890E+01  0.11474466272E+02 -0.20650690801E+03  0.20705531096E+03  0.00000000000E+00 0.  1.
         21    1    1    2  502  501 -0.24507999711E+02 -0.27744706020E+02 -0.41744391475E+03  0.41908213124E+03  0.00000000000E+00 0.  1.
<mgrwt>
<rscale>  1 0.30000000E+03</rscale>
<asrwt>0</asrwt>
<pdfrwt beam="1">  1        1 0.51452966E-02 0.30000000E+03</pdfrwt>
<pdfrwt beam="2">0</pdfrwt>
<totfact> 0.19106750E+03</totfact>
</mgrwt>
</event>
<event>
 6    1  0.1956957E-002  0.3000000E+03  0.7818608E-02  0.1093470E+00
          1   -1    0    0  502    0  0.00000000000E+00  0.00000000000E+00  0.86053044239E+01  0.86053044239E+01  0.00000000000E+00 0.  1.
         13   -1    0    0    0    0 -0.00000000000E+00 -0.00000000000E+00 -0.10000000000E+04  0.10000000000E+04  0.00000000000E+00 0.  1.
    9000005    2    1    2  501    0 -0.37753593518E+02  0.19129212970E+02 -0.94443046487E+03  0.94538426696E+03  0.33538973861E+01 0.  0.
         13    1    3    3    0    0 -0.90441769397E+01  0.51784517422E+01 -0.26369439184E+03  0.26390025727E+03  0.00000000000E+00 0.  1.
          3    1    3    3  501    0 -0.28709416579E+02  0.13950761227E+02 -0.68073607303E+03  0.68148400969E+03  0.00000000000E+00 0.  1.
         21    1    1    2  502  501  0.37753593518E+02 -0.19129212970E+02 -0.46964230710E+02  0.63221037468E+02  0.00000000000E+00 0.  1.
<mgrwt>
<rscale>  1 0.30000000E+03</rscale>
<asrwt>0</asrwt>
<pdfrwt beam="1">  1        1 0.31292082E-01 0.30000000E+03</pdfrwt>
<pdfrwt beam="2">0</pdfrwt>
<totfact> 0.16295170E+02</totfact>
</mgrwt>
</event>
<event>
 6    1  0.1956957E-002  0.3000000E+03  0.7818608E-02  0.1093470E+00
          1   -1    0    0  502    0  0.00000000000E+00  0.00000000000E+00  0.18370437467E+01  0.18370437467E+01  0.00000000000E+00 0.  1.
         13   -1    0    0    0    0 -0.00000000000E+00 -0.00000000000E+00 -0.10000000000E+04  0.10000000000E+04  0.00000000000E+00 0.  1.
    9000005    2    1    2  501    0 -0.20742687216E+02  0.31923223178E+02 -0.72787479290E+03  0.72888092548E+03  0.40420460673E+01 0.  0.
         13    1    3    3    0    0 -0.43630156840E+01  0.50535657072E+01 -0.10544605939E+03  0.10565720928E+03  0.00000000000E+00 0.  1.
          1    1    3    3  501    0 -0.16379671532E+02  0.26869657471E+02 -0.62242873351E+03  0.62322371620E+03  0.00000000000E+00 0.  1.
         21    1    1    2  502  501  0.20742687216E+02 -0.31923223178E+02 -0.27028816335E+03  0.27295611827E+03  0.00000000000E+00 0.  1.
<mgrwt>
<rscale>  1 0.30000000E+03</rscale>
<asrwt>0</asrwt>
<pdfrwt beam="1">  1        1 0.66801732E-02 0.30000000E+03</pdfrwt>
<pdfrwt beam="2">0</pdfrwt>
<totfact> 0.13247122E+03</totfact>
</mgrwt>
</event>
<event>
 6    1  0.1956957E-002  0.3000000E+03  0.7818608E-02  0.1093470E+00
          1   -1    0    0  502    0  0.00000000000E+00  0.00000000000E+00  0.38763024953E+01  0.38763024953E+01  0.00000000000E+00 0.  1.
         13   -1    0    0    0    0 -0.00000000000E+00 -0.00000000000E+00 -0.10000000000E+04  0.10000000000E+04  0.00000000000E+00 0.  1.
    9000005    2    1    2  501    0 -0.56185493776E+02 -0.20662768483E+02 -0.63497000687E+03  0.63779468868E+03  0.33757333864E+01 0.  0.
         13    1    3    3    0    0 -0.16459098058E+00 -0.27331149167E+00 -0.49894597372E+01  0.49996497709E+01  0.00000000000E+00 0.  1.
          1    1    3    3  501    0 -0.56020902795E+02 -0.20389456992E+02 -0.62998054713E+03  0.63279503891E+03  0.00000000000E+00 0.  1.
         21    1    1    2  502  501  0.56185493776E+02  0.20662768483E+02 -0.36115369064E+03  0.36608161382E+03  0.00000000000E+00 0.  1.
<mgrwt>
<rscale>  1 0.30000000E+03</rscale>
<asrwt>0</asrwt>
<pdfrwt beam="1">  1        1 0.14095675E-01 0.30000000E+03</pdfrwt>
<pdfrwt beam="2">0</pdfrwt>
<totfact> 0.47206576E+02</totfact>
</mgrwt>
</event>
<event>
 6    1  0.1956957E-002  0.3000000E+03  0.7818608E-02  0.1093470E+00
          1   -1    0    0  502    0  0.00000000000E+00  0.00000000000E+00  0.23355797511E+01  0.23355797511E+01  0.00000000000E+00 0.  1.
         13   -1    0    0    0    0 -0.00000000000E+00 -0.00000000000E+00 -0.10000000000E+04  0.10000000000E+04  0.00000000000E+00 0.  1.
    9000005    2    1    2  501    0  0.22257229604E+02 -0.30685588763E+02 -0.80921244892E+03  0.81010879930E+03  0.38065178216E+01 0.  0.
         13    1    3    3    0    0  0.10492490903E+02 -0.17126937887E+02 -0.40423873166E+03  0.40473741678E+03  0.00000000000E+00 0.  1.
          3    1    3    3  501    0  0.11764738701E+02 -0.13558650876E+02 -0.40497371726E+03  0.40537138251E+03  0.00000000000E+00 0.  1.
         21    1    1    2  502  501 -0.22257229604E+02  0.30685588763E+02 -0.18845197133E+03  0.19222678045E+03  0.00000000000E+00 0.  1.
<mgrwt>
<rscale>  1 0.30000000E+03</rscale>
<asrwt>0</asrwt>
<pdfrwt beam="1">  1        1 0.84930352E-02 0.30000000E+03</pdfrwt>
<pdfrwt beam="2">0</pdfrwt>
<totfact> 0.94764656E+02</totfact>
</mgrwt>
</event>
<event>
 6    1  0.1956957E-002  0.3000000E+03  0.7818608E-02  0.1093470E+00
          1   -1    0    0  502    0  0.00000000000E+00  0.00000000000E+00  0.24790240274E+01  0.24790240274E+01  0.00000000000E+00 0.  1.
         13   -1    0    0    0    0 -0.00000000000E+00 -0.00000000000E+00 -0.10000000000E+04  0.10000000000E+04  0.00000000000E+00 0.  1.
    9000005    2    1    2  501    0 -0.19608885174E+02 -0.32242542723E+02 -0.82542515710E+03  0.82629428913E+03  0.33870826412E+01 0.  0.
         13    1    3    3    0    0 -0.71757234852E+01 -0.90774721689E+01 -0.26683413005E+03  0.26708490124E+03  0.00000000000E+00 0.  1.
          1    1    3    3  501    0 -0.12433161689E+02 -0.23165070554E+02 -0.55859102705E+03  0.55920938789E+03  0.00000000000E+00 0.  1.
         21    1    1    2  502  501  0.19608885174E+02  0.32242542723E+02 -0.17209581887E+03  0.17618473490E+03  0.00000000000E+00 0.  1.
<mgrwt>
<rscale>  1 0.30000000E+03</rscale>
<asrwt>0</asrwt>
<pdfrwt beam="1">  1        1 0.90146518E-02 0.30000000E+03</pdfrwt>
<pdfrwt beam="2">0</pdfrwt>
<totfact> 0.87240495E+02</totfact>
</mgrwt>
</event>
<event>
 6    1  0.1956957E-002  0.3000000E+03  0.7818608E-02  0.1093470E+00
          1   -1    0    0  502    0  0.00000000000E+00  0.00000000000E+00  0.12826845052E+01  0.12826845052E+01  0.00000000000E+00 0.  1.
         13   -1    0    0    0    0 -0.00000000000E+00 -0.00000000000E+00 -0.10000000000E+04  0.10000000000E+04  0.00000000000E+00 0.  1.
    9000005    2    1    2  501    0 -0.29881954943E+02 -0.94670965978E+01 -0.74042001498E+03  0.74109034680E+03  0.32475194055E+01 0.  0.
         13    1    3    3    0    0 -0.27838697864E+02 -0.81633453248E+01 -0.69582901290E+03  0.69643352052E+03  0.00000000000E+00 0.  1.
          3    1    3    3  501    0 -0.20432570785E+01 -0.13037512730E+01 -0.44591002080E+02  0.44656826280E+02  0.00000000000E+00 0.  1.
         21    1    1    2  502  501  0.29881954943E+02  0.94670965978E+01 -0.25829730051E+03  0.26019233771E+03  0.00000000000E+00 0.  1.
<mgrwt>
<rscale>  1 0.30000000E+03</rscale>
<asrwt>0</asrwt>
<pdfrwt beam="1">  1        1 0.46643171E-02 0.30000000E+03</pdfrwt>
<pdfrwt beam="2">0</pdfrwt>
<totfact> 0.21933596E+03</totfact>
</mgrwt>
</event>
<event>
 6    1  0.1956957E-002  0.3000000E+03  0.7818608E-02  0.1093470E+00
          1   -1    0    0  502    0  0.00000000000E+00  0.00000000000E+00  0.13497055078E+01  0.13497055078E+01  0.00000000000E+00 0.  1.
         13   -1    0    0    0    0 -0.00000000000E+00 -0.00000000000E+00 -0.10000000000E+04  0.10000000000E+04  0.00000000000E+00 0.  1.
    9000005    2    1    2  501    0 -0.32587827934E+02 -0.98699364285E+01 -0.68552832633E+03  0.68638185140E+03  0.34025810642E+01 0.  0.
         13    1    3    3    0    0 -0.20836817107E+02 -0.66196192149E+01 -0.47136165512E+03  0.47186841622E+03  0.00000000000E+00 0.  1.
          1    1    3    3  501    0 -0.11751010827E+02 -0.32503172135E+01 -0.21416667121E+03  0.21451343518E+03  0.00000000000E+00 0.  1.
         21    1    1    2  502  501  0.32587827934E+02  0.98699364285E+01 -0.31312196816E+03  0.31496785411E+03  0.00000000000E+00 0.  1.
<mgrwt>
<rscale>  1 0.30000000E+03</rscale>
<asrwt>0</asrwt>
<pdfrwt beam="1">  1        1 0.49080304E-02 0.30000000E+03</pdfrwt>
<pdfrwt beam="2">0</pdfrwt>
<totfact> 0.20417553E+03</totfact>
</mgrwt>
</event>
<event>
 6    1  0.1956957E-002  0.3000000E+03  0.7818608E-02  0.1093470E+00
          3   -1    0    0  502    0  0.00000000000E+00  0.00000000000E+00  0.19025298788E+01  0.19025298788E+01  0.00000000000E+00 0.  1.
         13   -1    0    0    0    0 -0.00000000000E+00 -0.00000000000E+00 -0.10000000000E+04  0.10000000000E+04  0.00000000000E+00 0.  1.
    9000005    2    1    2  501    0  0.39621539825E+02 -0.11308573341E+02 -0.66152244092E+03  0.66281478234E+03  0.37075057341E+01 0.  0.
         13    1    3    3    0    0  0.13690832074E+02 -0.21029536168E+01 -0.22499504266E+03  0.22542100727E+03  0.00000000000E+00 0.  1.
          1    1    3    3  501    0  0.25930707750E+02 -0.92056197241E+01 -0.43652739826E+03  0.43739377507E+03  0.00000000000E+00 0.  1.
         21    1    1    2  502  501 -0.39621539825E+02  0.11308573341E+02 -0.33657502920E+03  0.33908774754E+03  0.00000000000E+00 0.  1.
<mgrwt>
<rscale>  1 0.30000000E+03</rscale>
<asrwt>0</asrwt>
<pdfrwt beam="1">  1        3 0.69183051E-02 0.30000000E+03</pdfrwt>
<pdfrwt beam="2">0</pdfrwt>
<totfact> 0.59667553E+02</totfact>
</mgrwt>
</event>
<event>
 6    1  0.1956957E-002  0.3000000E+03  0.7818608E-02  0.1093470E+00
          1   -1    0    0  502    0  0.00000000000E+00  0.00000000000E+00  0.12318882402E+01  0.12318882402E+01  0.00000000000E+00 0.  1.
         13   -1    0    0    0    0 -0.00000000000E+00 -0.00000000000E+00 -0.10000000000E+04  0.10000000000E+04  0.00000000000E+00 0.  1.
    9000005    2    1    2  501    0  0.34791243977E+02 -0.34026472031E+01 -0.52573574225E+03  0.52690960195E+03  0.36944938604E+01 0.  0.
         13    1    3    3    0    0  0.23833936458E+02 -0.63955557637E+00 -0.35103822831E+03  0.35184698846E+03  0.00000000000E+00 0.  1.
          3    1    3    3  501    0  0.10957307519E+02 -0.27630916268E+01 -0.17469751395E+03  0.17506261349E+03  0.00000000000E+00 0.  1.
         21    1    1    2  502  501 -0.34791243977E+02  0.34026472031E+01 -0.47303236951E+03  0.47432228629E+03  0.00000000000E+00 0.  1.
<mgrwt>
<rscale>  1 0.30000000E+03</rscale>
<asrwt>0</asrwt>
<pdfrwt beam="1">  1        1 0.44796030E-02 0.30000000E+03</pdfrwt>
<pdfrwt beam="2">0</pdfrwt>
<totfact> 0.23216807E+03</totfact>
</mgrwt>
</event>
<event>
 6    1  0.1956957E-002  0.3000000E+03  0.7818608E-02  0.1093470E+00
          1   -1    0    0  502    0  0.00000000000E+00  0.00000000000E+00  0.10504341758E+02  0.10504341758E+02  0.00000000000E+00 0.  1.
         13   -1    0    0    0    0 -0.00000000000E+00 -0.00000000000E+00 -0.10000000000E+04  0.10000000000E+04  0.00000000000E+00 0.  1.
    9000005    2    1    2  501    0 -0.15033624903E+02  0.32342617170E+02 -0.96840702478E+03  0.96907023474E+03  0.35915802509E+01 0.  0.
         13    1    3    3    0    0 -0.33975166503E+00  0.98372547965E+00 -0.16003245887E+02  0.16037051659E+02  0.00000000000E+00 0.  1.
          3    1    3    3  501    0 -0.14693873238E+02  0.31358891690E+02 -0.95240377890E+03  0.95303318308E+03  0.00000000000E+00 0.  1.
         21    1    1    2  502  501  0.15033624903E+02 -0.32342617170E+02 -0.21088633457E+02  0.41434107016E+02  0.00000000000E+00 0.  1.
<mgrwt>
<rscale>  1 0.30000000E+03</rscale>
<asrwt>0</asrwt>
<pdfrwt beam="1">  1        1 0.38197687E-01 0.30000000E+03</pdfrwt>
<pdfrwt beam="2">0</pdfrwt>
<totfact> 0.12554117E+02</totfact>
</mgrwt>
</event>
<event>
 6    1  0.1956957E-002  0.3000000E+03  0.7818608E-02  0.1093470E+00
          3   -1    0    0  502    0  0.00000000000E+00  0.00000000000E+00  0.39358287184E+01  0.39358287184E+01  0.00000000000E+00 0.  1.
         13   -1    0    0    0    0 -0.00000000000E+00 -0.00000000000E+00 -0.10000000000E+04  0.10000000000E+04  0.00000000000E+00 0.  1.
    9000005    2    1    2  501    0  0.51785901405E+02  0.33659148801E+01 -0.77978438977E+03  0.78151718549E+03  0.35082347889E+01 0.  0.
         13    1    3    3    0    0  0.18123927716E+02 -0.38939241091E+00 -0.28077703167E+03  0.28136163543E+03  0.00000000000E+00 0.  1.
          1    1    3    3  501    0  0.33661973689E+02  0.37553072910E+01 -0.49900735811E+03  0.50015555006E+03  0.00000000000E+00 0.  1.
         21    1    1    2  502  501 -0.51785901405E+02 -0.33659148801E+01 -0.21627978151E+03  0.22241864323E+03  0.00000000000E+00 0.  1.
<mgrwt>
<rscale>  1 0.30000000E+03</rscale>
<asrwt>0</asrwt>
<pdfrwt beam="1">  1        3 0.14312135E-01 0.30000000E+03</pdfrwt>
<pdfrwt beam="2">0</pdfrwt>
<totfact> 0.18049479E+02</totfact>
</mgrwt>
</event>
<event>
 6    1  0.1956957E-002  0.3000000E+03  0.7818608E-02  0.1093470E+00
          1   -1    0    0  502    0  0.00000000000E+00  0.00000000000E+00  0.61402654517E+01  0.61402654517E+01  0.00000000000E+00 0.  1.
         13   -1    0    0    0    0 -0.00000000000E+00 -0.00000000000E+00 -0.10000000000E+04  0.10000000000E+04  0.00000000000E+00 0.  1.
    9000005    2    1    2  501    0  0.12872434513E+01 -0.39177336299E+02 -0.93249474523E+03  0.93332417802E+03  0.33242616141E+01 0.  0.
         13    1    3    3    0    0 -0.12222237185E+00 -0.48055411945E-01 -0.74370541266E+01  0.74382136104E+01  0.00000000000E+00 0.  1.
          3    1    3    3  501    0  0.14094658232E+01 -0.39129280887E+02 -0.92505769110E+03  0.92588596441E+03  0.00000000000E+00 0.  1.
         21    1    1    2  502  501 -0.12872434513E+01  0.39177336299E+02 -0.61364989318E+02  0.72816087434E+02  0.00000000000E+00 0.  1.
<mgrwt>
<rscale>  1 0.30000000E+03</rscale>
<asrwt>0</asrwt>
<pdfrwt beam="1">  1        1 0.22328285E-01 0.30000000E+03</pdfrwt>
<pdfrwt beam="2">0</pdfrwt>
<totfact> 0.25425833E+02</totfact>
</mgrwt>
</event>
<event>
 6    1  0.1956957E-002  0.3000000E+03  0.7818608E-02  0.1093470E+00
          1   -1    0    0  502    0  0.00000000000E+00  0.00000000000E+00  0.16447426327E+01  0.16447426327E+01  0.00000000000E+00 0.  1.
         13   -1    0    0    0    0 -0.00000000000E+00 -0.00000000000E+00 -0.10000000000E+04  0.10000000000E+04  0.00000000000E+00 0.  1.
    9000005    2    1    2  501    0  0.84263344793E+01 -0.29668571654E+02 -0.82411035732E+03  0.82469132377E+03  0.25828652853E+01 0.  0.
         13    1    3    3    0    0  0.49980450105E+01 -0.17119901504E+02 -0.50989704506E+03  0.51020884748E+03  0.00000000000E+00 0.  1.
          3    1    3    3  501    0  0.34282894689E+01 -0.12548670150E+02 -0.31421331226E+03  0.31448247629E+03  0.00000000000E+00 0.  1.
         21    1    1    2  502  501 -0.84263344793E+01  0.29668571654E+02 -0.17424490004E+03  0.17695341886E+03  0.00000000000E+00 0.  1.
<mgrwt>
<rscale>  1 0.30000000E+03</rscale>
<asrwt>0</asrwt>
<pdfrwt beam="1">  1        1 0.59808949E-02 0.30000000E+03</pdfrwt>
<pdfrwt beam="2">0</pdfrwt>
<totfact> 0.15467502E+03</totfact>
</mgrwt>
</event>
<event>
 6    1  0.1956957E-002  0.3000000E+03  0.7818608E-02  0.1093470E+00
          1   -1    0    0  502    0  0.00000000000E+00  0.00000000000E+00  0.14641212309E+01  0.14641212309E+01  0.00000000000E+00 0.  1.
         13   -1    0    0    0    0 -0.00000000000E+00 -0.00000000000E+00 -0.10000000000E+04  0.10000000000E+04  0.00000000000E+00 0.  1.
    9000005    2    1    2  501    0 -0.28356419760E+02  0.13276003706E+02 -0.78234955403E+03  0.78302221632E+03  0.85221914373E+01 0.  0.
         13    1    3    3    0    0 -0.78109626188E+01  0.81053837976E+01 -0.27916197338E+03  0.27938882541E+03  0.00000000000E+00 0.  1.
          3    1    3    3  501    0 -0.20545457141E+02  0.51706199084E+01 -0.50318758065E+03  0.50363339091E+03  0.00000000000E+00 0.  1.
         21    1    1    2  502  501  0.28356419760E+02 -0.13276003706E+02 -0.21618632474E+03  0.21844190491E+03  0.00000000000E+00 0.  1.
<mgrwt>
<rscale>  1 0.30000000E+03</rscale>
<asrwt>0</asrwt>
<pdfrwt beam="1">  1        1 0.53240884E-02 0.30000000E+03</pdfrwt>
<pdfrwt beam="2">0</pdfrwt>
<totfact> 0.18211502E+03</totfact>
</mgrwt>
</event>
<event>
 6    1  0.1956957E-002  0.3000000E+03  0.7818608E-02  0.1093470E+00
          3   -1    0    0  502    0  0.00000000000E+00  0.00000000000E+00  0.22991883129E+01  0.22991883129E+01  0.00000000000E+00 0.  1.
         13   -1    0    0    0    0 -0.00000000000E+00 -0.00000000000E+00 -0.10000000000E+04  0.10000000000E+04  0.00000000000E+00 0.  1.
    9000005    2    1    2  501    0 -0.16733439723E+02  0.30211857054E+02 -0.84628581609E+03  0.84699540470E+03  0.29612096382E+01 0.  0.
         13    1    3    3    0    0 -0.13083115766E+02  0.21512625853E+02 -0.59470337771E+03  0.59523614511E+03  0.00000000000E+00 0.  1.
          1    1    3    3  501    0 -0.36503239573E+01  0.86992312018E+01 -0.25158243838E+03  0.25175925959E+03  0.00000000000E+00 0.  1.
         21    1    1    2  502  501  0.16733439723E+02 -0.30211857054E+02 -0.15141499560E+03  0.15530378361E+03  0.00000000000E+00 0.  1.
<mgrwt>
<rscale>  1 0.30000000E+03</rscale>
<asrwt>0</asrwt>
<pdfrwt beam="1">  1        3 0.83607024E-02 0.30000000E+03</pdfrwt>
<pdfrwt beam="2">0</pdfrwt>
<totfact> 0.44163192E+02</totfact>
</mgrwt>
</event>
<event>
 6    1  0.1956957E-002  0.3000000E+03  0.7818608E-02  0.1093470E+00
          1   -1    0    0  502    0  0.00000000000E+00  0.00000000000E+00  0.18691163639E+01  0.18691163639E+01  0.00000000000E+00 0.  1.
         13   -1    0    0    0    0 -0.00000000000E+00 -0.00000000000E+00 -0.10000000000E+04  0.10000000000E+04  0.00000000000E+00 0.  1.
    9000005    2    1    2  501    0  0.20334510153E+02 -0.27033707976E+02 -0.81041442275E+03  0.81112902263E+03  0.38001422477E+01 0.  0.
         13    1    3    3    0    0  0.30187655452E+01 -0.21508022385E+01 -0.97090598794E+02  0.97161325999E+02  0.00000000000E+00 0.  1.
          3    1    3    3  501    0  0.17315744608E+02 -0.24882905737E+02 -0.71332382395E+03  0.71396769663E+03  0.00000000000E+00 0.  1.
         21    1    1    2  502  501 -0.20334510153E+02  0.27033707976E+02 -0.18771646089E+03  0.19074009374E+03  0.00000000000E+00 0.  1.
<mgrwt>
<rscale>  1 0.30000000E+03</rscale>
<asrwt>0</asrwt>
<pdfrwt beam="1">  1        1 0.67968011E-02 0.30000000E+03</pdfrwt>
<pdfrwt beam="2">0</pdfrwt>
<totfact> 0.12930083E+03</totfact>
</mgrwt>
</event>
<event>
 6    1  0.1956957E-002  0.3000000E+03  0.7818608E-02  0.1093470E+00
          3   -1    0    0  502    0  0.00000000000E+00  0.00000000000E+00  0.37187865999E+01  0.37187865999E+01  0.00000000000E+00 0.  1.
         13   -1    0    0    0    0 -0.00000000000E+00 -0.00000000000E+00 -0.10000000000E+04  0.10000000000E+04  0.00000000000E+00 0.  1.
    9000005    2    1    2  501    0  0.11201519258E+02  0.40515403446E+02 -0.86161792616E+03  0.86264726970E+03  0.28087881817E+01 0.  0.
         13    1    3    3    0    0  0.49756844106E+01  0.23069432095E+02 -0.48969737688E+03  0.49026572086E+03  0.00000000000E+00 0.  1.
          1    1    3    3  501    0  0.62258348478E+01  0.17445971351E+02 -0.37192054928E+03  0.37238154883E+03  0.00000000000E+00 0.  1.
         21    1    1    2  502  501 -0.11201519258E+02 -0.40515403446E+02 -0.13466328724E+03  0.14107151690E+03  0.00000000000E+00 0.  1.
<mgrwt>
<rscale>  1 0.30000000E+03</rscale>
<asrwt>0</asrwt>
<pdfrwt beam="1">  1        3 0.13522889E-01 0.30000000E+03</pdfrwt>
<pdfrwt beam="2">0</pdfrwt>
<totfact> 0.19892567E+02</totfact>
</mgrwt>
</event>
<event>
 6    1  0.1956957E-002  0.3000000E+03  0.7818608E-02  0.1093470E+00
          3   -1    0    0  502    0  0.00000000000E+00  0.00000000000E+00  0.21329958388E+02  0.21329958388E+02  0.00000000000E+00 0.  1.
         13   -1    0    0    0    0 -0.00000000000E+00 -0.00000000000E+00 -0.10000000000E+04  0.10000000000E+04  0.00000000000E+00 0.  1.
    9000005    2    1    2  501    0  0.23777544198E+02 -0.29407164652E+02 -0.98257867417E+03  0.98331114266E+03  0.31304006153E+01 0.  0.
         13    1    3    3    0    0  0.11320033365E+02 -0.13208544075E+02 -0.41374534621E+03  0.41411087924E+03  0.00000000000E+00 0.  1.
          1    1    3    3  501    0  0.12457510833E+02 -0.16198620577E+02 -0.56883332796E+03  0.56920026342E+03  0.00000000000E+00 0.  1.
         21    1    1    2  502  501 -0.23777544198E+02  0.29407164652E+02  0.39086325553E+01  0.38018815728E+02  0.00000000000E+00 0.  1.
<mgrwt>
<rscale>  1 0.30000000E+03</rscale>
<asrwt>0</asrwt>
<pdfrwt beam="1">  1        3 0.77563649E-01 0.30000000E+03</pdfrwt>
<pdfrwt beam="2">0</pdfrwt>
<totfact> 0.71674106E+00</totfact>
</mgrwt>
</event>
<event>
 6    1  0.1956957E-002  0.3000000E+03  0.7818608E-02  0.1093470E+00
          1   -1    0    0  502    0  0.00000000000E+00  0.00000000000E+00  0.15822737293E+01  0.15822737293E+01  0.00000000000E+00 0.  1.
         13   -1    0    0    0    0 -0.00000000000E+00 -0.00000000000E+00 -0.10000000000E+04  0.10000000000E+04  0.00000000000E+00 0.  1.
    9000005    2    1    2  501    0 -0.30264766764E+01 -0.39017657934E+02 -0.58444176453E+03  0.58576063638E+03  0.34365403326E+01 0.  0.
         13    1    3    3    0    0 -0.26236003647E+01 -0.30330375097E+02 -0.47433750377E+03  0.47531345701E+03  0.00000000000E+00 0.  1.
          3    1    3    3  501    0 -0.40287631165E+00 -0.86872828372E+01 -0.11010426076E+03  0.11044717937E+03  0.00000000000E+00 0.  1.
         21    1    1    2  502  501  0.30264766764E+01  0.39017657934E+02 -0.41397596174E+03  0.41582163735E+03  0.00000000000E+00 0.  1.
<mgrwt>
<rscale>  1 0.30000000E+03</rscale>
<asrwt>0</asrwt>
<pdfrwt beam="1">  1        1 0.57537348E-02 0.30000000E+03</pdfrwt>
<pdfrwt beam="2">0</pdfrwt>
<totfact> 0.16331262E+03</totfact>
</mgrwt>
</event>
<event>
 6    1  0.1956957E-002  0.3000000E+03  0.7818608E-02  0.1093470E+00
          3   -1    0    0  502    0  0.00000000000E+00  0.00000000000E+00  0.10806990810E+01  0.10806990810E+01  0.00000000000E+00 0.  1.
         13   -1    0    0    0    0 -0.00000000000E+00 -0.00000000000E+00 -0.10000000000E+04  0.10000000000E+04  0.00000000000E+00 0.  1.
    9000005    2    1    2  501    0 -0.13623972214E+02 -0.27059102392E+02 -0.69178958404E+03  0.69246042977E+03  0.32879425315E+01 0.  0.
         13    1    3    3    0    0 -0.11609981624E+02 -0.21517446491E+02 -0.53054634380E+03  0.53110941914E+03  0.00000000000E+00 0.  1.
          3    1    3    3  501    0 -0.20139905896E+01 -0.55416559009E+01 -0.16124324023E+03  0.16135101062E+03  0.00000000000E+00 0.  1.
         21    1    1    2  502  501  0.13623972214E+02  0.27059102392E+02 -0.30712971688E+03  0.30862026932E+03  0.00000000000E+00 0.  1.
<mgrwt>
<rscale>  1 0.30000000E+03</rscale>
<asrwt>0</asrwt>
<pdfrwt beam="1">  1        3 0.39298231E-02 0.30000000E+03</pdfrwt>
<pdfrwt beam="2">0</pdfrwt>
<totfact> 0.14337257E+03</totfact>
</mgrwt>
</event>
<event>
 6    1  0.1956957E-002  0.3000000E+03  0.7818608E-02  0.1093470E+00
          1   -1    0    0  502    0  0.00000000000E+00  0.00000000000E+00  0.38467932350E+01  0.38467932350E+01  0.00000000000E+00 0.  1.
         13   -1    0    0    0    0 -0.00000000000E+00 -0.00000000000E+00 -0.10000000000E+04  0.10000000000E+04  0.00000000000E+00 0.  1.
    9000005    2    1    2  501    0 -0.11932755070E-01  0.35049495130E+02 -0.91201564639E+03  0.91270077677E+03  0.46584770041E+01 0.  0.
         13    1    3    3    0    0  0.18821537726E+01  0.27605450013E+02 -0.70628236271E+03  0.70682415016E+03  0.00000000000E+00 0.  1.
          3    1    3    3  501    0 -0.18940865277E+01  0.74440451167E+01 -0.20573328368E+03  0.20587662661E+03  0.00000000000E+00 0.  1.
         21    1    1    2  502  501  0.11932755070E-01 -0.35049495130E+02 -0.84137560372E+02  0.91146016460E+02  0.00000000000E+00 0.  1.
<mgrwt>
<rscale>  1 0.30000000E+03</rscale>
<asrwt>0</asrwt>
<pdfrwt beam="1">  1        1 0.13988369E-01 0.30000000E+03</pdfrwt>
<pdfrwt beam="2">0</pdfrwt>
<totfact> 0.47700237E+02</totfact>
</mgrwt>
</event>
<event>
 6    1  0.1956957E-002  0.3000000E+03  0.7818608E-02  0.1093470E+00
          1   -1    0    0  502    0  0.00000000000E+00  0.00000000000E+00  0.11875888225E+01  0.11875888225E+01  0.00000000000E+00 0.  1.
         13   -1    0    0    0    0 -0.00000000000E+00 -0.00000000000E+00 -0.10000000000E+04  0.10000000000E+04  0.00000000000E+00 0.  1.
    9000005    2    1    2  501    0 -0.31598640998E+02  0.87871395530E+01 -0.64896068227E+03  0.64980187461E+03  0.41013628662E+01 0.  0.
         13    1    3    3    0    0 -0.26432672207E+02  0.58154804973E+01 -0.54188513887E+03  0.54256060464E+03  0.00000000000E+00 0.  1.
          1    1    3    3  501    0 -0.51659687901E+01  0.29716590556E+01 -0.10707554340E+03  0.10724126997E+03  0.00000000000E+00 0.  1.
         21    1    1    2  502  501  0.31598640998E+02 -0.87871395530E+01 -0.34985172890E+03  0.35138571421E+03  0.00000000000E+00 0.  1.
<mgrwt>
<rscale>  1 0.30000000E+03</rscale>
<asrwt>0</asrwt>
<pdfrwt beam="1">  1        1 0.43185139E-02 0.30000000E+03</pdfrwt>
<pdfrwt beam="2">0</pdfrwt>
<totfact> 0.24445072E+03</totfact>
</mgrwt>
</event>
<event>
 6    1  0.1956957E-002  0.3000000E+03  0.7818608E-02  0.1093470E+00
          1   -1    0    0  502    0  0.00000000000E+00  0.00000000000E+00  0.12677771056E+01  0.12677771056E+01  0.00000000000E+00 0.  1.
         13   -1    0    0    0    0 -0.00000000000E+00 -0.00000000000E+00 -0.10000000000E+04  0.10000000000E+04  0.00000000000E+00 0.  1.
    9000005    2    1    2  501    0 -0.21381453324E+02  0.28346571275E+02 -0.52037324329E+03  0.52159287885E+03  0.31818680800E+01 0.  0.
         13    1    3    3    0    0 -0.19458292391E+02  0.26705978205E+02 -0.49132055670E+03  0.49243042539E+03  0.00000000000E+00 0.  1.
          1    1    3    3  501    0 -0.19231609333E+01  0.16405930708E+01 -0.29052686591E+02  0.29162453459E+02  0.00000000000E+00 0.  1.
         21    1    1    2  502  501  0.21381453324E+02 -0.28346571275E+02 -0.47835897960E+03  0.47967489826E+03  0.00000000000E+00 0.  1.
<mgrwt>
<rscale>  1 0.30000000E+03</rscale>
<asrwt>0</asrwt>
<pdfrwt beam="1">  1        1 0.46101083E-02 0.30000000E+03</pdfrwt>
<pdfrwt beam="2">0</pdfrwt>
<totfact> 0.22297303E+03</totfact>
</mgrwt>
</event>
<event>
 6    1  0.1956957E-002  0.3000000E+03  0.7818608E-02  0.1093470E+00
          1   -1    0    0  502    0  0.00000000000E+00  0.00000000000E+00  0.18054425281E+02  0.18054425281E+02  0.00000000000E+00 0.  1.
         13   -1    0    0    0    0 -0.00000000000E+00 -0.00000000000E+00 -0.10000000000E+04  0.10000000000E+04  0.00000000000E+00 0.  1.
    9000005    2    1    2  501    0  0.72946490414E+02 -0.52175258677E+02 -0.86995727825E+03  0.87458029302E+03  0.46448767811E+01 0.  0.
         13    1    3    3    0    0  0.13992604839E+01 -0.18921160116E+01 -0.23917000923E+02  0.24032498123E+02  0.00000000000E+00 0.  1.
          1    1    3    3  501    0  0.71547229930E+02 -0.50283142665E+02 -0.84604027733E+03  0.85054779490E+03  0.00000000000E+00 0.  1.
         21    1    1    2  502  501 -0.72946490414E+02  0.52175258677E+02 -0.11198829647E+03  0.14347413226E+03  0.00000000000E+00 0.  1.
<mgrwt>
<rscale>  1 0.30000000E+03</rscale>
<asrwt>0</asrwt>
<pdfrwt beam="1">  1        1 0.65652594E-01 0.30000000E+03</pdfrwt>
<pdfrwt beam="2">0</pdfrwt>
<totfact> 0.61484700E+01</totfact>
</mgrwt>
</event>
<event>
 6    1  0.1956957E-002  0.3000000E+03  0.7818608E-02  0.1093470E+00
          1   -1    0    0  502    0  0.00000000000E+00  0.00000000000E+00  0.15448750365E+01  0.15448750365E+01  0.00000000000E+00 0.  1.
         13   -1    0    0    0    0 -0.00000000000E+00 -0.00000000000E+00 -0.10000000000E+04  0.10000000000E+04  0.00000000000E+00 0.  1.
    9000005    2    1    2  501    0  0.26407243963E+02  0.17623788076E+02 -0.20677610761E+03  0.20922952938E+03  0.35632636336E+01 0.  0.
         13    1    3    3    0    0  0.15258421473E+02  0.10355954587E+02 -0.13137241870E+03  0.13266038450E+03  0.00000000000E+00 0.  1.
          3    1    3    3  501    0  0.11148822490E+02  0.72678334887E+01 -0.75403688909E+02  0.76569144880E+02  0.00000000000E+00 0.  1.
         21    1    1    2  502  501 -0.26407243963E+02 -0.17623788076E+02 -0.79167901736E+03  0.79231534566E+03  0.00000000000E+00 0.  1.
<mgrwt>
<rscale>  1 0.30000000E+03</rscale>
<asrwt>0</asrwt>
<pdfrwt beam="1">  1        1 0.56177393E-02 0.30000000E+03</pdfrwt>
<pdfrwt beam="2">0</pdfrwt>
<totfact> 0.16888966E+03</totfact>
</mgrwt>
</event>
<event>
 6    1  0.1956957E-002  0.3000000E+03  0.7818608E-02  0.1093470E+00
          3   -1    0    0  502    0  0.00000000000E+00  0.00000000000E+00  0.97070238393E+01  0.97070238393E+01  0.00000000000E+00 0.  1.
         13   -1    0    0    0    0 -0.00000000000E+00 -0.00000000000E+00 -0.10000000000E+04  0.10000000000E+04  0.00000000000E+00 0.  1.
    9000005    2    1    2  501    0 -0.28390169964E+02 -0.23160565792E+02 -0.96377831285E+03  0.96448047269E+03  0.33959276022E+01 0.  0.
         13    1    3    3    0    0 -0.40610003558E+01 -0.19351941593E+01 -0.11039218227E+03  0.11048380247E+03  0.00000000000E+00 0.  1.
          1    1    3    3  501    0 -0.24329169608E+02 -0.21225371633E+02 -0.85338613057E+03  0.85399667022E+03  0.00000000000E+00 0.  1.
         21    1    1    2  502  501  0.28390169964E+02  0.23160565792E+02 -0.26514663315E+02  0.45226551152E+02  0.00000000000E+00 0.  1.
<mgrwt>
<rscale>  1 0.30000000E+03</rscale>
<asrwt>0</asrwt>
<pdfrwt beam="1">  1        3 0.35298343E-01 0.30000000E+03</pdfrwt>
<pdfrwt beam="2">0</pdfrwt>
<totfact> 0.34258764E+01</totfact>
</mgrwt>
</event>
<event>
 6    1  0.1956957E-002  0.3000000E+03  0.7818608E-02  0.1093470E+00
          1   -1    0    0  502    0  0.00000000000E+00  0.00000000000E+00  0.10600241685E+01  0.10600241685E+01  0.00000000000E+00 0.  1.
         13   -1    0    0    0    0 -0.00000000000E+00 -0.00000000000E+00 -0.10000000000E+04  0.10000000000E+04  0.00000000000E+00 0.  1.
    9000005    2    1    2  501    0  0.26272651731E+02  0.15416668787E+02 -0.67299039791E+03  0.67369012137E+03  0.37918410622E+01 0.  0.
         13    1    3    3    0    0  0.11874621214E+02  0.76294640106E+01 -0.27239022994E+03  0.27275566487E+03  0.00000000000E+00 0.  1.
          1    1    3    3  501    0  0.14398030517E+02  0.77872047762E+01 -0.40060016796E+03  0.40093445651E+03  0.00000000000E+00 0.  1.
         21    1    1    2  502  501 -0.26272651731E+02 -0.15416668787E+02 -0.32594957793E+03  0.32736990279E+03  0.00000000000E+00 0.  1.
<mgrwt>
<rscale>  1 0.30000000E+03</rscale>
<asrwt>0</asrwt>
<pdfrwt beam="1">  1        1 0.38546415E-02 0.30000000E+03</pdfrwt>
<pdfrwt beam="2">0</pdfrwt>
<totfact> 0.28686174E+03</totfact>
</mgrwt>
</event>
<event>
 6    1  0.1956957E-002  0.3000000E+03  0.7818608E-02  0.1093470E+00
          3   -1    0    0  502    0  0.00000000000E+00  0.00000000000E+00  0.26473911310E+01  0.26473911310E+01  0.00000000000E+00 0.  1.
         13   -1    0    0    0    0 -0.00000000000E+00 -0.00000000000E+00 -0.10000000000E+04  0.10000000000E+04  0.00000000000E+00 0.  1.
    9000005    2    1    2  501    0 -0.74009973931E+01 -0.29872110290E+02 -0.90025750271E+03  0.90079172180E+03  0.38777745858E+01 0.  0.
         13    1    3    3    0    0 -0.28681182760E+01 -0.58663118453E+01 -0.21348116992E+03  0.21358101420E+03  0.00000000000E+00 0.  1.
          3    1    3    3  501    0 -0.45328791171E+01 -0.24005798444E+02 -0.68677633279E+03  0.68721070760E+03  0.00000000000E+00 0.  1.
         21    1    1    2  502  501  0.74009973931E+01  0.29872110290E+02 -0.97095106157E+02  0.10185566933E+03  0.00000000000E+00 0.  1.
<mgrwt>
<rscale>  1 0.30000000E+03</rscale>
<asrwt>0</asrwt>
<pdfrwt beam="1">  1        3 0.96268971E-02 0.30000000E+03</pdfrwt>
<pdfrwt beam="2">0</pdfrwt>
<totfact> 0.35151402E+02</totfact>
</mgrwt>
</event>
<event>
 6    1  0.1956957E-002  0.3000000E+03  0.7818608E-02  0.1093470E+00
          3   -1    0    0  502    0  0.00000000000E+00  0.00000000000E+00  0.43988551991E+01  0.43988551991E+01  0.00000000000E+00 0.  1.
         13   -1    0    0    0    0 -0.00000000000E+00 -0.00000000000E+00 -0.10000000000E+04  0.10000000000E+04  0.00000000000E+00 0.  1.
    9000005    2    1    2  501    0 -0.58240960875E+02  0.31610122800E+02 -0.50685632251E+03  0.51118215769E+03  0.35577076517E+01 0.  0.
         13    1    3    3    0    0 -0.77862951622E+01  0.39912914408E+01 -0.76597166826E+02  0.77095283679E+02  0.00000000000E+00 0.  1.
          3    1    3    3  501    0 -0.50454665713E+02  0.27618831359E+02 -0.43025915569E+03  0.43408687401E+03  0.00000000000E+00 0.  1.
         21    1    1    2  502  501  0.58240960875E+02 -0.31610122800E+02 -0.48874482229E+03  0.49321669751E+03  0.00000000000E+00 0.  1.
<mgrwt>
<rscale>  1 0.30000000E+03</rscale>
<asrwt>0</asrwt>
<pdfrwt beam="1">  1        3 0.15995871E-01 0.30000000E+03</pdfrwt>
<pdfrwt beam="2">0</pdfrwt>
<totfact> 0.14881508E+02</totfact>
</mgrwt>
</event>
<event>
 6    1  0.1956957E-002  0.3000000E+03  0.7818608E-02  0.1093470E+00
          1   -1    0    0  502    0  0.00000000000E+00  0.00000000000E+00  0.10398310123E+01  0.10398310123E+01  0.00000000000E+00 0.  1.
         13   -1    0    0    0    0 -0.00000000000E+00 -0.00000000000E+00 -0.10000000000E+04  0.10000000000E+04  0.00000000000E+00 0.  1.
    9000005    2    1    2  501    0  0.29228831510E+02 -0.11376473883E+02 -0.61119164249E+03  0.61200489827E+03  0.33200769450E+01 0.  0.
         13    1    3    3    0    0  0.25729066957E+02 -0.96634178597E+01 -0.55338847276E+03  0.55407054453E+03  0.00000000000E+00 0.  1.
          3    1    3    3  501    0  0.34997645528E+01 -0.17130560231E+01 -0.57803169725E+02  0.57934353739E+02  0.00000000000E+00 0.  1.
         21    1    1    2  502  501 -0.29228831510E+02  0.11376473883E+02 -0.38776852650E+03  0.38903493274E+03  0.00000000000E+00 0.  1.
<mgrwt>
<rscale>  1 0.30000000E+03</rscale>
<asrwt>0</asrwt>
<pdfrwt beam="1">  1        1 0.37812117E-02 0.30000000E+03</pdfrwt>
<pdfrwt beam="2">0</pdfrwt>
<totfact> 0.29473416E+03</totfact>
</mgrwt>
</event>
<event>
 6    1  0.1956957E-002  0.3000000E+03  0.7818608E-02  0.1093470E+00
          3   -1    0    0  502    0  0.00000000000E+00  0.00000000000E+00  0.24754412993E+01  0.24754412993E+01  0.00000000000E+00 0.  1.
         13   -1    0    0    0    0 -0.00000000000E+00 -0.00000000000E+00 -0.10000000000E+04  0.10000000000E+04  0.00000000000E+00 0.  1.
    9000005    2    1    2  501    0 -0.33071607941E+02 -0.36906479966E+02 -0.53939706124E+03  0.54167545926E+03  0.27007365516E+01 0.  0.
         13    1    3    3    0    0 -0.93023974398E+01 -0.10170952880E+02 -0.13724939271E+03  0.13793976468E+03  0.00000000000E+00 0.  1.
          3    1    3    3  501    0 -0.23769210501E+02 -0.26735527086E+02 -0.40214766853E+03  0.40373569458E+03  0.00000000000E+00 0.  1.
         21    1    1    2  502  501  0.33071607941E+02  0.36906479966E+02 -0.45812749746E+03  0.46079998204E+03  0.00000000000E+00 0.  1.
<mgrwt>
<rscale>  1 0.30000000E+03</rscale>
<asrwt>0</asrwt>
<pdfrwt beam="1">  1        3 0.90016237E-02 0.30000000E+03</pdfrwt>
<pdfrwt beam="2">0</pdfrwt>
<totfact> 0.39210019E+02</totfact>
</mgrwt>
</event>
<event>
 6    1  0.1956957E-002  0.3000000E+03  0.7818608E-02  0.1093470E+00
          1   -1    0    0  502    0  0.00000000000E+00  0.00000000000E+00  0.11664510869E+01  0.11664510869E+01  0.00000000000E+00 0.  1.
         13   -1    0    0    0    0 -0.00000000000E+00 -0.00000000000E+00 -0.10000000000E+04  0.10000000000E+04  0.00000000000E+00 0.  1.
    9000005    2    1    2  501    0  0.75755862981E+01  0.33089539869E+02 -0.54118316520E+03  0.54225885596E+03  0.36251082472E+01 0.  0.
         13    1    3    3    0    0  0.24439356720E+01  0.17856555515E+02 -0.29936521978E+03  0.29990725935E+03  0.00000000000E+00 0.  1.
          3    1    3    3  501    0  0.51316506261E+01  0.15232984354E+02 -0.24181794542E+03  0.24235159661E+03  0.00000000000E+00 0.  1.
         21    1    1    2  502  501 -0.75755862981E+01 -0.33089539869E+02 -0.45765038371E+03  0.45890759513E+03  0.00000000000E+00 0.  1.
<mgrwt>
<rscale>  1 0.30000000E+03</rscale>
<asrwt>0</asrwt>
<pdfrwt beam="1">  1        1 0.42416493E-02 0.30000000E+03</pdfrwt>
<pdfrwt beam="2">0</pdfrwt>
<totfact> 0.25071028E+03</totfact>
</mgrwt>
</event>
<event>
 6    1  0.1956957E-002  0.3000000E+03  0.7818608E-02  0.1093470E+00
          3   -1    0    0  502    0  0.00000000000E+00  0.00000000000E+00  0.10781539295E+01  0.10781539295E+01  0.00000000000E+00 0.  1.
         13   -1    0    0    0    0 -0.00000000000E+00 -0.00000000000E+00 -0.10000000000E+04  0.10000000000E+04  0.00000000000E+00 0.  1.
    9000005    2    1    2  501    0  0.16818156059E+02 -0.26749046084E+02 -0.63181896346E+03  0.63261799562E+03  0.34588952666E+01 0.  0.
         13    1    3    3    0    0  0.16235586040E+02 -0.24876213442E+02 -0.60395034918E+03  0.60468044827E+03  0.00000000000E+00 0.  1.
          1    1    3    3  501    0  0.58257001855E+00 -0.18728326418E+01 -0.27868614285E+02  0.27937547353E+02  0.00000000000E+00 0.  1.
         21    1    1    2  502  501 -0.16818156059E+02  0.26749046084E+02 -0.36710288261E+03  0.36846015831E+03  0.00000000000E+00 0.  1.
<mgrwt>
<rscale>  1 0.30000000E+03</rscale>
<asrwt>0</asrwt>
<pdfrwt beam="1">  1        3 0.39205680E-02 0.30000000E+03</pdfrwt>
<pdfrwt beam="2">0</pdfrwt>
<totfact> 0.14389293E+03</totfact>
</mgrwt>
</event>
<event>
 6    1  0.1956957E-002  0.3000000E+03  0.7818608E-02  0.1093470E+00
          1   -1    0    0  502    0  0.00000000000E+00  0.00000000000E+00  0.31491199387E+01  0.31491199387E+01  0.00000000000E+00 0.  1.
         13   -1    0    0    0    0 -0.00000000000E+00 -0.00000000000E+00 -0.10000000000E+04  0.10000000000E+04  0.00000000000E+00 0.  1.
    9000005    2    1    2  501    0 -0.17426258285E+02  0.48411655214E+02 -0.69129798444E+03  0.69329442034E+03  0.10811436119E+02 0.  0.
         13    1    3    3    0    0 -0.16389316005E+02  0.34733628651E+02 -0.46648777233E+03  0.46806610257E+03  0.00000000000E+00 0.  1.
          3    1    3    3  501    0 -0.10369422802E+01  0.13678026563E+02 -0.22481021211E+03  0.22522831777E+03  0.00000000000E+00 0.  1.
         21    1    1    2  502  501  0.17426258285E+02 -0.48411655214E+02 -0.30555289563E+03  0.30985469960E+03  0.00000000000E+00 0.  1.
<mgrwt>
<rscale>  1 0.30000000E+03</rscale>
<asrwt>0</asrwt>
<pdfrwt beam="1">  1        1 0.11451369E-01 0.30000000E+03</pdfrwt>
<pdfrwt beam="2">0</pdfrwt>
<totfact> 0.62716229E+02</totfact>
</mgrwt>
</event>
<event>
 6    1  0.1956957E-002  0.3000000E+03  0.7818608E-02  0.1093470E+00
          1   -1    0    0  502    0  0.00000000000E+00  0.00000000000E+00  0.55523532678E+02  0.55523532678E+02  0.00000000000E+00 0.  1.
         13   -1    0    0    0    0 -0.00000000000E+00 -0.00000000000E+00 -0.10000000000E+04  0.10000000000E+04  0.00000000000E+00 0.  1.
    9000005    2    1    2  501    0  0.12684683639E+03  0.17939649621E+02 -0.91517704352E+03  0.92410661153E+03  0.34723978733E+01 0.  0.
         13    1    3    3    0    0  0.58230333400E+02  0.64911224123E+01 -0.41770253220E+03  0.42179178726E+03  0.00000000000E+00 0.  1.
          3    1    3    3  501    0  0.68616502988E+02  0.11448527208E+02 -0.49747451132E+03  0.50231482426E+03  0.00000000000E+00 0.  1.
         21    1    1    2  502  501 -0.12684683639E+03 -0.17939649621E+02 -0.29299423802E+02  0.13141692115E+03  0.00000000000E+00 0.  1.
<mgrwt>
<rscale>  1 0.30000000E+03</rscale>
<asrwt>0</asrwt>
<pdfrwt beam="1">  1        1 0.20190418E+00 0.30000000E+03</pdfrwt>
<pdfrwt beam="2">0</pdfrwt>
<totfact> 0.10032244E+01</totfact>
</mgrwt>
</event>
<event>
 6    1  0.1956957E-002  0.3000000E+03  0.7818608E-02  0.1093470E+00
          1   -1    0    0  502    0  0.00000000000E+00  0.00000000000E+00  0.72276514289E+01  0.72276514289E+01  0.00000000000E+00 0.  1.
         13   -1    0    0    0    0 -0.00000000000E+00 -0.00000000000E+00 -0.10000000000E+04  0.10000000000E+04  0.00000000000E+00 0.  1.
    9000005    2    1    2  501    0 -0.43182686050E+02  0.72554336870E+02 -0.54183484633E+03  0.54845373423E+03  0.93606475261E+01 0.  0.
         13    1    3    3    0    0 -0.30134178693E+01  0.76413342508E+01 -0.70554407255E+02  0.71030944379E+02  0.00000000000E+00 0.  1.
          3    1    3    3  501    0 -0.40169268181E+02  0.64913002619E+02 -0.47128043908E+03  0.47742278985E+03  0.00000000000E+00 0.  1.
         21    1    1    2  502  501  0.43182686050E+02 -0.72554336870E+02 -0.45093750224E+03  0.45877391720E+03  0.00000000000E+00 0.  1.
<mgrwt>
<rscale>  1 0.30000000E+03</rscale>
<asrwt>0</asrwt>
<pdfrwt beam="1">  1        1 0.26282424E-01 0.30000000E+03</pdfrwt>
<pdfrwt beam="2">0</pdfrwt>
<totfact> 0.20493795E+02</totfact>
</mgrwt>
</event>
<event>
 6    1  0.1956957E-002  0.3000000E+03  0.7818608E-02  0.1093470E+00
          1   -1    0    0  502    0  0.00000000000E+00  0.00000000000E+00  0.93803077141E+00  0.93803077141E+00  0.00000000000E+00 0.  1.
         13   -1    0    0    0    0 -0.00000000000E+00 -0.00000000000E+00 -0.10000000000E+04  0.10000000000E+04  0.00000000000E+00 0.  1.
    9000005    2    1    2  501    0 -0.19735530271E+02 -0.23023772525E+02 -0.56892982722E+03  0.56973825707E+03  0.97365571159E+00 0.  0.
         13    1    3    3    0    0 -0.69704056831E+01 -0.80972245386E+01 -0.19181081379E+03  0.19210814634E+03  0.00000000000E+00 0.  1.
          1    1    3    3  501    0 -0.12765124588E+02 -0.14926547987E+02 -0.37711901343E+03  0.37763011073E+03  0.00000000000E+00 0.  1.
         21    1    1    2  502  501  0.19735530271E+02  0.23023772525E+02 -0.43013214200E+03  0.43119977370E+03  0.00000000000E+00 0.  1.
<mgrwt>
<rscale>  1 0.30000000E+03</rscale>
<asrwt>0</asrwt>
<pdfrwt beam="1">  1        1 0.34110282E-02 0.30000000E+03</pdfrwt>
<pdfrwt beam="2">0</pdfrwt>
<totfact> 0.34070446E+03</totfact>
</mgrwt>
</event>
<event>
 6    1  0.1956957E-002  0.3000000E+03  0.7818608E-02  0.1093470E+00
          1   -1    0    0  502    0  0.00000000000E+00  0.00000000000E+00  0.12107464584E+02  0.12107464584E+02  0.00000000000E+00 0.  1.
         13   -1    0    0    0    0 -0.00000000000E+00 -0.00000000000E+00 -0.10000000000E+04  0.10000000000E+04  0.00000000000E+00 0.  1.
    9000005    2    1    2  501    0  0.38143542614E+02  0.46258861946E+02 -0.91825093696E+03  0.92021206542E+03  0.32634293571E+01 0.  0.
         13    1    3    3    0    0  0.29016706926E+02  0.35252812422E+02 -0.67724966429E+03  0.67878703424E+03  0.00000000000E+00 0.  1.
          1    1    3    3  501    0  0.91268356876E+01  0.11006049523E+02 -0.24100127267E+03  0.24142503118E+03  0.00000000000E+00 0.  1.
         21    1    1    2  502  501 -0.38143542614E+02 -0.46258861946E+02 -0.69641598458E+02  0.91895399164E+02  0.00000000000E+00 0.  1.
<mgrwt>
<rscale>  1 0.30000000E+03</rscale>
<asrwt>0</asrwt>
<pdfrwt beam="1">  1        1 0.44027237E-01 0.30000000E+03</pdfrwt>
<pdfrwt beam="2">0</pdfrwt>
<totfact> 0.10426030E+02</totfact>
</mgrwt>
</event>
<event>
 6    1  0.1956957E-002  0.3000000E+03  0.7818608E-02  0.1093470E+00
          1   -1    0    0  502    0  0.00000000000E+00  0.00000000000E+00  0.50495947698E+01  0.50495947698E+01  0.00000000000E+00 0.  1.
         13   -1    0    0    0    0 -0.00000000000E+00 -0.00000000000E+00 -0.10000000000E+04  0.10000000000E+04  0.00000000000E+00 0.  1.
    9000005    2    1    2  501    0 -0.36415498343E+02  0.17798491024E+01 -0.92877397627E+03  0.92949447494E+03  0.31021875935E+01 0.  0.
         13    1    3    3    0    0 -0.47984162402E+01  0.80009786448E+00 -0.10286758772E+03  0.10298254977E+03  0.00000000000E+00 0.  1.
          1    1    3    3  501    0 -0.31617082103E+02  0.97975123789E+00 -0.82590638855E+03  0.82651192517E+03  0.00000000000E+00 0.  1.
         21    1    1    2  502  501  0.36415498343E+02 -0.17798491024E+01 -0.66176428962E+02  0.75555119830E+02  0.00000000000E+00 0.  1.
<mgrwt>
<rscale>  1 0.30000000E+03</rscale>
<asrwt>0</asrwt>
<pdfrwt beam="1">  1        1 0.18362202E-01 0.30000000E+03</pdfrwt>
<pdfrwt beam="2">0</pdfrwt>
<totfact> 0.33013029E+02</totfact>
</mgrwt>
</event>
<event>
 6    1  0.1956957E-002  0.3000000E+03  0.7818608E-02  0.1093470E+00
          1   -1    0    0  502    0  0.00000000000E+00  0.00000000000E+00  0.28046139916E+01  0.28046139916E+01  0.00000000000E+00 0.  1.
         13   -1    0    0    0    0 -0.00000000000E+00 -0.00000000000E+00 -0.10000000000E+04  0.10000000000E+04  0.00000000000E+00 0.  1.
    9000005    2    1    2  501    0 -0.13894115741E+02 -0.38142753226E+02 -0.82030829302E+03  0.82131918829E+03  0.34054928614E+01 0.  0.
         13    1    3    3    0    0 -0.66140653015E+01 -0.13404273290E+02 -0.30535334753E+03  0.30571896777E+03  0.00000000000E+00 0.  1.
          1    1    3    3  501    0 -0.72800504397E+01 -0.24738479936E+02 -0.51495494549E+03  0.51560022052E+03  0.00000000000E+00 0.  1.
         21    1    1    2  502  501  0.13894115741E+02  0.38142753226E+02 -0.17688709299E+03  0.18148542570E+03  0.00000000000E+00 0.  1.
<mgrwt>
<rscale>  1 0.30000000E+03</rscale>
<asrwt>0</asrwt>
<pdfrwt beam="1">  1        1 0.10198618E-01 0.30000000E+03</pdfrwt>
<pdfrwt beam="2">0</pdfrwt>
<totfact> 0.73550561E+02</totfact>
</mgrwt>
</event>
<event>
 6    1  0.1956957E-002  0.3000000E+03  0.7818608E-02  0.1093470E+00
          3   -1    0    0  502    0  0.00000000000E+00  0.00000000000E+00  0.38440727093E+01  0.38440727093E+01  0.00000000000E+00 0.  1.
         13   -1    0    0    0    0 -0.00000000000E+00 -0.00000000000E+00 -0.10000000000E+04  0.10000000000E+04  0.00000000000E+00 0.  1.
    9000005    2    1    2  501    0 -0.41544954868E+02 -0.43078552246E+02 -0.62827038839E+03  0.63112230695E+03  0.31528500419E+01 0.  0.
         13    1    3    3    0    0 -0.32423541431E+02 -0.33772981423E+02 -0.50465811793E+03  0.50682513385E+03  0.00000000000E+00 0.  1.
          3    1    3    3  501    0 -0.91214134369E+01 -0.93055708223E+01 -0.12361227046E+03  0.12429717309E+03  0.00000000000E+00 0.  1.
         21    1    1    2  502  501  0.41544954868E+02  0.43078552246E+02 -0.36788553890E+03  0.37272176576E+03  0.00000000000E+00 0.  1.
<mgrwt>
<rscale>  1 0.30000000E+03</rscale>
<asrwt>0</asrwt>
<pdfrwt beam="1">  1        3 0.13978476E-01 0.30000000E+03</pdfrwt>
<pdfrwt beam="2">0</pdfrwt>
<totfact> 0.18795912E+02</totfact>
</mgrwt>
</event>
<event>
 6    1  0.1956957E-002  0.3000000E+03  0.7818608E-02  0.1093470E+00
          1   -1    0    0  502    0  0.00000000000E+00  0.00000000000E+00  0.30021257138E+02  0.30021257138E+02  0.00000000000E+00 0.  1.
         13   -1    0    0    0    0 -0.00000000000E+00 -0.00000000000E+00 -0.10000000000E+04  0.10000000000E+04  0.00000000000E+00 0.  1.
    9000005    2    1    2  501    0  0.16039960162E+03  0.95360246439E+01 -0.29246834464E+03  0.33371722321E+03  0.32379755306E+01 0.  0.
         13    1    3    3    0    0  0.44567874772E+02  0.32272687077E+01 -0.84117057688E+02  0.95249095109E+02  0.00000000000E+00 0.  1.
          1    1    3    3  501    0  0.11583172685E+03  0.63087559362E+01 -0.20835128695E+03  0.23846812810E+03  0.00000000000E+00 0.  1.
         21    1    1    2  502  501 -0.16039960162E+03 -0.95360246439E+01 -0.67751039822E+03  0.69630403393E+03  0.00000000000E+00 0.  1.
<mgrwt>
<rscale>  1 0.30000000E+03</rscale>
<asrwt>0</asrwt>
<pdfrwt beam="1">  1        1 0.10916844E+00 0.30000000E+03</pdfrwt>
<pdfrwt beam="2">0</pdfrwt>
<totfact> 0.30051474E+01</totfact>
</mgrwt>
</event>
<event>
 6    1  0.1956957E-002  0.3000000E+03  0.7818608E-02  0.1093470E+00
          1   -1    0    0  502    0  0.00000000000E+00  0.00000000000E+00  0.39161730637E+01  0.39161730637E+01  0.00000000000E+00 0.  1.
         13   -1    0    0    0    0 -0.00000000000E+00 -0.00000000000E+00 -0.10000000000E+04  0.10000000000E+04  0.00000000000E+00 0.  1.
    9000005    2    1    2  501    0 -0.30575888552E+02  0.53423383017E+02 -0.58702364943E+03  0.59025064194E+03  0.31800178368E+01 0.  0.
         13    1    3    3    0    0 -0.25903026502E+02  0.47363996165E+02 -0.51369290849E+03  0.51652175090E+03  0.00000000000E+00 0.  1.
          3    1    3    3  501    0 -0.46728620491E+01  0.60593868521E+01 -0.73330740932E+02  0.73728891043E+02  0.00000000000E+00 0.  1.
         21    1    1    2  502  501  0.30575888552E+02 -0.53423383017E+02 -0.40906017751E+03  0.41366553112E+03  0.00000000000E+00 0.  1.
<mgrwt>
<rscale>  1 0.30000000E+03</rscale>
<asrwt>0</asrwt>
<pdfrwt beam="1">  1        1 0.14240659E-01 0.30000000E+03</pdfrwt>
<pdfrwt beam="2">0</pdfrwt>
<totfact> 0.46553765E+02</totfact>
</mgrwt>
</event>
<event>
 6    1  0.1956957E-002  0.3000000E+03  0.7818608E-02  0.1093470E+00
          1   -1    0    0  502    0  0.00000000000E+00  0.00000000000E+00  0.17271794674E+01  0.17271794674E+01  0.00000000000E+00 0.  1.
         13   -1    0    0    0    0 -0.00000000000E+00 -0.00000000000E+00 -0.10000000000E+04  0.10000000000E+04  0.00000000000E+00 0.  1.
    9000005    2    1    2  501    0  0.31882300517E+02 -0.26445835992E+02 -0.52901042293E+03  0.53064007380E+03  0.33161755645E+01 0.  0.
         13    1    3    3    0    0  0.14686260057E+02 -0.14058863010E+02 -0.26940518859E+03  0.27017122997E+03  0.00000000000E+00 0.  1.
          1    1    3    3  501    0  0.17196040460E+02 -0.12386972982E+02 -0.25960523434E+03  0.26046884383E+03  0.00000000000E+00 0.  1.
         21    1    1    2  502  501 -0.31882300517E+02  0.26445835992E+02 -0.46926239760E+03  0.47108710567E+03  0.00000000000E+00 0.  1.
<mgrwt>
<rscale>  1 0.30000000E+03</rscale>
<asrwt>0</asrwt>
<pdfrwt beam="1">  1        1 0.62806659E-02 0.30000000E+03</pdfrwt>
<pdfrwt beam="2">0</pdfrwt>
<totfact> 0.14442298E+03</totfact>
</mgrwt>
</event>
<event>
 6    1  0.1956957E-002  0.3000000E+03  0.7818608E-02  0.1093470E+00
          1   -1    0    0  502    0  0.00000000000E+00  0.00000000000E+00  0.27522020474E+01  0.27522020474E+01  0.00000000000E+00 0.  1.
         13   -1    0    0    0    0 -0.00000000000E+00 -0.00000000000E+00 -0.10000000000E+04  0.10000000000E+04  0.00000000000E+00 0.  1.
    9000005    2    1    2  501    0  0.20548795370E+01  0.43616101565E+02 -0.77625874333E+03  0.77749068934E+03  0.27474649169E+01 0.  0.
         13    1    3    3    0    0  0.45221124889E+00  0.26054626738E+02 -0.48237087937E+03  0.48307423170E+03  0.00000000000E+00 0.  1.
          3    1    3    3  501    0  0.16026682882E+01  0.17561474827E+02 -0.29388786396E+03  0.29441645764E+03  0.00000000000E+00 0.  1.
         21    1    1    2  502  501 -0.20548795370E+01 -0.43616101565E+02 -0.22098905462E+03  0.22526151271E+03  0.00000000000E+00 0.  1.
<mgrwt>
<rscale>  1 0.30000000E+03</rscale>
<asrwt>0</asrwt>
<pdfrwt beam="1">  1        1 0.10008029E-01 0.30000000E+03</pdfrwt>
<pdfrwt beam="2">0</pdfrwt>
<totfact> 0.75489973E+02</totfact>
</mgrwt>
</event>
<event>
 6    1  0.1956957E-002  0.3000000E+03  0.7818608E-02  0.1093470E+00
          3   -1    0    0  502    0  0.00000000000E+00  0.00000000000E+00  0.14074754710E+01  0.14074754710E+01  0.00000000000E+00 0.  1.
         13   -1    0    0    0    0 -0.00000000000E+00 -0.00000000000E+00 -0.10000000000E+04  0.10000000000E+04  0.00000000000E+00 0.  1.
    9000005    2    1    2  501    0  0.19004834792E+02 -0.30239224882E+02 -0.64739450974E+03  0.64839807042E+03  0.49811653295E+01 0.  0.
         13    1    3    3    0    0  0.15979204044E+01 -0.14926649103E+01 -0.63145180267E+02  0.63183029281E+02  0.00000000000E+00 0.  1.
          1    1    3    3  501    0  0.17406914387E+02 -0.28746559972E+02 -0.58424932947E+03  0.58521504113E+03  0.00000000000E+00 0.  1.
         21    1    1    2  502  501 -0.19004834792E+02  0.30239224882E+02 -0.35119801479E+03  0.35300940506E+03  0.00000000000E+00 0.  1.
<mgrwt>
<rscale>  1 0.30000000E+03</rscale>
<asrwt>0</asrwt>
<pdfrwt beam="1">  1        3 0.51181034E-02 0.30000000E+03</pdfrwt>
<pdfrwt beam="2">0</pdfrwt>
<totfact> 0.95436208E+02</totfact>
</mgrwt>
</event>
<event>
 6    1  0.1956957E-002  0.3000000E+03  0.7818608E-02  0.1093470E+00
          1   -1    0    0  502    0  0.00000000000E+00  0.00000000000E+00  0.43314776603E+01  0.43314776603E+01  0.00000000000E+00 0.  1.
         13   -1    0    0    0    0 -0.00000000000E+00 -0.00000000000E+00 -0.10000000000E+04  0.10000000000E+04  0.00000000000E+00 0.  1.
    9000005    2    1    2  501    0  0.44529267114E+02 -0.59945039551E+01 -0.86463911822E+03  0.86581254592E+03  0.34307730343E+01 0.  0.
         13    1    3    3    0    0  0.34586146853E+02 -0.58189919239E+01 -0.68917619124E+03  0.69006802910E+03  0.00000000000E+00 0.  1.
          3    1    3    3  501    0  0.99431202607E+01 -0.17551203125E+00 -0.17546292698E+03  0.17574451681E+03  0.00000000000E+00 0.  1.
         21    1    1    2  502  501 -0.44529267114E+02  0.59945039551E+01 -0.13102940412E+03  0.13851893174E+03  0.00000000000E+00 0.  1.
<mgrwt>
<rscale>  1 0.30000000E+03</rscale>
<asrwt>0</asrwt>
<pdfrwt beam="1">  1        1 0.15750861E-01 0.30000000E+03</pdfrwt>
<pdfrwt beam="2">0</pdfrwt>
<totfact> 0.40599959E+02</totfact>
</mgrwt>
</event>
<event>
 6    1  0.1956957E-002  0.3000000E+03  0.7818608E-02  0.1093470E+00
          1   -1    0    0  502    0  0.00000000000E+00  0.00000000000E+00  0.21595386235E+01  0.21595386235E+01  0.00000000000E+00 0.  1.
         13   -1    0    0    0    0 -0.00000000000E+00 -0.00000000000E+00 -0.10000000000E+04  0.10000000000E+04  0.00000000000E+00 0.  1.
    9000005    2    1    2  501    0  0.33800125426E+02 -0.22320235080E+02 -0.74389603580E+03  0.74500508571E+03  0.32594905979E+01 0.  0.
         13    1    3    3    0    0  0.24138857465E+02 -0.17107467389E+02 -0.52232407014E+03  0.52316133662E+03  0.00000000000E+00 0.  1.
          1    1    3    3  501    0  0.96612679605E+01 -0.52127676911E+01 -0.22157196566E+03  0.22184374909E+03  0.00000000000E+00 0.  1.
         21    1    1    2  502  501 -0.33800125426E+02  0.22320235080E+02 -0.25394442558E+03  0.25715445292E+03  0.00000000000E+00 0.  1.
<mgrwt>
<rscale>  1 0.30000000E+03</rscale>
<asrwt>0</asrwt>
<pdfrwt beam="1">  1        1 0.78528843E-02 0.30000000E+03</pdfrwt>
<pdfrwt beam="2">0</pdfrwt>
<totfact> 0.10568120E+03</totfact>
</mgrwt>
</event>
<event>
 6    1  0.1956957E-002  0.3000000E+03  0.7818608E-02  0.1093470E+00
          1   -1    0    0  502    0  0.00000000000E+00  0.00000000000E+00  0.16610311654E+01  0.16610311654E+01  0.00000000000E+00 0.  1.
         13   -1    0    0    0    0 -0.00000000000E+00 -0.00000000000E+00 -0.10000000000E+04  0.10000000000E+04  0.00000000000E+00 0.  1.
    9000005    2    1    2  501    0  0.22802457609E+02 -0.19510319017E+02 -0.83757309276E+03  0.83811815749E+03  0.35714943333E+01 0.  0.
         13    1    3    3    0    0  0.13435796414E+02 -0.91859811994E+01 -0.44288038389E+03  0.44317935117E+03  0.00000000000E+00 0.  1.
          3    1    3    3  501    0  0.93666611946E+01 -0.10324337817E+02 -0.39469270888E+03  0.39493880632E+03  0.00000000000E+00 0.  1.
         21    1    1    2  502  501 -0.22802457609E+02  0.19510319017E+02 -0.16076587607E+03  0.16354287368E+03  0.00000000000E+00 0.  1.
<mgrwt>
<rscale>  1 0.30000000E+03</rscale>
<asrwt>0</asrwt>
<pdfrwt beam="1">  1        1 0.60401261E-02 0.30000000E+03</pdfrwt>
<pdfrwt beam="2">0</pdfrwt>
<totfact> 0.15255149E+03</totfact>
</mgrwt>
</event>
<event>
 6    1  0.1956957E-002  0.3000000E+03  0.7818608E-02  0.1093470E+00
          3   -1    0    0  502    0  0.00000000000E+00  0.00000000000E+00  0.14578459872E+01  0.14578459872E+01  0.00000000000E+00 0.  1.
         13   -1    0    0    0    0 -0.00000000000E+00 -0.00000000000E+00 -0.10000000000E+04  0.10000000000E+04  0.00000000000E+00 0.  1.
    9000005    2    1    2  501    0 -0.74765506814E+00  0.36461692815E+02 -0.64551415254E+03  0.64655112041E+03  0.31330739247E+01 0.  0.
         13    1    3    3    0    0 -0.18480066388E+01  0.14937654321E+02 -0.26569092290E+03  0.26611692009E+03  0.00000000000E+00 0.  1.
          3    1    3    3  501    0  0.11003515707E+01  0.21524038494E+02 -0.37982322964E+03  0.38043420033E+03  0.00000000000E+00 0.  1.
         21    1    1    2  502  501  0.74765506814E+00 -0.36461692815E+02 -0.35302800148E+03  0.35490672557E+03  0.00000000000E+00 0.  1.
<mgrwt>
<rscale>  1 0.30000000E+03</rscale>
<asrwt>0</asrwt>
<pdfrwt beam="1">  1        3 0.53012693E-02 0.30000000E+03</pdfrwt>
<pdfrwt beam="2">0</pdfrwt>
<totfact> 0.90387620E+02</totfact>
</mgrwt>
</event>
<event>
 6    1  0.1956957E-002  0.3000000E+03  0.7818608E-02  0.1093470E+00
          1   -1    0    0  502    0  0.00000000000E+00  0.00000000000E+00  0.11404046222E+02  0.11404046222E+02  0.00000000000E+00 0.  1.
         13   -1    0    0    0    0 -0.00000000000E+00 -0.00000000000E+00 -0.10000000000E+04  0.10000000000E+04  0.00000000000E+00 0.  1.
    9000005    2    1    2  501    0  0.38572939728E+02 -0.40573538154E+02 -0.92491675405E+03  0.92661534323E+03  0.33028327176E+01 0.  0.
         13    1    3    3    0    0  0.20176042730E+02 -0.21349341078E+02 -0.45801376582E+03  0.45895476546E+03  0.00000000000E+00 0.  1.
          1    1    3    3  501    0  0.18396896997E+02 -0.19224197076E+02 -0.46690298823E+03  0.46766057776E+03  0.00000000000E+00 0.  1.
         21    1    1    2  502  501 -0.38572939728E+02  0.40573538154E+02 -0.63679199728E+02  0.84788702995E+02  0.00000000000E+00 0.  1.
<mgrwt>
<rscale>  1 0.30000000E+03</rscale>
<asrwt>0</asrwt>
<pdfrwt beam="1">  1        1 0.41469346E-01 0.30000000E+03</pdfrwt>
<pdfrwt beam="2">0</pdfrwt>
<totfact> 0.11275959E+02</totfact>
</mgrwt>
</event>
<event>
 6    1  0.1956957E-002  0.3000000E+03  0.7818608E-02  0.1093470E+00
          1   -1    0    0  502    0  0.00000000000E+00  0.00000000000E+00  0.31262987628E+01  0.31262987628E+01  0.00000000000E+00 0.  1.
         13   -1    0    0    0    0 -0.00000000000E+00 -0.00000000000E+00 -0.10000000000E+04  0.10000000000E+04  0.00000000000E+00 0.  1.
    9000005    2    1    2  501    0 -0.10614504903E+02 -0.50728319259E+02 -0.68572615581E+03  0.68769195517E+03  0.37194571539E+01 0.  0.
         13    1    3    3    0    0  0.20411221529E+00 -0.22525805299E+00 -0.32177763186E+01  0.32321026320E+01  0.00000000000E+00 0.  1.
          1    1    3    3  501    0 -0.10818617118E+02 -0.50503061206E+02 -0.68250837949E+03  0.68445985254E+03  0.00000000000E+00 0.  1.
         21    1    1    2  502  501  0.10614504903E+02  0.50728319259E+02 -0.31114754543E+03  0.31543434359E+03  0.00000000000E+00 0.  1.
<mgrwt>
<rscale>  1 0.30000000E+03</rscale>
<asrwt>0</asrwt>
<pdfrwt beam="1">  1        1 0.11368383E-01 0.30000000E+03</pdfrwt>
<pdfrwt beam="2">0</pdfrwt>
<totfact> 0.63345465E+02</totfact>
</mgrwt>
</event>
<event>
 6    1  0.1956957E-002  0.3000000E+03  0.7818608E-02  0.1093470E+00
          1   -1    0    0  502    0  0.00000000000E+00  0.00000000000E+00  0.10105850796E+02  0.10105850796E+02  0.00000000000E+00 0.  1.
         13   -1    0    0    0    0 -0.00000000000E+00 -0.00000000000E+00 -0.10000000000E+04  0.10000000000E+04  0.00000000000E+00 0.  1.
    9000005    2    1    2  501    0 -0.17027845891E+01  0.79563670980E+02 -0.80271612564E+03  0.80671241501E+03  0.99229509772E+01 0.  0.
         13    1    3    3    0    0 -0.74703692062E+00  0.36866415705E+02 -0.32261241352E+03  0.32471288860E+03  0.00000000000E+00 0.  1.
          3    1    3    3  501    0 -0.95574766851E+00  0.42697255275E+02 -0.48010371212E+03  0.48199952641E+03  0.00000000000E+00 0.  1.
         21    1    1    2  502  501  0.17027845891E+01 -0.79563670980E+02 -0.18717802356E+03  0.20339343578E+03  0.00000000000E+00 0.  1.
<mgrwt>
<rscale>  1 0.30000000E+03</rscale>
<asrwt>0</asrwt>
<pdfrwt beam="1">  1        1 0.36748626E-01 0.30000000E+03</pdfrwt>
<pdfrwt beam="2">0</pdfrwt>
<totfact> 0.13204117E+02</totfact>
</mgrwt>
</event>
<event>
 6    1  0.1956957E-002  0.3000000E+03  0.7818608E-02  0.1093470E+00
          1   -1    0    0  502    0  0.00000000000E+00  0.00000000000E+00  0.12321034785E+01  0.12321034785E+01  0.00000000000E+00 0.  1.
         13   -1    0    0    0    0 -0.00000000000E+00 -0.00000000000E+00 -0.10000000000E+04  0.10000000000E+04  0.00000000000E+00 0.  1.
    9000005    2    1    2  501    0  0.27814868367E+02  0.16391774298E+02 -0.69407525314E+03  0.69483372865E+03  0.33311080564E+01 0.  0.
         13    1    3    3    0    0  0.73678296247E+01  0.42181010439E+01 -0.15287483065E+03  0.15311038872E+03  0.00000000000E+00 0.  1.
          1    1    3    3  501    0  0.20447038742E+02  0.12173673254E+02 -0.54120042250E+03  0.54172333993E+03  0.00000000000E+00 0.  1.
         21    1    1    2  502  501 -0.27814868367E+02 -0.16391774298E+02 -0.30469264338E+03  0.30639837482E+03  0.00000000000E+00 0.  1.
<mgrwt>
<rscale>  1 0.30000000E+03</rscale>
<asrwt>0</asrwt>
<pdfrwt beam="1">  1        1 0.44803857E-02 0.30000000E+03</pdfrwt>
<pdfrwt beam="2">0</pdfrwt>
<totfact> 0.23211099E+03</totfact>
</mgrwt>
</event>
<event>
 6    1  0.1956957E-002  0.3000000E+03  0.7818608E-02  0.1093470E+00
          1   -1    0    0  502    0  0.00000000000E+00  0.00000000000E+00  0.23477616634E+01  0.23477616634E+01  0.00000000000E+00 0.  1.
         13   -1    0    0    0    0 -0.00000000000E+00 -0.00000000000E+00 -0.10000000000E+04  0.10000000000E+04  0.00000000000E+00 0.  1.
    9000005    2    1    2  501    0 -0.47225060050E+02  0.97733928771E+01 -0.54013132098E+03  0.54229220488E+03  0.36422615069E+01 0.  0.
         13    1    3    3    0    0 -0.20601463523E+02  0.35030748773E+01 -0.25254026419E+03  0.25340338765E+03  0.00000000000E+00 0.  1.
          1    1    3    3  501    0 -0.26623596527E+02  0.62703179998E+01 -0.28759105679E+03  0.28888881724E+03  0.00000000000E+00 0.  1.
         21    1    1    2  502  501  0.47225060050E+02 -0.97733928771E+01 -0.45752091736E+03  0.46005555678E+03  0.00000000000E+00 0.  1.
<mgrwt>
<rscale>  1 0.30000000E+03</rscale>
<asrwt>0</asrwt>
<pdfrwt beam="1">  1        1 0.85373331E-02 0.30000000E+03</pdfrwt>
<pdfrwt beam="2">0</pdfrwt>
<totfact> 0.94082253E+02</totfact>
</mgrwt>
</event>
<event>
 6    1  0.1956957E-002  0.3000000E+03  0.7818608E-02  0.1093470E+00
          1   -1    0    0  502    0  0.00000000000E+00  0.00000000000E+00  0.24495790974E+02  0.24495790974E+02  0.00000000000E+00 0.  1.
         13   -1    0    0    0    0 -0.00000000000E+00 -0.00000000000E+00 -0.10000000000E+04  0.10000000000E+04  0.00000000000E+00 0.  1.
    9000005    2    1    2  501    0  0.43300535187E+01  0.49096613429E+02 -0.97393040286E+03  0.97518348339E+03  0.36290280732E+01 0.  0.
         13    1    3    3    0    0  0.31703243566E+01  0.17386854923E+02 -0.33655732894E+03  0.33702105178E+03  0.00000000000E+00 0.  1.
          3    1    3    3  501    0  0.11597291621E+01  0.31709758506E+02 -0.63737307392E+03  0.63816243161E+03  0.00000000000E+00 0.  1.
         21    1    1    2  502  501 -0.43300535187E+01 -0.49096613429E+02 -0.15738061672E+01  0.49312307586E+02  0.00000000000E+00 0.  1.
<mgrwt>
<rscale>  1 0.30000000E+03</rscale>
<asrwt>0</asrwt>
<pdfrwt beam="1">  1        1 0.89075791E-01 0.30000000E+03</pdfrwt>
<pdfrwt beam="2">0</pdfrwt>
<totfact> 0.40418217E+01</totfact>
</mgrwt>
</event>
<event>
 6    1  0.1956957E-002  0.3000000E+03  0.7818608E-02  0.1093470E+00
          1   -1    0    0  502    0  0.00000000000E+00  0.00000000000E+00  0.23086441021E+02  0.23086441021E+02  0.00000000000E+00 0.  1.
         13   -1    0    0    0    0 -0.00000000000E+00 -0.00000000000E+00 -0.10000000000E+04  0.10000000000E+04  0.00000000000E+00 0.  1.
    9000005    2    1    2  501    0 -0.71388126906E+02  0.19558543212E+02 -0.93518390723E+03  0.93811488630E+03  0.34348647575E+01 0.  0.
         13    1    3    3    0    0 -0.21094802346E+02  0.47474191531E+01 -0.28855241877E+03  0.28936141251E+03  0.00000000000E+00 0.  1.
          1    1    3    3  501    0 -0.50293324560E+02  0.14811124059E+02 -0.64663148846E+03  0.64875347379E+03  0.00000000000E+00 0.  1.
         21    1    1    2  502  501  0.71388126906E+02 -0.19558543212E+02 -0.41729651754E+02  0.84971554718E+02  0.00000000000E+00 0.  1.
<mgrwt>
<rscale>  1 0.30000000E+03</rscale>
<asrwt>0</asrwt>
<pdfrwt beam="1">  1        1 0.83950872E-01 0.30000000E+03</pdfrwt>
<pdfrwt beam="2">0</pdfrwt>
<totfact> 0.43924681E+01</totfact>
</mgrwt>
</event>
<event>
 6    1  0.1956957E-002  0.3000000E+03  0.7818608E-02  0.1093470E+00
          1   -1    0    0  502    0  0.00000000000E+00  0.00000000000E+00  0.19129548061E+01  0.19129548061E+01  0.00000000000E+00 0.  1.
         13   -1    0    0    0    0 -0.00000000000E+00 -0.00000000000E+00 -0.10000000000E+04  0.10000000000E+04  0.00000000000E+00 0.  1.
    9000005    2    1    2  501    0 -0.37194403409E+02  0.18867500569E+02 -0.35102239264E+03  0.35350562079E+03  0.31776676964E+01 0.  0.
         13    1    3    3    0    0 -0.13101459354E+02  0.65114488006E+01 -0.13621506977E+03  0.13699851253E+03  0.00000000000E+00 0.  1.
          1    1    3    3  501    0 -0.24092944055E+02  0.12356051768E+02 -0.21480732287E+03  0.21650710826E+03  0.00000000000E+00 0.  1.
         21    1    1    2  502  501  0.37194403409E+02 -0.18867500569E+02 -0.64706465255E+03  0.64840733402E+03  0.00000000000E+00 0.  1.
<mgrwt>
<rscale>  1 0.30000000E+03</rscale>
<asrwt>0</asrwt>
<pdfrwt beam="1">  1        1 0.69562140E-02 0.30000000E+03</pdfrwt>
<pdfrwt beam="2">0</pdfrwt>
<totfact> 0.12517472E+03</totfact>
</mgrwt>
</event>
<event>
 6    1  0.1956957E-002  0.3000000E+03  0.7818608E-02  0.1093470E+00
          1   -1    0    0  502    0  0.00000000000E+00  0.00000000000E+00  0.26737803084E+01  0.26737803084E+01  0.00000000000E+00 0.  1.
         13   -1    0    0    0    0 -0.00000000000E+00 -0.00000000000E+00 -0.10000000000E+04  0.10000000000E+04  0.00000000000E+00 0.  1.
    9000005    2    1    2  501    0 -0.29383838988E+02  0.38032016129E+02 -0.68274362572E+03  0.68444107823E+03  0.32995238956E+01 0.  0.
         13    1    3    3    0    0 -0.12324313188E+02  0.14321440334E+02 -0.28636904827E+03  0.28699167960E+03  0.00000000000E+00 0.  1.
          1    1    3    3  501    0 -0.17059525800E+02  0.23710575795E+02 -0.39637457745E+03  0.39744939863E+03  0.00000000000E+00 0.  1.
         21    1    1    2  502  501  0.29383838988E+02 -0.38032016129E+02 -0.31458259397E+03  0.31823270208E+03  0.00000000000E+00 0.  1.
<mgrwt>
<rscale>  1 0.30000000E+03</rscale>
<asrwt>0</asrwt>
<pdfrwt beam="1">  1        1 0.97228580E-02 0.30000000E+03</pdfrwt>
<pdfrwt beam="2">0</pdfrwt>
<totfact> 0.78565699E+02</totfact>
</mgrwt>
</event>
<event>
 6    1  0.1956957E-002  0.3000000E+03  0.7818608E-02  0.1093470E+00
          1   -1    0    0  502    0  0.00000000000E+00  0.00000000000E+00  0.11501808484E+02  0.11501808484E+02  0.00000000000E+00 0.  1.
         13   -1    0    0    0    0 -0.00000000000E+00 -0.00000000000E+00 -0.10000000000E+04  0.10000000000E+04  0.00000000000E+00 0.  1.
    9000005    2    1    2  501    0 -0.66488394386E+01 -0.10282903630E+03 -0.63415648154E+03  0.64248139550E+03  0.31436778570E+01 0.  0.
         13    1    3    3    0    0 -0.28516337000E+00 -0.19772533045E+02 -0.12634594633E+03  0.12788405896E+03  0.00000000000E+00 0.  1.
          1    1    3    3  501    0 -0.63636760686E+01 -0.83056503253E+02 -0.50781053521E+03  0.51459733654E+03  0.00000000000E+00 0.  1.
         21    1    1    2  502  501  0.66488394386E+01  0.10282903630E+03 -0.35434170997E+03  0.36902041298E+03  0.00000000000E+00 0.  1.
<mgrwt>
<rscale>  1 0.30000000E+03</rscale>
<asrwt>0</asrwt>
<pdfrwt beam="1">  1        1 0.41824846E-01 0.30000000E+03</pdfrwt>
<pdfrwt beam="2">0</pdfrwt>
<totfact> 0.11150663E+02</totfact>
</mgrwt>
</event>
<event>
 6    1  0.1956957E-002  0.3000000E+03  0.7818608E-02  0.1093470E+00
          3   -1    0    0  502    0  0.00000000000E+00  0.00000000000E+00  0.21427750613E+01  0.21427750613E+01  0.00000000000E+00 0.  1.
         13   -1    0    0    0    0 -0.00000000000E+00 -0.00000000000E+00 -0.10000000000E+04  0.10000000000E+04  0.00000000000E+00 0.  1.
    9000005    2    1    2  501    0  0.29205507374E+02  0.26822293663E+02 -0.75696351443E+03  0.75800720440E+03  0.29601772218E+01 0.  0.
         13    1    3    3    0    0  0.27067987028E+01  0.18399089579E+01 -0.50935572977E+02  0.51040617343E+02  0.00000000000E+00 0.  1.
          3    1    3    3  501    0  0.26498708671E+02  0.24982384705E+02 -0.70602794145E+03  0.70696658706E+03  0.00000000000E+00 0.  1.
         21    1    1    2  502  501 -0.29205507374E+02 -0.26822293663E+02 -0.24089371051E+03  0.24413557066E+03  0.00000000000E+00 0.  1.
<mgrwt>
<rscale>  1 0.30000000E+03</rscale>
<asrwt>0</asrwt>
<pdfrwt beam="1">  1        3 0.77919257E-02 0.30000000E+03</pdfrwt>
<pdfrwt beam="2">0</pdfrwt>
<totfact> 0.49424795E+02</totfact>
</mgrwt>
</event>
<event>
 6    1  0.1956957E-002  0.3000000E+03  0.7818608E-02  0.1093470E+00
          1   -1    0    0  502    0  0.00000000000E+00  0.00000000000E+00  0.11484083179E+01  0.11484083179E+01  0.00000000000E+00 0.  1.
         13   -1    0    0    0    0 -0.00000000000E+00 -0.00000000000E+00 -0.10000000000E+04  0.10000000000E+04  0.00000000000E+00 0.  1.
    9000005    2    1    2  501    0  0.30227888830E+02 -0.13599764791E+02 -0.59753199392E+03  0.59846230424E+03  0.37372421212E+01 0.  0.
         13    1    3    3    0    0  0.26130451142E+00 -0.67024542773E+00 -0.13028492944E+02  0.13048338491E+02  0.00000000000E+00 0.  1.
          1    1    3    3  501    0  0.29966584318E+02 -0.12929519363E+02 -0.58450350097E+03  0.58541396575E+03  0.00000000000E+00 0.  1.
         21    1    1    2  502  501 -0.30227888830E+02  0.13599764791E+02 -0.40131959777E+03  0.40268610408E+03  0.00000000000E+00 0.  1.
<mgrwt>
<rscale>  1 0.30000000E+03</rscale>
<asrwt>0</asrwt>
<pdfrwt beam="1">  1        1 0.41760391E-02 0.30000000E+03</pdfrwt>
<pdfrwt beam="2">0</pdfrwt>
<totfact> 0.25627385E+03</totfact>
</mgrwt>
</event>
<event>
 6    1  0.1956957E-002  0.3000000E+03  0.7818608E-02  0.1093470E+00
          1   -1    0    0  502    0  0.00000000000E+00  0.00000000000E+00  0.10833721290E+01  0.10833721290E+01  0.00000000000E+00 0.  1.
         13   -1    0    0    0    0 -0.00000000000E+00 -0.00000000000E+00 -0.10000000000E+04  0.10000000000E+04  0.00000000000E+00 0.  1.
    9000005    2    1    2  501    0 -0.26351479692E+01 -0.31977010953E+02 -0.39451708555E+03  0.39583277941E+03  0.32226117838E+01 0.  0.
         13    1    3    3    0    0 -0.64616251014E+00 -0.24243437953E+02 -0.29257913568E+03  0.29358254792E+03  0.00000000000E+00 0.  1.
          1    1    3    3  501    0 -0.19889854591E+01 -0.77335729997E+01 -0.10193794987E+03  0.10225023149E+03  0.00000000000E+00 0.  1.
         21    1    1    2  502  501  0.26351479692E+01  0.31977010953E+02 -0.60439954232E+03  0.60525059272E+03  0.00000000000E+00 0.  1.
<mgrwt>
<rscale>  1 0.30000000E+03</rscale>
<asrwt>0</asrwt>
<pdfrwt beam="1">  1        1 0.39395433E-02 0.30000000E+03</pdfrwt>
<pdfrwt beam="2">0</pdfrwt>
<totfact> 0.27819683E+03</totfact>
</mgrwt>
</event>
<event>
 6    1  0.1956957E-002  0.3000000E+03  0.7818608E-02  0.1093470E+00
          3   -1    0    0  502    0  0.00000000000E+00  0.00000000000E+00  0.14116777369E+01  0.14116777369E+01  0.00000000000E+00 0.  1.
         13   -1    0    0    0    0 -0.00000000000E+00 -0.00000000000E+00 -0.10000000000E+04  0.10000000000E+04  0.00000000000E+00 0.  1.
    9000005    2    1    2  501    0 -0.35082369942E+02  0.48263477835E+01 -0.64078004039E+03  0.64185523865E+03  0.11181274680E+02 0.  0.
         13    1    3    3    0    0 -0.85209584723E+01  0.62010962760E+01 -0.18022735500E+03  0.18053520382E+03  0.00000000000E+00 0.  1.
          1    1    3    3  501    0 -0.26561411469E+02 -0.13747484925E+01 -0.46055268539E+03  0.46132003483E+03  0.00000000000E+00 0.  1.
         21    1    1    2  502  501  0.35082369942E+02 -0.48263477835E+01 -0.35780828187E+03  0.35955643909E+03  0.00000000000E+00 0.  1.
<mgrwt>
<rscale>  1 0.30000000E+03</rscale>
<asrwt>0</asrwt>
<pdfrwt beam="1">  1        3 0.51333844E-02 0.30000000E+03</pdfrwt>
<pdfrwt beam="2">0</pdfrwt>
<totfact> 0.94997712E+02</totfact>
</mgrwt>
</event>
<event>
 6    1  0.1956957E-002  0.3000000E+03  0.7818608E-02  0.1093470E+00
          1   -1    0    0  502    0  0.00000000000E+00  0.00000000000E+00  0.16204570950E+01  0.16204570950E+01  0.00000000000E+00 0.  1.
         13   -1    0    0    0    0 -0.00000000000E+00 -0.00000000000E+00 -0.10000000000E+04  0.10000000000E+04  0.00000000000E+00 0.  1.
    9000005    2    1    2  501    0  0.13226519177E+02 -0.33210846436E+02 -0.72827737307E+03  0.72916296815E+03  0.35778304580E+01 0.  0.
         13    1    3    3    0    0  0.70423682325E+00 -0.41201152043E+00 -0.17855626234E+02  0.17874257781E+02  0.00000000000E+00 0.  1.
          1    1    3    3  501    0  0.12522282353E+02 -0.32798834916E+02 -0.71042174683E+03  0.71128871037E+03  0.00000000000E+00 0.  1.
         21    1    1    2  502  501 -0.13226519177E+02  0.33210846436E+02 -0.27010216984E+03  0.27245748894E+03  0.00000000000E+00 0.  1.
<mgrwt>
<rscale>  1 0.30000000E+03</rscale>
<asrwt>0</asrwt>
<pdfrwt beam="1">  1        1 0.58925837E-02 0.30000000E+03</pdfrwt>
<pdfrwt beam="2">0</pdfrwt>
<totfact> 0.15793735E+03</totfact>
</mgrwt>
</event>
<event>
 6    1  0.1956957E-002  0.3000000E+03  0.7818608E-02  0.1093470E+00
          3   -1    0    0  502    0  0.00000000000E+00  0.00000000000E+00  0.12815947001E+01  0.12815947001E+01  0.00000000000E+00 0.  1.
         13   -1    0    0    0    0 -0.00000000000E+00 -0.00000000000E+00 -0.10000000000E+04  0.10000000000E+04  0.00000000000E+00 0.  1.
    9000005    2    1    2  501    0  0.21242094617E+02  0.28315368705E+02 -0.43305752390E+03  0.43451425316E+03  0.32909733389E+01 0.  0.
         13    1    3    3    0    0  0.19266456731E+00  0.58189348349E+00 -0.40373265273E+01  0.40835921870E+01  0.00000000000E+00 0.  1.
          3    1    3    3  501    0  0.21049430050E+02  0.27733475221E+02 -0.42902019737E+03  0.43043066098E+03  0.00000000000E+00 0.  1.
         21    1    1    2  502  501 -0.21242094617E+02 -0.28315368705E+02 -0.56566088140E+03  0.56676734154E+03  0.00000000000E+00 0.  1.
<mgrwt>
<rscale>  1 0.30000000E+03</rscale>
<asrwt>0</asrwt>
<pdfrwt beam="1">  1        3 0.46603542E-02 0.30000000E+03</pdfrwt>
<pdfrwt beam="2">0</pdfrwt>
<totfact> 0.11028515E+03</totfact>
</mgrwt>
</event>
<event>
 6    1  0.1956957E-002  0.3000000E+03  0.7818608E-02  0.1093470E+00
          1   -1    0    0  502    0  0.00000000000E+00  0.00000000000E+00  0.56411705313E+01  0.56411705313E+01  0.00000000000E+00 0.  1.
         13   -1    0    0    0    0 -0.00000000000E+00 -0.00000000000E+00 -0.10000000000E+04  0.10000000000E+04  0.00000000000E+00 0.  1.
    9000005    2    1    2  501    0 -0.32654720705E+02 -0.13479081377E+02 -0.94087867306E+03  0.94154636927E+03  0.29785310757E+01 0.  0.
         13    1    3    3    0    0 -0.15638273165E+02 -0.68882414858E+01 -0.49316893222E+03  0.49346489153E+03  0.00000000000E+00 0.  1.
          3    1    3    3  501    0 -0.17016447541E+02 -0.65908398916E+01 -0.44770974084E+03  0.44808147775E+03  0.00000000000E+00 0.  1.
         21    1    1    2  502  501  0.32654720705E+02  0.13479081377E+02 -0.53480156405E+02  0.64094801257E+02  0.00000000000E+00 0.  1.
<mgrwt>
<rscale>  1 0.30000000E+03</rscale>
<asrwt>0</asrwt>
<pdfrwt beam="1">  1        1 0.20513391E-01 0.30000000E+03</pdfrwt>
<pdfrwt beam="2">0</pdfrwt>
<totfact> 0.28461290E+02</totfact>
</mgrwt>
</event>
<event>
 6    1  0.1956957E-002  0.3000000E+03  0.7818608E-02  0.1093470E+00
          3   -1    0    0  502    0  0.00000000000E+00  0.00000000000E+00  0.39046063370E+01  0.39046063370E+01  0.00000000000E+00 0.  1.
         13   -1    0    0    0    0 -0.00000000000E+00 -0.00000000000E+00 -0.10000000000E+04  0.10000000000E+04  0.00000000000E+00 0.  1.
    9000005    2    1    2  501    0  0.60069522859E+01  0.62027343748E+02 -0.53028822010E+03  0.53394737659E+03  0.32756286202E+01 0.  0.
         13    1    3    3    0    0  0.45343788128E+01  0.32728985771E+02 -0.27310071150E+03  0.27509224948E+03  0.00000000000E+00 0.  1.
          3    1    3    3  501    0  0.14725734731E+01  0.29298357976E+02 -0.25718750860E+03  0.25885512712E+03  0.00000000000E+00 0.  1.
         21    1    1    2  502  501 -0.60069522859E+01 -0.62027343748E+02 -0.46580717356E+03  0.46995722974E+03  0.00000000000E+00 0.  1.
<mgrwt>
<rscale>  1 0.30000000E+03</rscale>
<asrwt>0</asrwt>
<pdfrwt beam="1">  1        3 0.14198598E-01 0.30000000E+03</pdfrwt>
<pdfrwt beam="2">0</pdfrwt>
<totfact> 0.18298396E+02</totfact>
</mgrwt>
</event>
<event>
 6    1  0.1956957E-002  0.3000000E+03  0.7818608E-02  0.1093470E+00
          1   -1    0    0  502    0  0.00000000000E+00  0.00000000000E+00  0.15072765938E+01  0.15072765938E+01  0.00000000000E+00 0.  1.
         13   -1    0    0    0    0 -0.00000000000E+00 -0.00000000000E+00 -0.10000000000E+04  0.10000000000E+04  0.00000000000E+00 0.  1.
    9000005    2    1    2  501    0  0.25361185330E+02 -0.22043211645E+02 -0.74769964650E+03  0.74847316758E+03  0.53130319111E+01 0.  0.
         13    1    3    3    0    0  0.14294395855E+02 -0.13777655800E+02 -0.49248348356E+03  0.49288349042E+03  0.00000000000E+00 0.  1.
          3    1    3    3  501    0  0.11066789475E+02 -0.82655558457E+01 -0.25521616294E+03  0.25558967715E+03  0.00000000000E+00 0.  1.
         21    1    1    2  502  501 -0.25361185330E+02  0.22043211645E+02 -0.25079307691E+03  0.25303410902E+03  0.00000000000E+00 0.  1.
<mgrwt>
<rscale>  1 0.30000000E+03</rscale>
<asrwt>0</asrwt>
<pdfrwt beam="1">  1        1 0.54810174E-02 0.30000000E+03</pdfrwt>
<pdfrwt beam="2">0</pdfrwt>
<totfact> 0.17483465E+03</totfact>
</mgrwt>
</event>
<event>
 6    1  0.1956957E-002  0.3000000E+03  0.7818608E-02  0.1093470E+00
          3   -1    0    0  502    0  0.00000000000E+00  0.00000000000E+00  0.40549357847E+01  0.40549357847E+01  0.00000000000E+00 0.  1.
         13   -1    0    0    0    0 -0.00000000000E+00 -0.00000000000E+00 -0.10000000000E+04  0.10000000000E+04  0.00000000000E+00 0.  1.
    9000005    2    1    2  501    0  0.30149528360E+02  0.37360749776E+01 -0.93914675275E+03  0.93964220023E+03  0.28087241465E+01 0.  0.
         13    1    3    3    0    0  0.23191803188E+02  0.36606616647E+01 -0.69600183704E+03  0.69639774364E+03  0.00000000000E+00 0.  1.
          3    1    3    3  501    0  0.69577251722E+01  0.75413312915E-01 -0.24314491571E+03  0.24324445659E+03  0.00000000000E+00 0.  1.
         21    1    1    2  502  501 -0.30149528360E+02 -0.37360749776E+01 -0.56798311463E+02  0.64412735555E+02  0.00000000000E+00 0.  1.
<mgrwt>
<rscale>  1 0.30000000E+03</rscale>
<asrwt>0</asrwt>
<pdfrwt beam="1">  1        3 0.14745252E-01 0.30000000E+03</pdfrwt>
<pdfrwt beam="2">0</pdfrwt>
<totfact> 0.17145024E+02</totfact>
</mgrwt>
</event>
<event>
 6    1  0.1956957E-002  0.3000000E+03  0.7818608E-02  0.1093470E+00
          1   -1    0    0  502    0  0.00000000000E+00  0.00000000000E+00  0.16725471941E+01  0.16725471941E+01  0.00000000000E+00 0.  1.
         13   -1    0    0    0    0 -0.00000000000E+00 -0.00000000000E+00 -0.10000000000E+04  0.10000000000E+04  0.00000000000E+00 0.  1.
    9000005    2    1    2  501    0  0.16509910286E+02 -0.34507562193E+02 -0.32541694323E+03  0.32767558661E+03  0.34284295823E+01 0.  0.
         13    1    3    3    0    0  0.12314622258E+02 -0.22003594974E+02 -0.21554462662E+03  0.21701450223E+03  0.00000000000E+00 0.  1.
          3    1    3    3  501    0  0.41952880273E+01 -0.12503967219E+02 -0.10987231662E+03  0.11066108438E+03  0.00000000000E+00 0.  1.
         21    1    1    2  502  501 -0.16509910286E+02  0.34507562193E+02 -0.67291050957E+03  0.67399696059E+03  0.00000000000E+00 0.  1.
<mgrwt>
<rscale>  1 0.30000000E+03</rscale>
<asrwt>0</asrwt>
<pdfrwt beam="1">  1        1 0.60820026E-02 0.30000000E+03</pdfrwt>
<pdfrwt beam="2">0</pdfrwt>
<totfact> 0.15108030E+03</totfact>
</mgrwt>
</event>
<event>
 6    1  0.1956957E-002  0.3000000E+03  0.7818608E-02  0.1093470E+00
          1   -1    0    0  502    0  0.00000000000E+00  0.00000000000E+00  0.10751654429E+01  0.10751654429E+01  0.00000000000E+00 0.  1.
         13   -1    0    0    0    0 -0.00000000000E+00 -0.00000000000E+00 -0.10000000000E+04  0.10000000000E+04  0.00000000000E+00 0.  1.
    9000005    2    1    2  501    0 -0.29040261859E+02  0.82796898766E+01 -0.69311959835E+03  0.69378258082E+03  0.27571284741E+01 0.  0.
         13    1    3    3    0    0 -0.24415286837E+02  0.77520329001E+01 -0.60035383685E+03  0.60090009957E+03  0.00000000000E+00 0.  1.
          3    1    3    3  501    0 -0.46249750225E+01  0.52765697648E+00 -0.92765761502E+02  0.92882481248E+02  0.00000000000E+00 0.  1.
         21    1    1    2  502  501  0.29040261859E+02 -0.82796898766E+01 -0.30580523621E+03  0.30729258463E+03  0.00000000000E+00 0.  1.
<mgrwt>
<rscale>  1 0.30000000E+03</rscale>
<asrwt>0</asrwt>
<pdfrwt beam="1">  1        1 0.39097008E-02 0.30000000E+03</pdfrwt>
<pdfrwt beam="2">0</pdfrwt>
<totfact> 0.28119100E+03</totfact>
</mgrwt>
</event>
<event>
 6    1  0.1956957E-002  0.3000000E+03  0.7818608E-02  0.1093470E+00
          1   -1    0    0  502    0  0.00000000000E+00  0.00000000000E+00  0.13508854028E+01  0.13508854028E+01  0.00000000000E+00 0.  1.
         13   -1    0    0    0    0 -0.00000000000E+00 -0.00000000000E+00 -0.10000000000E+04  0.10000000000E+04  0.00000000000E+00 0.  1.
    9000005    2    1    2  501    0 -0.22893332945E+02  0.22411580389E+02 -0.74160086658E+03  0.74231385053E+03  0.56234991197E+01 0.  0.
         13    1    3    3    0    0 -0.22915177995E+01  0.22775149282E+01 -0.12327542714E+03  0.12331775648E+03  0.00000000000E+00 0.  1.
          3    1    3    3  501    0 -0.20601815145E+02  0.20134065460E+02 -0.61832543945E+03  0.61899609405E+03  0.00000000000E+00 0.  1.
         21    1    1    2  502  501  0.22893332945E+02 -0.22411580389E+02 -0.25704824801E+03  0.25903703487E+03  0.00000000000E+00 0.  1.
<mgrwt>
<rscale>  1 0.30000000E+03</rscale>
<asrwt>0</asrwt>
<pdfrwt beam="1">  1        1 0.49123209E-02 0.30000000E+03</pdfrwt>
<pdfrwt beam="2">0</pdfrwt>
<totfact> 0.20392487E+03</totfact>
</mgrwt>
</event>
<event>
 6    1  0.1956957E-002  0.3000000E+03  0.7818608E-02  0.1093470E+00
          1   -1    0    0  502    0  0.00000000000E+00  0.00000000000E+00  0.19237049378E+01  0.19237049378E+01  0.00000000000E+00 0.  1.
         13   -1    0    0    0    0 -0.00000000000E+00 -0.00000000000E+00 -0.10000000000E+04  0.10000000000E+04  0.00000000000E+00 0.  1.
    9000005    2    1    2  501    0  0.39133586312E+02  0.15585761455E+02 -0.36605473533E+03  0.36849998774E+03  0.46709925777E+01 0.  0.
         13    1    3    3    0    0  0.42682729250E+01  0.31507142947E+01 -0.39792693145E+02  0.40144782750E+02  0.00000000000E+00 0.  1.
          3    1    3    3  501    0  0.34865313387E+02  0.12435047161E+02 -0.32626204218E+03  0.32835520499E+03  0.00000000000E+00 0.  1.
         21    1    1    2  502  501 -0.39133586312E+02 -0.15585761455E+02 -0.63202155974E+03  0.63342371720E+03  0.00000000000E+00 0.  1.
<mgrwt>
<rscale>  1 0.30000000E+03</rscale>
<asrwt>0</asrwt>
<pdfrwt beam="1">  1        1 0.69953054E-02 0.30000000E+03</pdfrwt>
<pdfrwt beam="2">0</pdfrwt>
<totfact> 0.12419759E+03</totfact>
</mgrwt>
</event>
<event>
 6    1  0.1956957E-002  0.3000000E+03  0.7818608E-02  0.1093470E+00
          3   -1    0    0  502    0  0.00000000000E+00  0.00000000000E+00  0.41310762990E+01  0.41310762990E+01  0.00000000000E+00 0.  1.
         13   -1    0    0    0    0 -0.00000000000E+00 -0.00000000000E+00 -0.10000000000E+04  0.10000000000E+04  0.00000000000E+00 0.  1.
    9000005    2    1    2  501    0 -0.36605263677E+02 -0.30742149153E+02 -0.83349591587E+03  0.83486791216E+03  0.19909579315E+01 0.  0.
         13    1    3    3    0    0 -0.22020752985E+02 -0.19607194076E+02 -0.50572890229E+03  0.50658768070E+03  0.00000000000E+00 0.  1.
          3    1    3    3  501    0 -0.14584510692E+02 -0.11134955076E+02 -0.32776701358E+03  0.32828023146E+03  0.00000000000E+00 0.  1.
         21    1    1    2  502  501  0.36605263677E+02  0.30742149153E+02 -0.16237300783E+03  0.16926316414E+03  0.00000000000E+00 0.  1.
<mgrwt>
<rscale>  1 0.30000000E+03</rscale>
<asrwt>0</asrwt>
<pdfrwt beam="1">  1        3 0.15022127E-01 0.30000000E+03</pdfrwt>
<pdfrwt beam="2">0</pdfrwt>
<totfact> 0.16601844E+02</totfact>
</mgrwt>
</event>
<event>
 6    1  0.1956957E-002  0.3000000E+03  0.7818608E-02  0.1093470E+00
          1   -1    0    0  502    0  0.00000000000E+00  0.00000000000E+00  0.14287758542E+02  0.14287758542E+02  0.00000000000E+00 0.  1.
         13   -1    0    0    0    0 -0.00000000000E+00 -0.00000000000E+00 -0.10000000000E+04  0.10000000000E+04  0.00000000000E+00 0.  1.
    9000005    2    1    2  501    0  0.47640586378E+02 -0.10193621648E+03 -0.66387824046E+03  0.67335119275E+03  0.26254355170E+01 0.  0.
         13    1    3    3    0    0  0.19138225764E+01 -0.54368780451E+01 -0.34643582828E+02  0.35119797706E+02  0.00000000000E+00 0.  1.
          3    1    3    3  501    0  0.45726763801E+02 -0.96499338433E+02 -0.62923465764E+03  0.63823139504E+03  0.00000000000E+00 0.  1.
         21    1    1    2  502  501 -0.47640586378E+02  0.10193621648E+03 -0.32183400099E+03  0.34093656579E+03  0.00000000000E+00 0.  1.
<mgrwt>
<rscale>  1 0.30000000E+03</rscale>
<asrwt>0</asrwt>
<pdfrwt beam="1">  1        1 0.51955595E-01 0.30000000E+03</pdfrwt>
<pdfrwt beam="2">0</pdfrwt>
<totfact> 0.83905156E+01</totfact>
</mgrwt>
</event>
<event>
 6    1  0.1956957E-002  0.3000000E+03  0.7818608E-02  0.1093470E+00
          1   -1    0    0  502    0  0.00000000000E+00  0.00000000000E+00  0.53525874203E+01  0.53525874203E+01  0.00000000000E+00 0.  1.
         13   -1    0    0    0    0 -0.00000000000E+00 -0.00000000000E+00 -0.10000000000E+04  0.10000000000E+04  0.00000000000E+00 0.  1.
    9000005    2    1    2  501    0 -0.68928398751E+02 -0.25683728166E+01 -0.66442559314E+03  0.66800384987E+03  0.31707928207E+01 0.  0.
         13    1    3    3    0    0 -0.37624972468E+02 -0.20416096907E+01 -0.34888111619E+03  0.35091001689E+03  0.00000000000E+00 0.  1.
          1    1    3    3  501    0 -0.31303426284E+02 -0.52676312589E+00 -0.31554447696E+03  0.31709383298E+03  0.00000000000E+00 0.  1.
         21    1    1    2  502  501  0.68928398751E+02  0.25683728166E+01 -0.33022181944E+03  0.33734873755E+03  0.00000000000E+00 0.  1.
<mgrwt>
<rscale>  1 0.30000000E+03</rscale>
<asrwt>0</asrwt>
<pdfrwt beam="1">  1        1 0.19463995E-01 0.30000000E+03</pdfrwt>
<pdfrwt beam="2">0</pdfrwt>
<totfact> 0.30531682E+02</totfact>
</mgrwt>
</event>
<event>
 6    1  0.1956957E-002  0.3000000E+03  0.7818608E-02  0.1093470E+00
          3   -1    0    0  502    0  0.00000000000E+00  0.00000000000E+00  0.12259529084E+02  0.12259529084E+02  0.00000000000E+00 0.  1.
         13   -1    0    0    0    0 -0.00000000000E+00 -0.00000000000E+00 -0.10000000000E+04  0.10000000000E+04  0.00000000000E+00 0.  1.
    9000005    2    1    2  501    0  0.57356347899E+02 -0.35413147449E+02 -0.89534919355E+03  0.89789174608E+03  0.39455831067E+01 0.  0.
         13    1    3    3    0    0  0.32472103443E+02 -0.17761302358E+02 -0.48735911433E+03  0.48876252688E+03  0.00000000000E+00 0.  1.
          1    1    3    3  501    0  0.24884244457E+02 -0.17651845091E+02 -0.40799007922E+03  0.40912921920E+03  0.00000000000E+00 0.  1.
         21    1    1    2  502  501 -0.57356347899E+02  0.35413147449E+02 -0.92391277363E+02  0.11436778300E+03  0.00000000000E+00 0.  1.
<mgrwt>
<rscale>  1 0.30000000E+03</rscale>
<asrwt>0</asrwt>
<pdfrwt beam="1">  1        3 0.44580200E-01 0.30000000E+03</pdfrwt>
<pdfrwt beam="2">0</pdfrwt>
<totfact> 0.21816432E+01</totfact>
</mgrwt>
</event>
<event>
 6    1  0.1956957E-002  0.3000000E+03  0.7818608E-02  0.1093470E+00
          1   -1    0    0  502    0  0.00000000000E+00  0.00000000000E+00  0.15127947836E+01  0.15127947836E+01  0.00000000000E+00 0.  1.
         13   -1    0    0    0    0 -0.00000000000E+00 -0.00000000000E+00 -0.10000000000E+04  0.10000000000E+04  0.00000000000E+00 0.  1.
    9000005    2    1    2  501    0  0.30237231089E+02 -0.38412017079E+01 -0.80956810348E+03  0.81015064603E+03  0.38092147081E+01 0.  0.
         13    1    3    3    0    0  0.17364658969E+02 -0.54386560864E+00 -0.43428642065E+03  0.43463377956E+03  0.00000000000E+00 0.  1.
          3    1    3    3  501    0  0.12872572121E+02 -0.32973360993E+01 -0.37528168283E+03  0.37551686647E+03  0.00000000000E+00 0.  1.
         21    1    1    2  502  501 -0.30237231089E+02  0.38412017079E+01 -0.18891910173E+03  0.19136214875E+03  0.00000000000E+00 0.  1.
<mgrwt>
<rscale>  1 0.30000000E+03</rscale>
<asrwt>0</asrwt>
<pdfrwt beam="1">  1        1 0.55010835E-02 0.30000000E+03</pdfrwt>
<pdfrwt beam="2">0</pdfrwt>
<totfact> 0.17393978E+03</totfact>
</mgrwt>
</event>
<event>
 6    1  0.1956957E-002  0.3000000E+03  0.7818608E-02  0.1093470E+00
          1   -1    0    0  502    0  0.00000000000E+00  0.00000000000E+00  0.69996522472E+01  0.69996522472E+01  0.00000000000E+00 0.  1.
         13   -1    0    0    0    0 -0.00000000000E+00 -0.00000000000E+00 -0.10000000000E+04  0.10000000000E+04  0.00000000000E+00 0.  1.
    9000005    2    1    2  501    0 -0.30268837635E+02  0.18182035078E+01 -0.96575429869E+03  0.96623378925E+03  0.26194793205E+01 0.  0.
         13    1    3    3    0    0 -0.28794167220E+02  0.15861820149E+01 -0.93286761119E+03  0.93331323791E+03  0.00000000000E+00 0.  1.
          1    1    3    3  501    0 -0.14746704145E+01  0.23202149292E+00 -0.32886687494E+02  0.32920551349E+02  0.00000000000E+00 0.  1.
         21    1    1    2  502  501  0.30268837635E+02 -0.18182035078E+01 -0.27246049067E+02  0.40765862993E+02  0.00000000000E+00 0.  1.
<mgrwt>
<rscale>  1 0.30000000E+03</rscale>
<asrwt>0</asrwt>
<pdfrwt beam="1">  1        1 0.25453335E-01 0.30000000E+03</pdfrwt>
<pdfrwt beam="2">0</pdfrwt>
<totfact> 0.21379816E+02</totfact>
</mgrwt>
</event>
<event>
 6    1  0.1956957E-002  0.3000000E+03  0.7818608E-02  0.1093470E+00
          1   -1    0    0  502    0  0.00000000000E+00  0.00000000000E+00  0.23926805602E+01  0.23926805602E+01  0.00000000000E+00 0.  1.
         13   -1    0    0    0    0 -0.00000000000E+00 -0.00000000000E+00 -0.10000000000E+04  0.10000000000E+04  0.00000000000E+00 0.  1.
    9000005    2    1    2  501    0  0.11502597406E+02 -0.39767642930E+02 -0.76524749875E+03  0.76637390707E+03  0.33846588199E+01 0.  0.
         13    1    3    3    0    0  0.59225714544E+01 -0.19228379348E+02 -0.34138561649E+03  0.34197799135E+03  0.00000000000E+00 0.  1.
          1    1    3    3  501    0  0.55800259516E+01 -0.20539263582E+02 -0.42386188226E+03  0.42439591571E+03  0.00000000000E+00 0.  1.
         21    1    1    2  502  501 -0.11502597406E+02  0.39767642930E+02 -0.23235982069E+03  0.23601877349E+03  0.00000000000E+00 0.  1.
<mgrwt>
<rscale>  1 0.30000000E+03</rscale>
<asrwt>0</asrwt>
<pdfrwt beam="1">  1        1 0.87006749E-02 0.30000000E+03</pdfrwt>
<pdfrwt beam="2">0</pdfrwt>
<totfact> 0.91638540E+02</totfact>
</mgrwt>
</event>
<event>
 6    1  0.1956957E-002  0.3000000E+03  0.7818608E-02  0.1093470E+00
          1   -1    0    0  502    0  0.00000000000E+00  0.00000000000E+00  0.35780994335E+01  0.35780994335E+01  0.00000000000E+00 0.  1.
         13   -1    0    0    0    0 -0.00000000000E+00 -0.00000000000E+00 -0.10000000000E+04  0.10000000000E+04  0.00000000000E+00 0.  1.
    9000005    2    1    2  501    0 -0.53180781732E+02 -0.65885887381E+01 -0.72057024341E+03  0.72256966219E+03  0.37196745935E+01 0.  0.
         13    1    3    3    0    0 -0.29556610940E+02 -0.33086941061E+01 -0.42411815369E+03  0.42515967471E+03  0.00000000000E+00 0.  1.
          3    1    3    3  501    0 -0.23624170792E+02 -0.32798946320E+01 -0.29645208972E+03  0.29740998748E+03  0.00000000000E+00 0.  1.
         21    1    1    2  502  501  0.53180781732E+02  0.65885887381E+01 -0.27585165715E+03  0.28100843724E+03  0.00000000000E+00 0.  1.
<mgrwt>
<rscale>  1 0.30000000E+03</rscale>
<asrwt>0</asrwt>
<pdfrwt beam="1">  1        1 0.13011298E-01 0.30000000E+03</pdfrwt>
<pdfrwt beam="2">0</pdfrwt>
<totfact> 0.52651163E+02</totfact>
</mgrwt>
</event>
<event>
 6    1  0.1956957E-002  0.3000000E+03  0.7818608E-02  0.1093470E+00
          1   -1    0    0  502    0  0.00000000000E+00  0.00000000000E+00  0.29144376344E+01  0.29144376344E+01  0.00000000000E+00 0.  1.
         13   -1    0    0    0    0 -0.00000000000E+00 -0.00000000000E+00 -0.10000000000E+04  0.10000000000E+04  0.00000000000E+00 0.  1.
    9000005    2    1    2  501    0  0.42990364141E+02 -0.32443120253E+02 -0.52820759438E+03  0.53095334144E+03  0.27314030375E+01 0.  0.
         13    1    3    3    0    0  0.31397951753E+02 -0.22329676885E+02 -0.38310598859E+03  0.38503849721E+03  0.00000000000E+00 0.  1.
          3    1    3    3  501    0  0.11592412388E+02 -0.10113443368E+02 -0.14510160580E+03  0.14591484423E+03  0.00000000000E+00 0.  1.
         21    1    1    2  502  501 -0.42990364141E+02  0.32443120253E+02 -0.46887796798E+03  0.47196109619E+03  0.00000000000E+00 0.  1.
<mgrwt>
<rscale>  1 0.30000000E+03</rscale>
<asrwt>0</asrwt>
<pdfrwt beam="1">  1        1 0.10597977E-01 0.30000000E+03</pdfrwt>
<pdfrwt beam="2">0</pdfrwt>
<totfact> 0.69759588E+02</totfact>
</mgrwt>
</event>
<event>
 6    1  0.1956957E-002  0.3000000E+03  0.7818608E-02  0.1093470E+00
          3   -1    0    0  502    0  0.00000000000E+00  0.00000000000E+00  0.12289698488E+01  0.12289698488E+01  0.00000000000E+00 0.  1.
         13   -1    0    0    0    0 -0.00000000000E+00 -0.00000000000E+00 -0.10000000000E+04  0.10000000000E+04  0.00000000000E+00 0.  1.
    9000005    2    1    2  501    0 -0.27360959834E+02 -0.16529425716E+02 -0.70346405538E+03  0.70419689517E+03  0.31218460040E+01 0.  0.
         13    1    3    3    0    0 -0.33598347807E+01 -0.32030763543E+01 -0.11164906103E+03  0.11174551900E+03  0.00000000000E+00 0.  1.
          1    1    3    3  501    0 -0.24001125053E+02 -0.13326349361E+02 -0.59181499435E+03  0.59245137618E+03  0.00000000000E+00 0.  1.
         21    1    1    2  502  501  0.27360959834E+02  0.16529425716E+02 -0.29530697477E+03  0.29703207468E+03  0.00000000000E+00 0.  1.
<mgrwt>
<rscale>  1 0.30000000E+03</rscale>
<asrwt>0</asrwt>
<pdfrwt beam="1">  1        3 0.44689907E-02 0.30000000E+03</pdfrwt>
<pdfrwt beam="2">0</pdfrwt>
<totfact> 0.11765737E+03</totfact>
</mgrwt>
</event>
<event>
 6    1  0.1956957E-002  0.3000000E+03  0.7818608E-02  0.1093470E+00
          1   -1    0    0  502    0  0.00000000000E+00  0.00000000000E+00  0.29278637045E+01  0.29278637045E+01  0.00000000000E+00 0.  1.
         13   -1    0    0    0    0 -0.00000000000E+00 -0.00000000000E+00 -0.10000000000E+04  0.10000000000E+04  0.00000000000E+00 0.  1.
    9000005    2    1    2  501    0 -0.36000378318E+02  0.28701213668E+02 -0.76114375053E+03  0.76254901664E+03  0.46267597941E+01 0.  0.
         13    1    3    3    0    0 -0.24201521396E+02  0.21229413465E+02 -0.50551420756E+03  0.50653826675E+03  0.00000000000E+00 0.  1.
          1    1    3    3  501    0 -0.11798856922E+02  0.74718002022E+01 -0.25562954297E+03  0.25601074989E+03  0.00000000000E+00 0.  1.
         21    1    1    2  502  501  0.36000378318E+02 -0.28701213668E+02 -0.23592838577E+03  0.24037884706E+03  0.00000000000E+00 0.  1.
<mgrwt>
<rscale>  1 0.30000000E+03</rscale>
<asrwt>0</asrwt>
<pdfrwt beam="1">  1        1 0.10646800E-01 0.30000000E+03</pdfrwt>
<pdfrwt beam="2">0</pdfrwt>
<totfact> 0.69319701E+02</totfact>
</mgrwt>
</event>
<event>
 6    1  0.1956957E-002  0.3000000E+03  0.7818608E-02  0.1093470E+00
          1   -1    0    0  502    0  0.00000000000E+00  0.00000000000E+00  0.11939055294E+01  0.11939055294E+01  0.00000000000E+00 0.  1.
         13   -1    0    0    0    0 -0.00000000000E+00 -0.00000000000E+00 -0.10000000000E+04  0.10000000000E+04  0.00000000000E+00 0.  1.
    9000005    2    1    2  501    0  0.23885580428E+02 -0.23123184522E+02 -0.63208195566E+03  0.63296599159E+03  0.36256349509E+01 0.  0.
         13    1    3    3    0    0  0.98173748721E+01 -0.10580064664E+02 -0.30522247600E+03  0.30556354245E+03  0.00000000000E+00 0.  1.
          1    1    3    3  501    0  0.14068205556E+02 -0.12543119857E+02 -0.32685947966E+03  0.32740244914E+03  0.00000000000E+00 0.  1.
         21    1    1    2  502  501 -0.23885580428E+02  0.23123184522E+02 -0.36672413882E+03  0.36822791394E+03  0.00000000000E+00 0.  1.
<mgrwt>
<rscale>  1 0.30000000E+03</rscale>
<asrwt>0</asrwt>
<pdfrwt beam="1">  1        1 0.43414838E-02 0.30000000E+03</pdfrwt>
<pdfrwt beam="2">0</pdfrwt>
<totfact> 0.24263193E+03</totfact>
</mgrwt>
</event>
<event>
 6    1  0.1956957E-002  0.3000000E+03  0.7818608E-02  0.1093470E+00
          3   -1    0    0  502    0  0.00000000000E+00  0.00000000000E+00  0.20414375426E+02  0.20414375426E+02  0.00000000000E+00 0.  1.
         13   -1    0    0    0    0 -0.00000000000E+00 -0.00000000000E+00 -0.10000000000E+04  0.10000000000E+04  0.00000000000E+00 0.  1.
    9000005    2    1    2  501    0 -0.41297887094E+02 -0.57535458993E+00 -0.97820365146E+03  0.97908936652E+03  0.52685282583E+01 0.  0.
         13    1    3    3    0    0 -0.35625789239E+02  0.89177785962E+00 -0.86584063647E+03  0.86657371290E+03  0.00000000000E+00 0.  1.
          1    1    3    3  501    0 -0.56720978547E+01 -0.14671324495E+01 -0.11236301499E+03  0.11251565362E+03  0.00000000000E+00 0.  1.
         21    1    1    2  502  501  0.41297887094E+02  0.57535458993E+00 -0.13819731127E+01  0.41325008905E+02  0.00000000000E+00 0.  1.
<mgrwt>
<rscale>  1 0.30000000E+03</rscale>
<asrwt>0</asrwt>
<pdfrwt beam="1">  1        3 0.74234249E-01 0.30000000E+03</pdfrwt>
<pdfrwt beam="2">0</pdfrwt>
<totfact> 0.78792116E+00</totfact>
</mgrwt>
</event>
<event>
 6    1  0.1956957E-002  0.3000000E+03  0.7818608E-02  0.1093470E+00
          1   -1    0    0  502    0  0.00000000000E+00  0.00000000000E+00  0.52708665597E+01  0.52708665597E+01  0.00000000000E+00 0.  1.
         13   -1    0    0    0    0 -0.00000000000E+00 -0.00000000000E+00 -0.10000000000E+04  0.10000000000E+04  0.00000000000E+00 0.  1.
    9000005    2    1    2  501    0  0.18593588555E+02  0.37566576178E+02 -0.90769766981E+03  0.90867146261E+03  0.34348230558E+01 0.  0.
         13    1    3    3    0    0  0.10224456138E+02  0.18528361503E+02 -0.48877529643E+03  0.48923320623E+03  0.00000000000E+00 0.  1.
          3    1    3    3  501    0  0.83691324164E+01  0.19038214674E+02 -0.41892237338E+03  0.41943825638E+03  0.00000000000E+00 0.  1.
         21    1    1    2  502  501 -0.18593588555E+02 -0.37566576178E+02 -0.87031463632E+02  0.96599403947E+02  0.00000000000E+00 0.  1.
<mgrwt>
<rscale>  1 0.30000000E+03</rscale>
<asrwt>0</asrwt>
<pdfrwt beam="1">  1        1 0.19166828E-01 0.30000000E+03</pdfrwt>
<pdfrwt beam="2">0</pdfrwt>
<totfact> 0.31167446E+02</totfact>
</mgrwt>
</event>
<event>
 6    1  0.1956957E-002  0.3000000E+03  0.7818608E-02  0.1093470E+00
          1   -1    0    0  502    0  0.00000000000E+00  0.00000000000E+00  0.55201583574E+01  0.55201583574E+01  0.00000000000E+00 0.  1.
         13   -1    0    0    0    0 -0.00000000000E+00 -0.00000000000E+00 -0.10000000000E+04  0.10000000000E+04  0.00000000000E+00 0.  1.
    9000005    2    1    2  501    0 -0.35345005601E+02  0.15197036036E+02 -0.92728214060E+03  0.92808792766E+03  0.38488789800E+01 0.  0.
         13    1    3    3    0    0 -0.30255553715E+01  0.18206130600E+01 -0.63826455542E+02  0.63924056851E+02  0.00000000000E+00 0.  1.
          3    1    3    3  501    0 -0.32319450230E+02  0.13376422976E+02 -0.86345568506E+03  0.86416387081E+03  0.00000000000E+00 0.  1.
         21    1    1    2  502  501  0.35345005601E+02 -0.15197036036E+02 -0.67197701044E+02  0.77432230698E+02  0.00000000000E+00 0.  1.
<mgrwt>
<rscale>  1 0.30000000E+03</rscale>
<asrwt>0</asrwt>
<pdfrwt beam="1">  1        1 0.20073345E-01 0.30000000E+03</pdfrwt>
<pdfrwt beam="2">0</pdfrwt>
<totfact> 0.29297841E+02</totfact>
</mgrwt>
</event>
<event>
 6    1  0.1956957E-002  0.3000000E+03  0.7818608E-02  0.1093470E+00
          3   -1    0    0  502    0  0.00000000000E+00  0.00000000000E+00  0.19875528484E+01  0.19875528484E+01  0.00000000000E+00 0.  1.
         13   -1    0    0    0    0 -0.00000000000E+00 -0.00000000000E+00 -0.10000000000E+04  0.10000000000E+04  0.00000000000E+00 0.  1.
    9000005    2    1    2  501    0 -0.18866077559E+02  0.28298796940E+02 -0.82246280909E+03  0.82317360984E+03  0.36012233850E+01 0.  0.
         13    1    3    3    0    0 -0.15249381593E+02  0.20960823094E+02 -0.59712542430E+03  0.59768777141E+03  0.00000000000E+00 0.  1.
          1    1    3    3  501    0 -0.36166959657E+01  0.73379738457E+01 -0.22533738478E+03  0.22548583843E+03  0.00000000000E+00 0.  1.
         21    1    1    2  502  501  0.18866077559E+02 -0.28298796940E+02 -0.17554963807E+03  0.17881394301E+03  0.00000000000E+00 0.  1.
<mgrwt>
<rscale>  1 0.30000000E+03</rscale>
<asrwt>0</asrwt>
<pdfrwt beam="1">  1        3 0.72274801E-02 0.30000000E+03</pdfrwt>
<pdfrwt beam="2">0</pdfrwt>
<totfact> 0.55691525E+02</totfact>
</mgrwt>
</event>
<event>
 6    1  0.1956957E-002  0.3000000E+03  0.7818608E-02  0.1093470E+00
          1   -1    0    0  502    0  0.00000000000E+00  0.00000000000E+00  0.29094986142E+01  0.29094986142E+01  0.00000000000E+00 0.  1.
         13   -1    0    0    0    0 -0.00000000000E+00 -0.00000000000E+00 -0.10000000000E+04  0.10000000000E+04  0.00000000000E+00 0.  1.
    9000005    2    1    2  501    0 -0.81199835798E+01 -0.43899501253E+02 -0.77960475202E+03  0.78088888804E+03  0.32841657605E+01 0.  0.
         13    1    3    3    0    0 -0.39293207530E+01 -0.29327788449E+02 -0.50662724752E+03  0.50749061732E+03  0.00000000000E+00 0.  1.
          1    1    3    3  501    0 -0.41906628268E+01 -0.14571712804E+02 -0.27297750450E+03  0.27339827072E+03  0.00000000000E+00 0.  1.
         21    1    1    2  502  501  0.81199835798E+01  0.43899501253E+02 -0.21748574937E+03  0.22202061058E+03  0.00000000000E+00 0.  1.
<mgrwt>
<rscale>  1 0.30000000E+03</rscale>
<asrwt>0</asrwt>
<pdfrwt beam="1">  1        1 0.10580017E-01 0.30000000E+03</pdfrwt>
<pdfrwt beam="2">0</pdfrwt>
<totfact> 0.69922645E+02</totfact>
</mgrwt>
</event>
<event>
 6    1  0.1956957E-002  0.3000000E+03  0.7818608E-02  0.1093470E+00
          1   -1    0    0  502    0  0.00000000000E+00  0.00000000000E+00  0.25228511016E+01  0.25228511016E+01  0.00000000000E+00 0.  1.
         13   -1    0    0    0    0 -0.00000000000E+00 -0.00000000000E+00 -0.10000000000E+04  0.10000000000E+04  0.00000000000E+00 0.  1.
    9000005    2    1    2  501    0  0.30074533784E+02  0.16127568733E+02 -0.86618582017E+03  0.86686891988E+03  0.43901186471E+01 0.  0.
         13    1    3    3    0    0  0.65627244419E+01  0.49174157051E+01 -0.17390583336E+03  0.17409907871E+03  0.00000000000E+00 0.  1.
          1    1    3    3  501    0  0.23511809342E+02  0.11210153028E+02 -0.69227998680E+03  0.69276984117E+03  0.00000000000E+00 0.  1.
         21    1    1    2  502  501 -0.30074533784E+02 -0.16127568733E+02 -0.13129132873E+03  0.13565393122E+03  0.00000000000E+00 0.  1.
<mgrwt>
<rscale>  1 0.30000000E+03</rscale>
<asrwt>0</asrwt>
<pdfrwt beam="1">  1        1 0.91740234E-02 0.30000000E+03</pdfrwt>
<pdfrwt beam="2">0</pdfrwt>
<totfact> 0.85146753E+02</totfact>
</mgrwt>
</event>
<event>
 6    1  0.1956957E-002  0.3000000E+03  0.7818608E-02  0.1093470E+00
          1   -1    0    0  502    0  0.00000000000E+00  0.00000000000E+00  0.39899797767E+01  0.39899797767E+01  0.00000000000E+00 0.  1.
         13   -1    0    0    0    0 -0.00000000000E+00 -0.00000000000E+00 -0.10000000000E+04  0.10000000000E+04  0.00000000000E+00 0.  1.
    9000005    2    1    2  501    0  0.32534169027E+02  0.21647347580E+02 -0.89221850406E+03  0.89308570286E+03  0.45971565844E+01 0.  0.
         13    1    3    3    0    0  0.29439150050E+02  0.20868436087E+02 -0.80372815337E+03  0.80453781745E+03  0.00000000000E+00 0.  1.
          3    1    3    3  501    0  0.30950189773E+01  0.77891149369E+00 -0.88490350694E+02  0.88547885415E+02  0.00000000000E+00 0.  1.
         21    1    1    2  502  501 -0.32534169027E+02 -0.21647347580E+02 -0.10379151616E+03  0.11090427692E+03  0.00000000000E+00 0.  1.
<mgrwt>
<rscale>  1 0.30000000E+03</rscale>
<asrwt>0</asrwt>
<pdfrwt beam="1">  1        1 0.14509048E-01 0.30000000E+03</pdfrwt>
<pdfrwt beam="2">0</pdfrwt>
<totfact> 0.45386557E+02</totfact>
</mgrwt>
</event>
<event>
 6    1  0.1956957E-002  0.3000000E+03  0.7818608E-02  0.1093470E+00
          1   -1    0    0  502    0  0.00000000000E+00  0.00000000000E+00  0.78008156571E+01  0.78008156571E+01  0.00000000000E+00 0.  1.
         13   -1    0    0    0    0 -0.00000000000E+00 -0.00000000000E+00 -0.10000000000E+04  0.10000000000E+04  0.00000000000E+00 0.  1.
    9000005    2    1    2  501    0  0.30671889069E+02 -0.77601778313E+02 -0.66035943276E+03  0.66563065111E+03  0.51751796376E+01 0.  0.
         13    1    3    3    0    0  0.21729115093E+02 -0.51437972150E+02 -0.45775496185E+03  0.46114815897E+03  0.00000000000E+00 0.  1.
          3    1    3    3  501    0  0.89427739762E+01 -0.26163806162E+02 -0.20260447091E+03  0.20448249214E+03  0.00000000000E+00 0.  1.
         21    1    1    2  502  501 -0.30671889069E+02  0.77601778313E+02 -0.33183975158E+03  0.34217016455E+03  0.00000000000E+00 0.  1.
<mgrwt>
<rscale>  1 0.30000000E+03</rscale>
<asrwt>0</asrwt>
<pdfrwt beam="1">  1        1 0.28366662E-01 0.30000000E+03</pdfrwt>
<pdfrwt beam="2">0</pdfrwt>
<totfact> 0.18534976E+02</totfact>
</mgrwt>
</event>
<event>
 6    1  0.1956957E-002  0.3000000E+03  0.7818608E-02  0.1093470E+00
          1   -1    0    0  502    0  0.00000000000E+00  0.00000000000E+00  0.49978783890E+01  0.49978783890E+01  0.00000000000E+00 0.  1.
         13   -1    0    0    0    0 -0.00000000000E+00 -0.00000000000E+00 -0.10000000000E+04  0.10000000000E+04  0.00000000000E+00 0.  1.
    9000005    2    1    2  501    0 -0.33006903645E+02 -0.24007162513E+02 -0.90773582569E+03  0.90865886270E+03  0.32863325987E+01 0.  0.
         13    1    3    3    0    0 -0.19665384943E+02 -0.15995285312E+02 -0.54405329037E+03  0.54464351577E+03  0.00000000000E+00 0.  1.
          1    1    3    3  501    0 -0.13341518702E+02 -0.80118772011E+01 -0.36368253532E+03  0.36401534692E+03  0.00000000000E+00 0.  1.
         21    1    1    2  502  501  0.33006903645E+02  0.24007162513E+02 -0.87266295922E+02  0.96339015690E+02  0.00000000000E+00 0.  1.
<mgrwt>
<rscale>  1 0.30000000E+03</rscale>
<asrwt>0</asrwt>
<pdfrwt beam="1">  1        1 0.18174142E-01 0.30000000E+03</pdfrwt>
<pdfrwt beam="2">0</pdfrwt>
<totfact> 0.33472680E+02</totfact>
</mgrwt>
</event>
<event>
 6    1  0.1956957E-002  0.3000000E+03  0.7818608E-02  0.1093470E+00
          3   -1    0    0  502    0  0.00000000000E+00  0.00000000000E+00  0.23179327141E+01  0.23179327141E+01  0.00000000000E+00 0.  1.
         13   -1    0    0    0    0 -0.00000000000E+00 -0.00000000000E+00 -0.10000000000E+04  0.10000000000E+04  0.00000000000E+00 0.  1.
    9000005    2    1    2  501    0  0.17741372463E+02 -0.33263087270E+02 -0.18943942078E+03  0.19319657908E+03  0.40539797874E+01 0.  0.
         13    1    3    3    0    0  0.11036769499E+02 -0.21115144179E+02 -0.12935062250E+03  0.13152658718E+03  0.00000000000E+00 0.  1.
          1    1    3    3  501    0  0.67046029632E+01 -0.12147943091E+02 -0.60088798283E+02  0.61669991903E+02  0.00000000000E+00 0.  1.
         21    1    1    2  502  501 -0.17741372463E+02  0.33263087270E+02 -0.80824264651E+03  0.80912135363E+03  0.00000000000E+00 0.  1.
<mgrwt>
<rscale>  1 0.30000000E+03</rscale>
<asrwt>0</asrwt>
<pdfrwt beam="1">  1        3 0.84288640E-02 0.30000000E+03</pdfrwt>
<pdfrwt beam="2">0</pdfrwt>
<totfact> 0.43591735E+02</totfact>
</mgrwt>
</event>
<event>
 6    1  0.1956957E-002  0.3000000E+03  0.7818608E-02  0.1093470E+00
          1   -1    0    0  502    0  0.00000000000E+00  0.00000000000E+00  0.22357401496E+01  0.22357401496E+01  0.00000000000E+00 0.  1.
         13   -1    0    0    0    0 -0.00000000000E+00 -0.00000000000E+00 -0.10000000000E+04  0.10000000000E+04  0.00000000000E+00 0.  1.
    9000005    2    1    2  501    0  0.46890931259E+02  0.36548717945E+01 -0.54443211642E+03  0.54647028535E+03  0.33653912035E+01 0.  0.
         13    1    3    3    0    0  0.43143039666E+02  0.26779758830E+01 -0.50635507425E+03  0.50819676764E+03  0.00000000000E+00 0.  1.
          1    1    3    3  501    0  0.37478915939E+01  0.97689591153E+00 -0.38077042178E+02  0.38273517712E+02  0.00000000000E+00 0.  1.
         21    1    1    2  502  501 -0.46890931259E+02 -0.36548717945E+01 -0.45333214343E+03  0.45576545480E+03  0.00000000000E+00 0.  1.
<mgrwt>
<rscale>  1 0.30000000E+03</rscale>
<asrwt>0</asrwt>
<pdfrwt beam="1">  1        1 0.81299813E-02 0.30000000E+03</pdfrwt>
<pdfrwt beam="2">0</pdfrwt>
<totfact> 0.10069955E+03</totfact>
</mgrwt>
</event>
<event>
 6    1  0.1956957E-002  0.3000000E+03  0.7818608E-02  0.1093470E+00
          1   -1    0    0  502    0  0.00000000000E+00  0.00000000000E+00  0.19333198637E+01  0.19333198637E+01  0.00000000000E+00 0.  1.
         13   -1    0    0    0    0 -0.00000000000E+00 -0.00000000000E+00 -0.10000000000E+04  0.10000000000E+04  0.00000000000E+00 0.  1.
    9000005    2    1    2  501    0 -0.68151304760E+01 -0.35312793225E+02 -0.78668855391E+03  0.78751748179E+03  0.33858392320E+01 0.  0.
         13    1    3    3    0    0 -0.57199209172E+01 -0.32669965515E+02 -0.70687768906E+03  0.70765536205E+03  0.00000000000E+00 0.  1.
          3    1    3    3  501    0 -0.10952095588E+01 -0.26428277105E+01 -0.79810864847E+02  0.79862119743E+02  0.00000000000E+00 0.  1.
         21    1    1    2  502  501  0.68151304760E+01  0.35312793225E+02 -0.21137812623E+03  0.21441583807E+03  0.00000000000E+00 0.  1.
<mgrwt>
<rscale>  1 0.30000000E+03</rscale>
<asrwt>0</asrwt>
<pdfrwt beam="1">  1        1 0.70302689E-02 0.30000000E+03</pdfrwt>
<pdfrwt beam="2">0</pdfrwt>
<totfact> 0.12333479E+03</totfact>
</mgrwt>
</event>
<event>
 6    1  0.1956957E-002  0.3000000E+03  0.7818608E-02  0.1093470E+00
          1   -1    0    0  502    0  0.00000000000E+00  0.00000000000E+00  0.14613549459E+01  0.14613549459E+01  0.00000000000E+00 0.  1.
         13   -1    0    0    0    0 -0.00000000000E+00 -0.00000000000E+00 -0.10000000000E+04  0.10000000000E+04  0.00000000000E+00 0.  1.
    9000005    2    1    2  501    0 -0.17284558889E+02 -0.25611324015E+02 -0.79346829554E+03  0.79407634067E+03  0.32562095785E+01 0.  0.
         13    1    3    3    0    0 -0.64087256941E+01 -0.12330678442E+02 -0.34665192970E+03  0.34693036443E+03  0.00000000000E+00 0.  1.
          1    1    3    3  501    0 -0.10875833195E+02 -0.13280645573E+02 -0.44681636584E+03  0.44714597625E+03  0.00000000000E+00 0.  1.
         21    1    1    2  502  501  0.17284558889E+02  0.25611324015E+02 -0.20507034952E+03  0.20738501427E+03  0.00000000000E+00 0.  1.
<mgrwt>
<rscale>  1 0.30000000E+03</rscale>
<asrwt>0</asrwt>
<pdfrwt beam="1">  1        1 0.53140292E-02 0.30000000E+03</pdfrwt>
<pdfrwt beam="2">0</pdfrwt>
<totfact> 0.18259944E+03</totfact>
</mgrwt>
</event>
<event>
 6    1  0.1956957E-002  0.3000000E+03  0.7818608E-02  0.1093470E+00
          3   -1    0    0  502    0  0.00000000000E+00  0.00000000000E+00  0.23841387054E+01  0.23841387054E+01  0.00000000000E+00 0.  1.
         13   -1    0    0    0    0 -0.00000000000E+00 -0.00000000000E+00 -0.10000000000E+04  0.10000000000E+04  0.00000000000E+00 0.  1.
    9000005    2    1    2  501    0 -0.39224155424E+01  0.31555641971E+02 -0.87897189602E+03  0.87955281379E+03  0.32271307331E+01 0.  0.
         13    1    3    3    0    0  0.42576904909E+00  0.87590355645E+00 -0.25318783437E+02  0.25337507397E+02  0.00000000000E+00 0.  1.
          3    1    3    3  501    0 -0.43481845915E+01  0.30679738414E+02 -0.85365311258E+03  0.85421530639E+03  0.00000000000E+00 0.  1.
         21    1    1    2  502  501  0.39224155424E+01 -0.31555641971E+02 -0.11864396528E+03  0.12283132491E+03  0.00000000000E+00 0.  1.
<mgrwt>
<rscale>  1 0.30000000E+03</rscale>
<asrwt>0</asrwt>
<pdfrwt beam="1">  1        3 0.86696136E-02 0.30000000E+03</pdfrwt>
<pdfrwt beam="2">0</pdfrwt>
<totfact> 0.41662356E+02</totfact>
</mgrwt>
</event>
<event>
 6    1  0.1956957E-002  0.3000000E+03  0.7818608E-02  0.1093470E+00
          1   -1    0    0  502    0  0.00000000000E+00  0.00000000000E+00  0.19898501191E+01  0.19898501191E+01  0.00000000000E+00 0.  1.
         13   -1    0    0    0    0 -0.00000000000E+00 -0.00000000000E+00 -0.10000000000E+04  0.10000000000E+04  0.00000000000E+00 0.  1.
    9000005    2    1    2  501    0  0.13122314325E+02 -0.41333406386E+02 -0.61313613428E+03  0.61468034404E+03  0.39192561786E+01 0.  0.
         13    1    3    3    0    0  0.11163922135E+02 -0.35250543902E+02 -0.54072135614E+03  0.54198415013E+03  0.00000000000E+00 0.  1.
          1    1    3    3  501    0  0.19583921900E+01 -0.60828624839E+01 -0.72414778137E+02  0.72696193908E+02  0.00000000000E+00 0.  1.
         21    1    1    2  502  501 -0.13122314325E+02  0.41333406386E+02 -0.38487401560E+03  0.38730950608E+03  0.00000000000E+00 0.  1.
<mgrwt>
<rscale>  1 0.30000000E+03</rscale>
<asrwt>0</asrwt>
<pdfrwt beam="1">  1        1 0.72358339E-02 0.30000000E+03</pdfrwt>
<pdfrwt beam="2">0</pdfrwt>
<totfact> 0.11846535E+03</totfact>
</mgrwt>
</event>
<event>
 6    1  0.1956957E-002  0.3000000E+03  0.7818608E-02  0.1093470E+00
          3   -1    0    0  502    0  0.00000000000E+00  0.00000000000E+00  0.40715569426E+01  0.40715569426E+01  0.00000000000E+00 0.  1.
         13   -1    0    0    0    0 -0.00000000000E+00 -0.00000000000E+00 -0.10000000000E+04  0.10000000000E+04  0.00000000000E+00 0.  1.
    9000005    2    1    2  501    0 -0.43410530837E+02 -0.39243111168E+02 -0.69757356214E+03  0.70003187051E+03  0.33539774409E+01 0.  0.
         13    1    3    3    0    0 -0.18926151008E+02 -0.19146626936E+02 -0.31198335489E+03  0.31314278890E+03  0.00000000000E+00 0.  1.
          1    1    3    3  501    0 -0.24484379829E+02 -0.20096484232E+02 -0.38559020726E+03  0.38688908161E+03  0.00000000000E+00 0.  1.
         21    1    1    2  502  501  0.43410530837E+02  0.39243111168E+02 -0.29835488091E+03  0.30403968643E+03  0.00000000000E+00 0.  1.
<mgrwt>
<rscale>  1 0.30000000E+03</rscale>
<asrwt>0</asrwt>
<pdfrwt beam="1">  1        3 0.14805693E-01 0.30000000E+03</pdfrwt>
<pdfrwt beam="2">0</pdfrwt>
<totfact> 0.17024214E+02</totfact>
</mgrwt>
</event>
<event>
 6    1  0.1956957E-002  0.3000000E+03  0.7818608E-02  0.1093470E+00
          1   -1    0    0  502    0  0.00000000000E+00  0.00000000000E+00  0.19005419482E+01  0.19005419482E+01  0.00000000000E+00 0.  1.
         13   -1    0    0    0    0 -0.00000000000E+00 -0.00000000000E+00 -0.10000000000E+04  0.10000000000E+04  0.00000000000E+00 0.  1.
    9000005    2    1    2  501    0  0.80586015332E+01 -0.42368241818E+02 -0.56779100728E+03  0.56943624078E+03  0.33159312170E+01 0.  0.
         13    1    3    3    0    0  0.12351361520E+01 -0.34289185830E+01 -0.58308441058E+02  0.58422233290E+02  0.00000000000E+00 0.  1.
          1    1    3    3  501    0  0.68234653812E+01 -0.38939323235E+02 -0.50948256622E+03  0.51101400749E+03  0.00000000000E+00 0.  1.
         21    1    1    2  502  501 -0.80586015332E+01  0.42368241818E+02 -0.43030845078E+03  0.43246430116E+03  0.00000000000E+00 0.  1.
<mgrwt>
<rscale>  1 0.30000000E+03</rscale>
<asrwt>0</asrwt>
<pdfrwt beam="1">  1        1 0.69110762E-02 0.30000000E+03</pdfrwt>
<pdfrwt beam="2">0</pdfrwt>
<totfact> 0.12631965E+03</totfact>
</mgrwt>
</event>
<event>
 6    1  0.1956957E-002  0.3000000E+03  0.7818608E-02  0.1093470E+00
          1   -1    0    0  502    0  0.00000000000E+00  0.00000000000E+00  0.13344204982E+01  0.13344204982E+01  0.00000000000E+00 0.  1.
         13   -1    0    0    0    0 -0.00000000000E+00 -0.00000000000E+00 -0.10000000000E+04  0.10000000000E+04  0.00000000000E+00 0.  1.
    9000005    2    1    2  501    0 -0.25482284818E+02 -0.25146643809E+02 -0.59465167567E+03  0.59573740988E+03  0.32780507871E+01 0.  0.
         13    1    3    3    0    0 -0.86355053268E+01 -0.10513528174E+02 -0.21343374094E+03  0.21386693994E+03  0.00000000000E+00 0.  1.
          1    1    3    3  501    0 -0.16846779491E+02 -0.14633115634E+02 -0.38121793472E+03  0.38187046993E+03  0.00000000000E+00 0.  1.
         21    1    1    2  502  501  0.25482284818E+02  0.25146643809E+02 -0.40401390383E+03  0.40559701062E+03  0.00000000000E+00 0.  1.
<mgrwt>
<rscale>  1 0.30000000E+03</rscale>
<asrwt>0</asrwt>
<pdfrwt beam="1">  1        1 0.48524484E-02 0.30000000E+03</pdfrwt>
<pdfrwt beam="2">0</pdfrwt>
<totfact> 0.20747129E+03</totfact>
</mgrwt>
</event>
<event>
 6    1  0.1956957E-002  0.3000000E+03  0.7818608E-02  0.1093470E+00
          3   -1    0    0  502    0  0.00000000000E+00  0.00000000000E+00  0.64406749260E+01  0.64406749260E+01  0.00000000000E+00 0.  1.
         13   -1    0    0    0    0 -0.00000000000E+00 -0.00000000000E+00 -0.10000000000E+04  0.10000000000E+04  0.00000000000E+00 0.  1.
    9000005    2    1    2  501    0  0.27945687663E+02  0.21881191188E+02 -0.94808580308E+03  0.94875541520E+03  0.32248856695E+01 0.  0.
         13    1    3    3    0    0  0.25867177441E+02  0.19542595505E+02 -0.88193580244E+03  0.88253146320E+03  0.00000000000E+00 0.  1.
          1    1    3    3  501    0  0.20785102220E+01  0.23385956834E+01 -0.66150000640E+02  0.66223952006E+02  0.00000000000E+00 0.  1.
         21    1    1    2  502  501 -0.27945687663E+02 -0.21881191188E+02 -0.45473521992E+02  0.57685259721E+02  0.00000000000E+00 0.  1.
<mgrwt>
<rscale>  1 0.30000000E+03</rscale>
<asrwt>0</asrwt>
<pdfrwt beam="1">  1        3 0.23420685E-01 0.30000000E+03</pdfrwt>
<pdfrwt beam="2">0</pdfrwt>
<totfact> 0.74628149E+01</totfact>
</mgrwt>
</event>
<event>
 6    1  0.1956957E-002  0.3000000E+03  0.7818608E-02  0.1093470E+00
          1   -1    0    0  502    0  0.00000000000E+00  0.00000000000E+00  0.73747782407E+01  0.73747782407E+01  0.00000000000E+00 0.  1.
         13   -1    0    0    0    0 -0.00000000000E+00 -0.00000000000E+00 -0.10000000000E+04  0.10000000000E+04  0.00000000000E+00 0.  1.
    9000005    2    1    2  501    0  0.27443444880E+02  0.30611993091E+02 -0.93850220104E+03  0.93940759381E+03  0.31637256750E+01 0.  0.
         13    1    3    3    0    0  0.17480771724E+02  0.17204621246E+02 -0.56412611064E+03  0.56465905207E+03  0.00000000000E+00 0.  1.
          1    1    3    3  501    0  0.99626731556E+01  0.13407371845E+02 -0.37437609040E+03  0.37474854174E+03  0.00000000000E+00 0.  1.
         21    1    1    2  502  501 -0.27443444880E+02 -0.30611993091E+02 -0.54123020720E+02  0.67967184433E+02  0.00000000000E+00 0.  1.
<mgrwt>
<rscale>  1 0.30000000E+03</rscale>
<asrwt>0</asrwt>
<pdfrwt beam="1">  1        1 0.26817432E-01 0.30000000E+03</pdfrwt>
<pdfrwt beam="2">0</pdfrwt>
<totfact> 0.19956492E+02</totfact>
</mgrwt>
</event>
<event>
 6    1  0.1956957E-002  0.3000000E+03  0.7818608E-02  0.1093470E+00
          1   -1    0    0  502    0  0.00000000000E+00  0.00000000000E+00  0.17110590900E+01  0.17110590900E+01  0.00000000000E+00 0.  1.
         13   -1    0    0    0    0 -0.00000000000E+00 -0.00000000000E+00 -0.10000000000E+04  0.10000000000E+04  0.00000000000E+00 0.  1.
    9000005    2    1    2  501    0 -0.31004422344E+02 -0.23196190337E+02 -0.66639719798E+03  0.66756817576E+03  0.79187352990E+01 0.  0.
         13    1    3    3    0    0 -0.26696591494E+02 -0.21209992194E+02 -0.61774574662E+03  0.61868601021E+03  0.00000000000E+00 0.  1.
          3    1    3    3  501    0 -0.43078308501E+01 -0.19861981432E+01 -0.48651451359E+02  0.48882165551E+02  0.00000000000E+00 0.  1.
         21    1    1    2  502  501  0.31004422344E+02  0.23196190337E+02 -0.33189174293E+03  0.33414288333E+03  0.00000000000E+00 0.  1.
<mgrwt>
<rscale>  1 0.30000000E+03</rscale>
<asrwt>0</asrwt>
<pdfrwt beam="1">  1        1 0.62220462E-02 0.30000000E+03</pdfrwt>
<pdfrwt beam="2">0</pdfrwt>
<totfact> 0.14633388E+03</totfact>
</mgrwt>
</event>
<event>
 6    1  0.1956957E-002  0.3000000E+03  0.7818608E-02  0.1093470E+00
          1   -1    0    0  502    0  0.00000000000E+00  0.00000000000E+00  0.38366540974E+01  0.38366540974E+01  0.00000000000E+00 0.  1.
         13   -1    0    0    0    0 -0.00000000000E+00 -0.00000000000E+00 -0.10000000000E+04  0.10000000000E+04  0.00000000000E+00 0.  1.
    9000005    2    1    2  501    0 -0.52309377558E+02  0.46322782371E+01 -0.76392014336E+03  0.76573030368E+03  0.33441829125E+01 0.  0.
         13    1    3    3    0    0 -0.49517652174E+02  0.49888506743E+01 -0.71600044714E+03  0.71772803123E+03  0.00000000000E+00 0.  1.
          3    1    3    3  501    0 -0.27917253844E+01 -0.35657243725E+00 -0.47919696220E+02  0.48002272450E+02  0.00000000000E+00 0.  1.
         21    1    1    2  502  501  0.52309377558E+02 -0.46322782371E+01 -0.23224320254E+03  0.23810635041E+03  0.00000000000E+00 0.  1.
<mgrwt>
<rscale>  1 0.30000000E+03</rscale>
<asrwt>0</asrwt>
<pdfrwt beam="1">  1        1 0.13951499E-01 0.30000000E+03</pdfrwt>
<pdfrwt beam="2">0</pdfrwt>
<totfact> 0.47871965E+02</totfact>
</mgrwt>
</event>
<event>
 6    1  0.1956957E-002  0.3000000E+03  0.7818608E-02  0.1093470E+00
          1   -1    0    0  502    0  0.00000000000E+00  0.00000000000E+00  0.14029260131E+01  0.14029260131E+01  0.00000000000E+00 0.  1.
         13   -1    0    0    0    0 -0.00000000000E+00 -0.00000000000E+00 -0.10000000000E+04  0.10000000000E+04  0.00000000000E+00 0.  1.
    9000005    2    1    2  501    0  0.26123127803E+02  0.14843298677E+02 -0.79722439573E+03  0.79780111641E+03  0.41403973085E+01 0.  0.
         13    1    3    3    0    0  0.53884944302E+00  0.11987645701E+01 -0.40963723668E+02  0.40984802695E+02  0.00000000000E+00 0.  1.
          3    1    3    3  501    0  0.25584278360E+02  0.13644534107E+02 -0.75626067206E+03  0.75681631372E+03  0.00000000000E+00 0.  1.
         21    1    1    2  502  501 -0.26123127803E+02 -0.14843298677E+02 -0.20137267826E+03  0.20360180960E+03  0.00000000000E+00 0.  1.
<mgrwt>
<rscale>  1 0.30000000E+03</rscale>
<asrwt>0</asrwt>
<pdfrwt beam="1">  1        1 0.51015599E-02 0.30000000E+03</pdfrwt>
<pdfrwt beam="2">0</pdfrwt>
<totfact> 0.19337326E+03</totfact>
</mgrwt>
</event>
<event>
 6    1  0.1956957E-002  0.3000000E+03  0.7818608E-02  0.1093470E+00
          1   -1    0    0  502    0  0.00000000000E+00  0.00000000000E+00  0.38207384789E+01  0.38207384789E+01  0.00000000000E+00 0.  1.
         13   -1    0    0    0    0 -0.00000000000E+00 -0.00000000000E+00 -0.10000000000E+04  0.10000000000E+04  0.00000000000E+00 0.  1.
    9000005    2    1    2  501    0  0.34108149662E+02 -0.12269408684E+02 -0.90454895215E+03  0.90528131562E+03  0.33984267729E+01 0.  0.
         13    1    3    3    0    0  0.49983766741E+01 -0.10600494208E+01 -0.15299491823E+03  0.15308021583E+03  0.00000000000E+00 0.  1.
          3    1    3    3  501    0  0.29109772987E+02 -0.11209359263E+02 -0.75155403392E+03  0.75220109979E+03  0.00000000000E+00 0.  1.
         21    1    1    2  502  501 -0.34108149662E+02  0.12269408684E+02 -0.91630309371E+02  0.98539422864E+02  0.00000000000E+00 0.  1.
<mgrwt>
<rscale>  1 0.30000000E+03</rscale>
<asrwt>0</asrwt>
<pdfrwt beam="1">  1        1 0.13893624E-01 0.30000000E+03</pdfrwt>
<pdfrwt beam="2">0</pdfrwt>
<totfact> 0.48143744E+02</totfact>
</mgrwt>
</event>
<event>
 6    1  0.1956957E-002  0.3000000E+03  0.7818608E-02  0.1093470E+00
          1   -1    0    0  502    0  0.00000000000E+00  0.00000000000E+00  0.16556552295E+01  0.16556552295E+01  0.00000000000E+00 0.  1.
         13   -1    0    0    0    0 -0.00000000000E+00 -0.00000000000E+00 -0.10000000000E+04  0.10000000000E+04  0.00000000000E+00 0.  1.
    9000005    2    1    2  501    0 -0.13594864555E+02 -0.30248485211E+02 -0.78858978286E+03  0.78929566031E+03  0.37419986272E+01 0.  0.
         13    1    3    3    0    0 -0.48158782936E+01 -0.14106346665E+02 -0.32416692499E+03  0.32450944048E+03  0.00000000000E+00 0.  1.
          3    1    3    3  501    0 -0.87789862617E+01 -0.16142138545E+02 -0.46442285787E+03  0.46478621984E+03  0.00000000000E+00 0.  1.
         21    1    1    2  502  501  0.13594864555E+02  0.30248485211E+02 -0.20975456191E+03  0.21235999491E+03  0.00000000000E+00 0.  1.
<mgrwt>
<rscale>  1 0.30000000E+03</rscale>
<asrwt>0</asrwt>
<pdfrwt beam="1">  1        1 0.60205772E-02 0.30000000E+03</pdfrwt>
<pdfrwt beam="2">0</pdfrwt>
<totfact> 0.15324676E+03</totfact>
</mgrwt>
</event>
<event>
 6    1  0.1956957E-002  0.3000000E+03  0.7818608E-02  0.1093470E+00
          1   -1    0    0  502    0  0.00000000000E+00  0.00000000000E+00  0.10677382400E+02  0.10677382400E+02  0.00000000000E+00 0.  1.
         13   -1    0    0    0    0 -0.00000000000E+00 -0.00000000000E+00 -0.10000000000E+04  0.10000000000E+04  0.00000000000E+00 0.  1.
    9000005    2    1    2  501    0  0.43481415800E+02 -0.93356596799E+00 -0.95304258577E+03  0.95404041766E+03  0.33827760372E+01 0.  0.
         13    1    3    3    0    0  0.35395857430E+02 -0.18189601736E+01 -0.79165694081E+03  0.79244992729E+03  0.00000000000E+00 0.  1.
          1    1    3    3  501    0  0.80855583694E+01  0.88539420559E+00 -0.16138564496E+03  0.16159049036E+03  0.00000000000E+00 0.  1.
         21    1    1    2  502  501 -0.43481415800E+02  0.93356596799E+00 -0.36280031833E+02  0.56636964742E+02  0.00000000000E+00 0.  1.
<mgrwt>
<rscale>  1 0.30000000E+03</rscale>
<asrwt>0</asrwt>
<pdfrwt beam="1">  1        1 0.38826927E-01 0.30000000E+03</pdfrwt>
<pdfrwt beam="2">0</pdfrwt>
<totfact> 0.12289178E+02</totfact>
</mgrwt>
</event>
<event>
 6    1  0.1956957E-002  0.3000000E+03  0.7818608E-02  0.1093470E+00
          1   -1    0    0  502    0  0.00000000000E+00  0.00000000000E+00  0.18352813250E+01  0.18352813250E+01  0.00000000000E+00 0.  1.
         13   -1    0    0    0    0 -0.00000000000E+00 -0.00000000000E+00 -0.10000000000E+04  0.10000000000E+04  0.00000000000E+00 0.  1.
    9000005    2    1    2  501    0  0.20002033810E+02 -0.25244288593E+02 -0.82576887615E+03  0.82645659966E+03  0.99457950027E+01 0.  0.
         13    1    3    3    0    0  0.20961422534E+02 -0.25032027532E+02 -0.79032926118E+03  0.79100336581E+03  0.00000000000E+00 0.  1.
          3    1    3    3  501    0 -0.95938872451E+00 -0.21226106088E+00 -0.35439614966E+02  0.35453233850E+02  0.00000000000E+00 0.  1.
         21    1    1    2  502  501 -0.20002033810E+02  0.25244288593E+02 -0.17239584253E+03  0.17537868167E+03  0.00000000000E+00 0.  1.
<mgrwt>
<rscale>  1 0.30000000E+03</rscale>
<asrwt>0</asrwt>
<pdfrwt beam="1">  1        1 0.66737643E-02 0.30000000E+03</pdfrwt>
<pdfrwt beam="2">0</pdfrwt>
<totfact> 0.13264933E+03</totfact>
</mgrwt>
</event>
<event>
 6    1  0.1956957E-002  0.3000000E+03  0.7818608E-02  0.1093470E+00
          1   -1    0    0  502    0  0.00000000000E+00  0.00000000000E+00  0.52377268288E+01  0.52377268288E+01  0.00000000000E+00 0.  1.
         13   -1    0    0    0    0 -0.00000000000E+00 -0.00000000000E+00 -0.10000000000E+04  0.10000000000E+04  0.00000000000E+00 0.  1.
    9000005    2    1    2  501    0  0.11897978549E+02 -0.67070208867E+02 -0.33766521376E+03  0.34461944045E+03  0.10236568836E+02 0.  0.
         13    1    3    3    0    0 -0.68880528492E+00 -0.22747251964E+02 -0.10560252786E+03  0.10802687543E+03  0.00000000000E+00 0.  1.
          3    1    3    3  501    0  0.12586783834E+02 -0.44322956903E+02 -0.23206268590E+03  0.23659256502E+03  0.00000000000E+00 0.  1.
         21    1    1    2  502  501 -0.11897978549E+02  0.67070208867E+02 -0.65709705941E+03  0.66061828638E+03  0.00000000000E+00 0.  1.
<mgrwt>
<rscale>  1 0.30000000E+03</rscale>
<asrwt>0</asrwt>
<pdfrwt beam="1">  1        1 0.19046320E-01 0.30000000E+03</pdfrwt>
<pdfrwt beam="2">0</pdfrwt>
<totfact> 0.31432020E+02</totfact>
</mgrwt>
</event>
<event>
 6    1  0.1956957E-002  0.3000000E+03  0.7818608E-02  0.1093470E+00
          1   -1    0    0  502    0  0.00000000000E+00  0.00000000000E+00  0.10576755559E+01  0.10576755559E+01  0.00000000000E+00 0.  1.
         13   -1    0    0    0    0 -0.00000000000E+00 -0.00000000000E+00 -0.10000000000E+04  0.10000000000E+04  0.00000000000E+00 0.  1.
    9000005    2    1    2  501    0  0.29479833265E+02 -0.87744818987E+01 -0.65846416928E+03  0.65919304409E+03  0.37888061449E+01 0.  0.
         13    1    3    3    0    0  0.18912500659E+02 -0.40472321903E+01 -0.38959844304E+03  0.39007820958E+03  0.00000000000E+00 0.  1.
          1    1    3    3  501    0  0.10567332606E+02 -0.47272497084E+01 -0.26886572624E+03  0.26911483452E+03  0.00000000000E+00 0.  1.
         21    1    1    2  502  501 -0.29479833265E+02  0.87744818987E+01 -0.34047815516E+03  0.34186463146E+03  0.00000000000E+00 0.  1.
<mgrwt>
<rscale>  1 0.30000000E+03</rscale>
<asrwt>0</asrwt>
<pdfrwt beam="1">  1        1 0.38461010E-02 0.30000000E+03</pdfrwt>
<pdfrwt beam="2">0</pdfrwt>
<totfact> 0.28775884E+03</totfact>
</mgrwt>
</event>
<event>
 6    1  0.1956957E-002  0.3000000E+03  0.7818608E-02  0.1093470E+00
          3   -1    0    0  502    0  0.00000000000E+00  0.00000000000E+00  0.36773176445E+01  0.36773176445E+01  0.00000000000E+00 0.  1.
         13   -1    0    0    0    0 -0.00000000000E+00 -0.00000000000E+00 -0.10000000000E+04  0.10000000000E+04  0.00000000000E+00 0.  1.
    9000005    2    1    2  501    0 -0.53885265945E+01 -0.59894351280E+02 -0.56043643081E+03  0.56366232493E+03  0.31391118815E+01 0.  0.
         13    1    3    3    0    0 -0.32255371078E+01 -0.38435291805E+02 -0.37315913553E+03  0.37514719268E+03  0.00000000000E+00 0.  1.
          1    1    3    3  501    0 -0.21629894866E+01 -0.21459059475E+02 -0.18727729528E+03  0.18851513225E+03  0.00000000000E+00 0.  1.
         21    1    1    2  502  501  0.53885265945E+01  0.59894351280E+02 -0.43588625154E+03  0.44001499272E+03  0.00000000000E+00 0.  1.
<mgrwt>
<rscale>  1 0.30000000E+03</rscale>
<asrwt>0</asrwt>
<pdfrwt beam="1">  1        3 0.13372092E-01 0.30000000E+03</pdfrwt>
<pdfrwt beam="2">0</pdfrwt>
<totfact> 0.20276924E+02</totfact>
</mgrwt>
</event>
<event>
 6    1  0.1956957E-002  0.3000000E+03  0.7818608E-02  0.1093470E+00
          1   -1    0    0  502    0  0.00000000000E+00  0.00000000000E+00  0.12192171748E+01  0.12192171748E+01  0.00000000000E+00 0.  1.
         13   -1    0    0    0    0 -0.00000000000E+00 -0.00000000000E+00 -0.10000000000E+04  0.10000000000E+04  0.00000000000E+00 0.  1.
    9000005    2    1    2  501    0 -0.20616929023E+02  0.24442534690E+02 -0.69897170252E+03  0.69970971500E+03  0.31223526483E+01 0.  0.
         13    1    3    3    0    0 -0.81176152917E+01  0.88199605104E+01 -0.23167913025E+03  0.23198902296E+03  0.00000000000E+00 0.  1.
          3    1    3    3  501    0 -0.12499313732E+02  0.15622574180E+02 -0.46729257227E+03  0.46772069204E+03  0.00000000000E+00 0.  1.
         21    1    1    2  502  501  0.20616929023E+02 -0.24442534690E+02 -0.29980908031E+03  0.30150950217E+03  0.00000000000E+00 0.  1.
<mgrwt>
<rscale>  1 0.30000000E+03</rscale>
<asrwt>0</asrwt>
<pdfrwt beam="1">  1        1 0.44335263E-02 0.30000000E+03</pdfrwt>
<pdfrwt beam="2">0</pdfrwt>
<totfact> 0.23557136E+03</totfact>
</mgrwt>
</event>
<event>
 6    1  0.1956957E-002  0.3000000E+03  0.7818608E-02  0.1093470E+00
          1   -1    0    0  502    0  0.00000000000E+00  0.00000000000E+00  0.30790246808E+01  0.30790246808E+01  0.00000000000E+00 0.  1.
         13   -1    0    0    0    0 -0.00000000000E+00 -0.00000000000E+00 -0.10000000000E+04  0.10000000000E+04  0.00000000000E+00 0.  1.
    9000005    2    1    2  501    0 -0.26062275660E+02 -0.48830407724E+02 -0.52722149516E+03  0.53012950032E+03  0.33363483085E+01 0.  0.
         13    1    3    3    0    0 -0.20154660050E+01 -0.59175135450E+01 -0.56608755906E+02  0.56952878022E+02  0.00000000000E+00 0.  1.
          1    1    3    3  501    0 -0.24046809655E+02 -0.42912894179E+02 -0.47061273926E+03  0.47317662230E+03  0.00000000000E+00 0.  1.
         21    1    1    2  502  501  0.26062275660E+02  0.48830407724E+02 -0.46969948016E+03  0.47294952436E+03  0.00000000000E+00 0.  1.
<mgrwt>
<rscale>  1 0.30000000E+03</rscale>
<asrwt>0</asrwt>
<pdfrwt beam="1">  1        1 0.11196477E-01 0.30000000E+03</pdfrwt>
<pdfrwt beam="2">0</pdfrwt>
<totfact> 0.64684707E+02</totfact>
</mgrwt>
</event>
<event>
 6    1  0.1956957E-002  0.3000000E+03  0.7818608E-02  0.1093470E+00
          3   -1    0    0  502    0  0.00000000000E+00  0.00000000000E+00  0.66153727252E+01  0.66153727252E+01  0.00000000000E+00 0.  1.
         13   -1    0    0    0    0 -0.00000000000E+00 -0.00000000000E+00 -0.10000000000E+04  0.10000000000E+04  0.00000000000E+00 0.  1.
    9000005    2    1    2  501    0 -0.60187079825E+02  0.38000753535E+01 -0.83431321007E+03  0.83649588259E+03  0.31470543427E+01 0.  0.
         13    1    3    3    0    0 -0.47094956519E+02  0.20199419730E+01 -0.63906648801E+03  0.64080261485E+03  0.00000000000E+00 0.  1.
          3    1    3    3  501    0 -0.13092123306E+02  0.17801333805E+01 -0.19524672205E+03  0.19569326774E+03  0.00000000000E+00 0.  1.
         21    1    1    2  502  501  0.60187079825E+02 -0.38000753535E+01 -0.15907141721E+03  0.17011949013E+03  0.00000000000E+00 0.  1.
<mgrwt>
<rscale>  1 0.30000000E+03</rscale>
<asrwt>0</asrwt>
<pdfrwt beam="1">  1        3 0.24055952E-01 0.30000000E+03</pdfrwt>
<pdfrwt beam="2">0</pdfrwt>
<totfact> 0.70968751E+01</totfact>
</mgrwt>
</event>
<event>
 6    1  0.1956957E-002  0.3000000E+03  0.7818608E-02  0.1093470E+00
          1   -1    0    0  502    0  0.00000000000E+00  0.00000000000E+00  0.65923035207E+02  0.65923035207E+02  0.00000000000E+00 0.  1.
         13   -1    0    0    0    0 -0.00000000000E+00 -0.00000000000E+00 -0.10000000000E+04  0.10000000000E+04  0.00000000000E+00 0.  1.
    9000005    2    1    2  501    0  0.20356792249E+02  0.69492018019E+02 -0.97836013169E+03  0.98104348272E+03  0.37720228526E+01 0.  0.
         13    1    3    3    0    0  0.60245738542E+01  0.25502698914E+02 -0.36968899435E+03  0.37061656153E+03  0.00000000000E+00 0.  1.
          1    1    3    3  501    0  0.14332218395E+02  0.43989319105E+02 -0.60867113734E+03  0.61042692119E+03  0.00000000000E+00 0.  1.
         21    1    1    2  502  501 -0.20356792249E+02 -0.69492018019E+02  0.44283166897E+02  0.84879552482E+02  0.00000000000E+00 0.  1.
<mgrwt>
<rscale>  1 0.30000000E+03</rscale>
<asrwt>0</asrwt>
<pdfrwt beam="1">  1        1 0.23972063E+00 0.30000000E+03</pdfrwt>
<pdfrwt beam="2">0</pdfrwt>
<totfact> 0.66639109E+00</totfact>
</mgrwt>
</event>
<event>
 6    1  0.1956957E-002  0.3000000E+03  0.7818608E-02  0.1093470E+00
          1   -1    0    0  502    0  0.00000000000E+00  0.00000000000E+00  0.25609894844E+01  0.25609894844E+01  0.00000000000E+00 0.  1.
         13   -1    0    0    0    0 -0.00000000000E+00 -0.00000000000E+00 -0.10000000000E+04  0.10000000000E+04  0.00000000000E+00 0.  1.
    9000005    2    1    2  501    0 -0.48006401072E+02  0.14195919133E+02 -0.56692728394E+03  0.56914838540E+03  0.41473677181E+01 0.  0.
         13    1    3    3    0    0 -0.46955109457E+02  0.14423970915E+02 -0.55755007869E+03  0.55970967786E+03  0.00000000000E+00 0.  1.
          1    1    3    3  501    0 -0.10512916147E+01 -0.22805178161E+00 -0.93772052548E+01  0.94387075421E+01  0.00000000000E+00 0.  1.
         21    1    1    2  502  501  0.48006401072E+02 -0.14195919133E+02 -0.43051172657E+03  0.43341260409E+03  0.00000000000E+00 0.  1.
<mgrwt>
<rscale>  1 0.30000000E+03</rscale>
<asrwt>0</asrwt>
<pdfrwt beam="1">  1        1 0.93127087E-02 0.30000000E+03</pdfrwt>
<pdfrwt beam="2">0</pdfrwt>
<totfact> 0.83395027E+02</totfact>
</mgrwt>
</event>
<event>
 6    1  0.1956957E-002  0.3000000E+03  0.7818608E-02  0.1093470E+00
          1   -1    0    0  502    0  0.00000000000E+00  0.00000000000E+00  0.30406718573E+02  0.30406718573E+02  0.00000000000E+00 0.  1.
         13   -1    0    0    0    0 -0.00000000000E+00 -0.00000000000E+00 -0.10000000000E+04  0.10000000000E+04  0.00000000000E+00 0.  1.
    9000005    2    1    2  501    0  0.14362229744E+02  0.26979515942E+02 -0.99201789768E+03  0.99249852239E+03  0.44316719357E+01 0.  0.
         13    1    3    3    0    0  0.11438478214E+02  0.18114298898E+02 -0.73047441636E+03  0.73078850535E+03  0.00000000000E+00 0.  1.
          1    1    3    3  501    0  0.29237515302E+01  0.88652170439E+01 -0.26154348132E+03  0.26171001704E+03  0.00000000000E+00 0.  1.
         21    1    1    2  502  501 -0.14362229744E+02 -0.26979515942E+02  0.22424616251E+02  0.37908196180E+02  0.00000000000E+00 0.  1.
<mgrwt>
<rscale>  1 0.30000000E+03</rscale>
<asrwt>0</asrwt>
<pdfrwt beam="1">  1        1 0.11057012E+00 0.30000000E+03</pdfrwt>
<pdfrwt beam="2">0</pdfrwt>
<totfact> 0.29478464E+01</totfact>
</mgrwt>
</event>
<event>
 6    1  0.1956957E-002  0.3000000E+03  0.7818608E-02  0.1093470E+00
          1   -1    0    0  502    0  0.00000000000E+00  0.00000000000E+00  0.16638227442E+01  0.16638227442E+01  0.00000000000E+00 0.  1.
         13   -1    0    0    0    0 -0.00000000000E+00 -0.00000000000E+00 -0.10000000000E+04  0.10000000000E+04  0.00000000000E+00 0.  1.
    9000005    2    1    2  501    0 -0.33934232134E+02 -0.22358446793E+02 -0.46969434884E+03  0.47146233746E+03  0.35386510806E+01 0.  0.
         13    1    3    3    0    0 -0.23349009516E+02 -0.16519393762E+02 -0.31453471628E+03  0.31583247832E+03  0.00000000000E+00 0.  1.
          3    1    3    3  501    0 -0.10585222617E+02 -0.58390530308E+01 -0.15515963256E+03  0.15562985913E+03  0.00000000000E+00 0.  1.
         21    1    1    2  502  501  0.33934232134E+02  0.22358446793E+02 -0.52864182841E+03  0.53020148529E+03  0.00000000000E+00 0.  1.
<mgrwt>
<rscale>  1 0.30000000E+03</rscale>
<asrwt>0</asrwt>
<pdfrwt beam="1">  1        1 0.60502773E-02 0.30000000E+03</pdfrwt>
<pdfrwt beam="2">0</pdfrwt>
<totfact> 0.15219260E+03</totfact>
</mgrwt>
</event>
<event>
 6    1  0.1956957E-002  0.3000000E+03  0.7818608E-02  0.1093470E+00
          1   -1    0    0  502    0  0.00000000000E+00  0.00000000000E+00  0.25116323546E+01  0.25116323546E+01  0.00000000000E+00 0.  1.
         13   -1    0    0    0    0 -0.00000000000E+00 -0.00000000000E+00 -0.10000000000E+04  0.10000000000E+04  0.00000000000E+00 0.  1.
    9000005    2    1    2  501    0 -0.31114357508E+02  0.32952567160E+02 -0.71121440139E+03  0.71267243783E+03  0.47014865930E+01 0.  0.
         13    1    3    3    0    0 -0.78382186627E+00  0.80649431182E-01 -0.86762429796E+01  0.87119500280E+01  0.00000000000E+00 0.  1.
          1    1    3    3  501    0 -0.30330535642E+02  0.32871917728E+02 -0.70253815841E+03  0.70396048780E+03  0.00000000000E+00 0.  1.
         21    1    1    2  502  501  0.31114357508E+02 -0.32952567160E+02 -0.28627396626E+03  0.28983919452E+03  0.00000000000E+00 0.  1.
<mgrwt>
<rscale>  1 0.30000000E+03</rscale>
<asrwt>0</asrwt>
<pdfrwt beam="1">  1        1 0.91332278E-02 0.30000000E+03</pdfrwt>
<pdfrwt beam="2">0</pdfrwt>
<totfact> 0.85674297E+02</totfact>
</mgrwt>
</event>
<event>
 6    1  0.1956957E-002  0.3000000E+03  0.7818608E-02  0.1093470E+00
          1   -1    0    0  502    0  0.00000000000E+00  0.00000000000E+00  0.11188497443E+01  0.11188497443E+01  0.00000000000E+00 0.  1.
         13   -1    0    0    0    0 -0.00000000000E+00 -0.00000000000E+00 -0.10000000000E+04  0.10000000000E+04  0.00000000000E+00 0.  1.
    9000005    2    1    2  501    0 -0.16630334410E+02 -0.26789460872E+02 -0.66395035297E+03  0.66470707497E+03  0.33438106576E+01 0.  0.
         13    1    3    3    0    0 -0.70726989655E+00 -0.10159316500E+01 -0.15474115737E+02  0.15523550034E+02  0.00000000000E+00 0.  1.
          1    1    3    3  501    0 -0.15923064513E+02 -0.25773529222E+02 -0.64847623723E+03  0.64918352494E+03  0.00000000000E+00 0.  1.
         21    1    1    2  502  501  0.16630334410E+02  0.26789460872E+02 -0.33493079729E+03  0.33641177477E+03  0.00000000000E+00 0.  1.
<mgrwt>
<rscale>  1 0.30000000E+03</rscale>
<asrwt>0</asrwt>
<pdfrwt beam="1">  1        1 0.40685531E-02 0.30000000E+03</pdfrwt>
<pdfrwt beam="2">0</pdfrwt>
<totfact> 0.26585769E+03</totfact>
</mgrwt>
</event>
<event>
 6    1  0.1956957E-002  0.3000000E+03  0.7818608E-02  0.1093470E+00
          3   -1    0    0  502    0  0.00000000000E+00  0.00000000000E+00  0.92470189645E+01  0.92470189645E+01  0.00000000000E+00 0.  1.
         13   -1    0    0    0    0 -0.00000000000E+00 -0.00000000000E+00 -0.10000000000E+04  0.10000000000E+04  0.00000000000E+00 0.  1.
    9000005    2    1    2  501    0  0.90468485356E+02  0.32329423035E+02 -0.51341468399E+03  0.52233677235E+03  0.33656457399E+01 0.  0.
         13    1    3    3    0    0  0.36305356170E+02  0.13692100915E+02 -0.21557371948E+03  0.21903785299E+03  0.00000000000E+00 0.  1.
          3    1    3    3  501    0  0.54163129187E+02  0.18637322119E+02 -0.29784096451E+03  0.30329891936E+03  0.00000000000E+00 0.  1.
         21    1    1    2  502  501 -0.90468485356E+02 -0.32329423035E+02 -0.47733829704E+03  0.48691024662E+03  0.00000000000E+00 0.  1.
<mgrwt>
<rscale>  1 0.30000000E+03</rscale>
<asrwt>0</asrwt>
<pdfrwt beam="1">  1        3 0.33625594E-01 0.30000000E+03</pdfrwt>
<pdfrwt beam="2">0</pdfrwt>
<totfact> 0.37605221E+01</totfact>
</mgrwt>
</event>
<event>
 6    1  0.1956957E-002  0.3000000E+03  0.7818608E-02  0.1093470E+00
          1   -1    0    0  502    0  0.00000000000E+00  0.00000000000E+00  0.14204663101E+01  0.14204663101E+01  0.00000000000E+00 0.  1.
         13   -1    0    0    0    0 -0.00000000000E+00 -0.00000000000E+00 -0.10000000000E+04  0.10000000000E+04  0.00000000000E+00 0.  1.
    9000005    2    1    2  501    0 -0.77030001181E+01 -0.36238088334E+02 -0.58728863780E+03  0.58846437143E+03  0.31364145298E+01 0.  0.
         13    1    3    3    0    0 -0.79984604444E+01 -0.35324869972E+02 -0.57290570068E+03  0.57404944358E+03  0.00000000000E+00 0.  1.
          3    1    3    3  501    0  0.29546032634E+00 -0.91321836257E+00 -0.14382937123E+02  0.14414927848E+02  0.00000000000E+00 0.  1.
         21    1    1    2  502  501  0.77030001181E+01  0.36238088334E+02 -0.41129089589E+03  0.41295609488E+03  0.00000000000E+00 0.  1.
<mgrwt>
<rscale>  1 0.30000000E+03</rscale>
<asrwt>0</asrwt>
<pdfrwt beam="1">  1        1 0.51653429E-02 0.30000000E+03</pdfrwt>
<pdfrwt beam="2">0</pdfrwt>
<totfact> 0.19002641E+03</totfact>
</mgrwt>
</event>
<event>
 6    1  0.1956957E-002  0.3000000E+03  0.7818608E-02  0.1093470E+00
          3   -1    0    0  502    0  0.00000000000E+00  0.00000000000E+00  0.13232565833E+01  0.13232565833E+01  0.00000000000E+00 0.  1.
         13   -1    0    0    0    0 -0.00000000000E+00 -0.00000000000E+00 -0.10000000000E+04  0.10000000000E+04  0.00000000000E+00 0.  1.
    9000005    2    1    2  501    0  0.32481717926E+02 -0.30936857417E+01 -0.71897418885E+03  0.71972398115E+03  0.37539213490E+01 0.  0.
         13    1    3    3    0    0  0.60528676023E+01 -0.79054817532E+00 -0.10549884037E+03  0.10567529272E+03  0.00000000000E+00 0.  1.
          3    1    3    3  501    0  0.26428850323E+02 -0.23031375664E+01 -0.61347534848E+03  0.61404868843E+03  0.00000000000E+00 0.  1.
         21    1    1    2  502  501 -0.32481717926E+02  0.30936857417E+01 -0.27970255457E+03  0.28159927543E+03  0.00000000000E+00 0.  1.
<mgrwt>
<rscale>  1 0.30000000E+03</rscale>
<asrwt>0</asrwt>
<pdfrwt beam="1">  1        3 0.48118523E-02 0.30000000E+03</pdfrwt>
<pdfrwt beam="2">0</pdfrwt>
<totfact> 0.10497301E+03</totfact>
</mgrwt>
</event>
<event>
 6    1  0.1956957E-002  0.3000000E+03  0.7818608E-02  0.1093470E+00
          1   -1    0    0  502    0  0.00000000000E+00  0.00000000000E+00  0.27979776192E+01  0.27979776192E+01  0.00000000000E+00 0.  1.
         13   -1    0    0    0    0 -0.00000000000E+00 -0.00000000000E+00 -0.10000000000E+04  0.10000000000E+04  0.00000000000E+00 0.  1.
    9000005    2    1    2  501    0  0.70752247324E+01  0.50933190510E+02 -0.61464398955E+03  0.61679940614E+03  0.31662002827E+01 0.  0.
         13    1    3    3    0    0  0.64426769260E+01  0.35993617640E+02 -0.43799445074E+03  0.43951813099E+03  0.00000000000E+00 0.  1.
          1    1    3    3  501    0  0.63254780639E+00  0.14939572870E+02 -0.17664953881E+03  0.17728127514E+03  0.00000000000E+00 0.  1.
         21    1    1    2  502  501 -0.70752247324E+01 -0.50933190510E+02 -0.38255803283E+03  0.38599857148E+03  0.00000000000E+00 0.  1.
<mgrwt>
<rscale>  1 0.30000000E+03</rscale>
<asrwt>0</asrwt>
<pdfrwt beam="1">  1        1 0.10174486E-01 0.30000000E+03</pdfrwt>
<pdfrwt beam="2">0</pdfrwt>
<totfact> 0.73791249E+02</totfact>
</mgrwt>
</event>
<event>
 6    1  0.1956957E-002  0.3000000E+03  0.7818608E-02  0.1093470E+00
          1   -1    0    0  502    0  0.00000000000E+00  0.00000000000E+00  0.13713148541E+01  0.13713148541E+01  0.00000000000E+00 0.  1.
         13   -1    0    0    0    0 -0.00000000000E+00 -0.00000000000E+00 -0.10000000000E+04  0.10000000000E+04  0.00000000000E+00 0.  1.
    9000005    2    1    2  501    0 -0.15091395430E+02  0.31508033397E+02 -0.33726701941E+03  0.33908756956E+03  0.32910574903E+01 0.  0.
         13    1    3    3    0    0 -0.14602432424E+02  0.28353174511E+02 -0.30483040304E+03  0.30649422206E+03  0.00000000000E+00 0.  1.
          3    1    3    3  501    0 -0.48896300618E+00  0.31548588856E+01 -0.32436616370E+02  0.32593347495E+02  0.00000000000E+00 0.  1.
         21    1    1    2  502  501  0.15091395430E+02 -0.31508033397E+02 -0.66136166573E+03  0.66228374530E+03  0.00000000000E+00 0.  1.
<mgrwt>
<rscale>  1 0.30000000E+03</rscale>
<asrwt>0</asrwt>
<pdfrwt beam="1">  1        1 0.49866100E-02 0.30000000E+03</pdfrwt>
<pdfrwt beam="2">0</pdfrwt>
<totfact> 0.19966720E+03</totfact>
</mgrwt>
</event>
<event>
 6    1  0.1956957E-002  0.3000000E+03  0.7818608E-02  0.1093470E+00
          3   -1    0    0  502    0  0.00000000000E+00  0.00000000000E+00  0.21970413323E+01  0.21970413323E+01  0.00000000000E+00 0.  1.
         13   -1    0    0    0    0 -0.00000000000E+00 -0.00000000000E+00 -0.10000000000E+04  0.10000000000E+04  0.00000000000E+00 0.  1.
    9000005    2    1    2  501    0  0.15158932787E+02  0.29046419407E+02 -0.85702464849E+03  0.85765631925E+03  0.31025966548E+01 0.  0.
         13    1    3    3    0    0  0.11500972293E+02  0.18994575327E+02 -0.56899454333E+03  0.56942765704E+03  0.00000000000E+00 0.  1.
          3    1    3    3  501    0  0.36579604931E+01  0.10051844081E+02 -0.28803010516E+03  0.28822866222E+03  0.00000000000E+00 0.  1.
         21    1    1    2  502  501 -0.15158932787E+02 -0.29046419407E+02 -0.14077831017E+03  0.14454072208E+03  0.00000000000E+00 0.  1.
<mgrwt>
<rscale>  1 0.30000000E+03</rscale>
<asrwt>0</asrwt>
<pdfrwt beam="1">  1        3 0.79892581E-02 0.30000000E+03</pdfrwt>
<pdfrwt beam="2">0</pdfrwt>
<totfact> 0.47492950E+02</totfact>
</mgrwt>
</event>
<event>
 6    1  0.1956957E-002  0.3000000E+03  0.7818608E-02  0.1093470E+00
          1   -1    0    0  502    0  0.00000000000E+00  0.00000000000E+00  0.33031159023E+01  0.33031159023E+01  0.00000000000E+00 0.  1.
         13   -1    0    0    0    0 -0.00000000000E+00 -0.00000000000E+00 -0.10000000000E+04  0.10000000000E+04  0.00000000000E+00 0.  1.
    9000005    2    1    2  501    0  0.22955151892E+02 -0.38428366445E+02 -0.81271181202E+03  0.81395110220E+03  0.34970027449E+01 0.  0.
         13    1    3    3    0    0  0.17511648161E+02 -0.26862146751E+02 -0.56340661325E+03  0.56431838939E+03  0.00000000000E+00 0.  1.
          3    1    3    3  501    0  0.54435037316E+01 -0.11566219694E+02 -0.24930519877E+03  0.24963271281E+03  0.00000000000E+00 0.  1.
         21    1    1    2  502  501 -0.22955151892E+02  0.38428366445E+02 -0.18398507208E+03  0.18935201370E+03  0.00000000000E+00 0.  1.
<mgrwt>
<rscale>  1 0.30000000E+03</rscale>
<asrwt>0</asrwt>
<pdfrwt beam="1">  1        1 0.12011356E-01 0.30000000E+03</pdfrwt>
<pdfrwt beam="2">0</pdfrwt>
<totfact> 0.58741042E+02</totfact>
</mgrwt>
</event>
<event>
 6    1  0.1956957E-002  0.3000000E+03  0.7818608E-02  0.1093470E+00
          3   -1    0    0  502    0  0.00000000000E+00  0.00000000000E+00  0.12175323591E+01  0.12175323591E+01  0.00000000000E+00 0.  1.
         13   -1    0    0    0    0 -0.00000000000E+00 -0.00000000000E+00 -0.10000000000E+04  0.10000000000E+04  0.00000000000E+00 0.  1.
    9000005    2    1    2  501    0 -0.32728715660E+02 -0.16066113472E+01 -0.66930505141E+03  0.67011465131E+03  0.32625199869E+01 0.  0.
         13    1    3    3    0    0 -0.17350593619E+02  0.21812479872E+00 -0.32855120114E+03  0.32900909174E+03  0.00000000000E+00 0.  1.
          1    1    3    3  501    0 -0.15378122042E+02 -0.18247361459E+01 -0.34075385027E+03  0.34110555957E+03  0.00000000000E+00 0.  1.
         21    1    1    2  502  501  0.32728715660E+02  0.16066113472E+01 -0.32947741623E+03  0.33110288105E+03  0.00000000000E+00 0.  1.
<mgrwt>
<rscale>  1 0.30000000E+03</rscale>
<asrwt>0</asrwt>
<pdfrwt beam="1">  1        3 0.44273997E-02 0.30000000E+03</pdfrwt>
<pdfrwt beam="2">0</pdfrwt>
<totfact> 0.11936509E+03</totfact>
</mgrwt>
</event>
<event>
 6    1  0.1956957E-002  0.3000000E+03  0.7818608E-02  0.1093470E+00
          3   -1    0    0  502    0  0.00000000000E+00  0.00000000000E+00  0.99344756782E+00  0.99344756782E+00  0.00000000000E+00 0.  1.
         13   -1    0    0    0    0 -0.00000000000E+00 -0.00000000000E+00 -0.10000000000E+04  0.10000000000E+04  0.00000000000E+00 0.  1.
    9000005    2    1    2  501    0  0.18761445069E+02  0.25176062485E+02 -0.52920035469E+03  0.53013923512E+03  0.29609569045E+01 0.  0.
         13    1    3    3    0    0  0.13623025175E+02  0.17055969939E+02 -0.34744080941E+03  0.34812585220E+03  0.00000000000E+00 0.  1.
          1    1    3    3  501    0  0.51384198947E+01  0.81200925457E+01 -0.18175954527E+03  0.18201338291E+03  0.00000000000E+00 0.  1.
         21    1    1    2  502  501 -0.18761445069E+02 -0.25176062485E+02 -0.46980619774E+03  0.47085421245E+03  0.00000000000E+00 0.  1.
<mgrwt>
<rscale>  1 0.30000000E+03</rscale>
<asrwt>0</asrwt>
<pdfrwt beam="1">  1        3 0.36125442E-02 0.30000000E+03</pdfrwt>
<pdfrwt beam="2">0</pdfrwt>
<totfact> 0.16320313E+03</totfact>
</mgrwt>
</event>
<event>
 6    1  0.1956957E-002  0.3000000E+03  0.7818608E-02  0.1093470E+00
          3   -1    0    0  502    0  0.00000000000E+00  0.00000000000E+00  0.42567530155E+01  0.42567530155E+01  0.00000000000E+00 0.  1.
         13   -1    0    0    0    0 -0.00000000000E+00 -0.00000000000E+00 -0.10000000000E+04  0.10000000000E+04  0.00000000000E+00 0.  1.
    9000005    2    1    2  501    0  0.35733947146E+02  0.17704910241E+02 -0.89519201274E+03  0.89608591807E+03  0.32945500205E+01 0.  0.
         13    1    3    3    0    0  0.19688698909E+02  0.11096197040E+02 -0.48143844591E+03  0.48196861688E+03  0.00000000000E+00 0.  1.
          3    1    3    3  501    0  0.16045248237E+02  0.66087132014E+01 -0.41375356683E+03  0.41411730119E+03  0.00000000000E+00 0.  1.
         21    1    1    2  502  501 -0.35733947146E+02 -0.17704910241E+02 -0.10055123425E+03  0.10817083495E+03  0.00000000000E+00 0.  1.
<mgrwt>
<rscale>  1 0.30000000E+03</rscale>
<asrwt>0</asrwt>
<pdfrwt beam="1">  1        3 0.15479135E-01 0.30000000E+03</pdfrwt>
<pdfrwt beam="2">0</pdfrwt>
<totfact> 0.15759634E+02</totfact>
</mgrwt>
</event>
<event>
 6    1  0.1956957E-002  0.3000000E+03  0.7818608E-02  0.1093470E+00
          1   -1    0    0  502    0  0.00000000000E+00  0.00000000000E+00  0.31876406841E+01  0.31876406841E+01  0.00000000000E+00 0.  1.
         13   -1    0    0    0    0 -0.00000000000E+00 -0.00000000000E+00 -0.10000000000E+04  0.10000000000E+04  0.00000000000E+00 0.  1.
    9000005    2    1    2  501    0  0.27683306020E+02 -0.24639706197E+02 -0.87666329418E+03  0.87745268768E+03  0.33477159403E+01 0.  0.
         13    1    3    3    0    0  0.70458983329E+01 -0.52860162771E+01 -0.18071228964E+03  0.18092683128E+03  0.00000000000E+00 0.  1.
          1    1    3    3  501    0  0.20637407687E+02 -0.19353689920E+02 -0.69595100455E+03  0.69652585640E+03  0.00000000000E+00 0.  1.
         21    1    1    2  502  501 -0.27683306020E+02  0.24639706197E+02 -0.12014906513E+03  0.12573495300E+03  0.00000000000E+00 0.  1.
<mgrwt>
<rscale>  1 0.30000000E+03</rscale>
<asrwt>0</asrwt>
<pdfrwt beam="1">  1        1 0.11591445E-01 0.30000000E+03</pdfrwt>
<pdfrwt beam="2">0</pdfrwt>
<totfact> 0.61678615E+02</totfact>
</mgrwt>
</event>
<event>
 6    1  0.1956957E-002  0.3000000E+03  0.7818608E-02  0.1093470E+00
          1   -1    0    0  502    0  0.00000000000E+00  0.00000000000E+00  0.11274594436E+01  0.11274594436E+01  0.00000000000E+00 0.  1.
         13   -1    0    0    0    0 -0.00000000000E+00 -0.00000000000E+00 -0.10000000000E+04  0.10000000000E+04  0.00000000000E+00 0.  1.
    9000005    2    1    2  501    0  0.25538238224E+02 -0.18973740114E+02 -0.65705441463E+03  0.65783190800E+03  0.31797766627E+01 0.  0.
         13    1    3    3    0    0  0.13237209637E+02 -0.82603922238E+01 -0.30141646307E+03  0.30182004905E+03  0.00000000000E+00 0.  1.
          1    1    3    3  501    0  0.12301028587E+02 -0.10713347890E+02 -0.35563795156E+03  0.35601185895E+03  0.00000000000E+00 0.  1.
         21    1    1    2  502  501 -0.25538238224E+02  0.18973740114E+02 -0.34181812593E+03  0.34329555144E+03  0.00000000000E+00 0.  1.
<mgrwt>
<rscale>  1 0.30000000E+03</rscale>
<asrwt>0</asrwt>
<pdfrwt beam="1">  1        1 0.40998612E-02 0.30000000E+03</pdfrwt>
<pdfrwt beam="2">0</pdfrwt>
<totfact> 0.26300365E+03</totfact>
</mgrwt>
</event>
<event>
 6    1  0.1956957E-002  0.3000000E+03  0.7818608E-02  0.1093470E+00
          3   -1    0    0  502    0  0.00000000000E+00  0.00000000000E+00  0.99731183996E+00  0.99731183996E+00  0.00000000000E+00 0.  1.
         13   -1    0    0    0    0 -0.00000000000E+00 -0.00000000000E+00 -0.10000000000E+04  0.10000000000E+04  0.00000000000E+00 0.  1.
    9000005    2    1    2  501    0  0.31138920804E+02  0.47029920279E+01 -0.51198175198E+03  0.51295925718E+03  0.31834947582E+01 0.  0.
         13    1    3    3    0    0  0.12951109370E+02  0.34553731429E+01 -0.22549847081E+03  0.22589650545E+03  0.00000000000E+00 0.  1.
          1    1    3    3  501    0  0.18187811433E+02  0.12476188850E+01 -0.28648328117E+03  0.28706275173E+03  0.00000000000E+00 0.  1.
         21    1    1    2  502  501 -0.31138920804E+02 -0.47029920279E+01 -0.48702093618E+03  0.48803805466E+03  0.00000000000E+00 0.  1.
<mgrwt>
<rscale>  1 0.30000000E+03</rscale>
<asrwt>0</asrwt>
<pdfrwt beam="1">  1        3 0.36265962E-02 0.30000000E+03</pdfrwt>
<pdfrwt beam="2">0</pdfrwt>
<totfact> 0.16222890E+03</totfact>
</mgrwt>
</event>
<event>
 6    1  0.1956957E-002  0.3000000E+03  0.7818608E-02  0.1093470E+00
          1   -1    0    0  502    0  0.00000000000E+00  0.00000000000E+00  0.87692313121E+01  0.87692313121E+01  0.00000000000E+00 0.  1.
         13   -1    0    0    0    0 -0.00000000000E+00 -0.00000000000E+00 -0.10000000000E+04  0.10000000000E+04  0.00000000000E+00 0.  1.
    9000005    2    1    2  501    0 -0.61371504821E+02 -0.43458299650E+02 -0.79609322313E+03  0.79964308015E+03  0.30903576627E+01 0.  0.
         13    1    3    3    0    0 -0.14631089159E+02 -0.10838986177E+02 -0.20650616792E+03  0.20730737995E+03  0.00000000000E+00 0.  1.
          1    1    3    3  501    0 -0.46740415662E+02 -0.32619313473E+02 -0.58958705520E+03  0.59233570020E+03  0.00000000000E+00 0.  1.
         21    1    1    2  502  501  0.61371504821E+02  0.43458299650E+02 -0.19513754556E+03  0.20912615116E+03  0.00000000000E+00 0.  1.
<mgrwt>
<rscale>  1 0.30000000E+03</rscale>
<asrwt>0</asrwt>
<pdfrwt beam="1">  1        1 0.31888181E-01 0.30000000E+03</pdfrwt>
<pdfrwt beam="2">0</pdfrwt>
<totfact> 0.15897012E+02</totfact>
</mgrwt>
</event>
<event>
 6    1  0.1956957E-002  0.3000000E+03  0.7818608E-02  0.1093470E+00
          3   -1    0    0  502    0  0.00000000000E+00  0.00000000000E+00  0.27608428336E+01  0.27608428336E+01  0.00000000000E+00 0.  1.
         13   -1    0    0    0    0 -0.00000000000E+00 -0.00000000000E+00 -0.10000000000E+04  0.10000000000E+04  0.00000000000E+00 0.  1.
    9000005    2    1    2  501    0 -0.26763393318E+02  0.24802811659E+02 -0.85919696087E+03  0.85997741717E+03  0.32065203438E+01 0.  0.
         13    1    3    3    0    0 -0.12603172797E+02  0.13548305613E+02 -0.45400388740E+03  0.45438081641E+03  0.00000000000E+00 0.  1.
          3    1    3    3  501    0 -0.14160220521E+02  0.11254506046E+02 -0.40519307348E+03  0.40559660076E+03  0.00000000000E+00 0.  1.
         21    1    1    2  502  501  0.26763393318E+02 -0.24802811659E+02 -0.13804219629E+03  0.14278342567E+03  0.00000000000E+00 0.  1.
<mgrwt>
<rscale>  1 0.30000000E+03</rscale>
<asrwt>0</asrwt>
<pdfrwt beam="1">  1        3 0.10039450E-01 0.30000000E+03</pdfrwt>
<pdfrwt beam="2">0</pdfrwt>
<totfact> 0.32810485E+02</totfact>
</mgrwt>
</event>
<event>
 6    1  0.1956957E-002  0.3000000E+03  0.7818608E-02  0.1093470E+00
          1   -1    0    0  502    0  0.00000000000E+00  0.00000000000E+00  0.11865333082E+01  0.11865333082E+01  0.00000000000E+00 0.  1.
         13   -1    0    0    0    0 -0.00000000000E+00 -0.00000000000E+00 -0.10000000000E+04  0.10000000000E+04  0.00000000000E+00 0.  1.
    9000005    2    1    2  501    0  0.93196620597E+01  0.30460734075E+02 -0.68700136193E+03  0.68775153032E+03  0.40723143833E+01 0.  0.
         13    1    3    3    0    0  0.92144121794E+01  0.25329653508E+02 -0.58724691306E+03  0.58786514920E+03  0.00000000000E+00 0.  1.
          3    1    3    3  501    0  0.10524988029E+00  0.51310805674E+01 -0.99754448870E+02  0.99886381127E+02  0.00000000000E+00 0.  1.
         21    1    1    2  502  501 -0.93196620597E+01 -0.30460734075E+02 -0.31181210476E+03  0.31343500299E+03  0.00000000000E+00 0.  1.
<mgrwt>
<rscale>  1 0.30000000E+03</rscale>
<asrwt>0</asrwt>
<pdfrwt beam="1">  1        1 0.43146757E-02 0.30000000E+03</pdfrwt>
<pdfrwt beam="2">0</pdfrwt>
<totfact> 0.24475692E+03</totfact>
</mgrwt>
</event>
<event>
 6    1  0.1956957E-002  0.3000000E+03  0.7818608E-02  0.1093470E+00
          1   -1    0    0  502    0  0.00000000000E+00  0.00000000000E+00  0.28812175049E+02  0.28812175049E+02  0.00000000000E+00 0.  1.
         13   -1    0    0    0    0 -0.00000000000E+00 -0.00000000000E+00 -0.10000000000E+04  0.10000000000E+04  0.00000000000E+00 0.  1.
    9000005    2    1    2  501    0 -0.11675848407E+03 -0.12307528526E+03 -0.50130910828E+03  0.52924628568E+03  0.32771045111E+01 0.  0.
         13    1    3    3    0    0 -0.37800831710E+02 -0.42053077193E+02 -0.16793719301E+03  0.17720119913E+03  0.00000000000E+00 0.  1.
          1    1    3    3  501    0 -0.78957652363E+02 -0.81022208062E+02 -0.33337191528E+03  0.35204508655E+03  0.00000000000E+00 0.  1.
         21    1    1    2  502  501  0.11675848407E+03  0.12307528526E+03 -0.46987871667E+03  0.49956588937E+03  0.00000000000E+00 0.  1.
<mgrwt>
<rscale>  1 0.30000000E+03</rscale>
<asrwt>0</asrwt>
<pdfrwt beam="1">  1        1 0.10477177E+00 0.30000000E+03</pdfrwt>
<pdfrwt beam="2">0</pdfrwt>
<totfact> 0.31955799E+01</totfact>
</mgrwt>
</event>
<event>
 6    1  0.1956957E-002  0.3000000E+03  0.7818608E-02  0.1093470E+00
          3   -1    0    0  502    0  0.00000000000E+00  0.00000000000E+00  0.60487478524E+01  0.60487478524E+01  0.00000000000E+00 0.  1.
         13   -1    0    0    0    0 -0.00000000000E+00 -0.00000000000E+00 -0.10000000000E+04  0.10000000000E+04  0.00000000000E+00 0.  1.
    9000005    2    1    2  501    0 -0.24016038164E+02 -0.45736802593E+02 -0.87291189660E+03  0.87444650322E+03  0.35892297445E+01 0.  0.
         13    1    3    3    0    0 -0.10676053549E+02 -0.17661722219E+02 -0.36953521834E+03  0.37011105380E+03  0.00000000000E+00 0.  1.
          3    1    3    3  501    0 -0.13339984615E+02 -0.28075080375E+02 -0.50337667826E+03  0.50433544942E+03  0.00000000000E+00 0.  1.
         21    1    1    2  502  501  0.24016038164E+02  0.45736802593E+02 -0.12103935555E+03  0.13160224463E+03  0.00000000000E+00 0.  1.
<mgrwt>
<rscale>  1 0.30000000E+03</rscale>
<asrwt>0</asrwt>
<pdfrwt beam="1">  1        3 0.21995493E-01 0.30000000E+03</pdfrwt>
<pdfrwt beam="2">0</pdfrwt>
<totfact> 0.83914472E+01</totfact>
</mgrwt>
</event>
<event>
 6    1  0.1956957E-002  0.3000000E+03  0.7818608E-02  0.1093470E+00
          3   -1    0    0  502    0  0.00000000000E+00  0.00000000000E+00  0.20961761727E+01  0.20961761727E+01  0.00000000000E+00 0.  1.
         13   -1    0    0    0    0 -0.00000000000E+00 -0.00000000000E+00 -0.10000000000E+04  0.10000000000E+04  0.00000000000E+00 0.  1.
    9000005    2    1    2  501    0  0.16350208819E+02  0.42678179111E+02 -0.50009847103E+03  0.50219726081E+03  0.38537961193E+01 0.  0.
         13    1    3    3    0    0  0.41266782609E+01  0.15062814011E+02 -0.15979953333E+03  0.16056091894E+03  0.00000000000E+00 0.  1.
          1    1    3    3  501    0  0.12223530558E+02  0.27615365100E+02 -0.34029893770E+03  0.34163634187E+03  0.00000000000E+00 0.  1.
         21    1    1    2  502  501 -0.16350208819E+02 -0.42678179111E+02 -0.49780535280E+03  0.49989891536E+03  0.00000000000E+00 0.  1.
<mgrwt>
<rscale>  1 0.30000000E+03</rscale>
<asrwt>0</asrwt>
<pdfrwt beam="1">  1        3 0.76224749E-02 0.30000000E+03</pdfrwt>
<pdfrwt beam="2">0</pdfrwt>
<totfact> 0.51184478E+02</totfact>
</mgrwt>
</event>
<event>
 6    1  0.1956957E-002  0.3000000E+03  0.7818608E-02  0.1093470E+00
          1   -1    0    0  502    0  0.00000000000E+00  0.00000000000E+00  0.11564941771E+02  0.11564941771E+02  0.00000000000E+00 0.  1.
         13   -1    0    0    0    0 -0.00000000000E+00 -0.00000000000E+00 -0.10000000000E+04  0.10000000000E+04  0.00000000000E+00 0.  1.
    9000005    2    1    2  501    0  0.65320496259E+01  0.31504766917E+02 -0.97682477137E+03  0.97735943386E+03  0.31001560572E+01 0.  0.
         13    1    3    3    0    0  0.13765992700E+01  0.79818358742E+01 -0.20810337733E+03  0.20826094301E+03  0.00000000000E+00 0.  1.
          3    1    3    3  501    0  0.51554503559E+01  0.23522931043E+02 -0.76872139405E+03  0.76909849084E+03  0.00000000000E+00 0.  1.
         21    1    1    2  502  501 -0.65320496259E+01 -0.31504766917E+02 -0.11610286855E+02  0.34205507914E+02  0.00000000000E+00 0.  1.
<mgrwt>
<rscale>  1 0.30000000E+03</rscale>
<asrwt>0</asrwt>
<pdfrwt beam="1">  1        1 0.42054422E-01 0.30000000E+03</pdfrwt>
<pdfrwt beam="2">0</pdfrwt>
<totfact> 0.11071014E+02</totfact>
</mgrwt>
</event>
<event>
 6    1  0.1956957E-002  0.3000000E+03  0.7818608E-02  0.1093470E+00
          1   -1    0    0  502    0  0.00000000000E+00  0.00000000000E+00  0.15080158690E+01  0.15080158690E+01  0.00000000000E+00 0.  1.
         13   -1    0    0    0    0 -0.00000000000E+00 -0.00000000000E+00 -0.10000000000E+04  0.10000000000E+04  0.00000000000E+00 0.  1.
    9000005    2    1    2  501    0  0.81892625492E+01 -0.31726806082E+02 -0.76722733655E+03  0.76793363486E+03  0.32599611635E+01 0.  0.
         13    1    3    3    0    0  0.46679501525E+01 -0.16570073903E+02 -0.36587558495E+03  0.36628035815E+03  0.00000000000E+00 0.  1.
          3    1    3    3  501    0  0.35213123967E+01 -0.15156732179E+02 -0.40135175160E+03  0.40165327670E+03  0.00000000000E+00 0.  1.
         21    1    1    2  502  501 -0.81892625492E+01  0.31726806082E+02 -0.23126464758E+03  0.23357438101E+03  0.00000000000E+00 0.  1.
<mgrwt>
<rscale>  1 0.30000000E+03</rscale>
<asrwt>0</asrwt>
<pdfrwt beam="1">  1        1 0.54837056E-02 0.30000000E+03</pdfrwt>
<pdfrwt beam="2">0</pdfrwt>
<totfact> 0.17471430E+03</totfact>
</mgrwt>
</event>
<event>
 6    1  0.1956957E-002  0.3000000E+03  0.7818608E-02  0.1093470E+00
          3   -1    0    0  502    0  0.00000000000E+00  0.00000000000E+00  0.52062053291E+01  0.52062053291E+01  0.00000000000E+00 0.  1.
         13   -1    0    0    0    0 -0.00000000000E+00 -0.00000000000E+00 -0.10000000000E+04  0.10000000000E+04  0.00000000000E+00 0.  1.
    9000005    2    1    2  501    0  0.60344217863E+02  0.89269007424E+01 -0.22937402485E+03  0.23735951606E+03  0.24458950724E+01 0.  0.
         13    1    3    3    0    0  0.25288699187E+02  0.48826052905E+01 -0.98448547226E+02  0.10176185234E+03  0.00000000000E+00 0.  1.
          1    1    3    3  501    0  0.35055518677E+02  0.40442954519E+01 -0.13092547763E+03  0.13559766372E+03  0.00000000000E+00 0.  1.
         21    1    1    2  502  501 -0.60344217863E+02 -0.89269007424E+01 -0.76541976982E+03  0.76784668926E+03  0.00000000000E+00 0.  1.
<mgrwt>
<rscale>  1 0.30000000E+03</rscale>
<asrwt>0</asrwt>
<pdfrwt beam="1">  1        3 0.18931696E-01 0.30000000E+03</pdfrwt>
<pdfrwt beam="2">0</pdfrwt>
<totfact> 0.11037765E+02</totfact>
</mgrwt>
</event>
<event>
 6    1  0.1956957E-002  0.3000000E+03  0.7818608E-02  0.1093470E+00
          3   -1    0    0  502    0  0.00000000000E+00  0.00000000000E+00  0.27512807027E+01  0.27512807027E+01  0.00000000000E+00 0.  1.
         13   -1    0    0    0    0 -0.00000000000E+00 -0.00000000000E+00 -0.10000000000E+04  0.10000000000E+04  0.00000000000E+00 0.  1.
    9000005    2    1    2  501    0  0.42578308585E+02  0.17617445164E+01 -0.79023238732E+03  0.79139428931E+03  0.46560793922E+01 0.  0.
         13    1    3    3    0    0  0.38449580705E+02  0.78563015488E+00 -0.73033517580E+03  0.73134701509E+03  0.00000000000E+00 0.  1.
          3    1    3    3  501    0  0.41287278803E+01  0.97611436150E+00 -0.59897211518E+02  0.60047274216E+02  0.00000000000E+00 0.  1.
         21    1    1    2  502  501 -0.42578308585E+02 -0.17617445164E+01 -0.20701633197E+03  0.21135699139E+03  0.00000000000E+00 0.  1.
<mgrwt>
<rscale>  1 0.30000000E+03</rscale>
<asrwt>0</asrwt>
<pdfrwt beam="1">  1        3 0.10004678E-01 0.30000000E+03</pdfrwt>
<pdfrwt beam="2">0</pdfrwt>
<totfact> 0.32998598E+02</totfact>
</mgrwt>
</event>
<event>
 6    1  0.1956957E-002  0.3000000E+03  0.7818608E-02  0.1093470E+00
          3   -1    0    0  502    0  0.00000000000E+00  0.00000000000E+00  0.13417332892E+01  0.13417332892E+01  0.00000000000E+00 0.  1.
         13   -1    0    0    0    0 -0.00000000000E+00 -0.00000000000E+00 -0.10000000000E+04  0.10000000000E+04  0.00000000000E+00 0.  1.
    9000005    2    1    2  501    0  0.12853429285E+02 -0.28284310214E+02 -0.76056229527E+03  0.76122737624E+03  0.68483932292E+01 0.  0.
         13    1    3    3    0    0  0.85515759665E+01 -0.11144644611E+02 -0.36628567344E+03  0.36655494421E+03  0.00000000000E+00 0.  1.
          3    1    3    3  501    0  0.43018533186E+01 -0.17139665602E+02 -0.39427662183E+03  0.39467243202E+03  0.00000000000E+00 0.  1.
         21    1    1    2  502  501 -0.12853429285E+02  0.28284310214E+02 -0.23809597144E+03  0.24011435705E+03  0.00000000000E+00 0.  1.
<mgrwt>
<rscale>  1 0.30000000E+03</rscale>
<asrwt>0</asrwt>
<pdfrwt beam="1">  1        3 0.48790404E-02 0.30000000E+03</pdfrwt>
<pdfrwt beam="2">0</pdfrwt>
<totfact> 0.10275070E+03</totfact>
</mgrwt>
</event>
<event>
 6    1  0.1956957E-002  0.3000000E+03  0.7818608E-02  0.1093470E+00
          1   -1    0    0  502    0  0.00000000000E+00  0.00000000000E+00  0.30571238642E+01  0.30571238642E+01  0.00000000000E+00 0.  1.
         13   -1    0    0    0    0 -0.00000000000E+00 -0.00000000000E+00 -0.10000000000E+04  0.10000000000E+04  0.00000000000E+00 0.  1.
    9000005    2    1    2  501    0 -0.23843516657E+02  0.25303432131E+02 -0.88834534303E+03  0.88902992903E+03  0.28265298500E+01 0.  0.
         13    1    3    3    0    0 -0.11056679013E+02  0.12080851687E+02 -0.45401088923E+03  0.45430615742E+03  0.00000000000E+00 0.  1.
          3    1    3    3  501    0 -0.12786837644E+02  0.13222580444E+02 -0.43433445380E+03  0.43472377162E+03  0.00000000000E+00 0.  1.
         21    1    1    2  502  501  0.23843516657E+02 -0.25303432131E+02 -0.10859753311E+03  0.11402719483E+03  0.00000000000E+00 0.  1.
<mgrwt>
<rscale>  1 0.30000000E+03</rscale>
<asrwt>0</asrwt>
<pdfrwt beam="1">  1        1 0.11116837E-01 0.30000000E+03</pdfrwt>
<pdfrwt beam="2">0</pdfrwt>
<totfact> 0.65322075E+02</totfact>
</mgrwt>
</event>
<event>
 6    1  0.1956957E-002  0.3000000E+03  0.7818608E-02  0.1093470E+00
          1   -1    0    0  502    0  0.00000000000E+00  0.00000000000E+00  0.10294223664E+01  0.10294223664E+01  0.00000000000E+00 0.  1.
         13   -1    0    0    0    0 -0.00000000000E+00 -0.00000000000E+00 -0.10000000000E+04  0.10000000000E+04  0.00000000000E+00 0.  1.
    9000005    2    1    2  501    0 -0.15153418110E+02  0.26767579586E+02 -0.63877248829E+03  0.63952037274E+03  0.31441933798E+01 0.  0.
         13    1    3    3    0    0 -0.38071092573E+01  0.78372066939E+01 -0.20905995578E+03  0.20924144188E+03  0.00000000000E+00 0.  1.
          3    1    3    3  501    0 -0.11346308852E+02  0.18930372892E+02 -0.42971253251E+03  0.43027893086E+03  0.00000000000E+00 0.  1.
         21    1    1    2  502  501  0.15153418110E+02 -0.26767579586E+02 -0.36019808934E+03  0.36150904963E+03  0.00000000000E+00 0.  1.
<mgrwt>
<rscale>  1 0.30000000E+03</rscale>
<asrwt>0</asrwt>
<pdfrwt beam="1">  1        1 0.37433620E-02 0.30000000E+03</pdfrwt>
<pdfrwt beam="2">0</pdfrwt>
<totfact> 0.29893715E+03</totfact>
</mgrwt>
</event>
<event>
 6    1  0.1956957E-002  0.3000000E+03  0.7818608E-02  0.1093470E+00
          1   -1    0    0  502    0  0.00000000000E+00  0.00000000000E+00  0.12494431844E+01  0.12494431844E+01  0.00000000000E+00 0.  1.
         13   -1    0    0    0    0 -0.00000000000E+00 -0.00000000000E+00 -0.10000000000E+04  0.10000000000E+04  0.00000000000E+00 0.  1.
    9000005    2    1    2  501    0 -0.32665077495E+02  0.88269830808E+01 -0.64133081343E+03  0.64223162207E+03  0.33647005717E+01 0.  0.
         13    1    3    3    0    0 -0.24159814729E+02  0.67296675624E+01 -0.50145545525E+03  0.50208222302E+03  0.00000000000E+00 0.  1.
          1    1    3    3  501    0 -0.85052627657E+01  0.20973155185E+01 -0.13987535818E+03  0.14014939905E+03  0.00000000000E+00 0.  1.
         21    1    1    2  502  501  0.32665077495E+02 -0.88269830808E+01 -0.35741974338E+03  0.35901782111E+03  0.00000000000E+00 0.  1.
<mgrwt>
<rscale>  1 0.30000000E+03</rscale>
<asrwt>0</asrwt>
<pdfrwt beam="1">  1        1 0.45434393E-02 0.30000000E+03</pdfrwt>
<pdfrwt beam="2">0</pdfrwt>
<totfact> 0.22759051E+03</totfact>
</mgrwt>
</event>
<event>
 6    1  0.1956957E-002  0.3000000E+03  0.7818608E-02  0.1093470E+00
          3   -1    0    0  502    0  0.00000000000E+00  0.00000000000E+00  0.14759945559E+01  0.14759945559E+01  0.00000000000E+00 0.  1.
         13   -1    0    0    0    0 -0.00000000000E+00 -0.00000000000E+00 -0.10000000000E+04  0.10000000000E+04  0.00000000000E+00 0.  1.
    9000005    2    1    2  501    0 -0.31513245258E+02  0.16750369357E+02 -0.68276161893E+03  0.68370320743E+03  0.36038960409E+01 0.  0.
         13    1    3    3    0    0 -0.30053067499E+02  0.16614342733E+02 -0.66182712329E+03  0.66271740914E+03  0.00000000000E+00 0.  1.
          3    1    3    3  501    0 -0.14601777588E+01  0.13602662397E+00 -0.20934495633E+02  0.20985798287E+02  0.00000000000E+00 0.  1.
         21    1    1    2  502  501  0.31513245258E+02 -0.16750369357E+02 -0.31576238652E+03  0.31777278713E+03  0.00000000000E+00 0.  1.
<mgrwt>
<rscale>  1 0.30000000E+03</rscale>
<asrwt>0</asrwt>
<pdfrwt beam="1">  1        3 0.53672642E-02 0.30000000E+03</pdfrwt>
<pdfrwt beam="2">0</pdfrwt>
<totfact> 0.88673626E+02</totfact>
</mgrwt>
</event>
<event>
 6    1  0.1956957E-002  0.3000000E+03  0.7818608E-02  0.1093470E+00
          1   -1    0    0  502    0  0.00000000000E+00  0.00000000000E+00  0.17542773177E+01  0.17542773177E+01  0.00000000000E+00 0.  1.
         13   -1    0    0    0    0 -0.00000000000E+00 -0.00000000000E+00 -0.10000000000E+04  0.10000000000E+04  0.00000000000E+00 0.  1.
    9000005    2    1    2  501    0  0.29063746817E+02  0.26400115519E+02 -0.66726139508E+03  0.66844917295E+03  0.66977590810E+01 0.  0.
         13    1    3    3    0    0  0.21532219704E+02  0.22351605573E+02 -0.55133896432E+03  0.55221181112E+03  0.00000000000E+00 0.  1.
          3    1    3    3  501    0  0.75315271128E+01  0.40485099455E+01 -0.11592243076E+03  0.11623736184E+03  0.00000000000E+00 0.  1.
         21    1    1    2  502  501 -0.29063746817E+02 -0.26400115519E+02 -0.33098432760E+03  0.33330510436E+03  0.00000000000E+00 0.  1.
<mgrwt>
<rscale>  1 0.30000000E+03</rscale>
<asrwt>0</asrwt>
<pdfrwt beam="1">  1        1 0.63792037E-02 0.30000000E+03</pdfrwt>
<pdfrwt beam="2">0</pdfrwt>
<totfact> 0.14130634E+03</totfact>
</mgrwt>
</event>
<event>
 6    1  0.1956957E-002  0.3000000E+03  0.7818608E-02  0.1093470E+00
          1   -1    0    0  502    0  0.00000000000E+00  0.00000000000E+00  0.49112558051E+01  0.49112558051E+01  0.00000000000E+00 0.  1.
         13   -1    0    0    0    0 -0.00000000000E+00 -0.00000000000E+00 -0.10000000000E+04  0.10000000000E+04  0.00000000000E+00 0.  1.
    9000005    2    1    2  501    0 -0.30795675087E+02  0.32602425961E+00 -0.94877476996E+03  0.94929233721E+03  0.58221545391E+01 0.  0.
         13    1    3    3    0    0 -0.13656145675E+02 -0.17648818691E+00 -0.50955768035E+03  0.50974067041E+03  0.00000000000E+00 0.  1.
          1    1    3    3  501    0 -0.17139529412E+02  0.50251244652E+00 -0.43921708961E+03  0.43955166681E+03  0.00000000000E+00 0.  1.
         21    1    1    2  502  501  0.30795675087E+02 -0.32602425961E+00 -0.46313974235E+02  0.55618918592E+02  0.00000000000E+00 0.  1.
<mgrwt>
<rscale>  1 0.30000000E+03</rscale>
<asrwt>0</asrwt>
<pdfrwt beam="1">  1        1 0.17859150E-01 0.30000000E+03</pdfrwt>
<pdfrwt beam="2">0</pdfrwt>
<totfact> 0.34268629E+02</totfact>
</mgrwt>
</event>
<event>
 6    1  0.1956957E-002  0.3000000E+03  0.7818608E-02  0.1093470E+00
          1   -1    0    0  502    0  0.00000000000E+00  0.00000000000E+00  0.25686222644E+01  0.25686222644E+01  0.00000000000E+00 0.  1.
         13   -1    0    0    0    0 -0.00000000000E+00 -0.00000000000E+00 -0.10000000000E+04  0.10000000000E+04  0.00000000000E+00 0.  1.
    9000005    2    1    2  501    0 -0.43754843745E+02  0.25450908955E+02 -0.51201845447E+03  0.51452360262E+03  0.30667289550E+01 0.  0.
         13    1    3    3    0    0 -0.14255190246E+02  0.85329935271E+01 -0.15390216289E+03  0.15479631187E+03  0.00000000000E+00 0.  1.
          3    1    3    3  501    0 -0.29499653500E+02  0.16917915428E+02 -0.35811629157E+03  0.35972729075E+03  0.00000000000E+00 0.  1.
         21    1    1    2  502  501  0.43754843745E+02 -0.25450908955E+02 -0.48541292327E+03  0.48804501964E+03  0.00000000000E+00 0.  1.
<mgrwt>
<rscale>  1 0.30000000E+03</rscale>
<asrwt>0</asrwt>
<pdfrwt beam="1">  1        1 0.93404643E-02 0.30000000E+03</pdfrwt>
<pdfrwt beam="2">0</pdfrwt>
<totfact> 0.83051983E+02</totfact>
</mgrwt>
</event>
<event>
 6    1  0.1956957E-002  0.3000000E+03  0.7818608E-02  0.1093470E+00
          3   -1    0    0  502    0  0.00000000000E+00  0.00000000000E+00  0.32486650680E+01  0.32486650680E+01  0.00000000000E+00 0.  1.
         13   -1    0    0    0    0 -0.00000000000E+00 -0.00000000000E+00 -0.10000000000E+04  0.10000000000E+04  0.00000000000E+00 0.  1.
    9000005    2    1    2  501    0  0.30128820400E+02 -0.15240763170E+02 -0.90240763044E+03  0.90304506604E+03  0.32913742060E+01 0.  0.
         13    1    3    3    0    0  0.57414696697E+00 -0.80634715619E+00 -0.19693820801E+02  0.19718681959E+02  0.00000000000E+00 0.  1.
          1    1    3    3  501    0  0.29554673433E+02 -0.14434416014E+02 -0.88271380964E+03  0.88332638408E+03  0.00000000000E+00 0.  1.
         21    1    1    2  502  501 -0.30128820400E+02  0.15240763170E+02 -0.94343704495E+02  0.10020359903E+03  0.00000000000E+00 0.  1.
<mgrwt>
<rscale>  1 0.30000000E+03</rscale>
<asrwt>0</asrwt>
<pdfrwt beam="1">  1        3 0.11813352E-01 0.30000000E+03</pdfrwt>
<pdfrwt beam="2">0</pdfrwt>
<totfact> 0.25013483E+02</totfact>
</mgrwt>
</event>
<event>
 6    1  0.1956957E-002  0.3000000E+03  0.7818608E-02  0.1093470E+00
          1   -1    0    0  502    0  0.00000000000E+00  0.00000000000E+00  0.21757523053E+01  0.21757523053E+01  0.00000000000E+00 0.  1.
         13   -1    0    0    0    0 -0.00000000000E+00 -0.00000000000E+00 -0.10000000000E+04  0.10000000000E+04  0.00000000000E+00 0.  1.
    9000005    2    1    2  501    0  0.24601299850E+02  0.30731376184E+02 -0.76688357577E+03  0.76790403957E+03  0.40686328791E+01 0.  0.
         13    1    3    3    0    0  0.11921429640E+02  0.18128071717E+02 -0.41855387425E+03  0.41911584689E+03  0.00000000000E+00 0.  1.
          3    1    3    3  501    0  0.12679870210E+02  0.12603304467E+02 -0.34832970152E+03  0.34878819268E+03  0.00000000000E+00 0.  1.
         21    1    1    2  502  501 -0.24601299850E+02 -0.30731376184E+02 -0.23094067193E+03  0.23427171273E+03  0.00000000000E+00 0.  1.
<mgrwt>
<rscale>  1 0.30000000E+03</rscale>
<asrwt>0</asrwt>
<pdfrwt beam="1">  1        1 0.79118432E-02 0.30000000E+03</pdfrwt>
<pdfrwt beam="2">0</pdfrwt>
<totfact> 0.10458568E+03</totfact>
</mgrwt>
</event>
<event>
 6    1  0.1956957E-002  0.3000000E+03  0.7818608E-02  0.1093470E+00
          3   -1    0    0  502    0  0.00000000000E+00  0.00000000000E+00  0.14042853318E+01  0.14042853318E+01  0.00000000000E+00 0.  1.
         13   -1    0    0    0    0 -0.00000000000E+00 -0.00000000000E+00 -0.10000000000E+04  0.10000000000E+04  0.00000000000E+00 0.  1.
    9000005    2    1    2  501    0  0.25832464023E+02 -0.26978587123E+02 -0.47430306021E+03  0.47578279806E+03  0.32737816909E+01 0.  0.
         13    1    3    3    0    0  0.10994300516E+02 -0.11005874132E+02 -0.21784777210E+03  0.21840250850E+03  0.00000000000E+00 0.  1.
          1    1    3    3  501    0  0.14838163508E+02 -0.15972712991E+02 -0.25645528811E+03  0.25738028956E+03  0.00000000000E+00 0.  1.
         21    1    1    2  502  501 -0.25832464023E+02  0.26978587123E+02 -0.52429265446E+03  0.52562148727E+03  0.00000000000E+00 0.  1.
<mgrwt>
<rscale>  1 0.30000000E+03</rscale>
<asrwt>0</asrwt>
<pdfrwt beam="1">  1        3 0.51065029E-02 0.30000000E+03</pdfrwt>
<pdfrwt beam="2">0</pdfrwt>
<totfact> 0.95771294E+02</totfact>
</mgrwt>
</event>
<event>
 6    1  0.1956957E-002  0.3000000E+03  0.7818608E-02  0.1093470E+00
          1   -1    0    0  502    0  0.00000000000E+00  0.00000000000E+00  0.14797974341E+01  0.14797974341E+01  0.00000000000E+00 0.  1.
         13   -1    0    0    0    0 -0.00000000000E+00 -0.00000000000E+00 -0.10000000000E+04  0.10000000000E+04  0.00000000000E+00 0.  1.
    9000005    2    1    2  501    0 -0.27155053971E+02 -0.24900197048E+02 -0.35946005755E+03  0.36135849197E+03  0.33181277018E+01 0.  0.
         13    1    3    3    0    0 -0.32956010216E+01 -0.42189253463E+01 -0.45079412982E+02  0.45396186976E+02  0.00000000000E+00 0.  1.
          3    1    3    3  501    0 -0.23859452949E+02 -0.20681271702E+02 -0.31438064457E+03  0.31596230499E+03  0.00000000000E+00 0.  1.
         21    1    1    2  502  501  0.27155053971E+02  0.24900197048E+02 -0.63906014501E+03  0.64012130547E+03  0.00000000000E+00 0.  1.
<mgrwt>
<rscale>  1 0.30000000E+03</rscale>
<asrwt>0</asrwt>
<pdfrwt beam="1">  1        1 0.53810929E-02 0.30000000E+03</pdfrwt>
<pdfrwt beam="2">0</pdfrwt>
<totfact> 0.17941112E+03</totfact>
</mgrwt>
</event>
<event>
 6    1  0.1956957E-002  0.3000000E+03  0.7818608E-02  0.1093470E+00
          1   -1    0    0  502    0  0.00000000000E+00  0.00000000000E+00  0.10210448867E+01  0.10210448867E+01  0.00000000000E+00 0.  1.
         13   -1    0    0    0    0 -0.00000000000E+00 -0.00000000000E+00 -0.10000000000E+04  0.10000000000E+04  0.00000000000E+00 0.  1.
    9000005    2    1    2  501    0 -0.57323595339E+00  0.31838274958E+02 -0.52887820622E+03  0.52984303345E+03  0.27347264762E+01 0.  0.
         13    1    3    3    0    0 -0.13669649167E+01  0.21131821393E+02 -0.36452295195E+03  0.36513751514E+03  0.00000000000E+00 0.  1.
          1    1    3    3  501    0  0.79372896330E+00  0.10706453565E+02 -0.16435525427E+03  0.16470551831E+03  0.00000000000E+00 0.  1.
         21    1    1    2  502  501  0.57323595339E+00 -0.31838274958E+02 -0.47010074889E+03  0.47117801144E+03  0.00000000000E+00 0.  1.
<mgrwt>
<rscale>  1 0.30000000E+03</rscale>
<asrwt>0</asrwt>
<pdfrwt beam="1">  1        1 0.37128983E-02 0.30000000E+03</pdfrwt>
<pdfrwt beam="2">0</pdfrwt>
<totfact> 0.30239474E+03</totfact>
</mgrwt>
</event>
<event>
 6    1  0.1956957E-002  0.3000000E+03  0.7818608E-02  0.1093470E+00
          3   -1    0    0  502    0  0.00000000000E+00  0.00000000000E+00  0.99016133036E+00  0.99016133036E+00  0.00000000000E+00 0.  1.
         13   -1    0    0    0    0 -0.00000000000E+00 -0.00000000000E+00 -0.10000000000E+04  0.10000000000E+04  0.00000000000E+00 0.  1.
    9000005    2    1    2  501    0  0.78202012177E+01  0.29494123897E+02 -0.61720895322E+03  0.61797191761E+03  0.33675108984E+01 0.  0.
         13    1    3    3    0    0  0.58779862968E+01  0.18644066684E+02 -0.36695767442E+03  0.36747800854E+03  0.00000000000E+00 0.  1.
          1    1    3    3  501    0  0.19422149209E+01  0.10850057213E+02 -0.25025127880E+03  0.25049390907E+03  0.00000000000E+00 0.  1.
         21    1    1    2  502  501 -0.78202012177E+01 -0.29494123897E+02 -0.38180088545E+03  0.38301824372E+03  0.00000000000E+00 0.  1.
<mgrwt>
<rscale>  1 0.30000000E+03</rscale>
<asrwt>0</asrwt>
<pdfrwt beam="1">  1        3 0.36005942E-02 0.30000000E+03</pdfrwt>
<pdfrwt beam="2">0</pdfrwt>
<totfact> 0.16403944E+03</totfact>
</mgrwt>
</event>
<event>
 6    1  0.1956957E-002  0.3000000E+03  0.7818608E-02  0.1093470E+00
          3   -1    0    0  502    0  0.00000000000E+00  0.00000000000E+00  0.11013351069E+02  0.11013351069E+02  0.00000000000E+00 0.  1.
         13   -1    0    0    0    0 -0.00000000000E+00 -0.00000000000E+00 -0.10000000000E+04  0.10000000000E+04  0.00000000000E+00 0.  1.
    9000005    2    1    2  501    0  0.86393274086E+01  0.10373506767E+03 -0.43130859901E+03  0.44370355069E+03  0.31829344292E+01 0.  0.
         13    1    3    3    0    0  0.18013818783E+01  0.10391233333E+02 -0.44646713660E+02  0.45875393704E+02  0.00000000000E+00 0.  1.
          3    1    3    3  501    0  0.68379455303E+01  0.93343834339E+02 -0.38666188535E+03  0.39782815699E+03  0.00000000000E+00 0.  1.
         21    1    1    2  502  501 -0.86393274086E+01 -0.10373506767E+03 -0.55767804992E+03  0.56730980038E+03  0.00000000000E+00 0.  1.
<mgrwt>
<rscale>  1 0.30000000E+03</rscale>
<asrwt>0</asrwt>
<pdfrwt beam="1">  1        3 0.40048634E-01 0.30000000E+03</pdfrwt>
<pdfrwt beam="2">0</pdfrwt>
<totfact> 0.26858549E+01</totfact>
</mgrwt>
</event>
<event>
 6    1  0.1956957E-002  0.3000000E+03  0.7818608E-02  0.1093470E+00
          1   -1    0    0  502    0  0.00000000000E+00  0.00000000000E+00  0.16610714405E+01  0.16610714405E+01  0.00000000000E+00 0.  1.
         13   -1    0    0    0    0 -0.00000000000E+00 -0.00000000000E+00 -0.10000000000E+04  0.10000000000E+04  0.00000000000E+00 0.  1.
    9000005    2    1    2  501    0 -0.40579158174E+02  0.28461528032E+01 -0.48845200597E+03  0.49015404070E+03  0.32943618053E+01 0.  0.
         13    1    3    3    0    0 -0.17223735994E+02  0.17127801781E+01 -0.18937999009E+03  0.19016932282E+03  0.00000000000E+00 0.  1.
          3    1    3    3  501    0 -0.23355422180E+02  0.11333726250E+01 -0.29907201588E+03  0.29998471788E+03  0.00000000000E+00 0.  1.
         21    1    1    2  502  501  0.40579158174E+02 -0.28461528032E+01 -0.50988692259E+03  0.51150703074E+03  0.00000000000E+00 0.  1.
<mgrwt>
<rscale>  1 0.30000000E+03</rscale>
<asrwt>0</asrwt>
<pdfrwt beam="1">  1        1 0.60402725E-02 0.30000000E+03</pdfrwt>
<pdfrwt beam="2">0</pdfrwt>
<totfact> 0.15254630E+03</totfact>
</mgrwt>
</event>
<event>
 6    1  0.1956957E-002  0.3000000E+03  0.7818608E-02  0.1093470E+00
          3   -1    0    0  502    0  0.00000000000E+00  0.00000000000E+00  0.16317754757E+01  0.16317754757E+01  0.00000000000E+00 0.  1.
         13   -1    0    0    0    0 -0.00000000000E+00 -0.00000000000E+00 -0.10000000000E+04  0.10000000000E+04  0.00000000000E+00 0.  1.
    9000005    2    1    2  501    0 -0.26740190986E+02 -0.23316865239E+02 -0.73758342581E+03  0.73844472173E+03  0.35472529472E+01 0.  0.
         13    1    3    3    0    0 -0.19266905396E+02 -0.14973691846E+02 -0.52383492708E+03  0.52440295186E+03  0.00000000000E+00 0.  1.
          3    1    3    3  501    0 -0.74732855903E+01 -0.83431733932E+01 -0.21374849873E+03  0.21404176987E+03  0.00000000000E+00 0.  1.
         21    1    1    2  502  501  0.26740190986E+02  0.23316865239E+02 -0.26078479871E+03  0.26318705374E+03  0.00000000000E+00 0.  1.
<mgrwt>
<rscale>  1 0.30000000E+03</rscale>
<asrwt>0</asrwt>
<pdfrwt beam="1">  1        3 0.59337415E-02 0.30000000E+03</pdfrwt>
<pdfrwt beam="2">0</pdfrwt>
<totfact> 0.75873133E+02</totfact>
</mgrwt>
</event>
<event>
 6    1  0.1956957E-002  0.3000000E+03  0.7818608E-02  0.1093470E+00
          3   -1    0    0  502    0  0.00000000000E+00  0.00000000000E+00  0.11077494993E+01  0.11077494993E+01  0.00000000000E+00 0.  1.
         13   -1    0    0    0    0 -0.00000000000E+00 -0.00000000000E+00 -0.10000000000E+04  0.10000000000E+04  0.00000000000E+00 0.  1.
    9000005    2    1    2  501    0  0.12805040793E+02 -0.29468948193E+02 -0.62752209856E+03  0.62835021741E+03  0.27610795198E+01 0.  0.
         13    1    3    3    0    0  0.11960988196E+02 -0.28278523794E+02 -0.60718922614E+03  0.60796504545E+03  0.00000000000E+00 0.  1.
          3    1    3    3  501    0  0.84405259650E+00 -0.11904243984E+01 -0.20332872420E+02  0.20385171961E+02  0.00000000000E+00 0.  1.
         21    1    1    2  502  501 -0.12805040793E+02  0.29468948193E+02 -0.37137015194E+03  0.37275753209E+03  0.00000000000E+00 0.  1.
<mgrwt>
<rscale>  1 0.30000000E+03</rscale>
<asrwt>0</asrwt>
<pdfrwt beam="1">  1        3 0.40281885E-02 0.30000000E+03</pdfrwt>
<pdfrwt beam="2">0</pdfrwt>
<totfact> 0.13802963E+03</totfact>
</mgrwt>
</event>
<event>
 6    1  0.1956957E-002  0.3000000E+03  0.7818608E-02  0.1093470E+00
          3   -1    0    0  502    0  0.00000000000E+00  0.00000000000E+00  0.15353799623E+02  0.15353799623E+02  0.00000000000E+00 0.  1.
         13   -1    0    0    0    0 -0.00000000000E+00 -0.00000000000E+00 -0.10000000000E+04  0.10000000000E+04  0.00000000000E+00 0.  1.
    9000005    2    1    2  501    0  0.43306501267E+02  0.84146936607E+01 -0.96672866359E+03  0.96773764432E+03  0.23620130432E+01 0.  0.
         13    1    3    3    0    0  0.76692072986E+01  0.65735251737E+00 -0.16062180625E+03  0.16080613637E+03  0.00000000000E+00 0.  1.
          1    1    3    3  501    0  0.35637293969E+02  0.77573411433E+01 -0.80610685734E+03  0.80693150794E+03  0.00000000000E+00 0.  1.
         21    1    1    2  502  501 -0.43306501267E+02 -0.84146936607E+01 -0.17917536788E+02  0.47616155304E+02  0.00000000000E+00 0.  1.
<mgrwt>
<rscale>  1 0.30000000E+03</rscale>
<asrwt>0</asrwt>
<pdfrwt beam="1">  1        3 0.55832116E-01 0.30000000E+03</pdfrwt>
<pdfrwt beam="2">0</pdfrwt>
<totfact> 0.14057655E+01</totfact>
</mgrwt>
</event>
<event>
 6    1  0.1956957E-002  0.3000000E+03  0.7818608E-02  0.1093470E+00
          1   -1    0    0  502    0  0.00000000000E+00  0.00000000000E+00  0.31710971632E+01  0.31710971632E+01  0.00000000000E+00 0.  1.
         13   -1    0    0    0    0 -0.00000000000E+00 -0.00000000000E+00 -0.10000000000E+04  0.10000000000E+04  0.00000000000E+00 0.  1.
    9000005    2    1    2  501    0 -0.22313870520E+02 -0.35111628152E+02 -0.83625433447E+03  0.83729485638E+03  0.32602694889E+01 0.  0.
         13    1    3    3    0    0 -0.17037501899E+02 -0.26039987003E+02 -0.59699852478E+03  0.59780899624E+03  0.00000000000E+00 0.  1.
          3    1    3    3  501    0 -0.52763686202E+01 -0.90716411493E+01 -0.23925580969E+03  0.23948586014E+03  0.00000000000E+00 0.  1.
         21    1    1    2  502  501  0.22313870520E+02  0.35111628152E+02 -0.16057456837E+03  0.16587624078E+03  0.00000000000E+00 0.  1.
<mgrwt>
<rscale>  1 0.30000000E+03</rscale>
<asrwt>0</asrwt>
<pdfrwt beam="1">  1        1 0.11531287E-01 0.30000000E+03</pdfrwt>
<pdfrwt beam="2">0</pdfrwt>
<totfact> 0.62120532E+02</totfact>
</mgrwt>
</event>
<event>
 6    1  0.1956957E-002  0.3000000E+03  0.7818608E-02  0.1093470E+00
          1   -1    0    0  502    0  0.00000000000E+00  0.00000000000E+00  0.23372472349E+01  0.23372472349E+01  0.00000000000E+00 0.  1.
         13   -1    0    0    0    0 -0.00000000000E+00 -0.00000000000E+00 -0.10000000000E+04  0.10000000000E+04  0.00000000000E+00 0.  1.
    9000005    2    1    2  501    0 -0.40990926856E+02  0.23052125810E+01 -0.75994100146E+03  0.76109628651E+03  0.84653142115E+01 0.  0.
         13    1    3    3    0    0 -0.27866302293E+01 -0.35018201129E+00 -0.10427636101E+03  0.10431417642E+03  0.00000000000E+00 0.  1.
          1    1    3    3  501    0 -0.38204296626E+02  0.26553945923E+01 -0.65566464045E+03  0.65678211009E+03  0.00000000000E+00 0.  1.
         21    1    1    2  502  501  0.40990926856E+02 -0.23052125810E+01 -0.23772175131E+03  0.24124096073E+03  0.00000000000E+00 0.  1.
<mgrwt>
<rscale>  1 0.30000000E+03</rscale>
<asrwt>0</asrwt>
<pdfrwt beam="1">  1        1 0.84990988E-02 0.30000000E+03</pdfrwt>
<pdfrwt beam="2">0</pdfrwt>
<totfact> 0.94670738E+02</totfact>
</mgrwt>
</event>
<event>
 6    1  0.1956957E-002  0.3000000E+03  0.7818608E-02  0.1093470E+00
          3   -1    0    0  502    0  0.00000000000E+00  0.00000000000E+00  0.19662958796E+01  0.19662958796E+01  0.00000000000E+00 0.  1.
         13   -1    0    0    0    0 -0.00000000000E+00 -0.00000000000E+00 -0.10000000000E+04  0.10000000000E+04  0.00000000000E+00 0.  1.
    9000005    2    1    2  501    0  0.19015444601E+02 -0.32953057135E+02 -0.75580893296E+03  0.75677182027E+03  0.29922730655E+01 0.  0.
         13    1    3    3    0    0  0.20295543740E+01 -0.55214132710E+01 -0.12469039488E+03  0.12482908184E+03  0.00000000000E+00 0.  1.
          1    1    3    3  501    0  0.16985890227E+02 -0.27431643864E+02 -0.63111853808E+03  0.63194273843E+03  0.00000000000E+00 0.  1.
         21    1    1    2  502  501 -0.19015444601E+02  0.32953057135E+02 -0.24222477116E+03  0.24519447561E+03  0.00000000000E+00 0.  1.
<mgrwt>
<rscale>  1 0.30000000E+03</rscale>
<asrwt>0</asrwt>
<pdfrwt beam="1">  1        3 0.71501819E-02 0.30000000E+03</pdfrwt>
<pdfrwt beam="2">0</pdfrwt>
<totfact> 0.56645852E+02</totfact>
</mgrwt>
</event>
<event>
 6    1  0.1956957E-002  0.3000000E+03  0.7818608E-02  0.1093470E+00
          3   -1    0    0  502    0  0.00000000000E+00  0.00000000000E+00  0.20214109308E+01  0.20214109308E+01  0.00000000000E+00 0.  1.
         13   -1    0    0    0    0 -0.00000000000E+00 -0.00000000000E+00 -0.10000000000E+04  0.10000000000E+04  0.00000000000E+00 0.  1.
    9000005    2    1    2  501    0  0.35986130047E+02 -0.15212198837E+02 -0.74625622522E+03  0.74728515319E+03  0.32146445813E+01 0.  0.
         13    1    3    3    0    0  0.34389641780E+02 -0.15209003453E+02 -0.71738664237E+03  0.71837146094E+03  0.00000000000E+00 0.  1.
          1    1    3    3  501    0  0.15964882670E+01 -0.31953840796E-02 -0.28869582855E+02  0.28913692245E+02  0.00000000000E+00 0.  1.
         21    1    1    2  502  501 -0.35986130047E+02  0.15212198837E+02 -0.25172236384E+03  0.25473625774E+03  0.00000000000E+00 0.  1.
<mgrwt>
<rscale>  1 0.30000000E+03</rscale>
<asrwt>0</asrwt>
<pdfrwt beam="1">  1        3 0.73506007E-02 0.30000000E+03</pdfrwt>
<pdfrwt beam="2">0</pdfrwt>
<totfact> 0.54222332E+02</totfact>
</mgrwt>
</event>
<event>
 6    1  0.1956957E-002  0.3000000E+03  0.7818608E-02  0.1093470E+00
          1   -1    0    0  502    0  0.00000000000E+00  0.00000000000E+00  0.83332683989E+01  0.83332683989E+01  0.00000000000E+00 0.  1.
         13   -1    0    0    0    0 -0.00000000000E+00 -0.00000000000E+00 -0.10000000000E+04  0.10000000000E+04  0.00000000000E+00 0.  1.
    9000005    2    1    2  501    0 -0.86968319751E+02 -0.33983328224E+01 -0.64749108184E+03  0.65332352883E+03  0.34489045942E+01 0.  0.
         13    1    3    3    0    0 -0.29367359038E+02  0.61275493693E-01 -0.22667367943E+03  0.22856815719E+03  0.00000000000E+00 0.  1.
          3    1    3    3  501    0 -0.57600960713E+02 -0.34596083161E+01 -0.42081740241E+03  0.42475537164E+03  0.00000000000E+00 0.  1.
         21    1    1    2  502  501  0.86968319751E+02  0.33983328224E+01 -0.34417564976E+03  0.35500973957E+03  0.00000000000E+00 0.  1.
<mgrwt>
<rscale>  1 0.30000000E+03</rscale>
<asrwt>0</asrwt>
<pdfrwt beam="1">  1        1 0.30302858E-01 0.30000000E+03</pdfrwt>
<pdfrwt beam="2">0</pdfrwt>
<totfact> 0.16996188E+02</totfact>
</mgrwt>
</event>
<event>
 6    1  0.1956957E-002  0.3000000E+03  0.7818608E-02  0.1093470E+00
          1   -1    0    0  502    0  0.00000000000E+00  0.00000000000E+00  0.12782868648E+01  0.12782868648E+01  0.00000000000E+00 0.  1.
         13   -1    0    0    0    0 -0.00000000000E+00 -0.00000000000E+00 -0.10000000000E+04  0.10000000000E+04  0.00000000000E+00 0.  1.
    9000005    2    1    2  501    0 -0.25027723231E+02 -0.22891944344E+02 -0.65487284715E+03  0.65576060181E+03  0.36184121604E+01 0.  0.
         13    1    3    3    0    0 -0.68095929444E+01 -0.54176375656E+01 -0.19756204713E+03  0.19775359369E+03  0.00000000000E+00 0.  1.
          1    1    3    3  501    0 -0.18218130286E+02 -0.17474306779E+02 -0.45731080002E+03  0.45800700812E+03  0.00000000000E+00 0.  1.
         21    1    1    2  502  501  0.25027723231E+02  0.22891944344E+02 -0.34384886598E+03  0.34551768505E+03  0.00000000000E+00 0.  1.
<mgrwt>
<rscale>  1 0.30000000E+03</rscale>
<asrwt>0</asrwt>
<pdfrwt beam="1">  1        1 0.46483257E-02 0.30000000E+03</pdfrwt>
<pdfrwt beam="2">0</pdfrwt>
<totfact> 0.22039822E+03</totfact>
</mgrwt>
</event>
<event>
 6    1  0.1956957E-002  0.3000000E+03  0.7818608E-02  0.1093470E+00
          1   -1    0    0  502    0  0.00000000000E+00  0.00000000000E+00  0.83147098101E+01  0.83147098101E+01  0.00000000000E+00 0.  1.
         13   -1    0    0    0    0 -0.00000000000E+00 -0.00000000000E+00 -0.10000000000E+04  0.10000000000E+04  0.00000000000E+00 0.  1.
    9000005    2    1    2  501    0  0.23416524685E+02 -0.46759277466E+02 -0.90844628572E+03  0.91001162989E+03  0.10571131952E+02 0.  0.
         13    1    3    3    0    0  0.32381551145E+01 -0.78051308329E+01 -0.22512049419E+03  0.22527903281E+03  0.00000000000E+00 0.  1.
          3    1    3    3  501    0  0.20178369570E+02 -0.38954146633E+02 -0.68332579153E+03  0.68473259708E+03  0.00000000000E+00 0.  1.
         21    1    1    2  502  501 -0.23416524685E+02  0.46759277466E+02 -0.83239004467E+02  0.98303079922E+02  0.00000000000E+00 0.  1.
<mgrwt>
<rscale>  1 0.30000000E+03</rscale>
<asrwt>0</asrwt>
<pdfrwt beam="1">  1        1 0.30235372E-01 0.30000000E+03</pdfrwt>
<pdfrwt beam="2">0</pdfrwt>
<totfact> 0.17045960E+02</totfact>
</mgrwt>
</event>
<event>
 6    1  0.1956957E-002  0.3000000E+03  0.7818608E-02  0.1093470E+00
          3   -1    0    0  502    0  0.00000000000E+00  0.00000000000E+00  0.28297049922E+01  0.28297049922E+01  0.00000000000E+00 0.  1.
         13   -1    0    0    0    0 -0.00000000000E+00 -0.00000000000E+00 -0.10000000000E+04  0.10000000000E+04  0.00000000000E+00 0.  1.
    9000005    2    1    2  501    0  0.24679335011E+02  0.41057936217E+02 -0.71601393209E+03  0.71762149313E+03  0.31357225629E+01 0.  0.
         13    1    3    3    0    0  0.78453769919E+01  0.15357931054E+02 -0.24378247587E+03  0.24439171738E+03  0.00000000000E+00 0.  1.
          1    1    3    3  501    0  0.16833958019E+02  0.25700005164E+02 -0.47223145622E+03  0.47322977575E+03  0.00000000000E+00 0.  1.
         21    1    1    2  502  501 -0.24679335011E+02 -0.41057936217E+02 -0.28115636292E+03  0.28520821186E+03  0.00000000000E+00 0.  1.
<mgrwt>
<rscale>  1 0.30000000E+03</rscale>
<asrwt>0</asrwt>
<pdfrwt beam="1">  1        3 0.10289858E-01 0.30000000E+03</pdfrwt>
<pdfrwt beam="2">0</pdfrwt>
<totfact> 0.31502280E+02</totfact>
</mgrwt>
</event>
<event>
 6    1  0.1956957E-002  0.3000000E+03  0.7818608E-02  0.1093470E+00
          1   -1    0    0  502    0  0.00000000000E+00  0.00000000000E+00  0.21241891630E+01  0.21241891630E+01  0.00000000000E+00 0.  1.
         13   -1    0    0    0    0 -0.00000000000E+00 -0.00000000000E+00 -0.10000000000E+04  0.10000000000E+04  0.00000000000E+00 0.  1.
    9000005    2    1    2  501    0  0.14412761150E+02  0.32923931196E+02 -0.81110017844E+03  0.81192206040E+03  0.64976739124E+01 0.  0.
         13    1    3    3    0    0  0.96768554256E+01  0.26342397568E+02 -0.57796769823E+03  0.57864861846E+03  0.00000000000E+00 0.  1.
          3    1    3    3  501    0  0.47359057241E+01  0.65815336289E+01 -0.23313248021E+03  0.23327344194E+03  0.00000000000E+00 0.  1.
         21    1    1    2  502  501 -0.14412761150E+02 -0.32923931196E+02 -0.18677563240E+03  0.19020212876E+03  0.00000000000E+00 0.  1.
<mgrwt>
<rscale>  1 0.30000000E+03</rscale>
<asrwt>0</asrwt>
<pdfrwt beam="1">  1        1 0.77243405E-02 0.30000000E+03</pdfrwt>
<pdfrwt beam="2">0</pdfrwt>
<totfact> 0.10814037E+03</totfact>
</mgrwt>
</event>
<event>
 6    1  0.1956957E-002  0.3000000E+03  0.7818608E-02  0.1093470E+00
          1   -1    0    0  502    0  0.00000000000E+00  0.00000000000E+00  0.11056220025E+01  0.11056220025E+01  0.00000000000E+00 0.  1.
         13   -1    0    0    0    0 -0.00000000000E+00 -0.00000000000E+00 -0.10000000000E+04  0.10000000000E+04  0.00000000000E+00 0.  1.
    9000005    2    1    2  501    0 -0.28365787806E+02  0.16706602254E+02 -0.55403633999E+03  0.55503118599E+03  0.44297769989E+01 0.  0.
         13    1    3    3    0    0 -0.56987072119E+01  0.46284946009E+01 -0.14970183265E+03  0.14988174313E+03  0.00000000000E+00 0.  1.
          1    1    3    3  501    0 -0.22667080594E+02  0.12078107653E+02 -0.40433450734E+03  0.40514944287E+03  0.00000000000E+00 0.  1.
         21    1    1    2  502  501  0.28365787806E+02 -0.16706602254E+02 -0.44485803801E+03  0.44607443601E+03  0.00000000000E+00 0.  1.
<mgrwt>
<rscale>  1 0.30000000E+03</rscale>
<asrwt>0</asrwt>
<pdfrwt beam="1">  1        1 0.40204521E-02 0.30000000E+03</pdfrwt>
<pdfrwt beam="2">0</pdfrwt>
<totfact> 0.27034702E+03</totfact>
</mgrwt>
</event>
<event>
 6    1  0.1956957E-002  0.3000000E+03  0.7818608E-02  0.1093470E+00
          3   -1    0    0  502    0  0.00000000000E+00  0.00000000000E+00  0.32481577936E+01  0.32481577936E+01  0.00000000000E+00 0.  1.
         13   -1    0    0    0    0 -0.00000000000E+00 -0.00000000000E+00 -0.10000000000E+04  0.10000000000E+04  0.00000000000E+00 0.  1.
    9000005    2    1    2  501    0  0.23275976046E+02 -0.20977377404E+02 -0.91716500331E+03  0.91771520304E+03  0.52658491483E+01 0.  0.
         13    1    3    3    0    0  0.21127703159E+02 -0.18990965478E+02 -0.86669603760E+03  0.86716149488E+03  0.00000000000E+00 0.  1.
          3    1    3    3  501    0  0.21482728874E+01 -0.19864119252E+01 -0.50468965711E+02  0.50553708159E+02  0.00000000000E+00 0.  1.
         21    1    1    2  502  501 -0.23275976046E+02  0.20977377404E+02 -0.79586838893E+02  0.85532954752E+02  0.00000000000E+00 0.  1.
<mgrwt>
<rscale>  1 0.30000000E+03</rscale>
<asrwt>0</asrwt>
<pdfrwt beam="1">  1        3 0.11811508E-01 0.30000000E+03</pdfrwt>
<pdfrwt beam="2">0</pdfrwt>
<totfact> 0.25020061E+02</totfact>
</mgrwt>
</event>
<event>
 6    1  0.1956957E-002  0.3000000E+03  0.7818608E-02  0.1093470E+00
          3   -1    0    0  502    0  0.00000000000E+00  0.00000000000E+00  0.10236537702E+01  0.10236537702E+01  0.00000000000E+00 0.  1.
         13   -1    0    0    0    0 -0.00000000000E+00 -0.00000000000E+00 -0.10000000000E+04  0.10000000000E+04  0.00000000000E+00 0.  1.
    9000005    2    1    2  501    0 -0.29799519773E+02  0.10914846201E+02 -0.55226132285E+03  0.55318276979E+03  0.33856810215E+01 0.  0.
         13    1    3    3    0    0 -0.10509326024E+02  0.53096988425E+01 -0.21972084486E+03  0.22003610727E+03  0.00000000000E+00 0.  1.
          1    1    3    3  501    0 -0.19290193749E+02  0.56051473588E+01 -0.33254047799E+03  0.33314666252E+03  0.00000000000E+00 0.  1.
         21    1    1    2  502  501  0.29799519773E+02 -0.10914846201E+02 -0.44671502338E+03  0.44784088398E+03  0.00000000000E+00 0.  1.
<mgrwt>
<rscale>  1 0.30000000E+03</rscale>
<asrwt>0</asrwt>
<pdfrwt beam="1">  1        3 0.37223852E-02 0.30000000E+03</pdfrwt>
<pdfrwt beam="2">0</pdfrwt>
<totfact> 0.15584169E+03</totfact>
</mgrwt>
</event>
<event>
 6    1  0.1956957E-002  0.3000000E+03  0.7818608E-02  0.1093470E+00
          1   -1    0    0  502    0  0.00000000000E+00  0.00000000000E+00  0.13738162346E+01  0.13738162346E+01  0.00000000000E+00 0.  1.
         13   -1    0    0    0    0 -0.00000000000E+00 -0.00000000000E+00 -0.10000000000E+04  0.10000000000E+04  0.00000000000E+00 0.  1.
    9000005    2    1    2  501    0 -0.17098826179E+02 -0.26770240390E+02 -0.75370859552E+03  0.75440490998E+03  0.64113653811E+01 0.  0.
         13    1    3    3    0    0 -0.13047166605E+02 -0.23394845323E+02 -0.66543405776E+03  0.66597299688E+03  0.00000000000E+00 0.  1.
          3    1    3    3  501    0 -0.40516595735E+01 -0.33753950666E+01 -0.88274537758E+02  0.88431913094E+02  0.00000000000E+00 0.  1.
         21    1    1    2  502  501  0.17098826179E+02  0.26770240390E+02 -0.24491758824E+03  0.24696890626E+03  0.00000000000E+00 0.  1.
<mgrwt>
<rscale>  1 0.30000000E+03</rscale>
<asrwt>0</asrwt>
<pdfrwt beam="1">  1        1 0.49957059E-02 0.30000000E+03</pdfrwt>
<pdfrwt beam="2">0</pdfrwt>
<totfact> 0.19915640E+03</totfact>
</mgrwt>
</event>
<event>
 6    1  0.1956957E-002  0.3000000E+03  0.7818608E-02  0.1093470E+00
          3   -1    0    0  502    0  0.00000000000E+00  0.00000000000E+00  0.22165848194E+01  0.22165848194E+01  0.00000000000E+00 0.  1.
         13   -1    0    0    0    0 -0.00000000000E+00 -0.00000000000E+00 -0.10000000000E+04  0.10000000000E+04  0.00000000000E+00 0.  1.
    9000005    2    1    2  501    0 -0.20368775407E+02 -0.41737718952E+02 -0.42170151245E+03  0.42426565018E+03  0.35003037671E+01 0.  0.
         13    1    3    3    0    0 -0.13979107147E+02 -0.32062836350E+02 -0.31850892246E+03  0.32042374225E+03  0.00000000000E+00 0.  1.
          1    1    3    3  501    0 -0.63896682605E+01 -0.96748826024E+01 -0.10319258999E+03  0.10384190793E+03  0.00000000000E+00 0.  1.
         21    1    1    2  502  501  0.20368775407E+02  0.41737718952E+02 -0.57608190273E+03  0.57795093464E+03  0.00000000000E+00 0.  1.
<mgrwt>
<rscale>  1 0.30000000E+03</rscale>
<asrwt>0</asrwt>
<pdfrwt beam="1">  1        3 0.80603254E-02 0.30000000E+03</pdfrwt>
<pdfrwt beam="2">0</pdfrwt>
<totfact> 0.46826135E+02</totfact>
</mgrwt>
</event>
<event>
 6    1  0.1956957E-002  0.3000000E+03  0.7818608E-02  0.1093470E+00
          1   -1    0    0  502    0  0.00000000000E+00  0.00000000000E+00  0.16497166020E+02  0.16497166020E+02  0.00000000000E+00 0.  1.
         13   -1    0    0    0    0 -0.00000000000E+00 -0.00000000000E+00 -0.10000000000E+04  0.10000000000E+04  0.00000000000E+00 0.  1.
    9000005    2    1    2  501    0  0.11837132071E+02  0.28986959397E+02 -0.98466147619E+03  0.98516501061E+03  0.33932179045E+01 0.  0.
         13    1    3    3    0    0  0.76602886390E+01  0.19903705617E+02 -0.71611112516E+03  0.71642862945E+03  0.00000000000E+00 0.  1.
          1    1    3    3  501    0  0.41768434315E+01  0.90832537800E+01 -0.26855035103E+03  0.26873638116E+03  0.00000000000E+00 0.  1.
         21    1    1    2  502  501 -0.11837132071E+02 -0.28986959397E+02  0.11586422114E+01  0.31332155408E+02  0.00000000000E+00 0.  1.
<mgrwt>
<rscale>  1 0.30000000E+03</rscale>
<asrwt>0</asrwt>
<pdfrwt beam="1">  1        1 0.59989821E-01 0.30000000E+03</pdfrwt>
<pdfrwt beam="2">0</pdfrwt>
<totfact> 0.69359238E+01</totfact>
</mgrwt>
</event>
<event>
 6    1  0.1956957E-002  0.3000000E+03  0.7818608E-02  0.1093470E+00
          3   -1    0    0  502    0  0.00000000000E+00  0.00000000000E+00  0.19635968285E+01  0.19635968285E+01  0.00000000000E+00 0.  1.
         13   -1    0    0    0    0 -0.00000000000E+00 -0.00000000000E+00 -0.10000000000E+04  0.10000000000E+04  0.00000000000E+00 0.  1.
    9000005    2    1    2  501    0  0.54683785487E+01 -0.40600457392E+02 -0.68878246463E+03  0.69000799293E+03  0.33832546425E+01 0.  0.
         13    1    3    3    0    0  0.13142719518E+01 -0.82472484025E+01 -0.16441927039E+03  0.16463122697E+03  0.00000000000E+00 0.  1.
          3    1    3    3  501    0  0.41541065969E+01 -0.32353208989E+02 -0.52436319424E+03  0.52537676596E+03  0.00000000000E+00 0.  1.
         21    1    1    2  502  501 -0.54683785487E+01  0.40600457392E+02 -0.30925393854E+03  0.31195560390E+03  0.00000000000E+00 0.  1.
<mgrwt>
<rscale>  1 0.30000000E+03</rscale>
<asrwt>0</asrwt>
<pdfrwt beam="1">  1        3 0.71403672E-02 0.30000000E+03</pdfrwt>
<pdfrwt beam="2">0</pdfrwt>
<totfact> 0.56768850E+02</totfact>
</mgrwt>
</event>
<event>
 6    1  0.1956957E-002  0.3000000E+03  0.7818608E-02  0.1093470E+00
          1   -1    0    0  502    0  0.00000000000E+00  0.00000000000E+00  0.20786471811E+02  0.20786471811E+02  0.00000000000E+00 0.  1.
         13   -1    0    0    0    0 -0.00000000000E+00 -0.00000000000E+00 -0.10000000000E+04  0.10000000000E+04  0.00000000000E+00 0.  1.
    9000005    2    1    2  501    0 -0.13208954924E+03  0.26940732407E+02 -0.67044079730E+03  0.68386800776E+03  0.33372542723E+01 0.  0.
         13    1    3    3    0    0 -0.67242763614E+02  0.15211887840E+02 -0.34681235109E+03  0.35359835642E+03  0.00000000000E+00 0.  1.
          1    1    3    3  501    0 -0.64846785624E+02  0.11728844567E+02 -0.32362844621E+03  0.33026965134E+03  0.00000000000E+00 0.  1.
         21    1    1    2  502  501  0.13208954924E+03 -0.26940732407E+02 -0.30877273089E+03  0.33691846405E+03  0.00000000000E+00 0.  1.
<mgrwt>
<rscale>  1 0.30000000E+03</rscale>
<asrwt>0</asrwt>
<pdfrwt beam="1">  1        1 0.75587330E-01 0.30000000E+03</pdfrwt>
<pdfrwt beam="2">0</pdfrwt>
<totfact> 0.50779915E+01</totfact>
</mgrwt>
</event>
<event>
 6    1  0.1956957E-002  0.3000000E+03  0.7818608E-02  0.1093470E+00
          1   -1    0    0  502    0  0.00000000000E+00  0.00000000000E+00  0.69773889225E+01  0.69773889225E+01  0.00000000000E+00 0.  1.
         13   -1    0    0    0    0 -0.00000000000E+00 -0.00000000000E+00 -0.10000000000E+04  0.10000000000E+04  0.00000000000E+00 0.  1.
    9000005    2    1    2  501    0 -0.57018231389E+02  0.31609456077E+02 -0.81112191673E+03  0.81374670029E+03  0.38330162382E+01 0.  0.
         13    1    3    3    0    0 -0.14459924244E+02  0.74389258262E+01 -0.22261351932E+03  0.22320664419E+03  0.00000000000E+00 0.  1.
          1    1    3    3  501    0 -0.42558307146E+02  0.24170530251E+02 -0.58850839741E+03  0.59054005610E+03  0.00000000000E+00 0.  1.
         21    1    1    2  502  501  0.57018231389E+02 -0.31609456077E+02 -0.18190069435E+03  0.19323068863E+03  0.00000000000E+00 0.  1.
<mgrwt>
<rscale>  1 0.30000000E+03</rscale>
<asrwt>0</asrwt>
<pdfrwt beam="1">  1        1 0.25372377E-01 0.30000000E+03</pdfrwt>
<pdfrwt beam="2">0</pdfrwt>
<totfact> 0.21469994E+02</totfact>
</mgrwt>
</event>
<event>
 6    1  0.1956957E-002  0.3000000E+03  0.7818608E-02  0.1093470E+00
          1   -1    0    0  502    0  0.00000000000E+00  0.00000000000E+00  0.26297157012E+01  0.26297157012E+01  0.00000000000E+00 0.  1.
         13   -1    0    0    0    0 -0.00000000000E+00 -0.00000000000E+00 -0.10000000000E+04  0.10000000000E+04  0.00000000000E+00 0.  1.
    9000005    2    1    2  501    0  0.26425388205E+02  0.16522176428E+02 -0.89665520373E+03  0.89720291213E+03  0.33507784678E+01 0.  0.
         13    1    3    3    0    0  0.12895165772E+02  0.98595338478E+01 -0.48463470718E+03  0.48490648079E+03  0.00000000000E+00 0.  1.
          3    1    3    3  501    0  0.13530222433E+02  0.66626425803E+01 -0.41202049655E+03  0.41229643135E+03  0.00000000000E+00 0.  1.
         21    1    1    2  502  501 -0.26425388205E+02 -0.16522176428E+02 -0.10071508057E+03  0.10542680357E+03  0.00000000000E+00 0.  1.
<mgrwt>
<rscale>  1 0.30000000E+03</rscale>
<asrwt>0</asrwt>
<pdfrwt beam="1">  1        1 0.95626227E-02 0.30000000E+03</pdfrwt>
<pdfrwt beam="2">0</pdfrwt>
<totfact> 0.80392589E+02</totfact>
</mgrwt>
</event>
<event>
 6    1  0.1956957E-002  0.3000000E+03  0.7818608E-02  0.1093470E+00
          1   -1    0    0  502    0  0.00000000000E+00  0.00000000000E+00  0.44834145514E+01  0.44834145514E+01  0.00000000000E+00 0.  1.
         13   -1    0    0    0    0 -0.00000000000E+00 -0.00000000000E+00 -0.10000000000E+04  0.10000000000E+04  0.00000000000E+00 0.  1.
    9000005    2    1    2  501    0 -0.87301315181E+01 -0.48091536445E+02 -0.84087938828E+03  0.84230550661E+03  0.33778348731E+01 0.  0.
         13    1    3    3    0    0 -0.41910985816E+01 -0.29012703049E+02 -0.52546802313E+03  0.52628504214E+03  0.00000000000E+00 0.  1.
          1    1    3    3  501    0 -0.45390329366E+01 -0.19078833397E+02 -0.31541136515E+03  0.31602046447E+03  0.00000000000E+00 0.  1.
         21    1    1    2  502  501  0.87301315181E+01  0.48091536445E+02 -0.15463719717E+03  0.16217790794E+03  0.00000000000E+00 0.  1.
<mgrwt>
<rscale>  1 0.30000000E+03</rscale>
<asrwt>0</asrwt>
<pdfrwt beam="1">  1        1 0.16303360E-01 0.30000000E+03</pdfrwt>
<pdfrwt beam="2">0</pdfrwt>
<totfact> 0.38749284E+02</totfact>
</mgrwt>
</event>
<event>
 6    1  0.1956957E-002  0.3000000E+03  0.7818608E-02  0.1093470E+00
          3   -1    0    0  502    0  0.00000000000E+00  0.00000000000E+00  0.11175523063E+01  0.11175523063E+01  0.00000000000E+00 0.  1.
         13   -1    0    0    0    0 -0.00000000000E+00 -0.00000000000E+00 -0.10000000000E+04  0.10000000000E+04  0.00000000000E+00 0.  1.
    9000005    2    1    2  501    0 -0.25886445891E+02 -0.20369295928E+02 -0.43820866956E+03  0.43947700730E+03  0.53090092101E+01 0.  0.
         13    1    3    3    0    0 -0.23461229424E+01 -0.28712574848E+00 -0.25044006624E+02  0.25155297689E+02  0.00000000000E+00 0.  1.
          1    1    3    3  501    0 -0.23540322949E+02 -0.20082170180E+02 -0.41316466293E+03  0.41432170962E+03  0.00000000000E+00 0.  1.
         21    1    1    2  502  501  0.25886445891E+02  0.20369295928E+02 -0.56067377814E+03  0.56164054500E+03  0.00000000000E+00 0.  1.
<mgrwt>
<rscale>  1 0.30000000E+03</rscale>
<asrwt>0</asrwt>
<pdfrwt beam="1">  1        3 0.40638351E-02 0.30000000E+03</pdfrwt>
<pdfrwt beam="2">0</pdfrwt>
<totfact> 0.13617429E+03</totfact>
</mgrwt>
</event>
<event>
 6    1  0.1956957E-002  0.3000000E+03  0.7818608E-02  0.1093470E+00
          1   -1    0    0  502    0  0.00000000000E+00  0.00000000000E+00  0.53178348456E+01  0.53178348456E+01  0.00000000000E+00 0.  1.
         13   -1    0    0    0    0 -0.00000000000E+00 -0.00000000000E+00 -0.10000000000E+04  0.10000000000E+04  0.00000000000E+00 0.  1.
    9000005    2    1    2  501    0  0.58670893473E+02 -0.11103220476E+02 -0.21092364416E+03  0.21928795343E+03  0.57330278458E+01 0.  0.
         13    1    3    3    0    0  0.38800385576E+02 -0.98211857487E+01 -0.13653337653E+03  0.14227891100E+03  0.00000000000E+00 0.  1.
          3    1    3    3  501    0  0.19870507897E+02 -0.12820347275E+01 -0.74390267635E+02  0.77009042429E+02  0.00000000000E+00 0.  1.
         21    1    1    2  502  501 -0.58670893473E+02  0.11103220476E+02 -0.78375852099E+03  0.78602988141E+03  0.00000000000E+00 0.  1.
<mgrwt>
<rscale>  1 0.30000000E+03</rscale>
<asrwt>0</asrwt>
<pdfrwt beam="1">  1        1 0.19337622E-01 0.30000000E+03</pdfrwt>
<pdfrwt beam="2">0</pdfrwt>
<totfact> 0.30799199E+02</totfact>
</mgrwt>
</event>
<event>
 6    1  0.1956957E-002  0.3000000E+03  0.7818608E-02  0.1093470E+00
          3   -1    0    0  502    0  0.00000000000E+00  0.00000000000E+00  0.11384929366E+01  0.11384929366E+01  0.00000000000E+00 0.  1.
         13   -1    0    0    0    0 -0.00000000000E+00 -0.00000000000E+00 -0.10000000000E+04  0.10000000000E+04  0.00000000000E+00 0.  1.
    9000005    2    1    2  501    0  0.12838690824E+02 -0.27647915762E+02 -0.71175113837E+03  0.71241439793E+03  0.39181850481E+01 0.  0.
         13    1    3    3    0    0  0.18536730031E+01 -0.20345253019E+01 -0.83628120865E+02  0.83673400769E+02  0.00000000000E+00 0.  1.
          3    1    3    3  501    0  0.10985017821E+02 -0.25613390460E+02 -0.62812301750E+03  0.62874099716E+03  0.00000000000E+00 0.  1.
         21    1    1    2  502  501 -0.12838690824E+02  0.27647915762E+02 -0.28711036869E+03  0.28872409501E+03  0.00000000000E+00 0.  1.
<mgrwt>
<rscale>  1 0.30000000E+03</rscale>
<asrwt>0</asrwt>
<pdfrwt beam="1">  1        3 0.41399830E-02 0.30000000E+03</pdfrwt>
<pdfrwt beam="2">0</pdfrwt>
<totfact> 0.13234582E+03</totfact>
</mgrwt>
</event>
<event>
 6    1  0.1956957E-002  0.3000000E+03  0.7818608E-02  0.1093470E+00
          1   -1    0    0  502    0  0.00000000000E+00  0.00000000000E+00  0.15642051539E+01  0.15642051539E+01  0.00000000000E+00 0.  1.
         13   -1    0    0    0    0 -0.00000000000E+00 -0.00000000000E+00 -0.10000000000E+04  0.10000000000E+04  0.00000000000E+00 0.  1.
    9000005    2    1    2  501    0 -0.35291688800E+01 -0.34431061791E+02 -0.74070676116E+03  0.74152150125E+03  0.31109063664E+01 0.  0.
         13    1    3    3    0    0 -0.39580272619E+01 -0.30601814987E+02 -0.66914270750E+03  0.66985379006E+03  0.00000000000E+00 0.  1.
          1    1    3    3  501    0  0.42885838187E+00 -0.38292468043E+01 -0.71564053659E+02  0.71667711187E+02  0.00000000000E+00 0.  1.
         21    1    1    2  502  501  0.35291688800E+01  0.34431061791E+02 -0.25772903368E+03  0.26004270390E+03  0.00000000000E+00 0.  1.
<mgrwt>
<rscale>  1 0.30000000E+03</rscale>
<asrwt>0</asrwt>
<pdfrwt beam="1">  1        1 0.56880307E-02 0.30000000E+03</pdfrwt>
<pdfrwt beam="2">0</pdfrwt>
<totfact> 0.16596693E+03</totfact>
</mgrwt>
</event>
<event>
 6    1  0.1956957E-002  0.3000000E+03  0.7818608E-02  0.1093470E+00
          3   -1    0    0  502    0  0.00000000000E+00  0.00000000000E+00  0.12774932050E+01  0.12774932050E+01  0.00000000000E+00 0.  1.
         13   -1    0    0    0    0 -0.00000000000E+00 -0.00000000000E+00 -0.10000000000E+04  0.10000000000E+04  0.00000000000E+00 0.  1.
    9000005    2    1    2  501    0 -0.35096369111E+02  0.58449997245E+00 -0.58831325565E+03  0.58936991839E+03  0.35095817300E+01 0.  0.
         13    1    3    3    0    0 -0.34174112961E+01  0.10172935773E+01 -0.52714501825E+02  0.52834953287E+02  0.00000000000E+00 0.  1.
          1    1    3    3  501    0 -0.31678957815E+02 -0.43279360486E+00 -0.53559875383E+03  0.53653496511E+03  0.00000000000E+00 0.  1.
         21    1    1    2  502  501  0.35096369111E+02 -0.58449997245E+00 -0.41040925114E+03  0.41190757481E+03  0.00000000000E+00 0.  1.
<mgrwt>
<rscale>  1 0.30000000E+03</rscale>
<asrwt>0</asrwt>
<pdfrwt beam="1">  1        3 0.46454396E-02 0.30000000E+03</pdfrwt>
<pdfrwt beam="2">0</pdfrwt>
<totfact> 0.11083210E+03</totfact>
</mgrwt>
</event>
<event>
 6    1  0.1956957E-002  0.3000000E+03  0.7818608E-02  0.1093470E+00
          1   -1    0    0  502    0  0.00000000000E+00  0.00000000000E+00  0.39321419536E+01  0.39321419536E+01  0.00000000000E+00 0.  1.
         13   -1    0    0    0    0 -0.00000000000E+00 -0.00000000000E+00 -0.10000000000E+04  0.10000000000E+04  0.00000000000E+00 0.  1.
    9000005    2    1    2  501    0  0.47453866459E+02  0.40496307502E+02 -0.54534570698E+03  0.54891315573E+03  0.34484847906E+01 0.  0.
         13    1    3    3    0    0  0.26683218925E+01  0.29291172272E+01 -0.41069103254E+02  0.41259797764E+02  0.00000000000E+00 0.  1.
          1    1    3    3  501    0  0.44785544566E+02  0.37567190275E+02 -0.50427660373E+03  0.50765335797E+03  0.00000000000E+00 0.  1.
         21    1    1    2  502  501 -0.47453866459E+02 -0.40496307502E+02 -0.45072215106E+03  0.45501898622E+03  0.00000000000E+00 0.  1.
<mgrwt>
<rscale>  1 0.30000000E+03</rscale>
<asrwt>0</asrwt>
<pdfrwt beam="1">  1        1 0.14298728E-01 0.30000000E+03</pdfrwt>
<pdfrwt beam="2">0</pdfrwt>
<totfact> 0.46296760E+02</totfact>
</mgrwt>
</event>
<event>
 6    1  0.1956957E-002  0.3000000E+03  0.7818608E-02  0.1093470E+00
          1   -1    0    0  502    0  0.00000000000E+00  0.00000000000E+00  0.12584563102E+01  0.12584563102E+01  0.00000000000E+00 0.  1.
         13   -1    0    0    0    0 -0.00000000000E+00 -0.00000000000E+00 -0.10000000000E+04  0.10000000000E+04  0.00000000000E+00 0.  1.
    9000005    2    1    2  501    0 -0.30690774352E+02  0.93969111929E+01 -0.71113998432E+03  0.71187137553E+03  0.32484504690E+01 0.  0.
         13    1    3    3    0    0 -0.27945276927E+02  0.89544213150E+01 -0.66559959912E+03  0.66624616060E+03  0.00000000000E+00 0.  1.
          1    1    3    3  501    0 -0.27454974250E+01  0.44248987787E+00 -0.45540385200E+02  0.45625214932E+02  0.00000000000E+00 0.  1.
         21    1    1    2  502  501  0.30690774352E+02 -0.93969111929E+01 -0.28760155937E+03  0.28938708078E+03  0.00000000000E+00 0.  1.
<mgrwt>
<rscale>  1 0.30000000E+03</rscale>
<asrwt>0</asrwt>
<pdfrwt beam="1">  1        1 0.45762144E-02 0.30000000E+03</pdfrwt>
<pdfrwt beam="2">0</pdfrwt>
<totfact> 0.22530017E+03</totfact>
</mgrwt>
</event>
<event>
 6    1  0.1956957E-002  0.3000000E+03  0.7818608E-02  0.1093470E+00
          1   -1    0    0  502    0  0.00000000000E+00  0.00000000000E+00  0.12412419799E+01  0.12412419799E+01  0.00000000000E+00 0.  1.
         13   -1    0    0    0    0 -0.00000000000E+00 -0.00000000000E+00 -0.10000000000E+04  0.10000000000E+04  0.00000000000E+00 0.  1.
    9000005    2    1    2  501    0  0.33793289081E+02  0.80489348746E+01 -0.57381560125E+03  0.57488052823E+03  0.40627289019E+01 0.  0.
         13    1    3    3    0    0  0.49657130742E+01  0.26328710808E+01 -0.10017482789E+03  0.10033237991E+03  0.00000000000E+00 0.  1.
          3    1    3    3  501    0  0.28827576007E+02  0.54160637939E+01 -0.47364077336E+03  0.47454814832E+03  0.00000000000E+00 0.  1.
         21    1    1    2  502  501 -0.33793289081E+02 -0.80489348746E+01 -0.42494315677E+03  0.42636071375E+03  0.00000000000E+00 0.  1.
<mgrwt>
<rscale>  1 0.30000000E+03</rscale>
<asrwt>0</asrwt>
<pdfrwt beam="1">  1        1 0.45136167E-02 0.30000000E+03</pdfrwt>
<pdfrwt beam="2">0</pdfrwt>
<totfact> 0.22970955E+03</totfact>
</mgrwt>
</event>
<event>
 6    1  0.1956957E-002  0.3000000E+03  0.7818608E-02  0.1093470E+00
          1   -1    0    0  502    0  0.00000000000E+00  0.00000000000E+00  0.63426481930E+01  0.63426481930E+01  0.00000000000E+00 0.  1.
         13   -1    0    0    0    0 -0.00000000000E+00 -0.00000000000E+00 -0.10000000000E+04  0.10000000000E+04  0.00000000000E+00 0.  1.
    9000005    2    1    2  501    0  0.36623143880E+02 -0.53645407153E+01 -0.94232434525E+03  0.94305670562E+03  0.32780185821E+01 0.  0.
         13    1    3    3    0    0  0.12485479279E+02 -0.15912205509E+01 -0.28257945056E+03  0.28285962075E+03  0.00000000000E+00 0.  1.
          3    1    3    3  501    0  0.24137664601E+02 -0.37733201643E+01 -0.65974489469E+03  0.66019708487E+03  0.00000000000E+00 0.  1.
         21    1    1    2  502  501 -0.36623143880E+02  0.53645407153E+01 -0.51333006558E+02  0.63285942571E+02  0.00000000000E+00 0.  1.
<mgrwt>
<rscale>  1 0.30000000E+03</rscale>
<asrwt>0</asrwt>
<pdfrwt beam="1">  1        1 0.23064224E-01 0.30000000E+03</pdfrwt>
<pdfrwt beam="2">0</pdfrwt>
<totfact> 0.24356145E+02</totfact>
</mgrwt>
</event>
<event>
 6    1  0.1956957E-002  0.3000000E+03  0.7818608E-02  0.1093470E+00
          3   -1    0    0  502    0  0.00000000000E+00  0.00000000000E+00  0.12726226377E+01  0.12726226377E+01  0.00000000000E+00 0.  1.
         13   -1    0    0    0    0 -0.00000000000E+00 -0.00000000000E+00 -0.10000000000E+04  0.10000000000E+04  0.00000000000E+00 0.  1.
    9000005    2    1    2  501    0  0.19905227455E+02 -0.24710896892E+02 -0.72354836999E+03  0.72427021723E+03  0.61852518888E+01 0.  0.
         13    1    3    3    0    0  0.13190444482E+02 -0.14586146077E+02 -0.38204554154E+03  0.38255135511E+03  0.00000000000E+00 0.  1.
          1    1    3    3  501    0  0.67147829721E+01 -0.10124750815E+02 -0.34150282844E+03  0.34171886212E+03  0.00000000000E+00 0.  1.
         21    1    1    2  502  501 -0.19905227455E+02  0.24710896892E+02 -0.27517900737E+03  0.27700240541E+03  0.00000000000E+00 0.  1.
<mgrwt>
<rscale>  1 0.30000000E+03</rscale>
<asrwt>0</asrwt>
<pdfrwt beam="1">  1        3 0.46277284E-02 0.30000000E+03</pdfrwt>
<pdfrwt beam="2">0</pdfrwt>
<totfact> 0.11148746E+03</totfact>
</mgrwt>
</event>
<event>
 6    1  0.1956957E-002  0.3000000E+03  0.7818608E-02  0.1093470E+00
          1   -1    0    0  502    0  0.00000000000E+00  0.00000000000E+00  0.14506453406E+01  0.14506453406E+01  0.00000000000E+00 0.  1.
         13   -1    0    0    0    0 -0.00000000000E+00 -0.00000000000E+00 -0.10000000000E+04  0.10000000000E+04  0.00000000000E+00 0.  1.
    9000005    2    1    2  501    0 -0.36512887115E+02 -0.65372911569E+01 -0.39150029602E+03  0.39326935108E+03  0.35176141094E+01 0.  0.
         13    1    3    3    0    0 -0.16015702711E+02 -0.11107825383E+01 -0.16649293840E+03  0.16726516406E+03  0.00000000000E+00 0.  1.
          3    1    3    3  501    0 -0.20497184404E+02 -0.54265086186E+01 -0.22500735762E+03  0.22600418702E+03  0.00000000000E+00 0.  1.
         21    1    1    2  502  501  0.36512887115E+02  0.65372911569E+01 -0.60704905864E+03  0.60818129426E+03  0.00000000000E+00 0.  1.
<mgrwt>
<rscale>  1 0.30000000E+03</rscale>
<asrwt>0</asrwt>
<pdfrwt beam="1">  1        1 0.52750851E-02 0.30000000E+03</pdfrwt>
<pdfrwt beam="2">0</pdfrwt>
<totfact> 0.18449590E+03</totfact>
</mgrwt>
</event>
<event>
 6    1  0.1956957E-002  0.3000000E+03  0.7818608E-02  0.1093470E+00
          3   -1    0    0  502    0  0.00000000000E+00  0.00000000000E+00  0.99959157937E+00  0.99959157937E+00  0.00000000000E+00 0.  1.
         13   -1    0    0    0    0 -0.00000000000E+00 -0.00000000000E+00 -0.10000000000E+04  0.10000000000E+04  0.00000000000E+00 0.  1.
    9000005    2    1    2  501    0 -0.12690193081E+02  0.28756222487E+02 -0.53759159613E+03  0.53852142626E+03  0.35554163956E+01 0.  0.
         13    1    3    3    0    0 -0.10277337185E+02  0.19330572606E+02 -0.37834411171E+03  0.37897699345E+03  0.00000000000E+00 0.  1.
          3    1    3    3  501    0 -0.24128558963E+01  0.94256498814E+01 -0.15924748442E+03  0.15954443282E+03  0.00000000000E+00 0.  1.
         21    1    1    2  502  501  0.12690193081E+02 -0.28756222487E+02 -0.46140881229E+03  0.46247816532E+03  0.00000000000E+00 0.  1.
<mgrwt>
<rscale>  1 0.30000000E+03</rscale>
<asrwt>0</asrwt>
<pdfrwt beam="1">  1        3 0.36348861E-02 0.30000000E+03</pdfrwt>
<pdfrwt beam="2">0</pdfrwt>
<totfact> 0.16165876E+03</totfact>
</mgrwt>
</event>
<event>
 6    1  0.1956957E-002  0.3000000E+03  0.7818608E-02  0.1093470E+00
          3   -1    0    0  502    0  0.00000000000E+00  0.00000000000E+00  0.35463755400E+01  0.35463755400E+01  0.00000000000E+00 0.  1.
         13   -1    0    0    0    0 -0.00000000000E+00 -0.00000000000E+00 -0.10000000000E+04  0.10000000000E+04  0.00000000000E+00 0.  1.
    9000005    2    1    2  501    0 -0.22334324411E+02 -0.50956874866E+02 -0.32103291748E+03  0.32583806324E+03  0.35894578065E+01 0.  0.
         13    1    3    3    0    0 -0.11371642774E+02 -0.30346668537E+02 -0.18593416043E+03  0.18873724213E+03  0.00000000000E+00 0.  1.
          1    1    3    3  501    0 -0.10962681637E+02 -0.20610206329E+02 -0.13509875705E+03  0.13710082112E+03  0.00000000000E+00 0.  1.
         21    1    1    2  502  501  0.22334324411E+02  0.50956874866E+02 -0.67542070698E+03  0.67770831230E+03  0.00000000000E+00 0.  1.
<mgrwt>
<rscale>  1 0.30000000E+03</rscale>
<asrwt>0</asrwt>
<pdfrwt beam="1">  1        3 0.12895938E-01 0.30000000E+03</pdfrwt>
<pdfrwt beam="2">0</pdfrwt>
<totfact> 0.21567438E+02</totfact>
</mgrwt>
</event>
<event>
 6    1  0.1956957E-002  0.3000000E+03  0.7818608E-02  0.1093470E+00
          1   -1    0    0  502    0  0.00000000000E+00  0.00000000000E+00  0.15488174674E+01  0.15488174674E+01  0.00000000000E+00 0.  1.
         13   -1    0    0    0    0 -0.00000000000E+00 -0.00000000000E+00 -0.10000000000E+04  0.10000000000E+04  0.00000000000E+00 0.  1.
    9000005    2    1    2  501    0 -0.40746748793E+01 -0.38079110410E+02 -0.43105638013E+03  0.43286306644E+03  0.97061740368E+01 0.  0.
         13    1    3    3    0    0  0.30999174959E+01 -0.10185680871E+02 -0.10613074583E+03  0.10666345576E+03  0.00000000000E+00 0.  1.
          1    1    3    3  501    0 -0.71745923752E+01 -0.27893429539E+02 -0.32492563430E+03  0.32619961069E+03  0.00000000000E+00 0.  1.
         21    1    1    2  502  501  0.40746748793E+01  0.38079110410E+02 -0.56739480240E+03  0.56868575102E+03  0.00000000000E+00 0.  1.
<mgrwt>
<rscale>  1 0.30000000E+03</rscale>
<asrwt>0</asrwt>
<pdfrwt beam="1">  1        1 0.56320754E-02 0.30000000E+03</pdfrwt>
<pdfrwt beam="2">0</pdfrwt>
<totfact> 0.16828641E+03</totfact>
</mgrwt>
</event>
<event>
 6    1  0.1956957E-002  0.3000000E+03  0.7818608E-02  0.1093470E+00
          1   -1    0    0  502    0  0.00000000000E+00  0.00000000000E+00  0.51608649433E+01  0.51608649433E+01  0.00000000000E+00 0.  1.
         13   -1    0    0    0    0 -0.00000000000E+00 -0.00000000000E+00 -0.10000000000E+04  0.10000000000E+04  0.00000000000E+00 0.  1.
    9000005    2    1    2  501    0  0.69436330431E+01 -0.40730279266E+02 -0.90850068541E+03  0.90944515267E+03  0.31337887337E+01 0.  0.
         13    1    3    3    0    0  0.51523142495E+01 -0.30939783101E+02 -0.71764557479E+03  0.71833069511E+03  0.00000000000E+00 0.  1.
          1    1    3    3  501    0  0.17913187936E+01 -0.97904961652E+01 -0.19085511063E+03  0.19111445756E+03  0.00000000000E+00 0.  1.
         21    1    1    2  502  501 -0.69436330431E+01  0.40730279266E+02 -0.86338449643E+02  0.95715712272E+02  0.00000000000E+00 0.  1.
<mgrwt>
<rscale>  1 0.30000000E+03</rscale>
<asrwt>0</asrwt>
<pdfrwt beam="1">  1        1 0.18766821E-01 0.30000000E+03</pdfrwt>
<pdfrwt beam="2">0</pdfrwt>
<totfact> 0.32061308E+02</totfact>
</mgrwt>
</event>
<event>
 6    1  0.1956957E-002  0.3000000E+03  0.7818608E-02  0.1093470E+00
          1   -1    0    0  502    0  0.00000000000E+00  0.00000000000E+00  0.14178188856E+02  0.14178188856E+02  0.00000000000E+00 0.  1.
         13   -1    0    0    0    0 -0.00000000000E+00 -0.00000000000E+00 -0.10000000000E+04  0.10000000000E+04  0.00000000000E+00 0.  1.
    9000005    2    1    2  501    0  0.11280778584E+03 -0.91055509426E+00 -0.33090661466E+03  0.34961792805E+03  0.26612649827E+01 0.  0.
         13    1    3    3    0    0  0.16632261459E+00 -0.60958561875E-01 -0.85611522790E+00  0.87424964503E+00  0.00000000000E+00 0.  1.
          1    1    3    3  501    0  0.11264146323E+03 -0.84959653239E+00 -0.33005049944E+03  0.34874367841E+03  0.00000000000E+00 0.  1.
         21    1    1    2  502  501 -0.11280778584E+03  0.91055509426E+00 -0.65491519648E+03  0.66456026080E+03  0.00000000000E+00 0.  1.
<mgrwt>
<rscale>  1 0.30000000E+03</rscale>
<asrwt>0</asrwt>
<pdfrwt beam="1">  1        1 0.51557159E-01 0.30000000E+03</pdfrwt>
<pdfrwt beam="2">0</pdfrwt>
<totfact> 0.84760497E+01</totfact>
</mgrwt>
</event>
<event>
 6    1  0.1956957E-002  0.3000000E+03  0.7818608E-02  0.1093470E+00
          1   -1    0    0  502    0  0.00000000000E+00  0.00000000000E+00  0.35296080132E+01  0.35296080132E+01  0.00000000000E+00 0.  1.
         13   -1    0    0    0    0 -0.00000000000E+00 -0.00000000000E+00 -0.10000000000E+04  0.10000000000E+04  0.00000000000E+00 0.  1.
    9000005    2    1    2  501    0  0.57978916909E+01  0.43616742075E+02 -0.83514451006E+03  0.83631096098E+03  0.36925639461E+01 0.  0.
         13    1    3    3    0    0  0.53583714282E+01  0.36635545538E+02 -0.72462976590E+03  0.72557506364E+03  0.00000000000E+00 0.  1.
          1    1    3    3  501    0  0.43952026264E+00  0.69811965371E+01 -0.11051474416E+03  0.11073589734E+03  0.00000000000E+00 0.  1.
         21    1    1    2  502  501 -0.57978916909E+01 -0.43616742075E+02 -0.16132588192E+03  0.16721864703E+03  0.00000000000E+00 0.  1.
<mgrwt>
<rscale>  1 0.30000000E+03</rscale>
<asrwt>0</asrwt>
<pdfrwt beam="1">  1        1 0.12834965E-01 0.30000000E+03</pdfrwt>
<pdfrwt beam="2">0</pdfrwt>
<totfact> 0.53642158E+02</totfact>
</mgrwt>
</event>
<event>
 6    1  0.1956957E-002  0.3000000E+03  0.7818608E-02  0.1093470E+00
          1   -1    0    0  502    0  0.00000000000E+00  0.00000000000E+00  0.17181642443E+01  0.17181642443E+01  0.00000000000E+00 0.  1.
         13   -1    0    0    0    0 -0.00000000000E+00 -0.00000000000E+00 -0.10000000000E+04  0.10000000000E+04  0.00000000000E+00 0.  1.
    9000005    2    1    2  501    0 -0.21925327582E+02 -0.31590138247E+02 -0.31416921430E+03  0.31652568351E+03  0.27488691502E+01 0.  0.
         13    1    3    3    0    0 -0.20975719532E+02 -0.30993674661E+02 -0.30589408133E+03  0.30817491409E+03  0.00000000000E+00 0.  1.
          1    1    3    3  501    0 -0.94960805050E+00 -0.59646358537E+00 -0.82751329695E+01  0.83507694209E+01  0.00000000000E+00 0.  1.
         21    1    1    2  502  501  0.21925327582E+02  0.31590138247E+02 -0.68411262146E+03  0.68519248074E+03  0.00000000000E+00 0.  1.
<mgrwt>
<rscale>  1 0.30000000E+03</rscale>
<asrwt>0</asrwt>
<pdfrwt beam="1">  1        1 0.62478832E-02 0.30000000E+03</pdfrwt>
<pdfrwt beam="2">0</pdfrwt>
<totfact> 0.14548629E+03</totfact>
</mgrwt>
</event>
<event>
 6    1  0.1956957E-002  0.3000000E+03  0.7818608E-02  0.1093470E+00
          3   -1    0    0  502    0  0.00000000000E+00  0.00000000000E+00  0.20277938807E+01  0.20277938807E+01  0.00000000000E+00 0.  1.
         13   -1    0    0    0    0 -0.00000000000E+00 -0.00000000000E+00 -0.10000000000E+04  0.10000000000E+04  0.00000000000E+00 0.  1.
    9000005    2    1    2  501    0  0.30059163175E+02  0.21283058715E+02 -0.78667103275E+03  0.78754071328E+03  0.35411044022E+01 0.  0.
         13    1    3    3    0    0  0.60767347889E+01  0.58478966793E+01 -0.19675779131E+03  0.19693844988E+03  0.00000000000E+00 0.  1.
          1    1    3    3  501    0  0.23982428386E+02  0.15435162036E+02 -0.58991324144E+03  0.59060226339E+03  0.00000000000E+00 0.  1.
         21    1    1    2  502  501 -0.30059163175E+02 -0.21283058715E+02 -0.21130117337E+03  0.21448708060E+03  0.00000000000E+00 0.  1.
<mgrwt>
<rscale>  1 0.30000000E+03</rscale>
<asrwt>0</asrwt>
<pdfrwt beam="1">  1        3 0.73738115E-02 0.30000000E+03</pdfrwt>
<pdfrwt beam="2">0</pdfrwt>
<totfact> 0.53952105E+02</totfact>
</mgrwt>
</event>
<event>
 6    1  0.1956957E-002  0.3000000E+03  0.7818608E-02  0.1093470E+00
          3   -1    0    0  502    0  0.00000000000E+00  0.00000000000E+00  0.12800579163E+01  0.12800579163E+01  0.00000000000E+00 0.  1.
         13   -1    0    0    0    0 -0.00000000000E+00 -0.00000000000E+00 -0.10000000000E+04  0.10000000000E+04  0.00000000000E+00 0.  1.
    9000005    2    1    2  501    0 -0.28360730174E+02  0.14579649815E+02 -0.72508538741E+03  0.72579363953E+03  0.32697002147E+01 0.  0.
         13    1    3    3    0    0 -0.10119360318E+02  0.43757312462E+01 -0.22026550368E+03  0.22054124464E+03  0.00000000000E+00 0.  1.
          3    1    3    3  501    0 -0.18241369857E+02  0.10203918569E+02 -0.50481988373E+03  0.50525239489E+03  0.00000000000E+00 0.  1.
         21    1    1    2  502  501  0.28360730174E+02 -0.14579649815E+02 -0.27363455467E+03  0.27548641839E+03  0.00000000000E+00 0.  1.
<mgrwt>
<rscale>  1 0.30000000E+03</rscale>
<asrwt>0</asrwt>
<pdfrwt beam="1">  1        3 0.46547659E-02 0.30000000E+03</pdfrwt>
<pdfrwt beam="2">0</pdfrwt>
<totfact> 0.11048956E+03</totfact>
</mgrwt>
</event>
<event>
 6    1  0.1956957E-002  0.3000000E+03  0.7818608E-02  0.1093470E+00
          3   -1    0    0  502    0  0.00000000000E+00  0.00000000000E+00  0.11364964025E+01  0.11364964025E+01  0.00000000000E+00 0.  1.
         13   -1    0    0    0    0 -0.00000000000E+00 -0.00000000000E+00 -0.10000000000E+04  0.10000000000E+04  0.00000000000E+00 0.  1.
    9000005    2    1    2  501    0  0.31849539996E+02  0.11225533787E+01 -0.65290020793E+03  0.65370843871E+03  0.63551553321E+01 0.  0.
         13    1    3    3    0    0  0.17415402432E+01  0.15459917003E+01 -0.57894903941E+02  0.57941720332E+02  0.00000000000E+00 0.  1.
          1    1    3    3  501    0  0.30107999753E+02 -0.42343832160E+00 -0.59500530399E+03  0.59576671838E+03  0.00000000000E+00 0.  1.
         21    1    1    2  502  501 -0.31849539996E+02 -0.11225533787E+01 -0.34596329567E+03  0.34742805769E+03  0.00000000000E+00 0.  1.
<mgrwt>
<rscale>  1 0.30000000E+03</rscale>
<asrwt>0</asrwt>
<pdfrwt beam="1">  1        3 0.41327229E-02 0.30000000E+03</pdfrwt>
<pdfrwt beam="2">0</pdfrwt>
<totfact> 0.13270316E+03</totfact>
</mgrwt>
</event>
<event>
 6    1  0.1956957E-002  0.3000000E+03  0.7818608E-02  0.1093470E+00
          1   -1    0    0  502    0  0.00000000000E+00  0.00000000000E+00  0.14332745526E+01  0.14332745526E+01  0.00000000000E+00 0.  1.
         13   -1    0    0    0    0 -0.00000000000E+00 -0.00000000000E+00 -0.10000000000E+04  0.10000000000E+04  0.00000000000E+00 0.  1.
    9000005    2    1    2  501    0  0.36631129961E+02 -0.60152485648E+01 -0.40735537209E+03  0.40905764437E+03  0.34255434678E+01 0.  0.
         13    1    3    3    0    0  0.59207182792E+01 -0.85395965547E+00 -0.80605202188E+02  0.80826869120E+02  0.00000000000E+00 0.  1.
          1    1    3    3  501    0  0.30710411681E+02 -0.51612889094E+01 -0.32675016991E+03  0.32823077525E+03  0.00000000000E+00 0.  1.
         21    1    1    2  502  501 -0.36631129961E+02  0.60152485648E+01 -0.59121135335E+03  0.59237563018E+03  0.00000000000E+00 0.  1.
<mgrwt>
<rscale>  1 0.30000000E+03</rscale>
<asrwt>0</asrwt>
<pdfrwt beam="1">  1        1 0.52119185E-02 0.30000000E+03</pdfrwt>
<pdfrwt beam="2">0</pdfrwt>
<totfact> 0.18764486E+03</totfact>
</mgrwt>
</event>
<event>
 6    1  0.1956957E-002  0.3000000E+03  0.7818608E-02  0.1093470E+00
          1   -1    0    0  502    0  0.00000000000E+00  0.00000000000E+00  0.28432278589E+01  0.28432278589E+01  0.00000000000E+00 0.  1.
         13   -1    0    0    0    0 -0.00000000000E+00 -0.00000000000E+00 -0.10000000000E+04  0.10000000000E+04  0.00000000000E+00 0.  1.
    9000005    2    1    2  501    0 -0.50072964798E+00 -0.53048075954E+02 -0.45254983815E+03  0.45565855917E+03  0.30029063180E+01 0.  0.
         13    1    3    3    0    0  0.64055832501E-01 -0.11955581017E+02 -0.11303410803E+03  0.11366463653E+03  0.00000000000E+00 0.  1.
          3    1    3    3  501    0 -0.56478548049E+00 -0.41092494937E+02 -0.33951573012E+03  0.34199392264E+03  0.00000000000E+00 0.  1.
         21    1    1    2  502  501  0.50072964798E+00  0.53048075954E+02 -0.54460693399E+03  0.54718466869E+03  0.00000000000E+00 0.  1.
<mgrwt>
<rscale>  1 0.30000000E+03</rscale>
<asrwt>0</asrwt>
<pdfrwt beam="1">  1        1 0.10339032E-01 0.30000000E+03</pdfrwt>
<pdfrwt beam="2">0</pdfrwt>
<totfact> 0.72177132E+02</totfact>
</mgrwt>
</event>
<event>
 6    1  0.1956957E-002  0.3000000E+03  0.7818608E-02  0.1093470E+00
          3   -1    0    0  502    0  0.00000000000E+00  0.00000000000E+00  0.36080620646E+01  0.36080620646E+01  0.00000000000E+00 0.  1.
         13   -1    0    0    0    0 -0.00000000000E+00 -0.00000000000E+00 -0.10000000000E+04  0.10000000000E+04  0.00000000000E+00 0.  1.
    9000005    2    1    2  501    0 -0.10162725322E+02  0.58739751263E+02 -0.55667847020E+03  0.55987213488E+03  0.34998384284E+01 0.  0.
         13    1    3    3    0    0 -0.42208887926E+01  0.33291808877E+02 -0.32086604954E+03  0.32261615302E+03  0.00000000000E+00 0.  1.
          3    1    3    3  501    0 -0.59418365297E+01  0.25447942386E+02 -0.23581242066E+03  0.23725598187E+03  0.00000000000E+00 0.  1.
         21    1    1    2  502  501  0.10162725322E+02 -0.58739751263E+02 -0.43971346773E+03  0.44373592718E+03  0.00000000000E+00 0.  1.
<mgrwt>
<rscale>  1 0.30000000E+03</rscale>
<asrwt>0</asrwt>
<pdfrwt beam="1">  1        3 0.13120253E-01 0.30000000E+03</pdfrwt>
<pdfrwt beam="2">0</pdfrwt>
<totfact> 0.20944397E+02</totfact>
</mgrwt>
</event>
<event>
 6    1  0.1956957E-002  0.3000000E+03  0.7818608E-02  0.1093470E+00
          1   -1    0    0  502    0  0.00000000000E+00  0.00000000000E+00  0.20076105270E+01  0.20076105270E+01  0.00000000000E+00 0.  1.
         13   -1    0    0    0    0 -0.00000000000E+00 -0.00000000000E+00 -0.10000000000E+04  0.10000000000E+04  0.00000000000E+00 0.  1.
    9000005    2    1    2  501    0 -0.15410912166E+02 -0.40638206764E+02 -0.61876372130E+03  0.62029653808E+03  0.32081609721E+01 0.  0.
         13    1    3    3    0    0 -0.13537400419E+02 -0.32088590813E+02 -0.49585069443E+03  0.49707227849E+03  0.00000000000E+00 0.  1.
          1    1    3    3  501    0 -0.18735117470E+01 -0.85496159511E+01 -0.12291302687E+03  0.12322425960E+03  0.00000000000E+00 0.  1.
         21    1    1    2  502  501  0.15410912166E+02  0.40638206764E+02 -0.37922866817E+03  0.38171107244E+03  0.00000000000E+00 0.  1.
<mgrwt>
<rscale>  1 0.30000000E+03</rscale>
<asrwt>0</asrwt>
<pdfrwt beam="1">  1        1 0.73004173E-02 0.30000000E+03</pdfrwt>
<pdfrwt beam="2">0</pdfrwt>
<totfact> 0.11700384E+03</totfact>
</mgrwt>
</event>
<event>
 6    1  0.1956957E-002  0.3000000E+03  0.7818608E-02  0.1093470E+00
          1   -1    0    0  502    0  0.00000000000E+00  0.00000000000E+00  0.12179479932E+01  0.12179479932E+01  0.00000000000E+00 0.  1.
         13   -1    0    0    0    0 -0.00000000000E+00 -0.00000000000E+00 -0.10000000000E+04  0.10000000000E+04  0.00000000000E+00 0.  1.
    9000005    2    1    2  501    0  0.11753959045E+02 -0.32809522433E+02 -0.48081977399E+03  0.48208449524E+03  0.17847069547E+01 0.  0.
         13    1    3    3    0    0  0.10510099012E+02 -0.30171175139E+02 -0.44586336613E+03  0.44700660313E+03  0.00000000000E+00 0.  1.
          1    1    3    3  501    0  0.12438600334E+01 -0.26383472943E+01 -0.34956407859E+02  0.35077892106E+02  0.00000000000E+00 0.  1.
         21    1    1    2  502  501 -0.11753959045E+02  0.32809522433E+02 -0.51796227802E+03  0.51913345275E+03  0.00000000000E+00 0.  1.
<mgrwt>
<rscale>  1 0.30000000E+03</rscale>
<asrwt>0</asrwt>
<pdfrwt beam="1">  1        1 0.44289111E-02 0.30000000E+03</pdfrwt>
<pdfrwt beam="2">0</pdfrwt>
<totfact> 0.23591697E+03</totfact>
</mgrwt>
</event>
<event>
 6    1  0.1956957E-002  0.3000000E+03  0.7818608E-02  0.1093470E+00
          1   -1    0    0  502    0  0.00000000000E+00  0.00000000000E+00  0.13324844566E+02  0.13324844566E+02  0.00000000000E+00 0.  1.
         13   -1    0    0    0    0 -0.00000000000E+00 -0.00000000000E+00 -0.10000000000E+04  0.10000000000E+04  0.00000000000E+00 0.  1.
    9000005    2    1    2  501    0  0.24703733509E+02 -0.62151124020E+02 -0.90625752792E+03  0.90873023916E+03  0.38605667447E+01 0.  0.
         13    1    3    3    0    0  0.22726143563E+01 -0.34884280219E+01 -0.62465476870E+02  0.62604071007E+02  0.00000000000E+00 0.  1.
          1    1    3    3  501    0  0.22431119153E+02 -0.58662695998E+02 -0.84379205105E+03  0.84612616815E+03  0.00000000000E+00 0.  1.
         21    1    1    2  502  501 -0.24703733509E+02  0.62151124020E+02 -0.80417627512E+02  0.10459460541E+03  0.00000000000E+00 0.  1.
<mgrwt>
<rscale>  1 0.30000000E+03</rscale>
<asrwt>0</asrwt>
<pdfrwt beam="1">  1        1 0.48454082E-01 0.30000000E+03</pdfrwt>
<pdfrwt beam="2">0</pdfrwt>
<totfact> 0.91964507E+01</totfact>
</mgrwt>
</event>
<event>
 6    1  0.1956957E-002  0.3000000E+03  0.7818608E-02  0.1093470E+00
          1   -1    0    0  502    0  0.00000000000E+00  0.00000000000E+00  0.13061631530E+01  0.13061631530E+01  0.00000000000E+00 0.  1.
         13   -1    0    0    0    0 -0.00000000000E+00 -0.00000000000E+00 -0.10000000000E+04  0.10000000000E+04  0.00000000000E+00 0.  1.
    9000005    2    1    2  501    0 -0.18231593849E+02  0.29069166388E+02 -0.65437977488E+03  0.65528653840E+03  0.31859350810E+01 0.  0.
         13    1    3    3    0    0 -0.25516418115E+01  0.36048903687E+01 -0.66338476498E+02  0.66485333530E+02  0.00000000000E+00 0.  1.
          1    1    3    3  501    0 -0.15679952038E+02  0.25464276019E+02 -0.58804129838E+03  0.58880120487E+03  0.00000000000E+00 0.  1.
         21    1    1    2  502  501  0.18231593849E+02 -0.29069166388E+02 -0.34431406197E+03  0.34601962476E+03  0.00000000000E+00 0.  1.
<mgrwt>
<rscale>  1 0.30000000E+03</rscale>
<asrwt>0</asrwt>
<pdfrwt beam="1">  1        1 0.47496942E-02 0.30000000E+03</pdfrwt>
<pdfrwt beam="2">0</pdfrwt>
<totfact> 0.21381067E+03</totfact>
</mgrwt>
</event>
<event>
 6    1  0.1956957E-002  0.3000000E+03  0.7818608E-02  0.1093470E+00
          1   -1    0    0  502    0  0.00000000000E+00  0.00000000000E+00  0.32503614743E+01  0.32503614743E+01  0.00000000000E+00 0.  1.
         13   -1    0    0    0    0 -0.00000000000E+00 -0.00000000000E+00 -0.10000000000E+04  0.10000000000E+04  0.00000000000E+00 0.  1.
    9000005    2    1    2  501    0 -0.28875366895E+02 -0.29223921000E+02 -0.84599056275E+03  0.84699376705E+03  0.32534273133E+01 0.  0.
         13    1    3    3    0    0 -0.11432406380E+02 -0.13467464629E+02 -0.38166425967E+03  0.38207287214E+03  0.00000000000E+00 0.  1.
          1    1    3    3  501    0 -0.17442960515E+02 -0.15756456372E+02 -0.46432630309E+03  0.46492089491E+03  0.00000000000E+00 0.  1.
         21    1    1    2  502  501  0.28875366895E+02  0.29223921000E+02 -0.15075907577E+03  0.15625659442E+03  0.00000000000E+00 0.  1.
<mgrwt>
<rscale>  1 0.30000000E+03</rscale>
<asrwt>0</asrwt>
<pdfrwt beam="1">  1        1 0.11819521E-01 0.30000000E+03</pdfrwt>
<pdfrwt beam="2">0</pdfrwt>
<totfact> 0.60052053E+02</totfact>
</mgrwt>
</event>
<event>
 6    1  0.1956957E-002  0.3000000E+03  0.7818608E-02  0.1093470E+00
          3   -1    0    0  502    0  0.00000000000E+00  0.00000000000E+00  0.41737127211E+01  0.41737127211E+01  0.00000000000E+00 0.  1.
         13   -1    0    0    0    0 -0.00000000000E+00 -0.00000000000E+00 -0.10000000000E+04  0.10000000000E+04  0.00000000000E+00 0.  1.
    9000005    2    1    2  501    0  0.42824724172E+02 -0.30824460684E+01 -0.87257304238E+03  0.87365620105E+03  0.69271115368E+01 0.  0.
         13    1    3    3    0    0  0.31088703812E+02 -0.19690218193E+01 -0.56599567236E+03  0.56685226089E+03  0.00000000000E+00 0.  1.
          3    1    3    3  501    0  0.11736020360E+02 -0.11134242491E+01 -0.30657737003E+03  0.30680394016E+03  0.00000000000E+00 0.  1.
         21    1    1    2  502  501 -0.42824724172E+02  0.30824460684E+01 -0.12325324490E+03  0.13051751167E+03  0.00000000000E+00 0.  1.
<mgrwt>
<rscale>  1 0.30000000E+03</rscale>
<asrwt>0</asrwt>
<pdfrwt beam="1">  1        3 0.15177169E-01 0.30000000E+03</pdfrwt>
<pdfrwt beam="2">0</pdfrwt>
<totfact> 0.16308792E+02</totfact>
</mgrwt>
</event>
<event>
 6    1  0.1956957E-002  0.3000000E+03  0.7818608E-02  0.1093470E+00
          1   -1    0    0  502    0  0.00000000000E+00  0.00000000000E+00  0.64756923088E+01  0.64756923088E+01  0.00000000000E+00 0.  1.
         13   -1    0    0    0    0 -0.00000000000E+00 -0.00000000000E+00 -0.10000000000E+04  0.10000000000E+04  0.00000000000E+00 0.  1.
    9000005    2    1    2  501    0  0.58301581973E+02  0.28703074108E+02 -0.79342731379E+03  0.79609093076E+03  0.33055780253E+01 0.  0.
         13    1    3    3    0    0  0.43922595110E+02  0.20267297839E+02 -0.58044587884E+03  0.58245804655E+03  0.00000000000E+00 0.  1.
          3    1    3    3  501    0  0.14378986863E+02  0.84357762691E+01 -0.21298143494E+03  0.21363288421E+03  0.00000000000E+00 0.  1.
         21    1    1    2  502  501 -0.58301581973E+02 -0.28703074108E+02 -0.20009699390E+03  0.21038476155E+03  0.00000000000E+00 0.  1.
<mgrwt>
<rscale>  1 0.30000000E+03</rscale>
<asrwt>0</asrwt>
<pdfrwt beam="1">  1        1 0.23548022E-01 0.30000000E+03</pdfrwt>
<pdfrwt beam="2">0</pdfrwt>
<totfact> 0.23695921E+02</totfact>
</mgrwt>
</event>
<event>
 6    1  0.1956957E-002  0.3000000E+03  0.7818608E-02  0.1093470E+00
          3   -1    0    0  502    0  0.00000000000E+00  0.00000000000E+00  0.13198712261E+01  0.13198712261E+01  0.00000000000E+00 0.  1.
         13   -1    0    0    0    0 -0.00000000000E+00 -0.00000000000E+00 -0.10000000000E+04  0.10000000000E+04  0.00000000000E+00 0.  1.
    9000005    2    1    2  501    0  0.91609223937E+01  0.33677640027E+02 -0.36579933423E+03  0.36747745703E+03  0.35245655109E+01 0.  0.
         13    1    3    3    0    0  0.25035479251E+01  0.15293664344E+02 -0.15430421046E+03  0.15508047358E+03  0.00000000000E+00 0.  1.
          1    1    3    3  501    0  0.66573744686E+01  0.18383975683E+02 -0.21149512378E+03  0.21239698345E+03  0.00000000000E+00 0.  1.
         21    1    1    2  502  501 -0.91609223937E+01 -0.33677640027E+02 -0.63288079454E+03  0.63384241420E+03  0.00000000000E+00 0.  1.
<mgrwt>
<rscale>  1 0.30000000E+03</rscale>
<asrwt>0</asrwt>
<pdfrwt beam="1">  1        3 0.47995419E-02 0.30000000E+03</pdfrwt>
<pdfrwt beam="2">0</pdfrwt>
<totfact> 0.10538877E+03</totfact>
</mgrwt>
</event>
<event>
 6    1  0.1956957E-002  0.3000000E+03  0.7818608E-02  0.1093470E+00
          1   -1    0    0  502    0  0.00000000000E+00  0.00000000000E+00  0.18991613828E+01  0.18991613828E+01  0.00000000000E+00 0.  1.
         13   -1    0    0    0    0 -0.00000000000E+00 -0.00000000000E+00 -0.10000000000E+04  0.10000000000E+04  0.00000000000E+00 0.  1.
    9000005    2    1    2  501    0 -0.23991901310E+02  0.19846552818E+02 -0.84921981620E+03  0.84979703838E+03  0.33486144217E+01 0.  0.
         13    1    3    3    0    0 -0.11156704283E+02  0.11384934519E+02 -0.43790901964E+03  0.43819903955E+03  0.00000000000E+00 0.  1.
          1    1    3    3  501    0 -0.12835197027E+02  0.84616182983E+01 -0.41131079657E+03  0.41159799883E+03  0.00000000000E+00 0.  1.
         21    1    1    2  502  501  0.23991901310E+02 -0.19846552818E+02 -0.14888102241E+03  0.15210212300E+03  0.00000000000E+00 0.  1.
<mgrwt>
<rscale>  1 0.30000000E+03</rscale>
<asrwt>0</asrwt>
<pdfrwt beam="1">  1        1 0.69060560E-02 0.30000000E+03</pdfrwt>
<pdfrwt beam="2">0</pdfrwt>
<totfact> 0.12644811E+03</totfact>
</mgrwt>
</event>
<event>
 6    1  0.1956957E-002  0.3000000E+03  0.7818608E-02  0.1093470E+00
          1   -1    0    0  502    0  0.00000000000E+00  0.00000000000E+00  0.14522248599E+01  0.14522248599E+01  0.00000000000E+00 0.  1.
         13   -1    0    0    0    0 -0.00000000000E+00 -0.00000000000E+00 -0.10000000000E+04  0.10000000000E+04  0.00000000000E+00 0.  1.
    9000005    2    1    2  501    0  0.18788398956E+02 -0.26793309003E+02 -0.75501600062E+03  0.75573163040E+03  0.32016630950E+01 0.  0.
         13    1    3    3    0    0  0.10994327325E+02 -0.16663960066E+02 -0.49310463680E+03  0.49350860745E+03  0.00000000000E+00 0.  1.
          1    1    3    3  501    0  0.77940716310E+01 -0.10129348937E+02 -0.26191136382E+03  0.26222302294E+03  0.00000000000E+00 0.  1.
         21    1    1    2  502  501 -0.18788398956E+02  0.26793309003E+02 -0.24353177452E+03  0.24572059446E+03  0.00000000000E+00 0.  1.
<mgrwt>
<rscale>  1 0.30000000E+03</rscale>
<asrwt>0</asrwt>
<pdfrwt beam="1">  1        1 0.52808288E-02 0.30000000E+03</pdfrwt>
<pdfrwt beam="2">0</pdfrwt>
<totfact> 0.18421408E+03</totfact>
</mgrwt>
</event>
<event>
 6    1  0.1956957E-002  0.3000000E+03  0.7818608E-02  0.1093470E+00
          1   -1    0    0  502    0  0.00000000000E+00  0.00000000000E+00  0.70423325139E+01  0.70423325139E+01  0.00000000000E+00 0.  1.
         13   -1    0    0    0    0 -0.00000000000E+00 -0.00000000000E+00 -0.10000000000E+04  0.10000000000E+04  0.00000000000E+00 0.  1.
    9000005    2    1    2  501    0  0.21188906832E+02  0.80855038818E+02 -0.53919267594E+03  0.54564318359E+03  0.33518555759E+01 0.  0.
         13    1    3    3    0    0  0.18715298624E+00  0.27096309880E+01 -0.19633237728E+02  0.19820220736E+02  0.00000000000E+00 0.  1.
          1    1    3    3  501    0  0.21001753846E+02  0.78145407830E+02 -0.51955943821E+03  0.52582296285E+03  0.00000000000E+00 0.  1.
         21    1    1    2  502  501 -0.21188906832E+02 -0.80855038818E+02 -0.45376499155E+03  0.46139914893E+03  0.00000000000E+00 0.  1.
<mgrwt>
<rscale>  1 0.30000000E+03</rscale>
<asrwt>0</asrwt>
<pdfrwt beam="1">  1        1 0.25608536E-01 0.30000000E+03</pdfrwt>
<pdfrwt beam="2">0</pdfrwt>
<totfact> 0.21208790E+02</totfact>
</mgrwt>
</event>
<event>
 6    1  0.1956957E-002  0.3000000E+03  0.7818608E-02  0.1093470E+00
          1   -1    0    0  502    0  0.00000000000E+00  0.00000000000E+00  0.19711138723E+02  0.19711138723E+02  0.00000000000E+00 0.  1.
         13   -1    0    0    0    0 -0.00000000000E+00 -0.00000000000E+00 -0.10000000000E+04  0.10000000000E+04  0.00000000000E+00 0.  1.
    9000005    2    1    2  501    0  0.28556209722E+02  0.55528044915E+02 -0.94678983239E+03  0.94885208269E+03  0.32353087170E+01 0.  0.
         13    1    3    3    0    0  0.26424386302E+02  0.51426977266E+02 -0.86272996431E+03  0.86466523782E+03  0.00000000000E+00 0.  1.
          3    1    3    3  501    0  0.21318234206E+01  0.41010676490E+01 -0.84059868077E+02  0.84186844864E+02  0.00000000000E+00 0.  1.
         21    1    1    2  502  501 -0.28556209722E+02 -0.55528044915E+02 -0.33499028891E+02  0.70859056037E+02  0.00000000000E+00 0.  1.
<mgrwt>
<rscale>  1 0.30000000E+03</rscale>
<asrwt>0</asrwt>
<pdfrwt beam="1">  1        1 0.71677019E-01 0.30000000E+03</pdfrwt>
<pdfrwt beam="2">0</pdfrwt>
<totfact> 0.54599211E+01</totfact>
</mgrwt>
</event>
<event>
 6    1  0.1956957E-002  0.3000000E+03  0.7818608E-02  0.1093470E+00
          1   -1    0    0  502    0  0.00000000000E+00  0.00000000000E+00  0.29619729572E+01  0.29619729572E+01  0.00000000000E+00 0.  1.
         13   -1    0    0    0    0 -0.00000000000E+00 -0.00000000000E+00 -0.10000000000E+04  0.10000000000E+04  0.00000000000E+00 0.  1.
    9000005    2    1    2  501    0 -0.36416723389E+02  0.19454378879E+02 -0.82495774982E+03  0.82599793025E+03  0.35554465016E+01 0.  0.
         13    1    3    3    0    0 -0.30479630560E+01  0.20389504931E+01 -0.56470665702E+02  0.56589605784E+02  0.00000000000E+00 0.  1.
          1    1    3    3  501    0 -0.33368760333E+02  0.17415428386E+02 -0.76848708411E+03  0.76940832447E+03  0.00000000000E+00 0.  1.
         21    1    1    2  502  501  0.36416723389E+02 -0.19454378879E+02 -0.17208027723E+03  0.17696404270E+03  0.00000000000E+00 0.  1.
<mgrwt>
<rscale>  1 0.30000000E+03</rscale>
<asrwt>0</asrwt>
<pdfrwt beam="1">  1        1 0.10770833E-01 0.30000000E+03</pdfrwt>
<pdfrwt beam="2">0</pdfrwt>
<totfact> 0.68223815E+02</totfact>
</mgrwt>
</event>
<event>
 6    1  0.1956957E-002  0.3000000E+03  0.7818608E-02  0.1093470E+00
          3   -1    0    0  502    0  0.00000000000E+00  0.00000000000E+00  0.15121644800E+01  0.15121644800E+01  0.00000000000E+00 0.  1.
         13   -1    0    0    0    0 -0.00000000000E+00 -0.00000000000E+00 -0.10000000000E+04  0.10000000000E+04  0.00000000000E+00 0.  1.
    9000005    2    1    2  501    0  0.30755469745E+02  0.21666042558E+02 -0.62333436945E+03  0.62447710056E+03  0.32552525731E+01 0.  0.
         13    1    3    3    0    0  0.15831294357E+02  0.11671588629E+02 -0.35166495687E+03  0.35221456209E+03  0.00000000000E+00 0.  1.
          3    1    3    3  501    0  0.14924175387E+02  0.99944539283E+01 -0.27166941258E+03  0.27226253847E+03  0.00000000000E+00 0.  1.
         21    1    1    2  502  501 -0.30755469745E+02 -0.21666042558E+02 -0.37515346607E+03  0.37703506392E+03  0.00000000000E+00 0.  1.
<mgrwt>
<rscale>  1 0.30000000E+03</rscale>
<asrwt>0</asrwt>
<pdfrwt beam="1">  1        3 0.54987915E-02 0.30000000E+03</pdfrwt>
<pdfrwt beam="2">0</pdfrwt>
<totfact> 0.85409570E+02</totfact>
</mgrwt>
</event>
<event>
 6    1  0.1956957E-002  0.3000000E+03  0.7818608E-02  0.1093470E+00
          1   -1    0    0  502    0  0.00000000000E+00  0.00000000000E+00  0.94643572428E+00  0.94643572428E+00  0.00000000000E+00 0.  1.
         13   -1    0    0    0    0 -0.00000000000E+00 -0.00000000000E+00 -0.10000000000E+04  0.10000000000E+04  0.00000000000E+00 0.  1.
    9000005    2    1    2  501    0  0.23035507935E+02 -0.19742326493E+02 -0.57594878384E+03  0.57675538289E+03  0.30620253284E+01 0.  0.
         13    1    3    3    0    0  0.11518989583E+02 -0.10487721250E+02 -0.26796599551E+03  0.26841843113E+03  0.00000000000E+00 0.  1.
          3    1    3    3  501    0  0.11516518353E+02 -0.92546052426E+01 -0.30798278833E+03  0.30833695176E+03  0.00000000000E+00 0.  1.
         21    1    1    2  502  501 -0.23035507935E+02  0.19742326493E+02 -0.42310478043E+03  0.42419105284E+03  0.00000000000E+00 0.  1.
<mgrwt>
<rscale>  1 0.30000000E+03</rscale>
<asrwt>0</asrwt>
<pdfrwt beam="1">  1        1 0.34415917E-02 0.30000000E+03</pdfrwt>
<pdfrwt beam="2">0</pdfrwt>
<totfact> 0.33645769E+03</totfact>
</mgrwt>
</event>
<event>
 6    1  0.1956957E-002  0.3000000E+03  0.7818608E-02  0.1093470E+00
          1   -1    0    0  502    0  0.00000000000E+00  0.00000000000E+00  0.26200885133E+01  0.26200885133E+01  0.00000000000E+00 0.  1.
         13   -1    0    0    0    0 -0.00000000000E+00 -0.00000000000E+00 -0.10000000000E+04  0.10000000000E+04  0.00000000000E+00 0.  1.
    9000005    2    1    2  501    0 -0.39622774354E+02 -0.31881987972E+02 -0.44566470821E+03  0.44856585747E+03  0.28055202672E+01 0.  0.
         13    1    3    3    0    0 -0.71354890075E+01 -0.49807258537E+01 -0.68818207517E+02  0.69366191472E+02  0.00000000000E+00 0.  1.
          3    1    3    3  501    0 -0.32487285346E+02 -0.26901262119E+02 -0.37684650069E+03  0.37919966600E+03  0.00000000000E+00 0.  1.
         21    1    1    2  502  501  0.39622774354E+02  0.31881987972E+02 -0.55171520328E+03  0.55405423104E+03  0.00000000000E+00 0.  1.
<mgrwt>
<rscale>  1 0.30000000E+03</rscale>
<asrwt>0</asrwt>
<pdfrwt beam="1">  1        1 0.95276147E-02 0.30000000E+03</pdfrwt>
<pdfrwt beam="2">0</pdfrwt>
<totfact> 0.80801730E+02</totfact>
</mgrwt>
</event>
<event>
 6    1  0.1956957E-002  0.3000000E+03  0.7818608E-02  0.1093470E+00
          1   -1    0    0  502    0  0.00000000000E+00  0.00000000000E+00  0.28403827605E+01  0.28403827605E+01  0.00000000000E+00 0.  1.
         13   -1    0    0    0    0 -0.00000000000E+00 -0.00000000000E+00 -0.10000000000E+04  0.10000000000E+04  0.00000000000E+00 0.  1.
    9000005    2    1    2  501    0 -0.30044636682E+02  0.11694642376E+01 -0.91247621253E+03  0.91297756023E+03  0.33375455789E+01 0.  0.
         13    1    3    3    0    0 -0.73553562838E+01  0.38203677798E+00 -0.26964585710E+03  0.26974642809E+03  0.00000000000E+00 0.  1.
          1    1    3    3  501    0 -0.22689280398E+02  0.78742745961E+00 -0.64283035543E+03  0.64323113214E+03  0.00000000000E+00 0.  1.
         21    1    1    2  502  501  0.30044636682E+02 -0.11694642376E+01 -0.84683404708E+02  0.89862822529E+02  0.00000000000E+00 0.  1.
<mgrwt>
<rscale>  1 0.30000000E+03</rscale>
<asrwt>0</asrwt>
<pdfrwt beam="1">  1        1 0.10328686E-01 0.30000000E+03</pdfrwt>
<pdfrwt beam="2">0</pdfrwt>
<totfact> 0.72276782E+02</totfact>
</mgrwt>
</event>
<event>
 6    1  0.1956957E-002  0.3000000E+03  0.7818608E-02  0.1093470E+00
          3   -1    0    0  502    0  0.00000000000E+00  0.00000000000E+00  0.39559795192E+01  0.39559795192E+01  0.00000000000E+00 0.  1.
         13   -1    0    0    0    0 -0.00000000000E+00 -0.00000000000E+00 -0.10000000000E+04  0.10000000000E+04  0.00000000000E+00 0.  1.
    9000005    2    1    2  501    0  0.72678526843E+00 -0.61941223340E+02 -0.58335845726E+03  0.58664720001E+03  0.32564176358E+01 0.  0.
         13    1    3    3    0    0 -0.61305701603E+00 -0.49093595873E+01 -0.41420736814E+02  0.41715166171E+02  0.00000000000E+00 0.  1.
          1    1    3    3  501    0  0.13398422845E+01 -0.57031863752E+02 -0.54193772045E+03  0.54493203384E+03  0.00000000000E+00 0.  1.
         21    1    1    2  502  501 -0.72678526843E+00  0.61941223340E+02 -0.41268556322E+03  0.41730877951E+03  0.00000000000E+00 0.  1.
<mgrwt>
<rscale>  1 0.30000000E+03</rscale>
<asrwt>0</asrwt>
<pdfrwt beam="1">  1        3 0.14385410E-01 0.30000000E+03</pdfrwt>
<pdfrwt beam="2">0</pdfrwt>
<totfact> 0.17891516E+02</totfact>
</mgrwt>
</event>
<event>
 6    1  0.1956957E-002  0.3000000E+03  0.7818608E-02  0.1093470E+00
          1   -1    0    0  502    0  0.00000000000E+00  0.00000000000E+00  0.29590737819E+02  0.29590737819E+02  0.00000000000E+00 0.  1.
         13   -1    0    0    0    0 -0.00000000000E+00 -0.00000000000E+00 -0.10000000000E+04  0.10000000000E+04  0.00000000000E+00 0.  1.
    9000005    2    1    2  501    0  0.31341488185E+02 -0.94629935696E+01 -0.99057713262E+03  0.99113842805E+03  0.63632348441E+01 0.  0.
         13    1    3    3    0    0  0.28542523538E+01 -0.28548926609E+00 -0.47520696860E+02  0.47607193686E+02  0.00000000000E+00 0.  1.
          1    1    3    3  501    0  0.28487235831E+02 -0.91775043035E+01 -0.94305643576E+03  0.94353123436E+03  0.00000000000E+00 0.  1.
         21    1    1    2  502  501 -0.31341488185E+02  0.94629935696E+01  0.20167870435E+02  0.38452309773E+02  0.00000000000E+00 0.  1.
<mgrwt>
<rscale>  1 0.30000000E+03</rscale>
<asrwt>0</asrwt>
<pdfrwt beam="1">  1        1 0.10760291E+00 0.30000000E+03</pdfrwt>
<pdfrwt beam="2">0</pdfrwt>
<totfact> 0.30710407E+01</totfact>
</mgrwt>
</event>
<event>
 6    1  0.1956957E-002  0.3000000E+03  0.7818608E-02  0.1093470E+00
          3   -1    0    0  502    0  0.00000000000E+00  0.00000000000E+00  0.22687367839E+01  0.22687367839E+01  0.00000000000E+00 0.  1.
         13   -1    0    0    0    0 -0.00000000000E+00 -0.00000000000E+00 -0.10000000000E+04  0.10000000000E+04  0.00000000000E+00 0.  1.
    9000005    2    1    2  501    0 -0.25351146410E+02 -0.32252891181E+02 -0.75264773952E+03  0.75377555136E+03  0.40040495115E+01 0.  0.
         13    1    3    3    0    0 -0.12873084562E+02 -0.13632378427E+02 -0.36206860471E+03  0.36255376507E+03  0.00000000000E+00 0.  1.
          1    1    3    3  501    0 -0.12478061848E+02 -0.18620512754E+02 -0.39057913481E+03  0.39122178630E+03  0.00000000000E+00 0.  1.
         21    1    1    2  502  501  0.25351146410E+02  0.32252891181E+02 -0.24508352369E+03  0.24849318542E+03  0.00000000000E+00 0.  1.
<mgrwt>
<rscale>  1 0.30000000E+03</rscale>
<asrwt>0</asrwt>
<pdfrwt beam="1">  1        3 0.82499693E-02 0.30000000E+03</pdfrwt>
<pdfrwt beam="2">0</pdfrwt>
<totfact> 0.45116728E+02</totfact>
</mgrwt>
</event>
<event>
 6    1  0.1956957E-002  0.3000000E+03  0.7818608E-02  0.1093470E+00
          1   -1    0    0  502    0  0.00000000000E+00  0.00000000000E+00  0.12107454125E+01  0.12107454125E+01  0.00000000000E+00 0.  1.
         13   -1    0    0    0    0 -0.00000000000E+00 -0.00000000000E+00 -0.10000000000E+04  0.10000000000E+04  0.00000000000E+00 0.  1.
    9000005    2    1    2  501    0  0.21895198745E+01  0.30208537208E+02 -0.74469782204E+03  0.74532052322E+03  0.32382820525E+01 0.  0.
         13    1    3    3    0    0  0.83307388074E+00  0.15167761797E+02 -0.33434732525E+03  0.33469223014E+03  0.00000000000E+00 0.  1.
          3    1    3    3  501    0  0.13564459937E+01  0.15040775411E+02 -0.41035049679E+03  0.41062829309E+03  0.00000000000E+00 0.  1.
         21    1    1    2  502  501 -0.21895198745E+01 -0.30208537208E+02 -0.25409143255E+03  0.25589022219E+03  0.00000000000E+00 0.  1.
<mgrwt>
<rscale>  1 0.30000000E+03</rscale>
<asrwt>0</asrwt>
<pdfrwt beam="1">  1        1 0.44027199E-02 0.30000000E+03</pdfrwt>
<pdfrwt beam="2">0</pdfrwt>
<totfact> 0.23789485E+03</totfact>
</mgrwt>
</event>
<event>
 6    1  0.1956957E-002  0.3000000E+03  0.7818608E-02  0.1093470E+00
          1   -1    0    0  502    0  0.00000000000E+00  0.00000000000E+00  0.22572381670E+01  0.22572381670E+01  0.00000000000E+00 0.  1.
         13   -1    0    0    0    0 -0.00000000000E+00 -0.00000000000E+00 -0.10000000000E+04  0.10000000000E+04  0.00000000000E+00 0.  1.
    9000005    2    1    2  501    0  0.19716946875E+02 -0.36203876198E+02 -0.74738839152E+03  0.74853142281E+03  0.32256012116E+01 0.  0.
         13    1    3    3    0    0  0.86544090307E+00 -0.22355995596E+01 -0.57679800824E+02  0.57729596538E+02  0.00000000000E+00 0.  1.
          3    1    3    3  501    0  0.18851505972E+02 -0.33968276639E+02 -0.68970859070E+03  0.69080182627E+03  0.00000000000E+00 0.  1.
         21    1    1    2  502  501 -0.19716946875E+02  0.36203876198E+02 -0.25035437031E+03  0.25372581536E+03  0.00000000000E+00 0.  1.
<mgrwt>
<rscale>  1 0.30000000E+03</rscale>
<asrwt>0</asrwt>
<pdfrwt beam="1">  1        1 0.82081561E-02 0.30000000E+03</pdfrwt>
<pdfrwt beam="2">0</pdfrwt>
<totfact> 0.99367707E+02</totfact>
</mgrwt>
</event>
<event>
 6    1  0.1956957E-002  0.3000000E+03  0.7818608E-02  0.1093470E+00
          1   -1    0    0  502    0  0.00000000000E+00  0.00000000000E+00  0.16426838242E+01  0.16426838242E+01  0.00000000000E+00 0.  1.
         13   -1    0    0    0    0 -0.00000000000E+00 -0.00000000000E+00 -0.10000000000E+04  0.10000000000E+04  0.00000000000E+00 0.  1.
    9000005    2    1    2  501    0 -0.16470441405E+02  0.26768577447E+02 -0.81505943241E+03  0.81566971167E+03  0.27144056079E+01 0.  0.
         13    1    3    3    0    0 -0.16036264869E+02  0.25753422517E+02 -0.77145946665E+03  0.77205576822E+03  0.00000000000E+00 0.  1.
          3    1    3    3  501    0 -0.43417653635E+00  0.10151549297E+01 -0.43599965763E+02  0.43613943451E+02  0.00000000000E+00 0.  1.
         21    1    1    2  502  501  0.16470441405E+02 -0.26768577447E+02 -0.18329788376E+03  0.18597297215E+03  0.00000000000E+00 0.  1.
<mgrwt>
<rscale>  1 0.30000000E+03</rscale>
<asrwt>0</asrwt>
<pdfrwt beam="1">  1        1 0.59734083E-02 0.30000000E+03</pdfrwt>
<pdfrwt beam="2">0</pdfrwt>
<totfact> 0.15494706E+03</totfact>
</mgrwt>
</event>
<event>
 6    1  0.1956957E-002  0.3000000E+03  0.7818608E-02  0.1093470E+00
          1   -1    0    0  502    0  0.00000000000E+00  0.00000000000E+00  0.12696334194E+01  0.12696334194E+01  0.00000000000E+00 0.  1.
         13   -1    0    0    0    0 -0.00000000000E+00 -0.00000000000E+00 -0.10000000000E+04  0.10000000000E+04  0.00000000000E+00 0.  1.
    9000005    2    1    2  501    0 -0.33575812430E+02 -0.98954411204E+01 -0.58805806054E+03  0.58910825983E+03  0.33172717110E+01 0.  0.
         13    1    3    3    0    0 -0.21334686260E+01 -0.14309959515E+01 -0.37100883032E+02  0.37189715777E+02  0.00000000000E+00 0.  1.
          1    1    3    3  501    0 -0.31442343804E+02 -0.84644451689E+01 -0.55095717751E+03  0.55191854405E+03  0.00000000000E+00 0.  1.
         21    1    1    2  502  501  0.33575812430E+02  0.98954411204E+01 -0.41067230604E+03  0.41216137359E+03  0.00000000000E+00 0.  1.
<mgrwt>
<rscale>  1 0.30000000E+03</rscale>
<asrwt>0</asrwt>
<pdfrwt beam="1">  1        1 0.46168585E-02 0.30000000E+03</pdfrwt>
<pdfrwt beam="2">0</pdfrwt>
<totfact> 0.22251450E+03</totfact>
</mgrwt>
</event>
<event>
 6    1  0.1956957E-002  0.3000000E+03  0.7818608E-02  0.1093470E+00
          3   -1    0    0  502    0  0.00000000000E+00  0.00000000000E+00  0.10635192610E+01  0.10635192610E+01  0.00000000000E+00 0.  1.
         13   -1    0    0    0    0 -0.00000000000E+00 -0.00000000000E+00 -0.10000000000E+04  0.10000000000E+04  0.00000000000E+00 0.  1.
    9000005    2    1    2  501    0 -0.16728063249E+02  0.25220958684E+02 -0.68300291084E+03  0.68368370666E+03  0.38091574378E+01 0.  0.
         13    1    3    3    0    0 -0.15224440819E+02  0.22646624430E+02 -0.63705204069E+03  0.63763622524E+03  0.00000000000E+00 0.  1.
          1    1    3    3  501    0 -0.15036224299E+01  0.25743342544E+01 -0.45950870151E+02  0.46047481417E+02  0.00000000000E+00 0.  1.
         21    1    1    2  502  501  0.16728063249E+02 -0.25220958684E+02 -0.31593356990E+03  0.31737981260E+03  0.00000000000E+00 0.  1.
<mgrwt>
<rscale>  1 0.30000000E+03</rscale>
<asrwt>0</asrwt>
<pdfrwt beam="1">  1        3 0.38673509E-02 0.30000000E+03</pdfrwt>
<pdfrwt beam="2">0</pdfrwt>
<totfact> 0.14694710E+03</totfact>
</mgrwt>
</event>
<event>
 6    1  0.1956957E-002  0.3000000E+03  0.7818608E-02  0.1093470E+00
          1   -1    0    0  502    0  0.00000000000E+00  0.00000000000E+00  0.23950690586E+01  0.23950690586E+01  0.00000000000E+00 0.  1.
         13   -1    0    0    0    0 -0.00000000000E+00 -0.00000000000E+00 -0.10000000000E+04  0.10000000000E+04  0.00000000000E+00 0.  1.
    9000005    2    1    2  501    0 -0.14510569735E+02 -0.37546781397E+02 -0.78352457804E+03  0.78456321894E+03  0.28918324271E+01 0.  0.
         13    1    3    3    0    0 -0.16352867410E+01 -0.55079655565E+01 -0.13045991480E+03  0.13058637454E+03  0.00000000000E+00 0.  1.
          3    1    3    3  501    0 -0.12875282994E+02 -0.32038815841E+02 -0.65306466324E+03  0.65397684440E+03  0.00000000000E+00 0.  1.
         21    1    1    2  502  501  0.14510569735E+02  0.37546781397E+02 -0.21408035290E+03  0.21783185012E+03  0.00000000000E+00 0.  1.
<mgrwt>
<rscale>  1 0.30000000E+03</rscale>
<asrwt>0</asrwt>
<pdfrwt beam="1">  1        1 0.87093604E-02 0.30000000E+03</pdfrwt>
<pdfrwt beam="2">0</pdfrwt>
<totfact> 0.91511703E+02</totfact>
</mgrwt>
</event>
<event>
 6    1  0.1956957E-002  0.3000000E+03  0.7818608E-02  0.1093470E+00
          3   -1    0    0  502    0  0.00000000000E+00  0.00000000000E+00  0.15929181248E+01  0.15929181248E+01  0.00000000000E+00 0.  1.
         13   -1    0    0    0    0 -0.00000000000E+00 -0.00000000000E+00 -0.10000000000E+04  0.10000000000E+04  0.00000000000E+00 0.  1.
    9000005    2    1    2  501    0 -0.22838233637E+02 -0.31612653001E+02 -0.60265445443E+03  0.60392334816E+03  0.31739981694E+01 0.  0.
         13    1    3    3    0    0 -0.48012352854E+01 -0.63322929433E+01 -0.10438049741E+03  0.10468255840E+03  0.00000000000E+00 0.  1.
          3    1    3    3  501    0 -0.18036998351E+02 -0.25280360057E+02 -0.49827395702E+03  0.49924078975E+03  0.00000000000E+00 0.  1.
         21    1    1    2  502  501  0.22838233637E+02  0.31612653001E+02 -0.39575262745E+03  0.39766956997E+03  0.00000000000E+00 0.  1.
<mgrwt>
<rscale>  1 0.30000000E+03</rscale>
<asrwt>0</asrwt>
<pdfrwt beam="1">  1        3 0.57924418E-02 0.30000000E+03</pdfrwt>
<pdfrwt beam="2">0</pdfrwt>
<totfact> 0.78777328E+02</totfact>
</mgrwt>
</event>
<event>
 6    1  0.1956957E-002  0.3000000E+03  0.7818608E-02  0.1093470E+00
          3   -1    0    0  502    0  0.00000000000E+00  0.00000000000E+00  0.42438016853E+01  0.42438016853E+01  0.00000000000E+00 0.  1.
         13   -1    0    0    0    0 -0.00000000000E+00 -0.00000000000E+00 -0.10000000000E+04  0.10000000000E+04  0.00000000000E+00 0.  1.
    9000005    2    1    2  501    0  0.31329701010E+02 -0.22779399807E+02 -0.90102266641E+03  0.90189687555E+03  0.86992834636E+01 0.  0.
         13    1    3    3    0    0  0.19794628183E+02 -0.10647723538E+02 -0.58424709135E+03  0.58467928394E+03  0.00000000000E+00 0.  1.
          3    1    3    3  501    0  0.11535072827E+02 -0.12131676270E+02 -0.31677557506E+03  0.31721759161E+03  0.00000000000E+00 0.  1.
         21    1    1    2  502  501 -0.31329701010E+02  0.22779399807E+02 -0.94733531910E+02  0.10234692613E+03  0.00000000000E+00 0.  1.
<mgrwt>
<rscale>  1 0.30000000E+03</rscale>
<asrwt>0</asrwt>
<pdfrwt beam="1">  1        3 0.15432039E-01 0.30000000E+03</pdfrwt>
<pdfrwt beam="2">0</pdfrwt>
<totfact> 0.15843464E+02</totfact>
</mgrwt>
</event>
<event>
 6    1  0.1956957E-002  0.3000000E+03  0.7818608E-02  0.1093470E+00
          1   -1    0    0  502    0  0.00000000000E+00  0.00000000000E+00  0.36341034621E+01  0.36341034621E+01  0.00000000000E+00 0.  1.
         13   -1    0    0    0    0 -0.00000000000E+00 -0.00000000000E+00 -0.10000000000E+04  0.10000000000E+04  0.00000000000E+00 0.  1.
    9000005    2    1    2  501    0  0.16961842662E+02 -0.46964909030E+02 -0.77903247362E+03  0.78063808668E+03  0.32894715404E+01 0.  0.
         13    1    3    3    0    0  0.29075075518E+01 -0.79980278620E+01 -0.15320198397E+03  0.15343816325E+03  0.00000000000E+00 0.  1.
          1    1    3    3  501    0  0.14054335110E+02 -0.38966881168E+02 -0.62583048965E+03  0.62719992342E+03  0.00000000000E+00 0.  1.
         21    1    1    2  502  501 -0.16961842662E+02  0.46964909030E+02 -0.21733342292E+03  0.22299601679E+03  0.00000000000E+00 0.  1.
<mgrwt>
<rscale>  1 0.30000000E+03</rscale>
<asrwt>0</asrwt>
<pdfrwt beam="1">  1        1 0.13214950E-01 0.30000000E+03</pdfrwt>
<pdfrwt beam="2">0</pdfrwt>
<totfact> 0.51546235E+02</totfact>
</mgrwt>
</event>
<event>
 6    1  0.1956957E-002  0.3000000E+03  0.7818608E-02  0.1093470E+00
          1   -1    0    0  502    0  0.00000000000E+00  0.00000000000E+00  0.27446170327E+01  0.27446170327E+01  0.00000000000E+00 0.  1.
         13   -1    0    0    0    0 -0.00000000000E+00 -0.00000000000E+00 -0.10000000000E+04  0.10000000000E+04  0.00000000000E+00 0.  1.
    9000005    2    1    2  501    0 -0.27004882415E+02  0.25345351709E+02 -0.85218784929E+03  0.85302407785E+03  0.73686076006E+01 0.  0.
         13    1    3    3    0    0 -0.40383206592E+01  0.77648455385E+01 -0.17461291746E+03  0.17483212464E+03  0.00000000000E+00 0.  1.
          3    1    3    3  501    0 -0.22966561756E+02  0.17580506170E+02 -0.67757493183E+03  0.67819195321E+03  0.00000000000E+00 0.  1.
         21    1    1    2  502  501  0.27004882415E+02 -0.25345351709E+02 -0.14506753368E+03  0.14972053919E+03  0.00000000000E+00 0.  1.
<mgrwt>
<rscale>  1 0.30000000E+03</rscale>
<asrwt>0</asrwt>
<pdfrwt beam="1">  1        1 0.99804466E-02 0.30000000E+03</pdfrwt>
<pdfrwt beam="2">0</pdfrwt>
<totfact> 0.75778120E+02</totfact>
</mgrwt>
</event>
<event>
 6    1  0.1956957E-002  0.3000000E+03  0.7818608E-02  0.1093470E+00
          1   -1    0    0  502    0  0.00000000000E+00  0.00000000000E+00  0.20726399746E+01  0.20726399746E+01  0.00000000000E+00 0.  1.
         13   -1    0    0    0    0 -0.00000000000E+00 -0.00000000000E+00 -0.10000000000E+04  0.10000000000E+04  0.00000000000E+00 0.  1.
    9000005    2    1    2  501    0  0.66490314911E+01  0.33451301241E+02 -0.16827487349E+03  0.17171943345E+03  0.28163098355E+01 0.  0.
         13    1    3    3    0    0  0.64692305119E+01  0.27793140141E+02 -0.14276135065E+03  0.14558541418E+03  0.00000000000E+00 0.  1.
          1    1    3    3  501    0  0.17980097917E+00  0.56581611006E+01 -0.25513522834E+02  0.26134019263E+02  0.00000000000E+00 0.  1.
         21    1    1    2  502  501 -0.66490314911E+01 -0.33451301241E+02 -0.82965248654E+03  0.83035320653E+03  0.00000000000E+00 0.  1.
<mgrwt>
<rscale>  1 0.30000000E+03</rscale>
<asrwt>0</asrwt>
<pdfrwt beam="1">  1        1 0.75368885E-02 0.30000000E+03</pdfrwt>
<pdfrwt beam="2">0</pdfrwt>
<totfact> 0.11191025E+03</totfact>
</mgrwt>
</event>
<event>
 6    1  0.1956957E-002  0.3000000E+03  0.7818608E-02  0.1093470E+00
          1   -1    0    0  502    0  0.00000000000E+00  0.00000000000E+00  0.20030162761E+01  0.20030162761E+01  0.00000000000E+00 0.  1.
         13   -1    0    0    0    0 -0.00000000000E+00 -0.00000000000E+00 -0.10000000000E+04  0.10000000000E+04  0.00000000000E+00 0.  1.
    9000005    2    1    2  501    0 -0.39458514122E+01  0.40687538729E+02 -0.70200837612E+03  0.70320492160E+03  0.32180845011E+01 0.  0.
         13    1    3    3    0    0 -0.85174661563E-01  0.11428286671E+02 -0.17889516138E+03  0.17925984424E+03  0.00000000000E+00 0.  1.
          1    1    3    3  501    0 -0.38606767506E+01  0.29259252058E+02 -0.52311321474E+03  0.52394507736E+03  0.00000000000E+00 0.  1.
         21    1    1    2  502  501  0.39458514122E+01 -0.40687538729E+02 -0.29598860761E+03  0.29879809468E+03  0.00000000000E+00 0.  1.
<mgrwt>
<rscale>  1 0.30000000E+03</rscale>
<asrwt>0</asrwt>
<pdfrwt beam="1">  1        1 0.72837109E-02 0.30000000E+03</pdfrwt>
<pdfrwt beam="2">0</pdfrwt>
<totfact> 0.11737889E+03</totfact>
</mgrwt>
</event>
<event>
 6    1  0.1956957E-002  0.3000000E+03  0.7818608E-02  0.1093470E+00
          3   -1    0    0  502    0  0.00000000000E+00  0.00000000000E+00  0.22611487457E+01  0.22611487457E+01  0.00000000000E+00 0.  1.
         13   -1    0    0    0    0 -0.00000000000E+00 -0.00000000000E+00 -0.10000000000E+04  0.10000000000E+04  0.00000000000E+00 0.  1.
    9000005    2    1    2  501    0 -0.25416600443E+02 -0.32028474686E+02 -0.75429067000E+03  0.75540320635E+03  0.27861340479E+01 0.  0.
         13    1    3    3    0    0 -0.15960621555E+02 -0.18129280308E+02 -0.45572132458E+03  0.45636097327E+03  0.00000000000E+00 0.  1.
          1    1    3    3  501    0 -0.94559788880E+01 -0.13899194378E+02 -0.29856934542E+03  0.29904223308E+03  0.00000000000E+00 0.  1.
         21    1    1    2  502  501  0.25416600443E+02  0.32028474686E+02 -0.24344818125E+03  0.24685794240E+03  0.00000000000E+00 0.  1.
<mgrwt>
<rscale>  1 0.30000000E+03</rscale>
<asrwt>0</asrwt>
<pdfrwt beam="1">  1        3 0.82223764E-02 0.30000000E+03</pdfrwt>
<pdfrwt beam="2">0</pdfrwt>
<totfact> 0.45359330E+02</totfact>
</mgrwt>
</event>
<event>
 6    1  0.1956957E-002  0.3000000E+03  0.7818608E-02  0.1093470E+00
          1   -1    0    0  502    0  0.00000000000E+00  0.00000000000E+00  0.23212933661E+01  0.23212933661E+01  0.00000000000E+00 0.  1.
         13   -1    0    0    0    0 -0.00000000000E+00 -0.00000000000E+00 -0.10000000000E+04  0.10000000000E+04  0.00000000000E+00 0.  1.
    9000005    2    1    2  501    0 -0.12966771167E+01 -0.33975993850E+02 -0.14492767493E+03  0.14889269554E+03  0.29923723752E+01 0.  0.
         13    1    3    3    0    0  0.50374621500E+00 -0.66610355229E+01 -0.32626244494E+02  0.33303077699E+02  0.00000000000E+00 0.  1.
          1    1    3    3  501    0 -0.18004233317E+01 -0.27314958327E+02 -0.11230143044E+03  0.11558961784E+03  0.00000000000E+00 0.  1.
         21    1    1    2  502  501  0.12966771167E+01  0.33975993850E+02 -0.85275103170E+03  0.85342859783E+03  0.00000000000E+00 0.  1.
<mgrwt>
<rscale>  1 0.30000000E+03</rscale>
<asrwt>0</asrwt>
<pdfrwt beam="1">  1        1 0.84410846E-02 0.30000000E+03</pdfrwt>
<pdfrwt beam="2">0</pdfrwt>
<totfact> 0.95576023E+02</totfact>
</mgrwt>
</event>
<event>
 6    1  0.1956957E-002  0.3000000E+03  0.7818608E-02  0.1093470E+00
          1   -1    0    0  502    0  0.00000000000E+00  0.00000000000E+00  0.33235777330E+01  0.33235777330E+01  0.00000000000E+00 0.  1.
         13   -1    0    0    0    0 -0.00000000000E+00 -0.00000000000E+00 -0.10000000000E+04  0.10000000000E+04  0.00000000000E+00 0.  1.
    9000005    2    1    2  501    0  0.22265614675E+02  0.21070428625E+02 -0.92312538432E+03  0.92363998003E+03  0.32583709003E+01 0.  0.
         13    1    3    3    0    0  0.78399989167E+01  0.92899854097E+01 -0.33997208193E+03  0.34018933832E+03  0.00000000000E+00 0.  1.
          1    1    3    3  501    0  0.14425615758E+02  0.11780443215E+02 -0.58315330239E+03  0.58345064172E+03  0.00000000000E+00 0.  1.
         21    1    1    2  502  501 -0.22265614675E+02 -0.21070428625E+02 -0.73551037949E+02  0.79683597701E+02  0.00000000000E+00 0.  1.
<mgrwt>
<rscale>  1 0.30000000E+03</rscale>
<asrwt>0</asrwt>
<pdfrwt beam="1">  1        1 0.12085763E-01 0.30000000E+03</pdfrwt>
<pdfrwt beam="2">0</pdfrwt>
<totfact> 0.58245913E+02</totfact>
</mgrwt>
</event>
<event>
 6    1  0.1956957E-002  0.3000000E+03  0.7818608E-02  0.1093470E+00
          3   -1    0    0  502    0  0.00000000000E+00  0.00000000000E+00  0.42796340655E+01  0.42796340655E+01  0.00000000000E+00 0.  1.
         13   -1    0    0    0    0 -0.00000000000E+00 -0.00000000000E+00 -0.10000000000E+04  0.10000000000E+04  0.00000000000E+00 0.  1.
    9000005    2    1    2  501    0 -0.12732333904E+02 -0.29866047157E+02 -0.93374611897E+03  0.93431606936E+03  0.32572496379E+01 0.  0.
         13    1    3    3    0    0 -0.45045804437E+01 -0.88304220714E+01 -0.32453083041E+03  0.32468219459E+03  0.00000000000E+00 0.  1.
          1    1    3    3  501    0 -0.82277534601E+01 -0.21035625085E+02 -0.60921528856E+03  0.60963387477E+03  0.00000000000E+00 0.  1.
         21    1    1    2  502  501  0.12732333904E+02  0.29866047157E+02 -0.61974246967E+02  0.69963564707E+02  0.00000000000E+00 0.  1.
<mgrwt>
<rscale>  1 0.30000000E+03</rscale>
<asrwt>0</asrwt>
<pdfrwt beam="1">  1        3 0.15562339E-01 0.30000000E+03</pdfrwt>
<pdfrwt beam="2">0</pdfrwt>
<totfact> 0.15613127E+02</totfact>
</mgrwt>
</event>
<event>
 6    1  0.1956957E-002  0.3000000E+03  0.7818608E-02  0.1093470E+00
          3   -1    0    0  502    0  0.00000000000E+00  0.00000000000E+00  0.14430424184E+01  0.14430424184E+01  0.00000000000E+00 0.  1.
         13   -1    0    0    0    0 -0.00000000000E+00 -0.00000000000E+00 -0.10000000000E+04  0.10000000000E+04  0.00000000000E+00 0.  1.
    9000005    2    1    2  501    0 -0.27741488550E+02 -0.14070298012E+02 -0.78573692723E+03  0.78636182801E+03  0.38525657959E+01 0.  0.
         13    1    3    3    0    0 -0.15987398556E+02 -0.10212391750E+02 -0.47173868594E+03  0.47211998229E+03  0.00000000000E+00 0.  1.
          1    1    3    3  501    0 -0.11754089995E+02 -0.38579062621E+01 -0.31399824128E+03  0.31424184572E+03  0.00000000000E+00 0.  1.
         21    1    1    2  502  501  0.27741488550E+02  0.14070298012E+02 -0.21282003035E+03  0.21508121441E+03  0.00000000000E+00 0.  1.
<mgrwt>
<rscale>  1 0.30000000E+03</rscale>
<asrwt>0</asrwt>
<pdfrwt beam="1">  1        3 0.52474380E-02 0.30000000E+03</pdfrwt>
<pdfrwt beam="2">0</pdfrwt>
<totfact> 0.91825652E+02</totfact>
</mgrwt>
</event>
<event>
 6    1  0.1956957E-002  0.3000000E+03  0.7818608E-02  0.1093470E+00
          1   -1    0    0  502    0  0.00000000000E+00  0.00000000000E+00  0.14067056625E+01  0.14067056625E+01  0.00000000000E+00 0.  1.
         13   -1    0    0    0    0 -0.00000000000E+00 -0.00000000000E+00 -0.10000000000E+04  0.10000000000E+04  0.00000000000E+00 0.  1.
    9000005    2    1    2  501    0 -0.25373521627E+02  0.17963609890E+02 -0.77859236496E+03  0.77922003683E+03  0.33597831237E+01 0.  0.
         13    1    3    3    0    0 -0.11078227890E+02  0.87127167937E+01 -0.31521096878E+03  0.31552589974E+03  0.00000000000E+00 0.  1.
          1    1    3    3  501    0 -0.14295293737E+02  0.92508930966E+01 -0.46338139618E+03  0.46369413709E+03  0.00000000000E+00 0.  1.
         21    1    1    2  502  501  0.25373521627E+02 -0.17963609890E+02 -0.22000092938E+03  0.22218666883E+03  0.00000000000E+00 0.  1.
<mgrwt>
<rscale>  1 0.30000000E+03</rscale>
<asrwt>0</asrwt>
<pdfrwt beam="1">  1        1 0.51153041E-02 0.30000000E+03</pdfrwt>
<pdfrwt beam="2">0</pdfrwt>
<totfact> 0.19264354E+03</totfact>
</mgrwt>
</event>
<event>
 6    1  0.1956957E-002  0.3000000E+03  0.7818608E-02  0.1093470E+00
          1   -1    0    0  502    0  0.00000000000E+00  0.00000000000E+00  0.17816821388E+01  0.17816821388E+01  0.00000000000E+00 0.  1.
         13   -1    0    0    0    0 -0.00000000000E+00 -0.00000000000E+00 -0.10000000000E+04  0.10000000000E+04  0.00000000000E+00 0.  1.
    9000005    2    1    2  501    0  0.85729742291E+01 -0.36217846644E+02 -0.73376025152E+03  0.73471746298E+03  0.45183395802E+01 0.  0.
         13    1    3    3    0    0  0.51073386379E+00 -0.10302770944E+02 -0.21683911209E+03  0.21708433493E+03  0.00000000000E+00 0.  1.
          3    1    3    3  501    0  0.80622403653E+01 -0.25915075701E+02 -0.51692113943E+03  0.51763312805E+03  0.00000000000E+00 0.  1.
         21    1    1    2  502  501 -0.85729742291E+01  0.36217846644E+02 -0.26445806634E+03  0.26706421916E+03  0.00000000000E+00 0.  1.
<mgrwt>
<rscale>  1 0.30000000E+03</rscale>
<asrwt>0</asrwt>
<pdfrwt beam="1">  1        1 0.64788578E-02 0.30000000E+03</pdfrwt>
<pdfrwt beam="2">0</pdfrwt>
<totfact> 0.13827076E+03</totfact>
</mgrwt>
</event>
<event>
 6    1  0.1956957E-002  0.3000000E+03  0.7818608E-02  0.1093470E+00
          3   -1    0    0  502    0  0.00000000000E+00  0.00000000000E+00  0.51573462424E+01  0.51573462424E+01  0.00000000000E+00 0.  1.
         13   -1    0    0    0    0 -0.00000000000E+00 -0.00000000000E+00 -0.10000000000E+04  0.10000000000E+04  0.00000000000E+00 0.  1.
    9000005    2    1    2  501    0  0.52599285037E+02 -0.13048788329E+02 -0.82703657962E+03  0.82881723685E+03  0.33988830465E+01 0.  0.
         13    1    3    3    0    0  0.15872636860E+02 -0.32319811394E+01 -0.22630297886E+03  0.22688196170E+03  0.00000000000E+00 0.  1.
          3    1    3    3  501    0  0.36726648177E+02 -0.98168071899E+01 -0.60073360076E+03  0.60193527515E+03  0.00000000000E+00 0.  1.
         21    1    1    2  502  501 -0.52599285037E+02  0.13048788329E+02 -0.16780607413E+03  0.17634010939E+03  0.00000000000E+00 0.  1.
<mgrwt>
<rscale>  1 0.30000000E+03</rscale>
<asrwt>0</asrwt>
<pdfrwt beam="1">  1        3 0.18754026E-01 0.30000000E+03</pdfrwt>
<pdfrwt beam="2">0</pdfrwt>
<totfact> 0.11226366E+02</totfact>
</mgrwt>
</event>
<event>
 6    1  0.1956957E-002  0.3000000E+03  0.7818608E-02  0.1093470E+00
          3   -1    0    0  502    0  0.00000000000E+00  0.00000000000E+00  0.14578083880E+01  0.14578083880E+01  0.00000000000E+00 0.  1.
         13   -1    0    0    0    0 -0.00000000000E+00 -0.00000000000E+00 -0.10000000000E+04  0.10000000000E+04  0.00000000000E+00 0.  1.
    9000005    2    1    2  501    0  0.36656672702E+02 -0.39609484375E+01 -0.62647945382E+03  0.62757269018E+03  0.34021510435E+01 0.  0.
         13    1    3    3    0    0  0.31867367920E+02 -0.40907358910E+01 -0.55990604875E+03  0.56082710944E+03  0.00000000000E+00 0.  1.
          3    1    3    3  501    0  0.47893047825E+01  0.12978745351E+00 -0.66573405069E+02  0.66745580734E+02  0.00000000000E+00 0.  1.
         21    1    1    2  502  501 -0.36656672702E+02  0.39609484375E+01 -0.37206273779E+03  0.37388511821E+03  0.00000000000E+00 0.  1.
<mgrwt>
<rscale>  1 0.30000000E+03</rscale>
<asrwt>0</asrwt>
<pdfrwt beam="1">  1        3 0.53011326E-02 0.30000000E+03</pdfrwt>
<pdfrwt beam="2">0</pdfrwt>
<totfact> 0.90391227E+02</totfact>
</mgrwt>
</event>
<event>
 6    1  0.1956957E-002  0.3000000E+03  0.7818608E-02  0.1093470E+00
          1   -1    0    0  502    0  0.00000000000E+00  0.00000000000E+00  0.22013664410E+01  0.22013664410E+01  0.00000000000E+00 0.  1.
         13   -1    0    0    0    0 -0.00000000000E+00 -0.00000000000E+00 -0.10000000000E+04  0.10000000000E+04  0.00000000000E+00 0.  1.
    9000005    2    1    2  501    0  0.38577667074E+02 -0.25704774509E+02 -0.42745389938E+03  0.42997580984E+03  0.36591142563E+01 0.  0.
         13    1    3    3    0    0  0.95223166111E+01 -0.80035376498E+01 -0.10677653297E+03  0.10749864707E+03  0.00000000000E+00 0.  1.
          3    1    3    3  501    0  0.29055350462E+02 -0.17701236859E+02 -0.32067736641E+03  0.32247716277E+03  0.00000000000E+00 0.  1.
         21    1    1    2  502  501 -0.38577667074E+02  0.25704774509E+02 -0.57034473418E+03  0.57222555660E+03  0.00000000000E+00 0.  1.
<mgrwt>
<rscale>  1 0.30000000E+03</rscale>
<asrwt>0</asrwt>
<pdfrwt beam="1">  1        1 0.80049858E-02 0.30000000E+03</pdfrwt>
<pdfrwt beam="2">0</pdfrwt>
<totfact> 0.10289487E+03</totfact>
</mgrwt>
</event>
<event>
 6    1  0.1956957E-002  0.3000000E+03  0.7818608E-02  0.1093470E+00
          1   -1    0    0  502    0  0.00000000000E+00  0.00000000000E+00  0.64542152265E+01  0.64542152265E+01  0.00000000000E+00 0.  1.
         13   -1    0    0    0    0 -0.00000000000E+00 -0.00000000000E+00 -0.10000000000E+04  0.10000000000E+04  0.00000000000E+00 0.  1.
    9000005    2    1    2  501    0 -0.44316354651E+02 -0.55116860504E+01 -0.91504905228E+03  0.91614333557E+03  0.30863008035E+01 0.  0.
         13    1    3    3    0    0 -0.98176171103E+01 -0.19660570969E+01 -0.18423526591E+03  0.18450713860E+03  0.00000000000E+00 0.  1.
          3    1    3    3  501    0 -0.34498737540E+02 -0.35456289535E+01 -0.73081378637E+03  0.73163619698E+03  0.00000000000E+00 0.  1.
         21    1    1    2  502  501  0.44316354651E+02  0.55116860504E+01 -0.78496732489E+02  0.90310879655E+02  0.00000000000E+00 0.  1.
<mgrwt>
<rscale>  1 0.30000000E+03</rscale>
<asrwt>0</asrwt>
<pdfrwt beam="1">  1        1 0.23469923E-01 0.30000000E+03</pdfrwt>
<pdfrwt beam="2">0</pdfrwt>
<totfact> 0.23800324E+02</totfact>
</mgrwt>
</event>
<event>
 6    1  0.1956957E-002  0.3000000E+03  0.7818608E-02  0.1093470E+00
          1   -1    0    0  502    0  0.00000000000E+00  0.00000000000E+00  0.12837460374E+01  0.12837460374E+01  0.00000000000E+00 0.  1.
         13   -1    0    0    0    0 -0.00000000000E+00 -0.00000000000E+00 -0.10000000000E+04  0.10000000000E+04  0.00000000000E+00 0.  1.
    9000005    2    1    2  501    0  0.16090421937E+02  0.28795276248E+02 -0.69331303358E+03  0.69410432513E+03  0.31276208617E+01 0.  0.
         13    1    3    3    0    0  0.15616917402E+02  0.28631635120E+02 -0.67953613693E+03  0.68031832258E+03  0.00000000000E+00 0.  1.
          3    1    3    3  501    0  0.47350453530E+00  0.16364112883E+00 -0.13776896650E+02  0.13786002548E+02  0.00000000000E+00 0.  1.
         21    1    1    2  502  501 -0.16090421937E+02 -0.28795276248E+02 -0.30540322038E+03  0.30717942091E+03  0.00000000000E+00 0.  1.
<mgrwt>
<rscale>  1 0.30000000E+03</rscale>
<asrwt>0</asrwt>
<pdfrwt beam="1">  1        1 0.46681773E-02 0.30000000E+03</pdfrwt>
<pdfrwt beam="2">0</pdfrwt>
<totfact> 0.21908086E+03</totfact>
</mgrwt>
</event>
<event>
 6    1  0.1956957E-002  0.3000000E+03  0.7818608E-02  0.1093470E+00
          1   -1    0    0  502    0  0.00000000000E+00  0.00000000000E+00  0.59860987430E+01  0.59860987430E+01  0.00000000000E+00 0.  1.
         13   -1    0    0    0    0 -0.00000000000E+00 -0.00000000000E+00 -0.10000000000E+04  0.10000000000E+04  0.00000000000E+00 0.  1.
    9000005    2    1    2  501    0  0.99329732399E+01 -0.64284665189E+02 -0.76924754962E+03  0.77199657983E+03  0.23967743891E+01 0.  0.
         13    1    3    3    0    0  0.95547588996E+00 -0.86359523932E+01 -0.94443670526E+02  0.94842498440E+02  0.00000000000E+00 0.  1.
          3    1    3    3  501    0  0.89774973499E+01 -0.55648712795E+02 -0.67480387910E+03  0.67715408139E+03  0.00000000000E+00 0.  1.
         21    1    1    2  502  501 -0.99329732399E+01  0.64284665189E+02 -0.22476635163E+03  0.23398951892E+03  0.00000000000E+00 0.  1.
<mgrwt>
<rscale>  1 0.30000000E+03</rscale>
<asrwt>0</asrwt>
<pdfrwt beam="1">  1        1 0.21767678E-01 0.30000000E+03</pdfrwt>
<pdfrwt beam="2">0</pdfrwt>
<totfact> 0.26298796E+02</totfact>
</mgrwt>
</event>
<event>
 6    1  0.1956957E-002  0.3000000E+03  0.7818608E-02  0.1093470E+00
          1   -1    0    0  502    0  0.00000000000E+00  0.00000000000E+00  0.64052745221E+01  0.64052745221E+01  0.00000000000E+00 0.  1.
         13   -1    0    0    0    0 -0.00000000000E+00 -0.00000000000E+00 -0.10000000000E+04  0.10000000000E+04  0.00000000000E+00 0.  1.
    9000005    2    1    2  501    0  0.56582636554E+02 -0.40523422561E+02 -0.74521056259E+03  0.74845482403E+03  0.14486143052E+01 0.  0.
         13    1    3    3    0    0  0.49987132392E+01 -0.38048949963E+01 -0.63360890979E+02  0.63671554603E+02  0.00000000000E+00 0.  1.
          1    1    3    3  501    0  0.51583923314E+02 -0.36718527564E+02 -0.68184967161E+03  0.68478326943E+03  0.00000000000E+00 0.  1.
         21    1    1    2  502  501 -0.56582636554E+02  0.40523422561E+02 -0.24838416289E+03  0.25795045049E+03  0.00000000000E+00 0.  1.
<mgrwt>
<rscale>  1 0.30000000E+03</rscale>
<asrwt>0</asrwt>
<pdfrwt beam="1">  1        1 0.23291956E-01 0.30000000E+03</pdfrwt>
<pdfrwt beam="2">0</pdfrwt>
<totfact> 0.24041326E+02</totfact>
</mgrwt>
</event>
<event>
 6    1  0.1956957E-002  0.3000000E+03  0.7818608E-02  0.1093470E+00
          1   -1    0    0  502    0  0.00000000000E+00  0.00000000000E+00  0.17484596068E+01  0.17484596068E+01  0.00000000000E+00 0.  1.
         13   -1    0    0    0    0 -0.00000000000E+00 -0.00000000000E+00 -0.10000000000E+04  0.10000000000E+04  0.00000000000E+00 0.  1.
    9000005    2    1    2  501    0 -0.25292180784E+01  0.35201851751E+02 -0.76710192715E+03  0.76792008020E+03  0.32117962990E+01 0.  0.
         13    1    3    3    0    0 -0.29224025017E+01  0.30394354315E+02 -0.64340461320E+03  0.64412875537E+03  0.00000000000E+00 0.  1.
          1    1    3    3  501    0  0.39318442335E+00  0.48074974358E+01 -0.12369731395E+03  0.12379132483E+03  0.00000000000E+00 0.  1.
         21    1    1    2  502  501  0.25292180784E+01 -0.35201851751E+02 -0.23114961325E+03  0.23382837940E+03  0.00000000000E+00 0.  1.
<mgrwt>
<rscale>  1 0.30000000E+03</rscale>
<asrwt>0</asrwt>
<pdfrwt beam="1">  1        1 0.63580483E-02 0.30000000E+03</pdfrwt>
<pdfrwt beam="2">0</pdfrwt>
<totfact> 0.14196560E+03</totfact>
</mgrwt>
</event>
<event>
 6    1  0.1956957E-002  0.3000000E+03  0.7818608E-02  0.1093470E+00
          1   -1    0    0  502    0  0.00000000000E+00  0.00000000000E+00  0.11566401661E+02  0.11566401661E+02  0.00000000000E+00 0.  1.
         13   -1    0    0    0    0 -0.00000000000E+00 -0.00000000000E+00 -0.10000000000E+04  0.10000000000E+04  0.00000000000E+00 0.  1.
    9000005    2    1    2  501    0  0.22684018760E+02  0.35163343998E+02 -0.96013141317E+03  0.96104869038E+03  0.33510067289E+01 0.  0.
         13    1    3    3    0    0  0.18180750140E+02  0.28760198594E+02 -0.74964518133E+03  0.75041694184E+03  0.00000000000E+00 0.  1.
          1    1    3    3  501    0  0.45032686206E+01  0.64031454040E+01 -0.21048623184E+03  0.21063174854E+03  0.00000000000E+00 0.  1.
         21    1    1    2  502  501 -0.22684018760E+02 -0.35163343998E+02 -0.28302185168E+02  0.50517711285E+02  0.00000000000E+00 0.  1.
<mgrwt>
<rscale>  1 0.30000000E+03</rscale>
<asrwt>0</asrwt>
<pdfrwt beam="1">  1        1 0.42059731E-01 0.30000000E+03</pdfrwt>
<pdfrwt beam="2">0</pdfrwt>
<totfact> 0.11069183E+02</totfact>
</mgrwt>
</event>
<event>
 6    1  0.1956957E-002  0.3000000E+03  0.7818608E-02  0.1093470E+00
          1   -1    0    0  502    0  0.00000000000E+00  0.00000000000E+00  0.33413678523E+02  0.33413678523E+02  0.00000000000E+00 0.  1.
         13   -1    0    0    0    0 -0.00000000000E+00 -0.00000000000E+00 -0.10000000000E+04  0.10000000000E+04  0.00000000000E+00 0.  1.
    9000005    2    1    2  501    0  0.16201974118E+02 -0.32602485101E+02 -0.98964022353E+03  0.99032181850E+03  0.49098046168E+01 0.  0.
         13    1    3    3    0    0  0.15128803160E+02 -0.27439619311E+02 -0.87382121219E+03  0.87438282477E+03  0.00000000000E+00 0.  1.
          3    1    3    3  501    0  0.10731709586E+01 -0.51628657905E+01 -0.11581901134E+03  0.11593899373E+03  0.00000000000E+00 0.  1.
         21    1    1    2  502  501 -0.16201974118E+02  0.32602485101E+02  0.23053902051E+02  0.43091860019E+02  0.00000000000E+00 0.  1.
<mgrwt>
<rscale>  1 0.30000000E+03</rscale>
<asrwt>0</asrwt>
<pdfrwt beam="1">  1        1 0.12150454E+00 0.30000000E+03</pdfrwt>
<pdfrwt beam="2">0</pdfrwt>
<totfact> 0.25493393E+01</totfact>
</mgrwt>
</event>
<event>
 6    1  0.1956957E-002  0.3000000E+03  0.7818608E-02  0.1093470E+00
          3   -1    0    0  502    0  0.00000000000E+00  0.00000000000E+00  0.35593276783E+01  0.35593276783E+01  0.00000000000E+00 0.  1.
         13   -1    0    0    0    0 -0.00000000000E+00 -0.00000000000E+00 -0.10000000000E+04  0.10000000000E+04  0.00000000000E+00 0.  1.
    9000005    2    1    2  501    0 -0.29424617049E+02 -0.78729612067E+01 -0.92960338665E+03  0.93010856619E+03  0.34200628662E+01 0.  0.
         13    1    3    3    0    0 -0.23479230431E+02 -0.76258723569E+01 -0.73768566275E+03  0.73809861483E+03  0.00000000000E+00 0.  1.
          1    1    3    3  501    0 -0.59453866185E+01 -0.24708884985E+00 -0.19191772390E+03  0.19200995136E+03  0.00000000000E+00 0.  1.
         21    1    1    2  502  501  0.29424617049E+02  0.78729612067E+01 -0.66837285673E+02  0.73450761485E+02  0.00000000000E+00 0.  1.
<mgrwt>
<rscale>  1 0.30000000E+03</rscale>
<asrwt>0</asrwt>
<pdfrwt beam="1">  1        3 0.12943037E-01 0.30000000E+03</pdfrwt>
<pdfrwt beam="2">0</pdfrwt>
<totfact> 0.21434302E+02</totfact>
</mgrwt>
</event>
<event>
 6    1  0.1956957E-002  0.3000000E+03  0.7818608E-02  0.1093470E+00
          1   -1    0    0  502    0  0.00000000000E+00  0.00000000000E+00  0.58506366783E+01  0.58506366783E+01  0.00000000000E+00 0.  1.
         13   -1    0    0    0    0 -0.00000000000E+00 -0.00000000000E+00 -0.10000000000E+04  0.10000000000E+04  0.00000000000E+00 0.  1.
    9000005    2    1    2  501    0 -0.39167914859E+01 -0.69590980081E+02 -0.70389526798E+03  0.70734488191E+03  0.31603674315E+01 0.  0.
         13    1    3    3    0    0 -0.37799115394E+01 -0.61429406109E+02 -0.63075660058E+03  0.63375211939E+03  0.00000000000E+00 0.  1.
          1    1    3    3  501    0 -0.13687994644E+00 -0.81615739720E+01 -0.73138667401E+02  0.73592762518E+02  0.00000000000E+00 0.  1.
         21    1    1    2  502  501  0.39167914859E+01  0.69590980081E+02 -0.29025409534E+03  0.29850575477E+03  0.00000000000E+00 0.  1.
<mgrwt>
<rscale>  1 0.30000000E+03</rscale>
<asrwt>0</asrwt>
<pdfrwt beam="1">  1        1 0.21275087E-01 0.30000000E+03</pdfrwt>
<pdfrwt beam="2">0</pdfrwt>
<totfact> 0.27111513E+02</totfact>
</mgrwt>
</event>
<event>
 6    1  0.1956957E-002  0.3000000E+03  0.7818608E-02  0.1093470E+00
          1   -1    0    0  502    0  0.00000000000E+00  0.00000000000E+00  0.10107808383E+02  0.10107808383E+02  0.00000000000E+00 0.  1.
         13   -1    0    0    0    0 -0.00000000000E+00 -0.00000000000E+00 -0.10000000000E+04  0.10000000000E+04  0.00000000000E+00 0.  1.
    9000005    2    1    2  501    0  0.36566290150E+02  0.12439313906E+02 -0.96122677699E+03  0.96200857656E+03  0.34284801921E+01 0.  0.
         13    1    3    3    0    0  0.14021954388E+02  0.49898448375E+01 -0.33014102582E+03  0.33047633907E+03  0.00000000000E+00 0.  1.
          1    1    3    3  501    0  0.22544335762E+02  0.74494690687E+01 -0.63108575117E+03  0.63153223749E+03  0.00000000000E+00 0.  1.
         21    1    1    2  502  501 -0.36566290150E+02 -0.12439313906E+02 -0.28665414627E+02  0.48099231818E+02  0.00000000000E+00 0.  1.
<mgrwt>
<rscale>  1 0.30000000E+03</rscale>
<asrwt>0</asrwt>
<pdfrwt beam="1">  1        1 0.36755744E-01 0.30000000E+03</pdfrwt>
<pdfrwt beam="2">0</pdfrwt>
<totfact> 0.13200779E+02</totfact>
</mgrwt>
</event>
<event>
 6    1  0.1956957E-002  0.3000000E+03  0.7818608E-02  0.1093470E+00
          1   -1    0    0  502    0  0.00000000000E+00  0.00000000000E+00  0.18482064022E+01  0.18482064022E+01  0.00000000000E+00 0.  1.
         13   -1    0    0    0    0 -0.00000000000E+00 -0.00000000000E+00 -0.10000000000E+04  0.10000000000E+04  0.00000000000E+00 0.  1.
    9000005    2    1    2  501    0  0.24543487429E+02 -0.17889488742E+02 -0.85320290960E+03  0.85375163131E+03  0.37717936464E+01 0.  0.
         13    1    3    3    0    0  0.14743888442E+02 -0.12428902985E+02 -0.50494850896E+03  0.50531659044E+03  0.00000000000E+00 0.  1.
          3    1    3    3  501    0  0.97995989872E+01 -0.54605857576E+01 -0.34825440065E+03  0.34843504087E+03  0.00000000000E+00 0.  1.
         21    1    1    2  502  501 -0.24543487429E+02  0.17889488742E+02 -0.14494888399E+03  0.14809657509E+03  0.00000000000E+00 0.  1.
<mgrwt>
<rscale>  1 0.30000000E+03</rscale>
<asrwt>0</asrwt>
<pdfrwt beam="1">  1        1 0.67207647E-02 0.30000000E+03</pdfrwt>
<pdfrwt beam="2">0</pdfrwt>
<totfact> 0.13135266E+03</totfact>
</mgrwt>
</event>
<event>
 6    1  0.1956957E-002  0.3000000E+03  0.7818608E-02  0.1093470E+00
          3   -1    0    0  502    0  0.00000000000E+00  0.00000000000E+00  0.21512213052E+01  0.21512213052E+01  0.00000000000E+00 0.  1.
         13   -1    0    0    0    0 -0.00000000000E+00 -0.00000000000E+00 -0.10000000000E+04  0.10000000000E+04  0.00000000000E+00 0.  1.
    9000005    2    1    2  501    0 -0.41870842154E+02 -0.16730456688E+02 -0.61311423560E+03  0.61478350936E+03  0.40769949450E+01 0.  0.
         13    1    3    3    0    0 -0.37821491817E+02 -0.16258362681E+02 -0.56384225764E+03  0.56534316225E+03  0.00000000000E+00 0.  1.
          1    1    3    3  501    0 -0.40493503363E+01 -0.47209400621E+00 -0.49271977955E+02  0.49440347111E+02  0.00000000000E+00 0.  1.
         21    1    1    2  502  501  0.41870842154E+02  0.16730456688E+02 -0.38473454310E+03  0.38736771194E+03  0.00000000000E+00 0.  1.
<mgrwt>
<rscale>  1 0.30000000E+03</rscale>
<asrwt>0</asrwt>
<pdfrwt beam="1">  1        3 0.78226394E-02 0.30000000E+03</pdfrwt>
<pdfrwt beam="2">0</pdfrwt>
<totfact> 0.49116070E+02</totfact>
</mgrwt>
</event>
<event>
 6    1  0.1956957E-002  0.3000000E+03  0.7818608E-02  0.1093470E+00
          1   -1    0    0  502    0  0.00000000000E+00  0.00000000000E+00  0.13113156833E+01  0.13113156833E+01  0.00000000000E+00 0.  1.
         13   -1    0    0    0    0 -0.00000000000E+00 -0.00000000000E+00 -0.10000000000E+04  0.10000000000E+04  0.00000000000E+00 0.  1.
    9000005    2    1    2  501    0  0.13266323157E+02 -0.32046060742E+02 -0.36231562719E+03  0.36399380206E+03  0.39911013574E+01 0.  0.
         13    1    3    3    0    0  0.66876836567E+01 -0.20156675726E+02 -0.23328797332E+03  0.23425263112E+03  0.00000000000E+00 0.  1.
          3    1    3    3  501    0  0.65786395003E+01 -0.11889385016E+02 -0.12902765387E+03  0.12974117094E+03  0.00000000000E+00 0.  1.
         21    1    1    2  502  501 -0.13266323157E+02  0.32046060742E+02 -0.63637305712E+03  0.63731751362E+03  0.00000000000E+00 0.  1.
<mgrwt>
<rscale>  1 0.30000000E+03</rscale>
<asrwt>0</asrwt>
<pdfrwt beam="1">  1        1 0.47684307E-02 0.30000000E+03</pdfrwt>
<pdfrwt beam="2">0</pdfrwt>
<totfact> 0.21263008E+03</totfact>
</mgrwt>
</event>
<event>
 6    1  0.1956957E-002  0.3000000E+03  0.7818608E-02  0.1093470E+00
          1   -1    0    0  502    0  0.00000000000E+00  0.00000000000E+00  0.18044989113E+01  0.18044989113E+01  0.00000000000E+00 0.  1.
         13   -1    0    0    0    0 -0.00000000000E+00 -0.00000000000E+00 -0.10000000000E+04  0.10000000000E+04  0.00000000000E+00 0.  1.
    9000005    2    1    2  501    0  0.28510421480E+02  0.29535849448E+02 -0.62474859619E+03  0.62610807716E+03  0.39122004848E+01 0.  0.
         13    1    3    3    0    0  0.15120927323E+02  0.15262633711E+02 -0.29744735824E+03  0.29822226837E+03  0.00000000000E+00 0.  1.
          3    1    3    3  501    0  0.13389494157E+02  0.14273215736E+02 -0.32730123795E+03  0.32788580878E+03  0.00000000000E+00 0.  1.
         21    1    1    2  502  501 -0.28510421480E+02 -0.29535849448E+02 -0.37344690490E+03  0.37569642175E+03  0.00000000000E+00 0.  1.
<mgrwt>
<rscale>  1 0.30000000E+03</rscale>
<asrwt>0</asrwt>
<pdfrwt beam="1">  1        1 0.65618281E-02 0.30000000E+03</pdfrwt>
<pdfrwt beam="2">0</pdfrwt>
<totfact> 0.13582831E+03</totfact>
</mgrwt>
</event>
<event>
 6    1  0.1956957E-002  0.3000000E+03  0.7818608E-02  0.1093470E+00
          3   -1    0    0  502    0  0.00000000000E+00  0.00000000000E+00  0.11008340668E+01  0.11008340668E+01  0.00000000000E+00 0.  1.
         13   -1    0    0    0    0 -0.00000000000E+00 -0.00000000000E+00 -0.10000000000E+04  0.10000000000E+04  0.00000000000E+00 0.  1.
    9000005    2    1    2  501    0 -0.11569373043E+02 -0.30401059683E+02 -0.40667314018E+03  0.40798217781E+03  0.28878439860E+01 0.  0.
         13    1    3    3    0    0 -0.45158495566E+00 -0.56233039023E+00 -0.14740579857E+02  0.14758212594E+02  0.00000000000E+00 0.  1.
          3    1    3    3  501    0 -0.11117788088E+02 -0.29838729293E+02 -0.39193256032E+03  0.39322396522E+03  0.00000000000E+00 0.  1.
         21    1    1    2  502  501  0.11569373043E+02  0.30401059683E+02 -0.59222602575E+03  0.59311865626E+03  0.00000000000E+00 0.  1.
<mgrwt>
<rscale>  1 0.30000000E+03</rscale>
<asrwt>0</asrwt>
<pdfrwt beam="1">  1        3 0.40030414E-02 0.30000000E+03</pdfrwt>
<pdfrwt beam="2">0</pdfrwt>
<totfact> 0.13936377E+03</totfact>
</mgrwt>
</event>
<event>
 6    1  0.1956957E-002  0.3000000E+03  0.7818608E-02  0.1093470E+00
          1   -1    0    0  502    0  0.00000000000E+00  0.00000000000E+00  0.94258485079E+00  0.94258485079E+00  0.00000000000E+00 0.  1.
         13   -1    0    0    0    0 -0.00000000000E+00 -0.00000000000E+00 -0.10000000000E+04  0.10000000000E+04  0.00000000000E+00 0.  1.
    9000005    2    1    2  501    0  0.19698174749E+02 -0.22952234426E+02 -0.52470399895E+03  0.52562586242E+03  0.73101017035E+01 0.  0.
         13    1    3    3    0    0  0.95989822049E+01 -0.15352704286E+02 -0.34774687923E+03  0.34821794613E+03  0.00000000000E+00 0.  1.
          3    1    3    3  501    0  0.10099192544E+02 -0.75995301397E+01 -0.17695711971E+03  0.17740791630E+03  0.00000000000E+00 0.  1.
         21    1    1    2  502  501 -0.19698174749E+02  0.22952234426E+02 -0.47435341620E+03  0.47531672243E+03  0.00000000000E+00 0.  1.
<mgrwt>
<rscale>  1 0.30000000E+03</rscale>
<asrwt>0</asrwt>
<pdfrwt beam="1">  1        1 0.34275885E-02 0.30000000E+03</pdfrwt>
<pdfrwt beam="2">0</pdfrwt>
<totfact> 0.33839216E+03</totfact>
</mgrwt>
</event>
<event>
 6    1  0.1956957E-002  0.3000000E+03  0.7818608E-02  0.1093470E+00
          1   -1    0    0  502    0  0.00000000000E+00  0.00000000000E+00  0.96712427451E+01  0.96712427451E+01  0.00000000000E+00 0.  1.
         13   -1    0    0    0    0 -0.00000000000E+00 -0.00000000000E+00 -0.10000000000E+04  0.10000000000E+04  0.00000000000E+00 0.  1.
    9000005    2    1    2  501    0 -0.35096457822E+02  0.23818089011E+02 -0.95061113089E+03  0.95156313178E+03  0.34364048069E+01 0.  0.
         13    1    3    3    0    0 -0.19664571912E+02  0.12801198268E+02 -0.56230626644E+03  0.56279561418E+03  0.00000000000E+00 0.  1.
          3    1    3    3  501    0 -0.15431885910E+02  0.11016890743E+02 -0.38830486445E+03  0.38876751760E+03  0.00000000000E+00 0.  1.
         21    1    1    2  502  501  0.35096457822E+02 -0.23818089011E+02 -0.39717626369E+02  0.58108110967E+02  0.00000000000E+00 0.  1.
<mgrwt>
<rscale>  1 0.30000000E+03</rscale>
<asrwt>0</asrwt>
<pdfrwt beam="1">  1        1 0.35168230E-01 0.30000000E+03</pdfrwt>
<pdfrwt beam="2">0</pdfrwt>
<totfact> 0.13984291E+02</totfact>
</mgrwt>
</event>
<event>
 6    1  0.1956957E-002  0.3000000E+03  0.7818608E-02  0.1093470E+00
          1   -1    0    0  502    0  0.00000000000E+00  0.00000000000E+00  0.10424416146E+01  0.10424416146E+01  0.00000000000E+00 0.  1.
         13   -1    0    0    0    0 -0.00000000000E+00 -0.00000000000E+00 -0.10000000000E+04  0.10000000000E+04  0.00000000000E+00 0.  1.
    9000005    2    1    2  501    0  0.16051208715E+02 -0.26482561302E+02 -0.63640250960E+03  0.63716728342E+03  0.38762709166E+01 0.  0.
         13    1    3    3    0    0  0.12240613556E+02 -0.22839098412E+02 -0.53789850764E+03  0.53852229439E+03  0.00000000000E+00 0.  1.
          3    1    3    3  501    0  0.38105951590E+01 -0.36434628902E+01 -0.98504001958E+02  0.98644989022E+02  0.00000000000E+00 0.  1.
         21    1    1    2  502  501 -0.16051208715E+02  0.26482561302E+02 -0.36255504879E+03  0.36387515820E+03  0.00000000000E+00 0.  1.
<mgrwt>
<rscale>  1 0.30000000E+03</rscale>
<asrwt>0</asrwt>
<pdfrwt beam="1">  1        1 0.37907048E-02 0.30000000E+03</pdfrwt>
<pdfrwt beam="2">0</pdfrwt>
<totfact> 0.29369578E+03</totfact>
</mgrwt>
</event>
<event>
 6    1  0.1956957E-002  0.3000000E+03  0.7818608E-02  0.1093470E+00
          1   -1    0    0  502    0  0.00000000000E+00  0.00000000000E+00  0.48489797468E+01  0.48489797468E+01  0.00000000000E+00 0.  1.
         13   -1    0    0    0    0 -0.00000000000E+00 -0.00000000000E+00 -0.10000000000E+04  0.10000000000E+04  0.00000000000E+00 0.  1.
    9000005    2    1    2  501    0  0.37037179220E+02 -0.32644128511E+02 -0.85180363741E+03  0.85323808324E+03  0.28979681786E+01 0.  0.
         13    1    3    3    0    0  0.24694943589E+02 -0.21032926259E+02 -0.53736666602E+03  0.53834483185E+03  0.00000000000E+00 0.  1.
          1    1    3    3  501    0  0.12342235631E+02 -0.11611202252E+02 -0.31443697139E+03  0.31489325139E+03  0.00000000000E+00 0.  1.
         21    1    1    2  502  501 -0.37037179220E+02  0.32644128511E+02 -0.14334738284E+03  0.15161089650E+03  0.00000000000E+00 0.  1.
<mgrwt>
<rscale>  1 0.30000000E+03</rscale>
<asrwt>0</asrwt>
<pdfrwt beam="1">  1        1 0.17632691E-01 0.30000000E+03</pdfrwt>
<pdfrwt beam="2">0</pdfrwt>
<totfact> 0.34861994E+02</totfact>
</mgrwt>
</event>
<event>
 6    1  0.1956957E-002  0.3000000E+03  0.7818608E-02  0.1093470E+00
          1   -1    0    0  502    0  0.00000000000E+00  0.00000000000E+00  0.11866529976E+01  0.11866529976E+01  0.00000000000E+00 0.  1.
         13   -1    0    0    0    0 -0.00000000000E+00 -0.00000000000E+00 -0.10000000000E+04  0.10000000000E+04  0.00000000000E+00 0.  1.
    9000005    2    1    2  501    0 -0.26136525871E+02  0.14733107925E+02 -0.74203708266E+03  0.74266347728E+03  0.54613174737E+01 0.  0.
         13    1    3    3    0    0 -0.10901052493E+02  0.33798844692E+01 -0.25250053250E+03  0.25275833414E+03  0.00000000000E+00 0.  1.
          1    1    3    3  501    0 -0.15235473378E+02  0.11353223455E+02 -0.48953655015E+03  0.48990514313E+03  0.00000000000E+00 0.  1.
         21    1    1    2  502  501  0.26136525871E+02 -0.14733107925E+02 -0.25677626435E+03  0.25852317572E+03  0.00000000000E+00 0.  1.
<mgrwt>
<rscale>  1 0.30000000E+03</rscale>
<asrwt>0</asrwt>
<pdfrwt beam="1">  1        1 0.43151109E-02 0.30000000E+03</pdfrwt>
<pdfrwt beam="2">0</pdfrwt>
<totfact> 0.24472216E+03</totfact>
</mgrwt>
</event>
<event>
 6    1  0.1956957E-002  0.3000000E+03  0.7818608E-02  0.1093470E+00
          1   -1    0    0  502    0  0.00000000000E+00  0.00000000000E+00  0.90986302907E+01  0.90986302907E+01  0.00000000000E+00 0.  1.
         13   -1    0    0    0    0 -0.00000000000E+00 -0.00000000000E+00 -0.10000000000E+04  0.10000000000E+04  0.00000000000E+00 0.  1.
    9000005    2    1    2  501    0 -0.28531105047E+02 -0.18227786993E+02 -0.96711682691E+03  0.96772254239E+03  0.50681339013E+01 0.  0.
         13    1    3    3    0    0 -0.57374911476E+01 -0.54169155138E+01 -0.27093206182E+03  0.27104694040E+03  0.00000000000E+00 0.  1.
          3    1    3    3  501    0 -0.22793613899E+02 -0.12810871479E+02 -0.69618476509E+03  0.69667560199E+03  0.00000000000E+00 0.  1.
         21    1    1    2  502  501  0.28531105047E+02  0.18227786993E+02 -0.23784542798E+02  0.41376087901E+02  0.00000000000E+00 0.  1.
<mgrwt>
<rscale>  1 0.30000000E+03</rscale>
<asrwt>0</asrwt>
<pdfrwt beam="1">  1        1 0.33085998E-01 0.30000000E+03</pdfrwt>
<pdfrwt beam="2">0</pdfrwt>
<totfact> 0.15146832E+02</totfact>
</mgrwt>
</event>
<event>
 6    1  0.1956957E-002  0.3000000E+03  0.7818608E-02  0.1093470E+00
          1   -1    0    0  502    0  0.00000000000E+00  0.00000000000E+00  0.45192977197E+01  0.45192977197E+01  0.00000000000E+00 0.  1.
         13   -1    0    0    0    0 -0.00000000000E+00 -0.00000000000E+00 -0.10000000000E+04  0.10000000000E+04  0.00000000000E+00 0.  1.
    9000005    2    1    2  501    0  0.30349869291E+02  0.32306815424E+02 -0.87525475638E+03  0.87638217212E+03  0.31588222555E+01 0.  0.
         13    1    3    3    0    0  0.28416152616E+02  0.30342585916E+02 -0.83402022317E+03  0.83505561665E+03  0.00000000000E+00 0.  1.
          1    1    3    3  501    0  0.19337166757E+01  0.19642295080E+01 -0.41234533213E+02  0.41326555471E+02  0.00000000000E+00 0.  1.
         21    1    1    2  502  501 -0.30349869291E+02 -0.32306815424E+02 -0.12022594590E+03  0.12813712560E+03  0.00000000000E+00 0.  1.
<mgrwt>
<rscale>  1 0.30000000E+03</rscale>
<asrwt>0</asrwt>
<pdfrwt beam="1">  1        1 0.16433845E-01 0.30000000E+03</pdfrwt>
<pdfrwt beam="2">0</pdfrwt>
<totfact> 0.38334057E+02</totfact>
</mgrwt>
</event>
<event>
 6    1  0.1956957E-002  0.3000000E+03  0.7818608E-02  0.1093470E+00
          1   -1    0    0  502    0  0.00000000000E+00  0.00000000000E+00  0.39319902878E+01  0.39319902878E+01  0.00000000000E+00 0.  1.
         13   -1    0    0    0    0 -0.00000000000E+00 -0.00000000000E+00 -0.10000000000E+04  0.10000000000E+04  0.00000000000E+00 0.  1.
    9000005    2    1    2  501    0 -0.34138296626E+02 -0.13458641790E+02 -0.90491256043E+03  0.90566768207E+03  0.45442260400E+01 0.  0.
         13    1    3    3    0    0 -0.21886094707E+02 -0.92199788809E+01 -0.53198733856E+03  0.53251717112E+03  0.00000000000E+00 0.  1.
          1    1    3    3  501    0 -0.12252201919E+02 -0.42386629090E+01 -0.37292522187E+03  0.37315051095E+03  0.00000000000E+00 0.  1.
         21    1    1    2  502  501  0.34138296626E+02  0.13458641790E+02 -0.91155449286E+02  0.98264308219E+02  0.00000000000E+00 0.  1.
<mgrwt>
<rscale>  1 0.30000000E+03</rscale>
<asrwt>0</asrwt>
<pdfrwt beam="1">  1        1 0.14298177E-01 0.30000000E+03</pdfrwt>
<pdfrwt beam="2">0</pdfrwt>
<totfact> 0.46299189E+02</totfact>
</mgrwt>
</event>
<event>
 6    1  0.1956957E-002  0.3000000E+03  0.7818608E-02  0.1093470E+00
          1   -1    0    0  502    0  0.00000000000E+00  0.00000000000E+00  0.10448875189E+02  0.10448875189E+02  0.00000000000E+00 0.  1.
         13   -1    0    0    0    0 -0.00000000000E+00 -0.00000000000E+00 -0.10000000000E+04  0.10000000000E+04  0.00000000000E+00 0.  1.
    9000005    2    1    2  501    0  0.33390632622E+02 -0.43038289977E+01 -0.97180231335E+03  0.97239000501E+03  0.30213106391E+01 0.  0.
         13    1    3    3    0    0  0.19628146043E+02 -0.40263983985E+01 -0.57578733513E+03  0.57613586184E+03  0.00000000000E+00 0.  1.
          1    1    3    3  501    0  0.13762486580E+02 -0.27743059918E+00 -0.39601497822E+03  0.39625414317E+03  0.00000000000E+00 0.  1.
         21    1    1    2  502  501 -0.33390632622E+02  0.43038289977E+01 -0.17748811457E+02  0.38058870176E+02  0.00000000000E+00 0.  1.
<mgrwt>
<rscale>  1 0.30000000E+03</rscale>
<asrwt>0</asrwt>
<pdfrwt beam="1">  1        1 0.37995990E-01 0.30000000E+03</pdfrwt>
<pdfrwt beam="2">0</pdfrwt>
<totfact> 0.12641174E+02</totfact>
</mgrwt>
</event>
<event>
 6    1  0.1956957E-002  0.3000000E+03  0.7818608E-02  0.1093470E+00
          1   -1    0    0  502    0  0.00000000000E+00  0.00000000000E+00  0.29175309727E+01  0.29175309727E+01  0.00000000000E+00 0.  1.
         13   -1    0    0    0    0 -0.00000000000E+00 -0.00000000000E+00 -0.10000000000E+04  0.10000000000E+04  0.00000000000E+00 0.  1.
    9000005    2    1    2  501    0 -0.47314756830E+02  0.18165432400E+02 -0.66452232713E+03  0.66651759470E+03  0.93333615119E+01 0.  0.
         13    1    3    3    0    0 -0.37145501005E+02  0.17204212948E+02 -0.49628072056E+03  0.49796619041E+03  0.00000000000E+00 0.  1.
          1    1    3    3  501    0 -0.10169255825E+02  0.96121945154E+00 -0.16824160657E+03  0.16855140429E+03  0.00000000000E+00 0.  1.
         21    1    1    2  502  501  0.47314756830E+02 -0.18165432400E+02 -0.33256014190E+03  0.33639993628E+03  0.00000000000E+00 0.  1.
<mgrwt>
<rscale>  1 0.30000000E+03</rscale>
<asrwt>0</asrwt>
<pdfrwt beam="1">  1        1 0.10609226E-01 0.30000000E+03</pdfrwt>
<pdfrwt beam="2">0</pdfrwt>
<totfact> 0.69657804E+02</totfact>
</mgrwt>
</event>
<event>
 6    1  0.1956957E-002  0.3000000E+03  0.7818608E-02  0.1093470E+00
          1   -1    0    0  502    0  0.00000000000E+00  0.00000000000E+00  0.11570185931E+01  0.11570185931E+01  0.00000000000E+00 0.  1.
         13   -1    0    0    0    0 -0.00000000000E+00 -0.00000000000E+00 -0.10000000000E+04  0.10000000000E+04  0.00000000000E+00 0.  1.
    9000005    2    1    2  501    0 -0.32063305612E+02  0.11237795095E+02 -0.49377701499E+03  0.49494957689E+03  0.22359614006E+01 0.  0.
         13    1    3    3    0    0 -0.31044393731E+02  0.10440217192E+02 -0.47607498007E+03  0.47720031345E+03  0.00000000000E+00 0.  1.
          3    1    3    3  501    0 -0.10189118811E+01  0.79757790247E+00 -0.17702034923E+02  0.17749263431E+02  0.00000000000E+00 0.  1.
         21    1    1    2  502  501  0.32063305612E+02 -0.11237795095E+02 -0.50506596642E+03  0.50620744171E+03  0.00000000000E+00 0.  1.
<mgrwt>
<rscale>  1 0.30000000E+03</rscale>
<asrwt>0</asrwt>
<pdfrwt beam="1">  1        1 0.42073492E-02 0.30000000E+03</pdfrwt>
<pdfrwt beam="2">0</pdfrwt>
<totfact> 0.25359274E+03</totfact>
</mgrwt>
</event>
<event>
 6    1  0.1956957E-002  0.3000000E+03  0.7818608E-02  0.1093470E+00
          3   -1    0    0  502    0  0.00000000000E+00  0.00000000000E+00  0.12985165496E+01  0.12985165496E+01  0.00000000000E+00 0.  1.
         13   -1    0    0    0    0 -0.00000000000E+00 -0.00000000000E+00 -0.10000000000E+04  0.10000000000E+04  0.00000000000E+00 0.  1.
    9000005    2    1    2  501    0 -0.35933909421E+02  0.20624562181E+00 -0.51592567841E+03  0.51718720051E+03  0.34650175809E+01 0.  0.
         13    1    3    3    0    0 -0.35685534008E+02 -0.11889933299E+00 -0.51101491344E+03  0.51225941986E+03  0.00000000000E+00 0.  1.
          3    1    3    3  501    0 -0.24837541257E+00  0.32514495480E+00 -0.49107649725E+01  0.49277806569E+01  0.00000000000E+00 0.  1.
         21    1    1    2  502  501  0.35933909421E+02 -0.20624562181E+00 -0.48277580504E+03  0.48411131604E+03  0.00000000000E+00 0.  1.
<mgrwt>
<rscale>  1 0.30000000E+03</rscale>
<asrwt>0</asrwt>
<pdfrwt beam="1">  1        3 0.47218883E-02 0.30000000E+03</pdfrwt>
<pdfrwt beam="2">0</pdfrwt>
<totfact> 0.10807511E+03</totfact>
</mgrwt>
</event>
<event>
 6    1  0.1956957E-002  0.3000000E+03  0.7818608E-02  0.1093470E+00
          3   -1    0    0  502    0  0.00000000000E+00  0.00000000000E+00  0.16197674379E+01  0.16197674379E+01  0.00000000000E+00 0.  1.
         13   -1    0    0    0    0 -0.00000000000E+00 -0.00000000000E+00 -0.10000000000E+04  0.10000000000E+04  0.00000000000E+00 0.  1.
    9000005    2    1    2  501    0  0.24988475366E+02  0.19226657033E+02 -0.81012779661E+03  0.81074528542E+03  0.26043726381E+01 0.  0.
         13    1    3    3    0    0  0.17502580562E+02  0.12787717940E+02 -0.58348098320E+03  0.58388348480E+03  0.00000000000E+00 0.  1.
          1    1    3    3  501    0  0.74858948046E+01  0.64389390937E+01 -0.22664681340E+03  0.22686180063E+03  0.00000000000E+00 0.  1.
         21    1    1    2  502  501 -0.24988475366E+02 -0.19226657033E+02 -0.18825243595E+03  0.19087448202E+03  0.00000000000E+00 0.  1.
<mgrwt>
<rscale>  1 0.30000000E+03</rscale>
<asrwt>0</asrwt>
<pdfrwt beam="1">  1        3 0.58900758E-02 0.30000000E+03</pdfrwt>
<pdfrwt beam="2">0</pdfrwt>
<totfact> 0.76751833E+02</totfact>
</mgrwt>
</event>
<event>
 6    1  0.1956957E-002  0.3000000E+03  0.7818608E-02  0.1093470E+00
          1   -1    0    0  502    0  0.00000000000E+00  0.00000000000E+00  0.70505448507E+01  0.70505448507E+01  0.00000000000E+00 0.  1.
         13   -1    0    0    0    0 -0.00000000000E+00 -0.00000000000E+00 -0.10000000000E+04  0.10000000000E+04  0.00000000000E+00 0.  1.
    9000005    2    1    2  501    0  0.32107660546E+02  0.49676443644E+01 -0.96076229526E+03  0.96131661196E+03  0.31402344783E+01 0.  0.
         13    1    3    3    0    0  0.25078071179E+02  0.51730961564E+01 -0.75852948849E+03  0.75896156391E+03  0.00000000000E+00 0.  1.
          3    1    3    3  501    0  0.70295893669E+01 -0.20545179197E+00 -0.20223280677E+03  0.20235504805E+03  0.00000000000E+00 0.  1.
         21    1    1    2  502  501 -0.32107660546E+02 -0.49676443644E+01 -0.32187159889E+02  0.45733932894E+02  0.00000000000E+00 0.  1.
<mgrwt>
<rscale>  1 0.30000000E+03</rscale>
<asrwt>0</asrwt>
<pdfrwt beam="1">  1        1 0.25638399E-01 0.30000000E+03</pdfrwt>
<pdfrwt beam="2">0</pdfrwt>
<totfact> 0.21176157E+02</totfact>
</mgrwt>
</event>
<event>
 6    1  0.1956957E-002  0.3000000E+03  0.7818608E-02  0.1093470E+00
          1   -1    0    0  502    0  0.00000000000E+00  0.00000000000E+00  0.34336472692E+02  0.34336472692E+02  0.00000000000E+00 0.  1.
         13   -1    0    0    0    0 -0.00000000000E+00 -0.00000000000E+00 -0.10000000000E+04  0.10000000000E+04  0.00000000000E+00 0.  1.
    9000005    2    1    2  501    0  0.12906588316E+03  0.13288626974E+03 -0.47311776895E+03  0.50810640232E+03  0.38639238017E+01 0.  0.
         13    1    3    3    0    0  0.26417106334E+02  0.25213102463E+02 -0.91426316288E+02  0.98449658978E+02  0.00000000000E+00 0.  1.
          3    1    3    3  501    0  0.10264877683E+03  0.10767316727E+03 -0.38169145266E+03  0.40965674334E+03  0.00000000000E+00 0.  1.
         21    1    1    2  502  501 -0.12906588316E+03 -0.13288626974E+03 -0.49254575836E+03  0.52623007037E+03  0.00000000000E+00 0.  1.
<mgrwt>
<rscale>  1 0.30000000E+03</rscale>
<asrwt>0</asrwt>
<pdfrwt beam="1">  1        1 0.12486016E+00 0.30000000E+03</pdfrwt>
<pdfrwt beam="2">0</pdfrwt>
<totfact> 0.24417498E+01</totfact>
</mgrwt>
</event>
<event>
 6    1  0.1956957E-002  0.3000000E+03  0.7818608E-02  0.1093470E+00
          3   -1    0    0  502    0  0.00000000000E+00  0.00000000000E+00  0.18185086732E+01  0.18185086732E+01  0.00000000000E+00 0.  1.
         13   -1    0    0    0    0 -0.00000000000E+00 -0.00000000000E+00 -0.10000000000E+04  0.10000000000E+04  0.00000000000E+00 0.  1.
    9000005    2    1    2  501    0  0.25289761868E+02 -0.33443411121E+02 -0.51160260918E+03  0.51343644271E+03  0.11032550966E+02 0.  0.
         13    1    3    3    0    0  0.15170169817E+02 -0.24090849503E+02 -0.39449385466E+03  0.39551979021E+03  0.00000000000E+00 0.  1.
          3    1    3    3  501    0  0.10119592050E+02 -0.93525616174E+01 -0.11710875452E+03  0.11791665250E+03  0.00000000000E+00 0.  1.
         21    1    1    2  502  501 -0.25289761868E+02  0.33443411121E+02 -0.48657888215E+03  0.48838206596E+03  0.00000000000E+00 0.  1.
<mgrwt>
<rscale>  1 0.30000000E+03</rscale>
<asrwt>0</asrwt>
<pdfrwt beam="1">  1        3 0.66127728E-02 0.30000000E+03</pdfrwt>
<pdfrwt beam="2">0</pdfrwt>
<totfact> 0.64054351E+02</totfact>
</mgrwt>
</event>
<event>
 6    1  0.1956957E-002  0.3000000E+03  0.7818608E-02  0.1093470E+00
          1   -1    0    0  502    0  0.00000000000E+00  0.00000000000E+00  0.10231314196E+01  0.10231314196E+01  0.00000000000E+00 0.  1.
         13   -1    0    0    0    0 -0.00000000000E+00 -0.00000000000E+00 -0.10000000000E+04  0.10000000000E+04  0.00000000000E+00 0.  1.
    9000005    2    1    2  501    0  0.30509721833E+02  0.75811143164E+01 -0.41624798365E+03  0.41744685555E+03  0.33431869188E+01 0.  0.
         13    1    3    3    0    0  0.22445109662E+02  0.70400201651E+01 -0.30546109947E+03  0.30636551392E+03  0.00000000000E+00 0.  1.
          3    1    3    3  501    0  0.80646121718E+01  0.54109415139E+00 -0.11078688418E+03  0.11108134163E+03  0.00000000000E+00 0.  1.
         21    1    1    2  502  501 -0.30509721833E+02 -0.75811143164E+01 -0.58272888493E+03  0.58357627587E+03  0.00000000000E+00 0.  1.
<mgrwt>
<rscale>  1 0.30000000E+03</rscale>
<asrwt>0</asrwt>
<pdfrwt beam="1">  1        1 0.37204857E-02 0.30000000E+03</pdfrwt>
<pdfrwt beam="2">0</pdfrwt>
<totfact> 0.30152722E+03</totfact>
</mgrwt>
</event>
<event>
 6    1  0.1956957E-002  0.3000000E+03  0.7818608E-02  0.1093470E+00
          3   -1    0    0  502    0  0.00000000000E+00  0.00000000000E+00  0.11360569651E+01  0.11360569651E+01  0.00000000000E+00 0.  1.
         13   -1    0    0    0    0 -0.00000000000E+00 -0.00000000000E+00 -0.10000000000E+04  0.10000000000E+04  0.00000000000E+00 0.  1.
    9000005    2    1    2  501    0  0.13296102561E+01  0.31764391184E+02 -0.66344321042E+03  0.66421201170E+03  0.31557284027E+01 0.  0.
         13    1    3    3    0    0  0.17064884766E+01  0.30705441932E+02 -0.63035591661E+03  0.63110563131E+03  0.00000000000E+00 0.  1.
          1    1    3    3  501    0 -0.37687822050E+00  0.10589492525E+01 -0.33087293813E+02  0.33106380391E+02  0.00000000000E+00 0.  1.
         21    1    1    2  502  501 -0.13296102561E+01 -0.31764391184E+02 -0.33542073262E+03  0.33692404527E+03  0.00000000000E+00 0.  1.
<mgrwt>
<rscale>  1 0.30000000E+03</rscale>
<asrwt>0</asrwt>
<pdfrwt beam="1">  1        3 0.41311249E-02 0.30000000E+03</pdfrwt>
<pdfrwt beam="2">0</pdfrwt>
<totfact> 0.13278203E+03</totfact>
</mgrwt>
</event>
<event>
 6    1  0.1956957E-002  0.3000000E+03  0.7818608E-02  0.1093470E+00
          3   -1    0    0  502    0  0.00000000000E+00  0.00000000000E+00  0.11144814479E+01  0.11144814479E+01  0.00000000000E+00 0.  1.
         13   -1    0    0    0    0 -0.00000000000E+00 -0.00000000000E+00 -0.10000000000E+04  0.10000000000E+04  0.00000000000E+00 0.  1.
    9000005    2    1    2  501    0 -0.24328785131E+02 -0.21456550943E+02 -0.61489539831E+03  0.61575661426E+03  0.27538647430E+01 0.  0.
         13    1    3    3    0    0 -0.48141855512E+01 -0.33510649618E+01 -0.96351969444E+02  0.96530347739E+02  0.00000000000E+00 0.  1.
          1    1    3    3  501    0 -0.19514599580E+02 -0.18105485982E+02 -0.51854342887E+03  0.51922626652E+03  0.00000000000E+00 0.  1.
         21    1    1    2  502  501  0.24328785131E+02  0.21456550943E+02 -0.38399012024E+03  0.38535786719E+03  0.00000000000E+00 0.  1.
<mgrwt>
<rscale>  1 0.30000000E+03</rscale>
<asrwt>0</asrwt>
<pdfrwt beam="1">  1        3 0.40526684E-02 0.30000000E+03</pdfrwt>
<pdfrwt beam="2">0</pdfrwt>
<totfact> 0.13675105E+03</totfact>
</mgrwt>
</event>
<event>
 6    1  0.1956957E-002  0.3000000E+03  0.7818608E-02  0.1093470E+00
          1   -1    0    0  502    0  0.00000000000E+00  0.00000000000E+00  0.64653758186E+01  0.64653758186E+01  0.00000000000E+00 0.  1.
         13   -1    0    0    0    0 -0.00000000000E+00 -0.00000000000E+00 -0.10000000000E+04  0.10000000000E+04  0.00000000000E+00 0.  1.
    9000005    2    1    2  501    0 -0.46384387023E+02 -0.12648400259E+02 -0.90007060789E+03  0.90136059129E+03  0.35104076885E+01 0.  0.
         13    1    3    3    0    0 -0.37040977311E+02 -0.11093376525E+02 -0.70322283248E+03  0.70428506240E+03  0.00000000000E+00 0.  1.
          1    1    3    3  501    0 -0.93434097127E+01 -0.15550237340E+01 -0.19684777541E+03  0.19707552889E+03  0.00000000000E+00 0.  1.
         21    1    1    2  502  501  0.46384387023E+02  0.12648400259E+02 -0.93464016293E+02  0.10510478453E+03  0.00000000000E+00 0.  1.
<mgrwt>
<rscale>  1 0.30000000E+03</rscale>
<asrwt>0</asrwt>
<pdfrwt beam="1">  1        1 0.23510507E-01 0.30000000E+03</pdfrwt>
<pdfrwt beam="2">0</pdfrwt>
<totfact> 0.23745969E+02</totfact>
</mgrwt>
</event>
<event>
 6    1  0.1956957E-002  0.3000000E+03  0.7818608E-02  0.1093470E+00
          1   -1    0    0  502    0  0.00000000000E+00  0.00000000000E+00  0.43544382892E+01  0.43544382892E+01  0.00000000000E+00 0.  1.
         13   -1    0    0    0    0 -0.00000000000E+00 -0.00000000000E+00 -0.10000000000E+04  0.10000000000E+04  0.00000000000E+00 0.  1.
    9000005    2    1    2  501    0  0.42456919334E+02  0.50336440865E+02 -0.47997272572E+03  0.48449405217E+03  0.49317211712E+01 0.  0.
         13    1    3    3    0    0  0.29473666927E+02  0.38293327876E+02 -0.35358265191E+03  0.35686939870E+03  0.00000000000E+00 0.  1.
          3    1    3    3  501    0  0.12983252407E+02  0.12043112989E+02 -0.12639007381E+03  0.12762465346E+03  0.00000000000E+00 0.  1.
         21    1    1    2  502  501 -0.42456919334E+02 -0.50336440865E+02 -0.51567283599E+03  0.51986038612E+03  0.00000000000E+00 0.  1.
<mgrwt>
<rscale>  1 0.30000000E+03</rscale>
<asrwt>0</asrwt>
<pdfrwt beam="1">  1        1 0.15834354E-01 0.30000000E+03</pdfrwt>
<pdfrwt beam="2">0</pdfrwt>
<totfact> 0.40310262E+02</totfact>
</mgrwt>
</event>
<event>
 6    1  0.1956957E-002  0.3000000E+03  0.7818608E-02  0.1093470E+00
          3   -1    0    0  502    0  0.00000000000E+00  0.00000000000E+00  0.82535923864E+01  0.82535923864E+01  0.00000000000E+00 0.  1.
         13   -1    0    0    0    0 -0.00000000000E+00 -0.00000000000E+00 -0.10000000000E+04  0.10000000000E+04  0.00000000000E+00 0.  1.
    9000005    2    1    2  501    0 -0.24363374499E+02 -0.45432903174E+02 -0.91093526960E+03  0.91239868779E+03  0.32522877117E+01 0.  0.
         13    1    3    3    0    0 -0.19371035969E+02 -0.37005197870E+02 -0.75820989242E+03  0.75935950818E+03  0.00000000000E+00 0.  1.
          3    1    3    3  501    0 -0.49923385298E+01 -0.84277053032E+01 -0.15272537719E+03  0.15303917961E+03  0.00000000000E+00 0.  1.
         21    1    1    2  502  501  0.24363374499E+02  0.45432903174E+02 -0.80811138013E+02  0.95854904594E+02  0.00000000000E+00 0.  1.
<mgrwt>
<rscale>  1 0.30000000E+03</rscale>
<asrwt>0</asrwt>
<pdfrwt beam="1">  1        3 0.30013127E-01 0.30000000E+03</pdfrwt>
<pdfrwt beam="2">0</pdfrwt>
<totfact> 0.46725119E+01</totfact>
</mgrwt>
</event>
<event>
 6    1  0.1956957E-002  0.3000000E+03  0.7818608E-02  0.1093470E+00
          1   -1    0    0  502    0  0.00000000000E+00  0.00000000000E+00  0.21446963574E+01  0.21446963574E+01  0.00000000000E+00 0.  1.
         13   -1    0    0    0    0 -0.00000000000E+00 -0.00000000000E+00 -0.10000000000E+04  0.10000000000E+04  0.00000000000E+00 0.  1.
    9000005    2    1    2  501    0  0.14758792535E+02 -0.43401197507E+02 -0.43307965930E+03  0.43551164549E+03  0.33039595424E+01 0.  0.
         13    1    3    3    0    0  0.12890153093E+02 -0.33705019748E+02 -0.34085191487E+03  0.34275678298E+03  0.00000000000E+00 0.  1.
          1    1    3    3  501    0  0.18686394428E+01 -0.96961777592E+01 -0.92227744430E+02  0.92754862510E+02  0.00000000000E+00 0.  1.
         21    1    1    2  502  501 -0.14758792535E+02  0.43401197507E+02 -0.56477564434E+03  0.56663305087E+03  0.00000000000E+00 0.  1.
<mgrwt>
<rscale>  1 0.30000000E+03</rscale>
<asrwt>0</asrwt>
<pdfrwt beam="1">  1        1 0.77989123E-02 0.30000000E+03</pdfrwt>
<pdfrwt beam="2">0</pdfrwt>
<totfact> 0.10670174E+03</totfact>
</mgrwt>
</event>
<event>
 6    1  0.1956957E-002  0.3000000E+03  0.7818608E-02  0.1093470E+00
          1   -1    0    0  502    0  0.00000000000E+00  0.00000000000E+00  0.97932855144E+01  0.97932855144E+01  0.00000000000E+00 0.  1.
         13   -1    0    0    0    0 -0.00000000000E+00 -0.00000000000E+00 -0.10000000000E+04  0.10000000000E+04  0.00000000000E+00 0.  1.
    9000005    2    1    2  501    0  0.53599376313E+02  0.28645898237E+02 -0.89353735440E+03  0.89560727146E+03  0.31464824233E+01 0.  0.
         13    1    3    3    0    0  0.51372752119E+02  0.27487041310E+02 -0.86480891442E+03  0.86676937853E+03  0.00000000000E+00 0.  1.
          3    1    3    3  501    0  0.22266241943E+01  0.11588569265E+01 -0.28728439981E+02  0.28837892926E+02  0.00000000000E+00 0.  1.
         21    1    1    2  502  501 -0.53599376313E+02 -0.28645898237E+02 -0.96669360086E+02  0.11418601406E+03  0.00000000000E+00 0.  1.
<mgrwt>
<rscale>  1 0.30000000E+03</rscale>
<asrwt>0</asrwt>
<pdfrwt beam="1">  1        1 0.35612022E-01 0.30000000E+03</pdfrwt>
<pdfrwt beam="2">0</pdfrwt>
<totfact> 0.13757054E+02</totfact>
</mgrwt>
</event>
<event>
 6    1  0.1956957E-002  0.3000000E+03  0.7818608E-02  0.1093470E+00
          3   -1    0    0  502    0  0.00000000000E+00  0.00000000000E+00  0.20676685737E+01  0.20676685737E+01  0.00000000000E+00 0.  1.
         13   -1    0    0    0    0 -0.00000000000E+00 -0.00000000000E+00 -0.10000000000E+04  0.10000000000E+04  0.00000000000E+00 0.  1.
    9000005    2    1    2  501    0  0.10694082570E+02 -0.28376611268E+02 -0.87212539070E+03  0.87265753835E+03  0.29810518469E+01 0.  0.
         13    1    3    3    0    0  0.25643038757E+01 -0.77700973932E+01 -0.20037997176E+03  0.20054695996E+03  0.00000000000E+00 0.  1.
          1    1    3    3  501    0  0.81297786944E+01 -0.20606513875E+02 -0.67174541894E+03  0.67211057839E+03  0.00000000000E+00 0.  1.
         21    1    1    2  502  501 -0.10694082570E+02  0.28376611268E+02 -0.12580694073E+03  0.12941013022E+03  0.00000000000E+00 0.  1.
<mgrwt>
<rscale>  1 0.30000000E+03</rscale>
<asrwt>0</asrwt>
<pdfrwt beam="1">  1        3 0.75188107E-02 0.30000000E+03</pdfrwt>
<pdfrwt beam="2">0</pdfrwt>
<totfact> 0.52310385E+02</totfact>
</mgrwt>
</event>
<event>
 6    1  0.1956957E-002  0.3000000E+03  0.7818608E-02  0.1093470E+00
          1   -1    0    0  502    0  0.00000000000E+00  0.00000000000E+00  0.14329364869E+01  0.14329364869E+01  0.00000000000E+00 0.  1.
         13   -1    0    0    0    0 -0.00000000000E+00 -0.00000000000E+00 -0.10000000000E+04  0.10000000000E+04  0.00000000000E+00 0.  1.
    9000005    2    1    2  501    0  0.31088103482E+02  0.10694340674E+02 -0.74627937247E+03  0.74701218625E+03  0.36695404560E+01 0.  0.
         13    1    3    3    0    0  0.19770461901E+02  0.54346626093E+01 -0.43574778390E+03  0.43622991403E+03  0.00000000000E+00 0.  1.
          1    1    3    3  501    0  0.11317641581E+02  0.52596780647E+01 -0.31053158857E+03  0.31078227222E+03  0.00000000000E+00 0.  1.
         21    1    1    2  502  501 -0.31088103482E+02 -0.10694340674E+02 -0.25228769104E+03  0.25442075024E+03  0.00000000000E+00 0.  1.
<mgrwt>
<rscale>  1 0.30000000E+03</rscale>
<asrwt>0</asrwt>
<pdfrwt beam="1">  1        1 0.52106891E-02 0.30000000E+03</pdfrwt>
<pdfrwt beam="2">0</pdfrwt>
<totfact> 0.18770706E+03</totfact>
</mgrwt>
</event>
<event>
 6    1  0.1956957E-002  0.3000000E+03  0.7818608E-02  0.1093470E+00
          1   -1    0    0  502    0  0.00000000000E+00  0.00000000000E+00  0.26542608969E+01  0.26542608969E+01  0.00000000000E+00 0.  1.
         13   -1    0    0    0    0 -0.00000000000E+00 -0.00000000000E+00 -0.10000000000E+04  0.10000000000E+04  0.00000000000E+00 0.  1.
    9000005    2    1    2  501    0  0.15767066429E+02  0.30773374141E+02 -0.86982405135E+03  0.87052787524E+03  0.54129770487E+01 0.  0.
         13    1    3    3    0    0  0.68169066132E+01  0.10220870832E+02 -0.25599147060E+03  0.25628610855E+03  0.00000000000E+00 0.  1.
          1    1    3    3  501    0  0.89501598156E+01  0.20552503308E+02 -0.61383258075E+03  0.61424176668E+03  0.00000000000E+00 0.  1.
         21    1    1    2  502  501 -0.15767066429E+02 -0.30773374141E+02 -0.12752168776E+03  0.13212638566E+03  0.00000000000E+00 0.  1.
<mgrwt>
<rscale>  1 0.30000000E+03</rscale>
<asrwt>0</asrwt>
<pdfrwt beam="1">  1        1 0.96518782E-02 0.30000000E+03</pdfrwt>
<pdfrwt beam="2">0</pdfrwt>
<totfact> 0.79365822E+02</totfact>
</mgrwt>
</event>
<event>
 6    1  0.1956957E-002  0.3000000E+03  0.7818608E-02  0.1093470E+00
          1   -1    0    0  502    0  0.00000000000E+00  0.00000000000E+00  0.62643358207E+01  0.62643358207E+01  0.00000000000E+00 0.  1.
         13   -1    0    0    0    0 -0.00000000000E+00 -0.00000000000E+00 -0.10000000000E+04  0.10000000000E+04  0.00000000000E+00 0.  1.
    9000005    2    1    2  501    0 -0.27371424856E+02  0.38670260500E+02 -0.89985782167E+03  0.90110905417E+03  0.29739420505E+01 0.  0.
         13    1    3    3    0    0 -0.23420388199E+02  0.34218595501E+02 -0.77215019665E+03  0.77326279689E+03  0.00000000000E+00 0.  1.
          3    1    3    3  501    0 -0.39510366570E+01  0.44516649996E+01 -0.12770762503E+03  0.12784625728E+03  0.00000000000E+00 0.  1.
         21    1    1    2  502  501  0.27371424856E+02 -0.38670260500E+02 -0.93877842504E+02  0.10515528165E+03  0.00000000000E+00 0.  1.
<mgrwt>
<rscale>  1 0.30000000E+03</rscale>
<asrwt>0</asrwt>
<pdfrwt beam="1">  1        1 0.22779451E-01 0.30000000E+03</pdfrwt>
<pdfrwt beam="2">0</pdfrwt>
<totfact> 0.24760331E+02</totfact>
</mgrwt>
</event>
<event>
 6    1  0.1956957E-002  0.3000000E+03  0.7818608E-02  0.1093470E+00
          3   -1    0    0  502    0  0.00000000000E+00  0.00000000000E+00  0.38359332154E+01  0.38359332154E+01  0.00000000000E+00 0.  1.
         13   -1    0    0    0    0 -0.00000000000E+00 -0.00000000000E+00 -0.10000000000E+04  0.10000000000E+04  0.00000000000E+00 0.  1.
    9000005    2    1    2  501    0  0.26039061619E+02  0.22238606970E+02 -0.91622526496E+03  0.91687157036E+03  0.34859734863E+01 0.  0.
         13    1    3    3    0    0  0.86900953869E+00  0.14921445805E+00 -0.16858327983E+02  0.16881370351E+02  0.00000000000E+00 0.  1.
          3    1    3    3  501    0  0.25170052080E+02  0.22089392512E+02 -0.89936693698E+03  0.89999020001E+03  0.00000000000E+00 0.  1.
         21    1    1    2  502  501 -0.26039061619E+02 -0.22238606970E+02 -0.79938801825E+02  0.86964362858E+02  0.00000000000E+00 0.  1.
<mgrwt>
<rscale>  1 0.30000000E+03</rscale>
<asrwt>0</asrwt>
<pdfrwt beam="1">  1        3 0.13948877E-01 0.30000000E+03</pdfrwt>
<pdfrwt beam="2">0</pdfrwt>
<totfact> 0.18864357E+02</totfact>
</mgrwt>
</event>
<event>
 6    1  0.1956957E-002  0.3000000E+03  0.7818608E-02  0.1093470E+00
          1   -1    0    0  502    0  0.00000000000E+00  0.00000000000E+00  0.96280286507E+00  0.96280286507E+00  0.00000000000E+00 0.  1.
         13   -1    0    0    0    0 -0.00000000000E+00 -0.00000000000E+00 -0.10000000000E+04  0.10000000000E+04  0.00000000000E+00 0.  1.
    9000005    2    1    2  501    0  0.22273624597E+02 -0.20747822478E+02 -0.41389183159E+03  0.41502621473E+03  0.37046147506E+01 0.  0.
         13    1    3    3    0    0  0.51146148080E+01 -0.47128250912E+01 -0.11731343228E+03  0.11751940860E+03  0.00000000000E+00 0.  1.
          3    1    3    3  501    0  0.17159009789E+02 -0.16034997387E+02 -0.29657839931E+03  0.29750680613E+03  0.00000000000E+00 0.  1.
         21    1    1    2  502  501 -0.22273624597E+02  0.20747822478E+02 -0.58514536555E+03  0.58593658813E+03  0.00000000000E+00 0.  1.
<mgrwt>
<rscale>  1 0.30000000E+03</rscale>
<asrwt>0</asrwt>
<pdfrwt beam="1">  1        1 0.35011087E-02 0.30000000E+03</pdfrwt>
<pdfrwt beam="2">0</pdfrwt>
<totfact> 0.32844214E+03</totfact>
</mgrwt>
</event>
<event>
 6    1  0.1956957E-002  0.3000000E+03  0.7818608E-02  0.1093470E+00
          1   -1    0    0  502    0  0.00000000000E+00  0.00000000000E+00  0.98468798011E+00  0.98468798011E+00  0.00000000000E+00 0.  1.
         13   -1    0    0    0    0 -0.00000000000E+00 -0.00000000000E+00 -0.10000000000E+04  0.10000000000E+04  0.00000000000E+00 0.  1.
    9000005    2    1    2  501    0 -0.10459004780E+02  0.28463283616E+02 -0.38339899092E+03  0.38462196677E+03  0.44409218636E+01 0.  0.
         13    1    3    3    0    0 -0.49294951309E+01  0.79372351937E+01 -0.12702381849E+03  0.12736698979E+03  0.00000000000E+00 0.  1.
          1    1    3    3  501    0 -0.55295096490E+01  0.20526048422E+02 -0.25637517243E+03  0.25725497698E+03  0.00000000000E+00 0.  1.
         21    1    1    2  502  501  0.10459004780E+02 -0.28463283616E+02 -0.61561632110E+03  0.61636272121E+03  0.00000000000E+00 0.  1.
<mgrwt>
<rscale>  1 0.30000000E+03</rscale>
<asrwt>0</asrwt>
<pdfrwt beam="1">  1        1 0.35806911E-02 0.30000000E+03</pdfrwt>
<pdfrwt beam="2">0</pdfrwt>
<totfact> 0.31822136E+03</totfact>
</mgrwt>
</event>
<event>
 6    1  0.1956957E-002  0.3000000E+03  0.7818608E-02  0.1093470E+00
          1   -1    0    0  502    0  0.00000000000E+00  0.00000000000E+00  0.14763542727E+01  0.14763542727E+01  0.00000000000E+00 0.  1.
         13   -1    0    0    0    0 -0.00000000000E+00 -0.00000000000E+00 -0.10000000000E+04  0.10000000000E+04  0.00000000000E+00 0.  1.
    9000005    2    1    2  501    0  0.23101085714E+02 -0.28556348470E+02 -0.64400271509E+03  0.64505775843E+03  0.32999203587E+01 0.  0.
         13    1    3    3    0    0  0.15120960143E+02 -0.18425583900E+02 -0.38973489730E+03  0.39046310421E+03  0.00000000000E+00 0.  1.
          3    1    3    3  501    0  0.79801255717E+01 -0.10130764571E+02 -0.25426781779E+03  0.25459465422E+03  0.00000000000E+00 0.  1.
         21    1    1    2  502  501 -0.23101085714E+02  0.28556348470E+02 -0.35452093064E+03  0.35641859584E+03  0.00000000000E+00 0.  1.
<mgrwt>
<rscale>  1 0.30000000E+03</rscale>
<asrwt>0</asrwt>
<pdfrwt beam="1">  1        1 0.53685723E-02 0.30000000E+03</pdfrwt>
<pdfrwt beam="2">0</pdfrwt>
<totfact> 0.17999908E+03</totfact>
</mgrwt>
</event>
<event>
 6    1  0.1956957E-002  0.3000000E+03  0.7818608E-02  0.1093470E+00
          1   -1    0    0  502    0  0.00000000000E+00  0.00000000000E+00  0.17312835592E+02  0.17312835592E+02  0.00000000000E+00 0.  1.
         13   -1    0    0    0    0 -0.00000000000E+00 -0.00000000000E+00 -0.10000000000E+04  0.10000000000E+04  0.00000000000E+00 0.  1.
    9000005    2    1    2  501    0  0.18478518424E+02  0.29535115087E+02 -0.98183757069E+03  0.98246315158E+03  0.38794749554E+01 0.  0.
         13    1    3    3    0    0  0.56654854111E+01  0.12588502964E+02 -0.39463041686E+03  0.39487179444E+03  0.00000000000E+00 0.  1.
          3    1    3    3  501    0  0.12813033013E+02  0.16946612122E+02 -0.58720715383E+03  0.58759135714E+03  0.00000000000E+00 0.  1.
         21    1    1    2  502  501 -0.18478518424E+02 -0.29535115087E+02 -0.84959371778E+00  0.34849684013E+02  0.00000000000E+00 0.  1.
<mgrwt>
<rscale>  1 0.30000000E+03</rscale>
<asrwt>0</asrwt>
<pdfrwt beam="1">  1        1 0.62955899E-01 0.30000000E+03</pdfrwt>
<pdfrwt beam="2">0</pdfrwt>
<totfact> 0.65038661E+01</totfact>
</mgrwt>
</event>
<event>
 6    1  0.1956957E-002  0.3000000E+03  0.7818608E-02  0.1093470E+00
          3   -1    0    0  502    0  0.00000000000E+00  0.00000000000E+00  0.99603315170E+00  0.99603315170E+00  0.00000000000E+00 0.  1.
         13   -1    0    0    0    0 -0.00000000000E+00 -0.00000000000E+00 -0.10000000000E+04  0.10000000000E+04  0.00000000000E+00 0.  1.
    9000005    2    1    2  501    0 -0.24121061593E+02  0.18243035424E+02 -0.63835467568E+03  0.63908092547E+03  0.36198581463E+01 0.  0.
         13    1    3    3    0    0 -0.15965447385E+02  0.14051912707E+02 -0.45669389696E+03  0.45718887485E+03  0.00000000000E+00 0.  1.
          3    1    3    3  501    0 -0.81556142078E+01  0.41911227163E+01 -0.18166077872E+03  0.18189205062E+03  0.00000000000E+00 0.  1.
         21    1    1    2  502  501  0.24121061593E+02 -0.18243035424E+02 -0.36064929117E+03  0.36191510769E+03  0.00000000000E+00 0.  1.
<mgrwt>
<rscale>  1 0.30000000E+03</rscale>
<asrwt>0</asrwt>
<pdfrwt beam="1">  1        3 0.36219464E-02 0.30000000E+03</pdfrwt>
<pdfrwt beam="2">0</pdfrwt>
<totfact> 0.16255018E+03</totfact>
</mgrwt>
</event>
<event>
 6    1  0.1956957E-002  0.3000000E+03  0.7818608E-02  0.1093470E+00
          1   -1    0    0  502    0  0.00000000000E+00  0.00000000000E+00  0.12933562238E+01  0.12933562238E+01  0.00000000000E+00 0.  1.
         13   -1    0    0    0    0 -0.00000000000E+00 -0.00000000000E+00 -0.10000000000E+04  0.10000000000E+04  0.00000000000E+00 0.  1.
    9000005    2    1    2  501    0  0.34047388556E+02  0.93333002155E+01 -0.41188398337E+03  0.41340971984E+03  0.35840677771E+01 0.  0.
         13    1    3    3    0    0  0.29174803333E+02  0.68372979904E+01 -0.34036742304E+03  0.34168391894E+03  0.00000000000E+00 0.  1.
          3    1    3    3  501    0  0.48725852234E+01  0.24960022250E+01 -0.71516560328E+02  0.71725800902E+02  0.00000000000E+00 0.  1.
         21    1    1    2  502  501 -0.34047388556E+02 -0.93333002155E+01 -0.58682266041E+03  0.58788363639E+03  0.00000000000E+00 0.  1.
<mgrwt>
<rscale>  1 0.30000000E+03</rscale>
<asrwt>0</asrwt>
<pdfrwt beam="1">  1        1 0.47031235E-02 0.30000000E+03</pdfrwt>
<pdfrwt beam="2">0</pdfrwt>
<totfact> 0.21679447E+03</totfact>
</mgrwt>
</event>
<event>
 6    1  0.1956957E-002  0.3000000E+03  0.7818608E-02  0.1093470E+00
          1   -1    0    0  502    0  0.00000000000E+00  0.00000000000E+00  0.78188006175E+01  0.78188006175E+01  0.00000000000E+00 0.  1.
         13   -1    0    0    0    0 -0.00000000000E+00 -0.00000000000E+00 -0.10000000000E+04  0.10000000000E+04  0.00000000000E+00 0.  1.
    9000005    2    1    2  501    0 -0.41629921010E+02  0.41914854792E+02 -0.87097228232E+03  0.87297998220E+03  0.33804415567E+01 0.  0.
         13    1    3    3    0    0 -0.15725150913E+02  0.17057457044E+02 -0.36287603368E+03  0.36361690422E+03  0.00000000000E+00 0.  1.
          1    1    3    3  501    0 -0.25904770096E+02  0.24857397749E+02 -0.50809624863E+03  0.50936307798E+03  0.00000000000E+00 0.  1.
         21    1    1    2  502  501  0.41629921010E+02 -0.41914854792E+02 -0.12120891707E+03  0.13483881842E+03  0.00000000000E+00 0.  1.
<mgrwt>
<rscale>  1 0.30000000E+03</rscale>
<asrwt>0</asrwt>
<pdfrwt beam="1">  1        1 0.28432062E-01 0.30000000E+03</pdfrwt>
<pdfrwt beam="2">0</pdfrwt>
<totfact> 0.18478974E+02</totfact>
</mgrwt>
</event>
<event>
 6    1  0.1956957E-002  0.3000000E+03  0.7818608E-02  0.1093470E+00
          1   -1    0    0  502    0  0.00000000000E+00  0.00000000000E+00  0.21928556619E+02  0.21928556619E+02  0.00000000000E+00 0.  1.
         13   -1    0    0    0    0 -0.00000000000E+00 -0.00000000000E+00 -0.10000000000E+04  0.10000000000E+04  0.00000000000E+00 0.  1.
    9000005    2    1    2  501    0 -0.93761376004E+02  0.43682722535E+02 -0.85466013555E+03  0.86090145710E+03  0.28276607758E+01 0.  0.
         13    1    3    3    0    0 -0.20999323804E+02  0.10893999814E+02 -0.19022363363E+03  0.19168902322E+03  0.00000000000E+00 0.  1.
          3    1    3    3  501    0 -0.72762052200E+02  0.32788722720E+02 -0.66443650192E+03  0.66921243388E+03  0.00000000000E+00 0.  1.
         21    1    1    2  502  501  0.93761376004E+02 -0.43682722535E+02 -0.12341130783E+03  0.16102709951E+03  0.00000000000E+00 0.  1.
<mgrwt>
<rscale>  1 0.30000000E+03</rscale>
<asrwt>0</asrwt>
<pdfrwt beam="1">  1        1 0.79740374E-01 0.30000000E+03</pdfrwt>
<pdfrwt beam="2">0</pdfrwt>
<totfact> 0.47177296E+01</totfact>
</mgrwt>
</event>
<event>
 6    1  0.1956957E-002  0.3000000E+03  0.7818608E-02  0.1093470E+00
          1   -1    0    0  502    0  0.00000000000E+00  0.00000000000E+00  0.29951188962E+01  0.29951188962E+01  0.00000000000E+00 0.  1.
         13   -1    0    0    0    0 -0.00000000000E+00 -0.00000000000E+00 -0.10000000000E+04  0.10000000000E+04  0.00000000000E+00 0.  1.
    9000005    2    1    2  501    0 -0.16269345610E+02  0.34834377833E+02 -0.85508781233E+03  0.85596253783E+03  0.43097433710E+01 0.  0.
         13    1    3    3    0    0 -0.25740890033E+01  0.10009107568E+02 -0.22768401362E+03  0.22791844644E+03  0.00000000000E+00 0.  1.
          3    1    3    3  501    0 -0.13695256607E+02  0.24825270265E+02 -0.62740379871E+03  0.62804409139E+03  0.00000000000E+00 0.  1.
         21    1    1    2  502  501  0.16269345610E+02 -0.34834377833E+02 -0.14191706878E+03  0.14703258107E+03  0.00000000000E+00 0.  1.
<mgrwt>
<rscale>  1 0.30000000E+03</rscale>
<asrwt>0</asrwt>
<pdfrwt beam="1">  1        1 0.10891364E-01 0.30000000E+03</pdfrwt>
<pdfrwt beam="2">0</pdfrwt>
<totfact> 0.67187716E+02</totfact>
</mgrwt>
</event>
<event>
 6    1  0.1956957E-002  0.3000000E+03  0.7818608E-02  0.1093470E+00
          3   -1    0    0  502    0  0.00000000000E+00  0.00000000000E+00  0.43335896943E+01  0.43335896943E+01  0.00000000000E+00 0.  1.
         13   -1    0    0    0    0 -0.00000000000E+00 -0.00000000000E+00 -0.10000000000E+04  0.10000000000E+04  0.00000000000E+00 0.  1.
    9000005    2    1    2  501    0 -0.65454911405E+02 -0.35084514385E+01 -0.54090281215E+03  0.54487022351E+03  0.33246980059E+01 0.  0.
         13    1    3    3    0    0 -0.30087285026E+02 -0.32718707074E+01 -0.24976519129E+03  0.25159213151E+03  0.00000000000E+00 0.  1.
          3    1    3    3  501    0 -0.35367626379E+02 -0.23658073108E+00 -0.29113762086E+03  0.29327809200E+03  0.00000000000E+00 0.  1.
         21    1    1    2  502  501  0.65454911405E+02  0.35084514385E+01 -0.45476359816E+03  0.45946336618E+03  0.00000000000E+00 0.  1.
<mgrwt>
<rscale>  1 0.30000000E+03</rscale>
<asrwt>0</asrwt>
<pdfrwt beam="1">  1        3 0.15758541E-01 0.30000000E+03</pdfrwt>
<pdfrwt beam="2">0</pdfrwt>
<totfact> 0.15275530E+02</totfact>
</mgrwt>
</event>
<event>
 6    1  0.1956957E-002  0.3000000E+03  0.7818608E-02  0.1093470E+00
          3   -1    0    0  502    0  0.00000000000E+00  0.00000000000E+00  0.93475147933E+00  0.93475147933E+00  0.00000000000E+00 0.  1.
         13   -1    0    0    0    0 -0.00000000000E+00 -0.00000000000E+00 -0.10000000000E+04  0.10000000000E+04  0.00000000000E+00 0.  1.
    9000005    2    1    2  501    0  0.30283377080E+02 -0.33574755334E+00 -0.44697414160E+03  0.44801361244E+03  0.36218807516E+01 0.  0.
         13    1    3    3    0    0  0.25975643664E+02 -0.22761529254E+00 -0.39982869829E+03  0.40067165341E+03  0.00000000000E+00 0.  1.
          1    1    3    3  501    0  0.43077334158E+01 -0.10813226080E+00 -0.47145443308E+02  0.47341959027E+02  0.00000000000E+00 0.  1.
         21    1    1    2  502  501 -0.30283377080E+02  0.33574755334E+00 -0.55209110692E+03  0.55292113904E+03  0.00000000000E+00 0.  1.
<mgrwt>
<rscale>  1 0.30000000E+03</rscale>
<asrwt>0</asrwt>
<pdfrwt beam="1">  1        3 0.33991035E-02 0.30000000E+03</pdfrwt>
<pdfrwt beam="2">0</pdfrwt>
<totfact> 0.17929090E+03</totfact>
</mgrwt>
</event>
<event>
 6    1  0.1956957E-002  0.3000000E+03  0.7818608E-02  0.1093470E+00
          3   -1    0    0  502    0  0.00000000000E+00  0.00000000000E+00  0.15371738443E+02  0.15371738443E+02  0.00000000000E+00 0.  1.
         13   -1    0    0    0    0 -0.00000000000E+00 -0.00000000000E+00 -0.10000000000E+04  0.10000000000E+04  0.00000000000E+00 0.  1.
    9000005    2    1    2  501    0  0.34465180475E+02  0.11308157203E+02 -0.97777940041E+03  0.97845792012E+03  0.34091768172E+01 0.  0.
         13    1    3    3    0    0  0.12222320360E+02  0.24051318193E+01 -0.32021155862E+03  0.32045375961E+03  0.00000000000E+00 0.  1.
          1    1    3    3  501    0  0.22242860114E+02  0.89030253838E+01 -0.65756784179E+03  0.65800416050E+03  0.00000000000E+00 0.  1.
         21    1    1    2  502  501 -0.34465180475E+02 -0.11308157203E+02 -0.68488611471E+01  0.36913818327E+02  0.00000000000E+00 0.  1.
<mgrwt>
<rscale>  1 0.30000000E+03</rscale>
<asrwt>0</asrwt>
<pdfrwt beam="1">  1        3 0.55897349E-01 0.30000000E+03</pdfrwt>
<pdfrwt beam="2">0</pdfrwt>
<totfact> 0.14025326E+01</totfact>
</mgrwt>
</event>
<event>
 6    1  0.1956957E-002  0.3000000E+03  0.7818608E-02  0.1093470E+00
          1   -1    0    0  502    0  0.00000000000E+00  0.00000000000E+00  0.11565595647E+01  0.11565595647E+01  0.00000000000E+00 0.  1.
         13   -1    0    0    0    0 -0.00000000000E+00 -0.00000000000E+00 -0.10000000000E+04  0.10000000000E+04  0.00000000000E+00 0.  1.
    9000005    2    1    2  501    0  0.31587985721E+02  0.11770015998E+02 -0.44363831022E+03  0.44492902453E+03  0.32484537568E+01 0.  0.
         13    1    3    3    0    0  0.21805410062E+02  0.82584395292E+01 -0.32573337640E+03  0.32656685415E+03  0.00000000000E+00 0.  1.
          1    1    3    3  501    0  0.97825756594E+01  0.35115764692E+01 -0.11790493382E+03  0.11836217037E+03  0.00000000000E+00 0.  1.
         21    1    1    2  502  501 -0.31587985721E+02 -0.11770015998E+02 -0.55520513021E+03  0.55622753504E+03  0.00000000000E+00 0.  1.
<mgrwt>
<rscale>  1 0.30000000E+03</rscale>
<asrwt>0</asrwt>
<pdfrwt beam="1">  1        1 0.42056800E-02 0.30000000E+03</pdfrwt>
<pdfrwt beam="2">0</pdfrwt>
<totfact> 0.25373446E+03</totfact>
</mgrwt>
</event>
<event>
 6    1  0.1956957E-002  0.3000000E+03  0.7818608E-02  0.1093470E+00
          3   -1    0    0  502    0  0.00000000000E+00  0.00000000000E+00  0.11370907270E+01  0.11370907270E+01  0.00000000000E+00 0.  1.
         13   -1    0    0    0    0 -0.00000000000E+00 -0.00000000000E+00 -0.10000000000E+04  0.10000000000E+04  0.00000000000E+00 0.  1.
    9000005    2    1    2  501    0  0.24420504013E+02 -0.22169263676E+02 -0.59530928711E+03  0.59623788940E+03  0.43169639386E+01 0.  0.
         13    1    3    3    0    0  0.99074420143E+01 -0.84795084134E+01 -0.27354960706E+03  0.27386026910E+03  0.00000000000E+00 0.  1.
          1    1    3    3  501    0  0.14513061999E+02 -0.13689755262E+02 -0.32175968005E+03  0.32237762030E+03  0.00000000000E+00 0.  1.
         21    1    1    2  502  501 -0.24420504013E+02  0.22169263676E+02 -0.40355362217E+03  0.40489920132E+03  0.00000000000E+00 0.  1.
<mgrwt>
<rscale>  1 0.30000000E+03</rscale>
<asrwt>0</asrwt>
<pdfrwt beam="1">  1        3 0.41348841E-02 0.30000000E+03</pdfrwt>
<pdfrwt beam="2">0</pdfrwt>
<totfact> 0.13259662E+03</totfact>
</mgrwt>
</event>
<event>
 6    1  0.1956957E-002  0.3000000E+03  0.7818608E-02  0.1093470E+00
          3   -1    0    0  502    0  0.00000000000E+00  0.00000000000E+00  0.16278023754E+01  0.16278023754E+01  0.00000000000E+00 0.  1.
         13   -1    0    0    0    0 -0.00000000000E+00 -0.00000000000E+00 -0.10000000000E+04  0.10000000000E+04  0.00000000000E+00 0.  1.
    9000005    2    1    2  501    0  0.25099962733E+02  0.29075223015E+02 -0.65121949253E+03  0.65235659346E+03  0.26307522675E+01 0.  0.
         13    1    3    3    0    0  0.53502559632E+01  0.50108282226E+01 -0.11296081909E+03  0.11319841115E+03  0.00000000000E+00 0.  1.
          3    1    3    3  501    0  0.19749706770E+02  0.24064394792E+02 -0.53825867344E+03  0.53915818230E+03  0.00000000000E+00 0.  1.
         21    1    1    2  502  501 -0.25099962733E+02 -0.29075223015E+02 -0.34715270510E+03  0.34927120892E+03  0.00000000000E+00 0.  1.
<mgrwt>
<rscale>  1 0.30000000E+03</rscale>
<asrwt>0</asrwt>
<pdfrwt beam="1">  1        3 0.59192938E-02 0.30000000E+03</pdfrwt>
<pdfrwt beam="2">0</pdfrwt>
<totfact> 0.76162053E+02</totfact>
</mgrwt>
</event>
<event>
 6    1  0.1956957E-002  0.3000000E+03  0.7818608E-02  0.1093470E+00
          1   -1    0    0  502    0  0.00000000000E+00  0.00000000000E+00  0.48759063496E+01  0.48759063496E+01  0.00000000000E+00 0.  1.
         13   -1    0    0    0    0 -0.00000000000E+00 -0.00000000000E+00 -0.10000000000E+04  0.10000000000E+04  0.00000000000E+00 0.  1.
    9000005    2    1    2  501    0  0.16773051635E+02 -0.49284835004E+02 -0.16326687968E+03  0.17139120064E+03  0.29222307863E+01 0.  0.
         13    1    3    3    0    0  0.14787251382E+02 -0.40490533809E+02 -0.13681673841E+03  0.14344673590E+03  0.00000000000E+00 0.  1.
          3    1    3    3  501    0  0.19858002522E+01 -0.87943011949E+01 -0.26450141268E+02  0.27944464733E+02  0.00000000000E+00 0.  1.
         21    1    1    2  502  501 -0.16773051635E+02  0.49284835004E+02 -0.83185721397E+03  0.83348470571E+03  0.00000000000E+00 0.  1.
<mgrwt>
<rscale>  1 0.30000000E+03</rscale>
<asrwt>0</asrwt>
<pdfrwt beam="1">  1        1 0.17730606E-01 0.30000000E+03</pdfrwt>
<pdfrwt beam="2">0</pdfrwt>
<totfact> 0.34603207E+02</totfact>
</mgrwt>
</event>
<event>
 6    1  0.1956957E-002  0.3000000E+03  0.7818608E-02  0.1093470E+00
          3   -1    0    0  502    0  0.00000000000E+00  0.00000000000E+00  0.11351331739E+01  0.11351331739E+01  0.00000000000E+00 0.  1.
         13   -1    0    0    0    0 -0.00000000000E+00 -0.00000000000E+00 -0.10000000000E+04  0.10000000000E+04  0.00000000000E+00 0.  1.
    9000005    2    1    2  501    0 -0.18187160383E+02  0.25978309469E+02 -0.66670403412E+03  0.66746394150E+03  0.28633428163E+01 0.  0.
         13    1    3    3    0    0 -0.10759578032E+02  0.14955155473E+02 -0.41606143479E+03  0.41646913777E+03  0.00000000000E+00 0.  1.
          1    1    3    3  501    0 -0.74275823511E+01  0.11023153995E+02 -0.25064259932E+03  0.25099480373E+03  0.00000000000E+00 0.  1.
         21    1    1    2  502  501  0.18187160383E+02 -0.25978309469E+02 -0.33216083271E+03  0.33367119167E+03  0.00000000000E+00 0.  1.
<mgrwt>
<rscale>  1 0.30000000E+03</rscale>
<asrwt>0</asrwt>
<pdfrwt beam="1">  1        3 0.41277657E-02 0.30000000E+03</pdfrwt>
<pdfrwt beam="2">0</pdfrwt>
<totfact> 0.13294807E+03</totfact>
</mgrwt>
</event>
<event>
 6    1  0.1956957E-002  0.3000000E+03  0.7818608E-02  0.1093470E+00
          3   -1    0    0  502    0  0.00000000000E+00  0.00000000000E+00  0.47932297628E+01  0.47932297628E+01  0.00000000000E+00 0.  1.
         13   -1    0    0    0    0 -0.00000000000E+00 -0.00000000000E+00 -0.10000000000E+04  0.10000000000E+04  0.00000000000E+00 0.  1.
    9000005    2    1    2  501    0 -0.12988841289E+01 -0.58828539966E+02 -0.76039632572E+03  0.76272210577E+03  0.89417142909E+01 0.  0.
         13    1    3    3    0    0 -0.37413009136E+01 -0.16861376916E+02 -0.25156375498E+03  0.25215595607E+03  0.00000000000E+00 0.  1.
          1    1    3    3  501    0  0.24424167846E+01 -0.41967163050E+02 -0.50883257074E+03  0.51056614970E+03  0.00000000000E+00 0.  1.
         21    1    1    2  502  501  0.12988841289E+01  0.58828539966E+02 -0.23481044452E+03  0.24207112399E+03  0.00000000000E+00 0.  1.
<mgrwt>
<rscale>  1 0.30000000E+03</rscale>
<asrwt>0</asrwt>
<pdfrwt beam="1">  1        3 0.17429963E-01 0.30000000E+03</pdfrwt>
<pdfrwt beam="2">0</pdfrwt>
<totfact> 0.12792857E+02</totfact>
</mgrwt>
</event>
<event>
 6    1  0.1956957E-002  0.3000000E+03  0.7818608E-02  0.1093470E+00
          1   -1    0    0  502    0  0.00000000000E+00  0.00000000000E+00  0.11052468657E+01  0.11052468657E+01  0.00000000000E+00 0.  1.
         13   -1    0    0    0    0 -0.00000000000E+00 -0.00000000000E+00 -0.10000000000E+04  0.10000000000E+04  0.00000000000E+00 0.  1.
    9000005    2    1    2  501    0 -0.31235570485E+02 -0.50285849862E+00 -0.66790953453E+03  0.66864904123E+03  0.35327458634E+01 0.  0.
         13    1    3    3    0    0 -0.10739181561E+01 -0.17618173490E+00 -0.13092213607E+02  0.13137366453E+02  0.00000000000E+00 0.  1.
          3    1    3    3  501    0 -0.30161652329E+02 -0.32667676372E+00 -0.65481732092E+03  0.65551167478E+03  0.00000000000E+00 0.  1.
         21    1    1    2  502  501  0.31235570485E+02  0.50285849862E+00 -0.33098521860E+03  0.33245620563E+03  0.00000000000E+00 0.  1.
<mgrwt>
<rscale>  1 0.30000000E+03</rscale>
<asrwt>0</asrwt>
<pdfrwt beam="1">  1        1 0.40190880E-02 0.30000000E+03</pdfrwt>
<pdfrwt beam="2">0</pdfrwt>
<totfact> 0.27047622E+03</totfact>
</mgrwt>
</event>
<event>
 6    1  0.1956957E-002  0.3000000E+03  0.7818608E-02  0.1093470E+00
          3   -1    0    0  502    0  0.00000000000E+00  0.00000000000E+00  0.18160638508E+01  0.18160638508E+01  0.00000000000E+00 0.  1.
         13   -1    0    0    0    0 -0.00000000000E+00 -0.00000000000E+00 -0.10000000000E+04  0.10000000000E+04  0.00000000000E+00 0.  1.
    9000005    2    1    2  501    0  0.24319066446E+01 -0.37195489102E+02 -0.74105666100E+03  0.74200102540E+03  0.33359111167E+01 0.  0.
         13    1    3    3    0    0 -0.57751473995E+00 -0.65434983161E+01 -0.14638603347E+03  0.14653334668E+03  0.00000000000E+00 0.  1.
          1    1    3    3  501    0  0.30094213846E+01 -0.30651990786E+02 -0.59467062753E+03  0.59546767872E+03  0.00000000000E+00 0.  1.
         21    1    1    2  502  501 -0.24319066446E+01  0.37195489102E+02 -0.25712727515E+03  0.25981503845E+03  0.00000000000E+00 0.  1.
<mgrwt>
<rscale>  1 0.30000000E+03</rscale>
<asrwt>0</asrwt>
<pdfrwt beam="1">  1        3 0.66038825E-02 0.30000000E+03</pdfrwt>
<pdfrwt beam="2">0</pdfrwt>
<totfact> 0.64189590E+02</totfact>
</mgrwt>
</event>
<event>
 6    1  0.1956957E-002  0.3000000E+03  0.7818608E-02  0.1093470E+00
          1   -1    0    0  502    0  0.00000000000E+00  0.00000000000E+00  0.10063302929E+01  0.10063302929E+01  0.00000000000E+00 0.  1.
         13   -1    0    0    0    0 -0.00000000000E+00 -0.00000000000E+00 -0.10000000000E+04  0.10000000000E+04  0.00000000000E+00 0.  1.
    9000005    2    1    2  501    0 -0.21583230068E+02  0.20857478734E+02 -0.62670075773E+03  0.62750548351E+03  0.10412581626E+02 0.  0.
         13    1    3    3    0    0 -0.76227272235E+01  0.23673229648E+01 -0.11234485663E+03  0.11262804713E+03  0.00000000000E+00 0.  1.
          1    1    3    3  501    0 -0.13960502844E+02  0.18490155769E+02 -0.51435590110E+03  0.51487743638E+03  0.00000000000E+00 0.  1.
         21    1    1    2  502  501  0.21583230068E+02 -0.20857478734E+02 -0.37229291198E+03  0.37350084678E+03  0.00000000000E+00 0.  1.
<mgrwt>
<rscale>  1 0.30000000E+03</rscale>
<asrwt>0</asrwt>
<pdfrwt beam="1">  1        1 0.36593906E-02 0.30000000E+03</pdfrwt>
<pdfrwt beam="2">0</pdfrwt>
<totfact> 0.30863525E+03</totfact>
</mgrwt>
</event>
<event>
 6    1  0.1956957E-002  0.3000000E+03  0.7818608E-02  0.1093470E+00
          1   -1    0    0  502    0  0.00000000000E+00  0.00000000000E+00  0.10640330398E+01  0.10640330398E+01  0.00000000000E+00 0.  1.
         13   -1    0    0    0    0 -0.00000000000E+00 -0.00000000000E+00 -0.10000000000E+04  0.10000000000E+04  0.00000000000E+00 0.  1.
    9000005    2    1    2  501    0 -0.30239760028E+02  0.11555546891E+02 -0.44841661090E+03  0.44959369372E+03  0.30097762381E+01 0.  0.
         13    1    3    3    0    0 -0.14753490437E+02  0.61661600156E+01 -0.20175456710E+03  0.20238723367E+03  0.00000000000E+00 0.  1.
          1    1    3    3  501    0 -0.15486269591E+02  0.53893868752E+01 -0.24666204380E+03  0.24720646004E+03  0.00000000000E+00 0.  1.
         21    1    1    2  502  501  0.30239760028E+02 -0.11555546891E+02 -0.55051935606E+03  0.55147033932E+03  0.00000000000E+00 0.  1.
<mgrwt>
<rscale>  1 0.30000000E+03</rscale>
<asrwt>0</asrwt>
<pdfrwt beam="1">  1        1 0.38692192E-02 0.30000000E+03</pdfrwt>
<pdfrwt beam="2">0</pdfrwt>
<totfact> 0.28534146E+03</totfact>
</mgrwt>
</event>
<event>
 6    1  0.1956957E-002  0.3000000E+03  0.7818608E-02  0.1093470E+00
          3   -1    0    0  502    0  0.00000000000E+00  0.00000000000E+00  0.11498152905E+01  0.11498152905E+01  0.00000000000E+00 0.  1.
         13   -1    0    0    0    0 -0.00000000000E+00 -0.00000000000E+00 -0.10000000000E+04  0.10000000000E+04  0.00000000000E+00 0.  1.
    9000005    2    1    2  501    0 -0.16487679978E+02  0.29189096058E+02 -0.48429548347E+03  0.48550421269E+03  0.69554514455E+01 0.  0.
         13    1    3    3    0    0 -0.81381437128E+01  0.77853871999E+01 -0.15780656449E+03  0.15820794364E+03  0.00000000000E+00 0.  1.
          1    1    3    3  501    0 -0.83495362650E+01  0.21403708858E+02 -0.32648891898E+03  0.32729626904E+03  0.00000000000E+00 0.  1.
         21    1    1    2  502  501  0.16487679978E+02 -0.29189096058E+02 -0.51455470124E+03  0.51564560261E+03  0.00000000000E+00 0.  1.
<mgrwt>
<rscale>  1 0.30000000E+03</rscale>
<asrwt>0</asrwt>
<pdfrwt beam="1">  1        3 0.41811553E-02 0.30000000E+03</pdfrwt>
<pdfrwt beam="2">0</pdfrwt>
<totfact> 0.13034881E+03</totfact>
</mgrwt>
</event>
<event>
 6    1  0.1956957E-002  0.3000000E+03  0.7818608E-02  0.1093470E+00
          1   -1    0    0  502    0  0.00000000000E+00  0.00000000000E+00  0.65859961979E+01  0.65859961979E+01  0.00000000000E+00 0.  1.
         13   -1    0    0    0    0 -0.00000000000E+00 -0.00000000000E+00 -0.10000000000E+04  0.10000000000E+04  0.00000000000E+00 0.  1.
    9000005    2    1    2  501    0  0.42190313611E+02  0.17797469550E+02 -0.91219407137E+03  0.91334732445E+03  0.29221143435E+01 0.  0.
         13    1    3    3    0    0  0.45273597148E+01  0.20409978745E+01 -0.11833279956E+03  0.11843696260E+03  0.00000000000E+00 0.  1.
          3    1    3    3  501    0  0.37662953896E+02  0.15756471675E+02 -0.79386127181E+03  0.79491036185E+03  0.00000000000E+00 0.  1.
         21    1    1    2  502  501 -0.42190313611E+02 -0.17797469550E+02 -0.81219932428E+02  0.93238671744E+02  0.00000000000E+00 0.  1.
<mgrwt>
<rscale>  1 0.30000000E+03</rscale>
<asrwt>0</asrwt>
<pdfrwt beam="1">  1        1 0.23949128E-01 0.30000000E+03</pdfrwt>
<pdfrwt beam="2">0</pdfrwt>
<totfact> 0.23172332E+02</totfact>
</mgrwt>
</event>
<event>
 6    1  0.1956957E-002  0.3000000E+03  0.7818608E-02  0.1093470E+00
          1   -1    0    0  502    0  0.00000000000E+00  0.00000000000E+00  0.20625916036E+01  0.20625916036E+01  0.00000000000E+00 0.  1.
         13   -1    0    0    0    0 -0.00000000000E+00 -0.00000000000E+00 -0.10000000000E+04  0.10000000000E+04  0.00000000000E+00 0.  1.
    9000005    2    1    2  501    0 -0.37287946084E+02  0.23797374848E+02 -0.61006337685E+03  0.61167436135E+03  0.33903666515E+01 0.  0.
         13    1    3    3    0    0 -0.25666612913E+02  0.15523795288E+02 -0.43238856432E+03  0.43342777230E+03  0.00000000000E+00 0.  1.
          1    1    3    3  501    0 -0.11621333171E+02  0.82735795596E+01 -0.17767481253E+03  0.17824658906E+03  0.00000000000E+00 0.  1.
         21    1    1    2  502  501  0.37287946084E+02 -0.23797374848E+02 -0.38787403154E+03  0.39038823025E+03  0.00000000000E+00 0.  1.
<mgrwt>
<rscale>  1 0.30000000E+03</rscale>
<asrwt>0</asrwt>
<pdfrwt beam="1">  1        1 0.75003489E-02 0.30000000E+03</pdfrwt>
<pdfrwt beam="2">0</pdfrwt>
<totfact> 0.11267188E+03</totfact>
</mgrwt>
</event>
<event>
 6    1  0.1956957E-002  0.3000000E+03  0.7818608E-02  0.1093470E+00
          1   -1    0    0  502    0  0.00000000000E+00  0.00000000000E+00  0.11289780225E+01  0.11289780225E+01  0.00000000000E+00 0.  1.
         13   -1    0    0    0    0 -0.00000000000E+00 -0.00000000000E+00 -0.10000000000E+04  0.10000000000E+04  0.00000000000E+00 0.  1.
    9000005    2    1    2  501    0 -0.15912320136E+02 -0.29432238502E+02 -0.47040230795E+03  0.47160217011E+03  0.32889100921E+01 0.  0.
         13    1    3    3    0    0 -0.13835244995E+02 -0.22918600413E+02 -0.36954279381E+03  0.37051120457E+03  0.00000000000E+00 0.  1.
          1    1    3    3  501    0 -0.20770751406E+01 -0.65136380886E+01 -0.10085951413E+03  0.10109096554E+03  0.00000000000E+00 0.  1.
         21    1    1    2  502  501  0.15912320136E+02  0.29432238502E+02 -0.52846871403E+03  0.52952680792E+03  0.00000000000E+00 0.  1.
<mgrwt>
<rscale>  1 0.30000000E+03</rscale>
<asrwt>0</asrwt>
<pdfrwt beam="1">  1        1 0.41053833E-02 0.30000000E+03</pdfrwt>
<pdfrwt beam="2">0</pdfrwt>
<totfact> 0.26250568E+03</totfact>
</mgrwt>
</event>
<event>
 6    1  0.1956957E-002  0.3000000E+03  0.7818608E-02  0.1093470E+00
          3   -1    0    0  502    0  0.00000000000E+00  0.00000000000E+00  0.22403426864E+01  0.22403426864E+01  0.00000000000E+00 0.  1.
         13   -1    0    0    0    0 -0.00000000000E+00 -0.00000000000E+00 -0.10000000000E+04  0.10000000000E+04  0.00000000000E+00 0.  1.
    9000005    2    1    2  501    0  0.36183387100E+02 -0.23284406893E+02 -0.70696614324E+03  0.70828070441E+03  0.30045715318E+01 0.  0.
         13    1    3    3    0    0  0.24517215630E+02 -0.17408533225E+02 -0.49529723189E+03  0.49620912809E+03  0.00000000000E+00 0.  1.
          1    1    3    3  501    0  0.11666171471E+02 -0.58758736672E+01 -0.21166891135E+03  0.21207157632E+03  0.00000000000E+00 0.  1.
         21    1    1    2  502  501 -0.36183387100E+02  0.23284406893E+02 -0.29079351408E+03  0.29395963828E+03  0.00000000000E+00 0.  1.
<mgrwt>
<rscale>  1 0.30000000E+03</rscale>
<asrwt>0</asrwt>
<pdfrwt beam="1">  1        3 0.81467179E-02 0.30000000E+03</pdfrwt>
<pdfrwt beam="2">0</pdfrwt>
<totfact> 0.46035079E+02</totfact>
</mgrwt>
</event>
<event>
 6    1  0.1956957E-002  0.3000000E+03  0.7818608E-02  0.1093470E+00
          1   -1    0    0  502    0  0.00000000000E+00  0.00000000000E+00  0.10632742198E+01  0.10632742198E+01  0.00000000000E+00 0.  1.
         13   -1    0    0    0    0 -0.00000000000E+00 -0.00000000000E+00 -0.10000000000E+04  0.10000000000E+04  0.00000000000E+00 0.  1.
    9000005    2    1    2  501    0  0.18991279343E+02 -0.25971005493E+02 -0.44773750485E+03  0.44892584298E+03  0.55115725936E+01 0.  0.
         13    1    3    3    0    0 -0.59055882543E-01 -0.89399282324E+00 -0.59234168189E+01  0.59907910642E+01  0.00000000000E+00 0.  1.
          1    1    3    3  501    0  0.19050335225E+02 -0.25077012669E+02 -0.44181408803E+03  0.44293505192E+03  0.00000000000E+00 0.  1.
         21    1    1    2  502  501 -0.18991279343E+02  0.25971005493E+02 -0.55119922093E+03  0.55213743124E+03  0.00000000000E+00 0.  1.
<mgrwt>
<rscale>  1 0.30000000E+03</rscale>
<asrwt>0</asrwt>
<pdfrwt beam="1">  1        1 0.38664599E-02 0.30000000E+03</pdfrwt>
<pdfrwt beam="2">0</pdfrwt>
<totfact> 0.28562817E+03</totfact>
</mgrwt>
</event>
<event>
 6    1  0.1956957E-002  0.3000000E+03  0.7818608E-02  0.1093470E+00
          1   -1    0    0  502    0  0.00000000000E+00  0.00000000000E+00  0.15972924952E+01  0.15972924952E+01  0.00000000000E+00 0.  1.
         13   -1    0    0    0    0 -0.00000000000E+00 -0.00000000000E+00 -0.10000000000E+04  0.10000000000E+04  0.00000000000E+00 0.  1.
    9000005    2    1    2  501    0  0.38972865398E+02 -0.83532650058E+01 -0.52092186556E+03  0.52245575214E+03  0.34295258923E+01 0.  0.
         13    1    3    3    0    0  0.63703469902E+01 -0.24009732549E+01 -0.78843570121E+02  0.79136935389E+02  0.00000000000E+00 0.  1.
          3    1    3    3  501    0  0.32602518408E+02 -0.59522917509E+01 -0.44207829544E+03  0.44331881675E+03  0.00000000000E+00 0.  1.
         21    1    1    2  502  501 -0.38972865398E+02  0.83532650058E+01 -0.47748084195E+03  0.47914154036E+03  0.00000000000E+00 0.  1.
<mgrwt>
<rscale>  1 0.30000000E+03</rscale>
<asrwt>0</asrwt>
<pdfrwt beam="1">  1        1 0.58083486E-02 0.30000000E+03</pdfrwt>
<pdfrwt beam="2">0</pdfrwt>
<totfact> 0.16116132E+03</totfact>
</mgrwt>
</event>
<event>
 6    1  0.1956957E-002  0.3000000E+03  0.7818608E-02  0.1093470E+00
          1   -1    0    0  502    0  0.00000000000E+00  0.00000000000E+00  0.39201853107E+01  0.39201853107E+01  0.00000000000E+00 0.  1.
         13   -1    0    0    0    0 -0.00000000000E+00 -0.00000000000E+00 -0.10000000000E+04  0.10000000000E+04  0.00000000000E+00 0.  1.
    9000005    2    1    2  501    0  0.34483610280E+02 -0.76781386187E+01 -0.91237499919E+03  0.91306552484E+03  0.35270841355E+01 0.  0.
         13    1    3    3    0    0  0.69469558499E+01 -0.29679001754E+01 -0.20440009917E+03  0.20453965183E+03  0.00000000000E+00 0.  1.
          1    1    3    3  501    0  0.27536654430E+02 -0.47102384434E+01 -0.70797490002E+03  0.70852587302E+03  0.00000000000E+00 0.  1.
         21    1    1    2  502  501 -0.34483610280E+02  0.76781386187E+01 -0.83704815499E+02  0.90854660466E+02  0.00000000000E+00 0.  1.
<mgrwt>
<rscale>  1 0.30000000E+03</rscale>
<asrwt>0</asrwt>
<pdfrwt beam="1">  1        1 0.14255249E-01 0.30000000E+03</pdfrwt>
<pdfrwt beam="2">0</pdfrwt>
<totfact> 0.46488954E+02</totfact>
</mgrwt>
</event>
<event>
 6    1  0.1956957E-002  0.3000000E+03  0.7818608E-02  0.1093470E+00
          3   -1    0    0  502    0  0.00000000000E+00  0.00000000000E+00  0.30033726240E+01  0.30033726240E+01  0.00000000000E+00 0.  1.
         13   -1    0    0    0    0 -0.00000000000E+00 -0.00000000000E+00 -0.10000000000E+04  0.10000000000E+04  0.00000000000E+00 0.  1.
    9000005    2    1    2  501    0 -0.18006035779E+02  0.34300764769E+02 -0.85300597339E+03  0.85389244672E+03  0.35156991530E+01 0.  0.
         13    1    3    3    0    0 -0.14896394542E+02  0.30689494154E+02 -0.75699302447E+03  0.75776129930E+03  0.00000000000E+00 0.  1.
          1    1    3    3  501    0 -0.31096412375E+01  0.36112706149E+01 -0.96012948921E+02  0.96131147422E+02  0.00000000000E+00 0.  1.
         21    1    1    2  502  501  0.18006035779E+02 -0.34300764769E+02 -0.14399065399E+03  0.14911092590E+03  0.00000000000E+00 0.  1.
<mgrwt>
<rscale>  1 0.30000000E+03</rscale>
<asrwt>0</asrwt>
<pdfrwt beam="1">  1        3 0.10921378E-01 0.30000000E+03</pdfrwt>
<pdfrwt beam="2">0</pdfrwt>
<totfact> 0.28532957E+02</totfact>
</mgrwt>
</event>
<event>
 6    1  0.1956957E-002  0.3000000E+03  0.7818608E-02  0.1093470E+00
          1   -1    0    0  502    0  0.00000000000E+00  0.00000000000E+00  0.10401238473E+01  0.10401238473E+01  0.00000000000E+00 0.  1.
         13   -1    0    0    0    0 -0.00000000000E+00 -0.00000000000E+00 -0.10000000000E+04  0.10000000000E+04  0.00000000000E+00 0.  1.
    9000005    2    1    2  501    0  0.30692235544E+02 -0.63794769068E+01 -0.60200678493E+03  0.60285113896E+03  0.58835027425E+01 0.  0.
         13    1    3    3    0    0  0.20553199978E+02 -0.69606556850E+01 -0.42387934718E+03  0.42443443042E+03  0.00000000000E+00 0.  1.
          1    1    3    3  501    0  0.10139035565E+02  0.58117877820E+00 -0.17812743775E+03  0.17841670855E+03  0.00000000000E+00 0.  1.
         21    1    1    2  502  501 -0.30692235544E+02  0.63794769068E+01 -0.39695309123E+03  0.39818898488E+03  0.00000000000E+00 0.  1.
<mgrwt>
<rscale>  1 0.30000000E+03</rscale>
<asrwt>0</asrwt>
<pdfrwt beam="1">  1        1 0.37822765E-02 0.30000000E+03</pdfrwt>
<pdfrwt beam="2">0</pdfrwt>
<totfact> 0.29461737E+03</totfact>
</mgrwt>
</event>
<event>
 6    1  0.1956957E-002  0.3000000E+03  0.7818608E-02  0.1093470E+00
          1   -1    0    0  502    0  0.00000000000E+00  0.00000000000E+00  0.49865564945E+01  0.49865564945E+01  0.00000000000E+00 0.  1.
         13   -1    0    0    0    0 -0.00000000000E+00 -0.00000000000E+00 -0.10000000000E+04  0.10000000000E+04  0.00000000000E+00 0.  1.
    9000005    2    1    2  501    0  0.22302734124E+02  0.32295444650E+02 -0.91493063353E+03  0.91580323884E+03  0.75564806381E+01 0.  0.
         13    1    3    3    0    0  0.18793922188E+02  0.28693642921E+02 -0.73157833813E+03  0.73238200516E+03  0.00000000000E+00 0.  1.
          1    1    3    3  501    0  0.35088119360E+01  0.36018017291E+01 -0.18335229540E+03  0.18342123368E+03  0.00000000000E+00 0.  1.
         21    1    1    2  502  501 -0.22302734124E+02 -0.32295444650E+02 -0.80082809971E+02  0.89183317652E+02  0.00000000000E+00 0.  1.
<mgrwt>
<rscale>  1 0.30000000E+03</rscale>
<asrwt>0</asrwt>
<pdfrwt beam="1">  1        1 0.18132971E-01 0.30000000E+03</pdfrwt>
<pdfrwt beam="2">0</pdfrwt>
<totfact> 0.33574832E+02</totfact>
</mgrwt>
</event>
<event>
 6    1  0.1956957E-002  0.3000000E+03  0.7818608E-02  0.1093470E+00
          1   -1    0    0  502    0  0.00000000000E+00  0.00000000000E+00  0.37221271687E+01  0.37221271687E+01  0.00000000000E+00 0.  1.
         13   -1    0    0    0    0 -0.00000000000E+00 -0.00000000000E+00 -0.10000000000E+04  0.10000000000E+04  0.00000000000E+00 0.  1.
    9000005    2    1    2  501    0 -0.13280073936E+02 -0.37245400759E+02 -0.88014070933E+03  0.88103789433E+03  0.40648224870E+01 0.  0.
         13    1    3    3    0    0 -0.99720491499E+01 -0.30075075909E+02 -0.66983188970E+03  0.67058087687E+03  0.00000000000E+00 0.  1.
          1    1    3    3  501    0 -0.33080247860E+01 -0.71703248500E+01 -0.21030881963E+03  0.21045701746E+03  0.00000000000E+00 0.  1.
         21    1    1    2  502  501  0.13280073936E+02  0.37245400759E+02 -0.11613716350E+03  0.12268423284E+03  0.00000000000E+00 0.  1.
<mgrwt>
<rscale>  1 0.30000000E+03</rscale>
<asrwt>0</asrwt>
<pdfrwt beam="1">  1        1 0.13535036E-01 0.30000000E+03</pdfrwt>
<pdfrwt beam="2">0</pdfrwt>
<totfact> 0.49890271E+02</totfact>
</mgrwt>
</event>
<event>
 6    1  0.1956957E-002  0.3000000E+03  0.7818608E-02  0.1093470E+00
          1   -1    0    0  502    0  0.00000000000E+00  0.00000000000E+00  0.99496523267E+00  0.99496523267E+00  0.00000000000E+00 0.  1.
         13   -1    0    0    0    0 -0.00000000000E+00 -0.00000000000E+00 -0.10000000000E+04  0.10000000000E+04  0.00000000000E+00 0.  1.
    9000005    2    1    2  501    0 -0.74281143637E+01 -0.30023658360E+02 -0.57271699910E+03  0.57358639455E+03  0.63240813120E+01 0.  0.
         13    1    3    3    0    0 -0.59872970617E+01 -0.14073118684E+02 -0.24317564421E+03  0.24365609849E+03  0.00000000000E+00 0.  1.
          3    1    3    3  501    0 -0.14408173020E+01 -0.15950539676E+02 -0.32954135489E+03  0.32993029605E+03  0.00000000000E+00 0.  1.
         21    1    1    2  502  501  0.74281143637E+01  0.30023658360E+02 -0.42628803566E+03  0.42740857069E+03  0.00000000000E+00 0.  1.
<mgrwt>
<rscale>  1 0.30000000E+03</rscale>
<asrwt>0</asrwt>
<pdfrwt beam="1">  1        1 0.36180630E-02 0.30000000E+03</pdfrwt>
<pdfrwt beam="2">0</pdfrwt>
<totfact> 0.31360695E+03</totfact>
</mgrwt>
</event>
<event>
 6    1  0.1956957E-002  0.3000000E+03  0.7818608E-02  0.1093470E+00
          1   -1    0    0  502    0  0.00000000000E+00  0.00000000000E+00  0.23476267064E+01  0.23476267064E+01  0.00000000000E+00 0.  1.
         13   -1    0    0    0    0 -0.00000000000E+00 -0.00000000000E+00 -0.10000000000E+04  0.10000000000E+04  0.00000000000E+00 0.  1.
    9000005    2    1    2  501    0 -0.34769141756E+02  0.16899644799E+01 -0.84719468960E+03  0.84791555821E+03  0.31941455372E+01 0.  0.
         13    1    3    3    0    0 -0.74735313876E+01 -0.69730910080E-01 -0.21369330792E+03  0.21382396588E+03  0.00000000000E+00 0.  1.
          1    1    3    3  501    0 -0.27295610368E+02  0.17596953900E+01 -0.63350138168E+03  0.63409159233E+03  0.00000000000E+00 0.  1.
         21    1    1    2  502  501  0.34769141756E+02 -0.16899644799E+01 -0.15045768369E+03  0.15443206850E+03  0.00000000000E+00 0.  1.
<mgrwt>
<rscale>  1 0.30000000E+03</rscale>
<asrwt>0</asrwt>
<pdfrwt beam="1">  1        1 0.85368424E-02 0.30000000E+03</pdfrwt>
<pdfrwt beam="2">0</pdfrwt>
<totfact> 0.94089766E+02</totfact>
</mgrwt>
</event>
<event>
 6    1  0.1956957E-002  0.3000000E+03  0.7818608E-02  0.1093470E+00
          3   -1    0    0  502    0  0.00000000000E+00  0.00000000000E+00  0.15955734668E+01  0.15955734668E+01  0.00000000000E+00 0.  1.
         13   -1    0    0    0    0 -0.00000000000E+00 -0.00000000000E+00 -0.10000000000E+04  0.10000000000E+04  0.00000000000E+00 0.  1.
    9000005    2    1    2  501    0 -0.30746385996E+01 -0.39747382891E+02 -0.50930235724E+03  0.51087147375E+03  0.33858173572E+01 0.  0.
         13    1    3    3    0    0  0.29442065525E+00 -0.14866759176E+02 -0.17962397137E+03  0.18023839298E+03  0.00000000000E+00 0.  1.
          1    1    3    3  501    0 -0.33690592548E+01 -0.24880623715E+02 -0.32967838587E+03  0.33063308078E+03  0.00000000000E+00 0.  1.
         21    1    1    2  502  501  0.30746385996E+01  0.39747382891E+02 -0.48910206930E+03  0.49072409971E+03  0.00000000000E+00 0.  1.
<mgrwt>
<rscale>  1 0.30000000E+03</rscale>
<asrwt>0</asrwt>
<pdfrwt beam="1">  1        3 0.58020976E-02 0.30000000E+03</pdfrwt>
<pdfrwt beam="2">0</pdfrwt>
<totfact> 0.78573217E+02</totfact>
</mgrwt>
</event>
<event>
 6    1  0.1956957E-002  0.3000000E+03  0.7818608E-02  0.1093470E+00
          3   -1    0    0  502    0  0.00000000000E+00  0.00000000000E+00  0.55741799487E+01  0.55741799487E+01  0.00000000000E+00 0.  1.
         13   -1    0    0    0    0 -0.00000000000E+00 -0.00000000000E+00 -0.10000000000E+04  0.10000000000E+04  0.00000000000E+00 0.  1.
    9000005    2    1    2  501    0 -0.71617748647E+02  0.14107016758E+01 -0.35664716552E+03  0.36378550431E+03  0.34059467479E+01 0.  0.
         13    1    3    3    0    0 -0.28731543343E+02  0.70666845410E+00 -0.15161153064E+03  0.15431155882E+03  0.00000000000E+00 0.  1.
          1    1    3    3  501    0 -0.42886205304E+02  0.70403322171E+00 -0.20503563488E+03  0.20947394548E+03  0.00000000000E+00 0.  1.
         21    1    1    2  502  501  0.71617748647E+02 -0.14107016758E+01 -0.63777865454E+03  0.64178867564E+03  0.00000000000E+00 0.  1.
<mgrwt>
<rscale>  1 0.30000000E+03</rscale>
<asrwt>0</asrwt>
<pdfrwt beam="1">  1        3 0.20269788E-01 0.30000000E+03</pdfrwt>
<pdfrwt beam="2">0</pdfrwt>
<totfact> 0.97543036E+01</totfact>
</mgrwt>
</event>
<event>
 6    1  0.1956957E-002  0.3000000E+03  0.7818608E-02  0.1093470E+00
          3   -1    0    0  502    0  0.00000000000E+00  0.00000000000E+00  0.10915715505E+01  0.10915715505E+01  0.00000000000E+00 0.  1.
         13   -1    0    0    0    0 -0.00000000000E+00 -0.00000000000E+00 -0.10000000000E+04  0.10000000000E+04  0.00000000000E+00 0.  1.
    9000005    2    1    2  501    0 -0.24729715058E+01 -0.31375197107E+02 -0.64654560116E+03  0.64732599856E+03  0.43835424106E+01 0.  0.
         13    1    3    3    0    0 -0.33030260332E+01 -0.22426941217E+02 -0.43649348861E+03  0.43708173523E+03  0.00000000000E+00 0.  1.
          3    1    3    3  501    0  0.83005452743E+00 -0.89482558898E+01 -0.21005211255E+03  0.21024426333E+03  0.00000000000E+00 0.  1.
         21    1    1    2  502  501  0.24729715058E+01  0.31375197107E+02 -0.35236282729E+03  0.35376557299E+03  0.00000000000E+00 0.  1.
<mgrwt>
<rscale>  1 0.30000000E+03</rscale>
<asrwt>0</asrwt>
<pdfrwt beam="1">  1        3 0.39693595E-02 0.30000000E+03</pdfrwt>
<pdfrwt beam="2">0</pdfrwt>
<totfact> 0.14118449E+03</totfact>
</mgrwt>
</event>
<event>
 6    1  0.1956957E-002  0.3000000E+03  0.7818608E-02  0.1093470E+00
          1   -1    0    0  502    0  0.00000000000E+00  0.00000000000E+00  0.23018569728E+01  0.23018569728E+01  0.00000000000E+00 0.  1.
         13   -1    0    0    0    0 -0.00000000000E+00 -0.00000000000E+00 -0.10000000000E+04  0.10000000000E+04  0.00000000000E+00 0.  1.
    9000005    2    1    2  501    0  0.10222430813E+02  0.30930083686E+02 -0.86637121113E+03  0.86699505297E+03  0.44920181470E+01 0.  0.
         13    1    3    3    0    0  0.33295945624E+01  0.52493683597E+01 -0.14203161052E+03  0.14216757878E+03  0.00000000000E+00 0.  1.
          1    1    3    3  501    0  0.68928362510E+01  0.25680715326E+02 -0.72433960061E+03  0.72482747419E+03  0.00000000000E+00 0.  1.
         21    1    1    2  502  501 -0.10222430813E+02 -0.30930083686E+02 -0.13132693189E+03  0.13530680400E+03  0.00000000000E+00 0.  1.
<mgrwt>
<rscale>  1 0.30000000E+03</rscale>
<asrwt>0</asrwt>
<pdfrwt beam="1">  1        1 0.83704066E-02 0.30000000E+03</pdfrwt>
<pdfrwt beam="2">0</pdfrwt>
<totfact> 0.96699512E+02</totfact>
</mgrwt>
</event>
<event>
 6    1  0.1956957E-002  0.3000000E+03  0.7818608E-02  0.1093470E+00
          1   -1    0    0  502    0  0.00000000000E+00  0.00000000000E+00  0.36080950472E+01  0.36080950472E+01  0.00000000000E+00 0.  1.
         13   -1    0    0    0    0 -0.00000000000E+00 -0.00000000000E+00 -0.10000000000E+04  0.10000000000E+04  0.00000000000E+00 0.  1.
    9000005    2    1    2  501    0  0.28412856332E+02 -0.23259857724E+02 -0.89524288393E+03  0.89600030797E+03  0.29015968438E+01 0.  0.
         13    1    3    3    0    0  0.16703060936E+02 -0.12478010102E+02 -0.48067775006E+03  0.48112970432E+03  0.00000000000E+00 0.  1.
          3    1    3    3  501    0  0.11709795397E+02 -0.10781847622E+02 -0.41456513388E+03  0.41487060365E+03  0.00000000000E+00 0.  1.
         21    1    1    2  502  501 -0.28412856332E+02  0.23259857724E+02 -0.10114902102E+03  0.10760778708E+03  0.00000000000E+00 0.  1.
<mgrwt>
<rscale>  1 0.30000000E+03</rscale>
<asrwt>0</asrwt>
<pdfrwt beam="1">  1        1 0.13120373E-01 0.30000000E+03</pdfrwt>
<pdfrwt beam="2">0</pdfrwt>
<totfact> 0.52054220E+02</totfact>
</mgrwt>
</event>
<event>
 6    1  0.1956957E-002  0.3000000E+03  0.7818608E-02  0.1093470E+00
          1   -1    0    0  502    0  0.00000000000E+00  0.00000000000E+00  0.30399853498E+01  0.30399853498E+01  0.00000000000E+00 0.  1.
         13   -1    0    0    0    0 -0.00000000000E+00 -0.00000000000E+00 -0.10000000000E+04  0.10000000000E+04  0.00000000000E+00 0.  1.
    9000005    2    1    2  501    0 -0.15576196502E+02  0.44738520170E+02 -0.75432831901E+03  0.75582693389E+03  0.43575272632E+01 0.  0.
         13    1    3    3    0    0 -0.14404289361E+02  0.36573535361E+02 -0.61590690378E+03  0.61715996400E+03  0.00000000000E+00 0.  1.
          1    1    3    3  501    0 -0.11719071408E+01  0.81649848082E+01 -0.13842141523E+03  0.13866696988E+03  0.00000000000E+00 0.  1.
         21    1    1    2  502  501  0.15576196502E+02 -0.44738520170E+02 -0.24263169564E+03  0.24721305146E+03  0.00000000000E+00 0.  1.
<mgrwt>
<rscale>  1 0.30000000E+03</rscale>
<asrwt>0</asrwt>
<pdfrwt beam="1">  1        1 0.11054515E-01 0.30000000E+03</pdfrwt>
<pdfrwt beam="2">0</pdfrwt>
<totfact> 0.65828576E+02</totfact>
</mgrwt>
</event>
<event>
 6    1  0.1956957E-002  0.3000000E+03  0.7818608E-02  0.1093470E+00
          3   -1    0    0  502    0  0.00000000000E+00  0.00000000000E+00  0.14563934673E+01  0.14563934673E+01  0.00000000000E+00 0.  1.
         13   -1    0    0    0    0 -0.00000000000E+00 -0.00000000000E+00 -0.10000000000E+04  0.10000000000E+04  0.00000000000E+00 0.  1.
    9000005    2    1    2  501    0  0.37230063631E+02 -0.18784636154E+01 -0.60337178824E+03  0.60453023883E+03  0.31126436771E+01 0.  0.
         13    1    3    3    0    0  0.64992648686E+01 -0.14053065808E+01 -0.11571544117E+03  0.11590633570E+03  0.00000000000E+00 0.  1.
          3    1    3    3  501    0  0.30730798762E+02 -0.47315703465E+00 -0.48765634707E+03  0.48862390313E+03  0.00000000000E+00 0.  1.
         21    1    1    2  502  501 -0.37230063631E+02  0.18784636154E+01 -0.39517181829E+03  0.39692615463E+03  0.00000000000E+00 0.  1.
<mgrwt>
<rscale>  1 0.30000000E+03</rscale>
<asrwt>0</asrwt>
<pdfrwt beam="1">  1        3 0.52959874E-02 0.30000000E+03</pdfrwt>
<pdfrwt beam="2">0</pdfrwt>
<totfact> 0.90527105E+02</totfact>
</mgrwt>
</event>
<event>
 6    1  0.1956957E-002  0.3000000E+03  0.7818608E-02  0.1093470E+00
          1   -1    0    0  502    0  0.00000000000E+00  0.00000000000E+00  0.41012334387E+01  0.41012334387E+01  0.00000000000E+00 0.  1.
         13   -1    0    0    0    0 -0.00000000000E+00 -0.00000000000E+00 -0.10000000000E+04  0.10000000000E+04  0.00000000000E+00 0.  1.
    9000005    2    1    2  501    0 -0.45284769534E+01 -0.45895133866E+02 -0.84616367734E+03  0.84742491947E+03  0.30257007952E+01 0.  0.
         13    1    3    3    0    0 -0.30659913972E+00 -0.82375066273E+01 -0.13296598351E+03  0.13322125690E+03  0.00000000000E+00 0.  1.
          3    1    3    3  501    0 -0.42218778136E+01 -0.37657627238E+02 -0.71319769383E+03  0.71420366257E+03  0.00000000000E+00 0.  1.
         21    1    1    2  502  501  0.45284769534E+01  0.45895133866E+02 -0.14973508922E+03  0.15667631397E+03  0.00000000000E+00 0.  1.
<mgrwt>
<rscale>  1 0.30000000E+03</rscale>
<asrwt>0</asrwt>
<pdfrwt beam="1">  1        1 0.14913608E-01 0.30000000E+03</pdfrwt>
<pdfrwt beam="2">0</pdfrwt>
<totfact> 0.43722021E+02</totfact>
</mgrwt>
</event>
<event>
 6    1  0.1956957E-002  0.3000000E+03  0.7818608E-02  0.1093470E+00
          1   -1    0    0  502    0  0.00000000000E+00  0.00000000000E+00  0.19990473914E+01  0.19990473914E+01  0.00000000000E+00 0.  1.
         13   -1    0    0    0    0 -0.00000000000E+00 -0.00000000000E+00 -0.10000000000E+04  0.10000000000E+04  0.00000000000E+00 0.  1.
    9000005    2    1    2  501    0 -0.50576640183E+01 -0.38079088450E+02 -0.75418839391E+03  0.75517894950E+03  0.44176148702E+01 0.  0.
         13    1    3    3    0    0 -0.41361541196E+01 -0.33187785237E+02 -0.68166888666E+03  0.68248883354E+03  0.00000000000E+00 0.  1.
          1    1    3    3  501    0 -0.92150989870E+00 -0.48913032133E+01 -0.72519507245E+02  0.72690115963E+02  0.00000000000E+00 0.  1.
         21    1    1    2  502  501  0.50576640183E+01  0.38079088450E+02 -0.24381255870E+03  0.24682009789E+03  0.00000000000E+00 0.  1.
<mgrwt>
<rscale>  1 0.30000000E+03</rscale>
<asrwt>0</asrwt>
<pdfrwt beam="1">  1        1 0.72692786E-02 0.30000000E+03</pdfrwt>
<pdfrwt beam="2">0</pdfrwt>
<totfact> 0.11770458E+03</totfact>
</mgrwt>
</event>
<event>
 6    1  0.1956957E-002  0.3000000E+03  0.7818608E-02  0.1093470E+00
          1   -1    0    0  502    0  0.00000000000E+00  0.00000000000E+00  0.57298201814E+01  0.57298201814E+01  0.00000000000E+00 0.  1.
         13   -1    0    0    0    0 -0.00000000000E+00 -0.00000000000E+00 -0.10000000000E+04  0.10000000000E+04  0.00000000000E+00 0.  1.
    9000005    2    1    2  501    0  0.29111260714E+02  0.31832281001E+02 -0.91010964395E+03  0.91115838998E+03  0.70205406696E+01 0.  0.
         13    1    3    3    0    0  0.26053373950E+02  0.25090401720E+02 -0.72719592529E+03  0.72809492534E+03  0.00000000000E+00 0.  1.
          1    1    3    3  501    0  0.30578867639E+01  0.67418792811E+01 -0.18291371867E+03  0.18306346464E+03  0.00000000000E+00 0.  1.
         21    1    1    2  502  501 -0.29111260714E+02 -0.31832281001E+02 -0.84160535864E+02  0.94571430205E+02  0.00000000000E+00 0.  1.
<mgrwt>
<rscale>  1 0.30000000E+03</rscale>
<asrwt>0</asrwt>
<pdfrwt beam="1">  1        1 0.20835754E-01 0.30000000E+03</pdfrwt>
<pdfrwt beam="2">0</pdfrwt>
<totfact> 0.27875505E+02</totfact>
</mgrwt>
</event>
<event>
 6    1  0.1956957E-002  0.3000000E+03  0.7818608E-02  0.1093470E+00
          1   -1    0    0  502    0  0.00000000000E+00  0.00000000000E+00  0.47277645477E+01  0.47277645477E+01  0.00000000000E+00 0.  1.
         13   -1    0    0    0    0 -0.00000000000E+00 -0.00000000000E+00 -0.10000000000E+04  0.10000000000E+04  0.00000000000E+00 0.  1.
    9000005    2    1    2  501    0 -0.29381444744E+02 -0.57318651728E+02 -0.67176704397E+03  0.67487278725E+03  0.57983167455E+01 0.  0.
         13    1    3    3    0    0 -0.66599711406E+01 -0.12015645805E+02 -0.12036244865E+03  0.12114392269E+03  0.00000000000E+00 0.  1.
          1    1    3    3  501    0 -0.22721473604E+02 -0.45303005923E+02 -0.55140459533E+03  0.55372886457E+03  0.00000000000E+00 0.  1.
         21    1    1    2  502  501  0.29381444744E+02  0.57318651728E+02 -0.32350519148E+03  0.32985497729E+03  0.00000000000E+00 0.  1.
<mgrwt>
<rscale>  1 0.30000000E+03</rscale>
<asrwt>0</asrwt>
<pdfrwt beam="1">  1        1 0.17191907E-01 0.30000000E+03</pdfrwt>
<pdfrwt beam="2">0</pdfrwt>
<totfact> 0.36070972E+02</totfact>
</mgrwt>
</event>
<event>
 6    1  0.1956957E-002  0.3000000E+03  0.7818608E-02  0.1093470E+00
          1   -1    0    0  502    0  0.00000000000E+00  0.00000000000E+00  0.11649546634E+01  0.11649546634E+01  0.00000000000E+00 0.  1.
         13   -1    0    0    0    0 -0.00000000000E+00 -0.00000000000E+00 -0.10000000000E+04  0.10000000000E+04  0.00000000000E+00 0.  1.
    9000005    2    1    2  501    0 -0.30512289365E+02 -0.14548137291E+02 -0.56055838600E+03  0.56158665877E+03  0.33500885245E+01 0.  0.
         13    1    3    3    0    0 -0.26073222642E+02 -0.12699597355E+02 -0.49798596035E+03  0.49882973991E+03  0.00000000000E+00 0.  1.
          3    1    3    3  501    0 -0.44390667235E+01 -0.18485399358E+01 -0.62572425656E+02  0.62756918868E+02  0.00000000000E+00 0.  1.
         21    1    1    2  502  501  0.30512289365E+02  0.14548137291E+02 -0.43827665933E+03  0.43957829589E+03  0.00000000000E+00 0.  1.
<mgrwt>
<rscale>  1 0.30000000E+03</rscale>
<asrwt>0</asrwt>
<pdfrwt beam="1">  1        1 0.42362077E-02 0.30000000E+03</pdfrwt>
<pdfrwt beam="2">0</pdfrwt>
<totfact> 0.25116381E+03</totfact>
</mgrwt>
</event>
<event>
 6    1  0.1956957E-002  0.3000000E+03  0.7818608E-02  0.1093470E+00
          1   -1    0    0  502    0  0.00000000000E+00  0.00000000000E+00  0.10220350504E+01  0.10220350504E+01  0.00000000000E+00 0.  1.
         13   -1    0    0    0    0 -0.00000000000E+00 -0.00000000000E+00 -0.10000000000E+04  0.10000000000E+04  0.00000000000E+00 0.  1.
    9000005    2    1    2  501    0  0.30580073563E+02  0.90262431889E+01 -0.50206061607E+03  0.50308281629E+03  0.32930031045E+01 0.  0.
         13    1    3    3    0    0  0.75641771755E-01  0.31885618738E+00 -0.44436210150E+01  0.44556883498E+01  0.00000000000E+00 0.  1.
          3    1    3    3  501    0  0.30504431791E+02  0.87073870015E+01 -0.49761699506E+03  0.49862712794E+03  0.00000000000E+00 0.  1.
         21    1    1    2  502  501 -0.30580073563E+02 -0.90262431889E+01 -0.49691734888E+03  0.49793921876E+03  0.00000000000E+00 0.  1.
<mgrwt>
<rscale>  1 0.30000000E+03</rscale>
<asrwt>0</asrwt>
<pdfrwt beam="1">  1        1 0.37164989E-02 0.30000000E+03</pdfrwt>
<pdfrwt beam="2">0</pdfrwt>
<totfact> 0.30198253E+03</totfact>
</mgrwt>
</event>
<event>
 6    1  0.1956957E-002  0.3000000E+03  0.7818608E-02  0.1093470E+00
          1   -1    0    0  502    0  0.00000000000E+00  0.00000000000E+00  0.12264540297E+01  0.12264540297E+01  0.00000000000E+00 0.  1.
         13   -1    0    0    0    0 -0.00000000000E+00 -0.00000000000E+00 -0.10000000000E+04  0.10000000000E+04  0.00000000000E+00 0.  1.
    9000005    2    1    2  501    0  0.22675500481E+02  0.21531341465E+02 -0.72345949631E+03  0.72414234599E+03  0.32737545178E+01 0.  0.
         13    1    3    3    0    0  0.17496151704E+02  0.17905833682E+02 -0.55526004704E+03  0.55582412150E+03  0.00000000000E+00 0.  1.
          3    1    3    3  501    0  0.51793487771E+01  0.36255077837E+01 -0.16819944927E+03  0.16831822449E+03  0.00000000000E+00 0.  1.
         21    1    1    2  502  501 -0.22675500481E+02 -0.21531341465E+02 -0.27531404966E+03  0.27708410804E+03  0.00000000000E+00 0.  1.
<mgrwt>
<rscale>  1 0.30000000E+03</rscale>
<asrwt>0</asrwt>
<pdfrwt beam="1">  1        1 0.44598422E-02 0.30000000E+03</pdfrwt>
<pdfrwt beam="2">0</pdfrwt>
<totfact> 0.23361723E+03</totfact>
</mgrwt>
</event>
<event>
 6    1  0.1956957E-002  0.3000000E+03  0.7818608E-02  0.1093470E+00
          3   -1    0    0  502    0  0.00000000000E+00  0.00000000000E+00  0.38934090479E+01  0.38934090479E+01  0.00000000000E+00 0.  1.
         13   -1    0    0    0    0 -0.00000000000E+00 -0.00000000000E+00 -0.10000000000E+04  0.10000000000E+04  0.00000000000E+00 0.  1.
    9000005    2    1    2  501    0  0.47265915511E+02  0.40457908852E+02 -0.53286424644E+03  0.53649167723E+03  0.28470062589E+01 0.  0.
         13    1    3    3    0    0  0.42815610961E+02  0.36312927296E+02 -0.47341962202E+03  0.47673676567E+03  0.00000000000E+00 0.  1.
          3    1    3    3  501    0  0.44503045505E+01  0.41449815552E+01 -0.59444624426E+02  0.59754911563E+02  0.00000000000E+00 0.  1.
         21    1    1    2  502  501 -0.47265915511E+02 -0.40457908852E+02 -0.46324234451E+03  0.46740173182E+03  0.00000000000E+00 0.  1.
<mgrwt>
<rscale>  1 0.30000000E+03</rscale>
<asrwt>0</asrwt>
<pdfrwt beam="1">  1        3 0.14157881E-01 0.30000000E+03</pdfrwt>
<pdfrwt beam="2">0</pdfrwt>
<totfact> 0.18388921E+02</totfact>
</mgrwt>
</event>
<event>
 6    1  0.1956957E-002  0.3000000E+03  0.7818608E-02  0.1093470E+00
          1   -1    0    0  502    0  0.00000000000E+00  0.00000000000E+00  0.25576447796E+01  0.25576447796E+01  0.00000000000E+00 0.  1.
         13   -1    0    0    0    0 -0.00000000000E+00 -0.00000000000E+00 -0.10000000000E+04  0.10000000000E+04  0.00000000000E+00 0.  1.
    9000005    2    1    2  501    0 -0.44823259866E+02 -0.55259988235E+01 -0.72097070610E+03  0.72242154562E+03  0.73803269450E+01 0.  0.
         13    1    3    3    0    0 -0.32788493576E+02 -0.29088086916E+01 -0.56976719627E+03  0.57071727188E+03  0.00000000000E+00 0.  1.
          1    1    3    3  501    0 -0.12034766289E+02 -0.26171901319E+01 -0.15120350983E+03  0.15170427374E+03  0.00000000000E+00 0.  1.
         21    1    1    2  502  501  0.44823259866E+02  0.55259988235E+01 -0.27647164912E+03  0.28013609916E+03  0.00000000000E+00 0.  1.
<mgrwt>
<rscale>  1 0.30000000E+03</rscale>
<asrwt>0</asrwt>
<pdfrwt beam="1">  1        1 0.93005461E-02 0.30000000E+03</pdfrwt>
<pdfrwt beam="2">0</pdfrwt>
<totfact> 0.83546129E+02</totfact>
</mgrwt>
</event>
<event>
 6    1  0.1956957E-002  0.3000000E+03  0.7818608E-02  0.1093470E+00
          3   -1    0    0  502    0  0.00000000000E+00  0.00000000000E+00  0.21481236544E+01  0.21481236544E+01  0.00000000000E+00 0.  1.
         13   -1    0    0    0    0 -0.00000000000E+00 -0.00000000000E+00 -0.10000000000E+04  0.10000000000E+04  0.00000000000E+00 0.  1.
    9000005    2    1    2  501    0 -0.97484954985E+01  0.44986272231E+02 -0.55293931862E+03  0.55486076426E+03  0.31272645399E+01 0.  0.
         13    1    3    3    0    0 -0.83365571783E+01  0.31890674492E+02 -0.39777677376E+03  0.39914016967E+03  0.00000000000E+00 0.  1.
          1    1    3    3  501    0 -0.14119383202E+01  0.13095597738E+02 -0.15516254487E+03  0.15572059459E+03  0.00000000000E+00 0.  1.
         21    1    1    2  502  501  0.97484954985E+01 -0.44986272231E+02 -0.44491255772E+03  0.44728735939E+03  0.00000000000E+00 0.  1.
<mgrwt>
<rscale>  1 0.30000000E+03</rscale>
<asrwt>0</asrwt>
<pdfrwt beam="1">  1        3 0.78113752E-02 0.30000000E+03</pdfrwt>
<pdfrwt beam="2">0</pdfrwt>
<totfact> 0.49228941E+02</totfact>
</mgrwt>
</event>
<event>
 6    1  0.1956957E-002  0.3000000E+03  0.7818608E-02  0.1093470E+00
          1   -1    0    0  502    0  0.00000000000E+00  0.00000000000E+00  0.11854090214E+01  0.11854090214E+01  0.00000000000E+00 0.  1.
         13   -1    0    0    0    0 -0.00000000000E+00 -0.00000000000E+00 -0.10000000000E+04  0.10000000000E+04  0.00000000000E+00 0.  1.
    9000005    2    1    2  501    0  0.18415076485E+02 -0.29009340064E+02 -0.51114034391E+03  0.51230216313E+03  0.28979870620E+01 0.  0.
         13    1    3    3    0    0  0.16457892989E+02 -0.27118078638E+02 -0.47689202856E+03  0.47794587490E+03  0.00000000000E+00 0.  1.
          1    1    3    3  501    0  0.19571834966E+01 -0.18912614259E+01 -0.34248315351E+02  0.34356288236E+02  0.00000000000E+00 0.  1.
         21    1    1    2  502  501 -0.18415076485E+02  0.29009340064E+02 -0.48767424707E+03  0.48888324589E+03  0.00000000000E+00 0.  1.
<mgrwt>
<rscale>  1 0.30000000E+03</rscale>
<asrwt>0</asrwt>
<pdfrwt beam="1">  1        1 0.43105873E-02 0.30000000E+03</pdfrwt>
<pdfrwt beam="2">0</pdfrwt>
<totfact> 0.24508379E+03</totfact>
</mgrwt>
</event>
<event>
 6    1  0.1956957E-002  0.3000000E+03  0.7818608E-02  0.1093470E+00
          1   -1    0    0  502    0  0.00000000000E+00  0.00000000000E+00  0.49910755309E+01  0.49910755309E+01  0.00000000000E+00 0.  1.
         13   -1    0    0    0    0 -0.00000000000E+00 -0.00000000000E+00 -0.10000000000E+04  0.10000000000E+04  0.00000000000E+00 0.  1.
    9000005    2    1    2  501    0  0.15101489754E+01 -0.43226355846E+02 -0.89474424971E+03  0.89579490621E+03  0.32315962750E+01 0.  0.
         13    1    3    3    0    0 -0.91848295031E+00 -0.99920735601E+01 -0.19693071892E+03  0.19718618917E+03  0.00000000000E+00 0.  1.
          1    1    3    3  501    0  0.24286319258E+01 -0.33234282286E+02 -0.69781353079E+03  0.69860871704E+03  0.00000000000E+00 0.  1.
         21    1    1    2  502  501 -0.15101489754E+01  0.43226355846E+02 -0.10026467476E+03  0.10919616932E+03  0.00000000000E+00 0.  1.
<mgrwt>
<rscale>  1 0.30000000E+03</rscale>
<asrwt>0</asrwt>
<pdfrwt beam="1">  1        1 0.18149404E-01 0.30000000E+03</pdfrwt>
<pdfrwt beam="2">0</pdfrwt>
<totfact> 0.33533992E+02</totfact>
</mgrwt>
</event>
<event>
 6    1  0.1956957E-002  0.3000000E+03  0.7818608E-02  0.1093470E+00
          3   -1    0    0  502    0  0.00000000000E+00  0.00000000000E+00  0.18177908730E+01  0.18177908730E+01  0.00000000000E+00 0.  1.
         13   -1    0    0    0    0 -0.00000000000E+00 -0.00000000000E+00 -0.10000000000E+04  0.10000000000E+04  0.00000000000E+00 0.  1.
    9000005    2    1    2  501    0  0.23846449046E+02  0.29510071121E+02 -0.72644961438E+03  0.72744924225E+03  0.37229526657E+01 0.  0.
         13    1    3    3    0    0  0.10726318780E+02  0.11971206938E+02 -0.33932893596E+03  0.33970942067E+03  0.00000000000E+00 0.  1.
          3    1    3    3  501    0  0.13120130265E+02  0.17538864183E+02 -0.38712067842E+03  0.38773982158E+03  0.00000000000E+00 0.  1.
         21    1    1    2  502  501 -0.23846449046E+02 -0.29510071121E+02 -0.27173259474E+03  0.27436854863E+03  0.00000000000E+00 0.  1.
<mgrwt>
<rscale>  1 0.30000000E+03</rscale>
<asrwt>0</asrwt>
<pdfrwt beam="1">  1        3 0.66101626E-02 0.30000000E+03</pdfrwt>
<pdfrwt beam="2">0</pdfrwt>
<totfact> 0.64094010E+02</totfact>
</mgrwt>
</event>
<event>
 6    1  0.1956957E-002  0.3000000E+03  0.7818608E-02  0.1093470E+00
          1   -1    0    0  502    0  0.00000000000E+00  0.00000000000E+00  0.14848253086E+01  0.14848253086E+01  0.00000000000E+00 0.  1.
         13   -1    0    0    0    0 -0.00000000000E+00 -0.00000000000E+00 -0.10000000000E+04  0.10000000000E+04  0.00000000000E+00 0.  1.
    9000005    2    1    2  501    0 -0.48945313897E+00  0.31794379453E+02 -0.21872496723E+03  0.22104655755E+03  0.31380225976E+01 0.  0.
         13    1    3    3    0    0  0.55521626568E+00  0.13144627318E+02 -0.81211597096E+02  0.82270365232E+02  0.00000000000E+00 0.  1.
          1    1    3    3  501    0 -0.10446694046E+01  0.18649752135E+02 -0.13751337014E+03  0.13877619232E+03  0.00000000000E+00 0.  1.
         21    1    1    2  502  501  0.48945313897E+00 -0.31794379453E+02 -0.77979020746E+03  0.78043826775E+03  0.00000000000E+00 0.  1.
<mgrwt>
<rscale>  1 0.30000000E+03</rscale>
<asrwt>0</asrwt>
<pdfrwt beam="1">  1        1 0.53993761E-02 0.30000000E+03</pdfrwt>
<pdfrwt beam="2">0</pdfrwt>
<totfact> 0.17855847E+03</totfact>
</mgrwt>
</event>
<event>
 6    1  0.1956957E-002  0.3000000E+03  0.7818608E-02  0.1093470E+00
          3   -1    0    0  502    0  0.00000000000E+00  0.00000000000E+00  0.13636995447E+01  0.13636995447E+01  0.00000000000E+00 0.  1.
         13   -1    0    0    0    0 -0.00000000000E+00 -0.00000000000E+00 -0.10000000000E+04  0.10000000000E+04  0.00000000000E+00 0.  1.
    9000005    2    1    2  501    0 -0.25575008792E+02  0.20891305272E+02 -0.72182732470E+03  0.72259186314E+03  0.37129893383E+01 0.  0.
         13    1    3    3    0    0 -0.93130673299E+01  0.70606609281E+01 -0.29411764337E+03  0.29434974826E+03  0.00000000000E+00 0.  1.
          3    1    3    3  501    0 -0.16261941462E+02  0.13830644344E+02 -0.42770968132E+03  0.42824211488E+03  0.00000000000E+00 0.  1.
         21    1    1    2  502  501  0.25575008792E+02 -0.20891305272E+02 -0.27680897576E+03  0.27877183640E+03  0.00000000000E+00 0.  1.
<mgrwt>
<rscale>  1 0.30000000E+03</rscale>
<asrwt>0</asrwt>
<pdfrwt beam="1">  1        3 0.49589179E-02 0.30000000E+03</pdfrwt>
<pdfrwt beam="2">0</pdfrwt>
<totfact> 0.10020755E+03</totfact>
</mgrwt>
</event>
<event>
 6    1  0.1956957E-002  0.3000000E+03  0.7818608E-02  0.1093470E+00
          1   -1    0    0  502    0  0.00000000000E+00  0.00000000000E+00  0.17968588523E+01  0.17968588523E+01  0.00000000000E+00 0.  1.
         13   -1    0    0    0    0 -0.00000000000E+00 -0.00000000000E+00 -0.10000000000E+04  0.10000000000E+04  0.00000000000E+00 0.  1.
    9000005    2    1    2  501    0  0.53254414961E+01 -0.38091584133E+02 -0.70858142791E+03  0.70963240878E+03  0.33446224183E+01 0.  0.
         13    1    3    3    0    0  0.32471559567E+00 -0.10943185721E+02 -0.21858077107E+03  0.21885477430E+03  0.00000000000E+00 0.  1.
          3    1    3    3  501    0  0.50007259004E+01 -0.27148398412E+02 -0.49000065684E+03  0.49077763448E+03  0.00000000000E+00 0.  1.
         21    1    1    2  502  501 -0.53254414961E+01  0.38091584133E+02 -0.28962171324E+03  0.29216445007E+03  0.00000000000E+00 0.  1.
<mgrwt>
<rscale>  1 0.30000000E+03</rscale>
<asrwt>0</asrwt>
<pdfrwt beam="1">  1        1 0.65340460E-02 0.30000000E+03</pdfrwt>
<pdfrwt beam="2">0</pdfrwt>
<totfact> 0.13663779E+03</totfact>
</mgrwt>
</event>
<event>
 6    1  0.1956957E-002  0.3000000E+03  0.7818608E-02  0.1093470E+00
          1   -1    0    0  502    0  0.00000000000E+00  0.00000000000E+00  0.97781872964E+01  0.97781872964E+01  0.00000000000E+00 0.  1.
         13   -1    0    0    0    0 -0.00000000000E+00 -0.00000000000E+00 -0.10000000000E+04  0.10000000000E+04  0.00000000000E+00 0.  1.
    9000005    2    1    2  501    0 -0.56052799511E+01  0.56130067040E+02 -0.90974860606E+03  0.91150336561E+03  0.37223255156E+01 0.  0.
         13    1    3    3    0    0 -0.28634661230E+01  0.32229587515E+02 -0.49238176465E+03  0.49344376368E+03  0.00000000000E+00 0.  1.
          3    1    3    3  501    0 -0.27418138282E+01  0.23900479525E+02 -0.41736684141E+03  0.41805960194E+03  0.00000000000E+00 0.  1.
         21    1    1    2  502  501  0.56052799511E+01 -0.56130067040E+02 -0.80473206642E+02  0.98274821682E+02  0.00000000000E+00 0.  1.
<mgrwt>
<rscale>  1 0.30000000E+03</rscale>
<asrwt>0</asrwt>
<pdfrwt beam="1">  1        1 0.35557120E-01 0.30000000E+03</pdfrwt>
<pdfrwt beam="2">0</pdfrwt>
<totfact> 0.13784807E+02</totfact>
</mgrwt>
</event>
<event>
 6    1  0.1956957E-002  0.3000000E+03  0.7818608E-02  0.1093470E+00
          1   -1    0    0  502    0  0.00000000000E+00  0.00000000000E+00  0.29733618631E+01  0.29733618631E+01  0.00000000000E+00 0.  1.
         13   -1    0    0    0    0 -0.00000000000E+00 -0.00000000000E+00 -0.10000000000E+04  0.10000000000E+04  0.00000000000E+00 0.  1.
    9000005    2    1    2  501    0 -0.41194638940E+01 -0.44460541991E+02 -0.78553548235E+03  0.78682013206E+03  0.51201964777E+01 0.  0.
         13    1    3    3    0    0 -0.26625551420E+01 -0.32748888312E+02 -0.53654384034E+03  0.53754894799E+03  0.00000000000E+00 0.  1.
          3    1    3    3  501    0 -0.14569087520E+01 -0.11711653679E+02 -0.24899164201E+03  0.24927118407E+03  0.00000000000E+00 0.  1.
         21    1    1    2  502  501  0.41194638940E+01  0.44460541991E+02 -0.21149115579E+03  0.21615322980E+03  0.00000000000E+00 0.  1.
<mgrwt>
<rscale>  1 0.30000000E+03</rscale>
<asrwt>0</asrwt>
<pdfrwt beam="1">  1        1 0.10812248E-01 0.30000000E+03</pdfrwt>
<pdfrwt beam="2">0</pdfrwt>
<totfact> 0.67864665E+02</totfact>
</mgrwt>
</event>
<event>
 6    1  0.1956957E-002  0.3000000E+03  0.7818608E-02  0.1093470E+00
          3   -1    0    0  502    0  0.00000000000E+00  0.00000000000E+00  0.24981148813E+01  0.24981148813E+01  0.00000000000E+00 0.  1.
         13   -1    0    0    0    0 -0.00000000000E+00 -0.00000000000E+00 -0.10000000000E+04  0.10000000000E+04  0.00000000000E+00 0.  1.
    9000005    2    1    2  501    0 -0.29820418072E+02  0.39951921526E+02 -0.47059132171E+03  0.47323432886E+03  0.30206903424E+01 0.  0.
         13    1    3    3    0    0 -0.18472519523E+02  0.23876818387E+02 -0.27164756982E+03  0.27331984674E+03  0.00000000000E+00 0.  1.
          1    1    3    3  501    0 -0.11347898549E+02  0.16075103139E+02 -0.19894375189E+03  0.19991448212E+03  0.00000000000E+00 0.  1.
         21    1    1    2  502  501  0.29820418072E+02 -0.39951921526E+02 -0.52691056341E+03  0.52926378602E+03  0.00000000000E+00 0.  1.
<mgrwt>
<rscale>  1 0.30000000E+03</rscale>
<asrwt>0</asrwt>
<pdfrwt beam="1">  1        3 0.90840733E-02 0.30000000E+03</pdfrwt>
<pdfrwt beam="2">0</pdfrwt>
<totfact> 0.38635261E+02</totfact>
</mgrwt>
</event>
<event>
 6    1  0.1956957E-002  0.3000000E+03  0.7818608E-02  0.1093470E+00
          1   -1    0    0  502    0  0.00000000000E+00  0.00000000000E+00  0.34975904884E+01  0.34975904884E+01  0.00000000000E+00 0.  1.
         13   -1    0    0    0    0 -0.00000000000E+00 -0.00000000000E+00 -0.10000000000E+04  0.10000000000E+04  0.00000000000E+00 0.  1.
    9000005    2    1    2  501    0  0.56999204279E+02 -0.78239742856E+00 -0.63047632534E+03  0.63305918032E+03  0.37426646762E+01 0.  0.
         13    1    3    3    0    0  0.14880677578E+02  0.11151590696E+01 -0.15416986319E+03  0.15489036400E+03  0.00000000000E+00 0.  1.
          3    1    3    3  501    0  0.42118526702E+02 -0.18975564981E+01 -0.47630646215E+03  0.47816881632E+03  0.00000000000E+00 0.  1.
         21    1    1    2  502  501 -0.56999204279E+02  0.78239742856E+00 -0.36602608417E+03  0.37043841017E+03  0.00000000000E+00 0.  1.
<mgrwt>
<rscale>  1 0.30000000E+03</rscale>
<asrwt>0</asrwt>
<pdfrwt beam="1">  1        1 0.12718538E-01 0.30000000E+03</pdfrwt>
<pdfrwt beam="2">0</pdfrwt>
<totfact> 0.54314713E+02</totfact>
</mgrwt>
</event>
<event>
 6    1  0.1956957E-002  0.3000000E+03  0.7818608E-02  0.1093470E+00
          3   -1    0    0  502    0  0.00000000000E+00  0.00000000000E+00  0.11684885592E+01  0.11684885592E+01  0.00000000000E+00 0.  1.
         13   -1    0    0    0    0 -0.00000000000E+00 -0.00000000000E+00 -0.10000000000E+04  0.10000000000E+04  0.00000000000E+00 0.  1.
    9000005    2    1    2  501    0 -0.21751684733E+02 -0.25750061371E+02 -0.57903712714E+03  0.58002299524E+03  0.25453792900E+01 0.  0.
         13    1    3    3    0    0 -0.19299138032E+02 -0.23003171533E+02 -0.52809250846E+03  0.52894546044E+03  0.00000000000E+00 0.  1.
          1    1    3    3  501    0 -0.24525467003E+01 -0.27468898386E+01 -0.50944618678E+02  0.51077534801E+02  0.00000000000E+00 0.  1.
         21    1    1    2  502  501  0.21751684733E+02  0.25750061371E+02 -0.41979438430E+03  0.42114549332E+03  0.00000000000E+00 0.  1.
<mgrwt>
<rscale>  1 0.30000000E+03</rscale>
<asrwt>0</asrwt>
<pdfrwt beam="1">  1        3 0.42490583E-02 0.30000000E+03</pdfrwt>
<pdfrwt beam="2">0</pdfrwt>
<totfact> 0.12716107E+03</totfact>
</mgrwt>
</event>
<event>
 6    1  0.1956957E-002  0.3000000E+03  0.7818608E-02  0.1093470E+00
          3   -1    0    0  502    0  0.00000000000E+00  0.00000000000E+00  0.12711899914E+01  0.12711899914E+01  0.00000000000E+00 0.  1.
         13   -1    0    0    0    0 -0.00000000000E+00 -0.00000000000E+00 -0.10000000000E+04  0.10000000000E+04  0.00000000000E+00 0.  1.
    9000005    2    1    2  501    0 -0.18353243316E+01  0.34152298001E+02 -0.63709984138E+03  0.63802849037E+03  0.37945708573E+01 0.  0.
         13    1    3    3    0    0 -0.16724866326E+01  0.34200680620E+02 -0.63392394697E+03  0.63484805608E+03  0.00000000000E+00 0.  1.
          3    1    3    3  501    0 -0.16283769903E+00 -0.48382618437E-01 -0.31758944123E+01  0.31804342961E+01  0.00000000000E+00 0.  1.
         21    1    1    2  502  501  0.18353243316E+01 -0.34152298001E+02 -0.36162896863E+03  0.36324269962E+03  0.00000000000E+00 0.  1.
<mgrwt>
<rscale>  1 0.30000000E+03</rscale>
<asrwt>0</asrwt>
<pdfrwt beam="1">  1        3 0.46225188E-02 0.30000000E+03</pdfrwt>
<pdfrwt beam="2">0</pdfrwt>
<totfact> 0.11168145E+03</totfact>
</mgrwt>
</event>
<event>
 6    1  0.1956957E-002  0.3000000E+03  0.7818608E-02  0.1093470E+00
          1   -1    0    0  502    0  0.00000000000E+00  0.00000000000E+00  0.27205449299E+02  0.27205449299E+02  0.00000000000E+00 0.  1.
         13   -1    0    0    0    0 -0.00000000000E+00 -0.00000000000E+00 -0.10000000000E+04  0.10000000000E+04  0.00000000000E+00 0.  1.
    9000005    2    1    2  501    0  0.68294850829E+02  0.10768627871E+02 -0.95266537991E+03  0.95519618939E+03  0.69486797853E+01 0.  0.
         13    1    3    3    0    0  0.40675469830E+02  0.48961475485E+01 -0.60544564203E+03  0.60683019994E+03  0.00000000000E+00 0.  1.
          3    1    3    3  501    0  0.27619380998E+02  0.58724803224E+01 -0.34721973788E+03  0.34836598945E+03  0.00000000000E+00 0.  1.
         21    1    1    2  502  501 -0.68294850829E+02 -0.10768627871E+02 -0.20129170792E+02  0.72009259909E+02  0.00000000000E+00 0.  1.
<mgrwt>
<rscale>  1 0.30000000E+03</rscale>
<asrwt>0</asrwt>
<pdfrwt beam="1">  1        1 0.98929115E-01 0.30000000E+03</pdfrwt>
<pdfrwt beam="2">0</pdfrwt>
<totfact> 0.34769105E+01</totfact>
</mgrwt>
</event>
<event>
 6    1  0.1956957E-002  0.3000000E+03  0.7818608E-02  0.1093470E+00
          1   -1    0    0  502    0  0.00000000000E+00  0.00000000000E+00  0.16803928118E+01  0.16803928118E+01  0.00000000000E+00 0.  1.
         13   -1    0    0    0    0 -0.00000000000E+00 -0.00000000000E+00 -0.10000000000E+04  0.10000000000E+04  0.00000000000E+00 0.  1.
    9000005    2    1    2  501    0 -0.30879071670E+02  0.19912286358E+02 -0.71788408487E+03  0.71884811320E+03  0.59189796144E+01 0.  0.
         13    1    3    3    0    0 -0.16590414596E+02  0.71932857931E+01 -0.35412132514E+03  0.35458270986E+03  0.00000000000E+00 0.  1.
          1    1    3    3  501    0 -0.14288657074E+02  0.12719000565E+02 -0.36376275974E+03  0.36426540334E+03  0.00000000000E+00 0.  1.
         21    1    1    2  502  501  0.30879071670E+02 -0.19912286358E+02 -0.28043552232E+03  0.28283227961E+03  0.00000000000E+00 0.  1.
<mgrwt>
<rscale>  1 0.30000000E+03</rscale>
<asrwt>0</asrwt>
<pdfrwt beam="1">  1        1 0.61105322E-02 0.30000000E+03</pdfrwt>
<pdfrwt beam="2">0</pdfrwt>
<totfact> 0.15009198E+03</totfact>
</mgrwt>
</event>
<event>
 6    1  0.1956957E-002  0.3000000E+03  0.7818608E-02  0.1093470E+00
          1   -1    0    0  502    0  0.00000000000E+00  0.00000000000E+00  0.30756465988E+01  0.30756465988E+01  0.00000000000E+00 0.  1.
         13   -1    0    0    0    0 -0.00000000000E+00 -0.00000000000E+00 -0.10000000000E+04  0.10000000000E+04  0.00000000000E+00 0.  1.
    9000005    2    1    2  501    0 -0.23383125239E+02 -0.30990338856E+02 -0.85644854773E+03  0.85733401347E+03  0.32131127722E+01 0.  0.
         13    1    3    3    0    0 -0.14480709163E+02 -0.16780976588E+02 -0.50183349387E+03  0.50232275250E+03  0.00000000000E+00 0.  1.
          3    1    3    3  501    0 -0.89024160764E+01 -0.14209362268E+02 -0.35461505386E+03  0.35501126097E+03  0.00000000000E+00 0.  1.
         21    1    1    2  502  501  0.23383125239E+02  0.30990338856E+02 -0.14047580567E+03  0.14574163313E+03  0.00000000000E+00 0.  1.
<mgrwt>
<rscale>  1 0.30000000E+03</rscale>
<asrwt>0</asrwt>
<pdfrwt beam="1">  1        1 0.11184193E-01 0.30000000E+03</pdfrwt>
<pdfrwt beam="2">0</pdfrwt>
<totfact> 0.64782304E+02</totfact>
</mgrwt>
</event>
<event>
 6    1  0.1956957E-002  0.3000000E+03  0.7818608E-02  0.1093470E+00
          1   -1    0    0  502    0  0.00000000000E+00  0.00000000000E+00  0.15136069812E+01  0.15136069812E+01  0.00000000000E+00 0.  1.
         13   -1    0    0    0    0 -0.00000000000E+00 -0.00000000000E+00 -0.10000000000E+04  0.10000000000E+04  0.00000000000E+00 0.  1.
    9000005    2    1    2  501    0 -0.10087043026E+02  0.33079022367E+02 -0.72813751769E+03  0.72896180539E+03  0.22580733399E+01 0.  0.
         13    1    3    3    0    0 -0.25354975045E+01  0.70448109870E+01 -0.17628138580E+03  0.17644031594E+03  0.00000000000E+00 0.  1.
          1    1    3    3  501    0 -0.75515455218E+01  0.26034211380E+02 -0.55185613189E+03  0.55252148945E+03  0.00000000000E+00 0.  1.
         21    1    1    2  502  501  0.10087043026E+02 -0.33079022367E+02 -0.27034887533E+03  0.27255180159E+03  0.00000000000E+00 0.  1.
<mgrwt>
<rscale>  1 0.30000000E+03</rscale>
<asrwt>0</asrwt>
<pdfrwt beam="1">  1        1 0.55040370E-02 0.30000000E+03</pdfrwt>
<pdfrwt beam="2">0</pdfrwt>
<totfact> 0.17380873E+03</totfact>
</mgrwt>
</event>
<event>
 6    1  0.1956957E-002  0.3000000E+03  0.7818608E-02  0.1093470E+00
          3   -1    0    0  502    0  0.00000000000E+00  0.00000000000E+00  0.11688001990E+01  0.11688001990E+01  0.00000000000E+00 0.  1.
         13   -1    0    0    0    0 -0.00000000000E+00 -0.00000000000E+00 -0.10000000000E+04  0.10000000000E+04  0.00000000000E+00 0.  1.
    9000005    2    1    2  501    0 -0.90833413798E+01  0.30267976611E+02 -0.31223417534E+03  0.31384490894E+03  0.31287565800E+01 0.  0.
         13    1    3    3    0    0 -0.53365522693E+01  0.22596184730E+02 -0.22898298509E+03  0.23015706336E+03  0.00000000000E+00 0.  1.
          3    1    3    3  501    0 -0.37467891105E+01  0.76717918802E+01 -0.83251190251E+02  0.83687845578E+02  0.00000000000E+00 0.  1.
         21    1    1    2  502  501  0.90833413798E+01 -0.30267976611E+02 -0.68659702446E+03  0.68732389126E+03  0.00000000000E+00 0.  1.
<mgrwt>
<rscale>  1 0.30000000E+03</rscale>
<asrwt>0</asrwt>
<pdfrwt beam="1">  1        3 0.42501915E-02 0.30000000E+03</pdfrwt>
<pdfrwt beam="2">0</pdfrwt>
<totfact> 0.12710895E+03</totfact>
</mgrwt>
</event>
<event>
 6    1  0.1956957E-002  0.3000000E+03  0.7818608E-02  0.1093470E+00
          1   -1    0    0  502    0  0.00000000000E+00  0.00000000000E+00  0.57020962786E+01  0.57020962786E+01  0.00000000000E+00 0.  1.
         13   -1    0    0    0    0 -0.00000000000E+00 -0.00000000000E+00 -0.10000000000E+04  0.10000000000E+04  0.00000000000E+00 0.  1.
    9000005    2    1    2  501    0  0.69915292952E+02 -0.17970971854E+02 -0.64429106178E+03  0.64832849145E+03  0.27850541303E+01 0.  0.
         13    1    3    3    0    0  0.22157984628E+02 -0.59681580725E+01 -0.21636895666E+03  0.21758244553E+03  0.00000000000E+00 0.  1.
          3    1    3    3  501    0  0.47757308324E+02 -0.12002813781E+02 -0.42792210511E+03  0.43074604593E+03  0.00000000000E+00 0.  1.
         21    1    1    2  502  501 -0.69915292952E+02  0.17970971854E+02 -0.35000684195E+03  0.35737360483E+03  0.00000000000E+00 0.  1.
<mgrwt>
<rscale>  1 0.30000000E+03</rscale>
<asrwt>0</asrwt>
<pdfrwt beam="1">  1        1 0.20734939E-01 0.30000000E+03</pdfrwt>
<pdfrwt beam="2">0</pdfrwt>
<totfact> 0.28056337E+02</totfact>
</mgrwt>
</event>
<event>
 6    1  0.1956957E-002  0.3000000E+03  0.7818608E-02  0.1093470E+00
          1   -1    0    0  502    0  0.00000000000E+00  0.00000000000E+00  0.11114681494E+01  0.11114681494E+01  0.00000000000E+00 0.  1.
         13   -1    0    0    0    0 -0.00000000000E+00 -0.00000000000E+00 -0.10000000000E+04  0.10000000000E+04  0.00000000000E+00 0.  1.
    9000005    2    1    2  501    0  0.27960302694E+02  0.14582562944E+02 -0.34703606733E+03  0.34849667735E+03  0.46338350485E+01 0.  0.
         13    1    3    3    0    0  0.16354219350E+02  0.66113338847E+01 -0.20977289676E+03  0.21051327379E+03  0.00000000000E+00 0.  1.
          3    1    3    3  501    0  0.11606083344E+02  0.79712290595E+01 -0.13726317057E+03  0.13798340356E+03  0.00000000000E+00 0.  1.
         21    1    1    2  502  501 -0.27960302694E+02 -0.14582562944E+02 -0.65185246452E+03  0.65261479079E+03  0.00000000000E+00 0.  1.
<mgrwt>
<rscale>  1 0.30000000E+03</rscale>
<asrwt>0</asrwt>
<pdfrwt beam="1">  1        1 0.40417109E-02 0.30000000E+03</pdfrwt>
<pdfrwt beam="2">0</pdfrwt>
<totfact> 0.26834705E+03</totfact>
</mgrwt>
</event>
<event>
 6    1  0.1956957E-002  0.3000000E+03  0.7818608E-02  0.1093470E+00
          1   -1    0    0  502    0  0.00000000000E+00  0.00000000000E+00  0.18695796803E+01  0.18695796803E+01  0.00000000000E+00 0.  1.
         13   -1    0    0    0    0 -0.00000000000E+00 -0.00000000000E+00 -0.10000000000E+04  0.10000000000E+04  0.00000000000E+00 0.  1.
    9000005    2    1    2  501    0  0.13549841772E+02 -0.29362526755E+02 -0.83103398961E+03  0.83167271324E+03  0.40316094710E+01 0.  0.
         13    1    3    3    0    0  0.63859113907E+01 -0.93031705226E+01 -0.29422109825E+03  0.29443740167E+03  0.00000000000E+00 0.  1.
          3    1    3    3  501    0  0.71639303817E+01 -0.20059356232E+02 -0.53681289136E+03  0.53723531157E+03  0.00000000000E+00 0.  1.
         21    1    1    2  502  501 -0.13549841772E+02  0.29362526755E+02 -0.16709643071E+03  0.17019686644E+03  0.00000000000E+00 0.  1.
<mgrwt>
<rscale>  1 0.30000000E+03</rscale>
<asrwt>0</asrwt>
<pdfrwt beam="1">  1        1 0.67984859E-02 0.30000000E+03</pdfrwt>
<pdfrwt beam="2">0</pdfrwt>
<totfact> 0.12925600E+03</totfact>
</mgrwt>
</event>
<event>
 6    1  0.1956957E-002  0.3000000E+03  0.7818608E-02  0.1093470E+00
          3   -1    0    0  502    0  0.00000000000E+00  0.00000000000E+00  0.10128173259E+01  0.10128173259E+01  0.00000000000E+00 0.  1.
         13   -1    0    0    0    0 -0.00000000000E+00 -0.00000000000E+00 -0.10000000000E+04  0.10000000000E+04  0.00000000000E+00 0.  1.
    9000005    2    1    2  501    0  0.31562718931E+02 -0.83904828631E+00 -0.55177799328E+03  0.55269042406E+03  0.32926808440E+01 0.  0.
         13    1    3    3    0    0  0.31627820115E+02 -0.85310949057E+00 -0.54851323067E+03  0.54942498216E+03  0.00000000000E+00 0.  1.
          3    1    3    3  501    0 -0.65101183662E-01  0.14061204262E-01 -0.32647626081E+01  0.32654418949E+01  0.00000000000E+00 0.  1.
         21    1    1    2  502  501 -0.31562718931E+02  0.83904828631E+00 -0.44720918939E+03  0.44832239327E+03  0.00000000000E+00 0.  1.
<mgrwt>
<rscale>  1 0.30000000E+03</rscale>
<asrwt>0</asrwt>
<pdfrwt beam="1">  1        3 0.36829799E-02 0.30000000E+03</pdfrwt>
<pdfrwt beam="2">0</pdfrwt>
<totfact> 0.15841694E+03</totfact>
</mgrwt>
</event>
<event>
 6    1  0.1956957E-002  0.3000000E+03  0.7818608E-02  0.1093470E+00
          1   -1    0    0  502    0  0.00000000000E+00  0.00000000000E+00  0.34857995680E+01  0.34857995680E+01  0.00000000000E+00 0.  1.
         13   -1    0    0    0    0 -0.00000000000E+00 -0.00000000000E+00 -0.10000000000E+04  0.10000000000E+04  0.00000000000E+00 0.  1.
    9000005    2    1    2  501    0 -0.43955791242E+02 -0.30346953089E+02 -0.71149333118E+03  0.71350313620E+03  0.33039228938E+01 0.  0.
         13    1    3    3    0    0 -0.18272800074E+02 -0.10746085446E+02 -0.27531854310E+03  0.27613343469E+03  0.00000000000E+00 0.  1.
          3    1    3    3  501    0 -0.25682991167E+02 -0.19600867643E+02 -0.43617478808E+03  0.43736970151E+03  0.00000000000E+00 0.  1.
         21    1    1    2  502  501  0.43955791242E+02  0.30346953089E+02 -0.28502086925E+03  0.28998266337E+03  0.00000000000E+00 0.  1.
<mgrwt>
<rscale>  1 0.30000000E+03</rscale>
<asrwt>0</asrwt>
<pdfrwt beam="1">  1        1 0.12675662E-01 0.30000000E+03</pdfrwt>
<pdfrwt beam="2">0</pdfrwt>
<totfact> 0.54566156E+02</totfact>
</mgrwt>
</event>
<event>
 6    1  0.1956957E-002  0.3000000E+03  0.7818608E-02  0.1093470E+00
          1   -1    0    0  502    0  0.00000000000E+00  0.00000000000E+00  0.72439715925E+02  0.72439715925E+02  0.00000000000E+00 0.  1.
         13   -1    0    0    0    0 -0.00000000000E+00 -0.00000000000E+00 -0.10000000000E+04  0.10000000000E+04  0.00000000000E+00 0.  1.
    9000005    2    1    2  501    0 -0.40112161430E+02  0.20045351136E+02 -0.99248541527E+03  0.99353423920E+03  0.84960784681E+01 0.  0.
         13    1    3    3    0    0 -0.40240253817E+02  0.18848292266E+02 -0.96599787203E+03  0.96701935084E+03  0.00000000000E+00 0.  1.
          3    1    3    3  501    0  0.12809238759E+00  0.11970588700E+01 -0.26487543242E+02  0.26514888357E+02  0.00000000000E+00 0.  1.
         21    1    1    2  502  501  0.40112161430E+02 -0.20045351136E+02  0.64925131192E+02  0.78905476724E+02  0.00000000000E+00 0.  1.
<mgrwt>
<rscale>  1 0.30000000E+03</rscale>
<asrwt>0</asrwt>
<pdfrwt beam="1">  1        1 0.26341770E+00 0.30000000E+03</pdfrwt>
<pdfrwt beam="2">0</pdfrwt>
<totfact> 0.51635633E+00</totfact>
</mgrwt>
</event>
<event>
 6    1  0.1956957E-002  0.3000000E+03  0.7818608E-02  0.1093470E+00
          1   -1    0    0  502    0  0.00000000000E+00  0.00000000000E+00  0.91726295120E+00  0.91726295120E+00  0.00000000000E+00 0.  1.
         13   -1    0    0    0    0 -0.00000000000E+00 -0.00000000000E+00 -0.10000000000E+04  0.10000000000E+04  0.00000000000E+00 0.  1.
    9000005    2    1    2  501    0 -0.25314523593E+02 -0.16335450679E+02 -0.51015910032E+03  0.51106627070E+03  0.43305147751E+01 0.  0.
         13    1    3    3    0    0 -0.89124993066E+01 -0.82225277666E+01 -0.21049161590E+03  0.21084061034E+03  0.00000000000E+00 0.  1.
          3    1    3    3  501    0 -0.16402024286E+02 -0.81129229123E+01 -0.29966748443E+03  0.30022566036E+03  0.00000000000E+00 0.  1.
         21    1    1    2  502  501  0.25314523593E+02  0.16335450679E+02 -0.48892363673E+03  0.48985099225E+03  0.00000000000E+00 0.  1.
<mgrwt>
<rscale>  1 0.30000000E+03</rscale>
<asrwt>0</asrwt>
<pdfrwt beam="1">  1        1 0.33355087E-02 0.30000000E+03</pdfrwt>
<pdfrwt beam="2">0</pdfrwt>
<totfact> 0.35159905E+03</totfact>
</mgrwt>
</event>
<event>
 6    1  0.1956957E-002  0.3000000E+03  0.7818608E-02  0.1093470E+00
          3   -1    0    0  502    0  0.00000000000E+00  0.00000000000E+00  0.29873219677E+01  0.29873219677E+01  0.00000000000E+00 0.  1.
         13   -1    0    0    0    0 -0.00000000000E+00 -0.00000000000E+00 -0.10000000000E+04  0.10000000000E+04  0.00000000000E+00 0.  1.
    9000005    2    1    2  501    0 -0.20018979066E+02  0.26843245901E+02 -0.89471288785E+03  0.89534640760E+03  0.35663082177E+01 0.  0.
         13    1    3    3    0    0 -0.50321604146E+01  0.72765988136E+01 -0.19759036953E+03  0.19778833550E+03  0.00000000000E+00 0.  1.
          1    1    3    3  501    0 -0.14986818652E+02  0.19566647088E+02 -0.69712251831E+03  0.69755807210E+03  0.00000000000E+00 0.  1.
         21    1    1    2  502  501  0.20018979066E+02 -0.26843245901E+02 -0.10229979019E+03  0.10764091437E+03  0.00000000000E+00 0.  1.
<mgrwt>
<rscale>  1 0.30000000E+03</rscale>
<asrwt>0</asrwt>
<pdfrwt beam="1">  1        3 0.10863012E-01 0.30000000E+03</pdfrwt>
<pdfrwt beam="2">0</pdfrwt>
<totfact> 0.28789196E+02</totfact>
</mgrwt>
</event>
<event>
 6    1  0.1956957E-002  0.3000000E+03  0.7818608E-02  0.1093470E+00
          1   -1    0    0  502    0  0.00000000000E+00  0.00000000000E+00  0.47399276162E+01  0.47399276162E+01  0.00000000000E+00 0.  1.
         13   -1    0    0    0    0 -0.00000000000E+00 -0.00000000000E+00 -0.10000000000E+04  0.10000000000E+04  0.00000000000E+00 0.  1.
    9000005    2    1    2  501    0 -0.15532769181E+02  0.42994354254E+02 -0.87314927910E+03  0.87435270718E+03  0.36347693397E+01 0.  0.
         13    1    3    3    0    0 -0.10255878999E+02  0.23237516759E+02 -0.47513782811E+03  0.47581626805E+03  0.00000000000E+00 0.  1.
          3    1    3    3  501    0 -0.52768901817E+01  0.19756837494E+02 -0.39801145099E+03  0.39853643913E+03  0.00000000000E+00 0.  1.
         21    1    1    2  502  501  0.15532769181E+02 -0.42994354254E+02 -0.12211079329E+03  0.13038722044E+03  0.00000000000E+00 0.  1.
<mgrwt>
<rscale>  1 0.30000000E+03</rscale>
<asrwt>0</asrwt>
<pdfrwt beam="1">  1        1 0.17236137E-01 0.30000000E+03</pdfrwt>
<pdfrwt beam="2">0</pdfrwt>
<totfact> 0.35946302E+02</totfact>
</mgrwt>
</event>
<event>
 6    1  0.1956957E-002  0.3000000E+03  0.7818608E-02  0.1093470E+00
          1   -1    0    0  502    0  0.00000000000E+00  0.00000000000E+00  0.10939173994E+01  0.10939173994E+01  0.00000000000E+00 0.  1.
         13   -1    0    0    0    0 -0.00000000000E+00 -0.00000000000E+00 -0.10000000000E+04  0.10000000000E+04  0.00000000000E+00 0.  1.
    9000005    2    1    2  501    0  0.12676533015E+02  0.30419644837E+02 -0.48124737482E+03  0.48238726907E+03  0.35202709009E+01 0.  0.
         13    1    3    3    0    0  0.13025768022E+01  0.67994626087E+01 -0.10346503855E+03  0.10369640110E+03  0.00000000000E+00 0.  1.
          1    1    3    3  501    0  0.11373956213E+02  0.23620182228E+02 -0.37778233627E+03  0.37869086797E+03  0.00000000000E+00 0.  1.
         21    1    1    2  502  501 -0.12676533015E+02 -0.30419644837E+02 -0.51765870778E+03  0.51870664833E+03  0.00000000000E+00 0.  1.
<mgrwt>
<rscale>  1 0.30000000E+03</rscale>
<asrwt>0</asrwt>
<pdfrwt beam="1">  1        1 0.39778898E-02 0.30000000E+03</pdfrwt>
<pdfrwt beam="2">0</pdfrwt>
<totfact> 0.27442857E+03</totfact>
</mgrwt>
</event>
<event>
 6    1  0.1956957E-002  0.3000000E+03  0.7818608E-02  0.1093470E+00
          1   -1    0    0  502    0  0.00000000000E+00  0.00000000000E+00  0.23295546963E+01  0.23295546963E+01  0.00000000000E+00 0.  1.
         13   -1    0    0    0    0 -0.00000000000E+00 -0.00000000000E+00 -0.10000000000E+04  0.10000000000E+04  0.00000000000E+00 0.  1.
    9000005    2    1    2  501    0 -0.26522431699E+02 -0.18763581073E+02 -0.86925870990E+03  0.86987169292E+03  0.32474670916E+01 0.  0.
         13    1    3    3    0    0 -0.17897380694E+02 -0.11197965949E+02 -0.58902002556E+03  0.58939825346E+03  0.00000000000E+00 0.  1.
          1    1    3    3  501    0 -0.86250510045E+01 -0.75656151245E+01 -0.28023868434E+03  0.28047343945E+03  0.00000000000E+00 0.  1.
         21    1    1    2  502  501  0.26522431699E+02  0.18763581073E+02 -0.12841173540E+03  0.13245786178E+03  0.00000000000E+00 0.  1.
<mgrwt>
<rscale>  1 0.30000000E+03</rscale>
<asrwt>0</asrwt>
<pdfrwt beam="1">  1        1 0.84711258E-02 0.30000000E+03</pdfrwt>
<pdfrwt beam="2">0</pdfrwt>
<totfact> 0.95105366E+02</totfact>
</mgrwt>
</event>
<event>
 6    1  0.1956957E-002  0.3000000E+03  0.7818608E-02  0.1093470E+00
          3   -1    0    0  502    0  0.00000000000E+00  0.00000000000E+00  0.17587349400E+01  0.17587349400E+01  0.00000000000E+00 0.  1.
         13   -1    0    0    0    0 -0.00000000000E+00 -0.00000000000E+00 -0.10000000000E+04  0.10000000000E+04  0.00000000000E+00 0.  1.
    9000005    2    1    2  501    0 -0.39276966574E+02 -0.31992243660E+01 -0.33310078276E+03  0.33545191648E+03  0.43522007128E+01 0.  0.
         13    1    3    3    0    0 -0.39997150266E+01 -0.69807538665E+00 -0.24928185864E+02  0.25256671990E+02  0.00000000000E+00 0.  1.
          3    1    3    3  501    0 -0.35277251547E+02 -0.25011489793E+01 -0.30817259690E+03  0.31019524449E+03  0.00000000000E+00 0.  1.
         21    1    1    2  502  501  0.39276966574E+02  0.31992243660E+01 -0.66514048230E+03  0.66630681846E+03  0.00000000000E+00 0.  1.
<mgrwt>
<rscale>  1 0.30000000E+03</rscale>
<asrwt>0</asrwt>
<pdfrwt beam="1">  1        3 0.63954133E-02 0.30000000E+03</pdfrwt>
<pdfrwt beam="2">0</pdfrwt>
<totfact> 0.67496147E+02</totfact>
</mgrwt>
</event>
<event>
 6    1  0.1956957E-002  0.3000000E+03  0.7818608E-02  0.1093470E+00
          3   -1    0    0  502    0  0.00000000000E+00  0.00000000000E+00  0.10288509865E+01  0.10288509865E+01  0.00000000000E+00 0.  1.
         13   -1    0    0    0    0 -0.00000000000E+00 -0.00000000000E+00 -0.10000000000E+04  0.10000000000E+04  0.00000000000E+00 0.  1.
    9000005    2    1    2  501    0  0.24993939260E+02  0.18139826455E+02 -0.63025401139E+03  0.63102063773E+03  0.36298840766E+01 0.  0.
         13    1    3    3    0    0  0.13041244906E+02  0.87450761649E+01 -0.28527659342E+03  0.28570839186E+03  0.00000000000E+00 0.  1.
          1    1    3    3  501    0  0.11952694355E+02  0.93947502904E+01 -0.34497741798E+03  0.34531224587E+03  0.00000000000E+00 0.  1.
         21    1    1    2  502  501 -0.24993939260E+02 -0.18139826455E+02 -0.36871713762E+03  0.37000821326E+03  0.00000000000E+00 0.  1.
<mgrwt>
<rscale>  1 0.30000000E+03</rscale>
<asrwt>0</asrwt>
<pdfrwt beam="1">  1        3 0.37412842E-02 0.30000000E+03</pdfrwt>
<pdfrwt beam="2">0</pdfrwt>
<totfact> 0.15463150E+03</totfact>
</mgrwt>
</event>
<event>
 6    1  0.1956957E-002  0.3000000E+03  0.7818608E-02  0.1093470E+00
          1   -1    0    0  502    0  0.00000000000E+00  0.00000000000E+00  0.26804910820E+01  0.26804910820E+01  0.00000000000E+00 0.  1.
         13   -1    0    0    0    0 -0.00000000000E+00 -0.00000000000E+00 -0.10000000000E+04  0.10000000000E+04  0.00000000000E+00 0.  1.
    9000005    2    1    2  501    0 -0.37042549581E+02  0.35966537680E+02 -0.47041884566E+03  0.47325622714E+03  0.34385839566E+01 0.  0.
         13    1    3    3    0    0 -0.10497303883E+02  0.11990797370E+02 -0.13666379899E+03  0.13758984906E+03  0.00000000000E+00 0.  1.
          1    1    3    3  501    0 -0.26545245698E+02  0.23975740310E+02 -0.33375504668E+03  0.33566637808E+03  0.00000000000E+00 0.  1.
         21    1    1    2  502  501  0.37042549581E+02 -0.35966537680E+02 -0.52690066326E+03  0.52942426394E+03  0.00000000000E+00 0.  1.
<mgrwt>
<rscale>  1 0.30000000E+03</rscale>
<asrwt>0</asrwt>
<pdfrwt beam="1">  1        1 0.97472609E-02 0.30000000E+03</pdfrwt>
<pdfrwt beam="2">0</pdfrwt>
<totfact> 0.78293900E+02</totfact>
</mgrwt>
</event>
<event>
 6    1  0.1956957E-002  0.3000000E+03  0.7818608E-02  0.1093470E+00
          1   -1    0    0  502    0  0.00000000000E+00  0.00000000000E+00  0.29337328345E+01  0.29337328345E+01  0.00000000000E+00 0.  1.
         13   -1    0    0    0    0 -0.00000000000E+00 -0.00000000000E+00 -0.10000000000E+04  0.10000000000E+04  0.00000000000E+00 0.  1.
    9000005    2    1    2  501    0 -0.13135529201E+02  0.35703192401E+02 -0.85529887623E+03  0.85615071881E+03  0.32596862686E+01 0.  0.
         13    1    3    3    0    0 -0.11641381562E+02  0.31358106128E+02 -0.72582345084E+03  0.72659378911E+03  0.00000000000E+00 0.  1.
          3    1    3    3  501    0 -0.14941476389E+01  0.43450862721E+01 -0.12947542539E+03  0.12955692970E+03  0.00000000000E+00 0.  1.
         21    1    1    2  502  501  0.13135529201E+02 -0.35703192401E+02 -0.14176739093E+03  0.14678301403E+03  0.00000000000E+00 0.  1.
<mgrwt>
<rscale>  1 0.30000000E+03</rscale>
<asrwt>0</asrwt>
<pdfrwt beam="1">  1        1 0.10668142E-01 0.30000000E+03</pdfrwt>
<pdfrwt beam="2">0</pdfrwt>
<totfact> 0.69128937E+02</totfact>
</mgrwt>
</event>
<event>
 6    1  0.1956957E-002  0.3000000E+03  0.7818608E-02  0.1093470E+00
          1   -1    0    0  502    0  0.00000000000E+00  0.00000000000E+00  0.15121604807E+01  0.15121604807E+01  0.00000000000E+00 0.  1.
         13   -1    0    0    0    0 -0.00000000000E+00 -0.00000000000E+00 -0.10000000000E+04  0.10000000000E+04  0.00000000000E+00 0.  1.
    9000005    2    1    2  501    0  0.50558520567E+01 -0.36670242881E+02 -0.65094351797E+03  0.65200204075E+03  0.29881770614E+01 0.  0.
         13    1    3    3    0    0  0.27283319907E+01 -0.24888736811E+02 -0.41807592646E+03  0.41882499125E+03  0.00000000000E+00 0.  1.
          3    1    3    3  501    0  0.23275200659E+01 -0.11781506070E+02 -0.23286759151E+03  0.23317704949E+03  0.00000000000E+00 0.  1.
         21    1    1    2  502  501 -0.50558520567E+01  0.36670242881E+02 -0.34754432155E+03  0.34951011973E+03  0.00000000000E+00 0.  1.
<mgrwt>
<rscale>  1 0.30000000E+03</rscale>
<asrwt>0</asrwt>
<pdfrwt beam="1">  1        1 0.54987770E-02 0.30000000E+03</pdfrwt>
<pdfrwt beam="2">0</pdfrwt>
<totfact> 0.17404224E+03</totfact>
</mgrwt>
</event>
<event>
 6    1  0.1956957E-002  0.3000000E+03  0.7818608E-02  0.1093470E+00
          1   -1    0    0  502    0  0.00000000000E+00  0.00000000000E+00  0.25844730288E+01  0.25844730288E+01  0.00000000000E+00 0.  1.
         13   -1    0    0    0    0 -0.00000000000E+00 -0.00000000000E+00 -0.10000000000E+04  0.10000000000E+04  0.00000000000E+00 0.  1.
    9000005    2    1    2  501    0 -0.23850084253E+02 -0.19146555206E+02 -0.89899858872E+03  0.89952472904E+03  0.32952313049E+01 0.  0.
         13    1    3    3    0    0 -0.17824324774E+02 -0.12688372298E+02 -0.66294642650E+03  0.66330736899E+03  0.00000000000E+00 0.  1.
          3    1    3    3  501    0 -0.60257594792E+01 -0.64581829076E+01 -0.23605216222E+03  0.23621736005E+03  0.00000000000E+00 0.  1.
         21    1    1    2  502  501  0.23850084253E+02  0.19146555206E+02 -0.98416938255E+02  0.10305974399E+03  0.00000000000E+00 0.  1.
<mgrwt>
<rscale>  1 0.30000000E+03</rscale>
<asrwt>0</asrwt>
<pdfrwt beam="1">  1        1 0.93981036E-02 0.30000000E+03</pdfrwt>
<pdfrwt beam="2">0</pdfrwt>
<totfact> 0.82347405E+02</totfact>
</mgrwt>
</event>
<event>
 6    1  0.1956957E-002  0.3000000E+03  0.7818608E-02  0.1093470E+00
          1   -1    0    0  502    0  0.00000000000E+00  0.00000000000E+00  0.10950937326E+02  0.10950937326E+02  0.00000000000E+00 0.  1.
         13   -1    0    0    0    0 -0.00000000000E+00 -0.00000000000E+00 -0.10000000000E+04  0.10000000000E+04  0.00000000000E+00 0.  1.
    9000005    2    1    2  501    0 -0.72147965820E+02 -0.13093254044E+02 -0.85509992872E+03  0.85824490352E+03  0.34152669991E+01 0.  0.
         13    1    3    3    0    0 -0.69865831993E+02 -0.12396492334E+02 -0.83292651350E+03  0.83594346961E+03  0.00000000000E+00 0.  1.
          3    1    3    3  501    0 -0.22821338274E+01 -0.69676171003E+00 -0.22173415225E+02  0.22301433910E+02  0.00000000000E+00 0.  1.
         21    1    1    2  502  501  0.72147965820E+02  0.13093254044E+02 -0.13394913395E+03  0.15270603380E+03  0.00000000000E+00 0.  1.
<mgrwt>
<rscale>  1 0.30000000E+03</rscale>
<asrwt>0</asrwt>
<pdfrwt beam="1">  1        1 0.39821674E-01 0.30000000E+03</pdfrwt>
<pdfrwt beam="2">0</pdfrwt>
<totfact> 0.11889809E+02</totfact>
</mgrwt>
</event>
<event>
 6    1  0.1956957E-002  0.3000000E+03  0.7818608E-02  0.1093470E+00
          3   -1    0    0  502    0  0.00000000000E+00  0.00000000000E+00  0.21205149623E+01  0.21205149623E+01  0.00000000000E+00 0.  1.
         13   -1    0    0    0    0 -0.00000000000E+00 -0.00000000000E+00 -0.10000000000E+04  0.10000000000E+04  0.00000000000E+00 0.  1.
    9000005    2    1    2  501    0  0.20006158892E-01  0.38492917404E+02 -0.77335930833E+03  0.77432452106E+03  0.34841123152E+01 0.  0.
         13    1    3    3    0    0  0.17466103267E+01  0.18128997093E+02 -0.36608217742E+03  0.36653495305E+03  0.00000000000E+00 0.  1.
          3    1    3    3  501    0 -0.17266041678E+01  0.20363920311E+02 -0.40727713091E+03  0.40778956801E+03  0.00000000000E+00 0.  1.
         21    1    1    2  502  501 -0.20006158892E-01 -0.38492917404E+02 -0.22452017670E+03  0.22779599390E+03  0.00000000000E+00 0.  1.
<mgrwt>
<rscale>  1 0.30000000E+03</rscale>
<asrwt>0</asrwt>
<pdfrwt beam="1">  1        3 0.77109798E-02 0.30000000E+03</pdfrwt>
<pdfrwt beam="2">0</pdfrwt>
<totfact> 0.50253264E+02</totfact>
</mgrwt>
</event>
<event>
 6    1  0.1956957E-002  0.3000000E+03  0.7818608E-02  0.1093470E+00
          3   -1    0    0  502    0  0.00000000000E+00  0.00000000000E+00  0.13133431157E+01  0.13133431157E+01  0.00000000000E+00 0.  1.
         13   -1    0    0    0    0 -0.00000000000E+00 -0.00000000000E+00 -0.10000000000E+04  0.10000000000E+04  0.00000000000E+00 0.  1.
    9000005    2    1    2  501    0  0.25945245590E+02 -0.24044052660E+02 -0.60459725310E+03  0.60563957546E+03  0.31913427090E+01 0.  0.
         13    1    3    3    0    0  0.14026067966E+02 -0.12756545796E+02 -0.29689221267E+03  0.29749696804E+03  0.00000000000E+00 0.  1.
          3    1    3    3  501    0  0.11919177624E+02 -0.11287506864E+02 -0.30770504043E+03  0.30814260743E+03  0.00000000000E+00 0.  1.
         21    1    1    2  502  501 -0.25945245590E+02  0.24044052660E+02 -0.39408940378E+03  0.39567376766E+03  0.00000000000E+00 0.  1.
<mgrwt>
<rscale>  1 0.30000000E+03</rscale>
<asrwt>0</asrwt>
<pdfrwt beam="1">  1        3 0.47758032E-02 0.30000000E+03</pdfrwt>
<pdfrwt beam="2">0</pdfrwt>
<totfact> 0.10619819E+03</totfact>
</mgrwt>
</event>
<event>
 6    1  0.1956957E-002  0.3000000E+03  0.7818608E-02  0.1093470E+00
          1   -1    0    0  502    0  0.00000000000E+00  0.00000000000E+00  0.31205523778E+01  0.31205523778E+01  0.00000000000E+00 0.  1.
         13   -1    0    0    0    0 -0.00000000000E+00 -0.00000000000E+00 -0.10000000000E+04  0.10000000000E+04  0.00000000000E+00 0.  1.
    9000005    2    1    2  501    0 -0.41786200749E+02  0.71639190260E+01 -0.82473939743E+03  0.82583658472E+03  0.36854683913E+01 0.  0.
         13    1    3    3    0    0 -0.35330020052E+02  0.73841289055E+01 -0.69637461797E+03  0.69730936049E+03  0.00000000000E+00 0.  1.
          3    1    3    3  501    0 -0.64561806975E+01 -0.22020987947E+00 -0.12836477946E+03  0.12852722423E+03  0.00000000000E+00 0.  1.
         21    1    1    2  502  501  0.41786200749E+02 -0.71639190260E+01 -0.17214005019E+03  0.17728396766E+03  0.00000000000E+00 0.  1.
<mgrwt>
<rscale>  1 0.30000000E+03</rscale>
<asrwt>0</asrwt>
<pdfrwt beam="1">  1        1 0.11347487E-01 0.30000000E+03</pdfrwt>
<pdfrwt beam="2">0</pdfrwt>
<totfact> 0.63505652E+02</totfact>
</mgrwt>
</event>
<event>
 6    1  0.1956957E-002  0.3000000E+03  0.7818608E-02  0.1093470E+00
          1   -1    0    0  502    0  0.00000000000E+00  0.00000000000E+00  0.24709103990E+02  0.24709103990E+02  0.00000000000E+00 0.  1.
         13   -1    0    0    0    0 -0.00000000000E+00 -0.00000000000E+00 -0.10000000000E+04  0.10000000000E+04  0.00000000000E+00 0.  1.
    9000005    2    1    2  501    0 -0.66612140944E+02  0.33623901107E+02 -0.93858513079E+03  0.94155228077E+03  0.33023695931E+01 0.  0.
         13    1    3    3    0    0 -0.14544366476E+02  0.70989997238E+01 -0.22102493926E+03  0.22161669199E+03  0.00000000000E+00 0.  1.
          1    1    3    3  501    0 -0.52067774469E+02  0.26524901383E+02 -0.71756019153E+03  0.71993558878E+03  0.00000000000E+00 0.  1.
         21    1    1    2  502  501  0.66612140944E+02 -0.33623901107E+02 -0.36705765220E+02  0.83156823215E+02  0.00000000000E+00 0.  1.
<mgrwt>
<rscale>  1 0.30000000E+03</rscale>
<asrwt>0</asrwt>
<pdfrwt beam="1">  1        1 0.89851477E-01 0.30000000E+03</pdfrwt>
<pdfrwt beam="2">0</pdfrwt>
<totfact> 0.39925221E+01</totfact>
</mgrwt>
</event>
<event>
 6    1  0.1956957E-002  0.3000000E+03  0.7818608E-02  0.1093470E+00
          1   -1    0    0  502    0  0.00000000000E+00  0.00000000000E+00  0.85910836987E+01  0.85910836987E+01  0.00000000000E+00 0.  1.
         13   -1    0    0    0    0 -0.00000000000E+00 -0.00000000000E+00 -0.10000000000E+04  0.10000000000E+04  0.00000000000E+00 0.  1.
    9000005    2    1    2  501    0  0.44849952759E+02  0.39889674845E+02 -0.87990471412E+03  0.88195818305E+03  0.39020894685E+01 0.  0.
         13    1    3    3    0    0  0.29958831378E+02  0.27417303819E+02 -0.62002688453E+03  0.62135543585E+03  0.00000000000E+00 0.  1.
          3    1    3    3  501    0  0.14891121382E+02  0.12472371025E+02 -0.25987782960E+03  0.26060274720E+03  0.00000000000E+00 0.  1.
         21    1    1    2  502  501 -0.44849952759E+02 -0.39889674845E+02 -0.11150420218E+03  0.12663290064E+03  0.00000000000E+00 0.  1.
<mgrwt>
<rscale>  1 0.30000000E+03</rscale>
<asrwt>0</asrwt>
<pdfrwt beam="1">  1        1 0.31240370E-01 0.30000000E+03</pdfrwt>
<pdfrwt beam="2">0</pdfrwt>
<totfact> 0.16330540E+02</totfact>
</mgrwt>
</event>
<event>
 6    1  0.1956957E-002  0.3000000E+03  0.7818608E-02  0.1093470E+00
          1   -1    0    0  502    0  0.00000000000E+00  0.00000000000E+00  0.70517689852E+01  0.70517689852E+01  0.00000000000E+00 0.  1.
         13   -1    0    0    0    0 -0.00000000000E+00 -0.00000000000E+00 -0.10000000000E+04  0.10000000000E+04  0.00000000000E+00 0.  1.
    9000005    2    1    2  501    0 -0.35579219082E+02  0.54638921056E+01 -0.95132690040E+03  0.95202386597E+03  0.55529287526E+01 0.  0.
         13    1    3    3    0    0 -0.29103933884E+02  0.39621243277E+01 -0.82432312090E+03  0.82484625540E+03  0.00000000000E+00 0.  1.
          1    1    3    3  501    0 -0.64752851973E+01  0.15017677779E+01 -0.12700377949E+03  0.12717761057E+03  0.00000000000E+00 0.  1.
         21    1    1    2  502  501  0.35579219082E+02 -0.54638921056E+01 -0.41621330618E+02  0.55027903011E+02  0.00000000000E+00 0.  1.
<mgrwt>
<rscale>  1 0.30000000E+03</rscale>
<asrwt>0</asrwt>
<pdfrwt beam="1">  1        1 0.25642850E-01 0.30000000E+03</pdfrwt>
<pdfrwt beam="2">0</pdfrwt>
<totfact> 0.21171301E+02</totfact>
</mgrwt>
</event>
<event>
 6    1  0.1956957E-002  0.3000000E+03  0.7818608E-02  0.1093470E+00
          3   -1    0    0  502    0  0.00000000000E+00  0.00000000000E+00  0.17073688681E+01  0.17073688681E+01  0.00000000000E+00 0.  1.
         13   -1    0    0    0    0 -0.00000000000E+00 -0.00000000000E+00 -0.10000000000E+04  0.10000000000E+04  0.00000000000E+00 0.  1.
    9000005    2    1    2  501    0 -0.47937161620E+01 -0.33743031478E+02 -0.78179599844E+03  0.78254449825E+03  0.30555991650E+01 0.  0.
         13    1    3    3    0    0 -0.12166151404E+01 -0.55896930478E+01 -0.15730395589E+03  0.15740793932E+03  0.00000000000E+00 0.  1.
          1    1    3    3  501    0 -0.35771010216E+01 -0.28153338430E+02 -0.62449204254E+03  0.62513655894E+03  0.00000000000E+00 0.  1.
         21    1    1    2  502  501  0.47937161620E+01  0.33743031478E+02 -0.21649663270E+03  0.21916287062E+03  0.00000000000E+00 0.  1.
<mgrwt>
<rscale>  1 0.30000000E+03</rscale>
<asrwt>0</asrwt>
<pdfrwt beam="1">  1        3 0.62086272E-02 0.30000000E+03</pdfrwt>
<pdfrwt beam="2">0</pdfrwt>
<totfact> 0.70696833E+02</totfact>
</mgrwt>
</event>
<event>
 6    1  0.1956957E-002  0.3000000E+03  0.7818608E-02  0.1093470E+00
          1   -1    0    0  502    0  0.00000000000E+00  0.00000000000E+00  0.48944266848E+01  0.48944266848E+01  0.00000000000E+00 0.  1.
         13   -1    0    0    0    0 -0.00000000000E+00 -0.00000000000E+00 -0.10000000000E+04  0.10000000000E+04  0.00000000000E+00 0.  1.
    9000005    2    1    2  501    0  0.29736981969E+02  0.15587801056E+02 -0.93832055019E+03  0.93892620335E+03  0.31133252071E+01 0.  0.
         13    1    3    3    0    0 -0.62487077804E-01 -0.34861424123E-01 -0.23437357109E+01  0.23448277199E+01  0.00000000000E+00 0.  1.
          3    1    3    3  501    0  0.29799469047E+02  0.15622662481E+02 -0.93597681448E+03  0.93658137563E+03  0.00000000000E+00 0.  1.
         21    1    1    2  502  501 -0.29736981969E+02 -0.15587801056E+02 -0.56785023128E+02  0.65968223335E+02  0.00000000000E+00 0.  1.
<mgrwt>
<rscale>  1 0.30000000E+03</rscale>
<asrwt>0</asrwt>
<pdfrwt beam="1">  1        1 0.17797953E-01 0.30000000E+03</pdfrwt>
<pdfrwt beam="2">0</pdfrwt>
<totfact> 0.34427192E+02</totfact>
</mgrwt>
</event>
<event>
 6    1  0.1956957E-002  0.3000000E+03  0.7818608E-02  0.1093470E+00
          1   -1    0    0  502    0  0.00000000000E+00  0.00000000000E+00  0.29284229307E+01  0.29284229307E+01  0.00000000000E+00 0.  1.
         13   -1    0    0    0    0 -0.00000000000E+00 -0.00000000000E+00 -0.10000000000E+04  0.10000000000E+04  0.00000000000E+00 0.  1.
    9000005    2    1    2  501    0  0.32175281242E+02 -0.11115592053E+02 -0.88823236971E+03  0.88888992869E+03  0.31237187613E+01 0.  0.
         13    1    3    3    0    0  0.56582074650E+01 -0.20917148488E+01 -0.19068488336E+03  0.19078028023E+03  0.00000000000E+00 0.  1.
          1    1    3    3  501    0  0.26517073777E+02 -0.90238772042E+01 -0.69754748635E+03  0.69810964846E+03  0.00000000000E+00 0.  1.
         21    1    1    2  502  501 -0.32175281242E+02  0.11115592053E+02 -0.10883920736E+03  0.11403849424E+03  0.00000000000E+00 0.  1.
<mgrwt>
<rscale>  1 0.30000000E+03</rscale>
<asrwt>0</asrwt>
<pdfrwt beam="1">  1        1 0.10648833E-01 0.30000000E+03</pdfrwt>
<pdfrwt beam="2">0</pdfrwt>
<totfact> 0.69301485E+02</totfact>
</mgrwt>
</event>
<event>
 6    1  0.1956957E-002  0.3000000E+03  0.7818608E-02  0.1093470E+00
          3   -1    0    0  502    0  0.00000000000E+00  0.00000000000E+00  0.43709746865E+01  0.43709746865E+01  0.00000000000E+00 0.  1.
         13   -1    0    0    0    0 -0.00000000000E+00 -0.00000000000E+00 -0.10000000000E+04  0.10000000000E+04  0.00000000000E+00 0.  1.
    9000005    2    1    2  501    0  0.62107231188E+02  0.10714501270E+02 -0.64807972916E+03  0.65115344687E+03  0.46224791465E+01 0.  0.
         13    1    3    3    0    0  0.45275017610E+02  0.85424148544E+01 -0.49270506123E+03  0.49485460232E+03  0.00000000000E+00 0.  1.
          3    1    3    3  501    0  0.16832213578E+02  0.21720864151E+01 -0.15537466793E+03  0.15629884455E+03  0.00000000000E+00 0.  1.
         21    1    1    2  502  501 -0.62107231188E+02 -0.10714501270E+02 -0.34754929615E+03  0.35321752782E+03  0.00000000000E+00 0.  1.
<mgrwt>
<rscale>  1 0.30000000E+03</rscale>
<asrwt>0</asrwt>
<pdfrwt beam="1">  1        3 0.15894487E-01 0.30000000E+03</pdfrwt>
<pdfrwt beam="2">0</pdfrwt>
<totfact> 0.15047954E+02</totfact>
</mgrwt>
</event>
<event>
 6    1  0.1956957E-002  0.3000000E+03  0.7818608E-02  0.1093470E+00
          3   -1    0    0  502    0  0.00000000000E+00  0.00000000000E+00  0.17361265615E+01  0.17361265615E+01  0.00000000000E+00 0.  1.
         13   -1    0    0    0    0 -0.00000000000E+00 -0.00000000000E+00 -0.10000000000E+04  0.10000000000E+04  0.00000000000E+00 0.  1.
    9000005    2    1    2  501    0 -0.32091690781E+02  0.77044161190E+01 -0.80433464804E+03  0.80501861562E+03  0.33927602934E+01 0.  0.
         13    1    3    3    0    0 -0.37798823158E+01  0.19968981437E+01 -0.94444130891E+02  0.94540832302E+02  0.00000000000E+00 0.  1.
          3    1    3    3  501    0 -0.28311808465E+02  0.57075179752E+01 -0.70989051715E+03  0.71047778332E+03  0.00000000000E+00 0.  1.
         21    1    1    2  502  501  0.32091690781E+02 -0.77044161190E+01 -0.19392922540E+03  0.19671751094E+03  0.00000000000E+00 0.  1.
<mgrwt>
<rscale>  1 0.30000000E+03</rscale>
<asrwt>0</asrwt>
<pdfrwt beam="1">  1        3 0.63132008E-02 0.30000000E+03</pdfrwt>
<pdfrwt beam="2">0</pdfrwt>
<totfact> 0.68875633E+02</totfact>
</mgrwt>
</event>
<event>
 6    1  0.1956957E-002  0.3000000E+03  0.7818608E-02  0.1093470E+00
          1   -1    0    0  502    0  0.00000000000E+00  0.00000000000E+00  0.10788463677E+01  0.10788463677E+01  0.00000000000E+00 0.  1.
         13   -1    0    0    0    0 -0.00000000000E+00 -0.00000000000E+00 -0.10000000000E+04  0.10000000000E+04  0.00000000000E+00 0.  1.
    9000005    2    1    2  501    0  0.29896820862E+02 -0.10283733687E+02 -0.63194940804E+03  0.63274769490E+03  0.31648075710E+01 0.  0.
         13    1    3    3    0    0  0.24337962260E+02 -0.82714974637E+01 -0.53641264102E+03  0.53702818876E+03  0.00000000000E+00 0.  1.
          3    1    3    3  501    0  0.55588586015E+01 -0.20122362230E+01 -0.95536767017E+02  0.95719506139E+02  0.00000000000E+00 0.  1.
         21    1    1    2  502  501 -0.29896820862E+02  0.10283733687E+02 -0.36697174559E+03  0.36833115146E+03  0.00000000000E+00 0.  1.
<mgrwt>
<rscale>  1 0.30000000E+03</rscale>
<asrwt>0</asrwt>
<pdfrwt beam="1">  1        1 0.39230860E-02 0.30000000E+03</pdfrwt>
<pdfrwt beam="2">0</pdfrwt>
<totfact> 0.27984126E+03</totfact>
</mgrwt>
</event>
<event>
 6    1  0.1956957E-002  0.3000000E+03  0.7818608E-02  0.1093470E+00
          1   -1    0    0  502    0  0.00000000000E+00  0.00000000000E+00  0.11530742571E+01  0.11530742571E+01  0.00000000000E+00 0.  1.
         13   -1    0    0    0    0 -0.00000000000E+00 -0.00000000000E+00 -0.10000000000E+04  0.10000000000E+04  0.00000000000E+00 0.  1.
    9000005    2    1    2  501    0  0.31665899342E+02 -0.11664518832E+02 -0.53449218757E+03  0.53557374369E+03  0.43065280772E+01 0.  0.
         13    1    3    3    0    0  0.12458869225E+02 -0.31749340569E+01 -0.17816575426E+03  0.17862905592E+03  0.00000000000E+00 0.  1.
          1    1    3    3  501    0  0.19207030117E+02 -0.84895847748E+01 -0.35632643331E+03  0.35694468777E+03  0.00000000000E+00 0.  1.
         21    1    1    2  502  501 -0.31665899342E+02  0.11664518832E+02 -0.46435473818E+03  0.46557933056E+03  0.00000000000E+00 0.  1.
<mgrwt>
<rscale>  1 0.30000000E+03</rscale>
<asrwt>0</asrwt>
<pdfrwt beam="1">  1        1 0.41930061E-02 0.30000000E+03</pdfrwt>
<pdfrwt beam="2">0</pdfrwt>
<totfact> 0.25481496E+03</totfact>
</mgrwt>
</event>
<event>
 6    1  0.1956957E-002  0.3000000E+03  0.7818608E-02  0.1093470E+00
          1   -1    0    0  502    0  0.00000000000E+00  0.00000000000E+00  0.17319289415E+01  0.17319289415E+01  0.00000000000E+00 0.  1.
         13   -1    0    0    0    0 -0.00000000000E+00 -0.00000000000E+00 -0.10000000000E+04  0.10000000000E+04  0.00000000000E+00 0.  1.
    9000005    2    1    2  501    0 -0.65962559323E+01 -0.32649212717E+02 -0.79903317752E+03  0.79973186833E+03  0.27496841384E+01 0.  0.
         13    1    3    3    0    0 -0.64180820426E+00 -0.32340424960E+01 -0.61494588659E+02  0.61582914700E+02  0.00000000000E+00 0.  1.
          3    1    3    3  501    0 -0.59544477280E+01 -0.29415170221E+02 -0.73753858886E+03  0.73814895363E+03  0.00000000000E+00 0.  1.
         21    1    1    2  502  501  0.65962559323E+01  0.32649212717E+02 -0.19923489354E+03  0.20200006061E+03  0.00000000000E+00 0.  1.
<mgrwt>
<rscale>  1 0.30000000E+03</rscale>
<asrwt>0</asrwt>
<pdfrwt beam="1">  1        1 0.62979367E-02 0.30000000E+03</pdfrwt>
<pdfrwt beam="2">0</pdfrwt>
<totfact> 0.14386818E+03</totfact>
</mgrwt>
</event>
<event>
 6    1  0.1956957E-002  0.3000000E+03  0.7818608E-02  0.1093470E+00
          1   -1    0    0  502    0  0.00000000000E+00  0.00000000000E+00  0.98968333679E+00  0.98968333679E+00  0.00000000000E+00 0.  1.
         13   -1    0    0    0    0 -0.00000000000E+00 -0.00000000000E+00 -0.10000000000E+04  0.10000000000E+04  0.00000000000E+00 0.  1.
    9000005    2    1    2  501    0 -0.22658955751E+02  0.20256302338E+02 -0.57872795315E+03  0.57960979400E+03  0.98855186739E+01 0.  0.
         13    1    3    3    0    0  0.25090180569E+00  0.99060071002E+00 -0.51009115428E+01  0.52022629739E+01  0.00000000000E+00 0.  1.
          1    1    3    3  501    0 -0.22909857557E+02  0.19265701628E+02 -0.57362704161E+03  0.57440753102E+03  0.00000000000E+00 0.  1.
         21    1    1    2  502  501  0.22658955751E+02 -0.20256302338E+02 -0.42028236351E+03  0.42137988934E+03  0.00000000000E+00 0.  1.
<mgrwt>
<rscale>  1 0.30000000E+03</rscale>
<asrwt>0</asrwt>
<pdfrwt beam="1">  1        1 0.35988561E-02 0.30000000E+03</pdfrwt>
<pdfrwt beam="2">0</pdfrwt>
<totfact> 0.31596415E+03</totfact>
</mgrwt>
</event>
<event>
 6    1  0.1956957E-002  0.3000000E+03  0.7818608E-02  0.1093470E+00
          1   -1    0    0  502    0  0.00000000000E+00  0.00000000000E+00  0.13718415428E+01  0.13718415428E+01  0.00000000000E+00 0.  1.
         13   -1    0    0    0    0 -0.00000000000E+00 -0.00000000000E+00 -0.10000000000E+04  0.10000000000E+04  0.00000000000E+00 0.  1.
    9000005    2    1    2  501    0  0.32225789512E+02  0.17616789877E+02 -0.44061292298E+03  0.44214929567E+03  0.27201035696E+01 0.  0.
         13    1    3    3    0    0  0.37828483222E+01  0.31147781456E+01 -0.57835636436E+02  0.58042851638E+02  0.00000000000E+00 0.  1.
          1    1    3    3  501    0  0.28442941189E+02  0.14502011731E+02 -0.38277728655E+03  0.38410644403E+03  0.00000000000E+00 0.  1.
         21    1    1    2  502  501 -0.32225789512E+02 -0.17616789877E+02 -0.55801523547E+03  0.55922254588E+03  0.00000000000E+00 0.  1.
<mgrwt>
<rscale>  1 0.30000000E+03</rscale>
<asrwt>0</asrwt>
<pdfrwt beam="1">  1        1 0.49885252E-02 0.30000000E+03</pdfrwt>
<pdfrwt beam="2">0</pdfrwt>
<totfact> 0.19955946E+03</totfact>
</mgrwt>
</event>
<event>
 6    1  0.1956957E-002  0.3000000E+03  0.7818608E-02  0.1093470E+00
          3   -1    0    0  502    0  0.00000000000E+00  0.00000000000E+00  0.23927853136E+01  0.23927853136E+01  0.00000000000E+00 0.  1.
         13   -1    0    0    0    0 -0.00000000000E+00 -0.00000000000E+00 -0.10000000000E+04  0.10000000000E+04  0.00000000000E+00 0.  1.
    9000005    2    1    2  501    0  0.12046505054E+02  0.34226355775E+02 -0.83460280897E+03  0.83539877944E+03  0.35651424857E+01 0.  0.
         13    1    3    3    0    0  0.35802865015E+00  0.22115063991E+01 -0.36597408502E+02  0.36665914064E+02  0.00000000000E+00 0.  1.
          1    1    3    3  501    0  0.11688476403E+02  0.32014849376E+02 -0.79800540047E+03  0.79873286538E+03  0.00000000000E+00 0.  1.
         21    1    1    2  502  501 -0.12046505054E+02 -0.34226355775E+02 -0.16300440572E+03  0.16699400587E+03  0.00000000000E+00 0.  1.
<mgrwt>
<rscale>  1 0.30000000E+03</rscale>
<asrwt>0</asrwt>
<pdfrwt beam="1">  1        3 0.87010559E-02 0.30000000E+03</pdfrwt>
<pdfrwt beam="2">0</pdfrwt>
<totfact> 0.41420144E+02</totfact>
</mgrwt>
</event>
<event>
 6    1  0.1956957E-002  0.3000000E+03  0.7818608E-02  0.1093470E+00
          1   -1    0    0  502    0  0.00000000000E+00  0.00000000000E+00  0.11849892579E+01  0.11849892579E+01  0.00000000000E+00 0.  1.
         13   -1    0    0    0    0 -0.00000000000E+00 -0.00000000000E+00 -0.10000000000E+04  0.10000000000E+04  0.00000000000E+00 0.  1.
    9000005    2    1    2  501    0 -0.33711709773E+02 -0.18348968011E+01 -0.58827114304E+03  0.58925524582E+03  0.43543965255E+01 0.  0.
         13    1    3    3    0    0 -0.31131249092E+02 -0.55723438730E+00 -0.53173920438E+03  0.53265002268E+03  0.00000000000E+00 0.  1.
          1    1    3    3  501    0 -0.25804606816E+01 -0.12776624138E+01 -0.56531938659E+02  0.56605223143E+02  0.00000000000E+00 0.  1.
         21    1    1    2  502  501  0.33711709773E+02  0.18348968011E+01 -0.41054386770E+03  0.41192974344E+03  0.00000000000E+00 0.  1.
<mgrwt>
<rscale>  1 0.30000000E+03</rscale>
<asrwt>0</asrwt>
<pdfrwt beam="1">  1        1 0.43090609E-02 0.30000000E+03</pdfrwt>
<pdfrwt beam="2">0</pdfrwt>
<totfact> 0.24520602E+03</totfact>
</mgrwt>
</event>
<event>
 6    1  0.1956957E-002  0.3000000E+03  0.7818608E-02  0.1093470E+00
          3   -1    0    0  502    0  0.00000000000E+00  0.00000000000E+00  0.18626238556E+01  0.18626238556E+01  0.00000000000E+00 0.  1.
         13   -1    0    0    0    0 -0.00000000000E+00 -0.00000000000E+00 -0.10000000000E+04  0.10000000000E+04  0.00000000000E+00 0.  1.
    9000005    2    1    2  501    0 -0.23009866647E+02 -0.24428922426E+02 -0.81361097578E+03  0.81430938169E+03  0.32745977878E+01 0.  0.
         13    1    3    3    0    0 -0.19605741645E+02 -0.21503380083E+02 -0.67810120160E+03  0.67872529058E+03  0.00000000000E+00 0.  1.
          1    1    3    3  501    0 -0.34041250028E+01 -0.29255423424E+01 -0.13550977418E+03  0.13558409111E+03  0.00000000000E+00 0.  1.
         21    1    1    2  502  501  0.23009866647E+02  0.24428922426E+02 -0.18452640037E+03  0.18755324216E+03  0.00000000000E+00 0.  1.
<mgrwt>
<rscale>  1 0.30000000E+03</rscale>
<asrwt>0</asrwt>
<pdfrwt beam="1">  1        3 0.67731919E-02 0.30000000E+03</pdfrwt>
<pdfrwt beam="2">0</pdfrwt>
<totfact> 0.61689747E+02</totfact>
</mgrwt>
</event>
<event>
 6    1  0.1956957E-002  0.3000000E+03  0.7818608E-02  0.1093470E+00
          1   -1    0    0  502    0  0.00000000000E+00  0.00000000000E+00  0.15201328291E+01  0.15201328291E+01  0.00000000000E+00 0.  1.
         13   -1    0    0    0    0 -0.00000000000E+00 -0.00000000000E+00 -0.10000000000E+04  0.10000000000E+04  0.00000000000E+00 0.  1.
    9000005    2    1    2  501    0 -0.13459361799E+02  0.31284902520E+02 -0.74215063352E+03  0.74293827815E+03  0.31341281263E+01 0.  0.
         13    1    3    3    0    0 -0.91641628642E+01  0.18113159781E+02 -0.42171323935E+03  0.42220152141E+03  0.00000000000E+00 0.  1.
          1    1    3    3  501    0 -0.42951989344E+01  0.13171742740E+02 -0.32043739417E+03  0.32073675673E+03  0.00000000000E+00 0.  1.
         21    1    1    2  502  501  0.13459361799E+02 -0.31284902520E+02 -0.25632923365E+03  0.25858185468E+03  0.00000000000E+00 0.  1.
<mgrwt>
<rscale>  1 0.30000000E+03</rscale>
<asrwt>0</asrwt>
<pdfrwt beam="1">  1        1 0.55277674E-02 0.30000000E+03</pdfrwt>
<pdfrwt beam="2">0</pdfrwt>
<totfact> 0.17276191E+03</totfact>
</mgrwt>
</event>
<event>
 6    1  0.1956957E-002  0.3000000E+03  0.7818608E-02  0.1093470E+00
          1   -1    0    0  502    0  0.00000000000E+00  0.00000000000E+00  0.11225989063E+01  0.11225989063E+01  0.00000000000E+00 0.  1.
         13   -1    0    0    0    0 -0.00000000000E+00 -0.00000000000E+00 -0.10000000000E+04  0.10000000000E+04  0.00000000000E+00 0.  1.
    9000005    2    1    2  501    0  0.74247679010E+01  0.30220896979E+02 -0.31905125054E+03  0.32058455826E+03  0.35112290987E+01 0.  0.
         13    1    3    3    0    0  0.44689283547E+01  0.23957784728E+02 -0.25314477707E+03  0.25431520782E+03  0.00000000000E+00 0.  1.
          1    1    3    3  501    0  0.29558395462E+01  0.62631122511E+01 -0.65906473475E+02  0.66269350445E+02  0.00000000000E+00 0.  1.
         21    1    1    2  502  501 -0.74247679010E+01 -0.30220896979E+02 -0.67982615055E+03  0.68053804064E+03  0.00000000000E+00 0.  1.
<mgrwt>
<rscale>  1 0.30000000E+03</rscale>
<asrwt>0</asrwt>
<pdfrwt beam="1">  1        1 0.40821864E-02 0.30000000E+03</pdfrwt>
<pdfrwt beam="2">0</pdfrwt>
<totfact> 0.26460840E+03</totfact>
</mgrwt>
</event>
<event>
 6    1  0.1956957E-002  0.3000000E+03  0.7818608E-02  0.1093470E+00
          1   -1    0    0  502    0  0.00000000000E+00  0.00000000000E+00  0.19414304534E+01  0.19414304534E+01  0.00000000000E+00 0.  1.
         13   -1    0    0    0    0 -0.00000000000E+00 -0.00000000000E+00 -0.10000000000E+04  0.10000000000E+04  0.00000000000E+00 0.  1.
    9000005    2    1    2  501    0 -0.74882365870E+01 -0.36968394776E+02 -0.75730280333E+03  0.75824884775E+03  0.33231429173E+01 0.  0.
         13    1    3    3    0    0 -0.57493798066E+00 -0.32932633287E+01 -0.88471253803E+02  0.88534393806E+02  0.00000000000E+00 0.  1.
          1    1    3    3  501    0 -0.69132986063E+01 -0.33675131448E+02 -0.66883154953E+03  0.66971445394E+03  0.00000000000E+00 0.  1.
         21    1    1    2  502  501  0.74882365870E+01  0.36968394776E+02 -0.24075576622E+03  0.24369258271E+03  0.00000000000E+00 0.  1.
<mgrwt>
<rscale>  1 0.30000000E+03</rscale>
<asrwt>0</asrwt>
<pdfrwt beam="1">  1        1 0.70597620E-02 0.30000000E+03</pdfrwt>
<pdfrwt beam="2">0</pdfrwt>
<totfact> 0.12261502E+03</totfact>
</mgrwt>
</event>
<event>
 6    1  0.1956957E-002  0.3000000E+03  0.7818608E-02  0.1093470E+00
          1   -1    0    0  502    0  0.00000000000E+00  0.00000000000E+00  0.40877818533E+01  0.40877818533E+01  0.00000000000E+00 0.  1.
         13   -1    0    0    0    0 -0.00000000000E+00 -0.00000000000E+00 -0.10000000000E+04  0.10000000000E+04  0.00000000000E+00 0.  1.
    9000005    2    1    2  501    0  0.29231996740E+02 -0.24060188888E+02 -0.90244994569E+03  0.90324831193E+03  0.28646458042E+01 0.  0.
         13    1    3    3    0    0  0.13986303682E+02 -0.13325066555E+02 -0.46637681369E+03  0.46677672011E+03  0.00000000000E+00 0.  1.
          3    1    3    3  501    0  0.15245693058E+02 -0.10735122333E+02 -0.43607313201E+03  0.43647159182E+03  0.00000000000E+00 0.  1.
         21    1    1    2  502  501 -0.29231996740E+02  0.24060188888E+02 -0.93462272452E+02  0.10083946992E+03  0.00000000000E+00 0.  1.
<mgrwt>
<rscale>  1 0.30000000E+03</rscale>
<asrwt>0</asrwt>
<pdfrwt beam="1">  1        1 0.14864693E-01 0.30000000E+03</pdfrwt>
<pdfrwt beam="2">0</pdfrwt>
<totfact> 0.43917508E+02</totfact>
</mgrwt>
</event>
<event>
 6    1  0.1956957E-002  0.3000000E+03  0.7818608E-02  0.1093470E+00
          3   -1    0    0  502    0  0.00000000000E+00  0.00000000000E+00  0.12502973769E+01  0.12502973769E+01  0.00000000000E+00 0.  1.
         13   -1    0    0    0    0 -0.00000000000E+00 -0.00000000000E+00 -0.10000000000E+04  0.10000000000E+04  0.00000000000E+00 0.  1.
    9000005    2    1    2  501    0 -0.13411662119E+02 -0.31627952693E+02 -0.61262778872E+03  0.61360312214E+03  0.39728977604E+01 0.  0.
         13    1    3    3    0    0 -0.12869176241E+02 -0.29793701166E+02 -0.59119994532E+03  0.59209007395E+03  0.00000000000E+00 0.  1.
          3    1    3    3  501    0 -0.54248587784E+00 -0.18342515264E+01 -0.21427843397E+02  0.21513048186E+02  0.00000000000E+00 0.  1.
         21    1    1    2  502  501  0.13411662119E+02  0.31627952693E+02 -0.38612191391E+03  0.38764717524E+03  0.00000000000E+00 0.  1.
<mgrwt>
<rscale>  1 0.30000000E+03</rscale>
<asrwt>0</asrwt>
<pdfrwt beam="1">  1        3 0.45465455E-02 0.30000000E+03</pdfrwt>
<pdfrwt beam="2">0</pdfrwt>
<totfact> 0.11457538E+03</totfact>
</mgrwt>
</event>
<event>
 6    1  0.1956957E-002  0.3000000E+03  0.7818608E-02  0.1093470E+00
          1   -1    0    0  502    0  0.00000000000E+00  0.00000000000E+00  0.15142574600E+01  0.15142574600E+01  0.00000000000E+00 0.  1.
         13   -1    0    0    0    0 -0.00000000000E+00 -0.00000000000E+00 -0.10000000000E+04  0.10000000000E+04  0.00000000000E+00 0.  1.
    9000005    2    1    2  501    0 -0.58618812108E+01  0.37718003011E+02 -0.40787557198E+03  0.40967189418E+03  0.34013617060E+01 0.  0.
         13    1    3    3    0    0 -0.84125378109E+00  0.13378707504E+01 -0.19403650676E+02  0.19467903473E+02  0.00000000000E+00 0.  1.
          1    1    3    3  501    0 -0.50206274297E+01  0.36380132261E+02 -0.38847192130E+03  0.39020399071E+03  0.00000000000E+00 0.  1.
         21    1    1    2  502  501  0.58618812108E+01 -0.37718003011E+02 -0.59061017056E+03  0.59184236328E+03  0.00000000000E+00 0.  1.
<mgrwt>
<rscale>  1 0.30000000E+03</rscale>
<asrwt>0</asrwt>
<pdfrwt beam="1">  1        1 0.55064024E-02 0.30000000E+03</pdfrwt>
<pdfrwt beam="2">0</pdfrwt>
<totfact> 0.17370390E+03</totfact>
</mgrwt>
</event>
<event>
 6    1  0.1956957E-002  0.3000000E+03  0.7818608E-02  0.1093470E+00
          3   -1    0    0  502    0  0.00000000000E+00  0.00000000000E+00  0.31626885034E+01  0.31626885034E+01  0.00000000000E+00 0.  1.
         13   -1    0    0    0    0 -0.00000000000E+00 -0.00000000000E+00 -0.10000000000E+04  0.10000000000E+04  0.00000000000E+00 0.  1.
    9000005    2    1    2  501    0 -0.32443935896E+02 -0.25700264905E+02 -0.83779413662E+03  0.83882205424E+03  0.32110349753E+01 0.  0.
         13    1    3    3    0    0 -0.96184058303E+01 -0.65211404880E+01 -0.21227990655E+03  0.21259773688E+03  0.00000000000E+00 0.  1.
          1    1    3    3  501    0 -0.22825530066E+02 -0.19179124417E+02 -0.62551423007E+03  0.62622431736E+03  0.00000000000E+00 0.  1.
         21    1    1    2  502  501  0.32443935896E+02  0.25700264905E+02 -0.15904317488E+03  0.16434063426E+03  0.00000000000E+00 0.  1.
<mgrwt>
<rscale>  1 0.30000000E+03</rscale>
<asrwt>0</asrwt>
<pdfrwt beam="1">  1        3 0.11500710E-01 0.30000000E+03</pdfrwt>
<pdfrwt beam="2">0</pdfrwt>
<totfact> 0.26167514E+02</totfact>
</mgrwt>
</event>
<event>
 6    1  0.1956957E-002  0.3000000E+03  0.7818608E-02  0.1093470E+00
          1   -1    0    0  502    0  0.00000000000E+00  0.00000000000E+00  0.24817024539E+01  0.24817024539E+01  0.00000000000E+00 0.  1.
         13   -1    0    0    0    0 -0.00000000000E+00 -0.00000000000E+00 -0.10000000000E+04  0.10000000000E+04  0.00000000000E+00 0.  1.
    9000005    2    1    2  501    0  0.17926908113E+02  0.32018496690E+02 -0.83744996805E+03  0.83826103301E+03  0.35429242078E+01 0.  0.
         13    1    3    3    0    0  0.13237160389E+02  0.22107206817E+02 -0.61894357308E+03  0.61947969915E+03  0.00000000000E+00 0.  1.
          3    1    3    3  501    0  0.46897477238E+01  0.99112898737E+01 -0.21850639497E+03  0.21878133385E+03  0.00000000000E+00 0.  1.
         21    1    1    2  502  501 -0.17926908113E+02 -0.32018496690E+02 -0.16006832950E+03  0.16422066945E+03  0.00000000000E+00 0.  1.
<mgrwt>
<rscale>  1 0.30000000E+03</rscale>
<asrwt>0</asrwt>
<pdfrwt beam="1">  1        1 0.90243916E-02 0.30000000E+03</pdfrwt>
<pdfrwt beam="2">0</pdfrwt>
<totfact> 0.87109971E+02</totfact>
</mgrwt>
</event>
<event>
 6    1  0.1956957E-002  0.3000000E+03  0.7818608E-02  0.1093470E+00
          3   -1    0    0  502    0  0.00000000000E+00  0.00000000000E+00  0.11612804015E+01  0.11612804015E+01  0.00000000000E+00 0.  1.
         13   -1    0    0    0    0 -0.00000000000E+00 -0.00000000000E+00 -0.10000000000E+04  0.10000000000E+04  0.00000000000E+00 0.  1.
    9000005    2    1    2  501    0 -0.31555578736E+02 -0.11310474558E+02 -0.42704543880E+03  0.42838624834E+03  0.48259283920E+01 0.  0.
         13    1    3    3    0    0 -0.17805060381E+02 -0.85051550437E+01 -0.23304486382E+03  0.23387874292E+03  0.00000000000E+00 0.  1.
          3    1    3    3  501    0 -0.13750518355E+02 -0.28053195148E+01 -0.19400057498E+03  0.19450750542E+03  0.00000000000E+00 0.  1.
         21    1    1    2  502  501  0.31555578736E+02  0.11310474558E+02 -0.57179328080E+03  0.57277503206E+03  0.00000000000E+00 0.  1.
<mgrwt>
<rscale>  1 0.30000000E+03</rscale>
<asrwt>0</asrwt>
<pdfrwt beam="1">  1        3 0.42228467E-02 0.30000000E+03</pdfrwt>
<pdfrwt beam="2">0</pdfrwt>
<totfact> 0.12837636E+03</totfact>
</mgrwt>
</event>
<event>
 6    1  0.1956957E-002  0.3000000E+03  0.7818608E-02  0.1093470E+00
          3   -1    0    0  502    0  0.00000000000E+00  0.00000000000E+00  0.17841643188E+01  0.17841643188E+01  0.00000000000E+00 0.  1.
         13   -1    0    0    0    0 -0.00000000000E+00 -0.00000000000E+00 -0.10000000000E+04  0.10000000000E+04  0.00000000000E+00 0.  1.
    9000005    2    1    2  501    0  0.59444186496E+01 -0.41329086175E+02 -0.42917383966E+03  0.43121232598E+03  0.32335654704E+01 0.  0.
         13    1    3    3    0    0  0.20552359143E+01 -0.10775190686E+02 -0.99514007386E+02  0.10011676381E+03  0.00000000000E+00 0.  1.
          1    1    3    3  501    0  0.38891827353E+01 -0.30553895489E+02 -0.32965983228E+03  0.33109556217E+03  0.00000000000E+00 0.  1.
         21    1    1    2  502  501 -0.59444186496E+01  0.41329086175E+02 -0.56904199602E+03  0.57057183834E+03  0.00000000000E+00 0.  1.
<mgrwt>
<rscale>  1 0.30000000E+03</rscale>
<asrwt>0</asrwt>
<pdfrwt beam="1">  1        3 0.64878839E-02 0.30000000E+03</pdfrwt>
<pdfrwt beam="2">0</pdfrwt>
<totfact> 0.65996672E+02</totfact>
</mgrwt>
</event>
<event>
 6    1  0.1956957E-002  0.3000000E+03  0.7818608E-02  0.1093470E+00
          3   -1    0    0  502    0  0.00000000000E+00  0.00000000000E+00  0.64827011219E+01  0.64827011219E+01  0.00000000000E+00 0.  1.
         13   -1    0    0    0    0 -0.00000000000E+00 -0.00000000000E+00 -0.10000000000E+04  0.10000000000E+04  0.00000000000E+00 0.  1.
    9000005    2    1    2  501    0 -0.27204154347E+02  0.60056780723E+02 -0.78543697426E+03  0.78820694796E+03  0.34740978544E+01 0.  0.
         13    1    3    3    0    0 -0.14111282553E+02  0.31686197669E+02 -0.39261265432E+03  0.39414190306E+03  0.00000000000E+00 0.  1.
          3    1    3    3  501    0 -0.13092871793E+02  0.28370583054E+02 -0.39282431994E+03  0.39406504489E+03  0.00000000000E+00 0.  1.
         21    1    1    2  502  501  0.27204154347E+02 -0.60056780723E+02 -0.20808032462E+03  0.21827575316E+03  0.00000000000E+00 0.  1.
<mgrwt>
<rscale>  1 0.30000000E+03</rscale>
<asrwt>0</asrwt>
<pdfrwt beam="1">  1        3 0.23573508E-01 0.30000000E+03</pdfrwt>
<pdfrwt beam="2">0</pdfrwt>
<totfact> 0.73722712E+01</totfact>
</mgrwt>
</event>
<event>
 6    1  0.1956957E-002  0.3000000E+03  0.7818608E-02  0.1093470E+00
          1   -1    0    0  502    0  0.00000000000E+00  0.00000000000E+00  0.19800785760E+01  0.19800785760E+01  0.00000000000E+00 0.  1.
         13   -1    0    0    0    0 -0.00000000000E+00 -0.00000000000E+00 -0.10000000000E+04  0.10000000000E+04  0.00000000000E+00 0.  1.
    9000005    2    1    2  501    0 -0.20700469986E+02 -0.35865705907E+02 -0.32141332981E+03  0.32410742229E+03  0.49228334580E+01 0.  0.
         13    1    3    3    0    0 -0.19235592208E+02 -0.32176160801E+02 -0.27867246606E+03  0.28118260378E+03  0.00000000000E+00 0.  1.
          1    1    3    3  501    0 -0.14648777781E+01 -0.36895451061E+01 -0.42740863748E+02  0.42924818508E+02  0.00000000000E+00 0.  1.
         21    1    1    2  502  501  0.20700469986E+02  0.35865705907E+02 -0.67660659162E+03  0.67787265628E+03  0.00000000000E+00 0.  1.
<mgrwt>
<rscale>  1 0.30000000E+03</rscale>
<asrwt>0</asrwt>
<pdfrwt beam="1">  1        1 0.72003009E-02 0.30000000E+03</pdfrwt>
<pdfrwt beam="2">0</pdfrwt>
<totfact> 0.11928302E+03</totfact>
</mgrwt>
</event>
<event>
 6    1  0.1956957E-002  0.3000000E+03  0.7818608E-02  0.1093470E+00
          3   -1    0    0  502    0  0.00000000000E+00  0.00000000000E+00  0.39449874814E+01  0.39449874814E+01  0.00000000000E+00 0.  1.
         13   -1    0    0    0    0 -0.00000000000E+00 -0.00000000000E+00 -0.10000000000E+04  0.10000000000E+04  0.00000000000E+00 0.  1.
    9000005    2    1    2  501    0  0.61238754836E+02 -0.12204107729E+02 -0.44764462767E+03  0.45199111663E+03  0.33363887896E+01 0.  0.
         13    1    3    3    0    0  0.56054427797E+02 -0.10205866923E+02 -0.40790276300E+03  0.41186274735E+03  0.00000000000E+00 0.  1.
          1    1    3    3  501    0  0.51843270389E+01 -0.19982408065E+01 -0.39741864671E+02  0.40128369275E+02  0.00000000000E+00 0.  1.
         21    1    1    2  502  501 -0.61238754836E+02  0.12204107729E+02 -0.54841038485E+03  0.55195387085E+03  0.00000000000E+00 0.  1.
<mgrwt>
<rscale>  1 0.30000000E+03</rscale>
<asrwt>0</asrwt>
<pdfrwt beam="1">  1        3 0.14345439E-01 0.30000000E+03</pdfrwt>
<pdfrwt beam="2">0</pdfrwt>
<totfact> 0.17977425E+02</totfact>
</mgrwt>
</event>
<event>
 6    1  0.1956957E-002  0.3000000E+03  0.7818608E-02  0.1093470E+00
          3   -1    0    0  502    0  0.00000000000E+00  0.00000000000E+00  0.28117137774E+01  0.28117137774E+01  0.00000000000E+00 0.  1.
         13   -1    0    0    0    0 -0.00000000000E+00 -0.00000000000E+00 -0.10000000000E+04  0.10000000000E+04  0.00000000000E+00 0.  1.
    9000005    2    1    2  501    0 -0.31086007188E+02 -0.62095759823E+01 -0.90039689898E+03  0.90096147411E+03  0.34790017864E+01 0.  0.
         13    1    3    3    0    0 -0.27519924741E+02 -0.53519964374E+01 -0.82362070052E+03  0.82409771778E+03  0.00000000000E+00 0.  1.
          3    1    3    3  501    0 -0.35660824471E+01 -0.85757954486E+00 -0.76776198462E+02  0.76863756329E+02  0.00000000000E+00 0.  1.
         21    1    1    2  502  501  0.31086007188E+02  0.62095759823E+01 -0.96791387238E+02  0.10185023967E+03  0.00000000000E+00 0.  1.
<mgrwt>
<rscale>  1 0.30000000E+03</rscale>
<asrwt>0</asrwt>
<pdfrwt beam="1">  1        3 0.10224435E-01 0.30000000E+03</pdfrwt>
<pdfrwt beam="2">0</pdfrwt>
<totfact> 0.31836369E+02</totfact>
</mgrwt>
</event>
<event>
 6    1  0.1956957E-002  0.3000000E+03  0.7818608E-02  0.1093470E+00
          3   -1    0    0  502    0  0.00000000000E+00  0.00000000000E+00  0.13517812303E+02  0.13517812303E+02  0.00000000000E+00 0.  1.
         13   -1    0    0    0    0 -0.00000000000E+00 -0.00000000000E+00 -0.10000000000E+04  0.10000000000E+04  0.00000000000E+00 0.  1.
    9000005    2    1    2  501    0  0.76135676192E+02  0.28292551395E+02 -0.85578753449E+03  0.85964058192E+03  0.35378300425E+01 0.  0.
         13    1    3    3    0    0  0.31597367287E+02  0.12473576901E+02 -0.37494911065E+03  0.37648481951E+03  0.00000000000E+00 0.  1.
          1    1    3    3  501    0  0.44538308905E+02  0.15818974494E+02 -0.48083842384E+03  0.48315576242E+03  0.00000000000E+00 0.  1.
         21    1    1    2  502  501 -0.76135676192E+02 -0.28292551395E+02 -0.13069465320E+03  0.15387723038E+03  0.00000000000E+00 0.  1.
<mgrwt>
<rscale>  1 0.30000000E+03</rscale>
<asrwt>0</asrwt>
<pdfrwt beam="1">  1        3 0.49155785E-01 0.30000000E+03</pdfrwt>
<pdfrwt beam="2">0</pdfrwt>
<totfact> 0.18049838E+01</totfact>
</mgrwt>
</event>
<event>
 6    1  0.1956957E-002  0.3000000E+03  0.7818608E-02  0.1093470E+00
          1   -1    0    0  502    0  0.00000000000E+00  0.00000000000E+00  0.20726269708E+01  0.20726269708E+01  0.00000000000E+00 0.  1.
         13   -1    0    0    0    0 -0.00000000000E+00 -0.00000000000E+00 -0.10000000000E+04  0.10000000000E+04  0.00000000000E+00 0.  1.
    9000005    2    1    2  501    0 -0.12357253587E+01 -0.43854057459E+02 -0.63109008149E+03  0.63262127180E+03  0.32058084459E+01 0.  0.
         13    1    3    3    0    0 -0.24445725522E-01 -0.35421590455E+02 -0.51998300789E+03  0.52118808329E+03  0.00000000000E+00 0.  1.
          3    1    3    3  501    0 -0.12112796332E+01 -0.84324670033E+01 -0.11110707360E+03  0.11143318851E+03  0.00000000000E+00 0.  1.
         21    1    1    2  502  501  0.12357253587E+01  0.43854057459E+02 -0.36683729154E+03  0.36945135517E+03  0.00000000000E+00 0.  1.
<mgrwt>
<rscale>  1 0.30000000E+03</rscale>
<asrwt>0</asrwt>
<pdfrwt beam="1">  1        1 0.75368412E-02 0.30000000E+03</pdfrwt>
<pdfrwt beam="2">0</pdfrwt>
<totfact> 0.11191123E+03</totfact>
</mgrwt>
</event>
<event>
 6    1  0.1956957E-002  0.3000000E+03  0.7818608E-02  0.1093470E+00
          3   -1    0    0  502    0  0.00000000000E+00  0.00000000000E+00  0.16735230868E+01  0.16735230868E+01  0.00000000000E+00 0.  1.
         13   -1    0    0    0    0 -0.00000000000E+00 -0.00000000000E+00 -0.10000000000E+04  0.10000000000E+04  0.00000000000E+00 0.  1.
    9000005    2    1    2  501    0 -0.13391589117E+02 -0.35619777143E+02 -0.68084800942E+03  0.68192255670E+03  0.40321487655E+01 0.  0.
         13    1    3    3    0    0 -0.22104906016E+01 -0.29719328249E+01 -0.77474627066E+02  0.77563112962E+02  0.00000000000E+00 0.  1.
          1    1    3    3  501    0 -0.11181098515E+02 -0.32647844318E+02 -0.60337338236E+03  0.60435944374E+03  0.00000000000E+00 0.  1.
         21    1    1    2  502  501  0.13391589117E+02  0.35619777143E+02 -0.31747846749E+03  0.31975096638E+03  0.00000000000E+00 0.  1.
<mgrwt>
<rscale>  1 0.30000000E+03</rscale>
<asrwt>0</asrwt>
<pdfrwt beam="1">  1        3 0.60855513E-02 0.30000000E+03</pdfrwt>
<pdfrwt beam="2">0</pdfrwt>
<totfact> 0.72941582E+02</totfact>
</mgrwt>
</event>
<event>
 6    1  0.1956957E-002  0.3000000E+03  0.7818608E-02  0.1093470E+00
          1   -1    0    0  502    0  0.00000000000E+00  0.00000000000E+00  0.11734558957E+01  0.11734558957E+01  0.00000000000E+00 0.  1.
         13   -1    0    0    0    0 -0.00000000000E+00 -0.00000000000E+00 -0.10000000000E+04  0.10000000000E+04  0.00000000000E+00 0.  1.
    9000005    2    1    2  501    0  0.16965579835E+02 -0.28925840808E+02 -0.58256353411E+03  0.58356187960E+03  0.62976887322E+01 0.  0.
         13    1    3    3    0    0  0.55978696723E+01 -0.14004417886E+02 -0.29725626535E+03  0.29763861839E+03  0.00000000000E+00 0.  1.
          3    1    3    3  501    0  0.11367710162E+02 -0.14921422922E+02 -0.28530726875E+03  0.28592326121E+03  0.00000000000E+00 0.  1.
         21    1    1    2  502  501 -0.16965579835E+02  0.28925840808E+02 -0.41626301000E+03  0.41761157630E+03  0.00000000000E+00 0.  1.
<mgrwt>
<rscale>  1 0.30000000E+03</rscale>
<asrwt>0</asrwt>
<pdfrwt beam="1">  1        1 0.42671213E-02 0.30000000E+03</pdfrwt>
<pdfrwt beam="2">0</pdfrwt>
<totfact> 0.24860579E+03</totfact>
</mgrwt>
</event>
<event>
 6    1  0.1956957E-002  0.3000000E+03  0.7818608E-02  0.1093470E+00
          1   -1    0    0  502    0  0.00000000000E+00  0.00000000000E+00  0.32501686272E+01  0.32501686272E+01  0.00000000000E+00 0.  1.
         13   -1    0    0    0    0 -0.00000000000E+00 -0.00000000000E+00 -0.10000000000E+04  0.10000000000E+04  0.00000000000E+00 0.  1.
    9000005    2    1    2  501    0 -0.50992171002E+02  0.30941355019E+01 -0.71985139434E+03  0.72167865088E+03  0.49264609606E+01 0.  0.
         13    1    3    3    0    0 -0.45553329017E+02  0.42469244442E+01 -0.63678220294E+03  0.63842361809E+03  0.00000000000E+00 0.  1.
          3    1    3    3  501    0 -0.54388419851E+01 -0.11527889423E+01 -0.83069191398E+02  0.83255032785E+02  0.00000000000E+00 0.  1.
         21    1    1    2  502  501  0.50992171002E+02 -0.30941355019E+01 -0.27689843703E+03  0.28157151775E+03  0.00000000000E+00 0.  1.
<mgrwt>
<rscale>  1 0.30000000E+03</rscale>
<asrwt>0</asrwt>
<pdfrwt beam="1">  1        1 0.11818820E-01 0.30000000E+03</pdfrwt>
<pdfrwt beam="2">0</pdfrwt>
<totfact> 0.60056939E+02</totfact>
</mgrwt>
</event>
<event>
 6    1  0.1956957E-002  0.3000000E+03  0.7818608E-02  0.1093470E+00
          1   -1    0    0  502    0  0.00000000000E+00  0.00000000000E+00  0.67050967079E+02  0.67050967079E+02  0.00000000000E+00 0.  1.
         13   -1    0    0    0    0 -0.00000000000E+00 -0.00000000000E+00 -0.10000000000E+04  0.10000000000E+04  0.00000000000E+00 0.  1.
    9000005    2    1    2  501    0  0.60865430958E+02  0.18327084772E+02 -0.98367239501E+03  0.98572850903E+03  0.29715466844E+01 0.  0.
         13    1    3    3    0    0  0.22337892948E+02  0.53616258166E+01 -0.34632739463E+03  0.34708845092E+03  0.00000000000E+00 0.  1.
          3    1    3    3  501    0  0.38527538010E+02  0.12965458955E+02 -0.63734500038E+03  0.63864005811E+03  0.00000000000E+00 0.  1.
         21    1    1    2  502  501 -0.60865430958E+02 -0.18327084772E+02  0.50723362087E+02  0.81322458050E+02  0.00000000000E+00 0.  1.
<mgrwt>
<rscale>  1 0.30000000E+03</rscale>
<asrwt>0</asrwt>
<pdfrwt beam="1">  1        1 0.24382221E+00 0.30000000E+03</pdfrwt>
<pdfrwt beam="2">0</pdfrwt>
<totfact> 0.63754810E+00</totfact>
</mgrwt>
</event>
<event>
 6    1  0.1956957E-002  0.3000000E+03  0.7818608E-02  0.1093470E+00
          3   -1    0    0  502    0  0.00000000000E+00  0.00000000000E+00  0.27342563128E+01  0.27342563128E+01  0.00000000000E+00 0.  1.
         13   -1    0    0    0    0 -0.00000000000E+00 -0.00000000000E+00 -0.10000000000E+04  0.10000000000E+04  0.00000000000E+00 0.  1.
    9000005    2    1    2  501    0 -0.35637919454E+02 -0.11876004641E+02 -0.84728239136E+03  0.84811825855E+03  0.24553993141E+01 0.  0.
         13    1    3    3    0    0 -0.19402851090E+02 -0.57315911249E+01 -0.47860245552E+03  0.47902988654E+03  0.00000000000E+00 0.  1.
          1    1    3    3  501    0 -0.16235068364E+02 -0.61444135165E+01 -0.36867993584E+03  0.36908837201E+03  0.00000000000E+00 0.  1.
         21    1    1    2  502  501  0.35637919454E+02  0.11876004641E+02 -0.14998335232E+03  0.15461599776E+03  0.00000000000E+00 0.  1.
<mgrwt>
<rscale>  1 0.30000000E+03</rscale>
<asrwt>0</asrwt>
<pdfrwt beam="1">  1        3 0.99427712E-02 0.30000000E+03</pdfrwt>
<pdfrwt beam="2">0</pdfrwt>
<totfact> 0.33337557E+02</totfact>
</mgrwt>
</event>
<event>
 6    1  0.1956957E-002  0.3000000E+03  0.7818608E-02  0.1093470E+00
          1   -1    0    0  502    0  0.00000000000E+00  0.00000000000E+00  0.13142765714E+01  0.13142765714E+01  0.00000000000E+00 0.  1.
         13   -1    0    0    0    0 -0.00000000000E+00 -0.00000000000E+00 -0.10000000000E+04  0.10000000000E+04  0.00000000000E+00 0.  1.
    9000005    2    1    2  501    0  0.18196459996E+02  0.29186445928E+02 -0.65576289319E+03  0.65667094314E+03  0.29657532807E+01 0.  0.
         13    1    3    3    0    0  0.66325540090E+01  0.91562179161E+01 -0.23777658729E+03  0.23804523218E+03  0.00000000000E+00 0.  1.
          3    1    3    3  501    0  0.11563905987E+02  0.20030228012E+02 -0.41798630590E+03  0.41862571096E+03  0.00000000000E+00 0.  1.
         21    1    1    2  502  501 -0.18196459996E+02 -0.29186445928E+02 -0.34292283024E+03  0.34464333343E+03  0.00000000000E+00 0.  1.
<mgrwt>
<rscale>  1 0.30000000E+03</rscale>
<asrwt>0</asrwt>
<pdfrwt beam="1">  1        1 0.47791976E-02 0.30000000E+03</pdfrwt>
<pdfrwt beam="2">0</pdfrwt>
<totfact> 0.21195671E+03</totfact>
</mgrwt>
</event>
<event>
 6    1  0.1956957E-002  0.3000000E+03  0.7818608E-02  0.1093470E+00
          3   -1    0    0  502    0  0.00000000000E+00  0.00000000000E+00  0.25678196368E+01  0.25678196368E+01  0.00000000000E+00 0.  1.
         13   -1    0    0    0    0 -0.00000000000E+00 -0.00000000000E+00 -0.10000000000E+04  0.10000000000E+04  0.00000000000E+00 0.  1.
    9000005    2    1    2  501    0 -0.18755318379E+02  0.23718232957E+02 -0.90067966476E+03  0.90120034054E+03  0.48865879647E+01 0.  0.
         13    1    3    3    0    0 -0.13914654698E+02  0.16453776700E+02 -0.57480187212E+03  0.57520564720E+03  0.00000000000E+00 0.  1.
          3    1    3    3  501    0 -0.48406636809E+01  0.72644562573E+01 -0.32587779264E+03  0.32599469334E+03  0.00000000000E+00 0.  1.
         21    1    1    2  502  501  0.18755318379E+02 -0.23718232957E+02 -0.96752515605E+02  0.10136747909E+03  0.00000000000E+00 0.  1.
<mgrwt>
<rscale>  1 0.30000000E+03</rscale>
<asrwt>0</asrwt>
<pdfrwt beam="1">  1        3 0.93375456E-02 0.30000000E+03</pdfrwt>
<pdfrwt beam="2">0</pdfrwt>
<totfact> 0.36946382E+02</totfact>
</mgrwt>
</event>
<event>
 6    1  0.1956957E-002  0.3000000E+03  0.7818608E-02  0.1093470E+00
          3   -1    0    0  502    0  0.00000000000E+00  0.00000000000E+00  0.95064667002E+00  0.95064667002E+00  0.00000000000E+00 0.  1.
         13   -1    0    0    0    0 -0.00000000000E+00 -0.00000000000E+00 -0.10000000000E+04  0.10000000000E+04  0.00000000000E+00 0.  1.
    9000005    2    1    2  501    0  0.30253612197E+02 -0.42140637163E+01 -0.51823937470E+03  0.51917136636E+03  0.58153913666E+01 0.  0.
         13    1    3    3    0    0  0.25255975784E+02 -0.24586616282E+01 -0.45671423871E+03  0.45741863229E+03  0.00000000000E+00 0.  1.
          1    1    3    3  501    0  0.49976364135E+01 -0.17554020880E+01 -0.61525135989E+02  0.61752734067E+02  0.00000000000E+00 0.  1.
         21    1    1    2  502  501 -0.30253612197E+02  0.42140637163E+01 -0.48080997863E+03  0.48177928031E+03  0.00000000000E+00 0.  1.
<mgrwt>
<rscale>  1 0.30000000E+03</rscale>
<asrwt>0</asrwt>
<pdfrwt beam="1">  1        3 0.34569043E-02 0.30000000E+03</pdfrwt>
<pdfrwt beam="2">0</pdfrwt>
<totfact> 0.17468462E+03</totfact>
</mgrwt>
</event>
<event>
 6    1  0.1956957E-002  0.3000000E+03  0.7818608E-02  0.1093470E+00
          1   -1    0    0  502    0  0.00000000000E+00  0.00000000000E+00  0.81777892879E+02  0.81777892879E+02  0.00000000000E+00 0.  1.
         13   -1    0    0    0    0 -0.00000000000E+00 -0.00000000000E+00 -0.10000000000E+04  0.10000000000E+04  0.00000000000E+00 0.  1.
    9000005    2    1    2  501    0 -0.34067231878E+02 -0.37663436553E+02 -0.99139920523E+03  0.99270489793E+03  0.33940399994E+01 0.  0.
         13    1    3    3    0    0 -0.23245696471E+02 -0.27088203587E+02 -0.67147645930E+03  0.67242454489E+03  0.00000000000E+00 0.  1.
          1    1    3    3  501    0 -0.10821535407E+02 -0.10575232966E+02 -0.31992274594E+03  0.32028035305E+03  0.00000000000E+00 0.  1.
         21    1    1    2  502  501  0.34067231878E+02  0.37663436553E+02  0.73177098110E+02  0.89072994945E+02  0.00000000000E+00 0.  1.
<mgrwt>
<rscale>  1 0.30000000E+03</rscale>
<asrwt>0</asrwt>
<pdfrwt beam="1">  1        1 0.29737478E+00 0.30000000E+03</pdfrwt>
<pdfrwt beam="2">0</pdfrwt>
<totfact> 0.35753882E+00</totfact>
</mgrwt>
</event>
<event>
 6    1  0.1956957E-002  0.3000000E+03  0.7818608E-02  0.1093470E+00
          1   -1    0    0  502    0  0.00000000000E+00  0.00000000000E+00  0.12270257643E+01  0.12270257643E+01  0.00000000000E+00 0.  1.
         13   -1    0    0    0    0 -0.00000000000E+00 -0.00000000000E+00 -0.10000000000E+04  0.10000000000E+04  0.00000000000E+00 0.  1.
    9000005    2    1    2  501    0 -0.31010789793E+02  0.91374870082E+01 -0.69025097063E+03  0.69101582439E+03  0.33621930470E+01 0.  0.
         13    1    3    3    0    0 -0.14875986181E+02  0.38750031005E+01 -0.29407280937E+03  0.29447432456E+03  0.00000000000E+00 0.  1.
          3    1    3    3  501    0 -0.16134803612E+02  0.52624839077E+01 -0.39617816126E+03  0.39654149983E+03  0.00000000000E+00 0.  1.
         21    1    1    2  502  501  0.31010789793E+02 -0.91374870082E+01 -0.30852200360E+03  0.31021120138E+03  0.00000000000E+00 0.  1.
<mgrwt>
<rscale>  1 0.30000000E+03</rscale>
<asrwt>0</asrwt>
<pdfrwt beam="1">  1        1 0.44619213E-02 0.30000000E+03</pdfrwt>
<pdfrwt beam="2">0</pdfrwt>
<totfact> 0.23346403E+03</totfact>
</mgrwt>
</event>
<event>
 6    1  0.1956957E-002  0.3000000E+03  0.7818608E-02  0.1093470E+00
          1   -1    0    0  502    0  0.00000000000E+00  0.00000000000E+00  0.11563718298E+01  0.11563718298E+01  0.00000000000E+00 0.  1.
         13   -1    0    0    0    0 -0.00000000000E+00 -0.00000000000E+00 -0.10000000000E+04  0.10000000000E+04  0.00000000000E+00 0.  1.
    9000005    2    1    2  501    0  0.32141027212E+02  0.84792243315E+01 -0.40196415804E+03  0.40335201860E+03  0.35670275900E+01 0.  0.
         13    1    3    3    0    0  0.97089849870E+01  0.14615606229E+01 -0.10412774113E+03  0.10458961240E+03  0.00000000000E+00 0.  1.
          1    1    3    3  501    0  0.22432042225E+02  0.70176637087E+01 -0.29783641691E+03  0.29876240620E+03  0.00000000000E+00 0.  1.
         21    1    1    2  502  501 -0.32141027212E+02 -0.84792243315E+01 -0.59687947013E+03  0.59780435323E+03  0.00000000000E+00 0.  1.
<mgrwt>
<rscale>  1 0.30000000E+03</rscale>
<asrwt>0</asrwt>
<pdfrwt beam="1">  1        1 0.42049973E-02 0.30000000E+03</pdfrwt>
<pdfrwt beam="2">0</pdfrwt>
<totfact> 0.25379246E+03</totfact>
</mgrwt>
</event>
<event>
 6    1  0.1956957E-002  0.3000000E+03  0.7818608E-02  0.1093470E+00
          1   -1    0    0  502    0  0.00000000000E+00  0.00000000000E+00  0.64875889825E+01  0.64875889825E+01  0.00000000000E+00 0.  1.
         13   -1    0    0    0    0 -0.00000000000E+00 -0.00000000000E+00 -0.10000000000E+04  0.10000000000E+04  0.00000000000E+00 0.  1.
    9000005    2    1    2  501    0  0.62963732183E+02 -0.49150976157E+02 -0.55997461565E+03  0.56565284666E+03  0.33649269077E+01 0.  0.
         13    1    3    3    0    0  0.25197567553E+02 -0.21769309966E+02 -0.23243820213E+03  0.23481128183E+03  0.00000000000E+00 0.  1.
          1    1    3    3  501    0  0.37766164630E+02 -0.27381666191E+02 -0.32753641353E+03  0.33084156483E+03  0.00000000000E+00 0.  1.
         21    1    1    2  502  501 -0.62963732183E+02  0.49150976157E+02 -0.43353779536E+03  0.44083474232E+03  0.00000000000E+00 0.  1.
<mgrwt>
<rscale>  1 0.30000000E+03</rscale>
<asrwt>0</asrwt>
<pdfrwt beam="1">  1        1 0.23591282E-01 0.30000000E+03</pdfrwt>
<pdfrwt beam="2">0</pdfrwt>
<totfact> 0.23638440E+02</totfact>
</mgrwt>
</event>
<event>
 6    1  0.1956957E-002  0.3000000E+03  0.7818608E-02  0.1093470E+00
          3   -1    0    0  502    0  0.00000000000E+00  0.00000000000E+00  0.37162889187E+01  0.37162889187E+01  0.00000000000E+00 0.  1.
         13   -1    0    0    0    0 -0.00000000000E+00 -0.00000000000E+00 -0.10000000000E+04  0.10000000000E+04  0.00000000000E+00 0.  1.
    9000005    2    1    2  501    0 -0.34947557290E+02 -0.65929916531E+01 -0.90568421796E+03  0.90638660458E+03  0.28240046601E+01 0.  0.
         13    1    3    3    0    0 -0.22665273152E+02 -0.51950215878E+01 -0.61615107026E+03  0.61658968872E+03  0.00000000000E+00 0.  1.
          3    1    3    3  501    0 -0.12282284138E+02 -0.13979700653E+01 -0.28953314770E+03  0.28979691586E+03  0.00000000000E+00 0.  1.
         21    1    1    2  502  501  0.34947557290E+02  0.65929916531E+01 -0.90599493123E+02  0.97329684340E+02  0.00000000000E+00 0.  1.
<mgrwt>
<rscale>  1 0.30000000E+03</rscale>
<asrwt>0</asrwt>
<pdfrwt beam="1">  1        3 0.13513806E-01 0.30000000E+03</pdfrwt>
<pdfrwt beam="2">0</pdfrwt>
<totfact> 0.19915403E+02</totfact>
</mgrwt>
</event>
<event>
 6    1  0.1956957E-002  0.3000000E+03  0.7818608E-02  0.1093470E+00
          1   -1    0    0  502    0  0.00000000000E+00  0.00000000000E+00  0.24978663883E+01  0.24978663883E+01  0.00000000000E+00 0.  1.
         13   -1    0    0    0    0 -0.00000000000E+00 -0.00000000000E+00 -0.10000000000E+04  0.10000000000E+04  0.00000000000E+00 0.  1.
    9000005    2    1    2  501    0  0.71090659355E+01 -0.44824846239E+02 -0.70789932142E+03  0.70936036539E+03  0.32974336314E+01 0.  0.
         13    1    3    3    0    0  0.91088758922E+00 -0.15263231789E+02 -0.23097544502E+03  0.23148099741E+03  0.00000000000E+00 0.  1.
          1    1    3    3  501    0  0.61981783463E+01 -0.29561614451E+02 -0.47692387640E+03  0.47787936798E+03  0.00000000000E+00 0.  1.
         21    1    1    2  502  501 -0.71090659355E+01  0.44824846239E+02 -0.28960281219E+03  0.29313750099E+03  0.00000000000E+00 0.  1.
<mgrwt>
<rscale>  1 0.30000000E+03</rscale>
<asrwt>0</asrwt>
<pdfrwt beam="1">  1        1 0.90831697E-02 0.30000000E+03</pdfrwt>
<pdfrwt beam="2">0</pdfrwt>
<totfact> 0.86329455E+02</totfact>
</mgrwt>
</event>
<event>
 6    1  0.1956957E-002  0.3000000E+03  0.7818608E-02  0.1093470E+00
          3   -1    0    0  502    0  0.00000000000E+00  0.00000000000E+00  0.23196177949E+01  0.23196177949E+01  0.00000000000E+00 0.  1.
         13   -1    0    0    0    0 -0.00000000000E+00 -0.00000000000E+00 -0.10000000000E+04  0.10000000000E+04  0.00000000000E+00 0.  1.
    9000005    2    1    2  501    0  0.29189606839E+02 -0.14045943777E+02 -0.86958479922E+03  0.87019164928E+03  0.25419982567E+01 0.  0.
         13    1    3    3    0    0  0.11808096025E+02 -0.69904168761E+01 -0.35585713516E+03  0.35612160522E+03  0.00000000000E+00 0.  1.
          1    1    3    3  501    0  0.17381510815E+02 -0.70555269009E+01 -0.51372766407E+03  0.51407004407E+03  0.00000000000E+00 0.  1.
         21    1    1    2  502  501 -0.29189606839E+02  0.14045943777E+02 -0.12809558298E+03  0.13212796851E+03  0.00000000000E+00 0.  1.
<mgrwt>
<rscale>  1 0.30000000E+03</rscale>
<asrwt>0</asrwt>
<pdfrwt beam="1">  1        3 0.84349916E-02 0.30000000E+03</pdfrwt>
<pdfrwt beam="2">0</pdfrwt>
<totfact> 0.43540926E+02</totfact>
</mgrwt>
</event>
<event>
 6    1  0.1956957E-002  0.3000000E+03  0.7818608E-02  0.1093470E+00
          1   -1    0    0  502    0  0.00000000000E+00  0.00000000000E+00  0.44025716272E+01  0.44025716272E+01  0.00000000000E+00 0.  1.
         13   -1    0    0    0    0 -0.00000000000E+00 -0.00000000000E+00 -0.10000000000E+04  0.10000000000E+04  0.00000000000E+00 0.  1.
    9000005    2    1    2  501    0  0.11778660836E+02  0.33191038746E+02 -0.92336647720E+03  0.92404280426E+03  0.30118072678E+01 0.  0.
         13    1    3    3    0    0  0.92441835475E+01  0.23701321024E+02 -0.69390697993E+03  0.69437317369E+03  0.00000000000E+00 0.  1.
          3    1    3    3  501    0  0.25344772883E+01  0.94897177222E+01 -0.22945949727E+03  0.22966963056E+03  0.00000000000E+00 0.  1.
         21    1    1    2  502  501 -0.11778660836E+02 -0.33191038746E+02 -0.72230951176E+02  0.80359767371E+02  0.00000000000E+00 0.  1.
<mgrwt>
<rscale>  1 0.30000000E+03</rscale>
<asrwt>0</asrwt>
<pdfrwt beam="1">  1        1 0.16009385E-01 0.30000000E+03</pdfrwt>
<pdfrwt beam="2">0</pdfrwt>
<totfact> 0.39714789E+02</totfact>
</mgrwt>
</event>
<event>
 6    1  0.1956957E-002  0.3000000E+03  0.7818608E-02  0.1093470E+00
          1   -1    0    0  502    0  0.00000000000E+00  0.00000000000E+00  0.10733367530E+01  0.10733367530E+01  0.00000000000E+00 0.  1.
         13   -1    0    0    0    0 -0.00000000000E+00 -0.00000000000E+00 -0.10000000000E+04  0.10000000000E+04  0.00000000000E+00 0.  1.
    9000005    2    1    2  501    0  0.20924548489E+02  0.24330319035E+02 -0.59554223350E+03  0.59641446892E+03  0.31409713085E+01 0.  0.
         13    1    3    3    0    0  0.16456634863E+02  0.17081967987E+02 -0.44457024049E+03  0.44520255299E+03  0.00000000000E+00 0.  1.
          1    1    3    3  501    0  0.44679136263E+01  0.72483510487E+01 -0.15097199300E+03  0.15121191592E+03  0.00000000000E+00 0.  1.
         21    1    1    2  502  501 -0.20924548489E+02 -0.24330319035E+02 -0.40338442975E+03  0.40465886784E+03  0.00000000000E+00 0.  1.
<mgrwt>
<rscale>  1 0.30000000E+03</rscale>
<asrwt>0</asrwt>
<pdfrwt beam="1">  1        1 0.39030510E-02 0.30000000E+03</pdfrwt>
<pdfrwt beam="2">0</pdfrwt>
<totfact> 0.28186569E+03</totfact>
</mgrwt>
</event>
<event>
 6    1  0.1956957E-002  0.3000000E+03  0.7818608E-02  0.1093470E+00
          1   -1    0    0  502    0  0.00000000000E+00  0.00000000000E+00  0.20802798923E+01  0.20802798923E+01  0.00000000000E+00 0.  1.
         13   -1    0    0    0    0 -0.00000000000E+00 -0.00000000000E+00 -0.10000000000E+04  0.10000000000E+04  0.00000000000E+00 0.  1.
    9000005    2    1    2  501    0  0.41499527082E+02  0.11055945038E+02 -0.66678758570E+03  0.66817470176E+03  0.27023995382E+01 0.  0.
         13    1    3    3    0    0  0.11958835172E+02  0.43621753527E+01 -0.20481562546E+03  0.20521082511E+03  0.00000000000E+00 0.  1.
          1    1    3    3  501    0  0.29540691910E+02  0.66937696853E+01 -0.46197196024E+03  0.46296387665E+03  0.00000000000E+00 0.  1.
         21    1    1    2  502  501 -0.41499527082E+02 -0.11055945038E+02 -0.33113213441E+03  0.33390557813E+03  0.00000000000E+00 0.  1.
<mgrwt>
<rscale>  1 0.30000000E+03</rscale>
<asrwt>0</asrwt>
<pdfrwt beam="1">  1        1 0.75646701E-02 0.30000000E+03</pdfrwt>
<pdfrwt beam="2">0</pdfrwt>
<totfact> 0.11133717E+03</totfact>
</mgrwt>
</event>
<event>
 6    1  0.1956957E-002  0.3000000E+03  0.7818608E-02  0.1093470E+00
          3   -1    0    0  502    0  0.00000000000E+00  0.00000000000E+00  0.13925278251E+01  0.13925278251E+01  0.00000000000E+00 0.  1.
         13   -1    0    0    0    0 -0.00000000000E+00 -0.00000000000E+00 -0.10000000000E+04  0.10000000000E+04  0.00000000000E+00 0.  1.
    9000005    2    1    2  501    0  0.14423537033E+02  0.33678996538E+02 -0.59017673418E+03  0.59132182542E+03  0.32573651051E+01 0.  0.
         13    1    3    3    0    0  0.29681461720E+01  0.53213654342E+01 -0.82518201007E+02  0.82742856605E+02  0.00000000000E+00 0.  1.
          1    1    3    3  501    0  0.11455390861E+02  0.28357631104E+02 -0.50765853317E+03  0.50857896882E+03  0.00000000000E+00 0.  1.
         21    1    1    2  502  501 -0.14423537033E+02 -0.33678996538E+02 -0.40843073800E+03  0.41007070240E+03  0.00000000000E+00 0.  1.
<mgrwt>
<rscale>  1 0.30000000E+03</rscale>
<asrwt>0</asrwt>
<pdfrwt beam="1">  1        3 0.50637482E-02 0.30000000E+03</pdfrwt>
<pdfrwt beam="2">0</pdfrwt>
<totfact> 0.97022976E+02</totfact>
</mgrwt>
</event>
<event>
 6    1  0.1956957E-002  0.3000000E+03  0.7818608E-02  0.1093470E+00
          3   -1    0    0  502    0  0.00000000000E+00  0.00000000000E+00  0.17331334052E+02  0.17331334052E+02  0.00000000000E+00 0.  1.
         13   -1    0    0    0    0 -0.00000000000E+00 -0.00000000000E+00 -0.10000000000E+04  0.10000000000E+04  0.00000000000E+00 0.  1.
    9000005    2    1    2  501    0  0.40566741320E+02  0.83776574754E+02 -0.85101535458E+03  0.85609619714E+03  0.30643201654E+01 0.  0.
         13    1    3    3    0    0  0.42823432497E+01  0.79803837407E+01 -0.90706284535E+02  0.91157309320E+02  0.00000000000E+00 0.  1.
          3    1    3    3  501    0  0.36284398070E+02  0.75796191013E+02 -0.76030907004E+03  0.76493888782E+03  0.00000000000E+00 0.  1.
         21    1    1    2  502  501 -0.40566741320E+02 -0.83776574754E+02 -0.13165331137E+03  0.16123513691E+03  0.00000000000E+00 0.  1.
<mgrwt>
<rscale>  1 0.30000000E+03</rscale>
<asrwt>0</asrwt>
<pdfrwt beam="1">  1        3 0.63023166E-01 0.30000000E+03</pdfrwt>
<pdfrwt beam="2">0</pdfrwt>
<totfact> 0.11059748E+01</totfact>
</mgrwt>
</event>
<event>
 6    1  0.1956957E-002  0.3000000E+03  0.7818608E-02  0.1093470E+00
          3   -1    0    0  502    0  0.00000000000E+00  0.00000000000E+00  0.16098971284E+01  0.16098971284E+01  0.00000000000E+00 0.  1.
         13   -1    0    0    0    0 -0.00000000000E+00 -0.00000000000E+00 -0.10000000000E+04  0.10000000000E+04  0.00000000000E+00 0.  1.
    9000005    2    1    2  501    0  0.23856289132E+02  0.32169317537E+02 -0.50272057014E+03  0.50432499569E+03  0.34266765391E+01 0.  0.
         13    1    3    3    0    0  0.10150047940E+02  0.15596863376E+02 -0.24927812132E+03  0.24997173318E+03  0.00000000000E+00 0.  1.
          3    1    3    3  501    0  0.13706241192E+02  0.16572454161E+02 -0.25344244882E+03  0.25435326251E+03  0.00000000000E+00 0.  1.
         21    1    1    2  502  501 -0.23856289132E+02 -0.32169317537E+02 -0.49566953273E+03  0.49728490144E+03  0.00000000000E+00 0.  1.
<mgrwt>
<rscale>  1 0.30000000E+03</rscale>
<asrwt>0</asrwt>
<pdfrwt beam="1">  1        3 0.58541837E-02 0.30000000E+03</pdfrwt>
<pdfrwt beam="2">0</pdfrwt>
<totfact> 0.77486547E+02</totfact>
</mgrwt>
</event>
<event>
 6    1  0.1956957E-002  0.3000000E+03  0.7818608E-02  0.1093470E+00
          1   -1    0    0  502    0  0.00000000000E+00  0.00000000000E+00  0.22964676519E+01  0.22964676519E+01  0.00000000000E+00 0.  1.
         13   -1    0    0    0    0 -0.00000000000E+00 -0.00000000000E+00 -0.10000000000E+04  0.10000000000E+04  0.00000000000E+00 0.  1.
    9000005    2    1    2  501    0  0.81402826792E+01 -0.47180127925E+02 -0.49416814235E+03  0.49649006432E+03  0.28288477629E+01 0.  0.
         13    1    3    3    0    0  0.61570077940E+01 -0.34558496090E+02 -0.34910245206E+03  0.35086282282E+03  0.00000000000E+00 0.  1.
          1    1    3    3  501    0  0.19832748852E+01 -0.12621631834E+02 -0.14506569029E+03  0.14562724150E+03  0.00000000000E+00 0.  1.
         21    1    1    2  502  501 -0.81402826792E+01  0.47180127925E+02 -0.50353539000E+03  0.50580640333E+03  0.00000000000E+00 0.  1.
<mgrwt>
<rscale>  1 0.30000000E+03</rscale>
<asrwt>0</asrwt>
<pdfrwt beam="1">  1        1 0.83508091E-02 0.30000000E+03</pdfrwt>
<pdfrwt beam="2">0</pdfrwt>
<totfact> 0.97015121E+02</totfact>
</mgrwt>
</event>
<event>
 6    1  0.1956957E-002  0.3000000E+03  0.7818608E-02  0.1093470E+00
          1   -1    0    0  502    0  0.00000000000E+00  0.00000000000E+00  0.93272869807E+00  0.93272869807E+00  0.00000000000E+00 0.  1.
         13   -1    0    0    0    0 -0.00000000000E+00 -0.00000000000E+00 -0.10000000000E+04  0.10000000000E+04  0.00000000000E+00 0.  1.
    9000005    2    1    2  501    0  0.19360083414E+02  0.22975495211E+02 -0.58031660440E+03  0.58110561280E+03  0.36994160128E+01 0.  0.
         13    1    3    3    0    0  0.94415011231E+01  0.10269789681E+02 -0.30298783508E+03  0.30330881743E+03  0.00000000000E+00 0.  1.
          1    1    3    3  501    0  0.99185822907E+01  0.12705705530E+02 -0.27732876931E+03  0.27779679537E+03  0.00000000000E+00 0.  1.
         21    1    1    2  502  501 -0.19360083414E+02 -0.22975495211E+02 -0.41875066691E+03  0.41982711590E+03  0.00000000000E+00 0.  1.
<mgrwt>
<rscale>  1 0.30000000E+03</rscale>
<asrwt>0</asrwt>
<pdfrwt beam="1">  1        1 0.33917479E-02 0.30000000E+03</pdfrwt>
<pdfrwt beam="2">0</pdfrwt>
<totfact> 0.34343068E+03</totfact>
</mgrwt>
</event>
<event>
 6    1  0.1956957E-002  0.3000000E+03  0.7818608E-02  0.1093470E+00
          1   -1    0    0  502    0  0.00000000000E+00  0.00000000000E+00  0.96994836247E+00  0.96994836247E+00  0.00000000000E+00 0.  1.
         13   -1    0    0    0    0 -0.00000000000E+00 -0.00000000000E+00 -0.10000000000E+04  0.10000000000E+04  0.00000000000E+00 0.  1.
    9000005    2    1    2  501    0  0.30850902462E+02  0.29453113141E+01 -0.51841091364E+03  0.51935266374E+03  0.41062034931E+01 0.  0.
         13    1    3    3    0    0  0.11836131449E+02 -0.87066800702E+00 -0.19657609327E+03  0.19693403088E+03  0.00000000000E+00 0.  1.
          3    1    3    3  501    0  0.19014771014E+02  0.38159793211E+01 -0.32183482037E+03  0.32241863286E+03  0.00000000000E+00 0.  1.
         21    1    1    2  502  501 -0.30850902462E+02 -0.29453113141E+01 -0.48061913800E+03  0.48161728463E+03  0.00000000000E+00 0.  1.
<mgrwt>
<rscale>  1 0.30000000E+03</rscale>
<asrwt>0</asrwt>
<pdfrwt beam="1">  1        1 0.35270924E-02 0.30000000E+03</pdfrwt>
<pdfrwt beam="2">0</pdfrwt>
<totfact> 0.32504423E+03</totfact>
</mgrwt>
</event>
<event>
 6    1  0.1956957E-002  0.3000000E+03  0.7818608E-02  0.1093470E+00
          1   -1    0    0  502    0  0.00000000000E+00  0.00000000000E+00  0.23498123951E+01  0.23498123951E+01  0.00000000000E+00 0.  1.
         13   -1    0    0    0    0 -0.00000000000E+00 -0.00000000000E+00 -0.10000000000E+04  0.10000000000E+04  0.00000000000E+00 0.  1.
    9000005    2    1    2  501    0  0.29725869010E+02  0.37092767798E+02 -0.59461953356E+03  0.59652570171E+03  0.33200002159E+01 0.  0.
         13    1    3    3    0    0  0.16089396990E+02  0.22498697091E+02 -0.35306606268E+03  0.35414785710E+03  0.00000000000E+00 0.  1.
          3    1    3    3  501    0  0.13636472020E+02  0.14594070707E+02 -0.24155347088E+03  0.24237784462E+03  0.00000000000E+00 0.  1.
         21    1    1    2  502  501 -0.29725869010E+02 -0.37092767798E+02 -0.40303065404E+03  0.40582411068E+03  0.00000000000E+00 0.  1.
<mgrwt>
<rscale>  1 0.30000000E+03</rscale>
<asrwt>0</asrwt>
<pdfrwt beam="1">  1        1 0.85447904E-02 0.30000000E+03</pdfrwt>
<pdfrwt beam="2">0</pdfrwt>
<totfact> 0.93968218E+02</totfact>
</mgrwt>
</event>
<event>
 6    1  0.1956957E-002  0.3000000E+03  0.7818608E-02  0.1093470E+00
          3   -1    0    0  502    0  0.00000000000E+00  0.00000000000E+00  0.35017501581E+01  0.35017501581E+01  0.00000000000E+00 0.  1.
         13   -1    0    0    0    0 -0.00000000000E+00 -0.00000000000E+00 -0.10000000000E+04  0.10000000000E+04  0.00000000000E+00 0.  1.
    9000005    2    1    2  501    0  0.43081748969E+02 -0.36887281748E+01 -0.84061999035E+03  0.84173749084E+03  0.32235855968E+01 0.  0.
         13    1    3    3    0    0  0.41349275414E+02 -0.33959848812E+01 -0.79223674702E+03  0.79332235479E+03  0.00000000000E+00 0.  1.
          1    1    3    3  501    0  0.17324735546E+01 -0.29274329367E+00 -0.48383243329E+02  0.48415136045E+02  0.00000000000E+00 0.  1.
         21    1    1    2  502  501 -0.43081748969E+02  0.36887281748E+01 -0.15587825950E+03  0.16176425932E+03  0.00000000000E+00 0.  1.
<mgrwt>
<rscale>  1 0.30000000E+03</rscale>
<asrwt>0</asrwt>
<pdfrwt beam="1">  1        3 0.12733664E-01 0.30000000E+03</pdfrwt>
<pdfrwt beam="2">0</pdfrwt>
<totfact> 0.22035923E+02</totfact>
</mgrwt>
</event>
<event>
 6    1  0.1956957E-002  0.3000000E+03  0.7818608E-02  0.1093470E+00
          1   -1    0    0  502    0  0.00000000000E+00  0.00000000000E+00  0.34295978837E+01  0.34295978837E+01  0.00000000000E+00 0.  1.
         13   -1    0    0    0    0 -0.00000000000E+00 -0.00000000000E+00 -0.10000000000E+04  0.10000000000E+04  0.00000000000E+00 0.  1.
    9000005    2    1    2  501    0  0.23839582711E+02 -0.19793676185E+02 -0.92320487175E+03  0.92378905314E+03  0.10902484228E+02 0.  0.
         13    1    3    3    0    0  0.22031134118E+02 -0.19909354651E+02 -0.90649209410E+03  0.90697831834E+03  0.00000000000E+00 0.  1.
          1    1    3    3  501    0  0.18084485931E+01  0.11567846638E+00 -0.16712777648E+02  0.16810734801E+02  0.00000000000E+00 0.  1.
         21    1    1    2  502  501 -0.23839582711E+02  0.19793676185E+02 -0.73365530368E+02  0.79640544742E+02  0.00000000000E+00 0.  1.
<mgrwt>
<rscale>  1 0.30000000E+03</rscale>
<asrwt>0</asrwt>
<pdfrwt beam="1">  1        1 0.12471291E-01 0.30000000E+03</pdfrwt>
<pdfrwt beam="2">0</pdfrwt>
<totfact> 0.55793452E+02</totfact>
</mgrwt>
</event>
<event>
 6    1  0.1956957E-002  0.3000000E+03  0.7818608E-02  0.1093470E+00
          3   -1    0    0  502    0  0.00000000000E+00  0.00000000000E+00  0.19684045341E+01  0.19684045341E+01  0.00000000000E+00 0.  1.
         13   -1    0    0    0    0 -0.00000000000E+00 -0.00000000000E+00 -0.10000000000E+04  0.10000000000E+04  0.00000000000E+00 0.  1.
    9000005    2    1    2  501    0 -0.42798537785E+02 -0.98963454914E+01 -0.56564695030E+03  0.56735808038E+03  0.30110616352E+01 0.  0.
         13    1    3    3    0    0 -0.28543838488E+02 -0.53665843110E+01 -0.38313720596E+03  0.38423647606E+03  0.00000000000E+00 0.  1.
          1    1    3    3  501    0 -0.14254699297E+02 -0.45297611803E+01 -0.18250974435E+03  0.18312160432E+03  0.00000000000E+00 0.  1.
         21    1    1    2  502  501  0.42798537785E+02  0.98963454914E+01 -0.43238464516E+03  0.43461032416E+03  0.00000000000E+00 0.  1.
<mgrwt>
<rscale>  1 0.30000000E+03</rscale>
<asrwt>0</asrwt>
<pdfrwt beam="1">  1        3 0.71578498E-02 0.30000000E+03</pdfrwt>
<pdfrwt beam="2">0</pdfrwt>
<totfact> 0.56550049E+02</totfact>
</mgrwt>
</event>
<event>
 6    1  0.1956957E-002  0.3000000E+03  0.7818608E-02  0.1093470E+00
          1   -1    0    0  502    0  0.00000000000E+00  0.00000000000E+00  0.10082537756E+01  0.10082537756E+01  0.00000000000E+00 0.  1.
         13   -1    0    0    0    0 -0.00000000000E+00 -0.00000000000E+00 -0.10000000000E+04  0.10000000000E+04  0.00000000000E+00 0.  1.
    9000005    2    1    2  501    0 -0.25868061463E+01  0.30606955778E+02 -0.62306306878E+03  0.62382680165E+03  0.29687475661E+01 0.  0.
         13    1    3    3    0    0  0.11831028935E+00  0.70636245178E+01 -0.12338915022E+03  0.12359122615E+03  0.00000000000E+00 0.  1.
          1    1    3    3  501    0 -0.27051164357E+01  0.23543331260E+02 -0.49967391856E+03  0.50023557550E+03  0.00000000000E+00 0.  1.
         21    1    1    2  502  501  0.25868061463E+01 -0.30606955778E+02 -0.37592867744E+03  0.37718145213E+03  0.00000000000E+00 0.  1.
<mgrwt>
<rscale>  1 0.30000000E+03</rscale>
<asrwt>0</asrwt>
<pdfrwt beam="1">  1        1 0.36663851E-02 0.30000000E+03</pdfrwt>
<pdfrwt beam="2">0</pdfrwt>
<totfact> 0.30780708E+03</totfact>
</mgrwt>
</event>
<event>
 6    1  0.1956957E-002  0.3000000E+03  0.7818608E-02  0.1093470E+00
          1   -1    0    0  502    0  0.00000000000E+00  0.00000000000E+00  0.32093295298E+01  0.32093295298E+01  0.00000000000E+00 0.  1.
         13   -1    0    0    0    0 -0.00000000000E+00 -0.00000000000E+00 -0.10000000000E+04  0.10000000000E+04  0.00000000000E+00 0.  1.
    9000005    2    1    2  501    0  0.10115937724E+02 -0.52488621346E+02 -0.33405191477E+03  0.33831832653E+03  0.33497366863E+01 0.  0.
         13    1    3    3    0    0  0.29654215649E+01 -0.19726315022E+02 -0.11589973191E+03  0.11760386510E+03  0.00000000000E+00 0.  1.
          1    1    3    3  501    0  0.71505161587E+01 -0.32762306324E+02 -0.21815218286E+03  0.22071446143E+03  0.00000000000E+00 0.  1.
         21    1    1    2  502  501 -0.10115937724E+02  0.52488621346E+02 -0.66273875570E+03  0.66489100300E+03  0.00000000000E+00 0.  1.
<mgrwt>
<rscale>  1 0.30000000E+03</rscale>
<asrwt>0</asrwt>
<pdfrwt beam="1">  1        1 0.11670314E-01 0.30000000E+03</pdfrwt>
<pdfrwt beam="2">0</pdfrwt>
<totfact> 0.61107526E+02</totfact>
</mgrwt>
</event>
<event>
 6    1  0.1956957E-002  0.3000000E+03  0.7818608E-02  0.1093470E+00
          1   -1    0    0  502    0  0.00000000000E+00  0.00000000000E+00  0.18158236115E+01  0.18158236115E+01  0.00000000000E+00 0.  1.
         13   -1    0    0    0    0 -0.00000000000E+00 -0.00000000000E+00 -0.10000000000E+04  0.10000000000E+04  0.00000000000E+00 0.  1.
    9000005    2    1    2  501    0 -0.29629315919E+02  0.19070524239E+02 -0.78029273460E+03  0.78109368684E+03  0.30024480562E+01 0.  0.
         13    1    3    3    0    0 -0.18491756859E+02  0.11859461365E+02 -0.45365000691E+03  0.45418159437E+03  0.00000000000E+00 0.  1.
          3    1    3    3  501    0 -0.11137559060E+02  0.72110628743E+01 -0.32664272769E+03  0.32691209246E+03  0.00000000000E+00 0.  1.
         21    1    1    2  502  501  0.29629315919E+02 -0.19070524239E+02 -0.21789144179E+03  0.22072213677E+03  0.00000000000E+00 0.  1.
<mgrwt>
<rscale>  1 0.30000000E+03</rscale>
<asrwt>0</asrwt>
<pdfrwt beam="1">  1        1 0.66030089E-02 0.30000000E+03</pdfrwt>
<pdfrwt beam="2">0</pdfrwt>
<totfact> 0.13464360E+03</totfact>
</mgrwt>
</event>
<event>
 6    1  0.1956957E-002  0.3000000E+03  0.7818608E-02  0.1093470E+00
          1   -1    0    0  502    0  0.00000000000E+00  0.00000000000E+00  0.13087270237E+02  0.13087270237E+02  0.00000000000E+00 0.  1.
         13   -1    0    0    0    0 -0.00000000000E+00 -0.00000000000E+00 -0.10000000000E+04  0.10000000000E+04  0.00000000000E+00 0.  1.
    9000005    2    1    2  501    0 -0.29718908035E+02  0.63563789922E+02 -0.89349822329E+03  0.89625474521E+03  0.31503034414E+01 0.  0.
         13    1    3    3    0    0 -0.16041350653E+02  0.31942766878E+02 -0.43946420359E+03  0.44091546981E+03  0.00000000000E+00 0.  1.
          3    1    3    3  501    0 -0.13677557383E+02  0.31621023043E+02 -0.45403401970E+03  0.45533927540E+03  0.00000000000E+00 0.  1.
         21    1    1    2  502  501  0.29718908035E+02 -0.63563789922E+02 -0.93414506477E+02  0.11683252503E+03  0.00000000000E+00 0.  1.
<mgrwt>
<rscale>  1 0.30000000E+03</rscale>
<asrwt>0</asrwt>
<pdfrwt beam="1">  1        1 0.47590174E-01 0.30000000E+03</pdfrwt>
<pdfrwt beam="2">0</pdfrwt>
<totfact> 0.94159550E+01</totfact>
</mgrwt>
</event>
<event>
 6    1  0.1956957E-002  0.3000000E+03  0.7818608E-02  0.1093470E+00
          1   -1    0    0  502    0  0.00000000000E+00  0.00000000000E+00  0.32610828683E+01  0.32610828683E+01  0.00000000000E+00 0.  1.
         13   -1    0    0    0    0 -0.00000000000E+00 -0.00000000000E+00 -0.10000000000E+04  0.10000000000E+04  0.00000000000E+00 0.  1.
    9000005    2    1    2  501    0 -0.45143406285E+02  0.18851525525E+02 -0.75652235406E+03  0.75811356744E+03  0.40990001034E+01 0.  0.
         13    1    3    3    0    0 -0.43491013450E+02  0.17849872794E+02 -0.71285579312E+03  0.71440427490E+03  0.00000000000E+00 0.  1.
          3    1    3    3  501    0 -0.16523928349E+01  0.10016527318E+01 -0.43666560936E+02  0.43709292539E+02  0.00000000000E+00 0.  1.
         21    1    1    2  502  501  0.45143406285E+02 -0.18851525525E+02 -0.24021656307E+03  0.24514751543E+03  0.00000000000E+00 0.  1.
<mgrwt>
<rscale>  1 0.30000000E+03</rscale>
<asrwt>0</asrwt>
<pdfrwt beam="1">  1        1 0.11858508E-01 0.30000000E+03</pdfrwt>
<pdfrwt beam="2">0</pdfrwt>
<totfact> 0.59781501E+02</totfact>
</mgrwt>
</event>
<event>
 6    1  0.1956957E-002  0.3000000E+03  0.7818608E-02  0.1093470E+00
          1   -1    0    0  502    0  0.00000000000E+00  0.00000000000E+00  0.14215241547E+01  0.14215241547E+01  0.00000000000E+00 0.  1.
         13   -1    0    0    0    0 -0.00000000000E+00 -0.00000000000E+00 -0.10000000000E+04  0.10000000000E+04  0.00000000000E+00 0.  1.
    9000005    2    1    2  501    0 -0.16069276295E+01 -0.31170667971E+02 -0.77259727653E+03  0.77329503467E+03  0.10220870506E+02 0.  0.
         13    1    3    3    0    0  0.27313992905E+01 -0.24487943033E+01 -0.67390255244E+02  0.67490026207E+02  0.00000000000E+00 0.  1.
          3    1    3    3  501    0 -0.43383269200E+01 -0.28721873668E+02 -0.70520702129E+03  0.70580500847E+03  0.00000000000E+00 0.  1.
         21    1    1    2  502  501  0.16069276295E+01  0.31170667971E+02 -0.22598119932E+03  0.22812648948E+03  0.00000000000E+00 0.  1.
<mgrwt>
<rscale>  1 0.30000000E+03</rscale>
<asrwt>0</asrwt>
<pdfrwt beam="1">  1        1 0.51691896E-02 0.30000000E+03</pdfrwt>
<pdfrwt beam="2">0</pdfrwt>
<totfact> 0.18982775E+03</totfact>
</mgrwt>
</event>
<event>
 6    1  0.1956957E-002  0.3000000E+03  0.7818608E-02  0.1093470E+00
          1   -1    0    0  502    0  0.00000000000E+00  0.00000000000E+00  0.85435304393E+01  0.85435304393E+01  0.00000000000E+00 0.  1.
         13   -1    0    0    0    0 -0.00000000000E+00 -0.00000000000E+00 -0.10000000000E+04  0.10000000000E+04  0.00000000000E+00 0.  1.
    9000005    2    1    2  501    0 -0.43886700985E+02  0.81007248102E+02 -0.53502264743E+03  0.54290413053E+03  0.27285360567E+01 0.  0.
         13    1    3    3    0    0 -0.41403649888E+02  0.75357915344E+02 -0.50178619373E+03  0.50909965807E+03  0.00000000000E+00 0.  1.
          3    1    3    3  501    0 -0.24830510966E+01  0.56493327579E+01 -0.33236453705E+02  0.33804472460E+02  0.00000000000E+00 0.  1.
         21    1    1    2  502  501  0.43886700985E+02 -0.81007248102E+02 -0.45643382213E+03  0.46563939991E+03  0.00000000000E+00 0.  1.
<mgrwt>
<rscale>  1 0.30000000E+03</rscale>
<asrwt>0</asrwt>
<pdfrwt beam="1">  1        1 0.31067449E-01 0.30000000E+03</pdfrwt>
<pdfrwt beam="2">0</pdfrwt>
<totfact> 0.16449811E+02</totfact>
</mgrwt>
</event>
<event>
 6    1  0.1956957E-002  0.3000000E+03  0.7818608E-02  0.1093470E+00
          1   -1    0    0  502    0  0.00000000000E+00  0.00000000000E+00  0.12556701754E+02  0.12556701754E+02  0.00000000000E+00 0.  1.
         13   -1    0    0    0    0 -0.00000000000E+00 -0.00000000000E+00 -0.10000000000E+04  0.10000000000E+04  0.00000000000E+00 0.  1.
    9000005    2    1    2  501    0 -0.11803759308E+02 -0.29701950242E+02 -0.97896193353E+03  0.97948907212E+03  0.32924958976E+01 0.  0.
         13    1    3    3    0    0 -0.96351081104E+00 -0.32663243538E+01 -0.13762124092E+03  0.13766336906E+03  0.00000000000E+00 0.  1.
          3    1    3    3  501    0 -0.10840248497E+02 -0.26435625888E+02 -0.84134069260E+03  0.84182570306E+03  0.00000000000E+00 0.  1.
         21    1    1    2  502  501  0.11803759308E+02  0.29701950242E+02 -0.84813647188E+01  0.33067629632E+02  0.00000000000E+00 0.  1.
<mgrwt>
<rscale>  1 0.30000000E+03</rscale>
<asrwt>0</asrwt>
<pdfrwt beam="1">  1        1 0.45660830E-01 0.30000000E+03</pdfrwt>
<pdfrwt beam="2">0</pdfrwt>
<totfact> 0.99404711E+01</totfact>
</mgrwt>
</event>
<event>
 6    1  0.1956957E-002  0.3000000E+03  0.7818608E-02  0.1093470E+00
          1   -1    0    0  502    0  0.00000000000E+00  0.00000000000E+00  0.12509434623E+01  0.12509434623E+01  0.00000000000E+00 0.  1.
         13   -1    0    0    0    0 -0.00000000000E+00 -0.00000000000E+00 -0.10000000000E+04  0.10000000000E+04  0.00000000000E+00 0.  1.
    9000005    2    1    2  501    0 -0.27665457609E+02 -0.12445793577E+02 -0.75578828492E+03  0.75640361988E+03  0.31983145702E+01 0.  0.
         13    1    3    3    0    0 -0.61885038148E+01 -0.17723590296E+01 -0.13819832586E+03  0.13834816987E+03  0.00000000000E+00 0.  1.
          3    1    3    3  501    0 -0.21476953794E+02 -0.10673434547E+02 -0.61758995906E+03  0.61805545001E+03  0.00000000000E+00 0.  1.
         21    1    1    2  502  501  0.27665457609E+02  0.12445793577E+02 -0.24296077161E+03  0.24484732358E+03  0.00000000000E+00 0.  1.
<mgrwt>
<rscale>  1 0.30000000E+03</rscale>
<asrwt>0</asrwt>
<pdfrwt beam="1">  1        1 0.45488949E-02 0.30000000E+03</pdfrwt>
<pdfrwt beam="2">0</pdfrwt>
<totfact> 0.22720650E+03</totfact>
</mgrwt>
</event>
<event>
 6    1  0.1956957E-002  0.3000000E+03  0.7818608E-02  0.1093470E+00
          3   -1    0    0  502    0  0.00000000000E+00  0.00000000000E+00  0.10295513483E+01  0.10295513483E+01  0.00000000000E+00 0.  1.
         13   -1    0    0    0    0 -0.00000000000E+00 -0.00000000000E+00 -0.10000000000E+04  0.10000000000E+04  0.00000000000E+00 0.  1.
    9000005    2    1    2  501    0 -0.10716773472E+02  0.28875874127E+02 -0.62705693519E+03  0.62784283289E+03  0.61284172312E+01 0.  0.
         13    1    3    3    0    0 -0.96955075677E+01  0.17714055433E+02 -0.40655278744E+03  0.40705400084E+03  0.00000000000E+00 0.  1.
          1    1    3    3  501    0 -0.10212659041E+01  0.11161818694E+02 -0.22050414775E+03  0.22078883205E+03  0.00000000000E+00 0.  1.
         21    1    1    2  502  501  0.10716773472E+02 -0.28875874127E+02 -0.37191351346E+03  0.37318671846E+03  0.00000000000E+00 0.  1.
<mgrwt>
<rscale>  1 0.30000000E+03</rscale>
<asrwt>0</asrwt>
<pdfrwt beam="1">  1        3 0.37438310E-02 0.30000000E+03</pdfrwt>
<pdfrwt beam="2">0</pdfrwt>
<totfact> 0.15446962E+03</totfact>
</mgrwt>
</event>
<event>
 6    1  0.1956957E-002  0.3000000E+03  0.7818608E-02  0.1093470E+00
          1   -1    0    0  502    0  0.00000000000E+00  0.00000000000E+00  0.19181317232E+02  0.19181317232E+02  0.00000000000E+00 0.  1.
         13   -1    0    0    0    0 -0.00000000000E+00 -0.00000000000E+00 -0.10000000000E+04  0.10000000000E+04  0.00000000000E+00 0.  1.
    9000005    2    1    2  501    0  0.52049579788E+01  0.32960138829E+02 -0.98498302435E+03  0.98555388676E+03  0.33827668555E+01 0.  0.
         13    1    3    3    0    0  0.39781055587E+01  0.14598652095E+02 -0.43501682469E+03  0.43527989125E+03  0.00000000000E+00 0.  1.
          1    1    3    3  501    0  0.12268524200E+01  0.18361486734E+02 -0.54996619966E+03  0.55027399551E+03  0.00000000000E+00 0.  1.
         21    1    1    2  502  501 -0.52049579788E+01 -0.32960138829E+02  0.41643415837E+01  0.33627430470E+02  0.00000000000E+00 0.  1.
<mgrwt>
<rscale>  1 0.30000000E+03</rscale>
<asrwt>0</asrwt>
<pdfrwt beam="1">  1        1 0.69750392E-01 0.30000000E+03</pdfrwt>
<pdfrwt beam="2">0</pdfrwt>
<totfact> 0.56658100E+01</totfact>
</mgrwt>
</event>
<event>
 6    1  0.1956957E-002  0.3000000E+03  0.7818608E-02  0.1093470E+00
          1   -1    0    0  502    0  0.00000000000E+00  0.00000000000E+00  0.20562386051E+01  0.20562386051E+01  0.00000000000E+00 0.  1.
         13   -1    0    0    0    0 -0.00000000000E+00 -0.00000000000E+00 -0.10000000000E+04  0.10000000000E+04  0.00000000000E+00 0.  1.
    9000005    2    1    2  501    0 -0.43147349853E+02  0.71573065799E+01 -0.37061460091E+03  0.37320427158E+03  0.36503535473E+01 0.  0.
         13    1    3    3    0    0 -0.19916812514E+02  0.48644066964E+01 -0.16504820472E+03  0.16631672121E+03  0.00000000000E+00 0.  1.
          3    1    3    3  501    0 -0.23230537339E+02  0.22928998835E+01 -0.20556639620E+03  0.20688755038E+03  0.00000000000E+00 0.  1.
         21    1    1    2  502  501  0.43147349853E+02 -0.71573065799E+01 -0.62732916048E+03  0.62885196702E+03  0.00000000000E+00 0.  1.
<mgrwt>
<rscale>  1 0.30000000E+03</rscale>
<asrwt>0</asrwt>
<pdfrwt beam="1">  1        1 0.74772471E-02 0.30000000E+03</pdfrwt>
<pdfrwt beam="2">0</pdfrwt>
<totfact> 0.11315809E+03</totfact>
</mgrwt>
</event>
<event>
 6    1  0.1956957E-002  0.3000000E+03  0.7818608E-02  0.1093470E+00
          1   -1    0    0  502    0  0.00000000000E+00  0.00000000000E+00  0.18910351453E+01  0.18910351453E+01  0.00000000000E+00 0.  1.
         13   -1    0    0    0    0 -0.00000000000E+00 -0.00000000000E+00 -0.10000000000E+04  0.10000000000E+04  0.00000000000E+00 0.  1.
    9000005    2    1    2  501    0 -0.14193729445E+02  0.39199746497E+02 -0.36186356603E+03  0.36428120962E+03  0.41805718695E+01 0.  0.
         13    1    3    3    0    0 -0.12460729801E+02  0.29306579951E+02 -0.27166744793E+03  0.27352759949E+03  0.00000000000E+00 0.  1.
          3    1    3    3  501    0 -0.17329996437E+01  0.98931665469E+01 -0.90196118094E+02  0.90753610129E+02  0.00000000000E+00 0.  1.
         21    1    1    2  502  501  0.14193729445E+02 -0.39199746497E+02 -0.63624539883E+03  0.63760982553E+03  0.00000000000E+00 0.  1.
<mgrwt>
<rscale>  1 0.30000000E+03</rscale>
<asrwt>0</asrwt>
<pdfrwt beam="1">  1        1 0.68765059E-02 0.30000000E+03</pdfrwt>
<pdfrwt beam="2">0</pdfrwt>
<totfact> 0.12720886E+03</totfact>
</mgrwt>
</event>
<event>
 6    1  0.1956957E-002  0.3000000E+03  0.7818608E-02  0.1093470E+00
          1   -1    0    0  502    0  0.00000000000E+00  0.00000000000E+00  0.68065679242E+01  0.68065679242E+01  0.00000000000E+00 0.  1.
         13   -1    0    0    0    0 -0.00000000000E+00 -0.00000000000E+00 -0.10000000000E+04  0.10000000000E+04  0.00000000000E+00 0.  1.
    9000005    2    1    2  501    0 -0.95677408097E+01 -0.48909977441E+02 -0.89773423348E+03  0.89912097857E+03  0.28377084604E+01 0.  0.
         13    1    3    3    0    0 -0.89759350894E+00 -0.30929657147E+01 -0.47548970337E+02  0.47657913206E+02  0.00000000000E+00 0.  1.
          1    1    3    3  501    0 -0.86701473008E+01 -0.45817011727E+02 -0.85018526314E+03  0.85146306537E+03  0.00000000000E+00 0.  1.
         21    1    1    2  502  501  0.95677408097E+01  0.48909977441E+02 -0.95459198596E+02  0.10768558935E+03  0.00000000000E+00 0.  1.
<mgrwt>
<rscale>  1 0.30000000E+03</rscale>
<asrwt>0</asrwt>
<pdfrwt beam="1">  1        1 0.24751208E-01 0.30000000E+03</pdfrwt>
<pdfrwt beam="2">0</pdfrwt>
<totfact> 0.22184833E+02</totfact>
</mgrwt>
</event>
<event>
 6    1  0.1956957E-002  0.3000000E+03  0.7818608E-02  0.1093470E+00
          3   -1    0    0  502    0  0.00000000000E+00  0.00000000000E+00  0.29043028453E+01  0.29043028453E+01  0.00000000000E+00 0.  1.
         13   -1    0    0    0    0 -0.00000000000E+00 -0.00000000000E+00 -0.10000000000E+04  0.10000000000E+04  0.00000000000E+00 0.  1.
    9000005    2    1    2  501    0 -0.24333278279E+02  0.23803507273E+02 -0.88713722363E+03  0.88779747729E+03  0.36320429754E+01 0.  0.
         13    1    3    3    0    0 -0.83053524149E+01  0.61339335554E+01 -0.24599734603E+03  0.24621392786E+03  0.00000000000E+00 0.  1.
          3    1    3    3  501    0 -0.16027925864E+02  0.17669573717E+02 -0.64113987760E+03  0.64158354943E+03  0.00000000000E+00 0.  1.
         21    1    1    2  502  501  0.24333278279E+02 -0.23803507273E+02 -0.10995847352E+03  0.11510682556E+03  0.00000000000E+00 0.  1.
<mgrwt>
<rscale>  1 0.30000000E+03</rscale>
<asrwt>0</asrwt>
<pdfrwt beam="1">  1        3 0.10561124E-01 0.30000000E+03</pdfrwt>
<pdfrwt beam="2">0</pdfrwt>
<totfact> 0.30172032E+02</totfact>
</mgrwt>
</event>
<event>
 6    1  0.1956957E-002  0.3000000E+03  0.7818608E-02  0.1093470E+00
          3   -1    0    0  502    0  0.00000000000E+00  0.00000000000E+00  0.32969574005E+01  0.32969574005E+01  0.00000000000E+00 0.  1.
         13   -1    0    0    0    0 -0.00000000000E+00 -0.00000000000E+00 -0.10000000000E+04  0.10000000000E+04  0.00000000000E+00 0.  1.
    9000005    2    1    2  501    0 -0.25502233781E+02  0.33820579797E+02 -0.83684115508E+03  0.83791854700E+03  0.31901447564E+01 0.  0.
         13    1    3    3    0    0 -0.15628835500E+01  0.11227646569E+01 -0.31997312399E+02  0.32055127612E+02  0.00000000000E+00 0.  1.
          3    1    3    3  501    0 -0.23939350231E+02  0.32697815140E+02 -0.80484384268E+03  0.80586341938E+03  0.00000000000E+00 0.  1.
         21    1    1    2  502  501  0.25502233781E+02 -0.33820579797E+02 -0.15986188752E+03  0.16537841040E+03  0.00000000000E+00 0.  1.
<mgrwt>
<rscale>  1 0.30000000E+03</rscale>
<asrwt>0</asrwt>
<pdfrwt beam="1">  1        3 0.11988961E-01 0.30000000E+03</pdfrwt>
<pdfrwt beam="2">0</pdfrwt>
<totfact> 0.24399255E+02</totfact>
</mgrwt>
</event>
<event>
 6    1  0.1956957E-002  0.3000000E+03  0.7818608E-02  0.1093470E+00
          1   -1    0    0  502    0  0.00000000000E+00  0.00000000000E+00  0.42682622876E+01  0.42682622876E+01  0.00000000000E+00 0.  1.
         13   -1    0    0    0    0 -0.00000000000E+00 -0.00000000000E+00 -0.10000000000E+04  0.10000000000E+04  0.00000000000E+00 0.  1.
    9000005    2    1    2  501    0  0.41511466328E+02 -0.21386655828E+01 -0.88516916938E+03  0.88615028210E+03  0.31762114472E+01 0.  0.
         13    1    3    3    0    0  0.37206267618E+02 -0.21963640591E+01 -0.77185069811E+03  0.77275004402E+03  0.00000000000E+00 0.  1.
          1    1    3    3  501    0  0.43051987106E+01  0.57698476365E-01 -0.11331847127E+03  0.11340023808E+03  0.00000000000E+00 0.  1.
         21    1    1    2  502  501 -0.41511466328E+02  0.21386655828E+01 -0.11056256834E+03  0.11811798019E+03  0.00000000000E+00 0.  1.
<mgrwt>
<rscale>  1 0.30000000E+03</rscale>
<asrwt>0</asrwt>
<pdfrwt beam="1">  1        1 0.15520987E-01 0.30000000E+03</pdfrwt>
<pdfrwt beam="2">0</pdfrwt>
<totfact> 0.41417020E+02</totfact>
</mgrwt>
</event>
<event>
 6    1  0.1956957E-002  0.3000000E+03  0.7818608E-02  0.1093470E+00
          1   -1    0    0  502    0  0.00000000000E+00  0.00000000000E+00  0.20295302263E+01  0.20295302263E+01  0.00000000000E+00 0.  1.
         13   -1    0    0    0    0 -0.00000000000E+00 -0.00000000000E+00 -0.10000000000E+04  0.10000000000E+04  0.00000000000E+00 0.  1.
    9000005    2    1    2  501    0 -0.69485615921E+00  0.32893100509E+02 -0.84088019470E+03  0.84153095263E+03  0.35218627510E+01 0.  0.
         13    1    3    3    0    0 -0.67828276029E+00  0.26556775578E+02 -0.71134704694E+03  0.71184292058E+03  0.00000000000E+00 0.  1.
          1    1    3    3  501    0 -0.16573398928E-01  0.63363249317E+01 -0.12953314776E+03  0.12968803205E+03  0.00000000000E+00 0.  1.
         21    1    1    2  502  501  0.69485615921E+00 -0.32893100509E+02 -0.15709027508E+03  0.16049857759E+03  0.00000000000E+00 0.  1.
<mgrwt>
<rscale>  1 0.30000000E+03</rscale>
<asrwt>0</asrwt>
<pdfrwt beam="1">  1        1 0.73801255E-02 0.30000000E+03</pdfrwt>
<pdfrwt beam="2">0</pdfrwt>
<totfact> 0.11524268E+03</totfact>
</mgrwt>
</event>
<event>
 6    1  0.1956957E-002  0.3000000E+03  0.7818608E-02  0.1093470E+00
          1   -1    0    0  502    0  0.00000000000E+00  0.00000000000E+00  0.17405703540E+01  0.17405703540E+01  0.00000000000E+00 0.  1.
         13   -1    0    0    0    0 -0.00000000000E+00 -0.00000000000E+00 -0.10000000000E+04  0.10000000000E+04  0.00000000000E+00 0.  1.
    9000005    2    1    2  501    0 -0.40070657104E+02  0.48951453924E+01 -0.62298566548E+03  0.62430180965E+03  0.34626769473E+01 0.  0.
         13    1    3    3    0    0 -0.14496184025E+02  0.19172717912E+01 -0.25182970957E+03  0.25225387590E+03  0.00000000000E+00 0.  1.
          3    1    3    3  501    0 -0.25574473079E+02  0.29778736012E+01 -0.37115595591E+03  0.37204793375E+03  0.00000000000E+00 0.  1.
         21    1    1    2  502  501  0.40070657104E+02 -0.48951453924E+01 -0.37527376417E+03  0.37743876070E+03  0.00000000000E+00 0.  1.
<mgrwt>
<rscale>  1 0.30000000E+03</rscale>
<asrwt>0</asrwt>
<pdfrwt beam="1">  1        1 0.63293601E-02 0.30000000E+03</pdfrwt>
<pdfrwt beam="2">0</pdfrwt>
<totfact> 0.14286815E+03</totfact>
</mgrwt>
</event>
<event>
 6    1  0.1956957E-002  0.3000000E+03  0.7818608E-02  0.1093470E+00
          3   -1    0    0  502    0  0.00000000000E+00  0.00000000000E+00  0.10912526887E+01  0.10912526887E+01  0.00000000000E+00 0.  1.
         13   -1    0    0    0    0 -0.00000000000E+00 -0.00000000000E+00 -0.10000000000E+04  0.10000000000E+04  0.00000000000E+00 0.  1.
    9000005    2    1    2  501    0  0.88542279878E+01 -0.30295200184E+02 -0.64448952873E+03  0.64526941664E+03  0.31098077667E+01 0.  0.
         13    1    3    3    0    0  0.88354693471E+01 -0.27011984574E+02 -0.57217577724E+03  0.57288116821E+03  0.00000000000E+00 0.  1.
          3    1    3    3  501    0  0.18758640688E-01 -0.32832156100E+01 -0.72313751483E+02  0.72388248426E+02  0.00000000000E+00 0.  1.
         21    1    1    2  502  501 -0.88542279878E+01  0.30295200184E+02 -0.35441921858E+03  0.35582183605E+03  0.00000000000E+00 0.  1.
<mgrwt>
<rscale>  1 0.30000000E+03</rscale>
<asrwt>0</asrwt>
<pdfrwt beam="1">  1        3 0.39682000E-02 0.30000000E+03</pdfrwt>
<pdfrwt beam="2">0</pdfrwt>
<totfact> 0.14124786E+03</totfact>
</mgrwt>
</event>
<event>
 6    1  0.1956957E-002  0.3000000E+03  0.7818608E-02  0.1093470E+00
          1   -1    0    0  502    0  0.00000000000E+00  0.00000000000E+00  0.15512915997E+01  0.15512915997E+01  0.00000000000E+00 0.  1.
         13   -1    0    0    0    0 -0.00000000000E+00 -0.00000000000E+00 -0.10000000000E+04  0.10000000000E+04  0.00000000000E+00 0.  1.
    9000005    2    1    2  501    0 -0.24853783934E+02  0.20050132364E+02 -0.21203098298E+03  0.21448550195E+03  0.52129088907E+01 0.  0.
         13    1    3    3    0    0 -0.46420058479E+01  0.61929226339E+01 -0.58833857751E+02  0.59340739184E+02  0.00000000000E+00 0.  1.
          1    1    3    3  501    0 -0.20211778086E+02  0.13857209730E+02 -0.15319712523E+03  0.15514476277E+03  0.00000000000E+00 0.  1.
         21    1    1    2  502  501  0.24853783934E+02 -0.20050132364E+02 -0.78641772542E+03  0.78706578965E+03  0.00000000000E+00 0.  1.
<mgrwt>
<rscale>  1 0.30000000E+03</rscale>
<asrwt>0</asrwt>
<pdfrwt beam="1">  1        1 0.56410723E-02 0.30000000E+03</pdfrwt>
<pdfrwt beam="2">0</pdfrwt>
<totfact> 0.16790973E+03</totfact>
</mgrwt>
</event>
<event>
 6    1  0.1956957E-002  0.3000000E+03  0.7818608E-02  0.1093470E+00
          3   -1    0    0  502    0  0.00000000000E+00  0.00000000000E+00  0.39211319740E+01  0.39211319740E+01  0.00000000000E+00 0.  1.
         13   -1    0    0    0    0 -0.00000000000E+00 -0.00000000000E+00 -0.10000000000E+04  0.10000000000E+04  0.00000000000E+00 0.  1.
    9000005    2    1    2  501    0  0.30901371582E+02  0.31785465709E+02 -0.85231666702E+03  0.85347917960E+03  0.42188309571E+01 0.  0.
         13    1    3    3    0    0  0.26969462327E+02  0.28802011707E+02 -0.73433237683E+03  0.73539169661E+03  0.00000000000E+00 0.  1.
          3    1    3    3  501    0  0.39319092556E+01  0.29834540017E+01 -0.11798429018E+03  0.11808748299E+03  0.00000000000E+00 0.  1.
         21    1    1    2  502  501 -0.30901371582E+02 -0.31785465709E+02 -0.14376220101E+03  0.15044195238E+03  0.00000000000E+00 0.  1.
<mgrwt>
<rscale>  1 0.30000000E+03</rscale>
<asrwt>0</asrwt>
<pdfrwt beam="1">  1        3 0.14258692E-01 0.30000000E+03</pdfrwt>
<pdfrwt beam="2">0</pdfrwt>
<totfact> 0.18166010E+02</totfact>
</mgrwt>
</event>
<event>
 6    1  0.1956957E-002  0.3000000E+03  0.7818608E-02  0.1093470E+00
          3   -1    0    0  502    0  0.00000000000E+00  0.00000000000E+00  0.20349852731E+01  0.20349852731E+01  0.00000000000E+00 0.  1.
         13   -1    0    0    0    0 -0.00000000000E+00 -0.00000000000E+00 -0.10000000000E+04  0.10000000000E+04  0.00000000000E+00 0.  1.
    9000005    2    1    2  501    0 -0.39128171374E+01 -0.41752259941E+02 -0.68253223983E+03  0.68382688225E+03  0.32225978828E+01 0.  0.
         13    1    3    3    0    0 -0.35078010984E+01 -0.27504487096E+02 -0.43066665084E+03  0.43155829922E+03  0.00000000000E+00 0.  1.
          1    1    3    3  501    0 -0.40501603903E+00 -0.14247772846E+02 -0.25186558899E+03  0.25226858303E+03  0.00000000000E+00 0.  1.
         21    1    1    2  502  501  0.39128171374E+01  0.41752259941E+02 -0.31543277490E+03  0.31820810302E+03  0.00000000000E+00 0.  1.
<mgrwt>
<rscale>  1 0.30000000E+03</rscale>
<asrwt>0</asrwt>
<pdfrwt beam="1">  1        3 0.73999621E-02 0.30000000E+03</pdfrwt>
<pdfrwt beam="2">0</pdfrwt>
<totfact> 0.53650144E+02</totfact>
</mgrwt>
</event>
<event>
 6    1  0.1956957E-002  0.3000000E+03  0.7818608E-02  0.1093470E+00
          3   -1    0    0  502    0  0.00000000000E+00  0.00000000000E+00  0.16359238563E+02  0.16359238563E+02  0.00000000000E+00 0.  1.
         13   -1    0    0    0    0 -0.00000000000E+00 -0.00000000000E+00 -0.10000000000E+04  0.10000000000E+04  0.00000000000E+00 0.  1.
    9000005    2    1    2  501    0  0.11506300649E+02  0.36315408364E+02 -0.97693033452E+03  0.97767805879E+03  0.32100301538E+01 0.  0.
         13    1    3    3    0    0  0.11207284322E+02  0.34616555123E+02 -0.94621781076E+03  0.94691713181E+03  0.00000000000E+00 0.  1.
          3    1    3    3  501    0  0.29901632745E+00  0.16988532409E+01 -0.30712523759E+02  0.30760926982E+02  0.00000000000E+00 0.  1.
         21    1    1    2  502  501 -0.11506300649E+02 -0.36315408364E+02 -0.67104269174E+01  0.38681179773E+02  0.00000000000E+00 0.  1.
<mgrwt>
<rscale>  1 0.30000000E+03</rscale>
<asrwt>0</asrwt>
<pdfrwt beam="1">  1        3 0.59488266E-01 0.30000000E+03</pdfrwt>
<pdfrwt beam="2">0</pdfrwt>
<totfact> 0.12404171E+01</totfact>
</mgrwt>
</event>
<event>
 6    1  0.1956957E-002  0.3000000E+03  0.7818608E-02  0.1093470E+00
          1   -1    0    0  502    0  0.00000000000E+00  0.00000000000E+00  0.69822248442E+01  0.69822248442E+01  0.00000000000E+00 0.  1.
         13   -1    0    0    0    0 -0.00000000000E+00 -0.00000000000E+00 -0.10000000000E+04  0.10000000000E+04  0.00000000000E+00 0.  1.
    9000005    2    1    2  501    0  0.41819293777E+02 -0.19437163233E+02 -0.91634508648E+03  0.91750955955E+03  0.29694610258E+01 0.  0.
         13    1    3    3    0    0  0.36628365927E+01 -0.88089494626E+00 -0.81276420930E+02  0.81363683219E+02  0.00000000000E+00 0.  1.
          1    1    3    3  501    0  0.38156457184E+02 -0.18556268286E+02 -0.83506866555E+03  0.83614587633E+03  0.00000000000E+00 0.  1.
         21    1    1    2  502  501 -0.41819293777E+02  0.19437163233E+02 -0.76672688677E+02  0.89472665298E+02  0.00000000000E+00 0.  1.
<mgrwt>
<rscale>  1 0.30000000E+03</rscale>
<asrwt>0</asrwt>
<pdfrwt beam="1">  1        1 0.25389962E-01 0.30000000E+03</pdfrwt>
<pdfrwt beam="2">0</pdfrwt>
<totfact> 0.21450349E+02</totfact>
</mgrwt>
</event>
<event>
 6    1  0.1956957E-002  0.3000000E+03  0.7818608E-02  0.1093470E+00
          1   -1    0    0  502    0  0.00000000000E+00  0.00000000000E+00  0.15238858844E+02  0.15238858844E+02  0.00000000000E+00 0.  1.
         13   -1    0    0    0    0 -0.00000000000E+00 -0.00000000000E+00 -0.10000000000E+04  0.10000000000E+04  0.00000000000E+00 0.  1.
    9000005    2    1    2  501    0 -0.12432862384E+02 -0.74959939846E+02 -0.89243395591E+03  0.89566512517E+03  0.20204310535E+01 0.  0.
         13    1    3    3    0    0 -0.52183787229E+00 -0.39089032473E+01 -0.41497935262E+02  0.41684894991E+02  0.00000000000E+00 0.  1.
          1    1    3    3  501    0 -0.11911024512E+02 -0.71051036599E+02 -0.85093602064E+03  0.85398023018E+03  0.00000000000E+00 0.  1.
         21    1    1    2  502  501  0.12432862384E+02  0.74959939846E+02 -0.92327185251E+02  0.11957373368E+03  0.00000000000E+00 0.  1.
<mgrwt>
<rscale>  1 0.30000000E+03</rscale>
<asrwt>0</asrwt>
<pdfrwt beam="1">  1        1 0.55414149E-01 0.30000000E+03</pdfrwt>
<pdfrwt beam="2">0</pdfrwt>
<totfact> 0.77055066E+01</totfact>
</mgrwt>
</event>
<event>
 6    1  0.1956957E-002  0.3000000E+03  0.7818608E-02  0.1093470E+00
          1   -1    0    0  502    0  0.00000000000E+00  0.00000000000E+00  0.20846194505E+01  0.20846194505E+01  0.00000000000E+00 0.  1.
         13   -1    0    0    0    0 -0.00000000000E+00 -0.00000000000E+00 -0.10000000000E+04  0.10000000000E+04  0.00000000000E+00 0.  1.
    9000005    2    1    2  501    0  0.15116260282E+00 -0.32152404580E+02 -0.85444682913E+03  0.85505732533E+03  0.31378045390E+01 0.  0.
         13    1    3    3    0    0  0.16072987593E+01 -0.17902709713E+02 -0.46672048784E+03  0.46706648798E+03  0.00000000000E+00 0.  1.
          3    1    3    3  501    0 -0.14561361564E+01 -0.14249694867E+02 -0.38772634129E+03  0.38799083735E+03  0.00000000000E+00 0.  1.
         21    1    1    2  502  501 -0.15116260282E+00  0.32152404580E+02 -0.14346855142E+03  0.14702729412E+03  0.00000000000E+00 0.  1.
<mgrwt>
<rscale>  1 0.30000000E+03</rscale>
<asrwt>0</asrwt>
<pdfrwt beam="1">  1        1 0.75804504E-02 0.30000000E+03</pdfrwt>
<pdfrwt beam="2">0</pdfrwt>
<totfact> 0.11101392E+03</totfact>
</mgrwt>
</event>
<event>
 6    1  0.1956957E-002  0.3000000E+03  0.7818608E-02  0.1093470E+00
          1   -1    0    0  502    0  0.00000000000E+00  0.00000000000E+00  0.16656855315E+01  0.16656855315E+01  0.00000000000E+00 0.  1.
         13   -1    0    0    0    0 -0.00000000000E+00 -0.00000000000E+00 -0.10000000000E+04  0.10000000000E+04  0.00000000000E+00 0.  1.
    9000005    2    1    2  501    0  0.20634086029E+02  0.28049989036E+02 -0.75958664747E+03  0.76039194911E+03  0.33873087082E+01 0.  0.
         13    1    3    3    0    0  0.19761502600E+02  0.27740687997E+02 -0.73863040725E+03  0.73941526984E+03  0.00000000000E+00 0.  1.
          1    1    3    3  501    0  0.87258342968E+00  0.30930103959E+00 -0.20956240218E+02  0.20976679267E+02  0.00000000000E+00 0.  1.
         21    1    1    2  502  501 -0.20634086029E+02 -0.28049989036E+02 -0.23874766700E+03  0.24127373642E+03  0.00000000000E+00 0.  1.
<mgrwt>
<rscale>  1 0.30000000E+03</rscale>
<asrwt>0</asrwt>
<pdfrwt beam="1">  1        1 0.60570511E-02 0.30000000E+03</pdfrwt>
<pdfrwt beam="2">0</pdfrwt>
<totfact> 0.15195392E+03</totfact>
</mgrwt>
</event>
<event>
 6    1  0.1956957E-002  0.3000000E+03  0.7818608E-02  0.1093470E+00
          1   -1    0    0  502    0  0.00000000000E+00  0.00000000000E+00  0.40805865760E+01  0.40805865760E+01  0.00000000000E+00 0.  1.
         13   -1    0    0    0    0 -0.00000000000E+00 -0.00000000000E+00 -0.10000000000E+04  0.10000000000E+04  0.00000000000E+00 0.  1.
    9000005    2    1    2  501    0 -0.17174600186E+02 -0.56462310516E+02 -0.68519123869E+03  0.68779755198E+03  0.97713627684E+01 0.  0.
         13    1    3    3    0    0 -0.14360368321E+02 -0.52661116139E+02 -0.65037905563E+03  0.65266555703E+03  0.00000000000E+00 0.  1.
          3    1    3    3  501    0 -0.28142318646E+01 -0.38011943767E+01 -0.34812183061E+02  0.35131994950E+02  0.00000000000E+00 0.  1.
         21    1    1    2  502  501  0.17174600186E+02  0.56462310516E+02 -0.31072817473E+03  0.31628303459E+03  0.00000000000E+00 0.  1.
<mgrwt>
<rscale>  1 0.30000000E+03</rscale>
<asrwt>0</asrwt>
<pdfrwt beam="1">  1        1 0.14838528E-01 0.30000000E+03</pdfrwt>
<pdfrwt beam="2">0</pdfrwt>
<totfact> 0.44022710E+02</totfact>
</mgrwt>
</event>
<event>
 6    1  0.1956957E-002  0.3000000E+03  0.7818608E-02  0.1093470E+00
          1   -1    0    0  502    0  0.00000000000E+00  0.00000000000E+00  0.32704890967E+01  0.32704890967E+01  0.00000000000E+00 0.  1.
         13   -1    0    0    0    0 -0.00000000000E+00 -0.00000000000E+00 -0.10000000000E+04  0.10000000000E+04  0.00000000000E+00 0.  1.
    9000005    2    1    2  501    0  0.54613409139E+02 -0.10287856836E+02 -0.61532723787E+03  0.61784065329E+03  0.33164341389E+01 0.  0.
         13    1    3    3    0    0  0.44278179596E+02 -0.86888921250E+01 -0.48502288814E+03  0.48711729189E+03  0.00000000000E+00 0.  1.
          1    1    3    3  501    0  0.10335229542E+02 -0.15989647108E+01 -0.13030434973E+03  0.13072336140E+03  0.00000000000E+00 0.  1.
         21    1    1    2  502  501 -0.54613409139E+02  0.10287856836E+02 -0.38140227304E+03  0.38542983581E+03  0.00000000000E+00 0.  1.
<mgrwt>
<rscale>  1 0.30000000E+03</rscale>
<asrwt>0</asrwt>
<pdfrwt beam="1">  1        1 0.11892713E-01 0.30000000E+03</pdfrwt>
<pdfrwt beam="2">0</pdfrwt>
<totfact> 0.59545885E+02</totfact>
</mgrwt>
</event>
<event>
 6    1  0.1956957E-002  0.3000000E+03  0.7818608E-02  0.1093470E+00
          3   -1    0    0  502    0  0.00000000000E+00  0.00000000000E+00  0.13497798955E+01  0.13497798955E+01  0.00000000000E+00 0.  1.
         13   -1    0    0    0    0 -0.00000000000E+00 -0.00000000000E+00 -0.10000000000E+04  0.10000000000E+04  0.00000000000E+00 0.  1.
    9000005    2    1    2  501    0  0.31534307746E+02 -0.22160187831E+01 -0.24702158350E+03  0.24905666503E+03  0.31994341192E+01 0.  0.
         13    1    3    3    0    0  0.10780356469E+02 -0.15681233413E+00 -0.95441585417E+02  0.96048617390E+02  0.00000000000E+00 0.  1.
          3    1    3    3  501    0  0.20753951277E+02 -0.20592064490E+01 -0.15157999808E+03  0.15300804764E+03  0.00000000000E+00 0.  1.
         21    1    1    2  502  501 -0.31534307746E+02  0.22160187831E+01 -0.75162863661E+03  0.75229311487E+03  0.00000000000E+00 0.  1.
<mgrwt>
<rscale>  1 0.30000000E+03</rscale>
<asrwt>0</asrwt>
<pdfrwt beam="1">  1        3 0.49083009E-02 0.30000000E+03</pdfrwt>
<pdfrwt beam="2">0</pdfrwt>
<totfact> 0.10180694E+03</totfact>
</mgrwt>
</event>
<event>
 6    1  0.1956957E-002  0.3000000E+03  0.7818608E-02  0.1093470E+00
          3   -1    0    0  502    0  0.00000000000E+00  0.00000000000E+00  0.33393764708E+01  0.33393764708E+01  0.00000000000E+00 0.  1.
         13   -1    0    0    0    0 -0.00000000000E+00 -0.00000000000E+00 -0.10000000000E+04  0.10000000000E+04  0.00000000000E+00 0.  1.
    9000005    2    1    2  501    0 -0.36808677725E+02  0.49368164190E+01 -0.88258935217E+03  0.88337477393E+03  0.27885028365E+01 0.  0.
         13    1    3    3    0    0 -0.14856059909E+02  0.23069167220E+01 -0.38929529516E+03  0.38958548640E+03  0.00000000000E+00 0.  1.
          3    1    3    3  501    0 -0.21952617816E+02  0.26298996970E+01 -0.49329405700E+03  0.49378928753E+03  0.00000000000E+00 0.  1.
         21    1    1    2  502  501  0.36808677725E+02 -0.49368164190E+01 -0.11407127136E+03  0.11996460254E+03  0.00000000000E+00 0.  1.
<mgrwt>
<rscale>  1 0.30000000E+03</rscale>
<asrwt>0</asrwt>
<pdfrwt beam="1">  1        3 0.12143213E-01 0.30000000E+03</pdfrwt>
<pdfrwt beam="2">0</pdfrwt>
<totfact> 0.23878717E+02</totfact>
</mgrwt>
</event>
<event>
 6    1  0.1956957E-002  0.3000000E+03  0.7818608E-02  0.1093470E+00
          1   -1    0    0  502    0  0.00000000000E+00  0.00000000000E+00  0.46550971398E+01  0.46550971398E+01  0.00000000000E+00 0.  1.
         13   -1    0    0    0    0 -0.00000000000E+00 -0.00000000000E+00 -0.10000000000E+04  0.10000000000E+04  0.00000000000E+00 0.  1.
    9000005    2    1    2  501    0 -0.28449637021E+02  0.11603790588E+02 -0.94610561193E+03  0.94661599330E+03  0.46882889715E+01 0.  0.
         13    1    3    3    0    0 -0.22144588245E+02  0.11027237022E+02 -0.74293632212E+03  0.74334807558E+03  0.00000000000E+00 0.  1.
          1    1    3    3  501    0 -0.63050487764E+01  0.57655356544E+00 -0.20316928981E+03  0.20326791773E+03  0.00000000000E+00 0.  1.
         21    1    1    2  502  501  0.28449637021E+02 -0.11603790588E+02 -0.49239290933E+02  0.58039103837E+02  0.00000000000E+00 0.  1.
<mgrwt>
<rscale>  1 0.30000000E+03</rscale>
<asrwt>0</asrwt>
<pdfrwt beam="1">  1        1 0.16927662E-01 0.30000000E+03</pdfrwt>
<pdfrwt beam="2">0</pdfrwt>
<totfact> 0.36832163E+02</totfact>
</mgrwt>
</event>
<event>
 6    1  0.1956957E-002  0.3000000E+03  0.7818608E-02  0.1093470E+00
          1   -1    0    0  502    0  0.00000000000E+00  0.00000000000E+00  0.18338188031E+01  0.18338188031E+01  0.00000000000E+00 0.  1.
         13   -1    0    0    0    0 -0.00000000000E+00 -0.00000000000E+00 -0.10000000000E+04  0.10000000000E+04  0.00000000000E+00 0.  1.
    9000005    2    1    2  501    0  0.35433229444E+02  0.69255929622E+01 -0.76787183302E+03  0.76872662374E+03  0.31610945162E+01 0.  0.
         13    1    3    3    0    0  0.31845210203E+02  0.71545361437E+01 -0.69623155058E+03  0.69699618136E+03  0.00000000000E+00 0.  1.
          3    1    3    3  501    0  0.35880192411E+01 -0.22894318147E+00 -0.71640282439E+02  0.71730442387E+02  0.00000000000E+00 0.  1.
         21    1    1    2  502  501 -0.35433229444E+02 -0.69255929622E+01 -0.23029434818E+03  0.23310719506E+03  0.00000000000E+00 0.  1.
<mgrwt>
<rscale>  1 0.30000000E+03</rscale>
<asrwt>0</asrwt>
<pdfrwt beam="1">  1        1 0.66684461E-02 0.30000000E+03</pdfrwt>
<pdfrwt beam="2">0</pdfrwt>
<totfact> 0.13279745E+03</totfact>
</mgrwt>
</event>
<event>
 6    1  0.1956957E-002  0.3000000E+03  0.7818608E-02  0.1093470E+00
          3   -1    0    0  502    0  0.00000000000E+00  0.00000000000E+00  0.11999269171E+01  0.11999269171E+01  0.00000000000E+00 0.  1.
         13   -1    0    0    0    0 -0.00000000000E+00 -0.00000000000E+00 -0.10000000000E+04  0.10000000000E+04  0.00000000000E+00 0.  1.
    9000005    2    1    2  501    0 -0.22590680563E+02  0.23657166244E+02 -0.66186405265E+03  0.66267979128E+03  0.32374719640E+01 0.  0.
         13    1    3    3    0    0 -0.16316345208E+01  0.14554019692E+01 -0.63012147550E+02  0.63050068715E+02  0.00000000000E+00 0.  1.
          3    1    3    3  501    0 -0.20959046042E+02  0.22201764275E+02 -0.59885190510E+03  0.59962972257E+03  0.00000000000E+00 0.  1.
         21    1    1    2  502  501  0.22590680563E+02 -0.23657166244E+02 -0.33693602043E+03  0.33852013563E+03  0.00000000000E+00 0.  1.
<mgrwt>
<rscale>  1 0.30000000E+03</rscale>
<asrwt>0</asrwt>
<pdfrwt beam="1">  1        3 0.43633798E-02 0.30000000E+03</pdfrwt>
<pdfrwt beam="2">0</pdfrwt>
<totfact> 0.12207263E+03</totfact>
</mgrwt>
</event>
<event>
 6    1  0.1956957E-002  0.3000000E+03  0.7818608E-02  0.1093470E+00
          3   -1    0    0  502    0  0.00000000000E+00  0.00000000000E+00  0.22246829432E+01  0.22246829432E+01  0.00000000000E+00 0.  1.
         13   -1    0    0    0    0 -0.00000000000E+00 -0.00000000000E+00 -0.10000000000E+04  0.10000000000E+04  0.00000000000E+00 0.  1.
    9000005    2    1    2  501    0  0.17159610450E+02 -0.42761432533E+02 -0.60333810573E+03  0.60510542375E+03  0.35653446631E+01 0.  0.
         13    1    3    3    0    0  0.67699132578E+01 -0.13692547007E+02 -0.18445028132E+03  0.18508166805E+03  0.00000000000E+00 0.  1.
          1    1    3    3  501    0  0.10389697192E+02 -0.29068885526E+02 -0.41888782441E+03  0.42002375570E+03  0.00000000000E+00 0.  1.
         21    1    1    2  502  501 -0.17159610450E+02  0.42761432533E+02 -0.39443721133E+03  0.39711925920E+03  0.00000000000E+00 0.  1.
<mgrwt>
<rscale>  1 0.30000000E+03</rscale>
<asrwt>0</asrwt>
<pdfrwt beam="1">  1        3 0.80897732E-02 0.30000000E+03</pdfrwt>
<pdfrwt beam="2">0</pdfrwt>
<totfact> 0.46554121E+02</totfact>
</mgrwt>
</event>
<event>
 6    1  0.1956957E-002  0.3000000E+03  0.7818608E-02  0.1093470E+00
          1   -1    0    0  502    0  0.00000000000E+00  0.00000000000E+00  0.52286285235E+01  0.52286285235E+01  0.00000000000E+00 0.  1.
         13   -1    0    0    0    0 -0.00000000000E+00 -0.00000000000E+00 -0.10000000000E+04  0.10000000000E+04  0.00000000000E+00 0.  1.
    9000005    2    1    2  501    0 -0.36512096544E+02 -0.51832847900E+02 -0.73667638803E+03  0.73946031252E+03  0.94697298463E+01 0.  0.
         13    1    3    3    0    0 -0.64865386059E+01 -0.15081841338E+02 -0.21803301970E+03  0.21865025680E+03  0.00000000000E+00 0.  1.
          1    1    3    3  501    0 -0.30025557938E+02 -0.36751006562E+02 -0.51864336834E+03  0.52081005571E+03  0.00000000000E+00 0.  1.
         21    1    1    2  502  501  0.36512096544E+02  0.51832847900E+02 -0.25809498344E+03  0.26576831601E+03  0.00000000000E+00 0.  1.
<mgrwt>
<rscale>  1 0.30000000E+03</rscale>
<asrwt>0</asrwt>
<pdfrwt beam="1">  1        1 0.19013235E-01 0.30000000E+03</pdfrwt>
<pdfrwt beam="2">0</pdfrwt>
<totfact> 0.31505358E+02</totfact>
</mgrwt>
</event>
<event>
 6    1  0.1956957E-002  0.3000000E+03  0.7818608E-02  0.1093470E+00
          3   -1    0    0  502    0  0.00000000000E+00  0.00000000000E+00  0.32150633258E+01  0.32150633258E+01  0.00000000000E+00 0.  1.
         13   -1    0    0    0    0 -0.00000000000E+00 -0.00000000000E+00 -0.10000000000E+04  0.10000000000E+04  0.00000000000E+00 0.  1.
    9000005    2    1    2  501    0 -0.33489987839E+02 -0.41401153923E+02 -0.66993995633E+03  0.67206060388E+03  0.32055225531E+01 0.  0.
         13    1    3    3    0    0 -0.35997146225E+01 -0.42103592508E+01 -0.58405449077E+02  0.58667551102E+02  0.00000000000E+00 0.  1.
          3    1    3    3  501    0 -0.29890273216E+02 -0.37190794672E+02 -0.61153450725E+03  0.61339305278E+03  0.00000000000E+00 0.  1.
         21    1    1    2  502  501  0.33489987839E+02  0.41401153923E+02 -0.32684498035E+03  0.33115445944E+03  0.00000000000E+00 0.  1.
<mgrwt>
<rscale>  1 0.30000000E+03</rscale>
<asrwt>0</asrwt>
<pdfrwt beam="1">  1        3 0.11691164E-01 0.30000000E+03</pdfrwt>
<pdfrwt beam="2">0</pdfrwt>
<totfact> 0.25455023E+02</totfact>
</mgrwt>
</event>
<event>
 6    1  0.1956957E-002  0.3000000E+03  0.7818608E-02  0.1093470E+00
          1   -1    0    0  502    0  0.00000000000E+00  0.00000000000E+00  0.29805451430E+01  0.29805451430E+01  0.00000000000E+00 0.  1.
         13   -1    0    0    0    0 -0.00000000000E+00 -0.00000000000E+00 -0.10000000000E+04  0.10000000000E+04  0.00000000000E+00 0.  1.
    9000005    2    1    2  501    0  0.34247578593E+02  0.18048321549E+02 -0.85190763890E+03  0.85279373587E+03  0.34485021867E+01 0.  0.
         13    1    3    3    0    0  0.15938791800E+02  0.76937715526E+01 -0.42463905538E+03  0.42500772529E+03  0.00000000000E+00 0.  1.
          1    1    3    3  501    0  0.18308786793E+02  0.10354549996E+02 -0.42726858352E+03  0.42778601058E+03  0.00000000000E+00 0.  1.
         21    1    1    2  502  501 -0.34247578593E+02 -0.18048321549E+02 -0.14511181596E+03  0.15018680927E+03  0.00000000000E+00 0.  1.
<mgrwt>
<rscale>  1 0.30000000E+03</rscale>
<asrwt>0</asrwt>
<pdfrwt beam="1">  1        1 0.10838369E-01 0.30000000E+03</pdfrwt>
<pdfrwt beam="2">0</pdfrwt>
<totfact> 0.67639844E+02</totfact>
</mgrwt>
</event>
<event>
 6    1  0.1956957E-002  0.3000000E+03  0.7818608E-02  0.1093470E+00
          1   -1    0    0  502    0  0.00000000000E+00  0.00000000000E+00  0.18438444007E+03  0.18438444007E+03  0.00000000000E+00 0.  1.
         13   -1    0    0    0    0 -0.00000000000E+00 -0.00000000000E+00 -0.10000000000E+04  0.10000000000E+04  0.00000000000E+00 0.  1.
    9000005    2    1    2  501    0 -0.94654703526E+02 -0.26094230610E+03 -0.85961487542E+03  0.90333935512E+03  0.58186295180E+01 0.  0.
         13    1    3    3    0    0 -0.73163109630E+02 -0.20773571148E+03 -0.68563302060E+03  0.72013860150E+03  0.00000000000E+00 0.  1.
          3    1    3    3  501    0 -0.21491593896E+02 -0.53206594618E+02 -0.17398185483E+03  0.18320075362E+03  0.00000000000E+00 0.  1.
         21    1    1    2  502  501  0.94654703526E+02  0.26094230610E+03  0.43999315492E+02  0.28104508495E+03  0.00000000000E+00 0.  1.
<mgrwt>
<rscale>  1 0.30000000E+03</rscale>
<asrwt>0</asrwt>
<pdfrwt beam="1">  1        1 0.67049029E+00 0.30000000E+03</pdfrwt>
<pdfrwt beam="2">0</pdfrwt>
<totfact> 0.30993952E-02</totfact>
</mgrwt>
</event>
<event>
 6    1  0.1956957E-002  0.3000000E+03  0.7818608E-02  0.1093470E+00
          1   -1    0    0  502    0  0.00000000000E+00  0.00000000000E+00  0.51043823564E+01  0.51043823564E+01  0.00000000000E+00 0.  1.
         13   -1    0    0    0    0 -0.00000000000E+00 -0.00000000000E+00 -0.10000000000E+04  0.10000000000E+04  0.00000000000E+00 0.  1.
    9000005    2    1    2  501    0  0.66078305572E+02 -0.25102421568E+02 -0.56796692600E+03  0.57236360339E+03  0.41462530835E+01 0.  0.
         13    1    3    3    0    0  0.39240494608E+02 -0.16823552955E+02 -0.35024156860E+03  0.35283424540E+03  0.00000000000E+00 0.  1.
          1    1    3    3  501    0  0.26837810964E+02 -0.82788686137E+01 -0.21772535741E+03  0.21952935799E+03  0.00000000000E+00 0.  1.
         21    1    1    2  502  501 -0.66078305572E+02  0.25102421568E+02 -0.42692869164E+03  0.43274077897E+03  0.00000000000E+00 0.  1.
<mgrwt>
<rscale>  1 0.30000000E+03</rscale>
<asrwt>0</asrwt>
<pdfrwt beam="1">  1        1 0.18561430E-01 0.30000000E+03</pdfrwt>
<pdfrwt beam="2">0</pdfrwt>
<totfact> 0.32538216E+02</totfact>
</mgrwt>
</event>
<event>
 6    1  0.1956957E-002  0.3000000E+03  0.7818608E-02  0.1093470E+00
          3   -1    0    0  502    0  0.00000000000E+00  0.00000000000E+00  0.56762485147E+01  0.56762485147E+01  0.00000000000E+00 0.  1.
         13   -1    0    0    0    0 -0.00000000000E+00 -0.00000000000E+00 -0.10000000000E+04  0.10000000000E+04  0.00000000000E+00 0.  1.
    9000005    2    1    2  501    0  0.57358156414E+01  0.34537022157E+02 -0.94234520579E+03  0.94300668100E+03  0.46268827400E+01 0.  0.
         13    1    3    3    0    0  0.24635642409E+01  0.13169130771E+02 -0.42207502529E+03  0.42228760593E+03  0.00000000000E+00 0.  1.
          1    1    3    3  501    0  0.32722514005E+01  0.21367891386E+02 -0.52027018051E+03  0.52071907506E+03  0.00000000000E+00 0.  1.
         21    1    1    2  502  501 -0.57358156414E+01 -0.34537022157E+02 -0.51978545691E+02  0.62669567517E+02  0.00000000000E+00 0.  1.
<mgrwt>
<rscale>  1 0.30000000E+03</rscale>
<asrwt>0</asrwt>
<pdfrwt beam="1">  1        3 0.20640947E-01 0.30000000E+03</pdfrwt>
<pdfrwt beam="2">0</pdfrwt>
<totfact> 0.94360848E+01</totfact>
</mgrwt>
</event>
<event>
 6    1  0.1956957E-002  0.3000000E+03  0.7818608E-02  0.1093470E+00
          1   -1    0    0  502    0  0.00000000000E+00  0.00000000000E+00  0.44468056284E+02  0.44468056284E+02  0.00000000000E+00 0.  1.
         13   -1    0    0    0    0 -0.00000000000E+00 -0.00000000000E+00 -0.10000000000E+04  0.10000000000E+04  0.00000000000E+00 0.  1.
    9000005    2    1    2  501    0  0.29889336396E+02  0.23414151180E+02 -0.99146188024E+03  0.99219420771E+03  0.33303063885E+01 0.  0.
         13    1    3    3    0    0  0.23281142076E+02  0.17432866985E+02 -0.72442782958E+03  0.72501144591E+03  0.00000000000E+00 0.  1.
          1    1    3    3  501    0  0.66081943195E+01  0.59812841950E+01 -0.26703405066E+03  0.26718276180E+03  0.00000000000E+00 0.  1.
         21    1    1    2  502  501 -0.29889336396E+02 -0.23414151180E+02  0.35929936527E+02  0.52273848571E+02  0.00000000000E+00 0.  1.
<mgrwt>
<rscale>  1 0.30000000E+03</rscale>
<asrwt>0</asrwt>
<pdfrwt beam="1">  1        1 0.16170236E+00 0.30000000E+03</pdfrwt>
<pdfrwt beam="2">0</pdfrwt>
<totfact> 0.15694915E+01</totfact>
</mgrwt>
</event>
<event>
 6    1  0.1956957E-002  0.3000000E+03  0.7818608E-02  0.1093470E+00
          1   -1    0    0  502    0  0.00000000000E+00  0.00000000000E+00  0.44098906985E+01  0.44098906985E+01  0.00000000000E+00 0.  1.
         13   -1    0    0    0    0 -0.00000000000E+00 -0.00000000000E+00 -0.10000000000E+04  0.10000000000E+04  0.00000000000E+00 0.  1.
    9000005    2    1    2  501    0 -0.27209988632E+02 -0.46658124441E+02 -0.78973728889E+03  0.79158896192E+03  0.32764465185E+01 0.  0.
         13    1    3    3    0    0 -0.24023791338E+02 -0.42854749426E+02 -0.71064848598E+03  0.71234467971E+03  0.00000000000E+00 0.  1.
          3    1    3    3  501    0 -0.31861972936E+01 -0.38033750144E+01 -0.79088802918E+02  0.79244282202E+02  0.00000000000E+00 0.  1.
         21    1    1    2  502  501  0.27209988632E+02  0.46658124441E+02 -0.20585282041E+03  0.21282092878E+03  0.00000000000E+00 0.  1.
<mgrwt>
<rscale>  1 0.30000000E+03</rscale>
<asrwt>0</asrwt>
<pdfrwt beam="1">  1        1 0.16036000E-01 0.30000000E+03</pdfrwt>
<pdfrwt beam="2">0</pdfrwt>
<totfact> 0.39625616E+02</totfact>
</mgrwt>
</event>
<event>
 6    1  0.1956957E-002  0.3000000E+03  0.7818608E-02  0.1093470E+00
          3   -1    0    0  502    0  0.00000000000E+00  0.00000000000E+00  0.11868601670E+01  0.11868601670E+01  0.00000000000E+00 0.  1.
         13   -1    0    0    0    0 -0.00000000000E+00 -0.00000000000E+00 -0.10000000000E+04  0.10000000000E+04  0.00000000000E+00 0.  1.
    9000005    2    1    2  501    0 -0.32336937151E+02 -0.64856549822E+01 -0.64100321827E+03  0.64186015480E+03  0.34045933123E+01 0.  0.
         13    1    3    3    0    0 -0.30784356336E+02 -0.54030248339E+01 -0.60763103092E+03  0.60843433418E+03  0.00000000000E+00 0.  1.
          1    1    3    3  501    0 -0.15525808141E+01 -0.10826301483E+01 -0.33372187357E+02  0.33425820621E+02  0.00000000000E+00 0.  1.
         21    1    1    2  502  501  0.32336937151E+02  0.64856549822E+01 -0.35780992156E+03  0.35932670537E+03  0.00000000000E+00 0.  1.
<mgrwt>
<rscale>  1 0.30000000E+03</rscale>
<asrwt>0</asrwt>
<pdfrwt beam="1">  1        3 0.43158643E-02 0.30000000E+03</pdfrwt>
<pdfrwt beam="2">0</pdfrwt>
<totfact> 0.12414678E+03</totfact>
</mgrwt>
</event>
<event>
 6    1  0.1956957E-002  0.3000000E+03  0.7818608E-02  0.1093470E+00
          1   -1    0    0  502    0  0.00000000000E+00  0.00000000000E+00  0.24867052856E+02  0.24867052856E+02  0.00000000000E+00 0.  1.
         13   -1    0    0    0    0 -0.00000000000E+00 -0.00000000000E+00 -0.10000000000E+04  0.10000000000E+04  0.00000000000E+00 0.  1.
    9000005    2    1    2  501    0 -0.33466385858E+02  0.12178701559E+02 -0.98675654438E+03  0.98740470153E+03  0.33536495600E+01 0.  0.
         13    1    3    3    0    0 -0.26258424771E+02  0.80588284228E+01 -0.76151292657E+03  0.76200812786E+03  0.00000000000E+00 0.  1.
          3    1    3    3  501    0 -0.72079610878E+01  0.41198731357E+01 -0.22524361781E+03  0.22539657367E+03  0.00000000000E+00 0.  1.
         21    1    1    2  502  501  0.33466385858E+02 -0.12178701559E+02  0.11623597240E+02  0.37462351326E+02  0.00000000000E+00 0.  1.
<mgrwt>
<rscale>  1 0.30000000E+03</rscale>
<asrwt>0</asrwt>
<pdfrwt beam="1">  1        1 0.90425837E-01 0.30000000E+03</pdfrwt>
<pdfrwt beam="2">0</pdfrwt>
<totfact> 0.39566014E+01</totfact>
</mgrwt>
</event>
<event>
 6    1  0.1956957E-002  0.3000000E+03  0.7818608E-02  0.1093470E+00
          1   -1    0    0  502    0  0.00000000000E+00  0.00000000000E+00  0.88267665961E+01  0.88267665961E+01  0.00000000000E+00 0.  1.
         13   -1    0    0    0    0 -0.00000000000E+00 -0.00000000000E+00 -0.10000000000E+04  0.10000000000E+04  0.00000000000E+00 0.  1.
    9000005    2    1    2  501    0  0.59212434646E+02  0.22692353379E+02 -0.86761755172E+03  0.86994890013E+03  0.54605366441E+01 0.  0.
         13    1    3    3    0    0  0.54292190197E+02  0.19913355786E+02 -0.77050053364E+03  0.77266762323E+03  0.00000000000E+00 0.  1.
          1    1    3    3  501    0  0.49202444495E+01  0.27789975930E+01 -0.97117018082E+02  0.97281276895E+02  0.00000000000E+00 0.  1.
         21    1    1    2  502  501 -0.59212434646E+02 -0.22692353379E+02 -0.12355568168E+03  0.13887786647E+03  0.00000000000E+00 0.  1.
<mgrwt>
<rscale>  1 0.30000000E+03</rscale>
<asrwt>0</asrwt>
<pdfrwt beam="1">  1        1 0.32097401E-01 0.30000000E+03</pdfrwt>
<pdfrwt beam="2">0</pdfrwt>
<totfact> 0.15761315E+02</totfact>
</mgrwt>
</event>
<event>
 6    1  0.1956957E-002  0.3000000E+03  0.7818608E-02  0.1093470E+00
          1   -1    0    0  502    0  0.00000000000E+00  0.00000000000E+00  0.76695774711E+01  0.76695774711E+01  0.00000000000E+00 0.  1.
         13   -1    0    0    0    0 -0.00000000000E+00 -0.00000000000E+00 -0.10000000000E+04  0.10000000000E+04  0.00000000000E+00 0.  1.
    9000005    2    1    2  501    0  0.66603821712E+02 -0.47912167154E+02 -0.67202194263E+03  0.67701996365E+03  0.33007529473E+01 0.  0.
         13    1    3    3    0    0  0.53595923271E+02 -0.38740008768E+02 -0.53063317491E+03  0.53473813927E+03  0.00000000000E+00 0.  1.
          1    1    3    3  501    0  0.13007898440E+02 -0.91721583863E+01 -0.14138876772E+03  0.14228182438E+03  0.00000000000E+00 0.  1.
         21    1    1    2  502  501 -0.66603821712E+02  0.47912167154E+02 -0.32030847990E+03  0.33064961383E+03  0.00000000000E+00 0.  1.
<mgrwt>
<rscale>  1 0.30000000E+03</rscale>
<asrwt>0</asrwt>
<pdfrwt beam="1">  1        1 0.27889431E-01 0.30000000E+03</pdfrwt>
<pdfrwt beam="2">0</pdfrwt>
<totfact> 0.18953010E+02</totfact>
</mgrwt>
</event>
<event>
 6    1  0.1956957E-002  0.3000000E+03  0.7818608E-02  0.1093470E+00
          1   -1    0    0  502    0  0.00000000000E+00  0.00000000000E+00  0.36389100606E+01  0.36389100606E+01  0.00000000000E+00 0.  1.
         13   -1    0    0    0    0 -0.00000000000E+00 -0.00000000000E+00 -0.10000000000E+04  0.10000000000E+04  0.00000000000E+00 0.  1.
    9000005    2    1    2  501    0 -0.46452012071E+02  0.13460352196E+02 -0.79798532623E+03  0.79945293079E+03  0.23317698502E+01 0.  0.
         13    1    3    3    0    0 -0.41493228872E+02  0.11982818245E+02 -0.72379091741E+03  0.72507831859E+03  0.00000000000E+00 0.  1.
          3    1    3    3  501    0 -0.49587831989E+01  0.14775339506E+01 -0.74194408827E+02  0.74374612191E+02  0.00000000000E+00 0.  1.
         21    1    1    2  502  501  0.46452012071E+02 -0.13460352196E+02 -0.19837576371E+03  0.20418597928E+03  0.00000000000E+00 0.  1.
<mgrwt>
<rscale>  1 0.30000000E+03</rscale>
<asrwt>0</asrwt>
<pdfrwt beam="1">  1        1 0.13232428E-01 0.30000000E+03</pdfrwt>
<pdfrwt beam="2">0</pdfrwt>
<totfact> 0.51453313E+02</totfact>
</mgrwt>
</event>
<event>
 6    1  0.1956957E-002  0.3000000E+03  0.7818608E-02  0.1093470E+00
          3   -1    0    0  502    0  0.00000000000E+00  0.00000000000E+00  0.57504652035E+01  0.57504652035E+01  0.00000000000E+00 0.  1.
         13   -1    0    0    0    0 -0.00000000000E+00 -0.00000000000E+00 -0.10000000000E+04  0.10000000000E+04  0.00000000000E+00 0.  1.
    9000005    2    1    2  501    0 -0.12820413857E+02 -0.34572208337E+02 -0.93631152256E+03  0.93707431314E+03  0.83306939408E+01 0.  0.
         13    1    3    3    0    0 -0.13919732737E+02 -0.30337216439E+02 -0.84210410497E+03  0.84276534651E+03  0.00000000000E+00 0.  1.
          3    1    3    3  501    0  0.10993188800E+01 -0.42349918977E+01 -0.94207417588E+02  0.94308966631E+02  0.00000000000E+00 0.  1.
         21    1    1    2  502  501  0.12820413857E+02  0.34572208337E+02 -0.57938012235E+02  0.68676152065E+02  0.00000000000E+00 0.  1.
<mgrwt>
<rscale>  1 0.30000000E+03</rscale>
<asrwt>0</asrwt>
<pdfrwt beam="1">  1        3 0.20910827E-01 0.30000000E+03</pdfrwt>
<pdfrwt beam="2">0</pdfrwt>
<totfact> 0.92137923E+01</totfact>
</mgrwt>
</event>
<event>
 6    1  0.1956957E-002  0.3000000E+03  0.7818608E-02  0.1093470E+00
          1   -1    0    0  502    0  0.00000000000E+00  0.00000000000E+00  0.20522924915E+01  0.20522924915E+01  0.00000000000E+00 0.  1.
         13   -1    0    0    0    0 -0.00000000000E+00 -0.00000000000E+00 -0.10000000000E+04  0.10000000000E+04  0.00000000000E+00 0.  1.
    9000005    2    1    2  501    0  0.33274140391E+02  0.29023605851E+02 -0.60816849018E+03  0.60978022316E+03  0.36701492513E+01 0.  0.
         13    1    3    3    0    0  0.49865430516E+01  0.40040720750E+01 -0.10696573915E+03  0.10715674294E+03  0.00000000000E+00 0.  1.
          1    1    3    3  501    0  0.28287597339E+02  0.25019533776E+02 -0.50120275102E+03  0.50262348022E+03  0.00000000000E+00 0.  1.
         21    1    1    2  502  501 -0.33274140391E+02 -0.29023605851E+02 -0.38977921733E+03  0.39227206933E+03  0.00000000000E+00 0.  1.
<mgrwt>
<rscale>  1 0.30000000E+03</rscale>
<asrwt>0</asrwt>
<pdfrwt beam="1">  1        1 0.74628975E-02 0.30000000E+03</pdfrwt>
<pdfrwt beam="2">0</pdfrwt>
<totfact> 0.11346195E+03</totfact>
</mgrwt>
</event>
<event>
 6    1  0.1956957E-002  0.3000000E+03  0.7818608E-02  0.1093470E+00
          3   -1    0    0  502    0  0.00000000000E+00  0.00000000000E+00  0.21554923909E+02  0.21554923909E+02  0.00000000000E+00 0.  1.
         13   -1    0    0    0    0 -0.00000000000E+00 -0.00000000000E+00 -0.10000000000E+04  0.10000000000E+04  0.00000000000E+00 0.  1.
    9000005    2    1    2  501    0 -0.36400716442E+00  0.31447653946E+02 -0.98813911177E+03  0.98864502012E+03  0.33142345989E+01 0.  0.
         13    1    3    3    0    0  0.37534188909E+00  0.16556372166E+01 -0.76874758542E+02  0.76893501136E+02  0.00000000000E+00 0.  1.
          1    1    3    3  501    0 -0.73934905351E+00  0.29792016730E+02 -0.91126435323E+03  0.91175151898E+03  0.00000000000E+00 0.  1.
         21    1    1    2  502  501  0.36400716442E+00 -0.31447653946E+02  0.96940356785E+01  0.32909903793E+02  0.00000000000E+00 0.  1.
<mgrwt>
<rscale>  1 0.30000000E+03</rscale>
<asrwt>0</asrwt>
<pdfrwt beam="1">  1        3 0.78381707E-01 0.30000000E+03</pdfrwt>
<pdfrwt beam="2">0</pdfrwt>
<totfact> 0.70049085E+00</totfact>
</mgrwt>
</event>
<event>
 6    1  0.1956957E-002  0.3000000E+03  0.7818608E-02  0.1093470E+00
          3   -1    0    0  502    0  0.00000000000E+00  0.00000000000E+00  0.12052394280E+01  0.12052394280E+01  0.00000000000E+00 0.  1.
         13   -1    0    0    0    0 -0.00000000000E+00 -0.00000000000E+00 -0.10000000000E+04  0.10000000000E+04  0.00000000000E+00 0.  1.
    9000005    2    1    2  501    0  0.30831017230E+02  0.14938550771E+02 -0.57556931969E+03  0.57659543534E+03  0.29227311654E+01 0.  0.
         13    1    3    3    0    0  0.93077065852E+00  0.79579021004E+00 -0.14296072200E+02  0.14348424876E+02  0.00000000000E+00 0.  1.
          1    1    3    3  501    0  0.29900246572E+02  0.14142760561E+02 -0.56127324749E+03  0.56224701046E+03  0.00000000000E+00 0.  1.
         21    1    1    2  502  501 -0.30831017230E+02 -0.14938550771E+02 -0.42322544088E+03  0.42460980409E+03  0.00000000000E+00 0.  1.
<mgrwt>
<rscale>  1 0.30000000E+03</rscale>
<asrwt>0</asrwt>
<pdfrwt beam="1">  1        3 0.43826981E-02 0.30000000E+03</pdfrwt>
<pdfrwt beam="2">0</pdfrwt>
<totfact> 0.12124529E+03</totfact>
</mgrwt>
</event>
<event>
 6    1  0.1956957E-002  0.3000000E+03  0.7818608E-02  0.1093470E+00
          3   -1    0    0  502    0  0.00000000000E+00  0.00000000000E+00  0.25637003796E+01  0.25637003796E+01  0.00000000000E+00 0.  1.
         13   -1    0    0    0    0 -0.00000000000E+00 -0.00000000000E+00 -0.10000000000E+04  0.10000000000E+04  0.00000000000E+00 0.  1.
    9000005    2    1    2  501    0  0.48415053864E+02 -0.12515911865E+02 -0.57070812637E+03  0.57291547295E+03  0.48691012294E+01 0.  0.
         13    1    3    3    0    0  0.39892859476E+02 -0.92693782703E+01 -0.48366342050E+03  0.48539434066E+03  0.00000000000E+00 0.  1.
          1    1    3    3  501    0  0.85221943874E+01 -0.32465335951E+01 -0.87044705870E+02  0.87521132291E+02  0.00000000000E+00 0.  1.
         21    1    1    2  502  501 -0.48415053864E+02  0.12515911865E+02 -0.42672817325E+03  0.42964822743E+03  0.00000000000E+00 0.  1.
<mgrwt>
<rscale>  1 0.30000000E+03</rscale>
<asrwt>0</asrwt>
<pdfrwt beam="1">  1        3 0.93225665E-02 0.30000000E+03</pdfrwt>
<pdfrwt beam="2">0</pdfrwt>
<totfact> 0.37043045E+02</totfact>
</mgrwt>
</event>
<event>
 6    1  0.1956957E-002  0.3000000E+03  0.7818608E-02  0.1093470E+00
          3   -1    0    0  502    0  0.00000000000E+00  0.00000000000E+00  0.73830728917E+01  0.73830728917E+01  0.00000000000E+00 0.  1.
         13   -1    0    0    0    0 -0.00000000000E+00 -0.00000000000E+00 -0.10000000000E+04  0.10000000000E+04  0.00000000000E+00 0.  1.
    9000005    2    1    2  501    0 -0.15791047647E+02  0.26710175507E+02 -0.96599636104E+03  0.96649976090E+03  0.31666419477E+01 0.  0.
         13    1    3    3    0    0 -0.61203222129E+01  0.87320035841E+01 -0.37150925959E+03  0.37166226092E+03  0.00000000000E+00 0.  1.
          1    1    3    3  501    0 -0.96707254341E+01  0.17978171923E+02 -0.59448710145E+03  0.59483749998E+03  0.00000000000E+00 0.  1.
         21    1    1    2  502  501  0.15791047647E+02 -0.26710175507E+02 -0.26620566069E+02  0.40883311990E+02  0.00000000000E+00 0.  1.
<mgrwt>
<rscale>  1 0.30000000E+03</rscale>
<asrwt>0</asrwt>
<pdfrwt beam="1">  1        3 0.26847594E-01 0.30000000E+03</pdfrwt>
<pdfrwt beam="2">0</pdfrwt>
<totfact> 0.57707461E+01</totfact>
</mgrwt>
</event>
<event>
 6    1  0.1956957E-002  0.3000000E+03  0.7818608E-02  0.1093470E+00
          1   -1    0    0  502    0  0.00000000000E+00  0.00000000000E+00  0.17640314770E+01  0.17640314770E+01  0.00000000000E+00 0.  1.
         13   -1    0    0    0    0 -0.00000000000E+00 -0.00000000000E+00 -0.10000000000E+04  0.10000000000E+04  0.00000000000E+00 0.  1.
    9000005    2    1    2  501    0  0.32355712334E+02 -0.10469411377E+02 -0.79249149614E+03  0.79322797078E+03  0.33677109444E+01 0.  0.
         13    1    3    3    0    0  0.45358552995E+01 -0.33805559555E+00 -0.97082758701E+02  0.97189249930E+02  0.00000000000E+00 0.  1.
          1    1    3    3  501    0  0.27819857035E+02 -0.10131355781E+02 -0.69540873744E+03  0.69603872085E+03  0.00000000000E+00 0.  1.
         21    1    1    2  502  501 -0.32355712334E+02  0.10469411377E+02 -0.20574447238E+03  0.20853606070E+03  0.00000000000E+00 0.  1.
<mgrwt>
<rscale>  1 0.30000000E+03</rscale>
<asrwt>0</asrwt>
<pdfrwt beam="1">  1        1 0.64146734E-02 0.30000000E+03</pdfrwt>
<pdfrwt beam="2">0</pdfrwt>
<totfact> 0.14021280E+03</totfact>
</mgrwt>
</event>
