<event>
 6    1  0.4241696E-003  0.6110935E+03  0.7818608E-02  0.9882654E-01
          1   -1    0    0  502    0  0.00000000000E+00  0.00000000000E+00  0.94111457510E+02  0.94111457510E+02  0.00000000000E+00 0.  1.
         13   -1    0    0    0    0 -0.00000000000E+00 -0.00000000000E+00 -0.10000000000E+04  0.10000000000E+04  0.00000000000E+00 0.  1.
    9000005    2    1    2  501    0 -0.75315755901E-02  0.47472393037E-01 -0.90664033670E+03  0.10933581283E+04  0.61109352336E+03 0.  0.
         13    1    3    3    0    0 -0.56489075711E+02 -0.16282905376E+03 -0.90468461694E+03  0.92095525003E+03  0.00000000000E+00 0.  1.
          3    1    3    3  501    0  0.56481544135E+02  0.16287652615E+03 -0.19557197590E+01  0.17240287828E+03  0.00000000000E+00 0.  1.
         21    1    1    2  502  501  0.75315755901E-02 -0.47472393037E-01  0.75179420968E+00  0.75332920190E+00  0.00000000000E+00 0. -1.
<mgrwt>
<rscale>  1 0.61109353E+03</rscale>
<asrwt>0</asrwt>
<pdfrwt beam="1">  1        1 0.34222420E+00 0.61109353E+03</pdfrwt>
<pdfrwt beam="2">0</pdfrwt>
<totfact> 0.24181817E+00</totfact>
</mgrwt>
</event>
<event>
 6    1  0.4241696E-003  0.6470065E+03  0.7818608E-02  0.9812413E-01
          1   -1    0    0  502    0  0.00000000000E+00  0.00000000000E+00  0.10466222699E+03  0.10466222699E+03  0.00000000000E+00 0.  1.
         13   -1    0    0    0    0 -0.00000000000E+00 -0.00000000000E+00 -0.10000000000E+04  0.10000000000E+04  0.00000000000E+00 0.  1.
    9000005    2    1    2  501    0 -0.12685912433E-02  0.67114887372E-04 -0.89534559919E+03  0.11046542984E+04  0.64700647362E+03 0.  0.
         13    1    3    3    0    0 -0.37266675401E+02 -0.25708620414E+03 -0.11849759282E+03  0.28552373099E+03  0.00000000000E+00 0.  1.
          1    1    3    3  501    0  0.37265406810E+02  0.25708627125E+03 -0.77684800638E+03  0.81913056739E+03  0.00000000000E+00 0.  1.
         21    1    1    2  502  501  0.12685912433E-02 -0.67114887394E-04  0.78261839443E-02  0.79286179931E-02  0.00000000000E+00 0. -1.
<mgrwt>
<rscale>  1 0.64700647E+03</rscale>
<asrwt>0</asrwt>
<pdfrwt beam="1">  1        1 0.38059072E+00 0.64700647E+03</pdfrwt>
<pdfrwt beam="2">0</pdfrwt>
<totfact> 0.16320499E+00</totfact>
</mgrwt>
</event>
<event>
 6    1  0.4241696E-003  0.6554285E+03  0.7818608E-02  0.9796646E-01
          1   -1    0    0  502    0  0.00000000000E+00  0.00000000000E+00  0.10741700036E+03  0.10741700036E+03  0.00000000000E+00 0.  1.
         13   -1    0    0    0    0 -0.00000000000E+00 -0.00000000000E+00 -0.10000000000E+04  0.10000000000E+04  0.00000000000E+00 0.  1.
    9000005    2    1    2  501    0 -0.27755179236E-01 -0.24503852149E-01 -0.89258269651E+03  0.11073799750E+04  0.65542851437E+03 0.  0.
         13    1    3    3    0    0  0.31814521159E+03 -0.12553477192E+02 -0.57729989240E+03  0.65927925132E+03  0.00000000000E+00 0.  1.
          1    1    3    3  501    0 -0.31817296677E+03  0.12528973340E+02 -0.31528280411E+03  0.44810072364E+03  0.00000000000E+00 0.  1.
         21    1    1    2  502  501  0.27755179236E-01  0.24503852149E-01 -0.30313028529E-03  0.37025405231E-01  0.00000000000E+00 0. -1.
<mgrwt>
<rscale>  1 0.65542852E+03</rscale>
<asrwt>0</asrwt>
<pdfrwt beam="1">  1        1 0.39060810E+00 0.65542852E+03</pdfrwt>
<pdfrwt beam="2">0</pdfrwt>
<totfact> 0.14714108E+00</totfact>
</mgrwt>
</event>
<event>
 6    1  0.4241696E-003  0.6563336E+03  0.7818608E-02  0.9794967E-01
          1   -1    0    0  502    0  0.00000000000E+00  0.00000000000E+00  0.11088590595E+03  0.11088590595E+03  0.00000000000E+00 0.  1.
         13   -1    0    0    0    0 -0.00000000000E+00 -0.00000000000E+00 -0.10000000000E+04  0.10000000000E+04  0.00000000000E+00 0.  1.
    9000005    2    1    2  501    0  0.89628587218E+00  0.27675820648E+01 -0.89155520331E+03  0.11070882944E+04  0.65632716558E+03 0.  0.
         13    1    3    3    0    0  0.32435662969E+03 -0.21992422918E+02 -0.52586864029E+03  0.61824648542E+03  0.00000000000E+00 0.  1.
          3    1    3    3  501    0 -0.32346034381E+03  0.24760004983E+02 -0.36568656301E+03  0.48884180901E+03  0.00000000000E+00 0.  1.
         21    1    1    2  502  501 -0.89628587218E+00 -0.27675820648E+01  0.24411092539E+01  0.37976115177E+01  0.00000000000E+00 0.  1.
<mgrwt>
<rscale>  1 0.65633361E+03</rscale>
<asrwt>0</asrwt>
<pdfrwt beam="1">  1        1 0.40322233E+00 0.65633361E+03</pdfrwt>
<pdfrwt beam="2">0</pdfrwt>
<totfact> 0.12927510E+00</totfact>
</mgrwt>
</event>
<event>
 6    1  0.4241696E-003  0.6570199E+03  0.7818608E-02  0.9793695E-01
          1   -1    0    0  502    0  0.00000000000E+00  0.00000000000E+00  0.10791878736E+03  0.10791878736E+03  0.00000000000E+00 0.  1.
         13   -1    0    0    0    0 -0.00000000000E+00 -0.00000000000E+00 -0.10000000000E+04  0.10000000000E+04  0.00000000000E+00 0.  1.
    9000005    2    1    2  501    0 -0.95873416797E-05  0.41109016138E-05 -0.89208121773E+03  0.11079187758E+04  0.65701987385E+03 0.  0.
         13    1    3    3    0    0  0.17062163580E+03 -0.27386960869E+03 -0.55002360621E+03  0.63768508886E+03  0.00000000000E+00 0.  1.
          3    1    3    3  501    0 -0.17062164539E+03  0.27386961280E+03 -0.34205761152E+03  0.47023368689E+03  0.00000000000E+00 0.  1.
         21    1    1    2  502  501  0.95873416609E-05 -0.41109016161E-05  0.50902501274E-05  0.11607208044E-04  0.00000000000E+00 0.  1.
<mgrwt>
<rscale>  1 0.65701987E+03</rscale>
<asrwt>0</asrwt>
<pdfrwt beam="1">  1        1 0.39243278E+00 0.65701987E+03</pdfrwt>
<pdfrwt beam="2">0</pdfrwt>
<totfact> 0.14437997E+00</totfact>
</mgrwt>
</event>
<event>
 6    1  0.4241696E-003  0.6482949E+03  0.7818608E-02  0.9809984E-01
          1   -1    0    0  502    0  0.00000000000E+00  0.00000000000E+00  0.10917164481E+03  0.10917164481E+03  0.00000000000E+00 0.  1.
         13   -1    0    0    0    0 -0.00000000000E+00 -0.00000000000E+00 -0.10000000000E+04  0.10000000000E+04  0.00000000000E+00 0.  1.
    9000005    2    1    2  501    0  0.96039416642E+00  0.67550288226E+00 -0.89483531766E+03  0.11049961916E+04  0.64829388330E+03 0.  0.
         13    1    3    3    0    0 -0.38296885185E+02  0.73796465605E+02 -0.98149242833E+03  0.98500759216E+03  0.00000000000E+00 0.  1.
          3    1    3    3  501    0  0.39257279351E+02 -0.73120962723E+02  0.86657110670E+02  0.11998859946E+03  0.00000000000E+00 0.  1.
         21    1    1    2  502  501 -0.96039416642E+00 -0.67550288226E+00  0.40069624701E+01  0.41754531892E+01  0.00000000000E+00 0. -1.
<mgrwt>
<rscale>  1 0.64829495E+03</rscale>
<asrwt>0</asrwt>
<pdfrwt beam="1">  1        1 0.39698864E+00 0.64829495E+03</pdfrwt>
<pdfrwt beam="2">0</pdfrwt>
<totfact> 0.13802782E+00</totfact>
</mgrwt>
</event>
<event>
 6    1  0.4241696E-003  0.6511456E+03  0.7818608E-02  0.9804632E-01
          1   -1    0    0  502    0  0.00000000000E+00  0.00000000000E+00  0.10600670746E+03  0.10600670746E+03  0.00000000000E+00 0.  1.
         13   -1    0    0    0    0 -0.00000000000E+00 -0.00000000000E+00 -0.10000000000E+04  0.10000000000E+04  0.00000000000E+00 0.  1.
    9000005    2    1    2  501    0  0.28836424570E-03 -0.19978315078E-03 -0.89400234268E+03  0.11059976505E+04  0.65114561677E+03 0.  0.
         13    1    3    3    0    0  0.18570109317E+03 -0.23055752163E+03 -0.67712761490E+03  0.73901520529E+03  0.00000000000E+00 0.  1.
          3    1    3    3  501    0 -0.18570080480E+03  0.23055732185E+03 -0.21687472778E+03  0.36698244524E+03  0.00000000000E+00 0.  1.
         21    1    1    2  502  501 -0.28836424572E-03  0.19978315077E-03  0.90501434694E-02  0.90569401049E-02  0.00000000000E+00 0.  1.
<mgrwt>
<rscale>  1 0.65114562E+03</rscale>
<asrwt>0</asrwt>
<pdfrwt beam="1">  1        1 0.38547975E+00 0.65114562E+03</pdfrwt>
<pdfrwt beam="2">0</pdfrwt>
<totfact> 0.15516653E+00</totfact>
</mgrwt>
</event>
<event>
 6    1  0.4241696E-003  0.6471038E+03  0.7818608E-02  0.9812229E-01
          1   -1    0    0  502    0  0.00000000000E+00  0.00000000000E+00  0.10468589058E+03  0.10468589058E+03  0.00000000000E+00 0.  1.
         13   -1    0    0    0    0 -0.00000000000E+00 -0.00000000000E+00 -0.10000000000E+04  0.10000000000E+04  0.00000000000E+00 0.  1.
    9000005    2    1    2  501    0  0.42042294417E-04 -0.92507268505E-04 -0.89531409146E+03  0.11046857874E+04  0.64710382976E+03 0.  0.
         13    1    3    3    0    0 -0.26058951718E+02 -0.19220402201E+03 -0.55669415853E+01  0.19404238166E+03  0.00000000000E+00 0.  1.
          1    1    3    3  501    0  0.26058993760E+02  0.19220392951E+03 -0.88974714988E+03  0.91064340573E+03  0.00000000000E+00 0.  1.
         21    1    1    2  502  501 -0.42042294420E-04  0.92507268523E-04 -0.17959201095E-04  0.10318760659E-03  0.00000000000E+00 0. -1.
<mgrwt>
<rscale>  1 0.64710383E+03</rscale>
<asrwt>0</asrwt>
<pdfrwt beam="1">  1        1 0.38067677E+00 0.64710383E+03</pdfrwt>
<pdfrwt beam="2">0</pdfrwt>
<totfact> 0.16305941E+00</totfact>
</mgrwt>
</event>
<event>
 6    1  0.4241696E-003  0.6498518E+03  0.7818608E-02  0.9807057E-01
          1   -1    0    0  502    0  0.00000000000E+00  0.00000000000E+00  0.10557798976E+03  0.10557798976E+03  0.00000000000E+00 0.  1.
         13   -1    0    0    0    0 -0.00000000000E+00 -0.00000000000E+00 -0.10000000000E+04  0.10000000000E+04  0.00000000000E+00 0.  1.
    9000005    2    1    2  501    0  0.35680802455E-05 -0.22590571092E-04 -0.89442314712E+03  0.11055768526E+04  0.64985183773E+03 0.  0.
         13    1    3    3    0    0  0.14724931649E+03  0.66919450834E+02 -0.92664614543E+03  0.94065596950E+03  0.00000000000E+00 0.  1.
          3    1    3    3  501    0 -0.14724931292E+03 -0.66919473424E+02  0.32222998307E+02  0.16492088315E+03  0.00000000000E+00 0.  1.
         21    1    1    2  502  501 -0.35680802216E-05  0.22590571092E-04  0.11368811775E-02  0.11371111981E-02  0.00000000000E+00 0.  1.
<mgrwt>
<rscale>  1 0.64985184E+03</rscale>
<asrwt>0</asrwt>
<pdfrwt beam="1">  1        1 0.38392077E+00 0.64985184E+03</pdfrwt>
<pdfrwt beam="2">0</pdfrwt>
<totfact> 0.15768721E+00</totfact>
</mgrwt>
</event>
<event>
 6    1  0.4241696E-003  0.6454387E+03  0.7818608E-02  0.9815376E-01
          1   -1    0    0  502    0  0.00000000000E+00  0.00000000000E+00  0.10642697365E+03  0.10642697365E+03  0.00000000000E+00 0.  1.
         13   -1    0    0    0    0 -0.00000000000E+00 -0.00000000000E+00 -0.10000000000E+04  0.10000000000E+04  0.00000000000E+00 0.  1.
    9000005    2    1    2  501    0  0.75353204831E+00  0.43670050298E+01 -0.89317625084E+03  0.11019777069E+04  0.64542343695E+03 0.  0.
         13    1    3    3    0    0 -0.72762714018E+02 -0.29307633400E+03 -0.25966624369E+03  0.39826462085E+03  0.00000000000E+00 0.  1.
          3    1    3    3  501    0  0.73516246067E+02  0.29744333903E+03 -0.63351000715E+03  0.70371308609E+03  0.00000000000E+00 0.  1.
         21    1    1    2  502  501 -0.75353204831E+00 -0.43670050298E+01 -0.39677551341E+00  0.44492667134E+01  0.00000000000E+00 0.  1.
<mgrwt>
<rscale>  1 0.64543865E+03</rscale>
<asrwt>0</asrwt>
<pdfrwt beam="1">  1        1 0.38700799E+00 0.64543865E+03</pdfrwt>
<pdfrwt beam="2">0</pdfrwt>
<totfact> 0.15293077E+00</totfact>
</mgrwt>
</event>
<event>
 6    1  0.4241696E-003  0.6488372E+03  0.7818608E-02  0.9808963E-01
          1   -1    0    0  502    0  0.00000000000E+00  0.00000000000E+00  0.10524847494E+03  0.10524847494E+03  0.00000000000E+00 0.  1.
         13   -1    0    0    0    0 -0.00000000000E+00 -0.00000000000E+00 -0.10000000000E+04  0.10000000000E+04  0.00000000000E+00 0.  1.
    9000005    2    1    2  501    0  0.14060320893E-04  0.39774781101E-04 -0.89475255605E+03  0.11052474431E+04  0.64883724761E+03 0.  0.
         13    1    3    3    0    0 -0.28878819466E+02  0.24739382466E+03 -0.93285464918E+02  0.26596967620E+03  0.00000000000E+00 0.  1.
          1    1    3    3  501    0  0.28878833527E+02 -0.24739378488E+03 -0.80146709113E+03  0.83927776689E+03  0.00000000000E+00 0.  1.
         21    1    1    2  502  501 -0.14060320894E-04 -0.39774781108E-04  0.10309894635E-02  0.10318522179E-02  0.00000000000E+00 0.  1.
<mgrwt>
<rscale>  1 0.64883725E+03</rscale>
<asrwt>0</asrwt>
<pdfrwt beam="1">  1        1 0.38272253E+00 0.64883725E+03</pdfrwt>
<pdfrwt beam="2">0</pdfrwt>
<totfact> 0.15965162E+00</totfact>
</mgrwt>
</event>
<event>
 6    1  0.4241696E-003  0.6510581E+03  0.7818608E-02  0.9804796E-01
          1   -1    0    0  502    0  0.00000000000E+00  0.00000000000E+00  0.10879112943E+03  0.10879112943E+03  0.00000000000E+00 0.  1.
         13   -1    0    0    0    0 -0.00000000000E+00 -0.00000000000E+00 -0.10000000000E+04  0.10000000000E+04  0.00000000000E+00 0.  1.
    9000005    2    1    2  501    0  0.64767993747E-01 -0.26143605175E+00 -0.89402373716E+03  0.11059634064E+04  0.65105801670E+03 0.  0.
         13    1    3    3    0    0  0.20296969763E+03  0.11629591221E+03 -0.62485437149E+02  0.24212779107E+03  0.00000000000E+00 0.  1.
          1    1    3    3  501    0 -0.20290492963E+03 -0.11655734826E+03 -0.83153830001E+03  0.86383561532E+03  0.00000000000E+00 0.  1.
         21    1    1    2  502  501 -0.64767993747E-01  0.26143605175E+00  0.28148665873E+01  0.28277230427E+01  0.00000000000E+00 0.  1.
<mgrwt>
<rscale>  1 0.65105807E+03</rscale>
<asrwt>0</asrwt>
<pdfrwt beam="1">  1        1 0.39560494E+00 0.65105807E+03</pdfrwt>
<pdfrwt beam="2">0</pdfrwt>
<totfact> 0.13992489E+00</totfact>
</mgrwt>
</event>
<event>
 6    1  0.4241696E-003  0.6425616E+03  0.7818608E-02  0.9820838E-01
          1   -1    0    0  502    0  0.00000000000E+00  0.00000000000E+00  0.10769288881E+03  0.10769288881E+03  0.00000000000E+00 0.  1.
         13   -1    0    0    0    0 -0.00000000000E+00 -0.00000000000E+00 -0.10000000000E+04  0.10000000000E+04  0.00000000000E+00 0.  1.
    9000005    2    1    2  501    0 -0.59727851706E-03  0.27046057089E+00 -0.89677412424E+03  0.11032176955E+04  0.64256157734E+03 0.  0.
         13    1    3    3    0    0 -0.10467220222E+03 -0.88359202853E+02  0.50554773096E+02  0.14601165614E+03  0.00000000000E+00 0.  1.
          3    1    3    3  501    0  0.10467160494E+03  0.88629663424E+02 -0.94732889734E+03  0.95720603939E+03  0.00000000000E+00 0.  1.
         21    1    1    2  502  501  0.59727851706E-03 -0.27046057089E+00  0.44670130557E+01  0.44751932826E+01  0.00000000000E+00 0. -1.
<mgrwt>
<rscale>  1 0.64256163E+03</rscale>
<asrwt>0</asrwt>
<pdfrwt beam="1">  1        1 0.39161133E+00 0.64256163E+03</pdfrwt>
<pdfrwt beam="2">0</pdfrwt>
<totfact> 0.14599224E+00</totfact>
</mgrwt>
</event>
<event>
 6    1  0.4241696E-003  0.6371675E+03  0.7818608E-02  0.9831161E-01
          1   -1    0    0  502    0  0.00000000000E+00  0.00000000000E+00  0.10149560368E+03  0.10149560368E+03  0.00000000000E+00 0.  1.
         13   -1    0    0    0    0 -0.00000000000E+00 -0.00000000000E+00 -0.10000000000E+04  0.10000000000E+04  0.00000000000E+00 0.  1.
    9000005    2    1    2  501    0 -0.12224769250E-05  0.24586067866E-05 -0.89850440985E+03  0.11014955899E+04  0.63716745051E+03 0.  0.
         13    1    3    3    0    0  0.12572261734E+03 -0.20200132634E+03 -0.81550352504E+03  0.84950380323E+03  0.00000000000E+00 0.  1.
          3    1    3    3  501    0 -0.12572261856E+03  0.20200132880E+03 -0.83000884817E+02  0.25199178664E+03  0.00000000000E+00 0.  1.
         21    1    1    2  502  501  0.12224769165E-05 -0.24586067717E-05  0.13527100059E-04  0.13802957403E-04  0.00000000000E+00 0. -1.
<mgrwt>
<rscale>  1 0.63716745E+03</rscale>
<asrwt>0</asrwt>
<pdfrwt beam="1">  1        1 0.36907570E+00 0.63716745E+03</pdfrwt>
<pdfrwt beam="2">0</pdfrwt>
<totfact> 0.18373811E+00</totfact>
</mgrwt>
</event>
<event>
 6    1  0.4241696E-003  0.6492916E+03  0.7818608E-02  0.9808109E-01
          1   -1    0    0  502    0  0.00000000000E+00  0.00000000000E+00  0.10546988421E+03  0.10546988421E+03  0.00000000000E+00 0.  1.
         13   -1    0    0    0    0 -0.00000000000E+00 -0.00000000000E+00 -0.10000000000E+04  0.10000000000E+04  0.00000000000E+00 0.  1.
    9000005    2    1    2  501    0  0.55092031262E-03  0.10385733945E-02 -0.89460510422E+03  0.11053948866E+04  0.64929158531E+03 0.  0.
         13    1    3    3    0    0 -0.70598430533E+02 -0.50440752916E+01 -0.98670459535E+03  0.98923987969E+03  0.00000000000E+00 0.  1.
          3    1    3    3  501    0  0.70598981454E+02  0.50451138650E+01  0.92099491128E+02  0.11615500688E+03  0.00000000000E+00 0.  1.
         21    1    1    2  502  501 -0.55092031262E-03 -0.10385733945E-02  0.74988431484E-01  0.74997646658E-01  0.00000000000E+00 0.  1.
<mgrwt>
<rscale>  1 0.64929159E+03</rscale>
<asrwt>0</asrwt>
<pdfrwt beam="1">  1        1 0.38352766E+00 0.64929159E+03</pdfrwt>
<pdfrwt beam="2">0</pdfrwt>
<totfact> 0.15833578E+00</totfact>
</mgrwt>
</event>
<event>
 6    1  0.4241696E-003  0.6036703E+03  0.7818608E-02  0.9897820E-01
          1   -1    0    0  502    0  0.00000000000E+00  0.00000000000E+00  0.91105063718E+02  0.91105063718E+02  0.00000000000E+00 0.  1.
         13   -1    0    0    0    0 -0.00000000000E+00 -0.00000000000E+00 -0.10000000000E+04  0.10000000000E+04  0.00000000000E+00 0.  1.
    9000005    2    1    2  501    0 -0.15117361517E-03  0.43405959601E-03 -0.90889543223E+03  0.10911043875E+04  0.60367033866E+03 0.  0.
         13    1    3    3    0    0 -0.27326326497E+03 -0.42873885645E+02 -0.67279432879E+03  0.72743603904E+03  0.00000000000E+00 0.  1.
          3    1    3    3  501    0  0.27326311379E+03  0.42874319705E+02 -0.23610110344E+03  0.36366834849E+03  0.00000000000E+00 0.  1.
         21    1    1    2  502  501  0.15117361519E-03 -0.43405959601E-03  0.49594410108E-03  0.67618174052E-03  0.00000000000E+00 0.  1.
<mgrwt>
<rscale>  1 0.60367034E+03</rscale>
<asrwt>0</asrwt>
<pdfrwt beam="1">  1        1 0.33129184E+00 0.60367034E+03</pdfrwt>
<pdfrwt beam="2">0</pdfrwt>
<totfact> 0.27008422E+00</totfact>
</mgrwt>
</event>
<event>
 6    1  0.4241696E-003  0.6418506E+03  0.7818608E-02  0.9822192E-01
          1   -1    0    0  502    0  0.00000000000E+00  0.00000000000E+00  0.10299305155E+03  0.10299305155E+03  0.00000000000E+00 0.  1.
         13   -1    0    0    0    0 -0.00000000000E+00 -0.00000000000E+00 -0.10000000000E+04  0.10000000000E+04  0.00000000000E+00 0.  1.
    9000005    2    1    2  501    0  0.30318878146E-05  0.12144106591E-05 -0.89700695202E+03  0.11029930467E+04  0.64185059720E+03 0.  0.
         13    1    3    3    0    0  0.22520683339E+03  0.88712226276E+02 -0.81062564447E+03  0.84599167393E+03  0.00000000000E+00 0.  1.
          3    1    3    3  501    0 -0.22520683036E+03 -0.88712225061E+02 -0.86381307554E+02  0.25700137278E+03  0.00000000000E+00 0.  1.
         21    1    1    2  502  501 -0.30318878067E-05 -0.12144106536E-05  0.35684320712E-05  0.48374419226E-05  0.00000000000E+00 0. -1.
<mgrwt>
<rscale>  1 0.64185060E+03</rscale>
<asrwt>0</asrwt>
<pdfrwt beam="1">  1        1 0.37452098E+00 0.64185060E+03</pdfrwt>
<pdfrwt beam="2">0</pdfrwt>
<totfact> 0.17373768E+00</totfact>
</mgrwt>
</event>
<event>
 6    1  0.4241696E-003  0.6478966E+03  0.7818608E-02  0.9810734E-01
          1   -1    0    0  502    0  0.00000000000E+00  0.00000000000E+00  0.10494269616E+03  0.10494269616E+03  0.00000000000E+00 0.  1.
         13   -1    0    0    0    0 -0.00000000000E+00 -0.00000000000E+00 -0.10000000000E+04  0.10000000000E+04  0.00000000000E+00 0.  1.
    9000005    2    1    2  501    0 -0.10776271748E-03  0.86529405866E-04 -0.89505748416E+03  0.11049424690E+04  0.64789656566E+03 0.  0.
         13    1    3    3    0    0  0.20385361859E+03  0.31653412012E+02 -0.21566156018E+02  0.20742067253E+03  0.00000000000E+00 0.  1.
          3    1    3    3  501    0 -0.20385372636E+03 -0.31653325483E+02 -0.87349132814E+03  0.89752179645E+03  0.00000000000E+00 0.  1.
         21    1    1    2  502  501  0.10776271748E-03 -0.86529405868E-04  0.18031098747E-03  0.22718317183E-03  0.00000000000E+00 0. -1.
<mgrwt>
<rscale>  1 0.64789657E+03</rscale>
<asrwt>0</asrwt>
<pdfrwt beam="1">  1        1 0.38161061E+00 0.64789657E+03</pdfrwt>
<pdfrwt beam="2">0</pdfrwt>
<totfact> 0.16149530E+00</totfact>
</mgrwt>
</event>
<event>
 6    1  0.4241696E-003  0.6570596E+03  0.7818608E-02  0.9793622E-01
          1   -1    0    0  502    0  0.00000000000E+00  0.00000000000E+00  0.10793949328E+03  0.10793949328E+03  0.00000000000E+00 0.  1.
         13   -1    0    0    0    0 -0.00000000000E+00 -0.00000000000E+00 -0.10000000000E+04  0.10000000000E+04  0.00000000000E+00 0.  1.
    9000005    2    1    2  501    0 -0.34059602058E-04 -0.12768202953E-03 -0.89206815831E+03  0.11079318405E+04  0.65705963521E+03 0.  0.
         13    1    3    3    0    0  0.11154944238E+03  0.29411368991E+03 -0.28619482125E+03  0.42526887541E+03  0.00000000000E+00 0.  1.
          1    1    3    3  501    0 -0.11154947644E+03 -0.29411381759E+03 -0.60587333707E+03  0.68266296513E+03  0.00000000000E+00 0.  1.
         21    1    1    2  502  501  0.34059602061E-04  0.12768202952E-03  0.76515877648E-02  0.76527287996E-02  0.00000000000E+00 0. -1.
<mgrwt>
<rscale>  1 0.65705964E+03</rscale>
<asrwt>0</asrwt>
<pdfrwt beam="1">  1        1 0.39250808E+00 0.65705964E+03</pdfrwt>
<pdfrwt beam="2">0</pdfrwt>
<totfact> 0.14426779E+00</totfact>
</mgrwt>
</event>
<event>
 6    1  0.4241696E-003  0.5341800E+03  0.7818608E-02  0.1005223E+00
          1   -1    0    0  502    0  0.00000000000E+00  0.00000000000E+00  0.71596376891E+02  0.71596376891E+02  0.00000000000E+00 0.  1.
         13   -1    0    0    0    0 -0.00000000000E+00 -0.00000000000E+00 -0.10000000000E+04  0.10000000000E+04  0.00000000000E+00 0.  1.
    9000005    2    1    2  501    0 -0.77232254669E-02  0.59865679594E-02 -0.92866284545E+03  0.10713369704E+04  0.53417995434E+03 0.  0.
         13    1    3    3    0    0  0.12449431951E+03 -0.67966716873E+02 -0.10440565728E+02  0.14222276754E+03  0.00000000000E+00 0.  1.
          3    1    3    3  501    0 -0.12450204274E+03  0.67972703441E+02 -0.91822227972E+03  0.92911420290E+03  0.00000000000E+00 0.  1.
         21    1    1    2  502  501  0.77232254669E-02 -0.59865679594E-02  0.25922233800E+00  0.25940645275E+00  0.00000000000E+00 0. -1.
<mgrwt>
<rscale>  1 0.53417995E+03</rscale>
<asrwt>0</asrwt>
<pdfrwt beam="1">  1        1 0.26035101E+00 0.53417995E+03</pdfrwt>
<pdfrwt beam="2">0</pdfrwt>
<totfact> 0.55366869E+00</totfact>
</mgrwt>
</event>
<event>
 6    1  0.4241696E-003  0.6568956E+03  0.7818608E-02  0.9793925E-01
          1   -1    0    0  502    0  0.00000000000E+00  0.00000000000E+00  0.11176125592E+03  0.11176125592E+03  0.00000000000E+00 0.  1.
         13   -1    0    0    0    0 -0.00000000000E+00 -0.00000000000E+00 -0.10000000000E+04  0.10000000000E+04  0.00000000000E+00 0.  1.
    9000005    2    1    2  501    0 -0.67609650029E-01 -0.31424888504E-01 -0.89212165849E+03  0.11078776258E+04  0.65689555839E+03 0.  0.
         13    1    3    3    0    0  0.26882509152E+03 -0.11200418774E+02 -0.76364718131E+03  0.80966005011E+03  0.00000000000E+00 0.  1.
          1    1    3    3  501    0 -0.26889270117E+03  0.11168993886E+02 -0.12847447718E+03  0.29821757569E+03  0.00000000000E+00 0.  1.
         21    1    1    2  502  501  0.67609650029E-01  0.31424888504E-01  0.38829144151E+01  0.38836301244E+01  0.00000000000E+00 0. -1.
<mgrwt>
<rscale>  1 0.65689556E+03</rscale>
<asrwt>0</asrwt>
<pdfrwt beam="1">  1        1 0.40640542E+00 0.65689556E+03</pdfrwt>
<pdfrwt beam="2">0</pdfrwt>
<totfact> 0.12509479E+00</totfact>
</mgrwt>
</event>
<event>
 6    1  0.4241696E-003  0.6407526E+03  0.7818608E-02  0.9824288E-01
          1   -1    0    0  502    0  0.00000000000E+00  0.00000000000E+00  0.10266096625E+03  0.10266096625E+03  0.00000000000E+00 0.  1.
         13   -1    0    0    0    0 -0.00000000000E+00 -0.00000000000E+00 -0.10000000000E+04  0.10000000000E+04  0.00000000000E+00 0.  1.
    9000005    2    1    2  501    0  0.46340149069E-03  0.54775720372E-04 -0.89735900971E+03  0.11026409848E+04  0.64075264272E+03 0.  0.
         13    1    3    3    0    0  0.19229588683E+03 -0.21826172983E+03 -0.21764165374E+03  0.36329572010E+03  0.00000000000E+00 0.  1.
          3    1    3    3  501    0 -0.19229542343E+03  0.21826178461E+03 -0.67971735597E+03  0.73934526474E+03  0.00000000000E+00 0.  1.
         21    1    1    2  502  501 -0.46340149069E-03 -0.54775720377E-04  0.19975958300E-01  0.19981407641E-01  0.00000000000E+00 0. -1.
<mgrwt>
<rscale>  1 0.64075264E+03</rscale>
<asrwt>0</asrwt>
<pdfrwt beam="1">  1        1 0.37331339E+00 0.64075264E+03</pdfrwt>
<pdfrwt beam="2">0</pdfrwt>
<totfact> 0.17591145E+00</totfact>
</mgrwt>
</event>
<event>
 6    1  0.4241696E-003  0.6424274E+03  0.7818608E-02  0.9821093E-01
          1   -1    0    0  502    0  0.00000000000E+00  0.00000000000E+00  0.10319418138E+03  0.10319418138E+03  0.00000000000E+00 0.  1.
         13   -1    0    0    0    0 -0.00000000000E+00 -0.00000000000E+00 -0.10000000000E+04  0.10000000000E+04  0.00000000000E+00 0.  1.
    9000005    2    1    2  501    0  0.25035779512E-03  0.23403199236E-04 -0.89682175930E+03  0.11031782387E+04  0.64242739545E+03 0.  0.
         13    1    3    3    0    0 -0.73181669140E+02 -0.30801983021E+03 -0.35519909800E+03  0.47581316892E+03  0.00000000000E+00 0.  1.
          3    1    3    3  501    0  0.73181919497E+02  0.30801985362E+03 -0.54162266130E+03  0.62736506979E+03  0.00000000000E+00 0.  1.
         21    1    1    2  502  501 -0.25035779512E-03 -0.23403199263E-04  0.15940681951E-01  0.15942665016E-01  0.00000000000E+00 0.  1.
<mgrwt>
<rscale>  1 0.64242740E+03</rscale>
<asrwt>0</asrwt>
<pdfrwt beam="1">  1        1 0.37525236E+00 0.64242740E+03</pdfrwt>
<pdfrwt beam="2">0</pdfrwt>
<totfact> 0.17243639E+00</totfact>
</mgrwt>
</event>
<event>
 6    1  0.4241696E-003  0.6594043E+03  0.7818608E-02  0.9789291E-01
          1   -1    0    0  502    0  0.00000000000E+00  0.00000000000E+00  0.10871391945E+03  0.10871391945E+03  0.00000000000E+00 0.  1.
         13   -1    0    0    0    0 -0.00000000000E+00 -0.00000000000E+00 -0.10000000000E+04  0.10000000000E+04  0.00000000000E+00 0.  1.
    9000005    2    1    2  501    0  0.10001084049E-02 -0.28333582185E-02 -0.89129626449E+03  0.11087033015E+04  0.65940426119E+03 0.  0.
         13    1    3    3    0    0 -0.27854429229E+03  0.12672354013E+03 -0.65196332178E+03  0.72020965790E+03  0.00000000000E+00 0.  1.
          1    1    3    3  501    0  0.27854529240E+03 -0.12672637349E+03 -0.23933294271E+03  0.38849364360E+03  0.00000000000E+00 0.  1.
         21    1    1    2  502  501 -0.10001084050E-02  0.28333582185E-02  0.10183937702E-01  0.10617943433E-01  0.00000000000E+00 0.  1.
<mgrwt>
<rscale>  1 0.65940426E+03</rscale>
<asrwt>0</asrwt>
<pdfrwt beam="1">  1        1 0.39532418E+00 0.65940426E+03</pdfrwt>
<pdfrwt beam="2">0</pdfrwt>
<totfact> 0.14010856E+00</totfact>
</mgrwt>
</event>
<event>
 6    1  0.4241696E-003  0.6503897E+03  0.7818608E-02  0.9806048E-01
          1   -1    0    0  502    0  0.00000000000E+00  0.00000000000E+00  0.10579064864E+03  0.10579064864E+03  0.00000000000E+00 0.  1.
         13   -1    0    0    0    0 -0.00000000000E+00 -0.00000000000E+00 -0.10000000000E+04  0.10000000000E+04  0.00000000000E+00 0.  1.
    9000005    2    1    2  501    0 -0.41320787152E-01 -0.85864812682E-01 -0.89416805403E+03  0.11056867947E+04  0.65038970626E+03 0.  0.
         13    1    3    3    0    0  0.20698256547E+03 -0.16304465248E+03 -0.12305309120E+03  0.29080475300E+03  0.00000000000E+00 0.  1.
          1    1    3    3  501    0 -0.20702388626E+03  0.16295878767E+03 -0.77111496283E+03  0.81488204169E+03  0.00000000000E+00 0.  1.
         21    1    1    2  502  501  0.41320787152E-01  0.85864812682E-01 -0.41297332783E-01  0.10385395131E+00  0.00000000000E+00 0. -1.
<mgrwt>
<rscale>  1 0.65038971E+03</rscale>
<asrwt>0</asrwt>
<pdfrwt beam="1">  1        1 0.38469408E+00 0.65038971E+03</pdfrwt>
<pdfrwt beam="2">0</pdfrwt>
<totfact> 0.15643504E+00</totfact>
</mgrwt>
</event>
<event>
 6    1  0.4241696E-003  0.6525829E+03  0.7818608E-02  0.9801945E-01
          3   -1    0    0  502    0  0.00000000000E+00  0.00000000000E+00  0.10646621967E+03  0.10646621967E+03  0.00000000000E+00 0.  1.
         13   -1    0    0    0    0 -0.00000000000E+00 -0.00000000000E+00 -0.10000000000E+04  0.10000000000E+04  0.00000000000E+00 0.  1.
    9000005    2    1    2  501    0 -0.68943010064E-04 -0.29838611965E-04 -0.89353387043E+03  0.11064661024E+04  0.65258291280E+03 0.  0.
         13    1    3    3    0    0  0.13308113521E+03 -0.15073514426E+03 -0.11066827998E+02  0.20138060221E+03  0.00000000000E+00 0.  1.
          1    1    3    3  501    0 -0.13308120415E+03  0.15073511442E+03 -0.88246704243E+03  0.90508550016E+03  0.00000000000E+00 0.  1.
         21    1    1    2  502  501  0.68943010074E-04  0.29838611984E-04  0.90092224141E-04  0.11730341109E-03  0.00000000000E+00 0.  1.
<mgrwt>
<rscale>  1 0.65258291E+03</rscale>
<asrwt>0</asrwt>
<pdfrwt beam="1">  1        3 0.38715071E+00 0.65258291E+03</pdfrwt>
<pdfrwt beam="2">0</pdfrwt>
<totfact> 0.69170293E-02</totfact>
</mgrwt>
</event>
<event>
 6    1  0.4241696E-003  0.6640539E+03  0.7818608E-02  0.9780760E-01
          1   -1    0    0  502    0  0.00000000000E+00  0.00000000000E+00  0.11046199210E+03  0.11046199210E+03  0.00000000000E+00 0.  1.
         13   -1    0    0    0    0 -0.00000000000E+00 -0.00000000000E+00 -0.10000000000E+04  0.10000000000E+04  0.00000000000E+00 0.  1.
    9000005    2    1    2  501    0 -0.91815732385E-01  0.75480618623E-01 -0.88974013415E+03  0.11102275087E+04  0.66405391392E+03 0.  0.
         13    1    3    3    0    0  0.75438218844E+01  0.22370125191E+03 -0.34832072198E+02  0.22652247705E+03  0.00000000000E+00 0.  1.
          1    1    3    3  501    0 -0.76356376168E+01 -0.22362577129E+03 -0.85490806195E+03  0.88370503163E+03  0.00000000000E+00 0.  1.
         21    1    1    2  502  501  0.91815732385E-01 -0.75480618623E-01  0.20212625343E+00  0.23448342122E+00  0.00000000000E+00 0.  1.
<mgrwt>
<rscale>  1 0.66405392E+03</rscale>
<asrwt>0</asrwt>
<pdfrwt beam="1">  1        1 0.40168082E+00 0.66405392E+03</pdfrwt>
<pdfrwt beam="2">0</pdfrwt>
<totfact> 0.13114903E+00</totfact>
</mgrwt>
</event>
<event>
 6    1  0.4241696E-003  0.6491075E+03  0.7818608E-02  0.9808455E-01
          1   -1    0    0  502    0  0.00000000000E+00  0.00000000000E+00  0.10533555501E+03  0.10533555501E+03  0.00000000000E+00 0.  1.
         13   -1    0    0    0    0 -0.00000000000E+00 -0.00000000000E+00 -0.10000000000E+04  0.10000000000E+04  0.00000000000E+00 0.  1.
    9000005    2    1    2  501    0  0.27789022369E-04  0.57546506582E-05 -0.89466487344E+03  0.11053351256E+04  0.64910746736E+03 0.  0.
         13    1    3    3    0    0 -0.71142740622E+02  0.31629485557E+03 -0.47323601033E+03  0.57363407036E+03  0.00000000000E+00 0.  1.
          3    1    3    3  501    0  0.71142768411E+02 -0.31629484981E+03 -0.42142886311E+03  0.53170105527E+03  0.00000000000E+00 0.  1.
         21    1    1    2  502  501 -0.27789022363E-04 -0.57546506670E-05  0.42844773673E-03  0.42938654948E-03  0.00000000000E+00 0.  1.
<mgrwt>
<rscale>  1 0.64910747E+03</rscale>
<asrwt>0</asrwt>
<pdfrwt beam="1">  1        1 0.38303919E+00 0.64910747E+03</pdfrwt>
<pdfrwt beam="2">0</pdfrwt>
<totfact> 0.15913018E+00</totfact>
</mgrwt>
</event>
<event>
 6    1  0.4241696E-003  0.6789143E+03  0.7818608E-02  0.9753987E-01
          1   -1    0    0  502    0  0.00000000000E+00  0.00000000000E+00  0.11523143362E+03  0.11523143362E+03  0.00000000000E+00 0.  1.
         13   -1    0    0    0    0 -0.00000000000E+00 -0.00000000000E+00 -0.10000000000E+04  0.10000000000E+04  0.00000000000E+00 0.  1.
    9000005    2    1    2  501    0 -0.62409996178E-03  0.43232646263E-03 -0.88476810182E+03  0.11152305436E+04  0.67891425915E+03 0.  0.
         13    1    3    3    0    0 -0.27908575071E+03  0.15379056632E+03 -0.63459059883E+03  0.71010254377E+03  0.00000000000E+00 0.  1.
          1    1    3    3  501    0  0.27908512661E+03 -0.15379013399E+03 -0.25017750299E+03  0.40512799979E+03  0.00000000000E+00 0.  1.
         21    1    1    2  502  501  0.62409996181E-03 -0.43232646264E-03 -0.46455320055E-03  0.89006550813E-03  0.00000000000E+00 0. -1.
<mgrwt>
<rscale>  1 0.67891426E+03</rscale>
<asrwt>0</asrwt>
<pdfrwt beam="1">  1        1 0.41902428E+00 0.67891426E+03</pdfrwt>
<pdfrwt beam="2">0</pdfrwt>
<totfact> 0.10932624E+00</totfact>
</mgrwt>
</event>
<event>
 6    1  0.4241696E-003  0.6385792E+03  0.7818608E-02  0.9828449E-01
          1   -1    0    0  502    0  0.00000000000E+00  0.00000000000E+00  0.10194601177E+03  0.10194601177E+03  0.00000000000E+00 0.  1.
         13   -1    0    0    0    0 -0.00000000000E+00 -0.00000000000E+00 -0.10000000000E+04  0.10000000000E+04  0.00000000000E+00 0.  1.
    9000005    2    1    2  501    0  0.17131065420E-05  0.44269829512E-04 -0.89805415324E+03  0.11019458409E+04  0.63857918394E+03 0.  0.
         13    1    3    3    0    0 -0.18565418525E+03 -0.28833862653E+02 -0.35393810980E+01  0.18791326551E+03  0.00000000000E+00 0.  1.
          3    1    3    3  501    0  0.18565418696E+03  0.28833906923E+02 -0.89451477214E+03  0.91403257541E+03  0.00000000000E+00 0.  1.
         21    1    1    2  502  501 -0.17131065435E-05 -0.44269829513E-04  0.16501220047E-03  0.17085601787E-03  0.00000000000E+00 0.  1.
<mgrwt>
<rscale>  1 0.63857918E+03</rscale>
<asrwt>0</asrwt>
<pdfrwt beam="1">  1        1 0.37071355E+00 0.63857918E+03</pdfrwt>
<pdfrwt beam="2">0</pdfrwt>
<totfact> 0.18067362E+00</totfact>
</mgrwt>
</event>
<event>
 6    1  0.4241696E-003  0.6405604E+03  0.7818608E-02  0.9824655E-01
          1   -1    0    0  502    0  0.00000000000E+00  0.00000000000E+00  0.10263687878E+03  0.10263687878E+03  0.00000000000E+00 0.  1.
         13   -1    0    0    0    0 -0.00000000000E+00 -0.00000000000E+00 -0.10000000000E+04  0.10000000000E+04  0.00000000000E+00 0.  1.
    9000005    2    1    2  501    0  0.24227006773E-02  0.26390183888E-03 -0.89742057149E+03  0.11025793768E+04  0.64056037976E+03 0.  0.
         13    1    3    3    0    0  0.49372898472E+02 -0.33847606599E+02 -0.99028599385E+03  0.99209359095E+03  0.00000000000E+00 0.  1.
          3    1    3    3  501    0 -0.49370475771E+02  0.33847870501E+02  0.92865422364E+02  0.11048578590E+03  0.00000000000E+00 0.  1.
         21    1    1    2  502  501 -0.24227006773E-02 -0.26390183888E-03  0.57450270497E-01  0.57501936515E-01  0.00000000000E+00 0.  1.
<mgrwt>
<rscale>  1 0.64056038E+03</rscale>
<asrwt>0</asrwt>
<pdfrwt beam="1">  1        1 0.37322580E+00 0.64056038E+03</pdfrwt>
<pdfrwt beam="2">0</pdfrwt>
<totfact> 0.17607375E+00</totfact>
</mgrwt>
</event>
<event>
 6    1  0.4241696E-003  0.6392696E+03  0.7818608E-02  0.9827125E-01
          1   -1    0    0  502    0  0.00000000000E+00  0.00000000000E+00  0.10216851519E+03  0.10216851519E+03  0.00000000000E+00 0.  1.
         13   -1    0    0    0    0 -0.00000000000E+00 -0.00000000000E+00 -0.10000000000E+04  0.10000000000E+04  0.00000000000E+00 0.  1.
    9000005    2    1    2  501    0 -0.11007008239E-03 -0.57129478674E-03 -0.89783355165E+03  0.11021663680E+04  0.63926959598E+03 0.  0.
         13    1    3    3    0    0 -0.55091241655E+02 -0.25134357823E+03 -0.77585130394E+03  0.81740680511E+03  0.00000000000E+00 0.  1.
          1    1    3    3  501    0  0.55091131585E+02  0.25134300694E+03 -0.12198224771E+03  0.28475956291E+03  0.00000000000E+00 0.  1.
         21    1    1    2  502  501  0.11007008239E-03  0.57129478673E-03  0.20668389010E-02  0.21471646884E-02  0.00000000000E+00 0.  1.
<mgrwt>
<rscale>  1 0.63926960E+03</rscale>
<asrwt>0</asrwt>
<pdfrwt beam="1">  1        1 0.37152266E+00 0.63926960E+03</pdfrwt>
<pdfrwt beam="2">0</pdfrwt>
<totfact> 0.17917806E+00</totfact>
</mgrwt>
</event>
<event>
 6    1  0.4241696E-003  0.6472829E+03  0.7818608E-02  0.9811891E-01
          1   -1    0    0  502    0  0.00000000000E+00  0.00000000000E+00  0.10474379039E+03  0.10474379039E+03  0.00000000000E+00 0.  1.
         13   -1    0    0    0    0 -0.00000000000E+00 -0.00000000000E+00 -0.10000000000E+04  0.10000000000E+04  0.00000000000E+00 0.  1.
    9000005    2    1    2  501    0 -0.52782479543E-06  0.68675512921E-06 -0.89525621649E+03  0.11047437835E+04  0.64728288556E+03 0.  0.
         13    1    3    3    0    0 -0.23737992049E+03 -0.21792575306E+03 -0.39634282109E+03  0.51081160160E+03  0.00000000000E+00 0.  1.
          3    1    3    3  501    0  0.23737991996E+03  0.21792575375E+03 -0.49891339540E+03  0.59393218186E+03  0.00000000000E+00 0.  1.
         21    1    1    2  502  501  0.52782477520E-06 -0.68675512769E-06  0.68721629585E-05  0.69265327060E-05  0.00000000000E+00 0.  1.
<mgrwt>
<rscale>  1 0.64728289E+03</rscale>
<asrwt>0</asrwt>
<pdfrwt beam="1">  1        1 0.38088731E+00 0.64728289E+03</pdfrwt>
<pdfrwt beam="2">0</pdfrwt>
<totfact> 0.16270550E+00</totfact>
</mgrwt>
</event>
<event>
 6    1  0.4241696E-003  0.5683963E+03  0.7818608E-02  0.9973234E-01
          1   -1    0    0  502    0  0.00000000000E+00  0.00000000000E+00  0.80770336916E+02  0.80770336916E+02  0.00000000000E+00 0.  1.
         13   -1    0    0    0    0 -0.00000000000E+00 -0.00000000000E+00 -0.10000000000E+04  0.10000000000E+04  0.00000000000E+00 0.  1.
    9000005    2    1    2  501    0  0.48416095837E-04 -0.41769620452E-04 -0.91923141198E+03  0.10807685868E+04  0.56839629621E+03 0.  0.
         13    1    3    3    0    0  0.60973264205E+02 -0.16996928779E+03 -0.42332848868E+02  0.18547066569E+03  0.00000000000E+00 0.  1.
          3    1    3    3  501    0 -0.60973215789E+02  0.16996924602E+03 -0.87689856311E+03  0.89529792116E+03  0.00000000000E+00 0.  1.
         21    1    1    2  502  501 -0.48416095840E-04  0.41769620460E-04  0.17488980289E-02  0.17500666087E-02  0.00000000000E+00 0. -1.
<mgrwt>
<rscale>  1 0.56839630E+03</rscale>
<asrwt>0</asrwt>
<pdfrwt beam="1">  1        1 0.29371094E+00 0.56839630E+03</pdfrwt>
<pdfrwt beam="2">0</pdfrwt>
<totfact> 0.39496802E+00</totfact>
</mgrwt>
</event>
<event>
 6    1  0.4241696E-003  0.6519786E+03  0.7818608E-02  0.9803073E-01
          1   -1    0    0  502    0  0.00000000000E+00  0.00000000000E+00  0.11084181805E+03  0.11084181805E+03  0.00000000000E+00 0.  1.
         13   -1    0    0    0    0 -0.00000000000E+00 -0.00000000000E+00 -0.10000000000E+04  0.10000000000E+04  0.00000000000E+00 0.  1.
    9000005    2    1    2  501    0 -0.24241348961E+00 -0.43459027320E+00 -0.89371598049E+03  0.11062569341E+04  0.65197845280E+03 0.  0.
         13    1    3    3    0    0  0.84426457238E+02  0.24763769761E+02  0.85724702245E+02  0.12284052894E+03  0.00000000000E+00 0.  1.
          3    1    3    3  501    0 -0.84668870728E+02 -0.25198360034E+02 -0.97944068273E+03  0.98341640520E+03  0.00000000000E+00 0.  1.
         21    1    1    2  502  501  0.24241348961E+00  0.43459027320E+00  0.45577985389E+01  0.45848839164E+01  0.00000000000E+00 0.  1.
<mgrwt>
<rscale>  1 0.65197864E+03</rscale>
<asrwt>0</asrwt>
<pdfrwt beam="1">  1        1 0.40306201E+00 0.65197864E+03</pdfrwt>
<pdfrwt beam="2">0</pdfrwt>
<totfact> 0.12959581E+00</totfact>
</mgrwt>
</event>
<event>
 6    1  0.4241696E-003  0.6367033E+03  0.7818608E-02  0.9832054E-01
          1   -1    0    0  502    0  0.00000000000E+00  0.00000000000E+00  0.10134818818E+03  0.10134818818E+03  0.00000000000E+00 0.  1.
         13   -1    0    0    0    0 -0.00000000000E+00 -0.00000000000E+00 -0.10000000000E+04  0.10000000000E+04  0.00000000000E+00 0.  1.
    9000005    2    1    2  501    0 -0.81417749271E-05  0.21194107285E-03 -0.89865218196E+03  0.11013477616E+04  0.63670334363E+03 0.  0.
         13    1    3    3    0    0 -0.67891413824E+02  0.19618732415E+03 -0.86680267393E+03  0.89131677071E+03  0.00000000000E+00 0.  1.
          3    1    3    3  501    0  0.67891405682E+02 -0.19618711221E+03 -0.31849508034E+02  0.21003099087E+03  0.00000000000E+00 0.  1.
         21    1    1    2  502  501  0.81417749268E-05 -0.21194107286E-03  0.37013939345E-03  0.42660107530E-03  0.00000000000E+00 0. -1.
<mgrwt>
<rscale>  1 0.63670334E+03</rscale>
<asrwt>0</asrwt>
<pdfrwt beam="1">  1        1 0.36853964E+00 0.63670334E+03</pdfrwt>
<pdfrwt beam="2">0</pdfrwt>
<totfact> 0.18475192E+00</totfact>
</mgrwt>
</event>
<event>
 6    1  0.4241696E-003  0.6329933E+03  0.7818608E-02  0.9839225E-01
          1   -1    0    0  502    0  0.00000000000E+00  0.00000000000E+00  0.11504649765E+03  0.11504649765E+03  0.00000000000E+00 0.  1.
         13   -1    0    0    0    0 -0.00000000000E+00 -0.00000000000E+00 -0.10000000000E+04  0.10000000000E+04  0.00000000000E+00 0.  1.
    9000005    2    1    2  501    0 -0.99082134010E+00 -0.21017861484E+00 -0.89981089290E+03  0.11001546222E+04  0.63299251478E+03 0.  0.
         13    1    3    3    0    0 -0.47952176360E+02 -0.16974913025E+03 -0.90708990770E+03  0.92408131627E+03  0.00000000000E+00 0.  1.
          1    1    3    3  501    0  0.46961355020E+02  0.16953895163E+03  0.72790148031E+01  0.17607330588E+03  0.00000000000E+00 0.  1.
         21    1    1    2  502  501  0.99082134010E+00  0.21017861484E+00  0.14857390550E+02  0.14891875501E+02  0.00000000000E+00 0.  1.
<mgrwt>
<rscale>  1 0.63299333E+03</rscale>
<asrwt>0</asrwt>
<pdfrwt beam="1">  1        1 0.41835178E+00 0.63299333E+03</pdfrwt>
<pdfrwt beam="2">0</pdfrwt>
<totfact> 0.11108574E+00</totfact>
</mgrwt>
</event>
<event>
 6    1  0.4241696E-003  0.6464043E+03  0.7818608E-02  0.9813550E-01
          1   -1    0    0  502    0  0.00000000000E+00  0.00000000000E+00  0.10502450982E+03  0.10502450982E+03  0.00000000000E+00 0.  1.
         13   -1    0    0    0    0 -0.00000000000E+00 -0.00000000000E+00 -0.10000000000E+04  0.10000000000E+04  0.00000000000E+00 0.  1.
    9000005    2    1    2  501    0 -0.63093661113E-02  0.22339305746E-01 -0.89554010310E+03  0.11044594199E+04  0.64640431113E+03 0.  0.
         13    1    3    3    0    0 -0.11551498243E+03  0.16995589117E+03 -0.21529732084E+02  0.20662101895E+03  0.00000000000E+00 0.  1.
          1    1    3    3  501    0  0.11550867306E+03 -0.16993355187E+03 -0.87401037101E+03  0.89783840096E+03  0.00000000000E+00 0.  1.
         21    1    1    2  502  501  0.63093661113E-02 -0.22339305746E-01  0.56461291906E+00  0.56508990528E+00  0.00000000000E+00 0.  1.
<mgrwt>
<rscale>  1 0.64640431E+03</rscale>
<asrwt>0</asrwt>
<pdfrwt beam="1">  1        1 0.38190811E+00 0.64640431E+03</pdfrwt>
<pdfrwt beam="2">0</pdfrwt>
<totfact> 0.16105178E+00</totfact>
</mgrwt>
</event>
<event>
 6    1  0.4241696E-003  0.6553134E+03  0.7818608E-02  0.9796860E-01
          3   -1    0    0  502    0  0.00000000000E+00  0.00000000000E+00  0.10736801735E+03  0.10736801735E+03  0.00000000000E+00 0.  1.
         13   -1    0    0    0    0 -0.00000000000E+00 -0.00000000000E+00 -0.10000000000E+04  0.10000000000E+04  0.00000000000E+00 0.  1.
    9000005    2    1    2  501    0  0.17423856838E-03  0.14873492799E-03 -0.89264107586E+03  0.11073589213E+04  0.65531342895E+03 0.  0.
         13    1    3    3    0    0  0.20155255930E+03  0.28759764259E+02 -0.12500452282E+02  0.20397749755E+03  0.00000000000E+00 0.  1.
          3    1    3    3  501    0 -0.20155238506E+03 -0.28759615524E+02 -0.88014062358E+03  0.90338142370E+03  0.00000000000E+00 0.  1.
         21    1    1    2  502  501 -0.17423856837E-03 -0.14873492799E-03  0.90932143570E-02  0.90960996312E-02  0.00000000000E+00 0.  1.
<mgrwt>
<rscale>  1 0.65531343E+03</rscale>
<asrwt>0</asrwt>
<pdfrwt beam="1">  1        3 0.39042998E+00 0.65531343E+03</pdfrwt>
<pdfrwt beam="2">0</pdfrwt>
<totfact> 0.66444445E-02</totfact>
</mgrwt>
</event>
<event>
 6    1  0.4241696E-003  0.6537073E+03  0.7818608E-02  0.9799848E-01
          1   -1    0    0  502    0  0.00000000000E+00  0.00000000000E+00  0.10740300787E+03  0.10740300787E+03  0.00000000000E+00 0.  1.
         13   -1    0    0    0    0 -0.00000000000E+00 -0.00000000000E+00 -0.10000000000E+04  0.10000000000E+04  0.00000000000E+00 0.  1.
    9000005    2    1    2  501    0  0.30160394908E+00  0.30395419169E+00 -0.89307625694E+03  0.11067603199E+04  0.65370713748E+03 0.  0.
         13    1    3    3    0    0 -0.64721488864E+01  0.13167032243E+03  0.59863485544E+02  0.14478466569E+03  0.00000000000E+00 0.  1.
          3    1    3    3  501    0  0.67737528355E+01 -0.13136636823E+03 -0.95293974249E+03  0.96197565418E+03  0.00000000000E+00 0.  1.
         21    1    1    2  502  501 -0.30160394908E+00 -0.30395419169E+00  0.47926481196E+00  0.64268799019E+00  0.00000000000E+00 0.  1.
<mgrwt>
<rscale>  1 0.65370728E+03</rscale>
<asrwt>0</asrwt>
<pdfrwt beam="1">  1        1 0.39055722E+00 0.65370728E+03</pdfrwt>
<pdfrwt beam="2">0</pdfrwt>
<totfact> 0.14726463E+00</totfact>
</mgrwt>
</event>
<event>
 6    1  0.4241696E-003  0.6554720E+03  0.7818608E-02  0.9796565E-01
          3   -1    0    0  502    0  0.00000000000E+00  0.00000000000E+00  0.10796047443E+03  0.10796047443E+03  0.00000000000E+00 0.  1.
         13   -1    0    0    0    0 -0.00000000000E+00 -0.00000000000E+00 -0.10000000000E+04  0.10000000000E+04  0.00000000000E+00 0.  1.
    9000005    2    1    2  501    0  0.47148717303E-01  0.67461839852E-01 -0.89258568728E+03  0.11074081460E+04  0.65547203288E+03 0.  0.
         13    1    3    3    0    0  0.86793361587E+02  0.11693298578E+03  0.49758768905E+02  0.15389069453E+03  0.00000000000E+00 0.  1.
          3    1    3    3  501    0 -0.86746212870E+02 -0.11686552394E+03 -0.94234445618E+03  0.95351745146E+03  0.00000000000E+00 0.  1.
         21    1    1    2  502  501 -0.47148717303E-01 -0.67461839852E-01  0.54616171303E+00  0.55232845134E+00  0.00000000000E+00 0. -1.
<mgrwt>
<rscale>  1 0.65547204E+03</rscale>
<asrwt>0</asrwt>
<pdfrwt beam="1">  1        3 0.39258437E+00 0.65547204E+03</pdfrwt>
<pdfrwt beam="2">0</pdfrwt>
<totfact> 0.64731982E-02</totfact>
</mgrwt>
</event>
<event>
 6    1  0.4241696E-003  0.6449967E+03  0.7818608E-02  0.9816213E-01
          1   -1    0    0  502    0  0.00000000000E+00  0.00000000000E+00  0.11331737668E+03  0.11331737668E+03  0.00000000000E+00 0.  1.
         13   -1    0    0    0    0 -0.00000000000E+00 -0.00000000000E+00 -0.10000000000E+04  0.10000000000E+04  0.00000000000E+00 0.  1.
    9000005    2    1    2  501    0 -0.11258084683E+01 -0.33809058213E+01 -0.89561699823E+03  0.11036985917E+04  0.64498688040E+03 0.  0.
         13    1    3    3    0    0  0.32105381571E+03 -0.23601408130E+02 -0.46294740380E+03  0.56387310429E+03  0.00000000000E+00 0.  1.
          1    1    3    3  501    0 -0.32217962418E+03  0.20220502309E+02 -0.43266959443E+03  0.53982548744E+03  0.00000000000E+00 0.  1.
         21    1    1    2  502  501  0.11258084683E+01  0.33809058213E+01  0.89343749146E+01  0.96187849541E+01  0.00000000000E+00 0.  1.
<mgrwt>
<rscale>  1 0.64499672E+03</rscale>
<asrwt>0</asrwt>
<pdfrwt beam="1">  1        1 0.41206406E+00 0.64499672E+03</pdfrwt>
<pdfrwt beam="2">0</pdfrwt>
<totfact> 0.11827264E+00</totfact>
</mgrwt>
</event>
<event>
 6    1  0.4241696E-003  0.6667094E+03  0.7818608E-02  0.9775921E-01
          1   -1    0    0  502    0  0.00000000000E+00  0.00000000000E+00  0.11252777241E+03  0.11252777241E+03  0.00000000000E+00 0.  1.
         13   -1    0    0    0    0 -0.00000000000E+00 -0.00000000000E+00 -0.10000000000E+04  0.10000000000E+04  0.00000000000E+00 0.  1.
    9000005    2    1    2  501    0  0.10983920067E+00  0.45568385312E-01 -0.88887184969E+03  0.11111231076E+04  0.66670936772E+03 0.  0.
         13    1    3    3    0    0 -0.14193692567E+03 -0.27800163533E+03 -0.63920574388E+03  0.71134730134E+03  0.00000000000E+00 0.  1.
          3    1    3    3  501    0  0.14204676487E+03  0.27804720372E+03 -0.24966610581E+03  0.39977580629E+03  0.00000000000E+00 0.  1.
         21    1    1    2  502  501 -0.10983920067E+00 -0.45568385312E-01  0.13996220928E+01  0.14046647751E+01  0.00000000000E+00 0. -1.
<mgrwt>
<rscale>  1 0.66670938E+03</rscale>
<asrwt>0</asrwt>
<pdfrwt beam="1">  1        1 0.40919276E+00 0.66670938E+03</pdfrwt>
<pdfrwt beam="2">0</pdfrwt>
<totfact> 0.12132353E+00</totfact>
</mgrwt>
</event>
<event>
 6    1  0.4241696E-003  0.4806923E+03  0.7818608E-02  0.1018945E+00
          1   -1    0    0  502    0  0.00000000000E+00  0.00000000000E+00  0.57767534481E+02  0.57767534481E+02  0.00000000000E+00 0.  1.
         13   -1    0    0    0    0 -0.00000000000E+00 -0.00000000000E+00 -0.10000000000E+04  0.10000000000E+04  0.00000000000E+00 0.  1.
    9000005    2    1    2  501    0  0.41766953204E-02  0.73784639285E-03 -0.94222900498E+03  0.10577620605E+04  0.48069229115E+03 0.  0.
         13    1    3    3    0    0  0.72050352354E+02 -0.48602397419E+02  0.21977936934E+02  0.89646394356E+02  0.00000000000E+00 0.  1.
          1    1    3    3  501    0 -0.72046175658E+02  0.48603135266E+02 -0.96420694192E+03  0.96811566614E+03  0.00000000000E+00 0.  1.
         21    1    1    2  502  501 -0.41766953204E-02 -0.73784639285E-03 -0.34605372871E-02  0.54739856973E-02  0.00000000000E+00 0.  1.
<mgrwt>
<rscale>  1 0.48069229E+03</rscale>
<asrwt>0</asrwt>
<pdfrwt beam="1">  1        1 0.21006420E+00 0.48069229E+03</pdfrwt>
<pdfrwt beam="2">0</pdfrwt>
<totfact> 0.92893652E+00</totfact>
</mgrwt>
</event>
<event>
 6    1  0.4241696E-003  0.6458903E+03  0.7818608E-02  0.9814521E-01
          1   -1    0    0  502    0  0.00000000000E+00  0.00000000000E+00  0.10431174525E+03  0.10431174525E+03  0.00000000000E+00 0.  1.
         13   -1    0    0    0    0 -0.00000000000E+00 -0.00000000000E+00 -0.10000000000E+04  0.10000000000E+04  0.00000000000E+00 0.  1.
    9000005    2    1    2  501    0 -0.53831594051E-02 -0.90907745000E-02 -0.89570473002E+03  0.11042921735E+04  0.64589026998E+03 0.  0.
         13    1    3    3    0    0 -0.14508273634E+03 -0.73798894437E+02  0.29030229521E+02  0.16534216470E+03  0.00000000000E+00 0.  1.
          3    1    3    3  501    0  0.14507735318E+03  0.73789803663E+02 -0.92473495954E+03  0.93895000875E+03  0.00000000000E+00 0.  1.
         21    1    1    2  502  501  0.53831594051E-02  0.90907745000E-02  0.16475270468E-01  0.19571794071E-01  0.00000000000E+00 0.  1.
<mgrwt>
<rscale>  1 0.64589027E+03</rscale>
<asrwt>0</asrwt>
<pdfrwt beam="1">  1        1 0.37931624E+00 0.64589027E+03</pdfrwt>
<pdfrwt beam="2">0</pdfrwt>
<totfact> 0.16536581E+00</totfact>
</mgrwt>
</event>
<event>
 6    1  0.4241696E-003  0.6485354E+03  0.7818608E-02  0.9809531E-01
          1   -1    0    0  502    0  0.00000000000E+00  0.00000000000E+00  0.10514966846E+03  0.10514966846E+03  0.00000000000E+00 0.  1.
         13   -1    0    0    0    0 -0.00000000000E+00 -0.00000000000E+00 -0.10000000000E+04  0.10000000000E+04  0.00000000000E+00 0.  1.
    9000005    2    1    2  501    0  0.67367937874E-04 -0.12861288752E-04 -0.89485045698E+03  0.11051495255E+04  0.64853537555E+03 0.  0.
         13    1    3    3    0    0 -0.20047629836E+03  0.25316584985E+03 -0.49756722028E+03  0.59317521225E+03  0.00000000000E+00 0.  1.
          3    1    3    3  501    0  0.20047636573E+03 -0.25316586271E+03 -0.39728323670E+03  0.51197431324E+03  0.00000000000E+00 0.  1.
         21    1    1    2  502  501 -0.67367937876E-04  0.12861288753E-04  0.12543878897E-03  0.14296412690E-03  0.00000000000E+00 0.  1.
<mgrwt>
<rscale>  1 0.64853538E+03</rscale>
<asrwt>0</asrwt>
<pdfrwt beam="1">  1        1 0.38236324E+00 0.64853538E+03</pdfrwt>
<pdfrwt beam="2">0</pdfrwt>
<totfact> 0.16024511E+00</totfact>
</mgrwt>
</event>
<event>
 6    1  0.4241696E-003  0.6023090E+03  0.7818608E-02  0.9900627E-01
          1   -1    0    0  502    0  0.00000000000E+00  0.00000000000E+00  0.90873065866E+02  0.90873065866E+02  0.00000000000E+00 0.  1.
         13   -1    0    0    0    0 -0.00000000000E+00 -0.00000000000E+00 -0.10000000000E+04  0.10000000000E+04  0.00000000000E+00 0.  1.
    9000005    2    1    2  501    0 -0.15797950894E-02  0.14749415393E-01 -0.90930563130E+03  0.10906937541E+04  0.60230900196E+03 0.  0.
         13    1    3    3    0    0 -0.11806765436E+03 -0.42170602453E+02 -0.95049277901E+03  0.95872564046E+03  0.00000000000E+00 0.  1.
          1    1    3    3  501    0  0.11806607456E+03  0.42185351869E+02  0.41187147711E+02  0.13196811362E+03  0.00000000000E+00 0.  1.
         21    1    1    2  502  501  0.15797950894E-02 -0.14749415393E-01  0.17869716610E+00  0.17931179041E+00  0.00000000000E+00 0.  1.
<mgrwt>
<rscale>  1 0.60230900E+03</rscale>
<asrwt>0</asrwt>
<pdfrwt beam="1">  1        1 0.33044821E+00 0.60230900E+03</pdfrwt>
<pdfrwt beam="2">0</pdfrwt>
<totfact> 0.27243215E+00</totfact>
</mgrwt>
</event>
<event>
 6    1  0.4241696E-003  0.6501611E+03  0.7818608E-02  0.9806477E-01
          1   -1    0    0  502    0  0.00000000000E+00  0.00000000000E+00  0.11978255703E+03  0.11978255703E+03  0.00000000000E+00 0.  1.
         13   -1    0    0    0    0 -0.00000000000E+00 -0.00000000000E+00 -0.10000000000E+04  0.10000000000E+04  0.00000000000E+00 0.  1.
    9000005    2    1    2  501    0  0.24919723155E+01 -0.76316861209E+00 -0.89418939015E+03  0.11055696171E+04  0.65015592016E+03 0.  0.
         13    1    3    3    0    0 -0.86795996085E+02 -0.29366518001E+03 -0.63267207899E+03  0.70288458684E+03  0.00000000000E+00 0.  1.
          3    1    3    3  501    0  0.89287968400E+02  0.29290201140E+03 -0.26151731116E+03  0.40268503029E+03  0.00000000000E+00 0.  1.
         21    1    1    2  502  501 -0.24919723155E+01  0.76316861209E+00  0.13971947188E+02  0.14212939900E+02  0.00000000000E+00 0. -1.
<mgrwt>
<rscale>  1 0.65016114E+03</rscale>
<asrwt>0</asrwt>
<pdfrwt beam="1">  1        1 0.43557385E+00 0.65016114E+03</pdfrwt>
<pdfrwt beam="2">0</pdfrwt>
<totfact> 0.92500931E-01</totfact>
</mgrwt>
</event>
<event>
 6    1  0.4241696E-003  0.6514177E+03  0.7818608E-02  0.9804123E-01
          1   -1    0    0  502    0  0.00000000000E+00  0.00000000000E+00  0.10610193904E+03  0.10610193904E+03  0.00000000000E+00 0.  1.
         13   -1    0    0    0    0 -0.00000000000E+00 -0.00000000000E+00 -0.10000000000E+04  0.10000000000E+04  0.00000000000E+00 0.  1.
    9000005    2    1    2  501    0 -0.52246763618E-02  0.35108360137E-02 -0.89391304086E+03  0.11060856903E+04  0.65141770754E+03 0.  0.
         13    1    3    3    0    0  0.19416231496E+03  0.99132820478E+02 -0.36063725224E+02  0.22096812649E+03  0.00000000000E+00 0.  1.
          3    1    3    3  501    0 -0.19416753964E+03 -0.99129309642E+02 -0.85784931563E+03  0.88511756384E+03  0.00000000000E+00 0.  1.
         21    1    1    2  502  501  0.52246763618E-02 -0.35108360137E-02  0.14979894256E-01  0.16248705934E-01  0.00000000000E+00 0. -1.
<mgrwt>
<rscale>  1 0.65141771E+03</rscale>
<asrwt>0</asrwt>
<pdfrwt beam="1">  1        1 0.38582605E+00 0.65141771E+03</pdfrwt>
<pdfrwt beam="2">0</pdfrwt>
<totfact> 0.15461227E+00</totfact>
</mgrwt>
</event>
<event>
 6    1  0.4241696E-003  0.6541282E+03  0.7818608E-02  0.9799064E-01
          1   -1    0    0  502    0  0.00000000000E+00  0.00000000000E+00  0.10697093911E+03  0.10697093911E+03  0.00000000000E+00 0.  1.
         13   -1    0    0    0    0 -0.00000000000E+00 -0.00000000000E+00 -0.10000000000E+04  0.10000000000E+04  0.00000000000E+00 0.  1.
    9000005    2    1    2  501    0 -0.14558247585E-06 -0.64581313808E-06 -0.89302906788E+03  0.11069709321E+04  0.65412822016E+03 0.  0.
         13    1    3    3    0    0  0.31739148622E+03 -0.21578690042E+02 -0.57503833849E+03  0.65716975442E+03  0.00000000000E+00 0.  1.
          1    1    3    3  501    0 -0.31739148637E+03  0.21578689396E+02 -0.31799072939E+03  0.44980117767E+03  0.00000000000E+00 0.  1.
         21    1    1    2  502  501  0.14558249779E-06  0.64581313828E-06  0.69904203106E-05  0.70216981559E-05  0.00000000000E+00 0.  1.
<mgrwt>
<rscale>  1 0.65412822E+03</rscale>
<asrwt>0</asrwt>
<pdfrwt beam="1">  1        1 0.38898605E+00 0.65412822E+03</pdfrwt>
<pdfrwt beam="2">0</pdfrwt>
<totfact> 0.14963434E+00</totfact>
</mgrwt>
</event>
<event>
 6    1  0.4241696E-003  0.6387701E+03  0.7818608E-02  0.9828082E-01
          1   -1    0    0  502    0  0.00000000000E+00  0.00000000000E+00  0.10306106735E+03  0.10306106735E+03  0.00000000000E+00 0.  1.
         13   -1    0    0    0    0 -0.00000000000E+00 -0.00000000000E+00 -0.10000000000E+04  0.10000000000E+04  0.00000000000E+00 0.  1.
    9000005    2    1    2  501    0  0.14294897853E+00  0.23177432837E+00 -0.89797376446E+03  0.11019910063E+04  0.63877008555E+03 0.  0.
         13    1    3    3    0    0 -0.47071801357E+02  0.28988994049E+03 -0.66607627096E+03  0.72794885179E+03  0.00000000000E+00 0.  1.
          3    1    3    3  501    0  0.47214750335E+02 -0.28965816616E+03 -0.23189749350E+03  0.37404215453E+03  0.00000000000E+00 0.  1.
         21    1    1    2  502  501 -0.14294897853E+00 -0.23177432837E+00  0.10348318061E+01  0.10700610341E+01  0.00000000000E+00 0. -1.
<mgrwt>
<rscale>  1 0.63877014E+03</rscale>
<asrwt>0</asrwt>
<pdfrwt beam="1">  1        1 0.37476831E+00 0.63877014E+03</pdfrwt>
<pdfrwt beam="2">0</pdfrwt>
<totfact> 0.17340066E+00</totfact>
</mgrwt>
</event>
<event>
 6    1  0.4241696E-003  0.6344433E+03  0.7818608E-02  0.9836416E-01
          1   -1    0    0  502    0  0.00000000000E+00  0.00000000000E+00  0.10070302499E+03  0.10070302499E+03  0.00000000000E+00 0.  1.
         13   -1    0    0    0    0 -0.00000000000E+00 -0.00000000000E+00 -0.10000000000E+04  0.10000000000E+04  0.00000000000E+00 0.  1.
    9000005    2    1    2  501    0 -0.10053818848E-01  0.14000477100E-01 -0.89936932219E+03  0.11006286529E+04  0.63444326273E+03 0.  0.
         13    1    3    3    0    0  0.27914137729E+03 -0.13919706335E+03 -0.54976847612E+03  0.63209264218E+03  0.00000000000E+00 0.  1.
          1    1    3    3  501    0 -0.27915143111E+03  0.13921106382E+03 -0.34960084606E+03  0.46853601073E+03  0.00000000000E+00 0.  1.
         21    1    1    2  502  501  0.10053818848E-01 -0.14000477101E-01  0.72347178677E-01  0.74372084111E-01  0.00000000000E+00 0.  1.
<mgrwt>
<rscale>  1 0.63444326E+03</rscale>
<asrwt>0</asrwt>
<pdfrwt beam="1">  1        1 0.36619359E+00 0.63444326E+03</pdfrwt>
<pdfrwt beam="2">0</pdfrwt>
<totfact> 0.18926005E+00</totfact>
</mgrwt>
</event>
<event>
 6    1  0.4241696E-003  0.6507415E+03  0.7818608E-02  0.9805389E-01
          1   -1    0    0  502    0  0.00000000000E+00  0.00000000000E+00  0.10586651239E+03  0.10586651239E+03  0.00000000000E+00 0.  1.
         13   -1    0    0    0    0 -0.00000000000E+00 -0.00000000000E+00 -0.10000000000E+04  0.10000000000E+04  0.00000000000E+00 0.  1.
    9000005    2    1    2  501    0  0.71076678125E-05  0.13664471666E-04 -0.89413385913E+03  0.11058661406E+04  0.65074154837E+03 0.  0.
         13    1    3    3    0    0 -0.19296852176E+03 -0.77304070023E+02 -0.87243631778E+03  0.89686002153E+03  0.00000000000E+00 0.  1.
          3    1    3    3  501    0  0.19296852887E+03  0.77304083687E+02 -0.21697541346E+02  0.20900611902E+03  0.00000000000E+00 0.  1.
         21    1    1    2  502  501 -0.71076678198E-05 -0.13664471664E-04  0.37151669144E-03  0.37183583575E-03  0.00000000000E+00 0.  1.
<mgrwt>
<rscale>  1 0.65074155E+03</rscale>
<asrwt>0</asrwt>
<pdfrwt beam="1">  1        1 0.38496995E+00 0.65074155E+03</pdfrwt>
<pdfrwt beam="2">0</pdfrwt>
<totfact> 0.15598603E+00</totfact>
</mgrwt>
</event>
<event>
 6    1  0.4241696E-003  0.5966967E+03  0.7818608E-02  0.9912283E-01
          1   -1    0    0  502    0  0.00000000000E+00  0.00000000000E+00  0.89103113422E+02  0.89103113422E+02  0.00000000000E+00 0.  1.
         13   -1    0    0    0    0 -0.00000000000E+00 -0.00000000000E+00 -0.10000000000E+04  0.10000000000E+04  0.00000000000E+00 0.  1.
    9000005    2    1    2  501    0  0.13839773257E-02  0.69528948200E-03 -0.91098824558E+03  0.10890117413E+04  0.59669673125E+03 0.  0.
         13    1    3    3    0    0  0.60678117044E+02  0.29176899444E+03 -0.42961657847E+03  0.52285885715E+03  0.00000000000E+00 0.  1.
          1    1    3    3  501    0 -0.60676733066E+02 -0.29176829915E+03 -0.48137166711E+03  0.56615288414E+03  0.00000000000E+00 0.  1.
         21    1    1    2  502  501 -0.13839773257E-02 -0.69528948199E-03  0.91359002032E-01  0.91372129629E-01  0.00000000000E+00 0. -1.
<mgrwt>
<rscale>  1 0.59669673E+03</rscale>
<asrwt>0</asrwt>
<pdfrwt beam="1">  1        1 0.32401200E+00 0.59669673E+03</pdfrwt>
<pdfrwt beam="2">0</pdfrwt>
<totfact> 0.29076944E+00</totfact>
</mgrwt>
</event>
<event>
 6    1  0.4241696E-003  0.6443090E+03  0.7818608E-02  0.9817517E-01
          1   -1    0    0  502    0  0.00000000000E+00  0.00000000000E+00  0.10378358084E+03  0.10378358084E+03  0.00000000000E+00 0.  1.
         13   -1    0    0    0    0 -0.00000000000E+00 -0.00000000000E+00 -0.10000000000E+04  0.10000000000E+04  0.00000000000E+00 0.  1.
    9000005    2    1    2  501    0  0.30452614396E-04 -0.14129592017E-04 -0.89621646137E+03  0.11037835269E+04  0.64430903196E+03 0.  0.
         13    1    3    3    0    0  0.20143286503E+03  0.20325730252E+03 -0.19461858726E+03  0.34607098210E+03  0.00000000000E+00 0.  1.
          1    1    3    3  501    0 -0.20143283458E+03 -0.20325731665E+03 -0.70159787410E+03  0.75771254481E+03  0.00000000000E+00 0.  1.
         21    1    1    2  502  501 -0.30452614395E-04  0.14129592015E-04  0.42204287576E-04  0.53927812711E-04  0.00000000000E+00 0. -1.
<mgrwt>
<rscale>  1 0.64430903E+03</rscale>
<asrwt>0</asrwt>
<pdfrwt beam="1">  1        1 0.37739564E+00 0.64430903E+03</pdfrwt>
<pdfrwt beam="2">0</pdfrwt>
<totfact> 0.16867053E+00</totfact>
</mgrwt>
</event>
<event>
 6    1  0.4241696E-003  0.6431683E+03  0.7818608E-02  0.9819684E-01
          1   -1    0    0  502    0  0.00000000000E+00  0.00000000000E+00  0.10649388034E+03  0.10649388034E+03  0.00000000000E+00 0.  1.
         13   -1    0    0    0    0 -0.00000000000E+00 -0.00000000000E+00 -0.10000000000E+04  0.10000000000E+04  0.00000000000E+00 0.  1.
    9000005    2    1    2  501    0  0.79237029479E-01 -0.33698736232E-02 -0.89658307672E+03  0.11034159014E+04  0.64316827629E+03 0.  0.
         13    1    3    3    0    0 -0.19029145723E+03  0.27341302990E+02 -0.60384413685E+01  0.19234044899E+03  0.00000000000E+00 0.  1.
          1    1    3    3  501    0  0.19037069426E+03 -0.27344672864E+02 -0.89054463535E+03  0.91107545237E+03  0.00000000000E+00 0.  1.
         21    1    1    2  502  501 -0.79237029479E-01  0.33698736232E-02  0.30769570570E+01  0.30779789788E+01  0.00000000000E+00 0.  1.
<mgrwt>
<rscale>  1 0.64316828E+03</rscale>
<asrwt>0</asrwt>
<pdfrwt beam="1">  1        1 0.38725129E+00 0.64316828E+03</pdfrwt>
<pdfrwt beam="2">0</pdfrwt>
<totfact> 0.15261675E+00</totfact>
</mgrwt>
</event>
<event>
 6    1  0.4241696E-003  0.5482078E+03  0.7818608E-02  0.1001910E+00
          1   -1    0    0  502    0  0.00000000000E+00  0.00000000000E+00  0.76072224418E+02  0.76072224418E+02  0.00000000000E+00 0.  1.
         13   -1    0    0    0    0 -0.00000000000E+00 -0.00000000000E+00 -0.10000000000E+04  0.10000000000E+04  0.00000000000E+00 0.  1.
    9000005    2    1    2  501    0 -0.46832675863E+00 -0.25360046118E+00 -0.92478539080E+03  0.10750626963E+04  0.54820753215E+03 0.  0.
         13    1    3    3    0    0 -0.23393302844E+03  0.14311226066E+03 -0.46369943894E+03  0.53872344539E+03  0.00000000000E+00 0.  1.
          1    1    3    3  501    0  0.23346470168E+03 -0.14336586112E+03 -0.46108595186E+03  0.53633925091E+03  0.00000000000E+00 0.  1.
         21    1    1    2  502  501  0.46832675863E+00  0.25360046118E+00  0.85761521828E+00  0.10095281122E+01  0.00000000000E+00 0. -1.
<mgrwt>
<rscale>  1 0.54820779E+03</rscale>
<asrwt>0</asrwt>
<pdfrwt beam="1">  1        1 0.27662685E+00 0.54820779E+03</pdfrwt>
<pdfrwt beam="2">0</pdfrwt>
<totfact> 0.46968017E+00</totfact>
</mgrwt>
</event>
<event>
 6    1  0.4241696E-003  0.6623776E+03  0.7818608E-02  0.9783827E-01
          1   -1    0    0  502    0  0.00000000000E+00  0.00000000000E+00  0.10968717913E+03  0.10968717913E+03  0.00000000000E+00 0.  1.
         13   -1    0    0    0    0 -0.00000000000E+00 -0.00000000000E+00 -0.10000000000E+04  0.10000000000E+04  0.00000000000E+00 0.  1.
    9000005    2    1    2  501    0 -0.16915776030E-04 -0.18032679478E-04 -0.89031396828E+03  0.11096860314E+04  0.66237763117E+03 0.  0.
         13    1    3    3    0    0  0.31942734555E+03  0.75976855014E+02 -0.51779102002E+03  0.61311813869E+03  0.00000000000E+00 0.  1.
          1    1    3    3  501    0 -0.31942736247E+03 -0.75976873046E+02 -0.37252294827E+03  0.49656789275E+03  0.00000000000E+00 0.  1.
         21    1    1    2  502  501  0.16915776062E-04  0.18032679487E-04  0.11474171581E-02  0.11476835172E-02  0.00000000000E+00 0. -1.
<mgrwt>
<rscale>  1 0.66237763E+03</rscale>
<asrwt>0</asrwt>
<pdfrwt beam="1">  1        1 0.39886331E+00 0.66237763E+03</pdfrwt>
<pdfrwt beam="2">0</pdfrwt>
<totfact> 0.13504157E+00</totfact>
</mgrwt>
</event>
<event>
 6    1  0.4241696E-003  0.6459083E+03  0.7818608E-02  0.9814487E-01
          1   -1    0    0  502    0  0.00000000000E+00  0.00000000000E+00  0.11306739207E+03  0.11306739207E+03  0.00000000000E+00 0.  1.
         13   -1    0    0    0    0 -0.00000000000E+00 -0.00000000000E+00 -0.10000000000E+04  0.10000000000E+04  0.00000000000E+00 0.  1.
    9000005    2    1    2  501    0  0.12337613713E+01  0.10310775051E+00 -0.89565231752E+03  0.11042602283E+04  0.64590714900E+03 0.  0.
         13    1    3    3    0    0  0.47532320511E+02  0.31553628027E+03 -0.36139512460E+03  0.48210880696E+03  0.00000000000E+00 0.  1.
          3    1    3    3  501    0 -0.46298559139E+02 -0.31543317252E+03 -0.53425719291E+03  0.62215142135E+03  0.00000000000E+00 0.  1.
         21    1    1    2  502  501 -0.12337613713E+01 -0.10310775051E+00  0.87197095928E+01  0.88071637723E+01  0.00000000000E+00 0.  1.
<mgrwt>
<rscale>  1 0.64590834E+03</rscale>
<asrwt>0</asrwt>
<pdfrwt beam="1">  1        1 0.41115502E+00 0.64590834E+03</pdfrwt>
<pdfrwt beam="2">0</pdfrwt>
<totfact> 0.11936714E+00</totfact>
</mgrwt>
</event>
<event>
 6    1  0.4241696E-003  0.4742303E+03  0.7818608E-02  0.1020733E+00
          1   -1    0    0  502    0  0.00000000000E+00  0.00000000000E+00  0.95208106860E+02  0.95208106860E+02  0.00000000000E+00 0.  1.
         13   -1    0    0    0    0 -0.00000000000E+00 -0.00000000000E+00 -0.10000000000E+04  0.10000000000E+04  0.00000000000E+00 0.  1.
    9000005    2    1    2  501    0  0.55672439435E+02 -0.61385830967E+02 -0.89352605767E+03  0.10115746219E+04  0.46693335628E+03 0.  0.
         13    1    3    3    0    0 -0.37105485475E+02 -0.23027432274E+03 -0.25951938603E+03  0.34893178773E+03  0.00000000000E+00 0.  1.
          1    1    3    3  501    0  0.92777924909E+02  0.16888849177E+03 -0.63400667164E+03  0.66264283418E+03  0.00000000000E+00 0.  1.
         21    1    1    2  502  501 -0.55672439435E+02  0.61385830967E+02 -0.11265835473E+02  0.83633484951E+02  0.00000000000E+00 0.  1.
<mgrwt>
<rscale>  1 0.47423032E+03</rscale>
<asrwt>0</asrwt>
<pdfrwt beam="1">  1        1 0.34621203E+00 0.47423032E+03</pdfrwt>
<pdfrwt beam="2">0</pdfrwt>
<totfact> 0.23909856E+00</totfact>
</mgrwt>
</event>
<event>
 6    1  0.4241696E-003  0.6584068E+03  0.7818608E-02  0.9791131E-01
          1   -1    0    0  502    0  0.00000000000E+00  0.00000000000E+00  0.10874030403E+03  0.10874030403E+03  0.00000000000E+00 0.  1.
         13   -1    0    0    0    0 -0.00000000000E+00 -0.00000000000E+00 -0.10000000000E+04  0.10000000000E+04  0.00000000000E+00 0.  1.
    9000005    2    1    2  501    0  0.51979511649E-02 -0.16079340493E-02 -0.89162510429E+03  0.11083748552E+04  0.65840678386E+03 0.  0.
         13    1    3    3    0    0 -0.86876459923E+02 -0.68742053587E+02 -0.96767610221E+03  0.97399693429E+03  0.00000000000E+00 0.  1.
          3    1    3    3  501    0  0.86881657874E+02  0.68740445653E+02  0.76050997927E+02  0.13437792091E+03  0.00000000000E+00 0.  1.
         21    1    1    2  502  501 -0.51979511649E-02  0.16079340493E-02  0.36540831067E+00  0.36544881674E+00  0.00000000000E+00 0.  1.
<mgrwt>
<rscale>  1 0.65840678E+03</rscale>
<asrwt>0</asrwt>
<pdfrwt beam="1">  1        1 0.39542012E+00 0.65840678E+03</pdfrwt>
<pdfrwt beam="2">0</pdfrwt>
<totfact> 0.13999698E+00</totfact>
</mgrwt>
</event>
<event>
 6    1  0.4241696E-003  0.6526931E+03  0.7818608E-02  0.9801739E-01
          1   -1    0    0  502    0  0.00000000000E+00  0.00000000000E+00  0.10650234838E+03  0.10650234838E+03  0.00000000000E+00 0.  1.
         13   -1    0    0    0    0 -0.00000000000E+00 -0.00000000000E+00 -0.10000000000E+04  0.10000000000E+04  0.00000000000E+00 0.  1.
    9000005    2    1    2  501    0  0.94213787811E-05  0.27184415217E-05 -0.89349793742E+03  0.11065020624E+04  0.65269307483E+03 0.  0.
         13    1    3    3    0    0  0.60898295510E+01 -0.22875864673E+03 -0.52309724044E+02  0.23474222396E+03  0.00000000000E+00 0.  1.
          1    1    3    3  501    0 -0.60898201297E+01  0.22875864945E+03 -0.84118821338E+03  0.87175983845E+03  0.00000000000E+00 0.  1.
         21    1    1    2  502  501 -0.94213787815E-05 -0.27184415337E-05  0.28580608564E-03  0.28597424865E-03  0.00000000000E+00 0. -1.
<mgrwt>
<rscale>  1 0.65269307E+03</rscale>
<asrwt>0</asrwt>
<pdfrwt beam="1">  1        1 0.38728208E+00 0.65269307E+03</pdfrwt>
<pdfrwt beam="2">0</pdfrwt>
<totfact> 0.15229863E+00</totfact>
</mgrwt>
</event>
<event>
 6    1  0.6642672E-003  0.6516918E+03  0.7818608E-02  0.9803610E-01
          1   -1    0    0  502    0  0.00000000000E+00  0.00000000000E+00  0.10617560095E+03  0.10617560095E+03  0.00000000000E+00 0.  1.
         13   -1    0    0    0    0 -0.00000000000E+00 -0.00000000000E+00 -0.10000000000E+04  0.10000000000E+04  0.00000000000E+00 0.  1.
    9000005    2    1    2  501    0  0.87690164378E-04 -0.14733826333E-04 -0.89382435764E+03  0.11061755029E+04  0.65169184497E+03 0.  0.
         13    1    3    3    0    0  0.14023694926E+03 -0.27653114712E+03 -0.27683653525E+03  0.41566133392E+03  0.00000000000E+00 0.  1.
          3    1    3    3  501    0 -0.14023686157E+03  0.27653113239E+03 -0.61698782239E+03  0.69051416893E+03  0.00000000000E+00 0.  1.
         21    1    1    2  502  501 -0.87690164381E-04  0.14733826280E-04 -0.41415329533E-04  0.98091182511E-04  0.00000000000E+00 0. -1.
<mgrwt>
<rscale>  1 0.65169184E+03</rscale>
<asrwt>0</asrwt>
<pdfrwt beam="1">  1        1 0.38609391E+00 0.65169184E+03</pdfrwt>
<pdfrwt beam="2">0</pdfrwt>
<totfact> 0.15418302E+00</totfact>
</mgrwt>
</event>
<event>
 6    1  0.4241696E-003  0.6517403E+03  0.7818608E-02  0.9803519E-01
          1   -1    0    0  502    0  0.00000000000E+00  0.00000000000E+00  0.10619143027E+03  0.10619143027E+03  0.00000000000E+00 0.  1.
         13   -1    0    0    0    0 -0.00000000000E+00 -0.00000000000E+00 -0.10000000000E+04  0.10000000000E+04  0.00000000000E+00 0.  1.
    9000005    2    1    2  501    0  0.56989958068E-05  0.24566931245E-05 -0.89380866035E+03  0.11061913394E+04  0.65174025357E+03 0.  0.
         13    1    3    3    0    0  0.20410531458E+03  0.10791510476E+03 -0.83723161665E+03  0.86848225612E+03  0.00000000000E+00 0.  1.
          3    1    3    3  501    0 -0.20410530888E+03 -0.10791510230E+03 -0.56577043704E+02  0.23770908332E+03  0.00000000000E+00 0.  1.
         21    1    1    2  502  501 -0.56989958238E-05 -0.24566931297E-05  0.90618220086E-04  0.90830477848E-04  0.00000000000E+00 0.  1.
<mgrwt>
<rscale>  1 0.65174025E+03</rscale>
<asrwt>0</asrwt>
<pdfrwt beam="1">  1        1 0.38615147E+00 0.65174025E+03</pdfrwt>
<pdfrwt beam="2">0</pdfrwt>
<totfact> 0.15409123E+00</totfact>
</mgrwt>
</event>
<event>
 6    1  0.4241696E-003  0.6393623E+03  0.7818608E-02  0.9826947E-01
          1   -1    0    0  502    0  0.00000000000E+00  0.00000000000E+00  0.10223313841E+03  0.10223313841E+03  0.00000000000E+00 0.  1.
         13   -1    0    0    0    0 -0.00000000000E+00 -0.00000000000E+00 -0.10000000000E+04  0.10000000000E+04  0.00000000000E+00 0.  1.
    9000005    2    1    2  501    0  0.43040863917E-02  0.44777028054E-03 -0.89780382104E+03  0.11021959265E+04  0.63936230673E+03 0.  0.
         13    1    3    3    0    0 -0.18805307306E+03 -0.24780696779E+03 -0.57584801235E+03  0.65450224209E+03  0.00000000000E+00 0.  1.
          3    1    3    3  501    0  0.18805737715E+03  0.24780741556E+03 -0.32195580870E+03  0.44769368441E+03  0.00000000000E+00 0.  1.
         21    1    1    2  502  501 -0.43040863917E-02 -0.44777028055E-03  0.36959456596E-01  0.37211921339E-01  0.00000000000E+00 0.  1.
<mgrwt>
<rscale>  1 0.63936231E+03</rscale>
<asrwt>0</asrwt>
<pdfrwt beam="1">  1        1 0.37175765E+00 0.63936231E+03</pdfrwt>
<pdfrwt beam="2">0</pdfrwt>
<totfact> 0.17874943E+00</totfact>
</mgrwt>
</event>
<event>
 6    1  0.4241696E-003  0.6482889E+03  0.7818608E-02  0.9809995E-01
          3   -1    0    0  502    0  0.00000000000E+00  0.00000000000E+00  0.10563439662E+03  0.10563439662E+03  0.00000000000E+00 0.  1.
         13   -1    0    0    0    0 -0.00000000000E+00 -0.00000000000E+00 -0.10000000000E+04  0.10000000000E+04  0.00000000000E+00 0.  1.
    9000005    2    1    2  501    0  0.68847275929E-02 -0.15268097068E+00 -0.89491891815E+03  0.11050603617E+04  0.64828890899E+03 0.  0.
         13    1    3    3    0    0  0.19671512014E+03  0.28284606677E+02 -0.10968119454E+02  0.19904059162E+03  0.00000000000E+00 0.  1.
          1    1    3    3  501    0 -0.19670823542E+03 -0.28437287647E+02 -0.88395079870E+03  0.90601977006E+03  0.00000000000E+00 0.  1.
         21    1    1    2  502  501 -0.68847275929E-02  0.15268097068E+00  0.55331477036E+00  0.57403494090E+00  0.00000000000E+00 0. -1.
<mgrwt>
<rscale>  1 0.64828893E+03</rscale>
<asrwt>0</asrwt>
<pdfrwt beam="1">  1        3 0.38412589E+00 0.64828893E+03</pdfrwt>
<pdfrwt beam="2">0</pdfrwt>
<totfact> 0.71808087E-02</totfact>
</mgrwt>
</event>
<event>
 6    1  0.4241696E-003  0.6502758E+03  0.7818608E-02  0.9806262E-01
          1   -1    0    0  502    0  0.00000000000E+00  0.00000000000E+00  0.10572030067E+03  0.10572030067E+03  0.00000000000E+00 0.  1.
         13   -1    0    0    0    0 -0.00000000000E+00 -0.00000000000E+00 -0.10000000000E+04  0.10000000000E+04  0.00000000000E+00 0.  1.
    9000005    2    1    2  501    0  0.11773478505E-02 -0.98802716593E-03 -0.89428524265E+03  0.11057145482E+04  0.65027576220E+03 0.  0.
         13    1    3    3    0    0  0.12302951973E+03  0.27773079653E+03 -0.24998754855E+03  0.39340110891E+03  0.00000000000E+00 0.  1.
          3    1    3    3  501    0 -0.12302834238E+03 -0.27773178455E+03 -0.64429769411E+03  0.71231343930E+03  0.00000000000E+00 0.  1.
         21    1    1    2  502  501 -0.11773478505E-02  0.98802716595E-03  0.55433185920E-02  0.57524539680E-02  0.00000000000E+00 0.  1.
<mgrwt>
<rscale>  1 0.65027576E+03</rscale>
<asrwt>0</asrwt>
<pdfrwt beam="1">  1        1 0.38443827E+00 0.65027576E+03</pdfrwt>
<pdfrwt beam="2">0</pdfrwt>
<totfact> 0.15684636E+00</totfact>
</mgrwt>
</event>
<event>
 6    1  0.4241696E-003  0.4951769E+03  0.7818608E-02  0.1015046E+00
          1   -1    0    0  502    0  0.00000000000E+00  0.00000000000E+00  0.61302458783E+02  0.61302458783E+02  0.00000000000E+00 0.  1.
         13   -1    0    0    0    0 -0.00000000000E+00 -0.00000000000E+00 -0.10000000000E+04  0.10000000000E+04  0.00000000000E+00 0.  1.
    9000005    2    1    2  501    0  0.43745273458E-02 -0.36557731840E-02 -0.93869603059E+03  0.10612965611E+04  0.49517689024E+03 0.  0.
         13    1    3    3    0    0  0.19463600680E+03 -0.14683324388E+03 -0.37696259336E+03  0.44893649155E+03  0.00000000000E+00 0.  1.
          3    1    3    3  501    0 -0.19463163227E+03  0.14682958811E+03 -0.56173343723E+03  0.61236006951E+03  0.00000000000E+00 0.  1.
         21    1    1    2  502  501 -0.43745273458E-02  0.36557731840E-02 -0.15106234069E-02  0.58977241500E-02  0.00000000000E+00 0. -1.
<mgrwt>
<rscale>  1 0.49517689E+03</rscale>
<asrwt>0</asrwt>
<pdfrwt beam="1">  1        1 0.22291850E+00 0.49517689E+03</pdfrwt>
<pdfrwt beam="2">0</pdfrwt>
<totfact> 0.81235445E+00</totfact>
</mgrwt>
</event>
<event>
 6    1  0.4241696E-003  0.6178584E+03  0.7818608E-02  0.9869033E-01
          1   -1    0    0  502    0  0.00000000000E+00  0.00000000000E+00  0.95437343325E+02  0.95437343325E+02  0.00000000000E+00 0.  1.
         13   -1    0    0    0    0 -0.00000000000E+00 -0.00000000000E+00 -0.10000000000E+04  0.10000000000E+04  0.00000000000E+00 0.  1.
    9000005    2    1    2  501    0  0.33501146675E-05 -0.81320879985E-06 -0.90456275409E+03  0.10954372459E+04  0.61785838468E+03 0.  0.
         13    1    3    3    0    0 -0.15773241397E+03 -0.10966797500E+03 -0.88121519826E+03  0.90191285876E+03  0.00000000000E+00 0.  1.
          1    1    3    3  501    0  0.15773241732E+03  0.10966797418E+03 -0.23347555824E+02  0.19352438709E+03  0.00000000000E+00 0.  1.
         21    1    1    2  502  501 -0.33501146810E-05  0.81320879636E-06  0.97411260368E-04  0.97472243348E-04  0.00000000000E+00 0.  1.
<mgrwt>
<rscale>  1 0.61785838E+03</rscale>
<asrwt>0</asrwt>
<pdfrwt beam="1">  1        1 0.34704562E+00 0.61785838E+03</pdfrwt>
<pdfrwt beam="2">0</pdfrwt>
<totfact> 0.23014167E+00</totfact>
</mgrwt>
</event>
<event>
 6    1  0.4241696E-003  0.6337085E+03  0.7818608E-02  0.9837839E-01
          1   -1    0    0  502    0  0.00000000000E+00  0.00000000000E+00  0.10040278675E+03  0.10040278675E+03  0.00000000000E+00 0.  1.
         13   -1    0    0    0    0 -0.00000000000E+00 -0.00000000000E+00 -0.10000000000E+04  0.10000000000E+04  0.00000000000E+00 0.  1.
    9000005    2    1    2  501    0  0.23451081393E-02  0.84062873034E-03 -0.89960310442E+03  0.11003963905E+04  0.63370850612E+03 0.  0.
         13    1    3    3    0    0 -0.38456616602E+02  0.24028461471E+03 -0.80217973943E+03  0.83827676920E+03  0.00000000000E+00 0.  1.
          1    1    3    3  501    0  0.38458961710E+02 -0.24028377408E+03 -0.97423364987E+02  0.26211962129E+03  0.00000000000E+00 0.  1.
         21    1    1    2  502  501 -0.23451081393E-02 -0.84062873035E-03  0.58911676732E-02  0.63962524498E-02  0.00000000000E+00 0.  1.
<mgrwt>
<rscale>  1 0.63370851E+03</rscale>
<asrwt>0</asrwt>
<pdfrwt beam="1">  1        1 0.36510181E+00 0.63370851E+03</pdfrwt>
<pdfrwt beam="2">0</pdfrwt>
<totfact> 0.19138272E+00</totfact>
</mgrwt>
</event>
<event>
 6    1  0.4241696E-003  0.5884318E+03  0.7818608E-02  0.9929701E-01
          1   -1    0    0  502    0  0.00000000000E+00  0.00000000000E+00  0.89237319216E+02  0.89237319216E+02  0.00000000000E+00 0.  1.
         13   -1    0    0    0    0 -0.00000000000E+00 -0.00000000000E+00 -0.10000000000E+04  0.10000000000E+04  0.00000000000E+00 0.  1.
    9000005    2    1    2  501    0 -0.11902643562E+01 -0.71780249150E+00 -0.91323959112E+03  0.10863970632E+04  0.58843019646E+03 0.  0.
         13    1    3    3    0    0  0.15382345545E+03  0.18947739054E+03 -0.15420812763E+03  0.28869271484E+03  0.00000000000E+00 0.  1.
          3    1    3    3  501    0 -0.15501371981E+03 -0.19019519303E+03 -0.75903146348E+03  0.79770434833E+03  0.00000000000E+00 0.  1.
         21    1    1    2  502  501  0.11902643562E+01  0.71780249150E+00  0.24769103310E+01  0.28402560522E+01  0.00000000000E+00 0.  1.
<mgrwt>
<rscale>  1 0.58843184E+03</rscale>
<asrwt>0</asrwt>
<pdfrwt beam="1">  1        1 0.32450003E+00 0.58843184E+03</pdfrwt>
<pdfrwt beam="2">0</pdfrwt>
<totfact> 0.28979501E+00</totfact>
</mgrwt>
</event>
<event>
 6    1  0.4241696E-003  0.6536247E+03  0.7818608E-02  0.9800001E-01
          1   -1    0    0  502    0  0.00000000000E+00  0.00000000000E+00  0.11665163693E+03  0.11665163693E+03  0.00000000000E+00 0.  1.
         13   -1    0    0    0    0 -0.00000000000E+00 -0.00000000000E+00 -0.10000000000E+04  0.10000000000E+04  0.00000000000E+00 0.  1.
    9000005    2    1    2  501    0 -0.82928512883E+00 -0.12895754059E+00 -0.89317388821E+03  0.11067903344E+04  0.65362416215E+03 0.  0.
         13    1    3    3    0    0  0.79480933254E+02 -0.31425595639E+03 -0.37658172854E+03  0.49687807674E+03  0.00000000000E+00 0.  1.
          3    1    3    3  501    0 -0.80310218383E+02  0.31412699885E+03 -0.51659215967E+03  0.60991225764E+03  0.00000000000E+00 0.  1.
         21    1    1    2  502  501  0.82928512883E+00  0.12895754059E+00  0.98255251394E+01  0.98613025578E+01  0.00000000000E+00 0. -1.
<mgrwt>
<rscale>  1 0.65362470E+03</rscale>
<asrwt>0</asrwt>
<pdfrwt beam="1">  1        1 0.42418867E+00 0.65362470E+03</pdfrwt>
<pdfrwt beam="2">0</pdfrwt>
<totfact> 0.10411840E+00</totfact>
</mgrwt>
</event>
<event>
 6    1  0.4241696E-003  0.6552953E+03  0.7818608E-02  0.9796893E-01
          1   -1    0    0  502    0  0.00000000000E+00  0.00000000000E+00  0.10735311964E+03  0.10735311964E+03  0.00000000000E+00 0.  1.
         13   -1    0    0    0    0 -0.00000000000E+00 -0.00000000000E+00 -0.10000000000E+04  0.10000000000E+04  0.00000000000E+00 0.  1.
    9000005    2    1    2  501    0  0.10622731423E-03 -0.25511596940E-04 -0.89264700308E+03  0.11073529553E+04  0.65529527359E+03 0.  0.
         13    1    3    3    0    0  0.32096891905E+03 -0.14374719035E+02 -0.55486069942E+03  0.64116930316E+03  0.00000000000E+00 0.  1.
          1    1    3    3  501    0 -0.32096881283E+03  0.14374693524E+02 -0.33778630366E+03  0.46618365218E+03  0.00000000000E+00 0.  1.
         21    1    1    2  502  501 -0.10622731426E-03  0.25511596940E-04  0.12272007387E-03  0.16430246621E-03  0.00000000000E+00 0. -1.
<mgrwt>
<rscale>  1 0.65529527E+03</rscale>
<asrwt>0</asrwt>
<pdfrwt beam="1">  1        1 0.39037580E+00 0.65529527E+03</pdfrwt>
<pdfrwt beam="2">0</pdfrwt>
<totfact> 0.14749426E+00</totfact>
</mgrwt>
</event>
<event>
 6    1  0.4241696E-003  0.6660781E+03  0.7818608E-02  0.9777069E-01
          1   -1    0    0  502    0  0.00000000000E+00  0.00000000000E+00  0.11091565344E+03  0.11091565344E+03  0.00000000000E+00 0.  1.
         13   -1    0    0    0    0 -0.00000000000E+00 -0.00000000000E+00 -0.10000000000E+04  0.10000000000E+04  0.00000000000E+00 0.  1.
    9000005    2    1    2  501    0  0.37369147127E-03 -0.72774513552E-03 -0.88908468233E+03  0.11109147691E+04  0.66607811248E+03 0.  0.
         13    1    3    3    0    0 -0.12672805011E+03 -0.21914204245E+03 -0.80547543004E+03  0.84431860210E+03  0.00000000000E+00 0.  1.
          1    1    3    3  501    0  0.12672842380E+03  0.21914131470E+03 -0.83609252292E+02  0.26659616704E+03  0.00000000000E+00 0.  1.
         21    1    1    2  502  501 -0.37369147127E-03  0.72774513552E-03  0.33576673079E-03  0.88430627922E-03  0.00000000000E+00 0.  1.
<mgrwt>
<rscale>  1 0.66607811E+03</rscale>
<asrwt>0</asrwt>
<pdfrwt beam="1">  1        1 0.40333050E+00 0.66607811E+03</pdfrwt>
<pdfrwt beam="2">0</pdfrwt>
<totfact> 0.12889414E+00</totfact>
</mgrwt>
</event>
<event>
 6    1  0.4241696E-003  0.6390987E+03  0.7818608E-02  0.9827453E-01
          1   -1    0    0  502    0  0.00000000000E+00  0.00000000000E+00  0.10211226212E+03  0.10211226212E+03  0.00000000000E+00 0.  1.
         13   -1    0    0    0    0 -0.00000000000E+00 -0.00000000000E+00 -0.10000000000E+04  0.10000000000E+04  0.00000000000E+00 0.  1.
    9000005    2    1    2  501    0 -0.19167131188E-03 -0.20007716408E-04 -0.89788819983E+03  0.11021117616E+04  0.63909867439E+03 0.  0.
         13    1    3    3    0    0 -0.16668390805E+03 -0.20971175914E+02 -0.91769940860E+03  0.93294990217E+03  0.00000000000E+00 0.  1.
          1    1    3    3  501    0  0.16668371638E+03  0.20971155907E+02  0.19811208766E+02  0.16916185941E+03  0.00000000000E+00 0.  1.
         21    1    1    2  502  501  0.19167131188E-03  0.20007716406E-04  0.46195644840E-03  0.50054166733E-03  0.00000000000E+00 0. -1.
<mgrwt>
<rscale>  1 0.63909867E+03</rscale>
<asrwt>0</asrwt>
<pdfrwt beam="1">  1        1 0.37131810E+00 0.63909867E+03</pdfrwt>
<pdfrwt beam="2">0</pdfrwt>
<totfact> 0.17955493E+00</totfact>
</mgrwt>
</event>
<event>
 6    1  0.4241696E-003  0.6605567E+03  0.7818608E-02  0.9787169E-01
          1   -1    0    0  502    0  0.00000000000E+00  0.00000000000E+00  0.10908934867E+03  0.10908934867E+03  0.00000000000E+00 0.  1.
         13   -1    0    0    0    0 -0.00000000000E+00 -0.00000000000E+00 -0.10000000000E+04  0.10000000000E+04  0.00000000000E+00 0.  1.
    9000005    2    1    2  501    0 -0.64296144923E-02 -0.63372639073E-03 -0.89091402788E+03  0.11090820588E+04  0.66055674091E+03 0.  0.
         13    1    3    3    0    0  0.14114232102E+03  0.28490494304E+03 -0.59554309620E+03  0.67510262981E+03  0.00000000000E+00 0.  1.
          3    1    3    3  501    0 -0.14114875063E+03 -0.28490557676E+03 -0.29537093168E+03  0.43397942896E+03  0.00000000000E+00 0.  1.
         21    1    1    2  502  501  0.64296144923E-02  0.63372639075E-03  0.33765505035E-02  0.72899002024E-02  0.00000000000E+00 0.  1.
<mgrwt>
<rscale>  1 0.66055674E+03</rscale>
<asrwt>0</asrwt>
<pdfrwt beam="1">  1        1 0.39668938E+00 0.66055674E+03</pdfrwt>
<pdfrwt beam="2">0</pdfrwt>
<totfact> 0.13813292E+00</totfact>
</mgrwt>
</event>
<event>
 6    1  0.4241696E-003  0.6552925E+03  0.7818608E-02  0.9796899E-01
          1   -1    0    0  502    0  0.00000000000E+00  0.00000000000E+00  0.10735246551E+03  0.10735246551E+03  0.00000000000E+00 0.  1.
         13   -1    0    0    0    0 -0.00000000000E+00 -0.00000000000E+00 -0.10000000000E+04  0.10000000000E+04  0.00000000000E+00 0.  1.
    9000005    2    1    2  501    0  0.24341234450E-04 -0.86442391591E-04 -0.89264792904E+03  0.11073520609E+04  0.65529250071E+03 0.  0.
         13    1    3    3    0    0  0.17129811847E+03 -0.10145328626E+03 -0.65829364790E+01  0.19919625934E+03  0.00000000000E+00 0.  1.
          1    1    3    3  501    0 -0.17129809413E+03  0.10145319982E+03 -0.88606499256E+03  0.90815580153E+03  0.00000000000E+00 0.  1.
         21    1    1    2  502  501 -0.24341234458E-04  0.86442391591E-04  0.39454873033E-03  0.40463994286E-03  0.00000000000E+00 0.  1.
<mgrwt>
<rscale>  1 0.65529250E+03</rscale>
<asrwt>0</asrwt>
<pdfrwt beam="1">  1        1 0.39037343E+00 0.65529250E+03</pdfrwt>
<pdfrwt beam="2">0</pdfrwt>
<totfact> 0.14749792E+00</totfact>
</mgrwt>
</event>
<event>
 6    1  0.4241696E-003  0.6553021E+03  0.7818608E-02  0.9796881E-01
          1   -1    0    0  502    0  0.00000000000E+00  0.00000000000E+00  0.10856097003E+03  0.10856097003E+03  0.00000000000E+00 0.  1.
         13   -1    0    0    0    0 -0.00000000000E+00 -0.00000000000E+00 -0.10000000000E+04  0.10000000000E+04  0.00000000000E+00 0.  1.
    9000005    2    1    2  501    0  0.32544594623E+00 -0.37579935398E+00 -0.89258778693E+03  0.11073092581E+04  0.65530190642E+03 0.  0.
         13    1    3    3    0    0 -0.12658992103E+03 -0.41225088464E+02 -0.95205691170E+03  0.96132038319E+03  0.00000000000E+00 0.  1.
          3    1    3    3  501    0  0.12691536697E+03  0.40849289110E+02  0.59469124771E+02  0.14598887491E+03  0.00000000000E+00 0.  1.
         21    1    1    2  502  501 -0.32544594623E+00  0.37579935398E+00  0.11487569625E+01  0.12517119386E+01  0.00000000000E+00 0.  1.
<mgrwt>
<rscale>  1 0.65530209E+03</rscale>
<asrwt>0</asrwt>
<pdfrwt beam="1">  1        1 0.39476800E+00 0.65530209E+03</pdfrwt>
<pdfrwt beam="2">0</pdfrwt>
<totfact> 0.14101662E+00</totfact>
</mgrwt>
</event>
<event>
 6    1  0.4241696E-003  0.6487335E+03  0.7818608E-02  0.9809159E-01
          1   -1    0    0  502    0  0.00000000000E+00  0.00000000000E+00  0.10522099933E+03  0.10522099933E+03  0.00000000000E+00 0.  1.
         13   -1    0    0    0    0 -0.00000000000E+00 -0.00000000000E+00 -0.10000000000E+04  0.10000000000E+04  0.00000000000E+00 0.  1.
    9000005    2    1    2  501    0  0.10910410598E-02 -0.97533752709E-02 -0.89478231801E+03  0.11052106396E+04  0.64873350555E+03 0.  0.
         13    1    3    3    0    0 -0.16347032892E+03 -0.50576229127E+02  0.22065073647E+02  0.17253223138E+03  0.00000000000E+00 0.  1.
          1    1    3    3  501    0  0.16347141996E+03  0.50566475752E+02 -0.91684739166E+03  0.93267840825E+03  0.00000000000E+00 0.  1.
         21    1    1    2  502  501 -0.10910410598E-02  0.97533752709E-02  0.33173454023E-02  0.10359704643E-01  0.00000000000E+00 0.  1.
<mgrwt>
<rscale>  1 0.64873351E+03</rscale>
<asrwt>0</asrwt>
<pdfrwt beam="1">  1        1 0.38262262E+00 0.64873351E+03</pdfrwt>
<pdfrwt beam="2">0</pdfrwt>
<totfact> 0.15981703E+00</totfact>
</mgrwt>
</event>
<event>
 6    1  0.4241696E-003  0.6604144E+03  0.7818608E-02  0.9787431E-01
          1   -1    0    0  502    0  0.00000000000E+00  0.00000000000E+00  0.10903744778E+03  0.10903744778E+03  0.00000000000E+00 0.  1.
         13   -1    0    0    0    0 -0.00000000000E+00 -0.00000000000E+00 -0.10000000000E+04  0.10000000000E+04  0.00000000000E+00 0.  1.
    9000005    2    1    2  501    0  0.10433853392E-03  0.51720146189E-04 -0.89096319294E+03  0.11090367966E+04  0.66041441911E+03 0.  0.
         13    1    3    3    0    0 -0.73654378557E+02  0.31627442899E+03 -0.54599226446E+03  0.63526532627E+03  0.00000000000E+00 0.  1.
          1    1    3    3  501    0  0.73654482896E+02 -0.31627437727E+03 -0.34497092847E+03  0.47377147029E+03  0.00000000000E+00 0.  1.
         21    1    1    2  502  501 -0.10433853391E-03 -0.51720146228E-04  0.64071969855E-03  0.65121673450E-03  0.00000000000E+00 0. -1.
<mgrwt>
<rscale>  1 0.66041442E+03</rscale>
<asrwt>0</asrwt>
<pdfrwt beam="1">  1        1 0.39650065E+00 0.66041442E+03</pdfrwt>
<pdfrwt beam="2">0</pdfrwt>
<totfact> 0.13840402E+00</totfact>
</mgrwt>
</event>
<event>
 6    1  0.4241696E-003  0.6545548E+03  0.7818608E-02  0.9798270E-01
          1   -1    0    0  502    0  0.00000000000E+00  0.00000000000E+00  0.10711074895E+03  0.10711074895E+03  0.00000000000E+00 0.  1.
         13   -1    0    0    0    0 -0.00000000000E+00 -0.00000000000E+00 -0.10000000000E+04  0.10000000000E+04  0.00000000000E+00 0.  1.
    9000005    2    1    2  501    0 -0.45971766781E-04  0.45650783903E-04 -0.89288949749E+03  0.11071104941E+04  0.65455480405E+03 0.  0.
         13    1    3    3    0    0  0.33113250648E+02  0.12876040964E+03 -0.95226727008E+03  0.96150334587E+03  0.00000000000E+00 0.  1.
          3    1    3    3  501    0 -0.33113296619E+02 -0.12876036399E+03  0.59377772589E+02  0.14560714827E+03  0.00000000000E+00 0.  1.
         21    1    1    2  502  501  0.45971766777E-04 -0.45650783898E-04  0.24643483558E-03  0.25480880204E-03  0.00000000000E+00 0. -1.
<mgrwt>
<rscale>  1 0.65455480E+03</rscale>
<asrwt>0</asrwt>
<pdfrwt beam="1">  1        1 0.38949445E+00 0.65455480E+03</pdfrwt>
<pdfrwt beam="2">0</pdfrwt>
<totfact> 0.14884807E+00</totfact>
</mgrwt>
</event>
<event>
 6    1  0.4241696E-003  0.6491120E+03  0.7818608E-02  0.9808447E-01
          1   -1    0    0  502    0  0.00000000000E+00  0.00000000000E+00  0.10533661065E+03  0.10533661065E+03  0.00000000000E+00 0.  1.
         13   -1    0    0    0    0 -0.00000000000E+00 -0.00000000000E+00 -0.10000000000E+04  0.10000000000E+04  0.00000000000E+00 0.  1.
    9000005    2    1    2  501    0 -0.73519506572E-05 -0.13005886217E-05 -0.89466339084E+03  0.11053366030E+04  0.64911202662E+03 0.  0.
         13    1    3    3    0    0 -0.10939189722E+03  0.14162848460E+03 -0.90839507462E+03  0.92585464649E+03  0.00000000000E+00 0.  1.
          1    1    3    3  501    0  0.10939188987E+03 -0.14162848590E+03  0.13731683779E+02  0.17948195655E+03  0.00000000000E+00 0.  1.
         21    1    1    2  502  501  0.73519506604E-05  0.13005886302E-05  0.14974189362E-05  0.76147864559E-05  0.00000000000E+00 0.  1.
<mgrwt>
<rscale>  1 0.64911203E+03</rscale>
<asrwt>0</asrwt>
<pdfrwt beam="1">  1        1 0.38304303E+00 0.64911203E+03</pdfrwt>
<pdfrwt beam="2">0</pdfrwt>
<totfact> 0.15912383E+00</totfact>
</mgrwt>
</event>
<event>
 6    1  0.4241696E-003  0.6498214E+03  0.7818608E-02  0.9807114E-01
          1   -1    0    0  502    0  0.00000000000E+00  0.00000000000E+00  0.12844372372E+03  0.12844372372E+03  0.00000000000E+00 0.  1.
         13   -1    0    0    0    0 -0.00000000000E+00 -0.00000000000E+00 -0.10000000000E+04  0.10000000000E+04  0.00000000000E+00 0.  1.
    9000005    2    1    2  501    0  0.59914702725E+02 -0.15286349016E+01 -0.83566082107E+03  0.10585824896E+04  0.64705159849E+03 0.  0.
         13    1    3    3    0    0 -0.11722621658E+03 -0.28827680461E+03 -0.36450412263E+03  0.47927941469E+03  0.00000000000E+00 0.  1.
          3    1    3    3  501    0  0.17714091930E+03  0.28674816971E+03 -0.47115669844E+03  0.57930307492E+03  0.00000000000E+00 0.  1.
         21    1    1    2  502  501 -0.59914702725E+02  0.15286349016E+01 -0.35895455205E+02  0.69861234113E+02  0.00000000000E+00 0.  1.
<mgrwt>
<rscale>  1 0.64982142E+03</rscale>
<asrwt>0</asrwt>
<pdfrwt beam="1">  1        1 0.46706907E+00 0.64982142E+03</pdfrwt>
<pdfrwt beam="2">0</pdfrwt>
<totfact> 0.66217108E-01</totfact>
</mgrwt>
</event>
<event>
 6    1  0.4241696E-003  0.6421929E+03  0.7818608E-02  0.9821540E-01
          3   -1    0    0  502    0  0.00000000000E+00  0.00000000000E+00  0.10310292081E+03  0.10310292081E+03  0.00000000000E+00 0.  1.
         13   -1    0    0    0    0 -0.00000000000E+00 -0.00000000000E+00 -0.10000000000E+04  0.10000000000E+04  0.00000000000E+00 0.  1.
    9000005    2    1    2  501    0 -0.19298381062E-05 -0.24329955295E-06 -0.89689708335E+03  0.11031029162E+04  0.64219285706E+03 0.  0.
         13    1    3    3    0    0 -0.68930010917E+02  0.48078861155E+02 -0.98077324732E+03  0.98436735316E+03  0.00000000000E+00 0.  1.
          3    1    3    3  501    0  0.68930008987E+02 -0.48078861399E+02  0.83876163978E+02  0.11873556306E+03  0.00000000000E+00 0.  1.
         21    1    1    2  502  501  0.19298380966E-05  0.24329955354E-06  0.41594419026E-05  0.45917781624E-05  0.00000000000E+00 0.  1.
<mgrwt>
<rscale>  1 0.64219286E+03</rscale>
<asrwt>0</asrwt>
<pdfrwt beam="1">  1        3 0.37492050E+00 0.64219286E+03</pdfrwt>
<pdfrwt beam="2">0</pdfrwt>
<totfact> 0.80396891E-02</totfact>
</mgrwt>
</event>
<event>
 6    1  0.4241696E-003  0.6500459E+03  0.7818608E-02  0.9806693E-01
          1   -1    0    0  502    0  0.00000000000E+00  0.00000000000E+00  0.10940023069E+03  0.10940023069E+03  0.00000000000E+00 0.  1.
         13   -1    0    0    0    0 -0.00000000000E+00 -0.00000000000E+00 -0.10000000000E+04  0.10000000000E+04  0.00000000000E+00 0.  1.
    9000005    2    1    2  501    0 -0.45233789817E-01  0.38380919755E-01 -0.89435982530E+03  0.11056397068E+04  0.65004589110E+03 0.  0.
         13    1    3    3    0    0 -0.29030184814E+03  0.43062738735E+02 -0.20954542438E+03  0.36060899515E+03  0.00000000000E+00 0.  1.
          3    1    3    3  501    0  0.29025661435E+03 -0.43024357815E+02 -0.68481440091E+03  0.74503071161E+03  0.00000000000E+00 0.  1.
         21    1    1    2  502  501  0.45233789817E-01 -0.38380919755E-01  0.37600559913E+01  0.37605239328E+01  0.00000000000E+00 0.  1.
<mgrwt>
<rscale>  1 0.65004589E+03</rscale>
<asrwt>0</asrwt>
<pdfrwt beam="1">  1        1 0.39781986E+00 0.65004589E+03</pdfrwt>
<pdfrwt beam="2">0</pdfrwt>
<totfact> 0.13681156E+00</totfact>
</mgrwt>
</event>
<event>
 6    1  0.4241696E-003  0.6354077E+03  0.7818608E-02  0.9834552E-01
          1   -1    0    0  502    0  0.00000000000E+00  0.00000000000E+00  0.11092057987E+03  0.11092057987E+03  0.00000000000E+00 0.  1.
         13   -1    0    0    0    0 -0.00000000000E+00 -0.00000000000E+00 -0.10000000000E+04  0.10000000000E+04  0.00000000000E+00 0.  1.
    9000005    2    1    2  501    0 -0.77344954704E+00  0.48105010677E+01 -0.89840586471E+03  0.11003981413E+04  0.63538904030E+03 0.  0.
         13    1    3    3    0    0 -0.30130101131E+03 -0.85160555158E+02 -0.53898207453E+03  0.62332679730E+03  0.00000000000E+00 0.  1.
          3    1    3    3  501    0  0.30052756176E+03  0.89971056225E+02 -0.35942379017E+03  0.47707134401E+03  0.00000000000E+00 0.  1.
         21    1    1    2  502  501  0.77344954704E+00 -0.48105010677E+01  0.93264445753E+01  0.10522438555E+02  0.00000000000E+00 0.  1.
<mgrwt>
<rscale>  1 0.63540772E+03</rscale>
<asrwt>0</asrwt>
<pdfrwt beam="1">  1        1 0.40334841E+00 0.63540772E+03</pdfrwt>
<pdfrwt beam="2">0</pdfrwt>
<totfact> 0.12962907E+00</totfact>
</mgrwt>
</event>
<event>
 6    1  0.4241696E-003  0.6330563E+03  0.7818608E-02  0.9839103E-01
          1   -1    0    0  502    0  0.00000000000E+00  0.00000000000E+00  0.10019007229E+03  0.10019007229E+03  0.00000000000E+00 0.  1.
         13   -1    0    0    0    0 -0.00000000000E+00 -0.00000000000E+00 -0.10000000000E+04  0.10000000000E+04  0.00000000000E+00 0.  1.
    9000005    2    1    2  501    0  0.21205720486E-05  0.28239958283E-06 -0.89980993318E+03  0.11001900664E+04  0.63305629006E+03 0.  0.
         13    1    3    3    0    0 -0.16509150887E+03  0.26976449572E+03 -0.42778665834E+03  0.53200518278E+03  0.00000000000E+00 0.  1.
          3    1    3    3  501    0  0.16509151100E+03 -0.26976449543E+03 -0.47202327484E+03  0.56818488363E+03  0.00000000000E+00 0.  1.
         21    1    1    2  502  501 -0.21205720605E-05 -0.28239960776E-06  0.54674537386E-05  0.58710838681E-05  0.00000000000E+00 0.  1.
<mgrwt>
<rscale>  1 0.63305629E+03</rscale>
<asrwt>0</asrwt>
<pdfrwt beam="1">  1        1 0.36432830E+00 0.63305629E+03</pdfrwt>
<pdfrwt beam="2">0</pdfrwt>
<totfact> 0.19290499E+00</totfact>
</mgrwt>
</event>
<event>
 6    1  0.4241696E-003  0.6323311E+03  0.7818608E-02  0.9840510E-01
          1   -1    0    0  502    0  0.00000000000E+00  0.00000000000E+00  0.99960695203E+02  0.99960695203E+02  0.00000000000E+00 0.  1.
         13   -1    0    0    0    0 -0.00000000000E+00 -0.00000000000E+00 -0.10000000000E+04  0.10000000000E+04  0.00000000000E+00 0.  1.
    9000005    2    1    2  501    0  0.58536699896E-05 -0.10141496261E-04 -0.90003934583E+03  0.10999606525E+04  0.63233109450E+03 0.  0.
         13    1    3    3    0    0 -0.16519147243E+03  0.26924151513E+03 -0.47345069541E+03  0.56915268340E+03  0.00000000000E+00 0.  1.
          3    1    3    3  501    0  0.16519147829E+03 -0.26924152527E+03 -0.42658865042E+03  0.53080796914E+03  0.00000000000E+00 0.  1.
         21    1    1    2  502  501 -0.58536699882E-05  0.10141496238E-04  0.41033630250E-04  0.42671702682E-04  0.00000000000E+00 0.  1.
<mgrwt>
<rscale>  1 0.63233109E+03</rscale>
<asrwt>0</asrwt>
<pdfrwt beam="1">  1        1 0.36349420E+00 0.63233109E+03</pdfrwt>
<pdfrwt beam="2">0</pdfrwt>
<totfact> 0.19456028E+00</totfact>
</mgrwt>
</event>
<event>
 6    1  0.4241696E-003  0.6560383E+03  0.7818608E-02  0.9795514E-01
          1   -1    0    0  502    0  0.00000000000E+00  0.00000000000E+00  0.11638306486E+03  0.11638306486E+03  0.00000000000E+00 0.  1.
         13   -1    0    0    0    0 -0.00000000000E+00 -0.00000000000E+00 -0.10000000000E+04  0.10000000000E+04  0.00000000000E+00 0.  1.
    9000005    2    1    2  501    0 -0.20140894347E+02 -0.13930515151E+02 -0.83447829466E+03  0.10614802337E+04  0.65558107621E+03 0.  0.
         13    1    3    3    0    0 -0.14373788386E+02  0.46141415926E+02 -0.93929214957E+03  0.94053462366E+03  0.00000000000E+00 0.  1.
          1    1    3    3  501    0 -0.57671059618E+01 -0.60071931077E+02  0.10481385492E+03  0.12094561008E+03  0.00000000000E+00 0.  1.
         21    1    1    2  502  501  0.20140894347E+02  0.13930515151E+02 -0.49138640480E+02  0.54902831127E+02  0.00000000000E+00 0. -1.
<mgrwt>
<rscale>  1 0.65603831E+03</rscale>
<asrwt>0</asrwt>
<pdfrwt beam="1">  1        1 0.42321204E+00 0.65603831E+03</pdfrwt>
<pdfrwt beam="2">0</pdfrwt>
<totfact> 0.10513224E+00</totfact>
</mgrwt>
</event>
<event>
 6    1  0.4241696E-003  0.6544621E+03  0.7818608E-02  0.9798442E-01
          1   -1    0    0  502    0  0.00000000000E+00  0.00000000000E+00  0.10708017762E+03  0.10708017762E+03  0.00000000000E+00 0.  1.
         13   -1    0    0    0    0 -0.00000000000E+00 -0.00000000000E+00 -0.10000000000E+04  0.10000000000E+04  0.00000000000E+00 0.  1.
    9000005    2    1    2  501    0 -0.18334735046E-05 -0.26732131460E-05 -0.89291982956E+03  0.11070801697E+04  0.65446213045E+03 0.  0.
         13    1    3    3    0    0 -0.60906603609E+02  0.30306062244E+03 -0.26486172374E+03  0.40707135484E+03  0.00000000000E+00 0.  1.
          3    1    3    3  501    0  0.60906601776E+02 -0.30306062511E+03 -0.62805810583E+03  0.70000881489E+03  0.00000000000E+00 0.  1.
         21    1    1    2  502  501  0.18334735107E-05  0.26732131587E-05  0.71813777211E-05  0.78790786060E-05  0.00000000000E+00 0.  1.
<mgrwt>
<rscale>  1 0.65446213E+03</rscale>
<asrwt>0</asrwt>
<pdfrwt beam="1">  1        1 0.38938329E+00 0.65446213E+03</pdfrwt>
<pdfrwt beam="2">0</pdfrwt>
<totfact> 0.14901965E+00</totfact>
</mgrwt>
</event>
<event>
 6    1  0.4241696E-003  0.6496875E+03  0.7818608E-02  0.9807366E-01
          1   -1    0    0  502    0  0.00000000000E+00  0.00000000000E+00  0.10553073564E+03  0.10553073564E+03  0.00000000000E+00 0.  1.
         13   -1    0    0    0    0 -0.00000000000E+00 -0.00000000000E+00 -0.10000000000E+04  0.10000000000E+04  0.00000000000E+00 0.  1.
    9000005    2    1    2  501    0  0.98466665978E-03  0.18446714022E-01 -0.89445996615E+03  0.11055100546E+04  0.64968750129E+03 0.  0.
         13    1    3    3    0    0 -0.17621109158E+03 -0.11822471426E+03 -0.28707926774E+02  0.21412981323E+03  0.00000000000E+00 0.  1.
          1    1    3    3  501    0  0.17621207624E+03  0.11824316097E+03 -0.86575203938E+03  0.89138024132E+03  0.00000000000E+00 0.  1.
         21    1    1    2  502  501 -0.98466665978E-03 -0.18446714022E-01 -0.92982050897E-02  0.20681089056E-01  0.00000000000E+00 0.  1.
<mgrwt>
<rscale>  1 0.64968750E+03</rscale>
<asrwt>0</asrwt>
<pdfrwt beam="1">  1        1 0.38374894E+00 0.64968750E+03</pdfrwt>
<pdfrwt beam="2">0</pdfrwt>
<totfact> 0.15796805E+00</totfact>
</mgrwt>
</event>
<event>
 6    1  0.4241696E-003  0.6437625E+03  0.7818608E-02  0.9818554E-01
          1   -1    0    0  502    0  0.00000000000E+00  0.00000000000E+00  0.10384548119E+03  0.10384548119E+03  0.00000000000E+00 0.  1.
         13   -1    0    0    0    0 -0.00000000000E+00 -0.00000000000E+00 -0.10000000000E+04  0.10000000000E+04  0.00000000000E+00 0.  1.
    9000005    2    1    2  501    0 -0.14007297495E-01  0.44300463225E-02 -0.89639222085E+03  0.11036073256E+04  0.64376246806E+03 0.  0.
         13    1    3    3    0    0  0.16180025029E+02  0.28684616654E+03 -0.19938108608E+03  0.34970749771E+03  0.00000000000E+00 0.  1.
          3    1    3    3  501    0 -0.16194032326E+02 -0.28684173650E+03 -0.69701113477E+03  0.75389982788E+03  0.00000000000E+00 0.  1.
         21    1    1    2  502  501  0.14007297495E-01 -0.44300463224E-02  0.23770203839E+00  0.23815559777E+00  0.00000000000E+00 0. -1.
<mgrwt>
<rscale>  1 0.64376247E+03</rscale>
<asrwt>0</asrwt>
<pdfrwt beam="1">  1        1 0.37762073E+00 0.64376247E+03</pdfrwt>
<pdfrwt beam="2">0</pdfrwt>
<totfact> 0.16830258E+00</totfact>
</mgrwt>
</event>
<event>
 6    1  0.4241696E-003  0.6564679E+03  0.7818608E-02  0.9794718E-01
          1   -1    0    0  502    0  0.00000000000E+00  0.00000000000E+00  0.10774990195E+03  0.10774990195E+03  0.00000000000E+00 0.  1.
         13   -1    0    0    0    0 -0.00000000000E+00 -0.00000000000E+00 -0.10000000000E+04  0.10000000000E+04  0.00000000000E+00 0.  1.
    9000005    2    1    2  501    0 -0.43282167303E-03 -0.35768095131E-04 -0.89226245944E+03  0.11077375329E+04  0.65646793170E+03 0.  0.
         13    1    3    3    0    0  0.16988882241E+03 -0.27250684012E+03 -0.33149470605E+03  0.46153107158E+03  0.00000000000E+00 0.  1.
          1    1    3    3  501    0 -0.16988925524E+03  0.27250680435E+03 -0.56076775339E+03  0.64620646136E+03  0.00000000000E+00 0.  1.
         21    1    1    2  502  501  0.43282167303E-03  0.35768095100E-04  0.12361383815E-01  0.12369010622E-01  0.00000000000E+00 0. -1.
<mgrwt>
<rscale>  1 0.65646793E+03</rscale>
<asrwt>0</asrwt>
<pdfrwt beam="1">  1        1 0.39181865E+00 0.65646793E+03</pdfrwt>
<pdfrwt beam="2">0</pdfrwt>
<totfact> 0.14530418E+00</totfact>
</mgrwt>
</event>
<event>
 6    1  0.4241696E-003  0.6322208E+03  0.7818608E-02  0.9840725E-01
          1   -1    0    0  502    0  0.00000000000E+00  0.00000000000E+00  0.10921450204E+03  0.10921450204E+03  0.00000000000E+00 0.  1.
         13   -1    0    0    0    0 -0.00000000000E+00 -0.00000000000E+00 -0.10000000000E+04  0.10000000000E+04  0.00000000000E+00 0.  1.
    9000005    2    1    2  501    0  0.27237037148E+01 -0.48770193798E+00 -0.89984704810E+03  0.10997398988E+04  0.63221474095E+03 0.  0.
         13    1    3    3    0    0 -0.27805338998E+03 -0.14034539252E+02 -0.19220597196E+03  0.33831020031E+03  0.00000000000E+00 0.  1.
          3    1    3    3  501    0  0.28077709370E+03  0.13546837314E+02 -0.70764107614E+03  0.76142969852E+03  0.00000000000E+00 0.  1.
         21    1    1    2  502  501 -0.27237037148E+01  0.48770193798E+00  0.90615501399E+01  0.94746032130E+01  0.00000000000E+00 0.  1.
<mgrwt>
<rscale>  1 0.63222080E+03</rscale>
<asrwt>0</asrwt>
<pdfrwt beam="1">  1        1 0.39714448E+00 0.63222080E+03</pdfrwt>
<pdfrwt beam="2">0</pdfrwt>
<totfact> 0.13823308E+00</totfact>
</mgrwt>
</event>
<event>
 6    1  0.4241696E-003  0.6471730E+03  0.7818608E-02  0.9812098E-01
          1   -1    0    0  502    0  0.00000000000E+00  0.00000000000E+00  0.10474078939E+03  0.10474078939E+03  0.00000000000E+00 0.  1.
         13   -1    0    0    0    0 -0.00000000000E+00 -0.00000000000E+00 -0.10000000000E+04  0.10000000000E+04  0.00000000000E+00 0.  1.
    9000005    2    1    2  501    0 -0.61724967370E-02 -0.65065387909E-02 -0.89529108277E+03  0.11047076794E+04  0.64717303253E+03 0.  0.
         13    1    3    3    0    0  0.26283125112E+03 -0.16891405156E+02 -0.12674416304E+03  0.29228354213E+03  0.00000000000E+00 0.  1.
          1    1    3    3  501    0 -0.26283742362E+03  0.16884898617E+02 -0.76854691973E+03  0.81242413731E+03  0.00000000000E+00 0.  1.
         21    1    1    2  502  501  0.61724967369E-02  0.65065387909E-02  0.31872154693E-01  0.33109953304E-01  0.00000000000E+00 0.  1.
<mgrwt>
<rscale>  1 0.64717303E+03</rscale>
<asrwt>0</asrwt>
<pdfrwt beam="1">  1        1 0.38087640E+00 0.64717303E+03</pdfrwt>
<pdfrwt beam="2">0</pdfrwt>
<totfact> 0.16272684E+00</totfact>
</mgrwt>
</event>
<event>
 6    1  0.4241696E-003  0.6421352E+03  0.7818608E-02  0.9821650E-01
          1   -1    0    0  502    0  0.00000000000E+00  0.00000000000E+00  0.10312877149E+03  0.10312877149E+03  0.00000000000E+00 0.  1.
         13   -1    0    0    0    0 -0.00000000000E+00 -0.00000000000E+00 -0.10000000000E+04  0.10000000000E+04  0.00000000000E+00 0.  1.
    9000005    2    1    2  501    0  0.16266721898E-01  0.10411507693E-02 -0.89691395392E+03  0.11030830424E+04  0.64213515508E+03 0.  0.
         13    1    3    3    0    0  0.47003802996E+02 -0.11290844189E+03  0.61502831473E+02  0.13689511322E+03  0.00000000000E+00 0.  1.
          1    1    3    3  501    0 -0.46987536274E+02  0.11290948304E+03 -0.95841678540E+03  0.96618792916E+03  0.00000000000E+00 0.  1.
         21    1    1    2  502  501 -0.16266721898E-01 -0.10411507693E-02  0.42725414866E-01  0.45729107926E-01  0.00000000000E+00 0.  1.
<mgrwt>
<rscale>  1 0.64213516E+03</rscale>
<asrwt>0</asrwt>
<pdfrwt beam="1">  1        1 0.37501451E+00 0.64213516E+03</pdfrwt>
<pdfrwt beam="2">0</pdfrwt>
<totfact> 0.17286187E+00</totfact>
</mgrwt>
</event>
<event>
 6    1  0.4241696E-003  0.6458365E+03  0.7818608E-02  0.9814623E-01
          1   -1    0    0  502    0  0.00000000000E+00  0.00000000000E+00  0.11149321293E+03  0.11149321293E+03  0.00000000000E+00 0.  1.
         13   -1    0    0    0    0 -0.00000000000E+00 -0.00000000000E+00 -0.10000000000E+04  0.10000000000E+04  0.00000000000E+00 0.  1.
    9000005    2    1    2  501    0  0.21319892551E+01  0.68709385577E+01 -0.89368945198E+03  0.11026266922E+04  0.64579643117E+03 0.  0.
         13    1    3    3    0    0 -0.26393989965E+03  0.34629193646E+02 -0.75653004037E+03  0.80199822547E+03  0.00000000000E+00 0.  1.
          1    1    3    3  501    0  0.26607188891E+03 -0.27758255088E+02 -0.13715941162E+03  0.30062846670E+03  0.00000000000E+00 0.  1.
         21    1    1    2  502  501 -0.21319892551E+01 -0.68709385577E+01  0.51826649147E+01  0.88665207644E+01  0.00000000000E+00 0. -1.
<mgrwt>
<rscale>  1 0.64583650E+03</rscale>
<asrwt>0</asrwt>
<pdfrwt beam="1">  1        1 0.40543072E+00 0.64583650E+03</pdfrwt>
<pdfrwt beam="2">0</pdfrwt>
<totfact> 0.12662549E+00</totfact>
</mgrwt>
</event>
<event>
 6    1  0.4241696E-003  0.6314943E+03  0.7818608E-02  0.9842137E-01
          1   -1    0    0  502    0  0.00000000000E+00  0.00000000000E+00  0.10160344372E+03  0.10160344372E+03  0.00000000000E+00 0.  1.
         13   -1    0    0    0    0 -0.00000000000E+00 -0.00000000000E+00 -0.10000000000E+04  0.10000000000E+04  0.00000000000E+00 0.  1.
    9000005    2    1    2  501    0  0.41692368879E+01  0.16209969170E+01 -0.89684962892E+03  0.10968702470E+04  0.63147848073E+03 0.  0.
         13    1    3    3    0    0  0.15070137557E+03 -0.27117589341E+03 -0.34420836714E+03  0.46338609148E+03  0.00000000000E+00 0.  1.
          3    1    3    3  501    0 -0.14653213868E+03  0.27279689033E+03 -0.55264126178E+03  0.63348415549E+03  0.00000000000E+00 0.  1.
         21    1    1    2  502  501 -0.41692368879E+01 -0.16209969170E+01 -0.15469273604E+01  0.47331967517E+01  0.00000000000E+00 0. -1.
<mgrwt>
<rscale>  1 0.63149432E+03</rscale>
<asrwt>0</asrwt>
<pdfrwt beam="1">  1        1 0.36946785E+00 0.63149432E+03</pdfrwt>
<pdfrwt beam="2">0</pdfrwt>
<totfact> 0.18320108E+00</totfact>
</mgrwt>
</event>
<event>
 6    1  0.4241696E-003  0.6519184E+03  0.7818608E-02  0.9803186E-01
          1   -1    0    0  502    0  0.00000000000E+00  0.00000000000E+00  0.10821396020E+03  0.10821396020E+03  0.00000000000E+00 0.  1.
         13   -1    0    0    0    0 -0.00000000000E+00 -0.00000000000E+00 -0.10000000000E+04  0.10000000000E+04  0.00000000000E+00 0.  1.
    9000005    2    1    2  501    0  0.19602949495E+01 -0.47838628141E+00 -0.89316034573E+03  0.11057725822E+04  0.65191527730E+03 0.  0.
         13    1    3    3    0    0  0.24498427966E+03  0.29850012121E+02 -0.81057589234E+03  0.84731434412E+03  0.00000000000E+00 0.  1.
          3    1    3    3  501    0 -0.24302398471E+03 -0.30328398402E+02 -0.82584453385E+02  0.25845823809E+03  0.00000000000E+00 0.  1.
         21    1    1    2  502  501 -0.19602949495E+01  0.47838628141E+00  0.13743059311E+01  0.24413779952E+01  0.00000000000E+00 0. -1.
<mgrwt>
<rscale>  1 0.65191840E+03</rscale>
<asrwt>0</asrwt>
<pdfrwt beam="1">  1        1 0.39350614E+00 0.65191840E+03</pdfrwt>
<pdfrwt beam="2">0</pdfrwt>
<totfact> 0.14293977E+00</totfact>
</mgrwt>
</event>
<event>
 6    1  0.4241696E-003  0.6636235E+03  0.7818608E-02  0.9781546E-01
          1   -1    0    0  502    0  0.00000000000E+00  0.00000000000E+00  0.11043549778E+03  0.11043549778E+03  0.00000000000E+00 0.  1.
         13   -1    0    0    0    0 -0.00000000000E+00 -0.00000000000E+00 -0.10000000000E+04  0.10000000000E+04  0.00000000000E+00 0.  1.
    9000005    2    1    2  501    0  0.84217447366E-01 -0.52267194365E+00 -0.88965139364E+03  0.11098990011E+04  0.66362331952E+03 0.  0.
         13    1    3    3    0    0 -0.10018238803E+02  0.97784838647E+02  0.85181455480E+02  0.13006967416E+03  0.00000000000E+00 0.  1.
          3    1    3    3  501    0  0.10102456250E+02 -0.98307510591E+02 -0.97483284912E+03  0.97982932697E+03  0.00000000000E+00 0.  1.
         21    1    1    2  502  501 -0.84217447366E-01  0.52267194365E+00  0.86891420968E-01  0.53649665251E+00  0.00000000000E+00 0. -1.
<mgrwt>
<rscale>  1 0.66362353E+03</rscale>
<asrwt>0</asrwt>
<pdfrwt beam="1">  1        1 0.40158448E+00 0.66362353E+03</pdfrwt>
<pdfrwt beam="2">0</pdfrwt>
<totfact> 0.13128955E+00</totfact>
</mgrwt>
</event>
<event>
 6    1  0.4241696E-003  0.6511511E+03  0.7818608E-02  0.9804622E-01
          1   -1    0    0  502    0  0.00000000000E+00  0.00000000000E+00  0.10599946658E+03  0.10599946658E+03  0.00000000000E+00 0.  1.
         13   -1    0    0    0    0 -0.00000000000E+00 -0.00000000000E+00 -0.10000000000E+04  0.10000000000E+04  0.00000000000E+00 0.  1.
    9000005    2    1    2  501    0 -0.36107901025E-05 -0.30728976981E-05 -0.89400054957E+03  0.11059994497E+04  0.65115113470E+03 0.  0.
         13    1    3    3    0    0  0.11545567605E+03  0.29305419316E+03 -0.30705261453E+03  0.43987734807E+03  0.00000000000E+00 0.  1.
          3    1    3    3  501    0 -0.11545567966E+03 -0.29305419623E+03 -0.58694793504E+03  0.66612210168E+03  0.00000000000E+00 0.  1.
         21    1    1    2  502  501  0.36107901055E-05  0.30728976873E-05  0.16150865125E-04  0.16832437425E-04  0.00000000000E+00 0.  1.
<mgrwt>
<rscale>  1 0.65115113E+03</rscale>
<asrwt>0</asrwt>
<pdfrwt beam="1">  1        1 0.38545342E+00 0.65115113E+03</pdfrwt>
<pdfrwt beam="2">0</pdfrwt>
<totfact> 0.15520800E+00</totfact>
</mgrwt>
</event>
<event>
 6    1  0.4241696E-003  0.6391625E+03  0.7818608E-02  0.9827330E-01
          1   -1    0    0  502    0  0.00000000000E+00  0.00000000000E+00  0.10213225443E+03  0.10213225443E+03  0.00000000000E+00 0.  1.
         13   -1    0    0    0    0 -0.00000000000E+00 -0.00000000000E+00 -0.10000000000E+04  0.10000000000E+04  0.00000000000E+00 0.  1.
    9000005    2    1    2  501    0 -0.29160167202E-04  0.23721262579E-04 -0.89786780906E+03  0.11021321806E+04  0.63916253104E+03 0.  0.
         13    1    3    3    0    0 -0.21556004784E+03 -0.12785951528E+03 -0.79084885125E+03  0.82961201498E+03  0.00000000000E+00 0.  1.
          3    1    3    3  501    0  0.21556001868E+03  0.12785953900E+03 -0.10701895780E+03  0.27252016567E+03  0.00000000000E+00 0.  1.
         21    1    1    2  502  501  0.29160167208E-04 -0.23721262584E-04  0.63486943035E-04  0.73780794155E-04  0.00000000000E+00 0.  1.
<mgrwt>
<rscale>  1 0.63916253E+03</rscale>
<asrwt>0</asrwt>
<pdfrwt beam="1">  1        1 0.37139080E+00 0.63916253E+03</pdfrwt>
<pdfrwt beam="2">0</pdfrwt>
<totfact> 0.17942080E+00</totfact>
</mgrwt>
</event>
<event>
 6    1  0.4241696E-003  0.4841198E+03  0.7818608E-02  0.1018009E+00
          1   -1    0    0  502    0  0.00000000000E+00  0.00000000000E+00  0.58593595775E+02  0.58593595775E+02  0.00000000000E+00 0.  1.
         13   -1    0    0    0    0 -0.00000000000E+00 -0.00000000000E+00 -0.10000000000E+04  0.10000000000E+04  0.00000000000E+00 0.  1.
    9000005    2    1    2  501    0 -0.18421114333E-04 -0.41158618416E-05 -0.94140699865E+03  0.10585930011E+04  0.48411982481E+03 0.  0.
         13    1    3    3    0    0 -0.14264839785E+03  0.54983278776E+02 -0.88107643539E+03  0.89424124897E+03  0.00000000000E+00 0.  1.
          3    1    3    3  501    0  0.14264837943E+03 -0.54983282892E+02 -0.60330563259E+02  0.16435175209E+03  0.00000000000E+00 0.  1.
         21    1    1    2  502  501  0.18421114326E-04  0.41158618429E-05  0.59442349567E-03  0.59472310362E-03  0.00000000000E+00 0.  1.
<mgrwt>
<rscale>  1 0.48411982E+03</rscale>
<asrwt>0</asrwt>
<pdfrwt beam="1">  1        1 0.21306807E+00 0.48411982E+03</pdfrwt>
<pdfrwt beam="2">0</pdfrwt>
<totfact> 0.90014412E+00</totfact>
</mgrwt>
</event>
<event>
 6    1  0.4241696E-003  0.6493159E+03  0.7818608E-02  0.9808064E-01
          1   -1    0    0  502    0  0.00000000000E+00  0.00000000000E+00  0.10540894681E+03  0.10540894681E+03  0.00000000000E+00 0.  1.
         13   -1    0    0    0    0 -0.00000000000E+00 -0.00000000000E+00 -0.10000000000E+04  0.10000000000E+04  0.00000000000E+00 0.  1.
    9000005    2    1    2  501    0  0.27241388178E-02  0.86320224926E-03 -0.89459684973E+03  0.11054024842E+04  0.64931589262E+03 0.  0.
         13    1    3    3    0    0  0.86825374540E+02  0.31191119282E+03 -0.40643986221E+03  0.51963506374E+03  0.00000000000E+00 0.  1.
          1    1    3    3  501    0 -0.86822650401E+02 -0.31191032962E+03 -0.48815698752E+03  0.58576742041E+03  0.00000000000E+00 0.  1.
         21    1    1    2  502  501 -0.27241388178E-02 -0.86320224925E-03  0.57965405468E-02  0.64626567859E-02  0.00000000000E+00 0.  1.
<mgrwt>
<rscale>  1 0.64931589E+03</rscale>
<asrwt>0</asrwt>
<pdfrwt beam="1">  1        1 0.38330607E+00 0.64931589E+03</pdfrwt>
<pdfrwt beam="2">0</pdfrwt>
<totfact> 0.15869253E+00</totfact>
</mgrwt>
</event>
<event>
 6    1  0.4241696E-003  0.6473048E+03  0.7818608E-02  0.9811850E-01
          1   -1    0    0  502    0  0.00000000000E+00  0.00000000000E+00  0.10563317256E+03  0.10563317256E+03  0.00000000000E+00 0.  1.
         13   -1    0    0    0    0 -0.00000000000E+00 -0.00000000000E+00 -0.10000000000E+04  0.10000000000E+04  0.00000000000E+00 0.  1.
    9000005    2    1    2  501    0 -0.43810965438E-01  0.10556512812E+01 -0.89488546005E+03  0.11044561854E+04  0.64730391819E+03 0.  0.
         13    1    3    3    0    0 -0.32718388771E+01  0.32192016741E+03 -0.38325730705E+03  0.50052918249E+03  0.00000000000E+00 0.  1.
          1    1    3    3  501    0  0.32280279117E+01 -0.32086451613E+03 -0.51162815300E+03  0.60392700289E+03  0.00000000000E+00 0.  1.
         21    1    1    2  502  501  0.43810965438E-01 -0.10556512812E+01  0.51863260684E+00  0.11769871746E+01  0.00000000000E+00 0. -1.
<mgrwt>
<rscale>  1 0.64730478E+03</rscale>
<asrwt>0</asrwt>
<pdfrwt beam="1">  1        1 0.38412144E+00 0.64730478E+03</pdfrwt>
<pdfrwt beam="2">0</pdfrwt>
<totfact> 0.15743950E+00</totfact>
</mgrwt>
</event>
<event>
 6    1  0.4241696E-003  0.6575053E+03  0.7818608E-02  0.9792797E-01
          1   -1    0    0  502    0  0.00000000000E+00  0.00000000000E+00  0.10807861892E+03  0.10807861892E+03  0.00000000000E+00 0.  1.
         13   -1    0    0    0    0 -0.00000000000E+00 -0.00000000000E+00 -0.10000000000E+04  0.10000000000E+04  0.00000000000E+00 0.  1.
    9000005    2    1    2  501    0 -0.35752468082E-03 -0.11117333315E-04 -0.89192155908E+03  0.11080782194E+04  0.65750534046E+03 0.  0.
         13    1    3    3    0    0 -0.10131692194E+03  0.29707441168E+03 -0.61073939807E+03  0.68667382148E+03  0.00000000000E+00 0.  1.
          1    1    3    3  501    0  0.10131656441E+03 -0.29707442280E+03 -0.28118216101E+03  0.42140439791E+03  0.00000000000E+00 0.  1.
         21    1    1    2  502  501  0.35752468083E-03  0.11117333267E-04  0.17799985612E-03  0.39953903599E-03  0.00000000000E+00 0.  1.
<mgrwt>
<rscale>  1 0.65750534E+03</rscale>
<asrwt>0</asrwt>
<pdfrwt beam="1">  1        1 0.39301399E+00 0.65750534E+03</pdfrwt>
<pdfrwt beam="2">0</pdfrwt>
<totfact> 0.14351142E+00</totfact>
</mgrwt>
</event>
<event>
 6    1  0.4241696E-003  0.6503853E+03  0.7818608E-02  0.9806057E-01
          1   -1    0    0  502    0  0.00000000000E+00  0.00000000000E+00  0.10575048885E+03  0.10575048885E+03  0.00000000000E+00 0.  1.
         13   -1    0    0    0    0 -0.00000000000E+00 -0.00000000000E+00 -0.10000000000E+04  0.10000000000E+04  0.00000000000E+00 0.  1.
    9000005    2    1    2  501    0 -0.50501006399E-06 -0.12369662272E-04 -0.89424975361E+03  0.11057502461E+04  0.65038525880E+03 0.  0.
         13    1    3    3    0    0  0.27296402090E+03 -0.10509498998E+03 -0.68873678125E+03  0.74827312358E+03  0.00000000000E+00 0.  1.
          1    1    3    3  501    0 -0.27296402140E+03  0.10509497761E+03 -0.20551297235E+03  0.35747712249E+03  0.00000000000E+00 0.  1.
         21    1    1    2  502  501  0.50501006755E-06  0.12369662275E-04  0.24245600149E-03  0.24277186048E-03  0.00000000000E+00 0.  1.
<mgrwt>
<rscale>  1 0.65038526E+03</rscale>
<asrwt>0</asrwt>
<pdfrwt beam="1">  1        1 0.38454804E+00 0.65038526E+03</pdfrwt>
<pdfrwt beam="2">0</pdfrwt>
<totfact> 0.15666798E+00</totfact>
</mgrwt>
</event>
<event>
 6    1  0.4241696E-003  0.6475476E+03  0.7818608E-02  0.9811392E-01
          1   -1    0    0  502    0  0.00000000000E+00  0.00000000000E+00  0.10483002015E+03  0.10483002015E+03  0.00000000000E+00 0.  1.
         13   -1    0    0    0    0 -0.00000000000E+00 -0.00000000000E+00 -0.10000000000E+04  0.10000000000E+04  0.00000000000E+00 0.  1.
    9000005    2    1    2  501    0 -0.96814347074E-04  0.33589227067E-03 -0.89517046027E+03  0.11048294260E+04  0.64754761032E+03 0.  0.
         13    1    3    3    0    0  0.23781718568E+03  0.16600413318E+03 -0.20201983375E+03  0.35344928811E+03  0.00000000000E+00 0.  1.
          1    1    3    3  501    0 -0.23781728250E+03 -0.16600379729E+03 -0.69315062653E+03  0.75138013790E+03  0.00000000000E+00 0.  1.
         21    1    1    2  502  501  0.96814347087E-04 -0.33589227067E-03  0.48042687504E-03  0.59414360012E-03  0.00000000000E+00 0. -1.
<mgrwt>
<rscale>  1 0.64754761E+03</rscale>
<asrwt>0</asrwt>
<pdfrwt beam="1">  1        1 0.38120088E+00 0.64754761E+03</pdfrwt>
<pdfrwt beam="2">0</pdfrwt>
<totfact> 0.16217984E+00</totfact>
</mgrwt>
</event>
<event>
 6    1  0.4241696E-003  0.6477983E+03  0.7818608E-02  0.9810919E-01
          1   -1    0    0  502    0  0.00000000000E+00  0.00000000000E+00  0.10491123742E+03  0.10491123742E+03  0.00000000000E+00 0.  1.
         13   -1    0    0    0    0 -0.00000000000E+00 -0.00000000000E+00 -0.10000000000E+04  0.10000000000E+04  0.00000000000E+00 0.  1.
    9000005    2    1    2  501    0 -0.32944217530E-04 -0.58544299293E-05 -0.89508934082E+03  0.11049106582E+04  0.64779829777E+03 0.  0.
         13    1    3    3    0    0 -0.38999838425E+02 -0.61713164623E+02 -0.98578464569E+03  0.98848412722E+03  0.00000000000E+00 0.  1.
          1    1    3    3  501    0  0.38999805480E+02  0.61713158768E+02  0.90695304876E+02  0.11642653099E+03  0.00000000000E+00 0.  1.
         21    1    1    2  502  501  0.32944217531E-04  0.58544299322E-05  0.57824155341E-03  0.57920884826E-03  0.00000000000E+00 0. -1.
<mgrwt>
<rscale>  1 0.64779830E+03</rscale>
<asrwt>0</asrwt>
<pdfrwt beam="1">  1        1 0.38149621E+00 0.64779830E+03</pdfrwt>
<pdfrwt beam="2">0</pdfrwt>
<totfact> 0.16168617E+00</totfact>
</mgrwt>
</event>
<event>
 6    1  0.4241696E-003  0.6496012E+03  0.7818608E-02  0.9807528E-01
          1   -1    0    0  502    0  0.00000000000E+00  0.00000000000E+00  0.10549547547E+03  0.10549547547E+03  0.00000000000E+00 0.  1.
         13   -1    0    0    0    0 -0.00000000000E+00 -0.00000000000E+00 -0.10000000000E+04  0.10000000000E+04  0.00000000000E+00 0.  1.
    9000005    2    1    2  501    0 -0.34779156550E-05 -0.42348070011E-05 -0.89450458277E+03  0.11054954170E+04  0.64960116098E+03 0.  0.
         13    1    3    3    0    0 -0.88885694357E+02 -0.56903456137E+02 -0.97000541495E+03  0.97573007283E+03  0.00000000000E+00 0.  1.
          1    1    3    3  501    0  0.88885690879E+02  0.56903451902E+02  0.75500832182E+02  0.12976534415E+03  0.00000000000E+00 0.  1.
         21    1    1    2  502  501  0.34779156601E-05  0.42348070062E-05  0.58237986428E-04  0.58495235283E-04  0.00000000000E+00 0. -1.
<mgrwt>
<rscale>  1 0.64960116E+03</rscale>
<asrwt>0</asrwt>
<pdfrwt beam="1">  1        1 0.38362072E+00 0.64960116E+03</pdfrwt>
<pdfrwt beam="2">0</pdfrwt>
<totfact> 0.15817686E+00</totfact>
</mgrwt>
</event>
<event>
 6    1  0.4241696E-003  0.6404912E+03  0.7818608E-02  0.9824787E-01
          1   -1    0    0  502    0  0.00000000000E+00  0.00000000000E+00  0.10275093687E+03  0.10275093687E+03  0.00000000000E+00 0.  1.
         13   -1    0    0    0    0 -0.00000000000E+00 -0.00000000000E+00 -0.10000000000E+04  0.10000000000E+04  0.00000000000E+00 0.  1.
    9000005    2    1    2  501    0 -0.19259293609E-02 -0.53847775237E-01 -0.89743860877E+03  0.11025538814E+04  0.64049121936E+03 0.  0.
         13    1    3    3    0    0  0.67114168885E+02  0.27612415871E+03 -0.19456053032E+03  0.34438737295E+03  0.00000000000E+00 0.  1.
          1    1    3    3  501    0 -0.67116094814E+02 -0.27617800648E+03 -0.70287807844E+03  0.75816650849E+03  0.00000000000E+00 0.  1.
         21    1    1    2  502  501  0.19259293609E-02  0.53847775236E-01  0.18954563444E+00  0.19705542275E+00  0.00000000000E+00 0. -1.
<mgrwt>
<rscale>  1 0.64049122E+03</rscale>
<asrwt>0</asrwt>
<pdfrwt beam="1">  1        1 0.37364056E+00 0.64049122E+03</pdfrwt>
<pdfrwt beam="2">0</pdfrwt>
<totfact> 0.17533788E+00</totfact>
</mgrwt>
</event>
<event>
 6    1  0.4241696E-003  0.6404647E+03  0.7818608E-02  0.9824838E-01
          1   -1    0    0  502    0  0.00000000000E+00  0.00000000000E+00  0.10255068607E+03  0.10255068607E+03  0.00000000000E+00 0.  1.
         13   -1    0    0    0    0 -0.00000000000E+00 -0.00000000000E+00 -0.10000000000E+04  0.10000000000E+04  0.00000000000E+00 0.  1.
    9000005    2    1    2  501    0 -0.24813939676E-02 -0.11001111867E-02 -0.89745013799E+03  0.11025478494E+04  0.64046468290E+03 0.  0.
         13    1    3    3    0    0 -0.14659319876E+03  0.27854264052E+03 -0.34727106236E+03  0.46869260637E+03  0.00000000000E+00 0.  1.
          1    1    3    3  501    0  0.14659071737E+03 -0.27854374063E+03 -0.55017907563E+03  0.63385524304E+03  0.00000000000E+00 0.  1.
         21    1    1    2  502  501  0.24813939676E-02  0.11001111867E-02  0.82405935798E-03  0.28366590333E-02  0.00000000000E+00 0.  1.
<mgrwt>
<rscale>  1 0.64046468E+03</rscale>
<asrwt>0</asrwt>
<pdfrwt beam="1">  1        1 0.37291237E+00 0.64046468E+03</pdfrwt>
<pdfrwt beam="2">0</pdfrwt>
<totfact> 0.17663657E+00</totfact>
</mgrwt>
</event>
<event>
 6    1  0.4241696E-003  0.6511506E+03  0.7818608E-02  0.9804623E-01
          3   -1    0    0  502    0  0.00000000000E+00  0.00000000000E+00  0.10599931120E+03  0.10599931120E+03  0.00000000000E+00 0.  1.
         13   -1    0    0    0    0 -0.00000000000E+00 -0.00000000000E+00 -0.10000000000E+04  0.10000000000E+04  0.00000000000E+00 0.  1.
    9000005    2    1    2  501    0 -0.25414747938E-04  0.61819331002E-04 -0.89400067217E+03  0.11059992423E+04  0.65115061405E+03 0.  0.
         13    1    3    3    0    0 -0.30090013720E+03  0.54383504463E+02 -0.25709253459E+03  0.39949346611E+03  0.00000000000E+00 0.  1.
          3    1    3    3  501    0  0.30090011178E+03 -0.54383442644E+02 -0.63690813758E+03  0.70650577621E+03  0.00000000000E+00 0.  1.
         21    1    1    2  502  501  0.25414747933E-04 -0.61819331000E-04 -0.16630765919E-04  0.68877583239E-04  0.00000000000E+00 0. -1.
<mgrwt>
<rscale>  1 0.65115061E+03</rscale>
<asrwt>0</asrwt>
<pdfrwt beam="1">  1        3 0.38545285E+00 0.65115061E+03</pdfrwt>
<pdfrwt beam="2">0</pdfrwt>
<totfact> 0.70626893E-02</totfact>
</mgrwt>
</event>
<event>
 6    1  0.4241696E-003  0.6628767E+03  0.7818608E-02  0.9782913E-01
          1   -1    0    0  502    0  0.00000000000E+00  0.00000000000E+00  0.15168335556E+03  0.15168335556E+03  0.00000000000E+00 0.  1.
         13   -1    0    0    0    0 -0.00000000000E+00 -0.00000000000E+00 -0.10000000000E+04  0.10000000000E+04  0.00000000000E+00 0.  1.
    9000005    2    1    2  501    0 -0.53974415450E+00  0.67496293008E+01 -0.88984429308E+03  0.11096073004E+04  0.66284209753E+03 0.  0.
         13    1    3    3    0    0  0.48921186172E+02 -0.32246950360E+03 -0.49976004840E+03  0.59677463852E+03  0.00000000000E+00 0.  1.
          1    1    3    3  501    0 -0.49460930327E+02  0.32921913290E+03 -0.39008424468E+03  0.51283266184E+03  0.00000000000E+00 0.  1.
         21    1    1    2  502  501  0.53974415450E+00 -0.67496293008E+01  0.41527648645E+02  0.42076055203E+02  0.00000000000E+00 0. -1.
<mgrwt>
<rscale>  1 0.66287668E+03</rscale>
<asrwt>0</asrwt>
<pdfrwt beam="1">  1        1 0.55157700E+00 0.66287668E+03</pdfrwt>
<pdfrwt beam="2">0</pdfrwt>
<totfact> 0.25622225E-01</totfact>
</mgrwt>
</event>
<event>
 6    1  0.4241696E-003  0.6521439E+03  0.7818608E-02  0.9802765E-01
          1   -1    0    0  502    0  0.00000000000E+00  0.00000000000E+00  0.10632316835E+03  0.10632316835E+03  0.00000000000E+00 0.  1.
         13   -1    0    0    0    0 -0.00000000000E+00 -0.00000000000E+00 -0.10000000000E+04  0.10000000000E+04  0.00000000000E+00 0.  1.
    9000005    2    1    2  501    0 -0.25633672573E-04 -0.10208837324E-04 -0.89367707759E+03  0.11063229209E+04  0.65214391526E+03 0.  0.
         13    1    3    3    0    0  0.61218291360E+01  0.20267130946E+03 -0.88004491084E+03  0.90310142374E+03  0.00000000000E+00 0.  1.
          3    1    3    3  501    0 -0.61218547696E+01 -0.20267131967E+03 -0.13632166755E+02  0.20322149712E+03  0.00000000000E+00 0.  1.
         21    1    1    2  502  501  0.25633672573E-04  0.10208837306E-04  0.24594645283E-03  0.24748931934E-03  0.00000000000E+00 0.  1.
<mgrwt>
<rscale>  1 0.65214392E+03</rscale>
<asrwt>0</asrwt>
<pdfrwt beam="1">  1        1 0.38663052E+00 0.65214392E+03</pdfrwt>
<pdfrwt beam="2">0</pdfrwt>
<totfact> 0.15332926E+00</totfact>
</mgrwt>
</event>
<event>
 6    1  0.4241696E-003  0.6519296E+03  0.7818608E-02  0.9803165E-01
          1   -1    0    0  502    0  0.00000000000E+00  0.00000000000E+00  0.10625331039E+03  0.10625331039E+03  0.00000000000E+00 0.  1.
         13   -1    0    0    0    0 -0.00000000000E+00 -0.00000000000E+00 -0.10000000000E+04  0.10000000000E+04  0.00000000000E+00 0.  1.
    9000005    2    1    2  501    0 -0.53205410566E-05 -0.36248467268E-05 -0.89374695630E+03  0.11062530436E+04  0.65192957796E+03 0.  0.
         13    1    3    3    0    0 -0.61523479643E+02 -0.27576600498E+03 -0.72269526160E+03  0.77596421902E+03  0.00000000000E+00 0.  1.
          3    1    3    3  501    0  0.61523474323E+02  0.27576600136E+03 -0.17105169470E+03  0.33028882460E+03  0.00000000000E+00 0.  1.
         21    1    1    2  502  501  0.53205410526E-05  0.36248467524E-05  0.26668759670E-03  0.26676529366E-03  0.00000000000E+00 0.  1.
<mgrwt>
<rscale>  1 0.65192958E+03</rscale>
<asrwt>0</asrwt>
<pdfrwt beam="1">  1        1 0.38637649E+00 0.65192958E+03</pdfrwt>
<pdfrwt beam="2">0</pdfrwt>
<totfact> 0.15373288E+00</totfact>
</mgrwt>
</event>
<event>
 6    1  0.4241696E-003  0.6435876E+03  0.7818608E-02  0.9818886E-01
          1   -1    0    0  502    0  0.00000000000E+00  0.00000000000E+00  0.10355154928E+03  0.10355154928E+03  0.00000000000E+00 0.  1.
         13   -1    0    0    0    0 -0.00000000000E+00 -0.00000000000E+00 -0.10000000000E+04  0.10000000000E+04  0.00000000000E+00 0.  1.
    9000005    2    1    2  501    0  0.63814840331E-04 -0.60363952031E-04 -0.89644873525E+03  0.11035512515E+04  0.64358762400E+03 0.  0.
         13    1    3    3    0    0  0.15692560458E+03  0.22419511515E+03 -0.73851917110E+03  0.78759104942E+03  0.00000000000E+00 0.  1.
          3    1    3    3  501    0 -0.15692554077E+03 -0.22419517552E+03 -0.15792956414E+03  0.31596020208E+03  0.00000000000E+00 0.  1.
         21    1    1    2  502  501 -0.63814840313E-04  0.60363952031E-04  0.28453250909E-03  0.29778329248E-03  0.00000000000E+00 0.  1.
<mgrwt>
<rscale>  1 0.64358762E+03</rscale>
<asrwt>0</asrwt>
<pdfrwt beam="1">  1        1 0.37655188E+00 0.64358762E+03</pdfrwt>
<pdfrwt beam="2">0</pdfrwt>
<totfact> 0.17014299E+00</totfact>
</mgrwt>
</event>
<event>
 6    1  0.4241696E-003  0.6460509E+03  0.7818608E-02  0.9814218E-01
          1   -1    0    0  502    0  0.00000000000E+00  0.00000000000E+00  0.10441869885E+03  0.10441869885E+03  0.00000000000E+00 0.  1.
         13   -1    0    0    0    0 -0.00000000000E+00 -0.00000000000E+00 -0.10000000000E+04  0.10000000000E+04  0.00000000000E+00 0.  1.
    9000005    2    1    2  501    0  0.98951088830E-03 -0.77536579201E-03 -0.89565455683E+03  0.11043454324E+04  0.64605088722E+03 0.  0.
         13    1    3    3    0    0 -0.17800211372E+03  0.17819098588E+03 -0.79356224824E+03  0.83257301287E+03  0.00000000000E+00 0.  1.
          3    1    3    3  501    0  0.17800310324E+03 -0.17819176124E+03 -0.10209230859E+03  0.27177241952E+03  0.00000000000E+00 0.  1.
         21    1    1    2  502  501 -0.98951088829E-03  0.77536579200E-03  0.73255676088E-01  0.73266461652E-01  0.00000000000E+00 0. -1.
<mgrwt>
<rscale>  1 0.64605089E+03</rscale>
<asrwt>0</asrwt>
<pdfrwt beam="1">  1        1 0.37970516E+00 0.64605089E+03</pdfrwt>
<pdfrwt beam="2">0</pdfrwt>
<totfact> 0.16470899E+00</totfact>
</mgrwt>
</event>
<event>
 6    1  0.4241696E-003  0.6563133E+03  0.7818608E-02  0.9795004E-01
          1   -1    0    0  502    0  0.00000000000E+00  0.00000000000E+00  0.10768808797E+03  0.10768808797E+03  0.00000000000E+00 0.  1.
         13   -1    0    0    0    0 -0.00000000000E+00 -0.00000000000E+00 -0.10000000000E+04  0.10000000000E+04  0.00000000000E+00 0.  1.
    9000005    2    1    2  501    0 -0.58534221409E-04  0.13411441799E-02 -0.89231280833E+03  0.11076864738E+04  0.65631332183E+03 0.  0.
         13    1    3    3    0    0 -0.30155319605E+03  0.11210655209E+03 -0.33697739091E+03  0.46589266045E+03  0.00000000000E+00 0.  1.
          3    1    3    3  501    0  0.30155313752E+03 -0.11210521095E+03 -0.55533541741E+03  0.64179381339E+03  0.00000000000E+00 0.  1.
         21    1    1    2  502  501  0.58534221395E-04 -0.13411441799E-02  0.89630209119E-03  0.16141410734E-02  0.00000000000E+00 0.  1.
<mgrwt>
<rscale>  1 0.65631332E+03</rscale>
<asrwt>0</asrwt>
<pdfrwt beam="1">  1        1 0.39159387E+00 0.65631332E+03</pdfrwt>
<pdfrwt beam="2">0</pdfrwt>
<totfact> 0.14564257E+00</totfact>
</mgrwt>
</event>
<event>
 6    1  0.4241696E-003  0.6402337E+03  0.7818608E-02  0.9825280E-01
          1   -1    0    0  502    0  0.00000000000E+00  0.00000000000E+00  0.15648598318E+03  0.15648598318E+03  0.00000000000E+00 0.  1.
         13   -1    0    0    0    0 -0.00000000000E+00 -0.00000000000E+00 -0.10000000000E+04  0.10000000000E+04  0.00000000000E+00 0.  1.
    9000005    2    1    2  501    0  0.43923278788E+01  0.20629766888E+01 -0.89740501831E+03  0.11023769409E+04  0.64021527980E+03 0.  0.
         13    1    3    3    0    0 -0.18312571772E+02  0.81677561928E+02 -0.98109358430E+03  0.98465790789E+03  0.00000000000E+00 0.  1.
          3    1    3    3  501    0  0.22704899651E+02 -0.79614585239E+02  0.83688565994E+02  0.11771903299E+03  0.00000000000E+00 0.  1.
         21    1    1    2  502  501 -0.43923278788E+01 -0.20629766888E+01  0.53891001491E+02  0.54109042301E+02  0.00000000000E+00 0.  1.
<mgrwt>
<rscale>  1 0.64023367E+03</rscale>
<asrwt>0</asrwt>
<pdfrwt beam="1">  1        1 0.56904114E+00 0.64023367E+03</pdfrwt>
<pdfrwt beam="2">0</pdfrwt>
<totfact> 0.20946420E-01</totfact>
</mgrwt>
</event>
<event>
 6    1  0.4241696E-003  0.6370395E+03  0.7818608E-02  0.9831407E-01
          1   -1    0    0  502    0  0.00000000000E+00  0.00000000000E+00  0.10145486399E+03  0.10145486399E+03  0.00000000000E+00 0.  1.
         13   -1    0    0    0    0 -0.00000000000E+00 -0.00000000000E+00 -0.10000000000E+04  0.10000000000E+04  0.00000000000E+00 0.  1.
    9000005    2    1    2  501    0  0.56010082261E-05  0.11364461443E-05 -0.89854516602E+03  0.11014548334E+04  0.63703950798E+03 0.  0.
         13    1    3    3    0    0 -0.70839212064E+02  0.26184510537E+03 -0.73794032999E+03  0.78621688089E+03  0.00000000000E+00 0.  1.
          3    1    3    3  501    0  0.70839217665E+02 -0.26184510423E+03 -0.16060483603E+03  0.31523795255E+03  0.00000000000E+00 0.  1.
         21    1    1    2  502  501 -0.56010082206E-05 -0.11364461400E-05  0.30011424916E-04  0.30550751683E-04  0.00000000000E+00 0. -1.
<mgrwt>
<rscale>  1 0.63703951E+03</rscale>
<asrwt>0</asrwt>
<pdfrwt beam="1">  1        1 0.36892756E+00 0.63703951E+03</pdfrwt>
<pdfrwt beam="2">0</pdfrwt>
<totfact> 0.18401775E+00</totfact>
</mgrwt>
</event>
<event>
 6    1  0.4241696E-003  0.6492240E+03  0.7818608E-02  0.9808236E-01
          1   -1    0    0  502    0  0.00000000000E+00  0.00000000000E+00  0.10537294431E+03  0.10537294431E+03  0.00000000000E+00 0.  1.
         13   -1    0    0    0    0 -0.00000000000E+00 -0.00000000000E+00 -0.10000000000E+04  0.10000000000E+04  0.00000000000E+00 0.  1.
    9000005    2    1    2  501    0  0.46458677474E-05 -0.21632413016E-05 -0.89462705840E+03  0.11053729385E+04  0.64922396719E+03 0.  0.
         13    1    3    3    0    0  0.87633607261E+02  0.12386434313E+02 -0.97906091686E+03  0.98305307680E+03  0.00000000000E+00 0.  1.
          1    1    3    3  501    0 -0.87633602615E+02 -0.12386436476E+02  0.84433858460E+02  0.12231986172E+03  0.00000000000E+00 0.  1.
         21    1    1    2  502  501 -0.46458677428E-05  0.21632413029E-05  0.27115678964E-05  0.57979565776E-05  0.00000000000E+00 0.  1.
<mgrwt>
<rscale>  1 0.64922397E+03</rscale>
<asrwt>0</asrwt>
<pdfrwt beam="1">  1        1 0.38317515E+00 0.64922397E+03</pdfrwt>
<pdfrwt beam="2">0</pdfrwt>
<totfact> 0.15890677E+00</totfact>
</mgrwt>
</event>
<event>
 6    1  0.4241697E-003  0.6909541E+03  0.7818608E-02  0.9732828E-01
          1   -1    0    0  502    0  0.00000000000E+00  0.00000000000E+00  0.11935484617E+03  0.11935484617E+03  0.00000000000E+00 0.  1.
         13   -1    0    0    0    0 -0.00000000000E+00 -0.00000000000E+00 -0.10000000000E+04  0.10000000000E+04  0.00000000000E+00 0.  1.
    9000005    2    1    2  501    0  0.27019933045E-03 -0.22881473683E-04 -0.88064555850E+03  0.11193543590E+04  0.69095410948E+03 0.  0.
         13    1    3    3    0    0 -0.26807226918E+02  0.20468446589E+03 -0.88909848524E+03  0.91274885617E+03  0.00000000000E+00 0.  1.
          3    1    3    3  501    0  0.26807497117E+02 -0.20468448878E+03  0.84529267340E+01  0.20660550287E+03  0.00000000000E+00 0.  1.
         21    1    1    2  502  501 -0.27019933045E-03  0.22881473693E-04  0.40466833344E-03  0.48712185344E-03  0.00000000000E+00 0.  1.
<mgrwt>
<rscale>  1 0.69095411E+03</rscale>
<asrwt>0</asrwt>
<pdfrwt beam="1">  1        1 0.43401854E+00 0.69095411E+03</pdfrwt>
<pdfrwt beam="2">0</pdfrwt>
<totfact> 0.93267802E-01</totfact>
</mgrwt>
</event>
<event>
 6    1  0.4241696E-003  0.6588511E+03  0.7818608E-02  0.9790311E-01
          1   -1    0    0  502    0  0.00000000000E+00  0.00000000000E+00  0.10852525634E+03  0.10852525634E+03  0.00000000000E+00 0.  1.
         13   -1    0    0    0    0 -0.00000000000E+00 -0.00000000000E+00 -0.10000000000E+04  0.10000000000E+04  0.00000000000E+00 0.  1.
    9000005    2    1    2  501    0 -0.12458504307E-03 -0.37720830875E-04 -0.89147880178E+03  0.11085211961E+04  0.65885111235E+03 0.  0.
         13    1    3    3    0    0  0.86706944489E+02  0.16997051874E+03  0.60789438175E+01  0.19090580144E+03  0.00000000000E+00 0.  1.
          1    1    3    3  501    0 -0.86707069074E+02 -0.16997055646E+03 -0.89755774560E+03  0.91761539469E+03  0.00000000000E+00 0.  1.
         21    1    1    2  502  501  0.12458504306E-03  0.37720830860E-04  0.40581200025E-02  0.40602071682E-02  0.00000000000E+00 0.  1.
<mgrwt>
<rscale>  1 0.65885111E+03</rscale>
<asrwt>0</asrwt>
<pdfrwt beam="1">  1        1 0.39463813E+00 0.65885111E+03</pdfrwt>
<pdfrwt beam="2">0</pdfrwt>
<totfact> 0.14111075E+00</totfact>
</mgrwt>
</event>
<event>
 6    1  0.4241696E-003  0.6906101E+03  0.7818608E-02  0.9733426E-01
          1   -1    0    0  502    0  0.00000000000E+00  0.00000000000E+00  0.11923681746E+03  0.11923681746E+03  0.00000000000E+00 0.  1.
         13   -1    0    0    0    0 -0.00000000000E+00 -0.00000000000E+00 -0.10000000000E+04  0.10000000000E+04  0.00000000000E+00 0.  1.
    9000005    2    1    2  501    0  0.25877541709E-02 -0.20071956234E-03 -0.88076261078E+03  0.11192341597E+04  0.69061011266E+03 0.  0.
         13    1    3    3    0    0 -0.54315123636E+02 -0.13843391642E+03  0.64681795554E+02  0.16216601538E+03  0.00000000000E+00 0.  1.
          3    1    3    3  501    0  0.54317711390E+02  0.13843371570E+03 -0.94544440633E+03  0.95706814432E+03  0.00000000000E+00 0.  1.
         21    1    1    2  502  501 -0.25877541709E-02  0.20071956233E-03 -0.57176264136E-03  0.26577570450E-02  0.00000000000E+00 0.  1.
<mgrwt>
<rscale>  1 0.69061011E+03</rscale>
<asrwt>0</asrwt>
<pdfrwt beam="1">  1        1 0.43358934E+00 0.69061011E+03</pdfrwt>
<pdfrwt beam="2">0</pdfrwt>
<totfact> 0.93695040E-01</totfact>
</mgrwt>
</event>
<event>
 6    1  0.4241696E-003  0.6310589E+03  0.7818608E-02  0.9842985E-01
          1   -1    0    0  502    0  0.00000000000E+00  0.00000000000E+00  0.10548300323E+03  0.10548300323E+03  0.00000000000E+00 0.  1.
         13   -1    0    0    0    0 -0.00000000000E+00 -0.00000000000E+00 -0.10000000000E+04  0.10000000000E+04  0.00000000000E+00 0.  1.
    9000005    2    1    2  501    0  0.18121208941E+01  0.99507512102E+00 -0.90024224647E+03  0.10993959316E+04  0.63105549532E+03 0.  0.
         13    1    3    3    0    0  0.21696416501E+03 -0.76547619350E+02 -0.73382241387E+02  0.24149107701E+03  0.00000000000E+00 0.  1.
          3    1    3    3  501    0 -0.21515204411E+03  0.77542694471E+02 -0.82686000509E+03  0.85790485461E+03  0.00000000000E+00 0.  1.
         21    1    1    2  502  501 -0.18121208941E+01 -0.99507512102E+00  0.57252496990E+01  0.60870716068E+01  0.00000000000E+00 0. -1.
<mgrwt>
<rscale>  1 0.63105888E+03</rscale>
<asrwt>0</asrwt>
<pdfrwt beam="1">  1        1 0.38357537E+00 0.63105888E+03</pdfrwt>
<pdfrwt beam="2">0</pdfrwt>
<totfact> 0.15879859E+00</totfact>
</mgrwt>
</event>
<event>
 6    1  0.4241696E-003  0.6471739E+03  0.7818608E-02  0.9812097E-01
          1   -1    0    0  502    0  0.00000000000E+00  0.00000000000E+00  0.11076393571E+03  0.11076393571E+03  0.00000000000E+00 0.  1.
         13   -1    0    0    0    0 -0.00000000000E+00 -0.00000000000E+00 -0.10000000000E+04  0.10000000000E+04  0.00000000000E+00 0.  1.
    9000005    2    1    2  501    0  0.93295273092E-01 -0.21217230677E+00 -0.89528903332E+03  0.11047065307E+04  0.64717386544E+03 0.  0.
         13    1    3    3    0    0  0.44609505427E+02 -0.25990787794E+03 -0.12739839346E+03  0.29286936277E+03  0.00000000000E+00 0.  1.
          3    1    3    3  501    0 -0.44516210154E+02  0.25969570563E+03 -0.76789063986E+03  0.81183716796E+03  0.00000000000E+00 0.  1.
         21    1    1    2  502  501 -0.93295273092E-01  0.21217230677E+00  0.60529690299E+01  0.60574049866E+01  0.00000000000E+00 0.  1.
<mgrwt>
<rscale>  1 0.64717391E+03</rscale>
<asrwt>0</asrwt>
<pdfrwt beam="1">  1        1 0.40277880E+00 0.64717391E+03</pdfrwt>
<pdfrwt beam="2">0</pdfrwt>
<totfact> 0.13009329E+00</totfact>
</mgrwt>
</event>
<event>
 6    1  0.4241696E-003  0.4721197E+03  0.7818608E-02  0.1021324E+00
          1   -1    0    0  502    0  0.00000000000E+00  0.00000000000E+00  0.55724665226E+02  0.55724665226E+02  0.00000000000E+00 0.  1.
         13   -1    0    0    0    0 -0.00000000000E+00 -0.00000000000E+00 -0.10000000000E+04  0.10000000000E+04  0.00000000000E+00 0.  1.
    9000005    2    1    2  501    0  0.76147669503E-06 -0.72181772623E-04 -0.94427574445E+03  0.10557242492E+04  0.47211969761E+03 0.  0.
         13    1    3    3    0    0  0.89849695749E+01  0.21925742666E+03 -0.66669054648E+03  0.70187665126E+03  0.00000000000E+00 0.  1.
          1    1    3    3  501    0 -0.89849688134E+01 -0.21925749884E+03 -0.27758519797E+03  0.35384759798E+03  0.00000000000E+00 0.  1.
         21    1    1    2  502  501 -0.76147669349E-06  0.72181772615E-04  0.40967630303E-03  0.41598733323E-03  0.00000000000E+00 0.  1.
<mgrwt>
<rscale>  1 0.47211970E+03</rscale>
<asrwt>0</asrwt>
<pdfrwt beam="1">  1        1 0.20263557E+00 0.47211970E+03</pdfrwt>
<pdfrwt beam="2">0</pdfrwt>
<totfact> 0.10045979E+01</totfact>
</mgrwt>
</event>
<event>
 6    1  0.4241696E-003  0.6461163E+03  0.7818608E-02  0.9814094E-01
          1   -1    0    0  502    0  0.00000000000E+00  0.00000000000E+00  0.12045848109E+03  0.12045848109E+03  0.00000000000E+00 0.  1.
         13   -1    0    0    0    0 -0.00000000000E+00 -0.00000000000E+00 -0.10000000000E+04  0.10000000000E+04  0.00000000000E+00 0.  1.
    9000005    2    1    2  501    0 -0.27137130644E+00  0.19245146385E+00 -0.89563152393E+03  0.11043650370E+04  0.64611624162E+03 0.  0.
         13    1    3    3    0    0  0.11519252074E+03  0.22561578851E+03 -0.79057173677E+03  0.83016593030E+03  0.00000000000E+00 0.  1.
          3    1    3    3  501    0 -0.11546389204E+03 -0.22542333705E+03 -0.10505978717E+03  0.27419910673E+03  0.00000000000E+00 0.  1.
         21    1    1    2  502  501  0.27137130644E+00 -0.19245146385E+00  0.16090005026E+02  0.16093444059E+02  0.00000000000E+00 0. -1.
<mgrwt>
<rscale>  1 0.64611633E+03</rscale>
<asrwt>0</asrwt>
<pdfrwt beam="1">  1        1 0.43803176E+00 0.64611633E+03</pdfrwt>
<pdfrwt beam="2">0</pdfrwt>
<totfact> 0.90218523E-01</totfact>
</mgrwt>
</event>
<event>
 6    1  0.4241696E-003  0.6309708E+03  0.7818608E-02  0.9843156E-01
          1   -1    0    0  502    0  0.00000000000E+00  0.00000000000E+00  0.10265276363E+03  0.10265276363E+03  0.00000000000E+00 0.  1.
         13   -1    0    0    0    0 -0.00000000000E+00 -0.00000000000E+00 -0.10000000000E+04  0.10000000000E+04  0.00000000000E+00 0.  1.
    9000005    2    1    2  501    0  0.12399688764E+01  0.74485999886E+01 -0.89435686425E+03  0.10945310957E+04  0.63092558962E+03 0.  0.
         13    1    3    3    0    0 -0.15473389219E+03 -0.25198152503E+03 -0.61600010607E+03  0.68329598055E+03  0.00000000000E+00 0.  1.
          1    1    3    3  501    0  0.15597386106E+03  0.25943012502E+03 -0.27835675818E+03  0.41123511514E+03  0.00000000000E+00 0.  1.
         21    1    1    2  502  501 -0.12399688764E+01 -0.74485999886E+01 -0.29903721223E+01  0.81216679343E+01  0.00000000000E+00 0.  1.
<mgrwt>
<rscale>  1 0.63097077E+03</rscale>
<asrwt>0</asrwt>
<pdfrwt beam="1">  1        1 0.37328356E+00 0.63097077E+03</pdfrwt>
<pdfrwt beam="2">0</pdfrwt>
<totfact> 0.17628142E+00</totfact>
</mgrwt>
</event>
<event>
 6    1  0.4241696E-003  0.6471780E+03  0.7818608E-02  0.9812089E-01
          1   -1    0    0  502    0  0.00000000000E+00  0.00000000000E+00  0.10471065670E+03  0.10471065670E+03  0.00000000000E+00 0.  1.
         13   -1    0    0    0    0 -0.00000000000E+00 -0.00000000000E+00 -0.10000000000E+04  0.10000000000E+04  0.00000000000E+00 0.  1.
    9000005    2    1    2  501    0 -0.28736586728E-04 -0.17652608904E-05 -0.89529016370E+03  0.11047098358E+04  0.64717798485E+03 0.  0.
         13    1    3    3    0    0  0.18444595194E+03 -0.18288040232E+03 -0.11822179762E+03  0.28538035002E+03  0.00000000000E+00 0.  1.
          3    1    3    3  501    0 -0.18444598068E+03  0.18288040056E+03 -0.77706836608E+03  0.81932948578E+03  0.00000000000E+00 0.  1.
         21    1    1    2  502  501  0.28736586716E-04  0.17652608959E-05  0.82040009004E-03  0.82090511955E-03  0.00000000000E+00 0.  1.
<mgrwt>
<rscale>  1 0.64717798E+03</rscale>
<asrwt>0</asrwt>
<pdfrwt beam="1">  1        1 0.38076683E+00 0.64717798E+03</pdfrwt>
<pdfrwt beam="2">0</pdfrwt>
<totfact> 0.16290801E+00</totfact>
</mgrwt>
</event>
<event>
 6    1  0.4241696E-003  0.6270972E+03  0.7818608E-02  0.9850730E-01
          1   -1    0    0  502    0  0.00000000000E+00  0.00000000000E+00  0.98325194933E+02  0.98325194933E+02  0.00000000000E+00 0.  1.
         13   -1    0    0    0    0 -0.00000000000E+00 -0.00000000000E+00 -0.10000000000E+04  0.10000000000E+04  0.00000000000E+00 0.  1.
    9000005    2    1    2  501    0  0.27725926082E-02  0.67322647982E-03 -0.90168710048E+03  0.10983125728E+04  0.62709718582E+03 0.  0.
         13    1    3    3    0    0  0.16100982440E+02 -0.27877210066E+03 -0.70062498152E+03  0.75422045217E+03  0.00000000000E+00 0.  1.
          1    1    3    3  501    0 -0.16098209848E+02  0.27877277388E+03 -0.20106211895E+03  0.34409212066E+03  0.00000000000E+00 0.  1.
         21    1    1    2  502  501 -0.27725926082E-02 -0.67322647983E-03  0.12295408019E-01  0.12622106085E-01  0.00000000000E+00 0. -1.
<mgrwt>
<rscale>  1 0.62709719E+03</rscale>
<asrwt>0</asrwt>
<pdfrwt beam="1">  1        1 0.35754692E+00 0.62709719E+03</pdfrwt>
<pdfrwt beam="2">0</pdfrwt>
<totfact> 0.20676655E+00</totfact>
</mgrwt>
</event>
<event>
 6    1  0.4241696E-003  0.6396743E+03  0.7818608E-02  0.9826350E-01
          1   -1    0    0  502    0  0.00000000000E+00  0.00000000000E+00  0.10384015162E+03  0.10384015162E+03  0.00000000000E+00 0.  1.
         13   -1    0    0    0    0 -0.00000000000E+00 -0.00000000000E+00 -0.10000000000E+04  0.10000000000E+04  0.00000000000E+00 0.  1.
    9000005    2    1    2  501    0  0.22339964208E+00 -0.59417323072E+00 -0.89763198083E+03  0.11022369912E+04  0.63967398642E+03 0.  0.
         13    1    3    3    0    0 -0.10414706841E+03  0.25501963258E+03 -0.72755268663E+03  0.77795535649E+03  0.00000000000E+00 0.  1.
          3    1    3    3  501    0  0.10437046805E+03 -0.25561380581E+03 -0.17007929420E+03  0.32428163475E+03  0.00000000000E+00 0.  1.
         21    1    1    2  502  501 -0.22339964208E+00  0.59417323072E+00  0.14721324494E+01  0.16031603716E+01  0.00000000000E+00 0.  1.
<mgrwt>
<rscale>  1 0.63967430E+03</rscale>
<asrwt>0</asrwt>
<pdfrwt beam="1">  1        1 0.37760135E+00 0.63967430E+03</pdfrwt>
<pdfrwt beam="2">0</pdfrwt>
<totfact> 0.16846239E+00</totfact>
</mgrwt>
</event>
<event>
 6    1  0.4241696E-003  0.6479359E+03  0.7818608E-02  0.9810660E-01
          1   -1    0    0  502    0  0.00000000000E+00  0.00000000000E+00  0.10742211214E+03  0.10742211214E+03  0.00000000000E+00 0.  1.
         13   -1    0    0    0    0 -0.00000000000E+00 -0.00000000000E+00 -0.10000000000E+04  0.10000000000E+04  0.00000000000E+00 0.  1.
    9000005    2    1    2  501    0 -0.21854860131E+01  0.10227622497E+01 -0.89437546857E+03  0.11044131774E+04  0.64793145107E+03 0.  0.
         13    1    3    3    0    0  0.30387836190E+03 -0.35097971372E+02 -0.62183767204E+03  0.69300506261E+03  0.00000000000E+00 0.  1.
          3    1    3    3  501    0 -0.30606384792E+03  0.36120733622E+02 -0.27253779653E+03  0.41140811481E+03  0.00000000000E+00 0.  1.
         21    1    1    2  502  501  0.21854860131E+01 -0.10227622497E+01  0.17975807113E+01  0.30089347195E+01  0.00000000000E+00 0. -1.
<mgrwt>
<rscale>  1 0.64793594E+03</rscale>
<asrwt>0</asrwt>
<pdfrwt beam="1">  1        1 0.39062669E+00 0.64793594E+03</pdfrwt>
<pdfrwt beam="2">0</pdfrwt>
<totfact> 0.14731876E+00</totfact>
</mgrwt>
</event>
<event>
 6    1  0.7806258E-003  0.6685255E+03  0.7818608E-02  0.9772625E-01
          1   -1    0    0  502    0  0.00000000000E+00  0.00000000000E+00  0.11173160514E+03  0.11173160514E+03  0.00000000000E+00 0.  1.
         13   -1    0    0    0    0 -0.00000000000E+00 -0.00000000000E+00 -0.10000000000E+04  0.10000000000E+04  0.00000000000E+00 0.  1.
    9000005    2    1    2  501    0 -0.18149353821E-04  0.16062093216E-04 -0.88826840679E+03  0.11117315781E+04  0.66852549637E+03 0.  0.
         13    1    3    3    0    0  0.27399872385E+03 -0.30484746095E+02 -0.75845996540E+03  0.80701061921E+03  0.00000000000E+00 0.  1.
          1    1    3    3  501    0 -0.27399874200E+03  0.30484762157E+02 -0.12980844140E+03  0.30472095891E+03  0.00000000000E+00 0.  1.
         21    1    1    2  502  501  0.18149353824E-04 -0.16062093216E-04  0.11931049719E-04  0.27013697083E-04  0.00000000000E+00 0. -1.
<mgrwt>
<rscale>  1 0.66852550E+03</rscale>
<asrwt>0</asrwt>
<pdfrwt beam="1">  1        1 0.40629760E+00 0.66852550E+03</pdfrwt>
<pdfrwt beam="2">0</pdfrwt>
<totfact> 0.12495826E+00</totfact>
</mgrwt>
</event>
<event>
 6    1  0.4241696E-003  0.6475797E+03  0.7818608E-02  0.9811331E-01
          1   -1    0    0  502    0  0.00000000000E+00  0.00000000000E+00  0.10656274052E+03  0.10656274052E+03  0.00000000000E+00 0.  1.
         13   -1    0    0    0    0 -0.00000000000E+00 -0.00000000000E+00 -0.10000000000E+04  0.10000000000E+04  0.00000000000E+00 0.  1.
    9000005    2    1    2  501    0 -0.35148885182E+01 -0.38795767769E+01 -0.88757486309E+03  0.10987031445E+04  0.64755853535E+03 0.  0.
         13    1    3    3    0    0 -0.18498420631E+02 -0.18188800113E+03 -0.90118900769E+03  0.91954720603E+03  0.00000000000E+00 0.  1.
          1    1    3    3  501    0  0.14983532112E+02  0.17800842435E+03  0.13614144607E+02  0.17915593852E+03  0.00000000000E+00 0.  1.
         21    1    1    2  502  501  0.35148885182E+01  0.38795767769E+01 -0.58623963955E+01  0.78595959668E+01  0.00000000000E+00 0. -1.
<mgrwt>
<rscale>  1 0.64757970E+03</rscale>
<asrwt>0</asrwt>
<pdfrwt beam="1">  1        1 0.38750169E+00 0.64757970E+03</pdfrwt>
<pdfrwt beam="2">0</pdfrwt>
<totfact> 0.15210226E+00</totfact>
</mgrwt>
</event>
<event>
 6    1  0.4241696E-003  0.6547369E+03  0.7818608E-02  0.9797931E-01
          1   -1    0    0  502    0  0.00000000000E+00  0.00000000000E+00  0.10717543594E+03  0.10717543594E+03  0.00000000000E+00 0.  1.
         13   -1    0    0    0    0 -0.00000000000E+00 -0.00000000000E+00 -0.10000000000E+04  0.10000000000E+04  0.00000000000E+00 0.  1.
    9000005    2    1    2  501    0 -0.86614926022E-03  0.23230774272E-02 -0.89282957803E+03  0.11071698425E+04  0.65473689730E+03 0.  0.
         13    1    3    3    0    0 -0.74317003627E+02 -0.31046092878E+03 -0.32376599845E+03  0.45467947731E+03  0.00000000000E+00 0.  1.
          1    1    3    3  501    0  0.74316137478E+02  0.31046325186E+03 -0.56906357958E+03  0.65249036517E+03  0.00000000000E+00 0.  1.
         21    1    1    2  502  501  0.86614926020E-03 -0.23230774272E-02  0.50139719340E-02  0.55934620611E-02  0.00000000000E+00 0. -1.
<mgrwt>
<rscale>  1 0.65473690E+03</rscale>
<asrwt>0</asrwt>
<pdfrwt beam="1">  1        1 0.38972968E+00 0.65473690E+03</pdfrwt>
<pdfrwt beam="2">0</pdfrwt>
<totfact> 0.14848603E+00</totfact>
</mgrwt>
</event>
<event>
 6    1  0.4241696E-003  0.6541764E+03  0.7818608E-02  0.9798974E-01
          1   -1    0    0  502    0  0.00000000000E+00  0.00000000000E+00  0.10698670591E+03  0.10698670591E+03  0.00000000000E+00 0.  1.
         13   -1    0    0    0    0 -0.00000000000E+00 -0.00000000000E+00 -0.10000000000E+04  0.10000000000E+04  0.00000000000E+00 0.  1.
    9000005    2    1    2  501    0 -0.52173501217E-05  0.31125328928E-05 -0.89301329491E+03  0.11069866998E+04  0.65417643537E+03 0.  0.
         13    1    3    3    0    0  0.19074425480E+03 -0.90918616538E+01 -0.89587834385E+03  0.91600438845E+03  0.00000000000E+00 0.  1.
          1    1    3    3  501    0 -0.19074426001E+03  0.90918647663E+01  0.28650489386E+01  0.19098231132E+03  0.00000000000E+00 0.  1.
         21    1    1    2  502  501  0.52173501211E-05 -0.31125328930E-05  0.82092617619E-06  0.61304586356E-05  0.00000000000E+00 0.  1.
<mgrwt>
<rscale>  1 0.65417644E+03</rscale>
<asrwt>0</asrwt>
<pdfrwt beam="1">  1        1 0.38904339E+00 0.65417644E+03</pdfrwt>
<pdfrwt beam="2">0</pdfrwt>
<totfact> 0.14954547E+00</totfact>
</mgrwt>
</event>
<event>
 6    1  0.4241696E-003  0.6480421E+03  0.7818608E-02  0.9810460E-01
          1   -1    0    0  502    0  0.00000000000E+00  0.00000000000E+00  0.10498965971E+03  0.10498965971E+03  0.00000000000E+00 0.  1.
         13   -1    0    0    0    0 -0.00000000000E+00 -0.00000000000E+00 -0.10000000000E+04  0.10000000000E+04  0.00000000000E+00 0.  1.
    9000005    2    1    2  501    0  0.35301600732E-05 -0.10151861716E-05 -0.89501034307E+03  0.11049896551E+04  0.64804214653E+03 0.  0.
         13    1    3    3    0    0 -0.28085928078E+01  0.26994078349E+03 -0.75306792064E+03  0.79999200488E+03  0.00000000000E+00 0.  1.
          1    1    3    3  501    0  0.28085963379E+01 -0.26994078451E+03 -0.14194242244E+03  0.30499765022E+03  0.00000000000E+00 0.  1.
         21    1    1    2  502  501 -0.35301600733E-05  0.10151862166E-05  0.27814738363E-05  0.46075188442E-05  0.00000000000E+00 0.  1.
<mgrwt>
<rscale>  1 0.64804215E+03</rscale>
<asrwt>0</asrwt>
<pdfrwt beam="1">  1        1 0.38178139E+00 0.64804215E+03</pdfrwt>
<pdfrwt beam="2">0</pdfrwt>
<totfact> 0.16121079E+00</totfact>
</mgrwt>
</event>
<event>
 6    1  0.4241696E-003  0.6572546E+03  0.7818608E-02  0.9793261E-01
          1   -1    0    0  502    0  0.00000000000E+00  0.00000000000E+00  0.10799592444E+03  0.10799592444E+03  0.00000000000E+00 0.  1.
         13   -1    0    0    0    0 -0.00000000000E+00 -0.00000000000E+00 -0.10000000000E+04  0.10000000000E+04  0.00000000000E+00 0.  1.
    9000005    2    1    2  501    0  0.50150629249E-06 -0.52386042455E-05 -0.89200408346E+03  0.11079959149E+04  0.65725464063E+03 0.  0.
         13    1    3    3    0    0  0.17018613251E+03 -0.21189259056E+03 -0.75745962030E+03  0.80474024754E+03  0.00000000000E+00 0.  1.
          1    1    3    3  501    0 -0.17018613201E+03  0.21189258533E+03 -0.13454446316E+03  0.30325566740E+03  0.00000000000E+00 0.  1.
         21    1    1    2  502  501 -0.50150629482E-06  0.52386042322E-05  0.78937941063E-05  0.94871738815E-05  0.00000000000E+00 0.  1.
<mgrwt>
<rscale>  1 0.65725464E+03</rscale>
<asrwt>0</asrwt>
<pdfrwt beam="1">  1        1 0.39271328E+00 0.65725464E+03</pdfrwt>
<pdfrwt beam="2">0</pdfrwt>
<totfact> 0.14396016E+00</totfact>
</mgrwt>
</event>
<event>
 6    1  0.4241696E-003  0.6367162E+03  0.7818608E-02  0.9832030E-01
          1   -1    0    0  502    0  0.00000000000E+00  0.00000000000E+00  0.10162082218E+03  0.10162082218E+03  0.00000000000E+00 0.  1.
         13   -1    0    0    0    0 -0.00000000000E+00 -0.00000000000E+00 -0.10000000000E+04  0.10000000000E+04  0.00000000000E+00 0.  1.
    9000005    2    1    2  501    0 -0.25005120310E-01  0.84237953776E-01 -0.89864020321E+03  0.11013454033E+04  0.63671616508E+03 0.  0.
         13    1    3    3    0    0  0.14495766114E+03  0.18050452899E+03 -0.82739642925E+03  0.85917370749E+03  0.00000000000E+00 0.  1.
          1    1    3    3  501    0 -0.14498266626E+03 -0.18042029104E+03 -0.71243773964E+02  0.24217169584E+03  0.00000000000E+00 0.  1.
         21    1    1    2  502  501  0.25005120310E-01 -0.84237953776E-01  0.26102539550E+00  0.27541885555E+00  0.00000000000E+00 0.  1.
<mgrwt>
<rscale>  1 0.63671617E+03</rscale>
<asrwt>0</asrwt>
<pdfrwt beam="1">  1        1 0.36953104E+00 0.63671617E+03</pdfrwt>
<pdfrwt beam="2">0</pdfrwt>
<totfact> 0.18290931E+00</totfact>
</mgrwt>
</event>
<event>
 6    1  0.4241696E-003  0.6461261E+03  0.7818608E-02  0.9814076E-01
          1   -1    0    0  502    0  0.00000000000E+00  0.00000000000E+00  0.10437567892E+03  0.10437567892E+03  0.00000000000E+00 0.  1.
         13   -1    0    0    0    0 -0.00000000000E+00 -0.00000000000E+00 -0.10000000000E+04  0.10000000000E+04  0.00000000000E+00 0.  1.
    9000005    2    1    2  501    0  0.15695996996E-03 -0.18849302816E-03 -0.89563027462E+03  0.11043697203E+04  0.64612606383E+03 0.  0.
         13    1    3    3    0    0  0.25034103479E+03  0.13650133909E+02 -0.99567528679E+02  0.26976036147E+03  0.00000000000E+00 0.  1.
          3    1    3    3  501    0 -0.25034087783E+03 -0.13650322402E+02 -0.79606274594E+03  0.83460935886E+03  0.00000000000E+00 0.  1.
         21    1    1    2  502  501 -0.15695996994E-03  0.18849302816E-03  0.59535436558E-02  0.59585944748E-02  0.00000000000E+00 0.  1.
<mgrwt>
<rscale>  1 0.64612606E+03</rscale>
<asrwt>0</asrwt>
<pdfrwt beam="1">  1        1 0.37954872E+00 0.64612606E+03</pdfrwt>
<pdfrwt beam="2">0</pdfrwt>
<totfact> 0.16496865E+00</totfact>
</mgrwt>
</event>
<event>
 6    1  0.4241696E-003  0.6518411E+03  0.7818608E-02  0.9803331E-01
          1   -1    0    0  502    0  0.00000000000E+00  0.00000000000E+00  0.10622425308E+03  0.10622425308E+03  0.00000000000E+00 0.  1.
         13   -1    0    0    0    0 -0.00000000000E+00 -0.00000000000E+00 -0.10000000000E+04  0.10000000000E+04  0.00000000000E+00 0.  1.
    9000005    2    1    2  501    0  0.93388747075E-04  0.54507698747E-04 -0.89377572267E+03  0.11062241423E+04  0.65184109298E+03 0.  0.
         13    1    3    3    0    0 -0.31275576644E+03 -0.91569805916E+01 -0.60172361533E+03  0.67821186143E+03  0.00000000000E+00 0.  1.
          3    1    3    3  501    0  0.31275585982E+03  0.91570350993E+01 -0.29205210734E+03  0.42801228084E+03  0.00000000000E+00 0.  1.
         21    1    1    2  502  501 -0.93388747101E-04 -0.54507698748E-04 -0.24249313913E-04  0.11081776271E-03  0.00000000000E+00 0. -1.
<mgrwt>
<rscale>  1 0.65184109E+03</rscale>
<asrwt>0</asrwt>
<pdfrwt beam="1">  1        1 0.38627083E+00 0.65184109E+03</pdfrwt>
<pdfrwt beam="2">0</pdfrwt>
<totfact> 0.15390104E+00</totfact>
</mgrwt>
</event>
<event>
 6    1  0.4241696E-003  0.6499507E+03  0.7818608E-02  0.9806872E-01
          1   -1    0    0  502    0  0.00000000000E+00  0.00000000000E+00  0.10560901855E+03  0.10560901855E+03  0.00000000000E+00 0.  1.
         13   -1    0    0    0    0 -0.00000000000E+00 -0.00000000000E+00 -0.10000000000E+04  0.10000000000E+04  0.00000000000E+00 0.  1.
    9000005    2    1    2  501    0 -0.21248557118E-05 -0.43175020892E-07 -0.89439101315E+03  0.11056089868E+04  0.64995072679E+03 0.  0.
         13    1    3    3    0    0 -0.26663801907E+03  0.17876808975E+03 -0.53318138728E+03  0.62236344275E+03  0.00000000000E+00 0.  1.
          1    1    3    3  501    0  0.26663801695E+03 -0.17876808979E+03 -0.36120962586E+03  0.48324554403E+03  0.00000000000E+00 0.  1.
         21    1    1    2  502  501  0.21248557019E-05  0.43175046241E-07  0.31699830915E-04  0.31770995513E-04  0.00000000000E+00 0. -1.
<mgrwt>
<rscale>  1 0.64995073E+03</rscale>
<asrwt>0</asrwt>
<pdfrwt beam="1">  1        1 0.38403360E+00 0.64995073E+03</pdfrwt>
<pdfrwt beam="2">0</pdfrwt>
<totfact> 0.15750333E+00</totfact>
</mgrwt>
</event>
<event>
 6    1  0.4241696E-003  0.6575633E+03  0.7818608E-02  0.9792690E-01
          1   -1    0    0  502    0  0.00000000000E+00  0.00000000000E+00  0.10810644354E+03  0.10810644354E+03  0.00000000000E+00 0.  1.
         13   -1    0    0    0    0 -0.00000000000E+00 -0.00000000000E+00 -0.10000000000E+04  0.10000000000E+04  0.00000000000E+00 0.  1.
    9000005    2    1    2  501    0 -0.94462834267E-03 -0.40863482378E-03 -0.89190260226E+03  0.11080973394E+04  0.65756327573E+03 0.  0.
         13    1    3    3    0    0 -0.17669260547E+03 -0.10007560979E+03 -0.88169490255E+03  0.90477693698E+03  0.00000000000E+00 0.  1.
          3    1    3    3  501    0  0.17669166084E+03  0.10007520116E+03 -0.10207699715E+02  0.20332040240E+03  0.00000000000E+00 0.  1.
         21    1    1    2  502  501  0.94462834266E-03  0.40863482378E-03  0.90458006929E-02  0.91041647229E-02  0.00000000000E+00 0. -1.
<mgrwt>
<rscale>  1 0.65756328E+03</rscale>
<asrwt>0</asrwt>
<pdfrwt beam="1">  1        1 0.39311517E+00 0.65756328E+03</pdfrwt>
<pdfrwt beam="2">0</pdfrwt>
<totfact> 0.14336143E+00</totfact>
</mgrwt>
</event>
