<event>
 6    1  0.2341564E-003  0.6504063E+03  0.7818608E-02  0.9806017E-01
          1   -1    0    0  502    0  0.00000000000E+00  0.00000000000E+00  0.10765668288E+03  0.10765668288E+03  0.00000000000E+00 0.  1.
         13   -1    0    0    0    0 -0.00000000000E+00 -0.00000000000E+00 -0.10000000000E+04  0.10000000000E+04  0.00000000000E+00 0.  1.
    9000005    2    1    2  501    0  0.99931523622E-01 -0.76122201387E+00 -0.89415675916E+03  0.11056874147E+04  0.65040584218E+03 0.  0.
         13    1    3    3    0    0  0.71109866231E+02 -0.19089924878E+03 -0.87884422852E+03  0.90214539531E+03  0.00000000000E+00 0.  1.
          3    1    3    3  501    0 -0.71009934708E+02  0.19013802677E+03 -0.15312530640E+02  0.20354201936E+03  0.00000000000E+00 0.  1.
         21    1    1    2  502  501 -0.99931523622E-01  0.76122201387E+00  0.18134420449E+01  0.19692682179E+01  0.00000000000E+00 0. -1.
<mgrwt>
<rscale>  1 0.65040630E+03</rscale>
<asrwt>0</asrwt>
<pdfrwt beam="1">  1        1 0.39147967E+00 0.65040630E+03</pdfrwt>
<pdfrwt beam="2">0</pdfrwt>
<totfact> 0.14597321E+00</totfact>
</mgrwt>
</event>
<event>
 6    1  0.2341564E-003  0.6553304E+03  0.7818608E-02  0.9796828E-01
          1   -1    0    0  502    0  0.00000000000E+00  0.00000000000E+00  0.10737524411E+03  0.10737524411E+03  0.00000000000E+00 0.  1.
         13   -1    0    0    0    0 -0.00000000000E+00 -0.00000000000E+00 -0.10000000000E+04  0.10000000000E+04  0.00000000000E+00 0.  1.
    9000005    2    1    2  501    0 -0.81298113782E-02  0.15821016840E-02 -0.89263373094E+03  0.11073630315E+04  0.65533037911E+03 0.  0.
         13    1    3    3    0    0 -0.32543456199E+03  0.37770155965E+02 -0.43662382283E+03  0.54587049882E+03  0.00000000000E+00 0.  1.
          1    1    3    3  501    0  0.32542643218E+03 -0.37768573864E+02 -0.45600990812E+03  0.56149253266E+03  0.00000000000E+00 0.  1.
         21    1    1    2  502  501  0.81298113783E-02 -0.15821016840E-02  0.89750513494E-02  0.12212633848E-01  0.00000000000E+00 0.  1.
<mgrwt>
<rscale>  1 0.65533038E+03</rscale>
<asrwt>0</asrwt>
<pdfrwt beam="1">  1        1 0.39045626E+00 0.65533038E+03</pdfrwt>
<pdfrwt beam="2">0</pdfrwt>
<totfact> 0.14737215E+00</totfact>
</mgrwt>
</event>
<event>
 6    1  0.2341564E-003  0.6483399E+03  0.7818608E-02  0.9809899E-01
          1   -1    0    0  502    0  0.00000000000E+00  0.00000000000E+00  0.10508678250E+03  0.10508678250E+03  0.00000000000E+00 0.  1.
         13   -1    0    0    0    0 -0.00000000000E+00 -0.00000000000E+00 -0.10000000000E+04  0.10000000000E+04  0.00000000000E+00 0.  1.
    9000005    2    1    2  501    0 -0.31019511766E-04 -0.32873113156E-05 -0.89491385029E+03  0.11050861489E+04  0.64833987779E+03 0.  0.
         13    1    3    3    0    0 -0.28906874093E+03  0.12690108883E+03 -0.57296006081E+03  0.65417723486E+03  0.00000000000E+00 0.  1.
          1    1    3    3  501    0  0.28906870991E+03 -0.12690109211E+03 -0.32195378949E+03  0.45090891408E+03  0.00000000000E+00 0.  1.
         21    1    1    2  502  501  0.31019511758E-04  0.32873113161E-05  0.63278965877E-03  0.63355802320E-03  0.00000000000E+00 0.  1.
<mgrwt>
<rscale>  1 0.64833988E+03</rscale>
<asrwt>0</asrwt>
<pdfrwt beam="1">  1        1 0.38213456E+00 0.64833988E+03</pdfrwt>
<pdfrwt beam="2">0</pdfrwt>
<totfact> 0.16062403E+00</totfact>
</mgrwt>
</event>
<event>
 6    1  0.2341564E-003  0.6529687E+03  0.7818608E-02  0.9801225E-01
          1   -1    0    0  502    0  0.00000000000E+00  0.00000000000E+00  0.10924314231E+03  0.10924314231E+03  0.00000000000E+00 0.  1.
         13   -1    0    0    0    0 -0.00000000000E+00 -0.00000000000E+00 -0.10000000000E+04  0.10000000000E+04  0.00000000000E+00 0.  1.
    9000005    2    1    2  501    0  0.38910235014E-01  0.85740584730E-02 -0.89340781263E+03  0.11065918880E+04  0.65296867096E+03 0.  0.
         13    1    3    3    0    0  0.30795953449E+03  0.49207131335E+02 -0.28291184134E+03  0.42106950332E+03  0.00000000000E+00 0.  1.
          3    1    3    3  501    0 -0.30792062426E+03 -0.49198557277E+02 -0.61049597129E+03  0.68552238464E+03  0.00000000000E+00 0.  1.
         21    1    1    2  502  501 -0.38910235014E-01 -0.85740584730E-02  0.26509549424E+01  0.26512543499E+01  0.00000000000E+00 0.  1.
<mgrwt>
<rscale>  1 0.65296867E+03</rscale>
<asrwt>0</asrwt>
<pdfrwt beam="1">  1        1 0.39724863E+00 0.65296867E+03</pdfrwt>
<pdfrwt beam="2">0</pdfrwt>
<totfact> 0.13753897E+00</totfact>
</mgrwt>
</event>
<event>
 6    1  0.2341564E-003  0.6446543E+03  0.7818608E-02  0.9816862E-01
          1   -1    0    0  502    0  0.00000000000E+00  0.00000000000E+00  0.10417400117E+03  0.10417400117E+03  0.00000000000E+00 0.  1.
         13   -1    0    0    0    0 -0.00000000000E+00 -0.00000000000E+00 -0.10000000000E+04  0.10000000000E+04  0.00000000000E+00 0.  1.
    9000005    2    1    2  501    0  0.55773956690E+00 -0.47124485595E+00 -0.89541966119E+03  0.11033383844E+04  0.64465392859E+03 0.  0.
         13    1    3    3    0    0 -0.16871273589E+03  0.92622869074E+02 -0.53436950576E+01  0.19253970552E+03  0.00000000000E+00 0.  1.
          3    1    3    3  501    0  0.16927047545E+03 -0.93094113930E+02 -0.89007596614E+03  0.91079867885E+03  0.00000000000E+00 0.  1.
         21    1    1    2  502  501 -0.55773956690E+00  0.47124485595E+00 -0.40633764023E+00  0.83561678814E+00  0.00000000000E+00 0.  1.
<mgrwt>
<rscale>  1 0.64465434E+03</rscale>
<asrwt>0</asrwt>
<pdfrwt beam="1">  1        1 0.37881535E+00 0.64465434E+03</pdfrwt>
<pdfrwt beam="2">0</pdfrwt>
<totfact> 0.16624682E+00</totfact>
</mgrwt>
</event>
<event>
 6    1  0.2341564E-003  0.6625681E+03  0.7818608E-02  0.9783478E-01
          1   -1    0    0  502    0  0.00000000000E+00  0.00000000000E+00  0.10974921836E+03  0.10974921836E+03  0.00000000000E+00 0.  1.
         13   -1    0    0    0    0 -0.00000000000E+00 -0.00000000000E+00 -0.10000000000E+04  0.10000000000E+04  0.00000000000E+00 0.  1.
    9000005    2    1    2  501    0  0.12697061067E-03  0.86851494927E-04 -0.89025077589E+03  0.11097490644E+04  0.66256814140E+03 0.  0.
         13    1    3    3    0    0 -0.14777151795E+02 -0.32055217230E+03 -0.58300951617E+03  0.66548640507E+03  0.00000000000E+00 0.  1.
          1    1    3    3  501    0  0.14777278766E+02  0.32055225916E+03 -0.30724125972E+03  0.44426265935E+03  0.00000000000E+00 0.  1.
         21    1    1    2  502  501 -0.12697061067E-03 -0.86851494960E-04 -0.57563974977E-05  0.15394107400E-03  0.00000000000E+00 0.  1.
<mgrwt>
<rscale>  1 0.66256814E+03</rscale>
<asrwt>0</asrwt>
<pdfrwt beam="1">  1        1 0.39908891E+00 0.66256814E+03</pdfrwt>
<pdfrwt beam="2">0</pdfrwt>
<totfact> 0.13472450E+00</totfact>
</mgrwt>
</event>
<event>
 6    1  0.2341564E-003  0.6504788E+03  0.7818608E-02  0.9805881E-01
          1   -1    0    0  502    0  0.00000000000E+00  0.00000000000E+00  0.10601894471E+03  0.10601894471E+03  0.00000000000E+00 0.  1.
         13   -1    0    0    0    0 -0.00000000000E+00 -0.00000000000E+00 -0.10000000000E+04  0.10000000000E+04  0.00000000000E+00 0.  1.
    9000005    2    1    2  501    0 -0.24934835982E+00  0.15704408494E+00 -0.89411411916E+03  0.11056956129E+04  0.65047878022E+03 0.  0.
         13    1    3    3    0    0  0.28866233454E+03  0.73032096735E+02 -0.22490588372E+03  0.37315182844E+03  0.00000000000E+00 0.  1.
          3    1    3    3  501    0 -0.28891168289E+03 -0.72875052650E+02 -0.66920823544E+03  0.73254378449E+03  0.00000000000E+00 0.  1.
         21    1    1    2  502  501  0.24934835982E+00 -0.15704408494E+00  0.13306387332E+00  0.32333178554E+00  0.00000000000E+00 0. -1.
<mgrwt>
<rscale>  1 0.65047885E+03</rscale>
<asrwt>0</asrwt>
<pdfrwt beam="1">  1        1 0.38552425E+00 0.65047885E+03</pdfrwt>
<pdfrwt beam="2">0</pdfrwt>
<totfact> 0.15511531E+00</totfact>
</mgrwt>
</event>
<event>
 6    1  0.2341564E-003  0.6251544E+03  0.7818608E-02  0.9854551E-01
          1   -1    0    0  502    0  0.00000000000E+00  0.00000000000E+00  0.98541275428E+02  0.98541275428E+02  0.00000000000E+00 0.  1.
         13   -1    0    0    0    0 -0.00000000000E+00 -0.00000000000E+00 -0.10000000000E+04  0.10000000000E+04  0.00000000000E+00 0.  1.
    9000005    2    1    2  501    0  0.38426364183E+00 -0.57320312994E+00 -0.90213663357E+03  0.10975739177E+04  0.62515399939E+03 0.  0.
         13    1    3    3    0    0 -0.21143546791E+03  0.13971522763E+03 -0.77116284263E+03  0.81173729234E+03  0.00000000000E+00 0.  1.
          1    1    3    3  501    0  0.21181973155E+03 -0.14028843076E+03 -0.13097379094E+03  0.28583662535E+03  0.00000000000E+00 0.  1.
         21    1    1    2  502  501 -0.38426364183E+00  0.57320312994E+00  0.67790899764E+00  0.96735773305E+00  0.00000000000E+00 0.  1.
<mgrwt>
<rscale>  1 0.62515438E+03</rscale>
<asrwt>0</asrwt>
<pdfrwt beam="1">  1        1 0.35833267E+00 0.62515438E+03</pdfrwt>
<pdfrwt beam="2">0</pdfrwt>
<totfact> 0.20521025E+00</totfact>
</mgrwt>
</event>
<event>
 6    1  0.2341564E-003  0.6445596E+03  0.7818608E-02  0.9817042E-01
          1   -1    0    0  502    0  0.00000000000E+00  0.00000000000E+00  0.10386566419E+03  0.10386566419E+03  0.00000000000E+00 0.  1.
         13   -1    0    0    0    0 -0.00000000000E+00 -0.00000000000E+00 -0.10000000000E+04  0.10000000000E+04  0.00000000000E+00 0.  1.
    9000005    2    1    2  501    0  0.13363635805E-02  0.36686123465E-03 -0.89613533952E+03  0.11038639531E+04  0.64455960172E+03 0.  0.
         13    1    3    3    0    0 -0.57103611323E+02  0.23715802007E+03 -0.80876752999E+03  0.84475420477E+03  0.00000000000E+00 0.  1.
          3    1    3    3  501    0  0.57104947687E+02 -0.23715765321E+03 -0.87367809533E+02  0.25910974831E+03  0.00000000000E+00 0.  1.
         21    1    1    2  502  501 -0.13363635805E-02 -0.36686123464E-03  0.10037147610E-02  0.17111101970E-02  0.00000000000E+00 0. -1.
<mgrwt>
<rscale>  1 0.64455960E+03</rscale>
<asrwt>0</asrwt>
<pdfrwt beam="1">  1        1 0.37769412E+00 0.64455960E+03</pdfrwt>
<pdfrwt beam="2">0</pdfrwt>
<totfact> 0.16815268E+00</totfact>
</mgrwt>
</event>
<event>
 6    1  0.2341564E-003  0.6308952E+03  0.7818608E-02  0.9843303E-01
          1   -1    0    0  502    0  0.00000000000E+00  0.00000000000E+00  0.99746940637E+02  0.99746940637E+02  0.00000000000E+00 0.  1.
         13   -1    0    0    0    0 -0.00000000000E+00 -0.00000000000E+00 -0.10000000000E+04  0.10000000000E+04  0.00000000000E+00 0.  1.
    9000005    2    1    2  501    0  0.31241442306E-02 -0.10541172651E-02 -0.90049280095E+03  0.10995071764E+04  0.63089519442E+03 0.  0.
         13    1    3    3    0    0 -0.46519867572E+02 -0.81279903137E+01  0.93311646281E+02  0.10458119160E+03  0.00000000000E+00 0.  1.
          1    1    3    3  501    0  0.46522991716E+02  0.81269361965E+01 -0.99380444723E+03  0.99492598478E+03  0.00000000000E+00 0.  1.
         21    1    1    2  502  501 -0.31241442306E-02  0.10541172651E-02  0.23974158548E+00  0.23976425765E+00  0.00000000000E+00 0.  1.
<mgrwt>
<rscale>  1 0.63089519E+03</rscale>
<asrwt>0</asrwt>
<pdfrwt beam="1">  1        1 0.36271691E+00 0.63089519E+03</pdfrwt>
<pdfrwt beam="2">0</pdfrwt>
<totfact> 0.19614207E+00</totfact>
</mgrwt>
</event>
<event>
 6    1  0.2341564E-003  0.6429916E+03  0.7818608E-02  0.9820019E-01
          1   -1    0    0  502    0  0.00000000000E+00  0.00000000000E+00  0.10339780915E+03  0.10339780915E+03  0.00000000000E+00 0.  1.
         13   -1    0    0    0    0 -0.00000000000E+00 -0.00000000000E+00 -0.10000000000E+04  0.10000000000E+04  0.00000000000E+00 0.  1.
    9000005    2    1    2  501    0  0.33473758911E-02 -0.12614266800E-02 -0.89664035019E+03  0.11033594825E+04  0.64299162518E+03 0.  0.
         13    1    3    3    0    0  0.42688585049E+02 -0.16454109519E+03  0.19936167142E+02  0.17115355111E+03  0.00000000000E+00 0.  1.
          3    1    3    3  501    0 -0.42685237673E+02  0.16453983376E+03 -0.91657651733E+03  0.93220593140E+03  0.00000000000E+00 0.  1.
         21    1    1    2  502  501 -0.33473758911E-02  0.12614266800E-02  0.38159342504E-01  0.38326642730E-01  0.00000000000E+00 0.  1.
<mgrwt>
<rscale>  1 0.64299163E+03</rscale>
<asrwt>0</asrwt>
<pdfrwt beam="1">  1        1 0.37599283E+00 0.64299163E+03</pdfrwt>
<pdfrwt beam="2">0</pdfrwt>
<totfact> 0.17112906E+00</totfact>
</mgrwt>
</event>
<event>
 6    1  0.2341564E-003  0.6330363E+03  0.7818608E-02  0.9839141E-01
          1   -1    0    0  502    0  0.00000000000E+00  0.00000000000E+00  0.10359306928E+03  0.10359306928E+03  0.00000000000E+00 0.  1.
         13   -1    0    0    0    0 -0.00000000000E+00 -0.00000000000E+00 -0.10000000000E+04  0.10000000000E+04  0.00000000000E+00 0.  1.
    9000005    2    1    2  501    0 -0.48108071854E+00 -0.13184367633E+00 -0.89979616191E+03  0.11001673271E+04  0.63303614889E+03 0.  0.
         13    1    3    3    0    0 -0.11047074750E+03  0.83339726524E+02  0.44862104022E+02  0.14547131830E+03  0.00000000000E+00 0.  1.
          3    1    3    3  501    0  0.10998966678E+03 -0.83471570200E+02 -0.94465826593E+03  0.95469600880E+03  0.00000000000E+00 0.  1.
         21    1    1    2  502  501  0.48108071854E+00  0.13184367633E+00  0.33892311885E+01  0.34257421768E+01  0.00000000000E+00 0.  1.
<mgrwt>
<rscale>  1 0.63303635E+03</rscale>
<asrwt>0</asrwt>
<pdfrwt beam="1">  1        1 0.37670286E+00 0.63303635E+03</pdfrwt>
<pdfrwt beam="2">0</pdfrwt>
<totfact> 0.17021380E+00</totfact>
</mgrwt>
</event>
<event>
 6    1  0.2341564E-003  0.6711016E+03  0.7818608E-02  0.9767970E-01
          1   -1    0    0  502    0  0.00000000000E+00  0.00000000000E+00  0.11294156792E+03  0.11294156792E+03  0.00000000000E+00 0.  1.
         13   -1    0    0    0    0 -0.00000000000E+00 -0.00000000000E+00 -0.10000000000E+04  0.10000000000E+04  0.00000000000E+00 0.  1.
    9000005    2    1    2  501    0  0.30354660300E-02 -0.68648793709E-02 -0.88740562024E+03  0.11125942986E+04  0.67110158578E+03 0.  0.
         13    1    3    3    0    0  0.27887561151E+03 -0.17686379351E+03 -0.54240175243E+03  0.63502131396E+03  0.00000000000E+00 0.  1.
          3    1    3    3  501    0 -0.27887257604E+03  0.17685692863E+03 -0.34500386782E+03  0.47757298466E+03  0.00000000000E+00 0.  1.
         21    1    1    2  502  501 -0.30354660300E-02  0.68648793708E-02  0.34718816084E+00  0.34726928982E+00  0.00000000000E+00 0. -1.
<mgrwt>
<rscale>  1 0.67110159E+03</rscale>
<asrwt>0</asrwt>
<pdfrwt beam="1">  1        1 0.41069748E+00 0.67110159E+03</pdfrwt>
<pdfrwt beam="2">0</pdfrwt>
<totfact> 0.11935344E+00</totfact>
</mgrwt>
</event>
<event>
 6    1  0.2341564E-003  0.6418783E+03  0.7818608E-02  0.9822140E-01
          1   -1    0    0  502    0  0.00000000000E+00  0.00000000000E+00  0.10727356650E+03  0.10727356650E+03  0.00000000000E+00 0.  1.
         13   -1    0    0    0    0 -0.00000000000E+00 -0.00000000000E+00 -0.10000000000E+04  0.10000000000E+04  0.00000000000E+00 0.  1.
    9000005    2    1    2  501    0 -0.88635179627E+00 -0.14772468304E+01 -0.89680567446E+03  0.11028454648E+04  0.64187594879E+03 0.  0.
         13    1    3    3    0    0 -0.19719049508E+03  0.22038575617E+02 -0.14818666694E+02  0.19897080954E+03  0.00000000000E+00 0.  1.
          3    1    3    3  501    0  0.19630414328E+03 -0.23515822447E+02 -0.88198700777E+03  0.90387465528E+03  0.00000000000E+00 0.  1.
         21    1    1    2  502  501  0.88635179627E+00  0.14772468304E+01  0.40792409616E+01  0.44281016844E+01  0.00000000000E+00 0.  1.
<mgrwt>
<rscale>  1 0.64187826E+03</rscale>
<asrwt>0</asrwt>
<pdfrwt beam="1">  1        1 0.39008652E+00 0.64187826E+03</pdfrwt>
<pdfrwt beam="2">0</pdfrwt>
<totfact> 0.14830229E+00</totfact>
</mgrwt>
</event>
<event>
 6    1  0.2341564E-003  0.6424308E+03  0.7818608E-02  0.9821087E-01
          1   -1    0    0  502    0  0.00000000000E+00  0.00000000000E+00  0.10317944485E+03  0.10317944485E+03  0.00000000000E+00 0.  1.
         13   -1    0    0    0    0 -0.00000000000E+00 -0.00000000000E+00 -0.10000000000E+04  0.10000000000E+04  0.00000000000E+00 0.  1.
    9000005    2    1    2  501    0 -0.71536825356E-04  0.22208051166E-03 -0.89682053334E+03  0.11031792105E+04  0.64243077565E+03 0.  0.
         13    1    3    3    0    0 -0.17244990187E+02  0.21766943778E+03 -0.85296209462E+03  0.88046675615E+03  0.00000000000E+00 0.  1.
          1    1    3    3  501    0  0.17244918650E+02 -0.21766921570E+03 -0.43858438720E+02  0.22271245437E+03  0.00000000000E+00 0.  1.
         21    1    1    2  502  501  0.71536825354E-04 -0.22208051166E-03 -0.21804009570E-04  0.23433455971E-03  0.00000000000E+00 0. -1.
<mgrwt>
<rscale>  1 0.64243078E+03</rscale>
<asrwt>0</asrwt>
<pdfrwt beam="1">  1        1 0.37519877E+00 0.64243078E+03</pdfrwt>
<pdfrwt beam="2">0</pdfrwt>
<totfact> 0.17252998E+00</totfact>
</mgrwt>
</event>
<event>
 6    1  0.2341564E-003  0.6535842E+03  0.7818608E-02  0.9800077E-01
          1   -1    0    0  502    0  0.00000000000E+00  0.00000000000E+00  0.10679310664E+03  0.10679310664E+03  0.00000000000E+00 0.  1.
         13   -1    0    0    0    0 -0.00000000000E+00 -0.00000000000E+00 -0.10000000000E+04  0.10000000000E+04  0.00000000000E+00 0.  1.
    9000005    2    1    2  501    0  0.40056767432E-04 -0.10062039546E-03 -0.89320681620E+03  0.11067929737E+04  0.65358417213E+03 0.  0.
         13    1    3    3    0    0 -0.31142541158E+03  0.52618034125E+02 -0.30453147644E+03  0.43874122741E+03  0.00000000000E+00 0.  1.
          1    1    3    3  501    0  0.31142545163E+03 -0.52618134746E+02 -0.58867533976E+03  0.66805174625E+03  0.00000000000E+00 0.  1.
         21    1    1    2  502  501 -0.40056767409E-04  0.10062039546E-03 -0.77161441655E-04  0.13297705320E-03  0.00000000000E+00 0.  1.
<mgrwt>
<rscale>  1 0.65358417E+03</rscale>
<asrwt>0</asrwt>
<pdfrwt beam="1">  1        1 0.38833939E+00 0.65358417E+03</pdfrwt>
<pdfrwt beam="2">0</pdfrwt>
<totfact> 0.15064018E+00</totfact>
</mgrwt>
</event>
<event>
 6    1  0.2341564E-003  0.6662233E+03  0.7818608E-02  0.9776805E-01
          1   -1    0    0  502    0  0.00000000000E+00  0.00000000000E+00  0.11100367293E+03  0.11100367293E+03  0.00000000000E+00 0.  1.
         13   -1    0    0    0    0 -0.00000000000E+00 -0.00000000000E+00 -0.10000000000E+04  0.10000000000E+04  0.00000000000E+00 0.  1.
    9000005    2    1    2  501    0  0.12681518353E-02  0.85453957516E-02 -0.88903611231E+03  0.11109629606E+04  0.66622330390E+03 0.  0.
         13    1    3    3    0    0 -0.43667596433E+02  0.19549779581E+03 -0.69280206865E+00  0.20031656726E+03  0.00000000000E+00 0.  1.
          1    1    3    3  501    0  0.43668864585E+02 -0.19548925041E+03 -0.88834331024E+03  0.91064639329E+03  0.00000000000E+00 0.  1.
         21    1    1    2  502  501 -0.12681518353E-02 -0.85453957516E-02  0.39785247195E-01  0.40712380082E-01  0.00000000000E+00 0.  1.
<mgrwt>
<rscale>  1 0.66622330E+03</rscale>
<asrwt>0</asrwt>
<pdfrwt beam="1">  1        1 0.40365057E+00 0.66622330E+03</pdfrwt>
<pdfrwt beam="2">0</pdfrwt>
<totfact> 0.12846687E+00</totfact>
</mgrwt>
</event>
<event>
 6    1  0.2341564E-003  0.6422688E+03  0.7818608E-02  0.9821395E-01
          1   -1    0    0  502    0  0.00000000000E+00  0.00000000000E+00  0.10315712454E+03  0.10315712454E+03  0.00000000000E+00 0.  1.
         13   -1    0    0    0    0 -0.00000000000E+00 -0.00000000000E+00 -0.10000000000E+04  0.10000000000E+04  0.00000000000E+00 0.  1.
    9000005    2    1    2  501    0  0.26020262672E-02  0.29720898958E-02 -0.89687255440E+03  0.11031271839E+04  0.64226879493E+03 0.  0.
         13    1    3    3    0    0 -0.10575627020E+03 -0.88442649000E+02 -0.94658392042E+03  0.95657075496E+03  0.00000000000E+00 0.  1.
          3    1    3    3  501    0  0.10575887223E+03  0.88445621090E+02  0.49711366012E+02  0.14655642892E+03  0.00000000000E+00 0.  1.
         21    1    1    2  502  501 -0.26020262672E-02 -0.29720898958E-02  0.29678947764E-01  0.29940671326E-01  0.00000000000E+00 0. -1.
<mgrwt>
<rscale>  1 0.64226879E+03</rscale>
<asrwt>0</asrwt>
<pdfrwt beam="1">  1        1 0.37511761E+00 0.64226879E+03</pdfrwt>
<pdfrwt beam="2">0</pdfrwt>
<totfact> 0.17267710E+00</totfact>
</mgrwt>
</event>
<event>
 6    1  0.2341564E-003  0.6463414E+03  0.7818608E-02  0.9813669E-01
          1   -1    0    0  502    0  0.00000000000E+00  0.00000000000E+00  0.10444007900E+03  0.10444007900E+03  0.00000000000E+00 0.  1.
         13   -1    0    0    0    0 -0.00000000000E+00 -0.00000000000E+00 -0.10000000000E+04  0.10000000000E+04  0.00000000000E+00 0.  1.
    9000005    2    1    2  501    0 -0.21657559775E-03  0.66190724627E-03 -0.89556053746E+03  0.11044391489E+04  0.64634136290E+03 0.  0.
         13    1    3    3    0    0 -0.71862161081E+02 -0.11646290292E+01  0.90609863470E+02  0.11565324861E+03  0.00000000000E+00 0.  1.
          3    1    3    3  501    0  0.71861944505E+02  0.11652909365E+01 -0.98617040093E+03  0.98878590031E+03  0.00000000000E+00 0.  1.
         21    1    1    2  502  501  0.21657559775E-03 -0.66190724627E-03  0.61646800354E-03  0.93008547542E-03  0.00000000000E+00 0. -1.
<mgrwt>
<rscale>  1 0.64634136E+03</rscale>
<asrwt>0</asrwt>
<pdfrwt beam="1">  1        1 0.37978291E+00 0.64634136E+03</pdfrwt>
<pdfrwt beam="2">0</pdfrwt>
<totfact> 0.16457018E+00</totfact>
</mgrwt>
</event>
<event>
 6    1  0.2341564E-003  0.6475985E+03  0.7818608E-02  0.9811296E-01
          1   -1    0    0  502    0  0.00000000000E+00  0.00000000000E+00  0.10585617748E+03  0.10585617748E+03  0.00000000000E+00 0.  1.
         13   -1    0    0    0    0 -0.00000000000E+00 -0.00000000000E+00 -0.10000000000E+04  0.10000000000E+04  0.00000000000E+00 0.  1.
    9000005    2    1    2  501    0 -0.16130864103E+00  0.97463710994E+00 -0.89488014450E+03  0.11046240622E+04  0.64759776857E+03 0.  0.
         13    1    3    3    0    0  0.12597446986E+02  0.31716840014E+03 -0.56121734412E+03  0.64476305497E+03  0.00000000000E+00 0.  1.
          3    1    3    3  501    0 -0.12758755627E+02 -0.31619376303E+03 -0.33366280038E+03  0.45986100724E+03  0.00000000000E+00 0.  1.
         21    1    1    2  502  501  0.16130864103E+00 -0.97463710994E+00  0.73632197435E+00  0.12321152640E+01  0.00000000000E+00 0.  1.
<mgrwt>
<rscale>  1 0.64759852E+03</rscale>
<asrwt>0</asrwt>
<pdfrwt beam="1">  1        1 0.38493237E+00 0.64759852E+03</pdfrwt>
<pdfrwt beam="2">0</pdfrwt>
<totfact> 0.15613647E+00</totfact>
</mgrwt>
</event>
<event>
 6    1  0.2341564E-003  0.6447862E+03  0.7818608E-02  0.9816612E-01
          1   -1    0    0  502    0  0.00000000000E+00  0.00000000000E+00  0.10393736518E+03  0.10393736518E+03  0.00000000000E+00 0.  1.
         13   -1    0    0    0    0 -0.00000000000E+00 -0.00000000000E+00 -0.10000000000E+04  0.10000000000E+04  0.00000000000E+00 0.  1.
    9000005    2    1    2  501    0  0.10283478295E-03 -0.34991432010E-05 -0.89606258515E+03  0.11039372509E+04  0.64478624170E+03 0.  0.
         13    1    3    3    0    0 -0.24717995948E+03  0.24051873513E+02 -0.79999492817E+03  0.83765643917E+03  0.00000000000E+00 0.  1.
          1    1    3    3  501    0  0.24718006232E+03 -0.24051877012E+02 -0.96067656982E+02  0.26628081176E+03  0.00000000000E+00 0.  1.
         21    1    1    2  502  501 -0.10283478297E-03  0.34991432007E-05 -0.49666744039E-04  0.11425419928E-03  0.00000000000E+00 0.  1.
<mgrwt>
<rscale>  1 0.64478624E+03</rscale>
<asrwt>0</asrwt>
<pdfrwt beam="1">  1        1 0.37795485E+00 0.64478624E+03</pdfrwt>
<pdfrwt beam="2">0</pdfrwt>
<totfact> 0.16770135E+00</totfact>
</mgrwt>
</event>
<event>
 6    1  0.2341564E-003  0.6543919E+03  0.7818608E-02  0.9798573E-01
          1   -1    0    0  502    0  0.00000000000E+00  0.00000000000E+00  0.10790380437E+03  0.10790380437E+03  0.00000000000E+00 0.  1.
         13   -1    0    0    0    0 -0.00000000000E+00 -0.00000000000E+00 -0.10000000000E+04  0.10000000000E+04  0.00000000000E+00 0.  1.
    9000005    2    1    2  501    0 -0.56853781117E-02 -0.24787342852E-01 -0.89294259038E+03  0.11070570277E+04  0.65439192546E+03 0.  0.
         13    1    3    3    0    0 -0.97306608023E+02  0.48476347314E+02 -0.96855015554E+03  0.97463220551E+03  0.00000000000E+00 0.  1.
          3    1    3    3  501    0  0.97300922645E+02 -0.48501134657E+02  0.75607565158E+02  0.13242482214E+03  0.00000000000E+00 0.  1.
         21    1    1    2  502  501  0.56853781117E-02  0.24787342852E-01  0.84639475288E+00  0.84677672003E+00  0.00000000000E+00 0.  1.
<mgrwt>
<rscale>  1 0.65439193E+03</rscale>
<asrwt>0</asrwt>
<pdfrwt beam="1">  1        1 0.39237830E+00 0.65439193E+03</pdfrwt>
<pdfrwt beam="2">0</pdfrwt>
<totfact> 0.14453107E+00</totfact>
</mgrwt>
</event>
<event>
 6    1  0.2341564E-003  0.6578190E+03  0.7818608E-02  0.9792217E-01
          1   -1    0    0  502    0  0.00000000000E+00  0.00000000000E+00  0.10834632077E+03  0.10834632077E+03  0.00000000000E+00 0.  1.
         13   -1    0    0    0    0 -0.00000000000E+00 -0.00000000000E+00 -0.10000000000E+04  0.10000000000E+04  0.00000000000E+00 0.  1.
    9000005    2    1    2  501    0  0.42975222696E-02  0.33416730003E-03 -0.89181851757E+03  0.11081814261E+04  0.65781897571E+03 0.  0.
         13    1    3    3    0    0 -0.12504300279E+02  0.30157939538E+03 -0.66604224822E+03  0.73124466881E+03  0.00000000000E+00 0.  1.
          1    1    3    3  501    0  0.12508597801E+02 -0.30157906121E+03 -0.22577626935E+03  0.37693675727E+03  0.00000000000E+00 0.  1.
         21    1    1    2  502  501 -0.42975222696E-02 -0.33416729999E-03  0.16483834451E+00  0.16489469423E+00  0.00000000000E+00 0. -1.
<mgrwt>
<rscale>  1 0.65781898E+03</rscale>
<asrwt>0</asrwt>
<pdfrwt beam="1">  1        1 0.39398745E+00 0.65781898E+03</pdfrwt>
<pdfrwt beam="2">0</pdfrwt>
<totfact> 0.14208096E+00</totfact>
</mgrwt>
</event>
<event>
 6    1  0.2341564E-003  0.5678891E+03  0.7818608E-02  0.9974361E-01
          1   -1    0    0  502    0  0.00000000000E+00  0.00000000000E+00  0.80625251600E+02  0.80625251600E+02  0.00000000000E+00 0.  1.
         13   -1    0    0    0    0 -0.00000000000E+00 -0.00000000000E+00 -0.10000000000E+04  0.10000000000E+04  0.00000000000E+00 0.  1.
    9000005    2    1    2  501    0  0.21552453043E-03 -0.16978525258E-03 -0.91937547744E+03  0.10806244726E+04  0.56788905813E+03 0.  0.
         13    1    3    3    0    0 -0.14140688341E+03 -0.24359550654E+03 -0.39134739369E+03  0.48216953453E+03  0.00000000000E+00 0.  1.
          3    1    3    3  501    0  0.14140709893E+03  0.24359533675E+03 -0.52802808375E+03  0.59845493811E+03  0.00000000000E+00 0.  1.
         21    1    1    2  502  501 -0.21552453043E-03  0.16978525256E-03  0.72904283585E-03  0.77896168821E-03  0.00000000000E+00 0.  1.
<mgrwt>
<rscale>  1 0.56788906E+03</rscale>
<asrwt>0</asrwt>
<pdfrwt beam="1">  1        1 0.29318335E+00 0.56788906E+03</pdfrwt>
<pdfrwt beam="2">0</pdfrwt>
<totfact> 0.39707826E+00</totfact>
</mgrwt>
</event>
<event>
 6    1  0.2341564E-003  0.6490781E+03  0.7818608E-02  0.9808511E-01
          1   -1    0    0  502    0  0.00000000000E+00  0.00000000000E+00  0.10532583286E+03  0.10532583286E+03  0.00000000000E+00 0.  1.
         13   -1    0    0    0    0 -0.00000000000E+00 -0.00000000000E+00 -0.10000000000E+04  0.10000000000E+04  0.00000000000E+00 0.  1.
    9000005    2    1    2  501    0 -0.12921914781E-04  0.10255818950E-05 -0.89467442028E+03  0.11053255794E+04  0.64907805243E+03 0.  0.
         13    1    3    3    0    0 -0.46779128362E+02  0.13910345446E+03  0.45590200490E+02  0.15367668748E+03  0.00000000000E+00 0.  1.
          1    1    3    3  501    0  0.46779115440E+02 -0.13910345343E+03 -0.94026462077E+03  0.95164889191E+03  0.00000000000E+00 0.  1.
         21    1    1    2  502  501  0.12921914780E-04 -0.10255819044E-05  0.25313979993E-03  0.25347146981E-03  0.00000000000E+00 0. -1.
<mgrwt>
<rscale>  1 0.64907805E+03</rscale>
<asrwt>0</asrwt>
<pdfrwt beam="1">  1        1 0.38300384E+00 0.64907805E+03</pdfrwt>
<pdfrwt beam="2">0</pdfrwt>
<totfact> 0.15918829E+00</totfact>
</mgrwt>
</event>
<event>
 6    1  0.2341564E-003  0.5654538E+03  0.7818608E-02  0.9979789E-01
          1   -1    0    0  502    0  0.00000000000E+00  0.00000000000E+00  0.79937007603E+02  0.79937007603E+02  0.00000000000E+00 0.  1.
         13   -1    0    0    0    0 -0.00000000000E+00 -0.00000000000E+00 -0.10000000000E+04  0.10000000000E+04  0.00000000000E+00 0.  1.
    9000005    2    1    2  501    0 -0.30959432866E-02 -0.81501249220E-02 -0.92005137576E+03  0.10799224833E+04  0.56545383172E+03 0.  0.
         13    1    3    3    0    0  0.16966513858E+03 -0.53051577644E+02 -0.87990078489E+03  0.89767818308E+03  0.00000000000E+00 0.  1.
          1    1    3    3  501    0 -0.16966823452E+03  0.53043427519E+02 -0.40150590869E+02  0.18224430020E+03  0.00000000000E+00 0.  1.
         21    1    1    2  502  501  0.30959432866E-02  0.81501249220E-02 -0.11616642335E-01  0.14524316859E-01  0.00000000000E+00 0. -1.
<mgrwt>
<rscale>  1 0.56545383E+03</rscale>
<asrwt>0</asrwt>
<pdfrwt beam="1">  1        1 0.29068064E+00 0.56545383E+03</pdfrwt>
<pdfrwt beam="2">0</pdfrwt>
<totfact> 0.40724524E+00</totfact>
</mgrwt>
</event>
<event>
 6    1  0.2341564E-003  0.6505496E+03  0.7818608E-02  0.9805748E-01
          1   -1    0    0  502    0  0.00000000000E+00  0.00000000000E+00  0.11204325761E+03  0.11204325761E+03  0.00000000000E+00 0.  1.
         13   -1    0    0    0    0 -0.00000000000E+00 -0.00000000000E+00 -0.10000000000E+04  0.10000000000E+04  0.00000000000E+00 0.  1.
    9000005    2    1    2  501    0 -0.50336504686E+01  0.99748636384E+01 -0.88808720130E+03  0.11008695133E+04  0.65045366686E+03 0.  0.
         13    1    3    3    0    0 -0.15286768378E+03  0.94613938205E+02  0.16358601258E+02  0.18052127266E+03  0.00000000000E+00 0.  1.
          3    1    3    3  501    0  0.14783403331E+03 -0.84639074567E+02 -0.90444580256E+03  0.92034824067E+03  0.00000000000E+00 0.  1.
         21    1    1    2  502  501  0.50336504686E+01 -0.99748636384E+01  0.13045890601E+00  0.11173744277E+02  0.00000000000E+00 0. -1.
<mgrwt>
<rscale>  1 0.65054962E+03</rscale>
<asrwt>0</asrwt>
<pdfrwt beam="1">  1        1 0.40743089E+00 0.65054962E+03</pdfrwt>
<pdfrwt beam="2">0</pdfrwt>
<totfact> 0.12393073E+00</totfact>
</mgrwt>
</event>
<event>
 6    1  0.2341564E-003  0.6371636E+03  0.7818608E-02  0.9831168E-01
          1   -1    0    0  502    0  0.00000000000E+00  0.00000000000E+00  0.10150415453E+03  0.10150415453E+03  0.00000000000E+00 0.  1.
         13   -1    0    0    0    0 -0.00000000000E+00 -0.00000000000E+00 -0.10000000000E+04  0.10000000000E+04  0.00000000000E+00 0.  1.
    9000005    2    1    2  501    0 -0.18894693709E-01  0.85360156991E-03 -0.89849438062E+03  0.11014851839E+04  0.63716360382E+03 0.  0.
         13    1    3    3    0    0  0.19612396545E+02  0.92316681012E+02  0.76774161307E+02  0.12166054223E+03  0.00000000000E+00 0.  1.
          3    1    3    3  501    0 -0.19631291239E+02 -0.92315827410E+02 -0.97526854193E+03  0.97982464169E+03  0.00000000000E+00 0.  1.
         21    1    1    2  502  501  0.18894693709E-01 -0.85360156992E-03 -0.14648498463E-02  0.18970605449E-01  0.00000000000E+00 0. -1.
<mgrwt>
<rscale>  1 0.63716360E+03</rscale>
<asrwt>0</asrwt>
<pdfrwt beam="1">  1        1 0.36910679E+00 0.63716360E+03</pdfrwt>
<pdfrwt beam="2">0</pdfrwt>
<totfact> 0.18368050E+00</totfact>
</mgrwt>
</event>
<event>
 6    1  0.2341564E-003  0.6494489E+03  0.7818608E-02  0.9807814E-01
          3   -1    0    0  502    0  0.00000000000E+00  0.00000000000E+00  0.10564332405E+03  0.10564332405E+03  0.00000000000E+00 0.  1.
         13   -1    0    0    0    0 -0.00000000000E+00 -0.00000000000E+00 -0.10000000000E+04  0.10000000000E+04  0.00000000000E+00 0.  1.
    9000005    2    1    2  501    0 -0.37344617279E-01  0.22967760199E+00 -0.89447522051E+03  0.11053821742E+04  0.64944882541E+03 0.  0.
         13    1    3    3    0    0 -0.52039885066E+02 -0.32029466884E+03 -0.46206907233E+03  0.56462788819E+03  0.00000000000E+00 0.  1.
          1    1    3    3  501    0  0.52002540449E+02  0.32052434644E+03 -0.43240614818E+03  0.54075428603E+03  0.00000000000E+00 0.  1.
         21    1    1    2  502  501  0.37344617279E-01 -0.22967760199E+00  0.11854455569E+00  0.26114982860E+00  0.00000000000E+00 0.  1.
<mgrwt>
<rscale>  1 0.64944887E+03</rscale>
<asrwt>0</asrwt>
<pdfrwt beam="1">  1        3 0.38415835E+00 0.64944887E+03</pdfrwt>
<pdfrwt beam="2">0</pdfrwt>
<totfact> 0.71765938E-02</totfact>
</mgrwt>
</event>
<event>
 6    1  0.2341564E-003  0.6578879E+03  0.7818608E-02  0.9792090E-01
          1   -1    0    0  502    0  0.00000000000E+00  0.00000000000E+00  0.12926106665E+03  0.12926106665E+03  0.00000000000E+00 0.  1.
         13   -1    0    0    0    0 -0.00000000000E+00 -0.00000000000E+00 -0.10000000000E+04  0.10000000000E+04  0.00000000000E+00 0.  1.
    9000005    2    1    2  501    0 -0.57989322298E+02  0.56179665522E+01 -0.82496124935E+03  0.10551670763E+04  0.65530311537E+03 0.  0.
         13    1    3    3    0    0 -0.31616703767E+03  0.11979036451E+03 -0.62040080752E+03  0.70654687679E+03  0.00000000000E+00 0.  1.
          3    1    3    3  501    0  0.25817771537E+03 -0.11417239796E+03 -0.20456044183E+03  0.34862019955E+03  0.00000000000E+00 0.  1.
         21    1    1    2  502  501  0.57989322298E+02 -0.56179665522E+01 -0.45777683998E+02  0.74093990316E+02  0.00000000000E+00 0.  1.
<mgrwt>
<rscale>  1 0.65788791E+03</rscale>
<asrwt>0</asrwt>
<pdfrwt beam="1">  1        1 0.47004123E+00 0.65788791E+03</pdfrwt>
<pdfrwt beam="2">0</pdfrwt>
<totfact> 0.64021595E-01</totfact>
</mgrwt>
</event>
<event>
 6    1  0.2341564E-003  0.6523188E+03  0.7818608E-02  0.9802438E-01
          1   -1    0    0  502    0  0.00000000000E+00  0.00000000000E+00  0.10638226414E+03  0.10638226414E+03  0.00000000000E+00 0.  1.
         13   -1    0    0    0    0 -0.00000000000E+00 -0.00000000000E+00 -0.10000000000E+04  0.10000000000E+04  0.00000000000E+00 0.  1.
    9000005    2    1    2  501    0 -0.42792981682E-03 -0.53035298181E-02 -0.89361600727E+03  0.11063766696E+04  0.65231876150E+03 0.  0.
         13    1    3    3    0    0 -0.10429313784E+03 -0.30847144297E+03 -0.47853899289E+03  0.57881884683E+03  0.00000000000E+00 0.  1.
          1    1    3    3  501    0  0.10429270991E+03  0.30846613944E+03 -0.41507701439E+03  0.52755782280E+03  0.00000000000E+00 0.  1.
         21    1    1    2  502  501  0.42792981682E-03  0.53035298181E-02 -0.17285911041E-02  0.55945133537E-02  0.00000000000E+00 0.  1.
<mgrwt>
<rscale>  1 0.65231876E+03</rscale>
<asrwt>0</asrwt>
<pdfrwt beam="1">  1        1 0.38684541E+00 0.65231876E+03</pdfrwt>
<pdfrwt beam="2">0</pdfrwt>
<totfact> 0.15298879E+00</totfact>
</mgrwt>
</event>
<event>
 6    1  0.2341564E-003  0.6313023E+03  0.7818608E-02  0.9842511E-01
          1   -1    0    0  502    0  0.00000000000E+00  0.00000000000E+00  0.99645394214E+02  0.99645394214E+02  0.00000000000E+00 0.  1.
         13   -1    0    0    0    0 -0.00000000000E+00 -0.00000000000E+00 -0.10000000000E+04  0.10000000000E+04  0.00000000000E+00 0.  1.
    9000005    2    1    2  501    0 -0.28500095800E-03  0.17815926569E-04 -0.90036434343E+03  0.10996356524E+04  0.63130231829E+03 0.  0.
         13    1    3    3    0    0  0.28431213107E+03  0.94237180021E+02 -0.27668138790E+03  0.40775804638E+03  0.00000000000E+00 0.  1.
          1    1    3    3  501    0 -0.28431241608E+03 -0.94237162205E+02 -0.62368295553E+03  0.69187760601E+03  0.00000000000E+00 0.  1.
         21    1    1    2  502  501  0.28500095801E-03 -0.17815926572E-04  0.97376438857E-02  0.97418299820E-02  0.00000000000E+00 0.  1.
<mgrwt>
<rscale>  1 0.63130232E+03</rscale>
<asrwt>0</asrwt>
<pdfrwt beam="1">  1        1 0.36234765E+00 0.63130232E+03</pdfrwt>
<pdfrwt beam="2">0</pdfrwt>
<totfact> 0.19685902E+00</totfact>
</mgrwt>
</event>
<event>
 6    1  0.2341564E-003  0.6488484E+03  0.7818608E-02  0.9808942E-01
          1   -1    0    0  502    0  0.00000000000E+00  0.00000000000E+00  0.11978512236E+03  0.11978512236E+03  0.00000000000E+00 0.  1.
         13   -1    0    0    0    0 -0.00000000000E+00 -0.00000000000E+00 -0.10000000000E+04  0.10000000000E+04  0.00000000000E+00 0.  1.
    9000005    2    1    2  501    0 -0.71913854635E+01  0.22179620277E+02 -0.88357816095E+03  0.10962274643E+04  0.64842936030E+03 0.  0.
         13    1    3    3    0    0 -0.88465039936E+02 -0.29651454961E+03 -0.33047571871E+03  0.45272634348E+03  0.00000000000E+00 0.  1.
          3    1    3    3  501    0  0.81273654473E+02  0.31869416989E+03 -0.55310244224E+03  0.64350112078E+03  0.00000000000E+00 0.  1.
         21    1    1    2  502  501  0.71913854635E+01 -0.22179620277E+02  0.33632833083E+01  0.23557658099E+02  0.00000000000E+00 0. -1.
<mgrwt>
<rscale>  1 0.64884843E+03</rscale>
<asrwt>0</asrwt>
<pdfrwt beam="1">  1        1 0.43558318E+00 0.64884843E+03</pdfrwt>
<pdfrwt beam="2">0</pdfrwt>
<totfact> 0.92516590E-01</totfact>
</mgrwt>
</event>
<event>
 6    1  0.2341564E-003  0.6458224E+03  0.7818608E-02  0.9814650E-01
          1   -1    0    0  502    0  0.00000000000E+00  0.00000000000E+00  0.10474670521E+03  0.10474670521E+03  0.00000000000E+00 0.  1.
         13   -1    0    0    0    0 -0.00000000000E+00 -0.00000000000E+00 -0.10000000000E+04  0.10000000000E+04  0.00000000000E+00 0.  1.
    9000005    2    1    2  501    0  0.18812204011E+00  0.14212401447E+00 -0.89569584665E+03  0.11042452660E+04  0.64582234568E+03 0.  0.
         13    1    3    3    0    0  0.30991714844E+03 -0.84150317263E+02 -0.50688177491E+03  0.60004920509E+03  0.00000000000E+00 0.  1.
          1    1    3    3  501    0 -0.30972902640E+03  0.84292441277E+02 -0.38881407174E+03  0.50419606091E+03  0.00000000000E+00 0.  1.
         21    1    1    2  502  501 -0.18812204011E+00 -0.14212401447E+00  0.44255185713E+00  0.50143921238E+00  0.00000000000E+00 0.  1.
<mgrwt>
<rscale>  1 0.64582239E+03</rscale>
<asrwt>0</asrwt>
<pdfrwt beam="1">  1        1 0.38089791E+00 0.64582239E+03</pdfrwt>
<pdfrwt beam="2">0</pdfrwt>
<totfact> 0.16273172E+00</totfact>
</mgrwt>
</event>
<event>
 6    1  0.2341564E-003  0.5571209E+03  0.7818608E-02  0.9998590E-01
          1   -1    0    0  502    0  0.00000000000E+00  0.00000000000E+00  0.77598843938E+02  0.77598843938E+02  0.00000000000E+00 0.  1.
         13   -1    0    0    0    0 -0.00000000000E+00 -0.00000000000E+00 -0.10000000000E+04  0.10000000000E+04  0.00000000000E+00 0.  1.
    9000005    2    1    2  501    0  0.92581424838E-06 -0.45595038770E-04 -0.92240406888E+03  0.10775959308E+04  0.55712092378E+03 0.  0.
         13    1    3    3    0    0  0.11658082920E+03 -0.68521566662E+02 -0.93225432888E+03  0.94201084312E+03  0.00000000000E+00 0.  1.
          1    1    3    3  501    0 -0.11658082827E+03  0.68521521067E+02  0.98502600062E+01  0.13558508764E+03  0.00000000000E+00 0.  1.
         21    1    1    2  502  501 -0.92581424930E-06  0.45595038778E-04  0.29128160389E-02  0.29131730194E-02  0.00000000000E+00 0. -1.
<mgrwt>
<rscale>  1 0.55712092E+03</rscale>
<asrwt>0</asrwt>
<pdfrwt beam="1">  1        1 0.28217821E+00 0.55712092E+03</pdfrwt>
<pdfrwt beam="2">0</pdfrwt>
<totfact> 0.44378051E+00</totfact>
</mgrwt>
</event>
<event>
 6    1  0.2341564E-003  0.6483580E+03  0.7818608E-02  0.9809865E-01
          1   -1    0    0  502    0  0.00000000000E+00  0.00000000000E+00  0.10509468620E+03  0.10509468620E+03  0.00000000000E+00 0.  1.
         13   -1    0    0    0    0 -0.00000000000E+00 -0.00000000000E+00 -0.10000000000E+04  0.10000000000E+04  0.00000000000E+00 0.  1.
    9000005    2    1    2  501    0  0.54833014025E-03  0.58768129133E-02 -0.89490368509E+03  0.11050885633E+04  0.64835802381E+03 0.  0.
         13    1    3    3    0    0  0.27551242254E+03  0.10776762465E+03 -0.22151458386E+03  0.36958039282E+03  0.00000000000E+00 0.  1.
          3    1    3    3  501    0 -0.27551187421E+03 -0.10776174784E+03 -0.67338910124E+03  0.73550817045E+03  0.00000000000E+00 0.  1.
         21    1    1    2  502  501 -0.54833014026E-03 -0.58768129133E-02 -0.16287075195E-02  0.61229310093E-02  0.00000000000E+00 0.  1.
<mgrwt>
<rscale>  1 0.64835802E+03</rscale>
<asrwt>0</asrwt>
<pdfrwt beam="1">  1        1 0.38216330E+00 0.64835802E+03</pdfrwt>
<pdfrwt beam="2">0</pdfrwt>
<totfact> 0.16057655E+00</totfact>
</mgrwt>
</event>
<event>
 6    1  0.2341564E-003  0.6543939E+03  0.7818608E-02  0.9798569E-01
          1   -1    0    0  502    0  0.00000000000E+00  0.00000000000E+00  0.10705857688E+03  0.10705857688E+03  0.00000000000E+00 0.  1.
         13   -1    0    0    0    0 -0.00000000000E+00 -0.00000000000E+00 -0.10000000000E+04  0.10000000000E+04  0.00000000000E+00 0.  1.
    9000005    2    1    2  501    0  0.36202272298E-04 -0.18731162015E-04 -0.89294215495E+03  0.11070578439E+04  0.65439390101E+03 0.  0.
         13    1    3    3    0    0  0.13046637177E+03 -0.29753068979E+03 -0.51225023700E+03  0.60658576544E+03  0.00000000000E+00 0.  1.
          3    1    3    3  501    0 -0.13046633557E+03  0.29753067106E+03 -0.38069191795E+03  0.50047207847E+03  0.00000000000E+00 0.  1.
         21    1    1    2  502  501 -0.36202272300E-04  0.18731162003E-04  0.73183358165E-03  0.73296783844E-03  0.00000000000E+00 0.  1.
<mgrwt>
<rscale>  1 0.65439390E+03</rscale>
<asrwt>0</asrwt>
<pdfrwt beam="1">  1        1 0.38930474E+00 0.65439390E+03</pdfrwt>
<pdfrwt beam="2">0</pdfrwt>
<totfact> 0.14914107E+00</totfact>
</mgrwt>
</event>
<event>
 6    1  0.2341564E-003  0.6395322E+03  0.7818608E-02  0.9826622E-01
          3   -1    0    0  502    0  0.00000000000E+00  0.00000000000E+00  0.10231944427E+03  0.10231944427E+03  0.00000000000E+00 0.  1.
         13   -1    0    0    0    0 -0.00000000000E+00 -0.00000000000E+00 -0.10000000000E+04  0.10000000000E+04  0.00000000000E+00 0.  1.
    9000005    2    1    2  501    0  0.49448603443E-01  0.39265712142E-01 -0.89773338865E+03  0.11022371140E+04  0.63953218397E+03 0.  0.
         13    1    3    3    0    0  0.18422242851E+03  0.23405650107E+03 -0.64951802103E+03  0.71455861096E+03  0.00000000000E+00 0.  1.
          3    1    3    3  501    0 -0.18417297991E+03 -0.23401723536E+03 -0.24821536762E+03  0.38767850301E+03  0.00000000000E+00 0.  1.
         21    1    1    2  502  501 -0.49448603443E-01 -0.39265712142E-01  0.52832922272E-01  0.82330299454E-01  0.00000000000E+00 0. -1.
<mgrwt>
<rscale>  1 0.63953219E+03</rscale>
<asrwt>0</asrwt>
<pdfrwt beam="1">  1        3 0.37207149E+00 0.63953219E+03</pdfrwt>
<pdfrwt beam="2">0</pdfrwt>
<totfact> 0.83273087E-02</totfact>
</mgrwt>
</event>
<event>
 6    1  0.2341564E-003  0.6514230E+03  0.7818608E-02  0.9804113E-01
          1   -1    0    0  502    0  0.00000000000E+00  0.00000000000E+00  0.10609237409E+03  0.10609237409E+03  0.00000000000E+00 0.  1.
         13   -1    0    0    0    0 -0.00000000000E+00 -0.00000000000E+00 -0.10000000000E+04  0.10000000000E+04  0.00000000000E+00 0.  1.
    9000005    2    1    2  501    0 -0.15157955117E-03 -0.72051633381E-02 -0.89390849429E+03  0.11060851152E+04  0.65142297002E+03 0.  0.
         13    1    3    3    0    0 -0.32400467824E+01 -0.18414708904E+03  0.91846515797E+01  0.18440446342E+03  0.00000000000E+00 0.  1.
          3    1    3    3  501    0  0.32398952028E+01  0.18413988388E+03 -0.90309314587E+03  0.92168065178E+03  0.00000000000E+00 0.  1.
         21    1    1    2  502  501  0.15157955117E-03  0.72051633381E-02  0.86837738565E-03  0.72588865795E-02  0.00000000000E+00 0.  1.
<mgrwt>
<rscale>  1 0.65142297E+03</rscale>
<asrwt>0</asrwt>
<pdfrwt beam="1">  1        1 0.38579126E+00 0.65142297E+03</pdfrwt>
<pdfrwt beam="2">0</pdfrwt>
<totfact> 0.15466692E+00</totfact>
</mgrwt>
</event>
<event>
 6    1  0.2341564E-003  0.6230593E+03  0.7818608E-02  0.9858687E-01
          1   -1    0    0  502    0  0.00000000000E+00  0.00000000000E+00  0.97063794968E+02  0.97063794968E+02  0.00000000000E+00 0.  1.
         13   -1    0    0    0    0 -0.00000000000E+00 -0.00000000000E+00 -0.10000000000E+04  0.10000000000E+04  0.00000000000E+00 0.  1.
    9000005    2    1    2  501    0  0.54417555077E-04 -0.82243520680E-03 -0.90294926275E+03  0.10970507113E+04  0.62305930053E+03 0.  0.
         13    1    3    3    0    0  0.14595041048E+03 -0.19792066231E+03 -0.78821918790E+03  0.82568977169E+03  0.00000000000E+00 0.  1.
          3    1    3    3  501    0 -0.14595035606E+03  0.19791983988E+03 -0.11473007485E+03  0.27136093957E+03  0.00000000000E+00 0.  1.
         21    1    1    2  502  501 -0.54417555065E-04  0.82243520680E-03  0.13057718642E-01  0.13083706549E-01  0.00000000000E+00 0. -1.
<mgrwt>
<rscale>  1 0.62305930E+03</rscale>
<asrwt>0</asrwt>
<pdfrwt beam="1">  1        1 0.35296000E+00 0.62305930E+03</pdfrwt>
<pdfrwt beam="2">0</pdfrwt>
<totfact> 0.21668064E+00</totfact>
</mgrwt>
</event>
<event>
 6    1  0.2341564E-003  0.6638911E+03  0.7818608E-02  0.9781057E-01
          1   -1    0    0  502    0  0.00000000000E+00  0.00000000000E+00  0.11065937833E+03  0.11065937833E+03  0.00000000000E+00 0.  1.
         13   -1    0    0    0    0 -0.00000000000E+00 -0.00000000000E+00 -0.10000000000E+04  0.10000000000E+04  0.00000000000E+00 0.  1.
    9000005    2    1    2  501    0  0.34372965788E-02  0.67998364930E-02 -0.88981211200E+03  0.11101878264E+04  0.66389111703E+03 0.  0.
         13    1    3    3    0    0 -0.86873883292E+02  0.94977424305E+02  0.66757278439E+02  0.14499764464E+03  0.00000000000E+00 0.  1.
          3    1    3    3  501    0  0.86877320589E+02 -0.94970624468E+02 -0.95656939043E+03  0.96519018181E+03  0.00000000000E+00 0.  1.
         21    1    1    2  502  501 -0.34372965788E-02 -0.67998364930E-02  0.47149032591E+00  0.47155188496E+00  0.00000000000E+00 0.  1.
<mgrwt>
<rscale>  1 0.66389112E+03</rscale>
<asrwt>0</asrwt>
<pdfrwt beam="1">  1        1 0.40239859E+00 0.66389112E+03</pdfrwt>
<pdfrwt beam="2">0</pdfrwt>
<totfact> 0.13018888E+00</totfact>
</mgrwt>
</event>
<event>
 6    1  0.2341564E-003  0.6518752E+03  0.7818608E-02  0.9803267E-01
          1   -1    0    0  502    0  0.00000000000E+00  0.00000000000E+00  0.11941941661E+03  0.11941941661E+03  0.00000000000E+00 0.  1.
         13   -1    0    0    0    0 -0.00000000000E+00 -0.00000000000E+00 -0.10000000000E+04  0.10000000000E+04  0.00000000000E+00 0.  1.
    9000005    2    1    2  501    0  0.18377565556E+02  0.65430752042E+01 -0.88524352943E+03  0.10993622529E+04  0.65158323338E+03 0.  0.
         13    1    3    3    0    0 -0.11589714487E+03 -0.22916354146E+03 -0.11245808707E+03  0.28034781660E+03  0.00000000000E+00 0.  1.
          1    1    3    3  501    0  0.13427471043E+03  0.23570661666E+03 -0.77278544236E+03  0.81901443634E+03  0.00000000000E+00 0.  1.
         21    1    1    2  502  501 -0.18377565556E+02 -0.65430752042E+01  0.46629460397E+01  0.20057163675E+02  0.00000000000E+00 0. -1.
<mgrwt>
<rscale>  1 0.65187518E+03</rscale>
<asrwt>0</asrwt>
<pdfrwt beam="1">  1        1 0.43425334E+00 0.65187518E+03</pdfrwt>
<pdfrwt beam="2">0</pdfrwt>
<totfact> 0.93758361E-01</totfact>
</mgrwt>
</event>
<event>
 6    1  0.2341564E-003  0.6552530E+03  0.7818608E-02  0.9796972E-01
          1   -1    0    0  502    0  0.00000000000E+00  0.00000000000E+00  0.10815799644E+03  0.10815799644E+03  0.00000000000E+00 0.  1.
         13   -1    0    0    0    0 -0.00000000000E+00 -0.00000000000E+00 -0.10000000000E+04  0.10000000000E+04  0.00000000000E+00 0.  1.
    9000005    2    1    2  501    0  0.23741945507E-01 -0.63941099204E-01 -0.89265928767E+03  0.11073378712E+04  0.65525304455E+03 0.  0.
         13    1    3    3    0    0 -0.18444889576E+03  0.92170484709E+02 -0.16079903479E+02  0.20682204112E+03  0.00000000000E+00 0.  1.
          1    1    3    3  501    0  0.18447263770E+03 -0.92234425808E+02 -0.87657938419E+03  0.90051583004E+03  0.00000000000E+00 0.  1.
         21    1    1    2  502  501 -0.23741945507E-01  0.63941099204E-01  0.81728410775E+00  0.82012526904E+00  0.00000000000E+00 0. -1.
<mgrwt>
<rscale>  1 0.65525305E+03</rscale>
<asrwt>0</asrwt>
<pdfrwt beam="1">  1        1 0.39330263E+00 0.65525305E+03</pdfrwt>
<pdfrwt beam="2">0</pdfrwt>
<totfact> 0.14314835E+00</totfact>
</mgrwt>
</event>
<event>
 6    1  0.2341564E-003  0.5097951E+03  0.7818608E-02  0.1011253E+00
          1   -1    0    0  502    0  0.00000000000E+00  0.00000000000E+00  0.64973110645E+02  0.64973110645E+02  0.00000000000E+00 0.  1.
         13   -1    0    0    0    0 -0.00000000000E+00 -0.00000000000E+00 -0.10000000000E+04  0.10000000000E+04  0.00000000000E+00 0.  1.
    9000005    2    1    2  501    0 -0.13203315319E-04  0.28590864076E-05 -0.93502722949E+03  0.10649727702E+04  0.50979513677E+03 0.  0.
         13    1    3    3    0    0 -0.28755150508E+02 -0.18757901401E+03 -0.82301580541E+03  0.84461101173E+03  0.00000000000E+00 0.  1.
          3    1    3    3  501    0  0.28755137304E+02  0.18757901687E+03 -0.11201142408E+03  0.22036175851E+03  0.00000000000E+00 0.  1.
         21    1    1    2  502  501  0.13203315318E-04 -0.28590864158E-05  0.34013431820E-03  0.34040249166E-03  0.00000000000E+00 0. -1.
<mgrwt>
<rscale>  1 0.50979514E+03</rscale>
<asrwt>0</asrwt>
<pdfrwt beam="1">  1        1 0.23626636E+00 0.50979514E+03</pdfrwt>
<pdfrwt beam="2">0</pdfrwt>
<totfact> 0.70784910E+00</totfact>
</mgrwt>
</event>
<event>
 6    1  0.2341564E-003  0.6516438E+03  0.7818608E-02  0.9803700E-01
          1   -1    0    0  502    0  0.00000000000E+00  0.00000000000E+00  0.10621678453E+03  0.10621678453E+03  0.00000000000E+00 0.  1.
         13   -1    0    0    0    0 -0.00000000000E+00 -0.00000000000E+00 -0.10000000000E+04  0.10000000000E+04  0.00000000000E+00 0.  1.
    9000005    2    1    2  501    0 -0.78102924948E-01 -0.36566197152E-01 -0.89380140007E+03  0.11061286492E+04  0.65164379719E+03 0.  0.
         13    1    3    3    0    0 -0.15914054249E+03  0.23420581344E+03 -0.72053810525E+03  0.77417907258E+03  0.00000000000E+00 0.  1.
          3    1    3    3  501    0  0.15906243956E+03 -0.23424237963E+03 -0.17326329482E+03  0.33194957664E+03  0.00000000000E+00 0.  1.
         21    1    1    2  502  501  0.78102924948E-01  0.36566197152E-01  0.18184595611E-01  0.88135311749E-01  0.00000000000E+00 0. -1.
<mgrwt>
<rscale>  1 0.65164380E+03</rscale>
<asrwt>0</asrwt>
<pdfrwt beam="1">  1        1 0.38624367E+00 0.65164380E+03</pdfrwt>
<pdfrwt beam="2">0</pdfrwt>
<totfact> 0.15394925E+00</totfact>
</mgrwt>
</event>
<event>
 6    1  0.2341564E-003  0.6452886E+03  0.7818608E-02  0.9815660E-01
          1   -1    0    0  502    0  0.00000000000E+00  0.00000000000E+00  0.11829030141E+03  0.11829030141E+03  0.00000000000E+00 0.  1.
         13   -1    0    0    0    0 -0.00000000000E+00 -0.00000000000E+00 -0.10000000000E+04  0.10000000000E+04  0.00000000000E+00 0.  1.
    9000005    2    1    2  501    0 -0.22765744403E+01 -0.16310007142E+01 -0.89574794173E+03  0.11039754411E+04  0.64528254010E+03 0.  0.
         13    1    3    3    0    0 -0.32372176560E+03 -0.66781654437E+01 -0.44594865941E+03  0.55109943408E+03  0.00000000000E+00 0.  1.
          3    1    3    3  501    0  0.32144519116E+03  0.50471647295E+01 -0.44979928232E+03  0.55287600704E+03  0.00000000000E+00 0.  1.
         21    1    1    2  502  501  0.22765744403E+01  0.16310007142E+01  0.14038243139E+02  0.14314860284E+02  0.00000000000E+00 0.  1.
<mgrwt>
<rscale>  1 0.64528862E+03</rscale>
<asrwt>0</asrwt>
<pdfrwt beam="1">  1        1 0.43014746E+00 0.64528862E+03</pdfrwt>
<pdfrwt beam="2">0</pdfrwt>
<totfact> 0.98006553E-01</totfact>
</mgrwt>
</event>
<event>
 6    1  0.2341564E-003  0.6096333E+03  0.7818608E-02  0.9885619E-01
          1   -1    0    0  502    0  0.00000000000E+00  0.00000000000E+00  0.92925174745E+02  0.92925174745E+02  0.00000000000E+00 0.  1.
         13   -1    0    0    0    0 -0.00000000000E+00 -0.00000000000E+00 -0.10000000000E+04  0.10000000000E+04  0.00000000000E+00 0.  1.
    9000005    2    1    2  501    0  0.43815484877E-02 -0.74111076053E-02 -0.90708510262E+03  0.10929117678E+04  0.60963329033E+03 0.  0.
         13    1    3    3    0    0 -0.30273727807E+03  0.87254001671E+01 -0.51527293500E+03  0.59768904096E+03  0.00000000000E+00 0.  1.
          3    1    3    3  501    0  0.30274165962E+03 -0.87328112747E+01 -0.39181216762E+03  0.49522272682E+03  0.00000000000E+00 0.  1.
         21    1    1    2  502  501 -0.43815484877E-02  0.74111076053E-02  0.10277364641E-01  0.13406964871E-01  0.00000000000E+00 0. -1.
<mgrwt>
<rscale>  1 0.60963329E+03</rscale>
<asrwt>0</asrwt>
<pdfrwt beam="1">  1        1 0.33791044E+00 0.60963329E+03</pdfrwt>
<pdfrwt beam="2">0</pdfrwt>
<totfact> 0.25254429E+00</totfact>
</mgrwt>
</event>
<event>
 6    1  0.2341564E-003  0.6497175E+03  0.7818608E-02  0.9807309E-01
          1   -1    0    0  502    0  0.00000000000E+00  0.00000000000E+00  0.10553355032E+03  0.10553355032E+03  0.00000000000E+00 0.  1.
         13   -1    0    0    0    0 -0.00000000000E+00 -0.00000000000E+00 -0.10000000000E+04  0.10000000000E+04  0.00000000000E+00 0.  1.
    9000005    2    1    2  501    0  0.19161385467E-04  0.90842859990E-04 -0.89446679241E+03  0.11055331952E+04  0.64971747940E+03 0.  0.
         13    1    3    3    0    0  0.40948565165E+02  0.72417863372E+02  0.87099946532E+02  0.12044721919E+03  0.00000000000E+00 0.  1.
          3    1    3    3  501    0 -0.40948546004E+02 -0.72417772529E+02 -0.98156673895E+03  0.98508597605E+03  0.00000000000E+00 0.  1.
         21    1    1    2  502  501 -0.19161385468E-04 -0.90842859997E-04  0.34272931549E-03  0.35508163512E-03  0.00000000000E+00 0.  1.
<mgrwt>
<rscale>  1 0.64971748E+03</rscale>
<asrwt>0</asrwt>
<pdfrwt beam="1">  1        1 0.38375917E+00 0.64971748E+03</pdfrwt>
<pdfrwt beam="2">0</pdfrwt>
<totfact> 0.15795072E+00</totfact>
</mgrwt>
</event>
<event>
 6    1  0.2341564E-003  0.6405880E+03  0.7818608E-02  0.9824602E-01
          1   -1    0    0  502    0  0.00000000000E+00  0.00000000000E+00  0.10262013998E+03  0.10262013998E+03  0.00000000000E+00 0.  1.
         13   -1    0    0    0    0 -0.00000000000E+00 -0.00000000000E+00 -0.10000000000E+04  0.10000000000E+04  0.00000000000E+00 0.  1.
    9000005    2    1    2  501    0  0.83561547340E-02  0.15361276071E-01 -0.89740909833E+03  0.11025860713E+04  0.64058797570E+03 0.  0.
         13    1    3    3    0    0  0.30450762808E+03 -0.10057217068E+02 -0.61879266464E+03  0.68973212553E+03  0.00000000000E+00 0.  1.
          1    1    3    3  501    0 -0.30449927193E+03  0.10072578345E+02 -0.27861643370E+03  0.41285394580E+03  0.00000000000E+00 0.  1.
         21    1    1    2  502  501 -0.83561547340E-02 -0.15361276071E-01  0.29238310633E-01  0.34068650298E-01  0.00000000000E+00 0. -1.
<mgrwt>
<rscale>  1 0.64058798E+03</rscale>
<asrwt>0</asrwt>
<pdfrwt beam="1">  1        1 0.37316493E+00 0.64058798E+03</pdfrwt>
<pdfrwt beam="2">0</pdfrwt>
<totfact> 0.17618143E+00</totfact>
</mgrwt>
</event>
<event>
 6    1  0.2341564E-003  0.4977322E+03  0.7818608E-02  0.1014373E+00
          1   -1    0    0  502    0  0.00000000000E+00  0.00000000000E+00  0.61934614087E+02  0.61934614087E+02  0.00000000000E+00 0.  1.
         13   -1    0    0    0    0 -0.00000000000E+00 -0.00000000000E+00 -0.10000000000E+04  0.10000000000E+04  0.00000000000E+00 0.  1.
    9000005    2    1    2  501    0 -0.82436046199E-04 -0.31082745963E-04 -0.93806564571E+03  0.10619343398E+04  0.49773224357E+03 0.  0.
         13    1    3    3    0    0 -0.22591273305E+03 -0.71593780267E+02 -0.30693770999E+03  0.38777956385E+03  0.00000000000E+00 0.  1.
          1    1    3    3  501    0  0.22591265061E+03  0.71593749184E+02 -0.63112793572E+03  0.67415477591E+03  0.00000000000E+00 0.  1.
         21    1    1    2  502  501  0.82436046214E-04  0.31082745957E-04  0.25979816973E-03  0.27432996155E-03  0.00000000000E+00 0.  1.
<mgrwt>
<rscale>  1 0.49773224E+03</rscale>
<asrwt>0</asrwt>
<pdfrwt beam="1">  1        1 0.22521725E+00 0.49773224E+03</pdfrwt>
<pdfrwt beam="2">0</pdfrwt>
<totfact> 0.79323782E+00</totfact>
</mgrwt>
</event>
<event>
 6    1  0.2341564E-003  0.6475562E+03  0.7818608E-02  0.9811376E-01
          1   -1    0    0  502    0  0.00000000000E+00  0.00000000000E+00  0.10538512318E+03  0.10538512318E+03  0.00000000000E+00 0.  1.
         13   -1    0    0    0    0 -0.00000000000E+00 -0.00000000000E+00 -0.10000000000E+04  0.10000000000E+04  0.00000000000E+00 0.  1.
    9000005    2    1    2  501    0 -0.16972145079E-01 -0.15109037112E-01 -0.89516749232E+03  0.11048320407E+04  0.64755617387E+03 0.  0.
         13    1    3    3    0    0  0.25902709520E+03 -0.87427974831E+02 -0.74353745598E+03  0.79220365770E+03  0.00000000000E+00 0.  1.
          1    1    3    3  501    0 -0.25904406735E+03  0.87412865794E+02 -0.15163003635E+03  0.31262838300E+03  0.00000000000E+00 0.  1.
         21    1    1    2  502  501  0.16972145079E-01  0.15109037112E-01  0.55261550004E+00  0.55308247812E+00  0.00000000000E+00 0. -1.
<mgrwt>
<rscale>  1 0.64755617E+03</rscale>
<asrwt>0</asrwt>
<pdfrwt beam="1">  1        1 0.38321944E+00 0.64755617E+03</pdfrwt>
<pdfrwt beam="2">0</pdfrwt>
<totfact> 0.15888406E+00</totfact>
</mgrwt>
</event>
<event>
 6    1  0.2341564E-003  0.5647266E+03  0.7818608E-02  0.9981416E-01
          1   -1    0    0  502    0  0.00000000000E+00  0.00000000000E+00  0.79734102695E+02  0.79734102695E+02  0.00000000000E+00 0.  1.
         13   -1    0    0    0    0 -0.00000000000E+00 -0.00000000000E+00 -0.10000000000E+04  0.10000000000E+04  0.00000000000E+00 0.  1.
    9000005    2    1    2  501    0  0.31202009964E-04 -0.12934244871E-02 -0.92027087902E+03  0.10797289557E+04  0.56472659493E+03 0.  0.
         13    1    3    3    0    0  0.78650578459E+02 -0.26649144630E+03 -0.55622546712E+03  0.62176392202E+03  0.00000000000E+00 0.  1.
          1    1    3    3  501    0 -0.78650547257E+02  0.26649015288E+03 -0.36404541190E+03  0.45796503370E+03  0.00000000000E+00 0.  1.
         21    1    1    2  502  501 -0.31202009965E-04  0.12934244871E-02  0.49817170238E-02  0.51469821230E-02  0.00000000000E+00 0.  1.
<mgrwt>
<rscale>  1 0.56472659E+03</rscale>
<asrwt>0</asrwt>
<pdfrwt beam="1">  1        1 0.28994280E+00 0.56472659E+03</pdfrwt>
<pdfrwt beam="2">0</pdfrwt>
<totfact> 0.41029270E+00</totfact>
</mgrwt>
</event>
<event>
 6    1  0.2341564E-003  0.6316321E+03  0.7818608E-02  0.9841869E-01
          1   -1    0    0  502    0  0.00000000000E+00  0.00000000000E+00  0.99986342686E+02  0.99986342686E+02  0.00000000000E+00 0.  1.
         13   -1    0    0    0    0 -0.00000000000E+00 -0.00000000000E+00 -0.10000000000E+04  0.10000000000E+04  0.00000000000E+00 0.  1.
    9000005    2    1    2  501    0 -0.25888159289E-01 -0.20643930118E-01 -0.90025900155E+03  0.10997387742E+04  0.63163209266E+03 0.  0.
         13    1    3    3    0    0 -0.23005831713E+03 -0.19426473316E+03 -0.28420594194E+03  0.41405148625E+03  0.00000000000E+00 0.  1.
          1    1    3    3  501    0  0.23003242897E+03  0.19424408923E+03 -0.61605305961E+03  0.68568728794E+03  0.00000000000E+00 0.  1.
         21    1    1    2  502  501  0.25888159289E-01  0.20643930118E-01  0.24534423740E+00  0.24756850258E+00  0.00000000000E+00 0. -1.
<mgrwt>
<rscale>  1 0.63163209E+03</rscale>
<asrwt>0</asrwt>
<pdfrwt beam="1">  1        1 0.36358747E+00 0.63163209E+03</pdfrwt>
<pdfrwt beam="2">0</pdfrwt>
<totfact> 0.19440199E+00</totfact>
</mgrwt>
</event>
<event>
 6    1  0.2341564E-003  0.5341708E+03  0.7818608E-02  0.1005226E+00
          1   -1    0    0  502    0  0.00000000000E+00  0.00000000000E+00  0.71335109853E+02  0.71335109853E+02  0.00000000000E+00 0.  1.
         13   -1    0    0    0    0 -0.00000000000E+00 -0.00000000000E+00 -0.10000000000E+04  0.10000000000E+04  0.00000000000E+00 0.  1.
    9000005    2    1    2  501    0 -0.10358313583E-02  0.54537957837E-03 -0.92866456759E+03  0.10713338956E+04  0.53417079361E+03 0.  0.
         13    1    3    3    0    0  0.22171985828E+02 -0.18199771803E+03 -0.74812622279E+02  0.19801943030E+03  0.00000000000E+00 0.  1.
          1    1    3    3  501    0 -0.22173021660E+02  0.18199826341E+03 -0.85385194531E+03  0.87331446529E+03  0.00000000000E+00 0.  1.
         21    1    1    2  502  501  0.10358313583E-02 -0.54537957838E-03 -0.32255358972E-03  0.12142595710E-02  0.00000000000E+00 0.  1.
<mgrwt>
<rscale>  1 0.53417079E+03</rscale>
<asrwt>0</asrwt>
<pdfrwt beam="1">  1        1 0.25940095E+00 0.53417079E+03</pdfrwt>
<pdfrwt beam="2">0</pdfrwt>
<totfact> 0.55894714E+00</totfact>
</mgrwt>
</event>
<event>
 6    1  0.2341564E-003  0.6403413E+03  0.7818608E-02  0.9825074E-01
          1   -1    0    0  502    0  0.00000000000E+00  0.00000000000E+00  0.10252958990E+03  0.10252958990E+03  0.00000000000E+00 0.  1.
         13   -1    0    0    0    0 -0.00000000000E+00 -0.00000000000E+00 -0.10000000000E+04  0.10000000000E+04  0.00000000000E+00 0.  1.
    9000005    2    1    2  501    0 -0.48364441841E-02  0.39350589837E-02 -0.89749022972E+03  0.11025088127E+04  0.64034129145E+03 0.  0.
         13    1    3    3    0    0 -0.27246215535E+03 -0.16242723228E+03 -0.37386149564E+03  0.49029649174E+03  0.00000000000E+00 0.  1.
          3    1    3    3  501    0  0.27245731891E+03  0.16243116734E+03 -0.52362873408E+03  0.61221232093E+03  0.00000000000E+00 0.  1.
         21    1    1    2  502  501  0.48364441841E-02 -0.39350589837E-02  0.19819624651E-01  0.20777232801E-01  0.00000000000E+00 0.  1.
<mgrwt>
<rscale>  1 0.64034129E+03</rscale>
<asrwt>0</asrwt>
<pdfrwt beam="1">  1        1 0.37283566E+00 0.64034129E+03</pdfrwt>
<pdfrwt beam="2">0</pdfrwt>
<totfact> 0.17677782E+00</totfact>
</mgrwt>
</event>
<event>
 6    1  0.2341564E-003  0.6486130E+03  0.7818608E-02  0.9809385E-01
          1   -1    0    0  502    0  0.00000000000E+00  0.00000000000E+00  0.10517552936E+03  0.10517552936E+03  0.00000000000E+00 0.  1.
         13   -1    0    0    0    0 -0.00000000000E+00 -0.00000000000E+00 -0.10000000000E+04  0.10000000000E+04  0.00000000000E+00 0.  1.
    9000005    2    1    2  501    0  0.57223751139E-03  0.36213034306E-03 -0.89482513864E+03  0.11051745781E+04  0.64861299665E+03 0.  0.
         13    1    3    3    0    0  0.72685928187E+02  0.20879343588E+03 -0.43128031554E+02  0.22525090484E+03  0.00000000000E+00 0.  1.
          1    1    3    3  501    0 -0.72685355949E+02 -0.20879307375E+03 -0.85169710709E+03  0.87992367330E+03  0.00000000000E+00 0.  1.
         21    1    1    2  502  501 -0.57223751139E-03 -0.36213034305E-03  0.66800023936E-03  0.95121946710E-03  0.00000000000E+00 0. -1.
<mgrwt>
<rscale>  1 0.64861300E+03</rscale>
<asrwt>0</asrwt>
<pdfrwt beam="1">  1        1 0.38245728E+00 0.64861300E+03</pdfrwt>
<pdfrwt beam="2">0</pdfrwt>
<totfact> 0.16008961E+00</totfact>
</mgrwt>
</event>
<event>
 6    1  0.2341564E-003  0.6525029E+03  0.7818608E-02  0.9802094E-01
          1   -1    0    0  502    0  0.00000000000E+00  0.00000000000E+00  0.10645188186E+03  0.10645188186E+03  0.00000000000E+00 0.  1.
         13   -1    0    0    0    0 -0.00000000000E+00 -0.00000000000E+00 -0.10000000000E+04  0.10000000000E+04  0.00000000000E+00 0.  1.
    9000005    2    1    2  501    0 -0.78096617194E-03  0.67722663113E-03 -0.89355998180E+03  0.11064399732E+04  0.65250285311E+03 0.  0.
         13    1    3    3    0    0  0.12268301921E+03  0.28241417733E+03 -0.62965659263E+03  0.70091106098E+03  0.00000000000E+00 0.  1.
          1    1    3    3  501    0 -0.12268380017E+03 -0.28241350011E+03 -0.26390338918E+03  0.40552891227E+03  0.00000000000E+00 0.  1.
         21    1    1    2  502  501  0.78096617194E-03 -0.67722663114E-03  0.11863662768E-01  0.11908611940E-01  0.00000000000E+00 0.  1.
<mgrwt>
<rscale>  1 0.65250285E+03</rscale>
<asrwt>0</asrwt>
<pdfrwt beam="1">  1        1 0.38709857E+00 0.65250285E+03</pdfrwt>
<pdfrwt beam="2">0</pdfrwt>
<totfact> 0.15258924E+00</totfact>
</mgrwt>
</event>
<event>
 6    1  0.2341564E-003  0.6442020E+03  0.7818608E-02  0.9817720E-01
          1   -1    0    0  502    0  0.00000000000E+00  0.00000000000E+00  0.10374948540E+03  0.10374948540E+03  0.00000000000E+00 0.  1.
         13   -1    0    0    0    0 -0.00000000000E+00 -0.00000000000E+00 -0.10000000000E+04  0.10000000000E+04  0.00000000000E+00 0.  1.
    9000005    2    1    2  501    0 -0.95519527008E-05 -0.22812960395E-04 -0.89625094993E+03  0.11037490494E+04  0.64420198596E+03 0.  0.
         13    1    3    3    0    0 -0.14186440126E+03 -0.23367465034E+03 -0.73999907001E+03  0.78887766743E+03  0.00000000000E+00 0.  1.
          1    1    3    3  501    0  0.14186439170E+03  0.23367462752E+03 -0.15625187992E+03  0.31487138194E+03  0.00000000000E+00 0.  1.
         21    1    1    2  502  501  0.95519527143E-05  0.22812960404E-04  0.43532817597E-03  0.43603015005E-03  0.00000000000E+00 0.  1.
<mgrwt>
<rscale>  1 0.64420199E+03</rscale>
<asrwt>0</asrwt>
<pdfrwt beam="1">  1        1 0.37727165E+00 0.64420199E+03</pdfrwt>
<pdfrwt beam="2">0</pdfrwt>
<totfact> 0.16888616E+00</totfact>
</mgrwt>
</event>
<event>
 6    1  0.2341564E-003  0.6648339E+03  0.7818608E-02  0.9779336E-01
          1   -1    0    0  502    0  0.00000000000E+00  0.00000000000E+00  0.11050132451E+03  0.11050132451E+03  0.00000000000E+00 0.  1.
         13   -1    0    0    0    0 -0.00000000000E+00 -0.00000000000E+00 -0.10000000000E+04  0.10000000000E+04  0.00000000000E+00 0.  1.
    9000005    2    1    2  501    0 -0.97497939620E-04  0.52488397642E-04 -0.88949895188E+03  0.11105010268E+04  0.66483392291E+03 0.  0.
         13    1    3    3    0    0  0.31505591874E+02 -0.15904541073E+03 -0.92947433192E+03  0.94350971309E+03  0.00000000000E+00 0.  1.
          1    1    3    3  501    0 -0.31505689372E+02  0.15904546322E+03  0.39975380045E+02  0.16699131368E+03  0.00000000000E+00 0.  1.
         21    1    1    2  502  501  0.97497939620E-04 -0.52488397654E-04  0.27638974358E-03  0.29774514350E-03  0.00000000000E+00 0. -1.
<mgrwt>
<rscale>  1 0.66483392E+03</rscale>
<asrwt>0</asrwt>
<pdfrwt beam="1">  1        1 0.40182385E+00 0.66483392E+03</pdfrwt>
<pdfrwt beam="2">0</pdfrwt>
<totfact> 0.13093724E+00</totfact>
</mgrwt>
</event>
<event>
 6    1  0.2341564E-003  0.6556923E+03  0.7818608E-02  0.9796156E-01
          1   -1    0    0  502    0  0.00000000000E+00  0.00000000000E+00  0.10748772457E+03  0.10748772457E+03  0.00000000000E+00 0.  1.
         13   -1    0    0    0    0 -0.00000000000E+00 -0.00000000000E+00 -0.10000000000E+04  0.10000000000E+04  0.00000000000E+00 0.  1.
    9000005    2    1    2  501    0  0.79073814342E-02  0.29802772019E-03 -0.89251283548E+03  0.11074797918E+04  0.65569225072E+03 0.  0.
         13    1    3    3    0    0  0.14923151522E+03 -0.29190054939E+03 -0.45109504033E+03  0.55764030636E+03  0.00000000000E+00 0.  1.
          3    1    3    3  501    0 -0.14922360783E+03  0.29190084742E+03 -0.44141779514E+03  0.54983948542E+03  0.00000000000E+00 0.  1.
         21    1    1    2  502  501 -0.79073814342E-02 -0.29802772019E-03  0.56005109854E-03  0.79327901082E-02  0.00000000000E+00 0.  1.
<mgrwt>
<rscale>  1 0.65569225E+03</rscale>
<asrwt>0</asrwt>
<pdfrwt beam="1">  1        1 0.39086528E+00 0.65569225E+03</pdfrwt>
<pdfrwt beam="2">0</pdfrwt>
<totfact> 0.14674783E+00</totfact>
</mgrwt>
</event>
<event>
 6    1  0.2341564E-003  0.6442322E+03  0.7818608E-02  0.9817663E-01
          1   -1    0    0  502    0  0.00000000000E+00  0.00000000000E+00  0.10567891705E+03  0.10567891705E+03  0.00000000000E+00 0.  1.
         13   -1    0    0    0    0 -0.00000000000E+00 -0.00000000000E+00 -0.10000000000E+04  0.10000000000E+04  0.00000000000E+00 0.  1.
    9000005    2    1    2  501    0 -0.20571233402E+00  0.32225984267E+00 -0.89622017942E+03  0.11037417190E+04  0.64423212124E+03 0.  0.
         13    1    3    3    0    0 -0.11203637447E+03 -0.23779493330E+03 -0.12927794756E+03  0.29293577322E+03  0.00000000000E+00 0.  1.
          3    1    3    3  501    0  0.11183066213E+03  0.23811719314E+03 -0.76694223186E+03  0.81080594576E+03  0.00000000000E+00 0.  1.
         21    1    1    2  502  501  0.20571233402E+00 -0.32225984267E+00  0.18990964746E+01  0.19371980772E+01  0.00000000000E+00 0.  1.
<mgrwt>
<rscale>  1 0.64423223E+03</rscale>
<asrwt>0</asrwt>
<pdfrwt beam="1">  1        1 0.38428778E+00 0.64423223E+03</pdfrwt>
<pdfrwt beam="2">0</pdfrwt>
<totfact> 0.15726276E+00</totfact>
</mgrwt>
</event>
<event>
 6    1  0.2341564E-003  0.7122235E+03  0.7818608E-02  0.9696554E-01
          1   -1    0    0  502    0  0.00000000000E+00  0.00000000000E+00  0.12681835703E+03  0.12681835703E+03  0.00000000000E+00 0.  1.
         13   -1    0    0    0    0 -0.00000000000E+00 -0.00000000000E+00 -0.10000000000E+04  0.10000000000E+04  0.00000000000E+00 0.  1.
    9000005    2    1    2  501    0 -0.56143475047E-03 -0.15520569131E-03 -0.87318440098E+03  0.11268155382E+04  0.71222346140E+03 0.  0.
         13    1    3    3    0    0  0.32270545739E+03  0.84759430207E+02 -0.23966912934E+03  0.41080928032E+03  0.00000000000E+00 0.  1.
          3    1    3    3  501    0 -0.32270601882E+03 -0.84759585413E+02 -0.63351527163E+03  0.71600625786E+03  0.00000000000E+00 0.  1.
         21    1    1    2  502  501  0.56143475044E-03  0.15520569132E-03  0.27580081088E-02  0.28188484376E-02  0.00000000000E+00 0.  1.
<mgrwt>
<rscale>  1 0.71222346E+03</rscale>
<asrwt>0</asrwt>
<pdfrwt beam="1">  1        1 0.46115863E+00 0.71222346E+03</pdfrwt>
<pdfrwt beam="2">0</pdfrwt>
<totfact> 0.69654647E-01</totfact>
</mgrwt>
</event>
<event>
 6    1  0.2341564E-003  0.6447319E+03  0.7818608E-02  0.9816715E-01
          1   -1    0    0  502    0  0.00000000000E+00  0.00000000000E+00  0.10393004197E+03  0.10393004197E+03  0.00000000000E+00 0.  1.
         13   -1    0    0    0    0 -0.00000000000E+00 -0.00000000000E+00 -0.10000000000E+04  0.10000000000E+04  0.00000000000E+00 0.  1.
    9000005    2    1    2  501    0  0.14112828455E-02 -0.14155863185E-02 -0.89608008784E+03  0.11039197168E+04  0.64473189572E+03 0.  0.
         13    1    3    3    0    0  0.30639146789E+03  0.71473909986E+02 -0.56833388478E+03  0.64960576967E+03  0.00000000000E+00 0.  1.
          1    1    3    3  501    0 -0.30639005660E+03 -0.71475325572E+02 -0.32774620306E+03  0.45431394715E+03  0.00000000000E+00 0.  1.
         21    1    1    2  502  501 -0.14112828455E-02  0.14155863185E-02  0.10129812071E-01  0.10325148739E-01  0.00000000000E+00 0. -1.
<mgrwt>
<rscale>  1 0.64473190E+03</rscale>
<asrwt>0</asrwt>
<pdfrwt beam="1">  1        1 0.37792822E+00 0.64473190E+03</pdfrwt>
<pdfrwt beam="2">0</pdfrwt>
<totfact> 0.16774835E+00</totfact>
</mgrwt>
</event>
<event>
 6    1  0.2341564E-003  0.6588156E+03  0.7818608E-02  0.9790377E-01
          1   -1    0    0  502    0  0.00000000000E+00  0.00000000000E+00  0.11178328798E+03  0.11178328798E+03  0.00000000000E+00 0.  1.
         13   -1    0    0    0    0 -0.00000000000E+00 -0.00000000000E+00 -0.10000000000E+04  0.10000000000E+04  0.00000000000E+00 0.  1.
    9000005    2    1    2  501    0 -0.41923667086E+00  0.29067297251E+00 -0.89146847220E+03  0.11084917542E+04  0.65881535501E+03 0.  0.
         13    1    3    3    0    0  0.30090381766E+03  0.11768891985E+03 -0.33881714896E+03  0.46817822436E+03  0.00000000000E+00 0.  1.
          1    1    3    3  501    0 -0.30132305433E+03 -0.11739824688E+03 -0.55265132325E+03  0.64031352986E+03  0.00000000000E+00 0.  1.
         21    1    1    2  502  501  0.41923667086E+00 -0.29067297251E+00  0.32517601870E+01  0.32915337575E+01  0.00000000000E+00 0.  1.
<mgrwt>
<rscale>  1 0.65881555E+03</rscale>
<asrwt>0</asrwt>
<pdfrwt beam="1">  1        1 0.40648554E+00 0.65881555E+03</pdfrwt>
<pdfrwt beam="2">0</pdfrwt>
<totfact> 0.12494582E+00</totfact>
</mgrwt>
</event>
<event>
 6    1  0.2341564E-003  0.6489819E+03  0.7818608E-02  0.9808691E-01
          1   -1    0    0  502    0  0.00000000000E+00  0.00000000000E+00  0.10529474759E+03  0.10529474759E+03  0.00000000000E+00 0.  1.
         13   -1    0    0    0    0 -0.00000000000E+00 -0.00000000000E+00 -0.10000000000E+04  0.10000000000E+04  0.00000000000E+00 0.  1.
    9000005    2    1    2  501    0  0.36490033494E-04  0.34461046567E-05 -0.89470561731E+03  0.11052943809E+04  0.64898191555E+03 0.  0.
         13    1    3    3    0    0 -0.31214221370E+03  0.79756691818E+02 -0.51332489020E+03  0.60604977878E+03  0.00000000000E+00 0.  1.
          3    1    3    3  501    0  0.31214225019E+03 -0.79756688372E+02 -0.38138072711E+03  0.49924460208E+03  0.00000000000E+00 0.  1.
         21    1    1    2  502  501 -0.36490033465E-04 -0.34461046549E-05  0.36490274925E-03  0.36673889157E-03  0.00000000000E+00 0.  1.
<mgrwt>
<rscale>  1 0.64898192E+03</rscale>
<asrwt>0</asrwt>
<pdfrwt beam="1">  1        1 0.38289080E+00 0.64898192E+03</pdfrwt>
<pdfrwt beam="2">0</pdfrwt>
<totfact> 0.15937430E+00</totfact>
</mgrwt>
</event>
<event>
 6    1  0.2341564E-003  0.6513804E+03  0.7818608E-02  0.9804192E-01
          1   -1    0    0  502    0  0.00000000000E+00  0.00000000000E+00  0.10607423013E+03  0.10607423013E+03  0.00000000000E+00 0.  1.
         13   -1    0    0    0    0 -0.00000000000E+00 -0.00000000000E+00 -0.10000000000E+04  0.10000000000E+04  0.00000000000E+00 0.  1.
    9000005    2    1    2  501    0 -0.42469978059E-05 -0.29282962117E-05 -0.89392588640E+03  0.11060741135E+04  0.65138042198E+03 0.  0.
         13    1    3    3    0    0  0.13679463512E+02 -0.11724320418E+03 -0.96240046311E+03  0.96961216372E+03  0.00000000000E+00 0.  1.
          3    1    3    3  501    0 -0.13679467759E+02  0.11724320125E+03  0.68474576702E+02  0.13646194976E+03  0.00000000000E+00 0.  1.
         21    1    1    2  502  501  0.42469978065E-05  0.29282962088E-05  0.11653159607E-03  0.11664572341E-03  0.00000000000E+00 0. -1.
<mgrwt>
<rscale>  1 0.65138042E+03</rscale>
<asrwt>0</asrwt>
<pdfrwt beam="1">  1        1 0.38572529E+00 0.65138042E+03</pdfrwt>
<pdfrwt beam="2">0</pdfrwt>
<totfact> 0.15477215E+00</totfact>
</mgrwt>
</event>
<event>
 6    1  0.2341564E-003  0.6455715E+03  0.7818608E-02  0.9815125E-01
          1   -1    0    0  502    0  0.00000000000E+00  0.00000000000E+00  0.10419094608E+03  0.10419094608E+03  0.00000000000E+00 0.  1.
         13   -1    0    0    0    0 -0.00000000000E+00 -0.00000000000E+00 -0.10000000000E+04  0.10000000000E+04  0.00000000000E+00 0.  1.
    9000005    2    1    2  501    0 -0.50936226560E-03 -0.45864125275E-03 -0.89580880569E+03  0.11041902171E+04  0.64557154459E+03 0.  0.
         13    1    3    3    0    0 -0.46412039296E+01 -0.32067637677E+03 -0.38538881818E+03  0.50137752300E+03  0.00000000000E+00 0.  1.
          1    1    3    3  501    0  0.46406945673E+01  0.32067591813E+03 -0.51041998751E+03  0.60281269410E+03  0.00000000000E+00 0.  1.
         21    1    1    2  502  501  0.50936226560E-03  0.45864125279E-03 -0.24823025694E-03  0.72898558068E-03  0.00000000000E+00 0.  1.
<mgrwt>
<rscale>  1 0.64557154E+03</rscale>
<asrwt>0</asrwt>
<pdfrwt beam="1">  1        1 0.37887697E+00 0.64557154E+03</pdfrwt>
<pdfrwt beam="2">0</pdfrwt>
<totfact> 0.16611486E+00</totfact>
</mgrwt>
</event>
<event>
 6    1  0.2341564E-003  0.5979722E+03  0.7818608E-02  0.9909622E-01
          1   -1    0    0  502    0  0.00000000000E+00  0.00000000000E+00  0.89396322003E+02  0.89396322003E+02  0.00000000000E+00 0.  1.
         13   -1    0    0    0    0 -0.00000000000E+00 -0.00000000000E+00 -0.10000000000E+04  0.10000000000E+04  0.00000000000E+00 0.  1.
    9000005    2    1    2  501    0 -0.41061643174E-03  0.90987607695E-03 -0.91060723863E+03  0.10893926241E+04  0.59797219531E+03 0.  0.
         13    1    3    3    0    0  0.25130140461E+03 -0.16046299615E+03 -0.49569909485E+03  0.57846206594E+03  0.00000000000E+00 0.  1.
          3    1    3    3  501    0 -0.25130181523E+03  0.16046390603E+03 -0.41490814378E+03  0.51093055815E+03  0.00000000000E+00 0.  1.
         21    1    1    2  502  501  0.41061643173E-03 -0.90987607694E-03  0.35606338700E-02  0.36979175066E-02  0.00000000000E+00 0.  1.
<mgrwt>
<rscale>  1 0.59797220E+03</rscale>
<asrwt>0</asrwt>
<pdfrwt beam="1">  1        1 0.32507822E+00 0.59797220E+03</pdfrwt>
<pdfrwt beam="2">0</pdfrwt>
<totfact> 0.28763311E+00</totfact>
</mgrwt>
</event>
<event>
 6    1  0.2341564E-003  0.6297386E+03  0.7818608E-02  0.9845559E-01
          1   -1    0    0  502    0  0.00000000000E+00  0.00000000000E+00  0.99144894102E+02  0.99144894102E+02  0.00000000000E+00 0.  1.
         13   -1    0    0    0    0 -0.00000000000E+00 -0.00000000000E+00 -0.10000000000E+04  0.10000000000E+04  0.00000000000E+00 0.  1.
    9000005    2    1    2  501    0 -0.23890531835E-04  0.19733640556E-04 -0.90085731626E+03  0.10991426835E+04  0.62973862395E+03 0.  0.
         13    1    3    3    0    0  0.59114456511E+02 -0.83961359606E+02 -0.96995466540E+03  0.97537484169E+03  0.00000000000E+00 0.  1.
          1    1    3    3  501    0 -0.59114480401E+02  0.83961379340E+02  0.69097349141E+02  0.12376784183E+03  0.00000000000E+00 0.  1.
         21    1    1    2  502  501  0.23890531834E-04 -0.19733640556E-04  0.22103592089E-02  0.22105763969E-02  0.00000000000E+00 0.  1.
<mgrwt>
<rscale>  1 0.62973862E+03</rscale>
<asrwt>0</asrwt>
<pdfrwt beam="1">  1        1 0.36052765E+00 0.62973862E+03</pdfrwt>
<pdfrwt beam="2">0</pdfrwt>
<totfact> 0.20055907E+00</totfact>
</mgrwt>
</event>
<event>
 6    1  0.2341564E-003  0.6312413E+03  0.7818608E-02  0.9842629E-01
          1   -1    0    0  502    0  0.00000000000E+00  0.00000000000E+00  0.99673351868E+02  0.99673351868E+02  0.00000000000E+00 0.  1.
         13   -1    0    0    0    0 -0.00000000000E+00 -0.00000000000E+00 -0.10000000000E+04  0.10000000000E+04  0.00000000000E+00 0.  1.
    9000005    2    1    2  501    0 -0.63318809200E-02 -0.22663556939E-01 -0.90038091814E+03  0.10996141998E+04  0.63124130900E+03 0.  0.
         13    1    3    3    0    0 -0.25233138928E+03  0.18848051245E+03 -0.48578621440E+03  0.57895101666E+03  0.00000000000E+00 0.  1.
          3    1    3    3  501    0  0.25232505740E+03 -0.18850317600E+03 -0.41459470374E+03  0.52066318318E+03  0.00000000000E+00 0.  1.
         21    1    1    2  502  501  0.63318809200E-02  0.22663556939E-01  0.54270002648E-01  0.59152030536E-01  0.00000000000E+00 0. -1.
<mgrwt>
<rscale>  1 0.63124131E+03</rscale>
<asrwt>0</asrwt>
<pdfrwt beam="1">  1        1 0.36244932E+00 0.63124131E+03</pdfrwt>
<pdfrwt beam="2">0</pdfrwt>
<totfact> 0.19665956E+00</totfact>
</mgrwt>
</event>
<event>
 6    1  0.2341564E-003  0.6511973E+03  0.7818608E-02  0.9804535E-01
          1   -1    0    0  502    0  0.00000000000E+00  0.00000000000E+00  0.10601450711E+03  0.10601450711E+03  0.00000000000E+00 0.  1.
         13   -1    0    0    0    0 -0.00000000000E+00 -0.00000000000E+00 -0.10000000000E+04  0.10000000000E+04  0.00000000000E+00 0.  1.
    9000005    2    1    2  501    0 -0.62439675617E-05 -0.15299862781E-05 -0.89398552950E+03  0.11060144699E+04  0.65119726717E+03 0.  0.
         13    1    3    3    0    0  0.31311865199E+03 -0.78554559350E+02 -0.51905833272E+03  0.61125744313E+03  0.00000000000E+00 0.  1.
          3    1    3    3  501    0 -0.31311865824E+03  0.78554557820E+02 -0.37492719678E+03  0.49475702681E+03  0.00000000000E+00 0.  1.
         21    1    1    2  502  501  0.62439675202E-05  0.15299862791E-05  0.36604389488E-04  0.37164624553E-04  0.00000000000E+00 0.  1.
<mgrwt>
<rscale>  1 0.65119727E+03</rscale>
<asrwt>0</asrwt>
<pdfrwt beam="1">  1        1 0.38550811E+00 0.65119727E+03</pdfrwt>
<pdfrwt beam="2">0</pdfrwt>
<totfact> 0.15512023E+00</totfact>
</mgrwt>
</event>
<event>
 6    1  0.2341564E-003  0.6387676E+03  0.7818608E-02  0.9828087E-01
          1   -1    0    0  502    0  0.00000000000E+00  0.00000000000E+00  0.10207980548E+03  0.10207980548E+03  0.00000000000E+00 0.  1.
         13   -1    0    0    0    0 -0.00000000000E+00 -0.00000000000E+00 -0.10000000000E+04  0.10000000000E+04  0.00000000000E+00 0.  1.
    9000005    2    1    2  501    0  0.46008934819E-02  0.15696492682E-01 -0.89799299739E+03  0.11020051877E+04  0.63876757134E+03 0.  0.
         13    1    3    3    0    0 -0.31095109911E+03  0.31683502076E+02 -0.33572530612E+03  0.45870024146E+03  0.00000000000E+00 0.  1.
          3    1    3    3  501    0  0.31095570000E+03 -0.31667805583E+02 -0.56226769127E+03  0.64330494629E+03  0.00000000000E+00 0.  1.
         21    1    1    2  502  501 -0.46008934819E-02 -0.15696492682E-01  0.72802869470E-01  0.74617731849E-01  0.00000000000E+00 0. -1.
<mgrwt>
<rscale>  1 0.63876757E+03</rscale>
<asrwt>0</asrwt>
<pdfrwt beam="1">  1        1 0.37120008E+00 0.63876757E+03</pdfrwt>
<pdfrwt beam="2">0</pdfrwt>
<totfact> 0.17978033E+00</totfact>
</mgrwt>
</event>
<event>
 6    1  0.2341564E-003  0.6523221E+03  0.7818608E-02  0.9802432E-01
          3   -1    0    0  502    0  0.00000000000E+00  0.00000000000E+00  0.10659293882E+03  0.10659293882E+03  0.00000000000E+00 0.  1.
         13   -1    0    0    0    0 -0.00000000000E+00 -0.00000000000E+00 -0.10000000000E+04  0.10000000000E+04  0.00000000000E+00 0.  1.
    9000005    2    1    2  501    0 -0.63031436554E-01  0.47159350352E-01 -0.89361084768E+03  0.11063744762E+04  0.65232210477E+03 0.  0.
         13    1    3    3    0    0 -0.25656087916E+03 -0.45541106459E+02 -0.77961451027E+03  0.82200745843E+03  0.00000000000E+00 0.  1.
          1    1    3    3  501    0  0.25649784773E+03  0.45588265809E+02 -0.11399633741E+03  0.28436701780E+03  0.00000000000E+00 0.  1.
         21    1    1    2  502  501  0.63031436554E-01 -0.47159350352E-01  0.20378650184E+00  0.21846259325E+00  0.00000000000E+00 0. -1.
<mgrwt>
<rscale>  1 0.65232211E+03</rscale>
<asrwt>0</asrwt>
<pdfrwt beam="1">  1        3 0.38761150E+00 0.65232211E+03</pdfrwt>
<pdfrwt beam="2">0</pdfrwt>
<totfact> 0.68787792E-02</totfact>
</mgrwt>
</event>
<event>
 6    1  0.2341564E-003  0.6423971E+03  0.7818608E-02  0.9821151E-01
          1   -1    0    0  502    0  0.00000000000E+00  0.00000000000E+00  0.10316910403E+03  0.10316910403E+03  0.00000000000E+00 0.  1.
         13   -1    0    0    0    0 -0.00000000000E+00 -0.00000000000E+00 -0.10000000000E+04  0.10000000000E+04  0.00000000000E+00 0.  1.
    9000005    2    1    2  501    0  0.64984715135E-03 -0.31636455560E-03 -0.89683124860E+03  0.11031682998E+04  0.64239708070E+03 0.  0.
         13    1    3    3    0    0  0.24842905789E+03 -0.20338072254E+03 -0.46452671208E+03  0.56468201790E+03  0.00000000000E+00 0.  1.
          1    1    3    3  501    0 -0.24842840804E+03  0.20338040617E+03 -0.43230453652E+03  0.53848628194E+03  0.00000000000E+00 0.  1.
         21    1    1    2  502  501 -0.64984715137E-03  0.31636455561E-03  0.35262892374E-03  0.80419836486E-03  0.00000000000E+00 0.  1.
<mgrwt>
<rscale>  1 0.64239708E+03</rscale>
<asrwt>0</asrwt>
<pdfrwt beam="1">  1        1 0.37516117E+00 0.64239708E+03</pdfrwt>
<pdfrwt beam="2">0</pdfrwt>
<totfact> 0.17259682E+00</totfact>
</mgrwt>
</event>
<event>
 6    1  0.2341564E-003  0.6548128E+03  0.7818608E-02  0.9797790E-01
          1   -1    0    0  502    0  0.00000000000E+00  0.00000000000E+00  0.10719848916E+03  0.10719848916E+03  0.00000000000E+00 0.  1.
         13   -1    0    0    0    0 -0.00000000000E+00 -0.00000000000E+00 -0.10000000000E+04  0.10000000000E+04  0.00000000000E+00 0.  1.
    9000005    2    1    2  501    0 -0.10897102260E-03  0.14663298202E-05 -0.89280503830E+03  0.11071949600E+04  0.65481283058E+03 0.  0.
         13    1    3    3    0    0  0.17219283015E+03  0.16982429051E+03 -0.81955853443E+03  0.85449801156E+03  0.00000000000E+00 0.  1.
          1    1    3    3  501    0 -0.17219293912E+03 -0.16982428905E+03 -0.73246503864E+02  0.25269694846E+03  0.00000000000E+00 0.  1.
         21    1    1    2  502  501  0.10897102258E-03 -0.14663298290E-05  0.35274578316E-02  0.35291409135E-02  0.00000000000E+00 0. -1.
<mgrwt>
<rscale>  1 0.65481283E+03</rscale>
<asrwt>0</asrwt>
<pdfrwt beam="1">  1        1 0.38981351E+00 0.65481283E+03</pdfrwt>
<pdfrwt beam="2">0</pdfrwt>
<totfact> 0.14835690E+00</totfact>
</mgrwt>
</event>
<event>
 6    1  0.2341564E-003  0.6494301E+03  0.7818608E-02  0.9807849E-01
          1   -1    0    0  502    0  0.00000000000E+00  0.00000000000E+00  0.10556803703E+03  0.10556803703E+03  0.00000000000E+00 0.  1.
         13   -1    0    0    0    0 -0.00000000000E+00 -0.00000000000E+00 -0.10000000000E+04  0.10000000000E+04  0.00000000000E+00 0.  1.
    9000005    2    1    2  501    0 -0.24201415402E-01 -0.43932011016E-01 -0.89455470182E+03  0.11054354453E+04  0.64943006303E+03 0.  0.
         13    1    3    3    0    0 -0.28405959478E+03 -0.15715566207E+03 -0.46112188499E+03  0.56393363823E+03  0.00000000000E+00 0.  1.
          3    1    3    3  501    0  0.28403539337E+03  0.15711173006E+03 -0.43343281682E+03  0.54150180711E+03  0.00000000000E+00 0.  1.
         21    1    1    2  502  501  0.24201415402E-01  0.43932011016E-01  0.12273884912E+00  0.13259168595E+00  0.00000000000E+00 0.  1.
<mgrwt>
<rscale>  1 0.64943006E+03</rscale>
<asrwt>0</asrwt>
<pdfrwt beam="1">  1        1 0.38388458E+00 0.64943006E+03</pdfrwt>
<pdfrwt beam="2">0</pdfrwt>
<totfact> 0.15775759E+00</totfact>
</mgrwt>
</event>
<event>
 6    1  0.2341564E-003  0.6476887E+03  0.7818608E-02  0.9811126E-01
          1   -1    0    0  502    0  0.00000000000E+00  0.00000000000E+00  0.10487523032E+03  0.10487523032E+03  0.00000000000E+00 0.  1.
         13   -1    0    0    0    0 -0.00000000000E+00 -0.00000000000E+00 -0.10000000000E+04  0.10000000000E+04  0.00000000000E+00 0.  1.
    9000005    2    1    2  501    0  0.40391048231E-05 -0.14087993583E-03 -0.89512468211E+03  0.11048750644E+04  0.64768874576E+03 0.  0.
         13    1    3    3    0    0  0.75334024544E+02 -0.30754379660E+03 -0.33165313916E+03  0.45853266710E+03  0.00000000000E+00 0.  1.
          3    1    3    3  501    0 -0.75334020505E+02  0.30754365572E+03 -0.56347154295E+03  0.64634239729E+03  0.00000000000E+00 0.  1.
         21    1    1    2  502  501 -0.40391048273E-05  0.14087993580E-03 -0.87572053345E-04  0.16592870519E-03  0.00000000000E+00 0.  1.
<mgrwt>
<rscale>  1 0.64768875E+03</rscale>
<asrwt>0</asrwt>
<pdfrwt beam="1">  1        1 0.38136528E+00 0.64768875E+03</pdfrwt>
<pdfrwt beam="2">0</pdfrwt>
<totfact> 0.16190481E+00</totfact>
</mgrwt>
</event>
<event>
 6    1  0.2341564E-003  0.6700483E+03  0.7818608E-02  0.9769871E-01
          1   -1    0    0  502    0  0.00000000000E+00  0.00000000000E+00  0.11934261335E+03  0.11934261335E+03  0.00000000000E+00 0.  1.
         13   -1    0    0    0    0 -0.00000000000E+00 -0.00000000000E+00 -0.10000000000E+04  0.10000000000E+04  0.00000000000E+00 0.  1.
    9000005    2    1    2  501    0 -0.39269710060E+01 -0.44574405134E+01 -0.88634855532E+03  0.11111158717E+04  0.67002196156E+03 0.  0.
         13    1    3    3    0    0  0.70577947347E+02  0.24872384300E+03 -0.92574171285E+02  0.27461750475E+03  0.00000000000E+00 0.  1.
          1    1    3    3  501    0 -0.74504918353E+02 -0.25318128351E+03 -0.79377438403E+03  0.83649836696E+03  0.00000000000E+00 0.  1.
         21    1    1    2  502  501  0.39269710060E+01  0.44574405134E+01  0.56911686631E+01  0.82267416371E+01  0.00000000000E+00 0.  1.
<mgrwt>
<rscale>  1 0.67004830E+03</rscale>
<asrwt>0</asrwt>
<pdfrwt beam="1">  1        1 0.43397405E+00 0.67004830E+03</pdfrwt>
<pdfrwt beam="2">0</pdfrwt>
<totfact> 0.93692313E-01</totfact>
</mgrwt>
</event>
<event>
 6    1  0.2341564E-003  0.6536979E+03  0.7818608E-02  0.9799865E-01
          1   -1    0    0  502    0  0.00000000000E+00  0.00000000000E+00  0.10683051940E+03  0.10683051940E+03  0.00000000000E+00 0.  1.
         13   -1    0    0    0    0 -0.00000000000E+00 -0.00000000000E+00 -0.10000000000E+04  0.10000000000E+04  0.00000000000E+00 0.  1.
    9000005    2    1    2  501    0 -0.30467586072E-05  0.10218702045E-04 -0.89316974912E+03  0.11068302507E+04  0.65369794481E+03 0.  0.
         13    1    3    3    0    0 -0.56961705802E+02  0.20637094260E+03 -0.86475875390E+03  0.89086548048E+03  0.00000000000E+00 0.  1.
          3    1    3    3  501    0  0.56961702755E+02 -0.20637093238E+03 -0.28410995223E+02  0.21596477019E+03  0.00000000000E+00 0.  1.
         21    1    1    2  502  501  0.30467586098E-05 -0.10218702044E-04  0.26851603800E-03  0.26872768237E-03  0.00000000000E+00 0.  1.
<mgrwt>
<rscale>  1 0.65369794E+03</rscale>
<asrwt>0</asrwt>
<pdfrwt beam="1">  1        1 0.38847544E+00 0.65369794E+03</pdfrwt>
<pdfrwt beam="2">0</pdfrwt>
<totfact> 0.15042806E+00</totfact>
</mgrwt>
</event>
<event>
 6    1  0.2341564E-003  0.6519749E+03  0.7818608E-02  0.9803080E-01
          1   -1    0    0  502    0  0.00000000000E+00  0.00000000000E+00  0.10631188908E+03  0.10631188908E+03  0.00000000000E+00 0.  1.
         13   -1    0    0    0    0 -0.00000000000E+00 -0.00000000000E+00 -0.10000000000E+04  0.10000000000E+04  0.00000000000E+00 0.  1.
    9000005    2    1    2  501    0 -0.28861657156E-03 -0.21237844882E-02 -0.89373213847E+03  0.11062678094E+04  0.65197494641E+03 0.  0.
         13    1    3    3    0    0  0.10373332610E+02 -0.31056051269E+03 -0.27964013862E+03  0.41803593769E+03  0.00000000000E+00 0.  1.
          3    1    3    3  501    0 -0.10373621226E+02  0.31055838891E+03 -0.61409199985E+03  0.68823187170E+03  0.00000000000E+00 0.  1.
         21    1    1    2  502  501  0.28861657156E-03  0.21237844881E-02  0.44027551597E-01  0.44079689878E-01  0.00000000000E+00 0. -1.
<mgrwt>
<rscale>  1 0.65197495E+03</rscale>
<asrwt>0</asrwt>
<pdfrwt beam="1">  1        1 0.38658950E+00 0.65197495E+03</pdfrwt>
<pdfrwt beam="2">0</pdfrwt>
<totfact> 0.15339817E+00</totfact>
</mgrwt>
</event>
<event>
 6    1  0.2341564E-003  0.6498667E+03  0.7818608E-02  0.9807029E-01
          1   -1    0    0  502    0  0.00000000000E+00  0.00000000000E+00  0.10558214339E+03  0.10558214339E+03  0.00000000000E+00 0.  1.
         13   -1    0    0    0    0 -0.00000000000E+00 -0.00000000000E+00 -0.10000000000E+04  0.10000000000E+04  0.00000000000E+00 0.  1.
    9000005    2    1    2  501    0  0.23168695378E-04  0.63167583875E-05 -0.89441830450E+03  0.11055816949E+04  0.64986674064E+03 0.  0.
         13    1    3    3    0    0  0.25387782606E+03  0.33591560802E+02 -0.78745517239E+03  0.82805071828E+03  0.00000000000E+00 0.  1.
          3    1    3    3  501    0 -0.25387780289E+03 -0.33591554486E+02 -0.10696313211E+03  0.27753097658E+03  0.00000000000E+00 0.  1.
         21    1    1    2  502  501 -0.23168695383E-04 -0.63167583878E-05  0.44789042525E-03  0.44853374780E-03  0.00000000000E+00 0. -1.
<mgrwt>
<rscale>  1 0.64986674E+03</rscale>
<asrwt>0</asrwt>
<pdfrwt beam="1">  1        1 0.38393588E+00 0.64986674E+03</pdfrwt>
<pdfrwt beam="2">0</pdfrwt>
<totfact> 0.15766254E+00</totfact>
</mgrwt>
</event>
<event>
 6    1  0.2341564E-003  0.6345989E+03  0.7818608E-02  0.9836115E-01
          1   -1    0    0  502    0  0.00000000000E+00  0.00000000000E+00  0.10185506657E+03  0.10185506657E+03  0.00000000000E+00 0.  1.
         13   -1    0    0    0    0 -0.00000000000E+00 -0.00000000000E+00 -0.10000000000E+04  0.10000000000E+04  0.00000000000E+00 0.  1.
    9000005    2    1    2  501    0 -0.49789666184E+00 -0.55826147617E+00 -0.89918877551E+03  0.11005708691E+04  0.63459847482E+03 0.  0.
         13    1    3    3    0    0  0.25390014952E+03  0.14675052551E+03 -0.65774303473E+03  0.72015755388E+03  0.00000000000E+00 0.  1.
          3    1    3    3  501    0 -0.25439804618E+03 -0.14730878699E+03 -0.24144574078E+03  0.38041331518E+03  0.00000000000E+00 0.  1.
         21    1    1    2  502  501  0.49789666184E+00  0.55826147617E+00  0.10438420814E+01  0.12841975131E+01  0.00000000000E+00 0. -1.
<mgrwt>
<rscale>  1 0.63459892E+03</rscale>
<asrwt>0</asrwt>
<pdfrwt beam="1">  1        1 0.37038284E+00 0.63459892E+03</pdfrwt>
<pdfrwt beam="2">0</pdfrwt>
<totfact> 0.18141082E+00</totfact>
</mgrwt>
</event>
<event>
 6    1  0.2341564E-003  0.6517917E+03  0.7818608E-02  0.9803423E-01
          1   -1    0    0  502    0  0.00000000000E+00  0.00000000000E+00  0.10629993273E+03  0.10629993273E+03  0.00000000000E+00 0.  1.
         13   -1    0    0    0    0 -0.00000000000E+00 -0.00000000000E+00 -0.10000000000E+04  0.10000000000E+04  0.00000000000E+00 0.  1.
    9000005    2    1    2  501    0 -0.23423508967E+00  0.44598846791E-02 -0.89357938133E+03  0.11060363970E+04  0.65179164305E+03 0.  0.
         13    1    3    3    0    0  0.18186534456E+03  0.61013547568E+01 -0.90534908491E+03  0.92345503173E+03  0.00000000000E+00 0.  1.
          1    1    3    3  501    0 -0.18209957965E+03 -0.60968948721E+01  0.11769703574E+02  0.18258136531E+03  0.00000000000E+00 0.  1.
         21    1    1    2  502  501  0.23423508967E+00 -0.44598846791E-02 -0.12068593475E+00  0.26353569521E+00  0.00000000000E+00 0. -1.
<mgrwt>
<rscale>  1 0.65179169E+03</rscale>
<asrwt>0</asrwt>
<pdfrwt beam="1">  1        1 0.38654603E+00 0.65179169E+03</pdfrwt>
<pdfrwt beam="2">0</pdfrwt>
<totfact> 0.15347136E+00</totfact>
</mgrwt>
</event>
<event>
 6    1  0.2341564E-003  0.6538524E+03  0.7818608E-02  0.9799577E-01
          1   -1    0    0  502    0  0.00000000000E+00  0.00000000000E+00  0.10688079920E+03  0.10688079920E+03  0.00000000000E+00 0.  1.
         13   -1    0    0    0    0 -0.00000000000E+00 -0.00000000000E+00 -0.10000000000E+04  0.10000000000E+04  0.00000000000E+00 0.  1.
    9000005    2    1    2  501    0  0.55410870203E-05  0.88097550872E-05 -0.89311926691E+03  0.11068807323E+04  0.65385237674E+03 0.  0.
         13    1    3    3    0    0  0.10900338306E+03  0.12983461693E+03 -0.91977986066E+03  0.93527202319E+03  0.00000000000E+00 0.  1.
          1    1    3    3  501    0 -0.10900337752E+03 -0.12983460812E+03  0.26660593758E+02  0.17160870909E+03  0.00000000000E+00 0.  1.
         21    1    1    2  502  501 -0.55410870179E-05 -0.88097550829E-05  0.66105688663E-04  0.66919933530E-04  0.00000000000E+00 0.  1.
<mgrwt>
<rscale>  1 0.65385238E+03</rscale>
<asrwt>0</asrwt>
<pdfrwt beam="1">  1        1 0.38865827E+00 0.65385238E+03</pdfrwt>
<pdfrwt beam="2">0</pdfrwt>
<totfact> 0.15014339E+00</totfact>
</mgrwt>
</event>
<event>
 6    1  0.2341564E-003  0.6565325E+03  0.7818608E-02  0.9794598E-01
          1   -1    0    0  502    0  0.00000000000E+00  0.00000000000E+00  0.10775919235E+03  0.10775919235E+03  0.00000000000E+00 0.  1.
         13   -1    0    0    0    0 -0.00000000000E+00 -0.00000000000E+00 -0.10000000000E+04  0.10000000000E+04  0.00000000000E+00 0.  1.
    9000005    2    1    2  501    0  0.14727389096E-03  0.29052882942E-03 -0.89224122161E+03  0.11077586656E+04  0.65653245439E+03 0.  0.
         13    1    3    3    0    0  0.11734024783E+03 -0.43696545166E+02 -0.95812423108E+03  0.96627126833E+03  0.00000000000E+00 0.  1.
          3    1    3    3  501    0 -0.11734010056E+03  0.43696835695E+02  0.65883009468E+02  0.14148739727E+03  0.00000000000E+00 0.  1.
         21    1    1    2  502  501 -0.14727389097E-03 -0.29052882943E-03  0.41396490403E-03  0.52674808159E-03  0.00000000000E+00 0. -1.
<mgrwt>
<rscale>  1 0.65653245E+03</rscale>
<asrwt>0</asrwt>
<pdfrwt beam="1">  1        1 0.39185243E+00 0.65653245E+03</pdfrwt>
<pdfrwt beam="2">0</pdfrwt>
<totfact> 0.14525227E+00</totfact>
</mgrwt>
</event>
<event>
 6    1  0.2341564E-003  0.6563442E+03  0.7818608E-02  0.9794947E-01
          1   -1    0    0  502    0  0.00000000000E+00  0.00000000000E+00  0.10770712269E+03  0.10770712269E+03  0.00000000000E+00 0.  1.
         13   -1    0    0    0    0 -0.00000000000E+00 -0.00000000000E+00 -0.10000000000E+04  0.10000000000E+04  0.00000000000E+00 0.  1.
    9000005    2    1    2  501    0  0.46606957685E-03  0.26407721890E-04 -0.89230307672E+03  0.11076969126E+04  0.65634416999E+03 0.  0.
         13    1    3    3    0    0 -0.16736502690E+03 -0.23349901348E+03 -0.17843243456E+03  0.33818778102E+03  0.00000000000E+00 0.  1.
          3    1    3    3  501    0  0.16736549297E+03  0.23349903989E+03 -0.71387064216E+03  0.76950913159E+03  0.00000000000E+00 0.  1.
         21    1    1    2  502  501 -0.46606957682E-03 -0.26407721885E-04  0.10199407508E-01  0.10210084806E-01  0.00000000000E+00 0. -1.
<mgrwt>
<rscale>  1 0.65634417E+03</rscale>
<asrwt>0</asrwt>
<pdfrwt beam="1">  1        1 0.39166309E+00 0.65634417E+03</pdfrwt>
<pdfrwt beam="2">0</pdfrwt>
<totfact> 0.14553874E+00</totfact>
</mgrwt>
</event>
<event>
 6    1  0.2341564E-003  0.6544265E+03  0.7818608E-02  0.9798508E-01
          1   -1    0    0  502    0  0.00000000000E+00  0.00000000000E+00  0.10707591566E+03  0.10707591566E+03  0.00000000000E+00 0.  1.
         13   -1    0    0    0    0 -0.00000000000E+00 -0.00000000000E+00 -0.10000000000E+04  0.10000000000E+04  0.00000000000E+00 0.  1.
    9000005    2    1    2  501    0 -0.32291524946E-04  0.14213596899E-03 -0.89293148065E+03  0.11070685179E+04  0.65442652316E+03 0.  0.
         13    1    3    3    0    0 -0.14999348493E+03 -0.18881952445E+03 -0.82061621063E+03  0.85531387425E+03  0.00000000000E+00 0.  1.
          1    1    3    3  501    0  0.14999345264E+03  0.18881966659E+03 -0.72315270018E+02  0.25175464366E+03  0.00000000000E+00 0.  1.
         21    1    1    2  502  501  0.32291524945E-04 -0.14213596900E-03  0.73963069454E-02  0.73977430211E-02  0.00000000000E+00 0.  1.
<mgrwt>
<rscale>  1 0.65442652E+03</rscale>
<asrwt>0</asrwt>
<pdfrwt beam="1">  1        1 0.38936779E+00 0.65442652E+03</pdfrwt>
<pdfrwt beam="2">0</pdfrwt>
<totfact> 0.14904421E+00</totfact>
</mgrwt>
</event>
<event>
 6    1  0.2341564E-003  0.6479048E+03  0.7818608E-02  0.9810719E-01
          1   -1    0    0  502    0  0.00000000000E+00  0.00000000000E+00  0.10494526509E+03  0.10494526509E+03  0.00000000000E+00 0.  1.
         13   -1    0    0    0    0 -0.00000000000E+00 -0.00000000000E+00 -0.10000000000E+04  0.10000000000E+04  0.00000000000E+00 0.  1.
    9000005    2    1    2  501    0 -0.78008148137E-05 -0.23777123204E-05 -0.89505484053E+03  0.11049451592E+04  0.64790480564E+03 0.  0.
         13    1    3    3    0    0 -0.19821408203E+03 -0.22656551244E+03 -0.65163910507E+03  0.71781214603E+03  0.00000000000E+00 0.  1.
          1    1    3    3  501    0  0.19821407423E+03  0.22656551007E+03 -0.24341573547E+03  0.38713301312E+03  0.00000000000E+00 0.  1.
         21    1    1    2  502  501  0.78008147980E-05  0.23777123231E-05  0.10562088605E-03  0.10593525286E-03  0.00000000000E+00 0.  1.
<mgrwt>
<rscale>  1 0.64790481E+03</rscale>
<asrwt>0</asrwt>
<pdfrwt beam="1">  1        1 0.38161995E+00 0.64790481E+03</pdfrwt>
<pdfrwt beam="2">0</pdfrwt>
<totfact> 0.16147972E+00</totfact>
</mgrwt>
</event>
<event>
 6    1  0.2341564E-003  0.6498587E+03  0.7818608E-02  0.9807044E-01
          1   -1    0    0  502    0  0.00000000000E+00  0.00000000000E+00  0.10558229989E+03  0.10558229989E+03  0.00000000000E+00 0.  1.
         13   -1    0    0    0    0 -0.00000000000E+00 -0.00000000000E+00 -0.10000000000E+04  0.10000000000E+04  0.00000000000E+00 0.  1.
    9000005    2    1    2  501    0  0.16056649245E-02 -0.18342234572E-02 -0.89442039462E+03  0.11055786663E+04  0.64985871163E+03 0.  0.
         13    1    3    3    0    0 -0.22484249460E+03  0.22396579732E+03 -0.32856486863E+03  0.45680378572E+03  0.00000000000E+00 0.  1.
          3    1    3    3  501    0  0.22484410026E+03 -0.22396763154E+03 -0.56585552599E+03  0.64877488059E+03  0.00000000000E+00 0.  1.
         21    1    1    2  502  501 -0.16056649245E-02  0.18342234572E-02  0.26945044163E-02  0.36335780699E-02  0.00000000000E+00 0.  1.
<mgrwt>
<rscale>  1 0.64985871E+03</rscale>
<asrwt>0</asrwt>
<pdfrwt beam="1">  1        1 0.38393645E+00 0.64985871E+03</pdfrwt>
<pdfrwt beam="2">0</pdfrwt>
<totfact> 0.15766186E+00</totfact>
</mgrwt>
</event>
<event>
 6    1  0.2341564E-003  0.6422476E+03  0.7818608E-02  0.9821436E-01
          1   -1    0    0  502    0  0.00000000000E+00  0.00000000000E+00  0.10312078862E+03  0.10312078862E+03  0.00000000000E+00 0.  1.
         13   -1    0    0    0    0 -0.00000000000E+00 -0.00000000000E+00 -0.10000000000E+04  0.10000000000E+04  0.00000000000E+00 0.  1.
    9000005    2    1    2  501    0 -0.34523612882E-03 -0.43270976744E-03 -0.89687920289E+03  0.11031202350E+04  0.64224757555E+03 0.  0.
         13    1    3    3    0    0 -0.22612667673E+03  0.13606932483E+03 -0.76268119946E+03  0.80705064717E+03  0.00000000000E+00 0.  1.
          3    1    3    3  501    0  0.22612633150E+03 -0.13606975754E+03 -0.13419800343E+03  0.29606958783E+03  0.00000000000E+00 0.  1.
         21    1    1    2  502  501  0.34523612884E-03  0.43270976746E-03 -0.84922457362E-05  0.55362247583E-03  0.00000000000E+00 0. -1.
<mgrwt>
<rscale>  1 0.64224758E+03</rscale>
<asrwt>0</asrwt>
<pdfrwt beam="1">  1        1 0.37498548E+00 0.64224758E+03</pdfrwt>
<pdfrwt beam="2">0</pdfrwt>
<totfact> 0.17290919E+00</totfact>
</mgrwt>
</event>
<event>
 6    1  0.2341564E-003  0.6587994E+03  0.7818608E-02  0.9790406E-01
          1   -1    0    0  502    0  0.00000000000E+00  0.00000000000E+00  0.10850417800E+03  0.10850417800E+03  0.00000000000E+00 0.  1.
         13   -1    0    0    0    0 -0.00000000000E+00 -0.00000000000E+00 -0.10000000000E+04  0.10000000000E+04  0.00000000000E+00 0.  1.
    9000005    2    1    2  501    0  0.12925638202E-04 -0.42218056109E-05 -0.89149583038E+03  0.11085041620E+04  0.65879940926E+03 0.  0.
         13    1    3    3    0    0 -0.26569780156E+03 -0.64425075593E+02 -0.75490135370E+03  0.80288353199E+03  0.00000000000E+00 0.  1.
          3    1    3    3  501    0  0.26569781449E+03  0.64425071371E+02 -0.13659447668E+03  0.30562063004E+03  0.00000000000E+00 0.  1.
         21    1    1    2  502  501 -0.12925638242E-04  0.42218056128E-05  0.83785339184E-05  0.15971712407E-04  0.00000000000E+00 0.  1.
<mgrwt>
<rscale>  1 0.65879941E+03</rscale>
<asrwt>0</asrwt>
<pdfrwt beam="1">  1        1 0.39456148E+00 0.65879941E+03</pdfrwt>
<pdfrwt beam="2">0</pdfrwt>
<totfact> 0.14122288E+00</totfact>
</mgrwt>
</event>
<event>
 6    1  0.2341564E-003  0.6416223E+03  0.7818608E-02  0.9822628E-01
          1   -1    0    0  502    0  0.00000000000E+00  0.00000000000E+00  0.10291980026E+03  0.10291980026E+03  0.00000000000E+00 0.  1.
         13   -1    0    0    0    0 -0.00000000000E+00 -0.00000000000E+00 -0.10000000000E+04  0.10000000000E+04  0.00000000000E+00 0.  1.
    9000005    2    1    2  501    0 -0.11946613370E-04  0.25257778901E-04 -0.89708016156E+03  0.11029197529E+04  0.64162229167E+03 0.  0.
         13    1    3    3    0    0  0.30013931216E+03  0.10812298311E+03 -0.50672115905E+03  0.59878253082E+03  0.00000000000E+00 0.  1.
          3    1    3    3  501    0 -0.30013932411E+03 -0.10812295785E+03 -0.39035900250E+03  0.50413722212E+03  0.00000000000E+00 0.  1.
         21    1    1    2  502  501  0.11946613387E-04 -0.25257778901E-04 -0.38186441890E-04  0.47316818476E-04  0.00000000000E+00 0.  1.
<mgrwt>
<rscale>  1 0.64162229E+03</rscale>
<asrwt>0</asrwt>
<pdfrwt beam="1">  1        1 0.37425461E+00 0.64162229E+03</pdfrwt>
<pdfrwt beam="2">0</pdfrwt>
<totfact> 0.17421451E+00</totfact>
</mgrwt>
</event>
<event>
 6    1  0.2341564E-003  0.6555529E+03  0.7818608E-02  0.9796415E-01
          1   -1    0    0  502    0  0.00000000000E+00  0.00000000000E+00  0.10743965671E+03  0.10743965671E+03  0.00000000000E+00 0.  1.
         13   -1    0    0    0    0 -0.00000000000E+00 -0.00000000000E+00 -0.10000000000E+04  0.10000000000E+04  0.00000000000E+00 0.  1.
    9000005    2    1    2  501    0  0.85658114926E-04  0.16237530942E-03 -0.89256258461E+03  0.11074374079E+04  0.65555293070E+03 0.  0.
         13    1    3    3    0    0 -0.12969878181E+03 -0.72528494245E+02  0.47263462928E+02  0.15593585671E+03  0.00000000000E+00 0.  1.
          3    1    3    3  501    0  0.12969886747E+03  0.72528656620E+02 -0.93982604754E+03  0.95150155117E+03  0.00000000000E+00 0.  1.
         21    1    1    2  502  501 -0.85658114930E-04 -0.16237530942E-03  0.22413163737E-02  0.22488223898E-02  0.00000000000E+00 0. -1.
<mgrwt>
<rscale>  1 0.65555293E+03</rscale>
<asrwt>0</asrwt>
<pdfrwt beam="1">  1        1 0.39069048E+00 0.65555293E+03</pdfrwt>
<pdfrwt beam="2">0</pdfrwt>
<totfact> 0.14701390E+00</totfact>
</mgrwt>
</event>
<event>
 6    1  0.2341564E-003  0.6447824E+03  0.7818608E-02  0.9816619E-01
          1   -1    0    0  502    0  0.00000000000E+00  0.00000000000E+00  0.10393691940E+03  0.10393691940E+03  0.00000000000E+00 0.  1.
         13   -1    0    0    0    0 -0.00000000000E+00 -0.00000000000E+00 -0.10000000000E+04  0.10000000000E+04  0.00000000000E+00 0.  1.
    9000005    2    1    2  501    0  0.31879058866E-04  0.71644158197E-05 -0.89606392257E+03  0.11039360768E+04  0.64478237282E+03 0.  0.
         13    1    3    3    0    0  0.23205117519E+03  0.18417594470E+03 -0.23033470086E+03  0.37526337542E+03  0.00000000000E+00 0.  1.
          3    1    3    3  501    0 -0.23205114331E+03 -0.18417593754E+03 -0.66572922171E+03  0.72867270137E+03  0.00000000000E+00 0.  1.
         21    1    1    2  502  501 -0.31879058850E-04 -0.71644158151E-05  0.84197535388E-03  0.84260910260E-03  0.00000000000E+00 0. -1.
<mgrwt>
<rscale>  1 0.64478237E+03</rscale>
<asrwt>0</asrwt>
<pdfrwt beam="1">  1        1 0.37795323E+00 0.64478237E+03</pdfrwt>
<pdfrwt beam="2">0</pdfrwt>
<totfact> 0.16770422E+00</totfact>
</mgrwt>
</event>
<event>
 6    1  0.2341564E-003  0.6537156E+03  0.7818608E-02  0.9799832E-01
          1   -1    0    0  502    0  0.00000000000E+00  0.00000000000E+00  0.10733892889E+03  0.10733892889E+03  0.00000000000E+00 0.  1.
         13   -1    0    0    0    0 -0.00000000000E+00 -0.00000000000E+00 -0.10000000000E+04  0.10000000000E+04  0.00000000000E+00 0.  1.
    9000005    2    1    2  501    0  0.61678303088E-02 -0.30172816893E-02 -0.89316394350E+03  0.11068360096E+04  0.65371562791E+03 0.  0.
         13    1    3    3    0    0 -0.21495535467E+03 -0.13475446650E+03 -0.79551004766E+03  0.83498551285E+03  0.00000000000E+00 0.  1.
          1    1    3    3  501    0  0.21496152250E+03  0.13475144922E+03 -0.97653895845E+02  0.27185049677E+03  0.00000000000E+00 0.  1.
         21    1    1    2  502  501 -0.61678303089E-02  0.30172816893E-02  0.50287239562E+00  0.50291927025E+00  0.00000000000E+00 0.  1.
<mgrwt>
<rscale>  1 0.65371563E+03</rscale>
<asrwt>0</asrwt>
<pdfrwt beam="1">  1        1 0.39032420E+00 0.65371563E+03</pdfrwt>
<pdfrwt beam="2">0</pdfrwt>
<totfact> 0.14761528E+00</totfact>
</mgrwt>
</event>
<event>
 6    1  0.2341564E-003  0.5584510E+03  0.7818608E-02  0.9995566E-01
          1   -1    0    0  502    0  0.00000000000E+00  0.00000000000E+00  0.78001748765E+02  0.78001748765E+02  0.00000000000E+00 0.  1.
         13   -1    0    0    0    0 -0.00000000000E+00 -0.00000000000E+00 -0.10000000000E+04  0.10000000000E+04  0.00000000000E+00 0.  1.
    9000005    2    1    2  501    0 -0.90456269243E-02  0.93207875895E-02 -0.92203181012E+03  0.10779657641E+04  0.55845100897E+03 0.  0.
         13    1    3    3    0    0  0.21748143675E+03 -0.24769733236E+02 -0.12638040193E+03  0.25275229179E+03  0.00000000000E+00 0.  1.
          1    1    3    3  501    0 -0.21749048238E+03  0.24779054024E+02 -0.79565140819E+03  0.82521347226E+03  0.00000000000E+00 0.  1.
         21    1    1    2  502  501  0.90456269243E-02 -0.93207875895E-02  0.33558888635E-01  0.35984711395E-01  0.00000000000E+00 0. -1.
<mgrwt>
<rscale>  1 0.55845101E+03</rscale>
<asrwt>0</asrwt>
<pdfrwt beam="1">  1        1 0.28364332E+00 0.55845101E+03</pdfrwt>
<pdfrwt beam="2">0</pdfrwt>
<totfact> 0.43726535E+00</totfact>
</mgrwt>
</event>
<event>
 6    1  0.2341564E-003  0.6452986E+03  0.7818608E-02  0.9815641E-01
          1   -1    0    0  502    0  0.00000000000E+00  0.00000000000E+00  0.10411209159E+03  0.10411209159E+03  0.00000000000E+00 0.  1.
         13   -1    0    0    0    0 -0.00000000000E+00 -0.00000000000E+00 -0.10000000000E+04  0.10000000000E+04  0.00000000000E+00 0.  1.
    9000005    2    1    2  501    0  0.16739849517E-02  0.55243138584E-02 -0.89589646703E+03  0.11041017683E+04  0.64529856276E+03 0.  0.
         13    1    3    3    0    0 -0.89680414740E+02  0.17056562038E+03 -0.89072437175E+03  0.91133150613E+03  0.00000000000E+00 0.  1.
          1    1    3    3  501    0  0.89682088725E+02 -0.17056009607E+03 -0.51720952838E+01  0.19277026217E+03  0.00000000000E+00 0.  1.
         21    1    1    2  502  501 -0.16739849517E-02 -0.55243138584E-02  0.85586214140E-02  0.10323287739E-01  0.00000000000E+00 0.  1.
<mgrwt>
<rscale>  1 0.64529856E+03</rscale>
<asrwt>0</asrwt>
<pdfrwt beam="1">  1        1 0.37859022E+00 0.64529856E+03</pdfrwt>
<pdfrwt beam="2">0</pdfrwt>
<totfact> 0.16660754E+00</totfact>
</mgrwt>
</event>
<event>
 6    1  0.2341564E-003  0.6528092E+03  0.7818608E-02  0.9801522E-01
          1   -1    0    0  502    0  0.00000000000E+00  0.00000000000E+00  0.10742501262E+03  0.10742501262E+03  0.00000000000E+00 0.  1.
         13   -1    0    0    0    0 -0.00000000000E+00 -0.00000000000E+00 -0.10000000000E+04  0.10000000000E+04  0.00000000000E+00 0.  1.
    9000005    2    1    2  501    0  0.19826301351E-01 -0.18662707523E-01 -0.89345980853E+03  0.11065397726E+04  0.65280918972E+03 0.  0.
         13    1    3    3    0    0 -0.28041061059E+03 -0.12418515570E+03 -0.63611833183E+03  0.70618594967E+03  0.00000000000E+00 0.  1.
          3    1    3    3  501    0  0.28043043689E+03  0.12416649299E+03 -0.25734147670E+03  0.40035382295E+03  0.00000000000E+00 0.  1.
         21    1    1    2  502  501 -0.19826301351E-01  0.18662707523E-01  0.88482115448E+00  0.88523999813E+00  0.00000000000E+00 0.  1.
<mgrwt>
<rscale>  1 0.65280919E+03</rscale>
<asrwt>0</asrwt>
<pdfrwt beam="1">  1        1 0.39063723E+00 0.65280919E+03</pdfrwt>
<pdfrwt beam="2">0</pdfrwt>
<totfact> 0.14716890E+00</totfact>
</mgrwt>
</event>
<event>
 6    1  0.2341564E-003  0.6550149E+03  0.7818608E-02  0.9797414E-01
          1   -1    0    0  502    0  0.00000000000E+00  0.00000000000E+00  0.10726775884E+03  0.10726775884E+03  0.00000000000E+00 0.  1.
         13   -1    0    0    0    0 -0.00000000000E+00 -0.00000000000E+00 -0.10000000000E+04  0.10000000000E+04  0.00000000000E+00 0.  1.
    9000005    2    1    2  501    0 -0.98906647167E-04  0.15661961888E-03 -0.89273885573E+03  0.11072611417E+04  0.65501493977E+03 0.  0.
         13    1    3    3    0    0  0.14847029870E+03  0.23498091395E+03 -0.73916998111E+03  0.78970356495E+03  0.00000000000E+00 0.  1.
          3    1    3    3  501    0 -0.14847039760E+03 -0.23498075733E+03 -0.15356887462E+03  0.31755757672E+03  0.00000000000E+00 0.  1.
         21    1    1    2  502  501  0.98906647149E-04 -0.15661961888E-03  0.66145702525E-02  0.66171634296E-02  0.00000000000E+00 0. -1.
<mgrwt>
<rscale>  1 0.65501494E+03</rscale>
<asrwt>0</asrwt>
<pdfrwt beam="1">  1        1 0.39006540E+00 0.65501494E+03</pdfrwt>
<pdfrwt beam="2">0</pdfrwt>
<totfact> 0.14797026E+00</totfact>
</mgrwt>
</event>
<event>
 6    1  0.2341564E-003  0.6465007E+03  0.7818608E-02  0.9813368E-01
          1   -1    0    0  502    0  0.00000000000E+00  0.00000000000E+00  0.10875613030E+03  0.10875613030E+03  0.00000000000E+00 0.  1.
         13   -1    0    0    0    0 -0.00000000000E+00 -0.00000000000E+00 -0.10000000000E+04  0.10000000000E+04  0.00000000000E+00 0.  1.
    9000005    2    1    2  501    0  0.19441943718E-01 -0.10019056635E+01 -0.89544410850E+03  0.11044380058E+04  0.64649992503E+03 0.  0.
         13    1    3    3    0    0 -0.15717317927E+03 -0.27978208417E+03 -0.52051717434E+03  0.61148961699E+03  0.00000000000E+00 0.  1.
          3    1    3    3  501    0  0.15719262121E+03  0.27878017851E+03 -0.37492693417E+03  0.49294838884E+03  0.00000000000E+00 0.  1.
         21    1    1    2  502  501 -0.19441943718E-01  0.10019056635E+01  0.42002388052E+01  0.43181244735E+01  0.00000000000E+00 0.  1.
<mgrwt>
<rscale>  1 0.64650070E+03</rscale>
<asrwt>0</asrwt>
<pdfrwt beam="1">  1        1 0.39547767E+00 0.64650070E+03</pdfrwt>
<pdfrwt beam="2">0</pdfrwt>
<totfact> 0.14022805E+00</totfact>
</mgrwt>
</event>
<event>
 6    1  0.2341564E-003  0.6480281E+03  0.7818608E-02  0.9810486E-01
          1   -1    0    0  502    0  0.00000000000E+00  0.00000000000E+00  0.10498553735E+03  0.10498553735E+03  0.00000000000E+00 0.  1.
         13   -1    0    0    0    0 -0.00000000000E+00 -0.00000000000E+00 -0.10000000000E+04  0.10000000000E+04  0.00000000000E+00 0.  1.
    9000005    2    1    2  501    0 -0.95630190970E-04  0.82515626553E-03 -0.89501437507E+03  0.11049847021E+04  0.64802813228E+03 0.  0.
         13    1    3    3    0    0 -0.21037551962E+03 -0.21429467112E+03 -0.24003220273E+03  0.38444183393E+03  0.00000000000E+00 0.  1.
          3    1    3    3  501    0  0.21037542399E+03  0.21429549628E+03 -0.65498217234E+03  0.72054286814E+03  0.00000000000E+00 0.  1.
         21    1    1    2  502  501  0.95630190964E-04 -0.82515626555E-03 -0.87582265714E-04  0.83528357416E-03  0.00000000000E+00 0. -1.
<mgrwt>
<rscale>  1 0.64802813E+03</rscale>
<asrwt>0</asrwt>
<pdfrwt beam="1">  1        1 0.38176640E+00 0.64802813E+03</pdfrwt>
<pdfrwt beam="2">0</pdfrwt>
<totfact> 0.16123578E+00</totfact>
</mgrwt>
</event>
<event>
 6    1  0.2341564E-003  0.6507407E+03  0.7818608E-02  0.9805390E-01
          1   -1    0    0  502    0  0.00000000000E+00  0.00000000000E+00  0.10610671746E+03  0.10610671746E+03  0.00000000000E+00 0.  1.
         13   -1    0    0    0    0 -0.00000000000E+00 -0.00000000000E+00 -0.10000000000E+04  0.10000000000E+04  0.00000000000E+00 0.  1.
    9000005    2    1    2  501    0 -0.22797818426E-01 -0.67752074514E-01 -0.89412824710E+03  0.11058611194E+04  0.65074072250E+03 0.  0.
         13    1    3    3    0    0  0.28237247665E+03  0.16149779807E+03 -0.43730404382E+03  0.54502346839E+03  0.00000000000E+00 0.  1.
          1    1    3    3  501    0 -0.28239527447E+03 -0.16156555014E+03 -0.45682420328E+03  0.56083765096E+03  0.00000000000E+00 0.  1.
         21    1    1    2  502  501  0.22797818426E-01  0.67752074514E-01  0.23496456138E+00  0.24559810510E+00  0.00000000000E+00 0.  1.
<mgrwt>
<rscale>  1 0.65074073E+03</rscale>
<asrwt>0</asrwt>
<pdfrwt beam="1">  1        1 0.38584342E+00 0.65074073E+03</pdfrwt>
<pdfrwt beam="2">0</pdfrwt>
<totfact> 0.15460424E+00</totfact>
</mgrwt>
</event>
<event>
 6    1  0.2341564E-003  0.6347825E+03  0.7818608E-02  0.9835760E-01
          1   -1    0    0  502    0  0.00000000000E+00  0.00000000000E+00  0.10075800400E+03  0.10075800400E+03  0.00000000000E+00 0.  1.
         13   -1    0    0    0    0 -0.00000000000E+00 -0.00000000000E+00 -0.10000000000E+04  0.10000000000E+04  0.00000000000E+00 0.  1.
    9000005    2    1    2  501    0 -0.22303080248E-03 -0.17778024104E-02 -0.89926276130E+03  0.11007371615E+04  0.63478247055E+03 0.  0.
         13    1    3    3    0    0  0.20411148057E+02  0.97815255770E+01 -0.99859863478E+03  0.99885510790E+03  0.00000000000E+00 0.  1.
          1    1    3    3  501    0 -0.20411371088E+02 -0.97833033794E+01  0.99335873472E+02  0.10188205364E+03  0.00000000000E+00 0.  1.
         21    1    1    2  502  501  0.22303080248E-03  0.17778024104E-02  0.20765305699E-01  0.20842462544E-01  0.00000000000E+00 0. -1.
<mgrwt>
<rscale>  1 0.63478247E+03</rscale>
<asrwt>0</asrwt>
<pdfrwt beam="1">  1        1 0.36639351E+00 0.63478247E+03</pdfrwt>
<pdfrwt beam="2">0</pdfrwt>
<totfact> 0.18886679E+00</totfact>
</mgrwt>
</event>
<event>
 6    1  0.2341564E-003  0.5778024E+03  0.7818608E-02  0.9952560E-01
          1   -1    0    0  502    0  0.00000000000E+00  0.00000000000E+00  0.83465572839E+02  0.83465572839E+02  0.00000000000E+00 0.  1.
         13   -1    0    0    0    0 -0.00000000000E+00 -0.00000000000E+00 -0.10000000000E+04  0.10000000000E+04  0.00000000000E+00 0.  1.
    9000005    2    1    2  501    0 -0.14761995516E-04  0.39622479548E-04 -0.91653610040E+03  0.10834638991E+04  0.57780238597E+03 0.  0.
         13    1    3    3    0    0  0.25392736386E+03 -0.92064008009E+02 -0.65049569804E+03  0.70434334018E+03  0.00000000000E+00 0.  1.
          1    1    3    3  501    0 -0.25392737862E+03  0.92064047631E+02 -0.26604040236E+03  0.37912055888E+03  0.00000000000E+00 0.  1.
         21    1    1    2  502  501  0.14761995517E-04 -0.39622479544E-04  0.16732424889E-02  0.16737766530E-02  0.00000000000E+00 0.  1.
<mgrwt>
<rscale>  1 0.57780239E+03</rscale>
<asrwt>0</asrwt>
<pdfrwt beam="1">  1        1 0.30351181E+00 0.57780239E+03</pdfrwt>
<pdfrwt beam="2">0</pdfrwt>
<totfact> 0.35773804E+00</totfact>
</mgrwt>
</event>
<event>
 6    1  0.2341564E-003  0.6323381E+03  0.7818608E-02  0.9840497E-01
          1   -1    0    0  502    0  0.00000000000E+00  0.00000000000E+00  0.99979252318E+02  0.99979252318E+02  0.00000000000E+00 0.  1.
         13   -1    0    0    0    0 -0.00000000000E+00 -0.00000000000E+00 -0.10000000000E+04  0.10000000000E+04  0.00000000000E+00 0.  1.
    9000005    2    1    2  501    0 -0.16039563379E-01  0.22240904618E-01 -0.90002349240E+03  0.10999516940E+04  0.63233807540E+03 0.  0.
         13    1    3    3    0    0  0.13407388429E+03 -0.23942514656E+03 -0.17685929492E+03  0.32646503251E+03  0.00000000000E+00 0.  1.
          3    1    3    3  501    0 -0.13408992386E+03  0.23944738746E+03 -0.72316419748E+03  0.77348666152E+03  0.00000000000E+00 0.  1.
         21    1    1    2  502  501  0.16039563379E-01 -0.22240904618E-01  0.27447131735E-02  0.27558281551E-01  0.00000000000E+00 0.  1.
<mgrwt>
<rscale>  1 0.63233808E+03</rscale>
<asrwt>0</asrwt>
<pdfrwt beam="1">  1        1 0.36356168E+00 0.63233808E+03</pdfrwt>
<pdfrwt beam="2">0</pdfrwt>
<totfact> 0.19442768E+00</totfact>
</mgrwt>
</event>
<event>
 6    1  0.2341564E-003  0.6453881E+03  0.7818608E-02  0.9815472E-01
          1   -1    0    0  502    0  0.00000000000E+00  0.00000000000E+00  0.10413144815E+03  0.10413144815E+03  0.00000000000E+00 0.  1.
         13   -1    0    0    0    0 -0.00000000000E+00 -0.00000000000E+00 -0.10000000000E+04  0.10000000000E+04  0.00000000000E+00 0.  1.
    9000005    2    1    2  501    0 -0.54263625771E-05  0.21451330554E-04 -0.89586855489E+03  0.11041314258E+04  0.64538805214E+03 0.  0.
         13    1    3    3    0    0  0.23116568097E+03 -0.68808998218E+02 -0.81469767341E+03  0.84964966272E+03  0.00000000000E+00 0.  1.
          1    1    3    3  501    0 -0.23116568639E+03  0.68809019669E+02 -0.81170881476E+02  0.25448176310E+03  0.00000000000E+00 0.  1.
         21    1    1    2  502  501  0.54263625717E-05 -0.21451330561E-04  0.30414059317E-05  0.22335065337E-04  0.00000000000E+00 0. -1.
<mgrwt>
<rscale>  1 0.64538805E+03</rscale>
<asrwt>0</asrwt>
<pdfrwt beam="1">  1        1 0.37866061E+00 0.64538805E+03</pdfrwt>
<pdfrwt beam="2">0</pdfrwt>
<totfact> 0.16648578E+00</totfact>
</mgrwt>
</event>
<event>
 6    1  0.2341564E-003  0.6256015E+03  0.7818608E-02  0.9853670E-01
          1   -1    0    0  502    0  0.00000000000E+00  0.00000000000E+00  0.97847266410E+02  0.97847266410E+02  0.00000000000E+00 0.  1.
         13   -1    0    0    0    0 -0.00000000000E+00 -0.00000000000E+00 -0.10000000000E+04  0.10000000000E+04  0.00000000000E+00 0.  1.
    9000005    2    1    2  501    0  0.96756091168E-04 -0.20724238288E-03 -0.90215568105E+03  0.10978443101E+04  0.62560151562E+03 0.  0.
         13    1    3    3    0    0  0.52323040500E+02  0.30315407145E+03 -0.55041226913E+03  0.63055036089E+03  0.00000000000E+00 0.  1.
          1    1    3    3  501    0 -0.52322943744E+02 -0.30315427869E+03 -0.35174341192E+03  0.46729394920E+03  0.00000000000E+00 0.  1.
         21    1    1    2  502  501 -0.96756091168E-04  0.20724238288E-03  0.29474613178E-02  0.29563219321E-02  0.00000000000E+00 0. -1.
<mgrwt>
<rscale>  1 0.62560152E+03</rscale>
<asrwt>0</asrwt>
<pdfrwt beam="1">  1        1 0.35580899E+00 0.62560152E+03</pdfrwt>
<pdfrwt beam="2">0</pdfrwt>
<totfact> 0.21046907E+00</totfact>
</mgrwt>
</event>
<event>
 6    1  0.2341564E-003  0.6572894E+03  0.7818608E-02  0.9793196E-01
          1   -1    0    0  502    0  0.00000000000E+00  0.00000000000E+00  0.10902874566E+03  0.10902874566E+03  0.00000000000E+00 0.  1.
         13   -1    0    0    0    0 -0.00000000000E+00 -0.00000000000E+00 -0.10000000000E+04  0.10000000000E+04  0.00000000000E+00 0.  1.
    9000005    2    1    2  501    0 -0.18658657604E-01 -0.23344918181E-01 -0.89199241303E+03  0.11080071498E+04  0.65728941730E+03 0.  0.
         13    1    3    3    0    0 -0.27517676120E+03 -0.12454551291E+03 -0.22763828112E+03  0.37822350763E+03  0.00000000000E+00 0.  1.
          1    1    3    3  501    0  0.27515810255E+03  0.12452216800E+03 -0.66435413191E+03  0.72978364212E+03  0.00000000000E+00 0.  1.
         21    1    1    2  502  501  0.18658657604E-01  0.23344918181E-01  0.10211586913E+01  0.10215959101E+01  0.00000000000E+00 0.  1.
<mgrwt>
<rscale>  1 0.65728942E+03</rscale>
<asrwt>0</asrwt>
<pdfrwt beam="1">  1        1 0.39646900E+00 0.65728942E+03</pdfrwt>
<pdfrwt beam="2">0</pdfrwt>
<totfact> 0.13852974E+00</totfact>
</mgrwt>
</event>
<event>
 6    1  0.2341564E-003  0.6518934E+03  0.7818608E-02  0.9803233E-01
          1   -1    0    0  502    0  0.00000000000E+00  0.00000000000E+00  0.10624868624E+03  0.10624868624E+03  0.00000000000E+00 0.  1.
         13   -1    0    0    0    0 -0.00000000000E+00 -0.00000000000E+00 -0.10000000000E+04  0.10000000000E+04  0.00000000000E+00 0.  1.
    9000005    2    1    2  501    0 -0.18417320836E-02 -0.75584867531E-02 -0.89375643730E+03  0.11062393710E+04  0.65189337833E+03 0.  0.
         13    1    3    3    0    0 -0.10756165188E+03 -0.26754454921E+02  0.73279289235E+02  0.13287273627E+03  0.00000000000E+00 0.  1.
          1    1    3    3  501    0  0.10755981015E+03  0.26746896434E+02 -0.96703572654E+03  0.97336663474E+03  0.00000000000E+00 0.  1.
         21    1    1    2  502  501  0.18417320836E-02  0.75584867531E-02  0.51235381277E-02  0.93152209856E-02  0.00000000000E+00 0.  1.
<mgrwt>
<rscale>  1 0.65189338E+03</rscale>
<asrwt>0</asrwt>
<pdfrwt beam="1">  1        1 0.38635967E+00 0.65189338E+03</pdfrwt>
<pdfrwt beam="2">0</pdfrwt>
<totfact> 0.15376025E+00</totfact>
</mgrwt>
</event>
<event>
 6    1  0.2341564E-003  0.6515857E+03  0.7818608E-02  0.9803808E-01
          1   -1    0    0  502    0  0.00000000000E+00  0.00000000000E+00  0.10614478103E+03  0.10614478103E+03  0.00000000000E+00 0.  1.
         13   -1    0    0    0    0 -0.00000000000E+00 -0.00000000000E+00 -0.10000000000E+04  0.10000000000E+04  0.00000000000E+00 0.  1.
    9000005    2    1    2  501    0  0.10820294517E-03 -0.32181177686E-03 -0.89385901389E+03  0.11061409710E+04  0.65158568961E+03 0.  0.
         13    1    3    3    0    0  0.13430314421E+03 -0.73492259802E+02  0.41271161867E+02  0.15856151991E+03  0.00000000000E+00 0.  1.
          3    1    3    3  501    0 -0.13430303600E+03  0.73491937990E+02 -0.93513017576E+03  0.94757945104E+03  0.00000000000E+00 0.  1.
         21    1    1    2  502  501 -0.10820294516E-03  0.32181177686E-03  0.37949244307E-02  0.38100816437E-02  0.00000000000E+00 0.  1.
<mgrwt>
<rscale>  1 0.65158569E+03</rscale>
<asrwt>0</asrwt>
<pdfrwt beam="1">  1        1 0.38598184E+00 0.65158569E+03</pdfrwt>
<pdfrwt beam="2">0</pdfrwt>
<totfact> 0.15436224E+00</totfact>
</mgrwt>
</event>
<event>
 6    1  0.2341564E-003  0.6728595E+03  0.7818608E-02  0.9764806E-01
          1   -1    0    0  502    0  0.00000000000E+00  0.00000000000E+00  0.11346137662E+03  0.11346137662E+03  0.00000000000E+00 0.  1.
         13   -1    0    0    0    0 -0.00000000000E+00 -0.00000000000E+00 -0.10000000000E+04  0.10000000000E+04  0.00000000000E+00 0.  1.
    9000005    2    1    2  501    0 -0.36070854413E-02 -0.24928346580E-01 -0.88681439444E+03  0.11131844577E+04  0.67285946968E+03 0.  0.
         13    1    3    3    0    0  0.13060527704E+03 -0.10846551304E+03 -0.92394447365E+03  0.93941252722E+03  0.00000000000E+00 0.  1.
          1    1    3    3  501    0 -0.13060888413E+03  0.10844058470E+03  0.37130079209E+02  0.17377193043E+03  0.00000000000E+00 0.  1.
         21    1    1    2  502  501  0.36070854413E-02  0.24928346580E-01  0.27577106431E+00  0.27691896547E+00  0.00000000000E+00 0. -1.
<mgrwt>
<rscale>  1 0.67285947E+03</rscale>
<asrwt>0</asrwt>
<pdfrwt beam="1">  1        1 0.41258769E+00 0.67285947E+03</pdfrwt>
<pdfrwt beam="2">0</pdfrwt>
<totfact> 0.11700457E+00</totfact>
</mgrwt>
</event>
<event>
 6    1  0.2341564E-003  0.6379929E+03  0.7818608E-02  0.9829574E-01
          1   -1    0    0  502    0  0.00000000000E+00  0.00000000000E+00  0.10177645447E+03  0.10177645447E+03  0.00000000000E+00 0.  1.
         13   -1    0    0    0    0 -0.00000000000E+00 -0.00000000000E+00 -0.10000000000E+04  0.10000000000E+04  0.00000000000E+00 0.  1.
    9000005    2    1    2  501    0  0.47828090368E-02  0.22550745680E-02 -0.89824081566E+03  0.11017583930E+04  0.63799294159E+03 0.  0.
         13    1    3    3    0    0  0.17934236333E+03 -0.25816556410E+03 -0.35539111021E+03  0.47446389007E+03  0.00000000000E+00 0.  1.
          3    1    3    3  501    0 -0.17933758052E+03  0.25816781917E+03 -0.54284970545E+03  0.62729450289E+03  0.00000000000E+00 0.  1.
         21    1    1    2  502  501 -0.47828090368E-02 -0.22550745680E-02  0.17270129783E-01  0.18061506202E-01  0.00000000000E+00 0. -1.
<mgrwt>
<rscale>  1 0.63799294E+03</rscale>
<asrwt>0</asrwt>
<pdfrwt beam="1">  1        1 0.37009698E+00 0.63799294E+03</pdfrwt>
<pdfrwt beam="2">0</pdfrwt>
<totfact> 0.18182329E+00</totfact>
</mgrwt>
</event>
<event>
 6    1  0.2341564E-003  0.6574696E+03  0.7818608E-02  0.9792863E-01
          1   -1    0    0  502    0  0.00000000000E+00  0.00000000000E+00  0.10842638227E+03  0.10842638227E+03  0.00000000000E+00 0.  1.
         13   -1    0    0    0    0 -0.00000000000E+00 -0.00000000000E+00 -0.10000000000E+04  0.10000000000E+04  0.00000000000E+00 0.  1.
    9000005    2    1    2  501    0 -0.27194995130E-01  0.85733300764E-03 -0.89193286192E+03  0.11080661092E+04  0.65746959734E+03 0.  0.
         13    1    3    3    0    0 -0.15629208920E+02  0.80899432233E+02  0.90381837946E+02  0.12230235868E+03  0.00000000000E+00 0.  1.
          1    1    3    3  501    0  0.15602013925E+02 -0.80898574900E+02 -0.98231469987E+03  0.98576375052E+03  0.00000000000E+00 0.  1.
         21    1    1    2  502  501  0.27194995130E-01 -0.85733300764E-03  0.35924418918E+00  0.36027307732E+00  0.00000000000E+00 0. -1.
<mgrwt>
<rscale>  1 0.65746960E+03</rscale>
<asrwt>0</asrwt>
<pdfrwt beam="1">  1        1 0.39427859E+00 0.65746960E+03</pdfrwt>
<pdfrwt beam="2">0</pdfrwt>
<totfact> 0.14166748E+00</totfact>
</mgrwt>
</event>
<event>
 6    1  0.2341564E-003  0.6565925E+03  0.7818608E-02  0.9794487E-01
          1   -1    0    0  502    0  0.00000000000E+00  0.00000000000E+00  0.11712287179E+03  0.11712287179E+03  0.00000000000E+00 0.  1.
         13   -1    0    0    0    0 -0.00000000000E+00 -0.00000000000E+00 -0.10000000000E+04  0.10000000000E+04  0.00000000000E+00 0.  1.
    9000005    2    1    2  501    0 -0.24455554924E+02  0.13322288593E+02 -0.84511716732E+03  0.10702040889E+04  0.65600168284E+03 0.  0.
         13    1    3    3    0    0  0.26458494923E+02 -0.21645753139E+03 -0.27989031152E+02  0.21985745544E+03  0.00000000000E+00 0.  1.
          3    1    3    3  501    0 -0.50914049847E+02  0.22977981998E+03 -0.81712813616E+03  0.85034663347E+03  0.00000000000E+00 0.  1.
         21    1    1    2  502  501  0.24455554924E+02 -0.13322288593E+02 -0.37759960893E+02  0.46918782877E+02  0.00000000000E+00 0. -1.
<mgrwt>
<rscale>  1 0.65659254E+03</rscale>
<asrwt>0</asrwt>
<pdfrwt beam="1">  1        1 0.42590225E+00 0.65659254E+03</pdfrwt>
<pdfrwt beam="2">0</pdfrwt>
<totfact> 0.10221567E+00</totfact>
</mgrwt>
</event>
<event>
 6    1  0.2341564E-003  0.6441708E+03  0.7818608E-02  0.9817779E-01
          1   -1    0    0  502    0  0.00000000000E+00  0.00000000000E+00  0.10373922176E+03  0.10373922176E+03  0.00000000000E+00 0.  1.
         13   -1    0    0    0    0 -0.00000000000E+00 -0.00000000000E+00 -0.10000000000E+04  0.10000000000E+04  0.00000000000E+00 0.  1.
    9000005    2    1    2  501    0 -0.25514676264E-03  0.28231197733E-03 -0.89626081040E+03  0.11037388399E+04  0.64417077425E+03 0.  0.
         13    1    3    3    0    0  0.31260713495E+03 -0.76344048657E+02 -0.47157725888E+03  0.57090870171E+03  0.00000000000E+00 0.  1.
          3    1    3    3  501    0 -0.31260739010E+03  0.76344330969E+02 -0.42468355151E+03  0.53283013817E+03  0.00000000000E+00 0.  1.
         21    1    1    2  502  501  0.25514676267E-03 -0.28231197733E-03  0.32153238818E-04  0.38188185845E-03  0.00000000000E+00 0.  1.
<mgrwt>
<rscale>  1 0.64417077E+03</rscale>
<asrwt>0</asrwt>
<pdfrwt beam="1">  1        1 0.37723433E+00 0.64417077E+03</pdfrwt>
<pdfrwt beam="2">0</pdfrwt>
<totfact> 0.16895109E+00</totfact>
</mgrwt>
</event>
<event>
 6    1  0.2341564E-003  0.6683273E+03  0.7818608E-02  0.9772984E-01
          1   -1    0    0  502    0  0.00000000000E+00  0.00000000000E+00  0.11166604025E+03  0.11166604025E+03  0.00000000000E+00 0.  1.
         13   -1    0    0    0    0 -0.00000000000E+00 -0.00000000000E+00 -0.10000000000E+04  0.10000000000E+04  0.00000000000E+00 0.  1.
    9000005    2    1    2  501    0 -0.11864869393E-04 -0.15175917270E-05 -0.88833465510E+03  0.11116653448E+04  0.66832729960E+03 0.  0.
         13    1    3    3    0    0  0.10422709812E+03  0.55206129712E+02  0.75891998884E+02  0.14025191705E+03  0.00000000000E+00 0.  1.
          3    1    3    3  501    0 -0.10422710998E+03 -0.55206131230E+02 -0.96422665398E+03  0.97141342776E+03  0.00000000000E+00 0.  1.
         21    1    1    2  502  501  0.11864869399E-04  0.15175917306E-05  0.69534952993E-03  0.69545240454E-03  0.00000000000E+00 0. -1.
<mgrwt>
<rscale>  1 0.66832730E+03</rscale>
<asrwt>0</asrwt>
<pdfrwt beam="1">  1        1 0.40605918E+00 0.66832730E+03</pdfrwt>
<pdfrwt beam="2">0</pdfrwt>
<totfact> 0.12527032E+00</totfact>
</mgrwt>
</event>
<event>
 6    1  0.2341564E-003  0.5453198E+03  0.7818608E-02  0.1002583E+00
          1   -1    0    0  502    0  0.00000000000E+00  0.00000000000E+00  0.74344790314E+02  0.74344790314E+02  0.00000000000E+00 0.  1.
         13   -1    0    0    0    0 -0.00000000000E+00 -0.00000000000E+00 -0.10000000000E+04  0.10000000000E+04  0.00000000000E+00 0.  1.
    9000005    2    1    2  501    0 -0.86477404919E-04 -0.10692341749E-03 -0.92565657546E+03  0.10743434176E+04  0.54531979914E+03 0.  0.
         13    1    3    3    0    0  0.10609767419E+02  0.26926821460E+03 -0.54466400299E+03  0.60768150763E+03  0.00000000000E+00 0.  1.
          1    1    3    3  501    0 -0.10609853897E+02 -0.26926832153E+03 -0.38099257246E+03  0.46666191000E+03  0.00000000000E+00 0.  1.
         21    1    1    2  502  501  0.86477404919E-04  0.10692341750E-03  0.13657721458E-02  0.13726778621E-02  0.00000000000E+00 0. -1.
<mgrwt>
<rscale>  1 0.54531980E+03</rscale>
<asrwt>0</asrwt>
<pdfrwt beam="1">  1        1 0.27034526E+00 0.54531980E+03</pdfrwt>
<pdfrwt beam="2">0</pdfrwt>
<totfact> 0.50022082E+00</totfact>
</mgrwt>
</event>
<event>
 6    1  0.2341564E-003  0.6471843E+03  0.7818608E-02  0.9812077E-01
          1   -1    0    0  502    0  0.00000000000E+00  0.00000000000E+00  0.10579470470E+03  0.10579470470E+03  0.00000000000E+00 0.  1.
         13   -1    0    0    0    0 -0.00000000000E+00 -0.00000000000E+00 -0.10000000000E+04  0.10000000000E+04  0.00000000000E+00 0.  1.
    9000005    2    1    2  501    0  0.34301012838E+00  0.13177339952E-01 -0.89525798807E+03  0.11046874596E+04  0.64718420902E+03 0.  0.
         13    1    3    3    0    0 -0.30906222705E+03  0.91283721620E+02 -0.40050788192E+03  0.51406102897E+03  0.00000000000E+00 0.  1.
          3    1    3    3  501    0  0.30940523718E+03 -0.91270544280E+02 -0.49475010616E+03  0.59062643066E+03  0.00000000000E+00 0.  1.
         21    1    1    2  502  501 -0.34301012838E+00 -0.13177339952E-01  0.10526927736E+01  0.11072450795E+01  0.00000000000E+00 0. -1.
<mgrwt>
<rscale>  1 0.64718430E+03</rscale>
<asrwt>0</asrwt>
<pdfrwt beam="1">  1        1 0.38470883E+00 0.64718430E+03</pdfrwt>
<pdfrwt beam="2">0</pdfrwt>
<totfact> 0.15650430E+00</totfact>
</mgrwt>
</event>
<event>
 6    1  0.2341564E-003  0.6522579E+03  0.7818608E-02  0.9802552E-01
          1   -1    0    0  502    0  0.00000000000E+00  0.00000000000E+00  0.10643816707E+03  0.10643816707E+03  0.00000000000E+00 0.  1.
         13   -1    0    0    0    0 -0.00000000000E+00 -0.00000000000E+00 -0.10000000000E+04  0.10000000000E+04  0.00000000000E+00 0.  1.
    9000005    2    1    2  501    0 -0.67115519279E-01 -0.13874741257E-01 -0.89362291040E+03  0.11063463659E+04  0.65225790192E+03 0.  0.
         13    1    3    3    0    0  0.89174316868E+02  0.65187376341E+01  0.85162364526E+02  0.12347947627E+03  0.00000000000E+00 0.  1.
          3    1    3    3  501    0 -0.89241432387E+02 -0.65326123753E+01 -0.97878527492E+03  0.98286688961E+03  0.00000000000E+00 0.  1.
         21    1    1    2  502  501  0.67115519279E-01  0.13874741257E-01  0.61077469128E-01  0.91801190668E-01  0.00000000000E+00 0.  1.
<mgrwt>
<rscale>  1 0.65225791E+03</rscale>
<asrwt>0</asrwt>
<pdfrwt beam="1">  1        1 0.38704870E+00 0.65225791E+03</pdfrwt>
<pdfrwt beam="2">0</pdfrwt>
<totfact> 0.15267377E+00</totfact>
</mgrwt>
</event>
<event>
 6    1  0.2341564E-003  0.6536381E+03  0.7818608E-02  0.9799976E-01
          1   -1    0    0  502    0  0.00000000000E+00  0.00000000000E+00  0.10681234415E+03  0.10681234415E+03  0.00000000000E+00 0.  1.
         13   -1    0    0    0    0 -0.00000000000E+00 -0.00000000000E+00 -0.10000000000E+04  0.10000000000E+04  0.00000000000E+00 0.  1.
    9000005    2    1    2  501    0  0.33536868592E-02 -0.74948214385E-03 -0.89318706023E+03  0.11068088565E+04  0.65363806517E+03 0.  0.
         13    1    3    3    0    0 -0.11946667015E+03  0.87748061880E+02  0.46616484807E+02  0.15538695021E+03  0.00000000000E+00 0.  1.
          3    1    3    3  501    0  0.11947002384E+03 -0.87748811362E+02 -0.93980354504E+03  0.95142190629E+03  0.00000000000E+00 0.  1.
         21    1    1    2  502  501 -0.33536868592E-02  0.74948214386E-03 -0.59562135746E-03  0.34876501882E-02  0.00000000000E+00 0. -1.
<mgrwt>
<rscale>  1 0.65363807E+03</rscale>
<asrwt>0</asrwt>
<pdfrwt beam="1">  1        1 0.38840934E+00 0.65363807E+03</pdfrwt>
<pdfrwt beam="2">0</pdfrwt>
<totfact> 0.15053120E+00</totfact>
</mgrwt>
</event>
<event>
 6    1  0.2341564E-003  0.6514676E+03  0.7818608E-02  0.9804029E-01
          1   -1    0    0  502    0  0.00000000000E+00  0.00000000000E+00  0.10632074680E+03  0.10632074680E+03  0.00000000000E+00 0.  1.
         13   -1    0    0    0    0 -0.00000000000E+00 -0.00000000000E+00 -0.10000000000E+04  0.10000000000E+04  0.00000000000E+00 0.  1.
    9000005    2    1    2  501    0 -0.14121052189E-02 -0.42956235148E-02 -0.89389747485E+03  0.11061024783E+04  0.65146757168E+03 0.  0.
         13    1    3    3    0    0 -0.29362225833E+03  0.36253382357E+01 -0.68631645196E+03  0.74649678224E+03  0.00000000000E+00 0.  1.
          3    1    3    3  501    0  0.29362084623E+03 -0.36296338593E+01 -0.20758102289E+03  0.35960569607E+03  0.00000000000E+00 0.  1.
         21    1    1    2  502  501  0.14121052189E-02  0.42956235148E-02  0.21822164898E+00  0.21826849179E+00  0.00000000000E+00 0.  1.
<mgrwt>
<rscale>  1 0.65146757E+03</rscale>
<asrwt>0</asrwt>
<pdfrwt beam="1">  1        1 0.38662171E+00 0.65146757E+03</pdfrwt>
<pdfrwt beam="2">0</pdfrwt>
<totfact> 0.15336220E+00</totfact>
</mgrwt>
</event>
<event>
 6    1  0.2341564E-003  0.6515925E+03  0.7818608E-02  0.9803796E-01
          1   -1    0    0  502    0  0.00000000000E+00  0.00000000000E+00  0.10626230094E+03  0.10626230094E+03  0.00000000000E+00 0.  1.
         13   -1    0    0    0    0 -0.00000000000E+00 -0.00000000000E+00 -0.10000000000E+04  0.10000000000E+04  0.00000000000E+00 0.  1.
    9000005    2    1    2  501    0  0.10439746649E+00  0.95887385720E-01 -0.89380824959E+03  0.11061039640E+04  0.65159248918E+03 0.  0.
         13    1    3    3    0    0 -0.24459927605E+02  0.32331976796E+03 -0.50164685285E+03  0.59731359049E+03  0.00000000000E+00 0.  1.
          3    1    3    3  501    0  0.24564325071E+02 -0.32322388057E+03 -0.39216139674E+03  0.50879037346E+03  0.00000000000E+00 0.  1.
         21    1    1    2  502  501 -0.10439746649E+00 -0.95887385720E-01  0.70550527735E-01  0.15833697835E+00  0.00000000000E+00 0.  1.
<mgrwt>
<rscale>  1 0.65159250E+03</rscale>
<asrwt>0</asrwt>
<pdfrwt beam="1">  1        1 0.38640918E+00 0.65159250E+03</pdfrwt>
<pdfrwt beam="2">0</pdfrwt>
<totfact> 0.15369123E+00</totfact>
</mgrwt>
</event>
<event>
 6    1  0.2341564E-003  0.6149596E+03  0.7818608E-02  0.9874847E-01
          1   -1    0    0  502    0  0.00000000000E+00  0.00000000000E+00  0.94760411904E+02  0.94760411904E+02  0.00000000000E+00 0.  1.
         13   -1    0    0    0    0 -0.00000000000E+00 -0.00000000000E+00 -0.10000000000E+04  0.10000000000E+04  0.00000000000E+00 0.  1.
    9000005    2    1    2  501    0  0.62410886282E-01  0.69857854155E-01 -0.90544503501E+03  0.10945346163E+04  0.61495959704E+03 0.  0.
         13    1    3    3    0    0  0.25861924274E+03 -0.42096827052E+01 -0.74876172999E+03  0.79217786036E+03  0.00000000000E+00 0.  1.
          1    1    3    3  501    0 -0.25855683186E+03  0.42795405594E+01 -0.15668330502E+03  0.30235675590E+03  0.00000000000E+00 0.  1.
         21    1    1    2  502  501 -0.62410886282E-01 -0.69857854155E-01  0.20544691511E+00  0.22579564531E+00  0.00000000000E+00 0.  1.
<mgrwt>
<rscale>  1 0.61495960E+03</rscale>
<asrwt>0</asrwt>
<pdfrwt beam="1">  1        1 0.34458404E+00 0.61495960E+03</pdfrwt>
<pdfrwt beam="2">0</pdfrwt>
<totfact> 0.23600994E+00</totfact>
</mgrwt>
</event>
<event>
 6    1  0.2341564E-003  0.6522318E+03  0.7818608E-02  0.9802600E-01
          1   -1    0    0  502    0  0.00000000000E+00  0.00000000000E+00  0.10636169235E+03  0.10636169235E+03  0.00000000000E+00 0.  1.
         13   -1    0    0    0    0 -0.00000000000E+00 -0.00000000000E+00 -0.10000000000E+04  0.10000000000E+04  0.00000000000E+00 0.  1.
    9000005    2    1    2  501    0  0.10384799421E-02 -0.25933453523E-03 -0.89364838740E+03  0.11063515559E+04  0.65223180311E+03 0.  0.
         13    1    3    3    0    0 -0.76259551276E+02  0.22497506036E+03 -0.82582267951E+03  0.85930925454E+03  0.00000000000E+00 0.  1.
          3    1    3    3  501    0  0.76260589756E+02 -0.22497531970E+03 -0.67825707893E+02  0.24704230139E+03  0.00000000000E+00 0.  1.
         21    1    1    2  502  501 -0.10384799421E-02  0.25933453525E-03  0.10079751485E-01  0.10136423679E-01  0.00000000000E+00 0. -1.
<mgrwt>
<rscale>  1 0.65223180E+03</rscale>
<asrwt>0</asrwt>
<pdfrwt beam="1">  1        1 0.38677061E+00 0.65223180E+03</pdfrwt>
<pdfrwt beam="2">0</pdfrwt>
<totfact> 0.15310797E+00</totfact>
</mgrwt>
</event>
<event>
 6    1  0.2341564E-003  0.7001287E+03  0.7818608E-02  0.9717012E-01
          1   -1    0    0  502    0  0.00000000000E+00  0.00000000000E+00  0.12257707220E+03  0.12257707220E+03  0.00000000000E+00 0.  1.
         13   -1    0    0    0    0 -0.00000000000E+00 -0.00000000000E+00 -0.10000000000E+04  0.10000000000E+04  0.00000000000E+00 0.  1.
    9000005    2    1    2  501    0  0.62237680901E-03  0.17762117062E-03 -0.87745493196E+03  0.11225450615E+04  0.70012874349E+03 0.  0.
         13    1    3    3    0    0 -0.11808094572E+02 -0.15076150328E+03 -0.94492772387E+03  0.95695186154E+03  0.00000000000E+00 0.  1.
          3    1    3    3  501    0  0.11808716949E+02  0.15076168090E+03  0.67472791904E+02  0.16559319996E+03  0.00000000000E+00 0.  1.
         21    1    1    2  502  501 -0.62237680901E-03 -0.17762117061E-03  0.32004158008E-01  0.32010701835E-01  0.00000000000E+00 0. -1.
<mgrwt>
<rscale>  1 0.70012874E+03</rscale>
<asrwt>0</asrwt>
<pdfrwt beam="1">  1        1 0.44573575E+00 0.70012874E+03</pdfrwt>
<pdfrwt beam="2">0</pdfrwt>
<totfact> 0.82285233E-01</totfact>
</mgrwt>
</event>
<event>
 6    1  0.2341564E-003  0.6522440E+03  0.7818608E-02  0.9802578E-01
          1   -1    0    0  502    0  0.00000000000E+00  0.00000000000E+00  0.11729274579E+03  0.11729274579E+03  0.00000000000E+00 0.  1.
         13   -1    0    0    0    0 -0.00000000000E+00 -0.00000000000E+00 -0.10000000000E+04  0.10000000000E+04  0.00000000000E+00 0.  1.
    9000005    2    1    2  501    0 -0.12977055453E+01 -0.28712073731E+01 -0.89339280366E+03  0.11061523311E+04  0.65223642199E+03 0.  0.
         13    1    3    3    0    0  0.52045783923E+02 -0.14386634164E+02 -0.99199082252E+03  0.99345937553E+03  0.00000000000E+00 0.  1.
          1    1    3    3  501    0 -0.53343489468E+02  0.11515426791E+02  0.98598018852E+02  0.11269295561E+03  0.00000000000E+00 0.  1.
         21    1    1    2  502  501  0.12977055453E+01  0.28712073731E+01  0.10685549453E+02  0.11140414650E+02  0.00000000000E+00 0. -1.
<mgrwt>
<rscale>  1 0.65224403E+03</rscale>
<asrwt>0</asrwt>
<pdfrwt beam="1">  1        1 0.42651998E+00 0.65224403E+03</pdfrwt>
<pdfrwt beam="2">0</pdfrwt>
<totfact> 0.10164719E+00</totfact>
</mgrwt>
</event>
<event>
 6    1  0.2341564E-003  0.6449371E+03  0.7818608E-02  0.9816326E-01
          1   -1    0    0  502    0  0.00000000000E+00  0.00000000000E+00  0.10398597222E+03  0.10398597222E+03  0.00000000000E+00 0.  1.
         13   -1    0    0    0    0 -0.00000000000E+00 -0.00000000000E+00 -0.10000000000E+04  0.10000000000E+04  0.00000000000E+00 0.  1.
    9000005    2    1    2  501    0  0.18786805356E-05 -0.58165229007E-05 -0.89601403216E+03  0.11039859647E+04  0.64493710115E+03 0.  0.
         13    1    3    3    0    0  0.19325905756E+03 -0.23596618974E+03 -0.62718691706E+03  0.69741847908E+03  0.00000000000E+00 0.  1.
          1    1    3    3  501    0 -0.19325905568E+03  0.23596618392E+03 -0.26882711510E+03  0.40656748563E+03  0.00000000000E+00 0.  1.
         21    1    1    2  502  501 -0.18786805173E-05  0.58165228950E-05  0.43816735517E-05  0.75206676690E-05  0.00000000000E+00 0. -1.
<mgrwt>
<rscale>  1 0.64493710E+03</rscale>
<asrwt>0</asrwt>
<pdfrwt beam="1">  1        1 0.37813161E+00 0.64493710E+03</pdfrwt>
<pdfrwt beam="2">0</pdfrwt>
<totfact> 0.16739612E+00</totfact>
</mgrwt>
</event>
<event>
 6    1  0.2341564E-003  0.6541193E+03  0.7818608E-02  0.9799080E-01
          1   -1    0    0  502    0  0.00000000000E+00  0.00000000000E+00  0.10697385709E+03  0.10697385709E+03  0.00000000000E+00 0.  1.
         13   -1    0    0    0    0 -0.00000000000E+00 -0.00000000000E+00 -0.10000000000E+04  0.10000000000E+04  0.00000000000E+00 0.  1.
    9000005    2    1    2  501    0 -0.75534463041E-02 -0.39633239858E-02 -0.89302831634E+03  0.11069650545E+04  0.65411929948E+03 0.  0.
         13    1    3    3    0    0  0.68831130697E+02 -0.28963993769E+03 -0.67569306874E+03  0.73836992166E+03  0.00000000000E+00 0.  1.
          1    1    3    3  501    0 -0.68838684143E+02  0.28963597437E+03 -0.21733524759E+03  0.36859513281E+03  0.00000000000E+00 0.  1.
         21    1    1    2  502  501  0.75534463041E-02  0.39633239858E-02  0.21734328467E-02  0.88026301992E-02  0.00000000000E+00 0.  1.
<mgrwt>
<rscale>  1 0.65411930E+03</rscale>
<asrwt>0</asrwt>
<pdfrwt beam="1">  1        1 0.38899666E+00 0.65411930E+03</pdfrwt>
<pdfrwt beam="2">0</pdfrwt>
<totfact> 0.14961839E+00</totfact>
</mgrwt>
</event>
<event>
 6    1  0.2341564E-003  0.6457078E+03  0.7818608E-02  0.9814867E-01
          1   -1    0    0  502    0  0.00000000000E+00  0.00000000000E+00  0.10424178141E+03  0.10424178141E+03  0.00000000000E+00 0.  1.
         13   -1    0    0    0    0 -0.00000000000E+00 -0.00000000000E+00 -0.10000000000E+04  0.10000000000E+04  0.00000000000E+00 0.  1.
    9000005    2    1    2  501    0  0.68336169906E-02  0.28102779136E-02 -0.89576317290E+03  0.11042328853E+04  0.64570783094E+03 0.  0.
         13    1    3    3    0    0 -0.29938837372E+03 -0.11880226415E+03 -0.48553370019E+03  0.58265800459E+03  0.00000000000E+00 0.  1.
          1    1    3    3  501    0  0.29939520734E+03  0.11880507443E+03 -0.41022947271E+03  0.52157488069E+03  0.00000000000E+00 0.  1.
         21    1    1    2  502  501 -0.68336169906E-02 -0.28102779136E-02  0.49543097172E-02  0.88961321877E-02  0.00000000000E+00 0.  1.
<mgrwt>
<rscale>  1 0.64570783E+03</rscale>
<asrwt>0</asrwt>
<pdfrwt beam="1">  1        1 0.37906182E+00 0.64570783E+03</pdfrwt>
<pdfrwt beam="2">0</pdfrwt>
<totfact> 0.16579918E+00</totfact>
</mgrwt>
</event>
<event>
 6    1  0.2341564E-003  0.4756788E+03  0.7818608E-02  0.1020330E+00
          1   -1    0    0  502    0  0.00000000000E+00  0.00000000000E+00  0.57008819388E+02  0.57008819388E+02  0.00000000000E+00 0.  1.
         13   -1    0    0    0    0 -0.00000000000E+00 -0.00000000000E+00 -0.10000000000E+04  0.10000000000E+04  0.00000000000E+00 0.  1.
    9000005    2    1    2  501    0 -0.10298166728E+00  0.31964255962E-01 -0.94342544756E+03  0.10565613658E+04  0.47567881279E+03 0.  0.
         13    1    3    3    0    0  0.81813200163E+02  0.14865128762E+03 -0.84186179371E+03  0.85879094356E+03  0.00000000000E+00 0.  1.
          3    1    3    3  501    0 -0.81916181830E+02 -0.14861932337E+03 -0.10156365385E+03  0.19777042223E+03  0.00000000000E+00 0.  1.
         21    1    1    2  502  501  0.10298166728E+00 -0.31964255962E-01  0.43426695228E+00  0.44745359904E+00  0.00000000000E+00 0. -1.
<mgrwt>
<rscale>  1 0.47567883E+03</rscale>
<asrwt>0</asrwt>
<pdfrwt beam="1">  1        1 0.20730523E+00 0.47567883E+03</pdfrwt>
<pdfrwt beam="2">0</pdfrwt>
<totfact> 0.95655527E+00</totfact>
</mgrwt>
</event>
<event>
 6    1  0.2341564E-003  0.6593625E+03  0.7818608E-02  0.9789368E-01
          1   -1    0    0  502    0  0.00000000000E+00  0.00000000000E+00  0.10869441298E+03  0.10869441298E+03  0.00000000000E+00 0.  1.
         13   -1    0    0    0    0 -0.00000000000E+00 -0.00000000000E+00 -0.10000000000E+04  0.10000000000E+04  0.00000000000E+00 0.  1.
    9000005    2    1    2  501    0  0.16862983836E-02 -0.10158434030E-02 -0.89131003824E+03  0.11086895459E+04  0.65936251395E+03 0.  0.
         13    1    3    3    0    0 -0.59329938156E+02 -0.10628868115E+03 -0.96082993142E+03  0.96850992892E+03  0.00000000000E+00 0.  1.
          3    1    3    3  501    0  0.59331624454E+02  0.10628766531E+03  0.69519893172E+02  0.14017961694E+03  0.00000000000E+00 0.  1.
         21    1    1    2  502  501 -0.16862983836E-02  0.10158434030E-02  0.44512191343E-02  0.48671235693E-02  0.00000000000E+00 0.  1.
<mgrwt>
<rscale>  1 0.65936251E+03</rscale>
<asrwt>0</asrwt>
<pdfrwt beam="1">  1        1 0.39525324E+00 0.65936251E+03</pdfrwt>
<pdfrwt beam="2">0</pdfrwt>
<totfact> 0.14021146E+00</totfact>
</mgrwt>
</event>
<event>
 6    1  0.2341564E-003  0.6441283E+03  0.7818608E-02  0.9817860E-01
          1   -1    0    0  502    0  0.00000000000E+00  0.00000000000E+00  0.10388616428E+03  0.10388616428E+03  0.00000000000E+00 0.  1.
         13   -1    0    0    0    0 -0.00000000000E+00 -0.00000000000E+00 -0.10000000000E+04  0.10000000000E+04  0.00000000000E+00 0.  1.
    9000005    2    1    2  501    0  0.39483129083E-03  0.23266419572E-01 -0.89627374720E+03  0.11037245686E+04  0.64412832018E+03 0.  0.
         13    1    3    3    0    0  0.86801111778E+02  0.68077258403E+01 -0.97945106316E+03  0.98331335965E+03  0.00000000000E+00 0.  1.
          3    1    3    3  501    0 -0.86800716946E+02 -0.67844594208E+01  0.83177315953E+02  0.12041120895E+03  0.00000000000E+00 0.  1.
         21    1    1    2  502  501 -0.39483129083E-03 -0.23266419572E-01  0.15991147982E+00  0.16159567924E+00  0.00000000000E+00 0.  1.
<mgrwt>
<rscale>  1 0.64412832E+03</rscale>
<asrwt>0</asrwt>
<pdfrwt beam="1">  1        1 0.37776867E+00 0.64412832E+03</pdfrwt>
<pdfrwt beam="2">0</pdfrwt>
<totfact> 0.16803882E+00</totfact>
</mgrwt>
</event>
<event>
 6    1  0.2341564E-003  0.6364152E+03  0.7818608E-02  0.9832609E-01
          1   -1    0    0  502    0  0.00000000000E+00  0.00000000000E+00  0.10126626330E+03  0.10126626330E+03  0.00000000000E+00 0.  1.
         13   -1    0    0    0    0 -0.00000000000E+00 -0.00000000000E+00 -0.10000000000E+04  0.10000000000E+04  0.00000000000E+00 0.  1.
    9000005    2    1    2  501    0 -0.12196086499E-02 -0.77396648805E-04 -0.89874389296E+03  0.11012560338E+04  0.63641516859E+03 0.  0.
         13    1    3    3    0    0  0.26579763003E+03 -0.15885726014E+03 -0.57619643725E+03  0.65413021910E+03  0.00000000000E+00 0.  1.
          3    1    3    3  501    0 -0.26579884964E+03  0.15885718274E+03 -0.32254745570E+03  0.44712581469E+03  0.00000000000E+00 0.  1.
         21    1    1    2  502  501  0.12196086499E-02  0.77396648810E-04  0.10156257501E-01  0.10229516212E-01  0.00000000000E+00 0.  1.
<mgrwt>
<rscale>  1 0.63641517E+03</rscale>
<asrwt>0</asrwt>
<pdfrwt beam="1">  1        1 0.36824173E+00 0.63641517E+03</pdfrwt>
<pdfrwt beam="2">0</pdfrwt>
<totfact> 0.18531867E+00</totfact>
</mgrwt>
</event>
<event>
 6    1  0.2499242E-003  0.7171674E+03  0.7818608E-02  0.9688316E-01
          1   -1    0    0  502    0  0.00000000000E+00  0.00000000000E+00  0.12858255637E+03  0.12858255637E+03  0.00000000000E+00 0.  1.
         13   -1    0    0    0    0 -0.00000000000E+00 -0.00000000000E+00 -0.10000000000E+04  0.10000000000E+04  0.00000000000E+00 0.  1.
    9000005    2    1    2  501    0 -0.45133755684E-03  0.12857995785E-03 -0.87141746148E+03  0.11285820867E+04  0.71716743813E+03 0.  0.
         13    1    3    3    0    0  0.97640176909E+01  0.17069119610E+03 -0.93172941575E+03  0.94728587272E+03  0.00000000000E+00 0.  1.
          3    1    3    3  501    0 -0.97644690284E+01 -0.17069106752E+03  0.60311954273E+02  0.18129621402E+03  0.00000000000E+00 0.  1.
         21    1    1    2  502  501  0.45133755683E-03 -0.12857995783E-03  0.17844160925E-04  0.46963476218E-03  0.00000000000E+00 0. -1.
<mgrwt>
<rscale>  1 0.71716744E+03</rscale>
<asrwt>0</asrwt>
<pdfrwt beam="1">  1        1 0.46757392E+00 0.71716744E+03</pdfrwt>
<pdfrwt beam="2">0</pdfrwt>
<totfact> 0.64950945E-01</totfact>
</mgrwt>
</event>
<event>
 6    1  0.2341564E-003  0.6058859E+03  0.7818608E-02  0.9893269E-01
          1   -1    0    0  502    0  0.00000000000E+00  0.00000000000E+00  0.92063715411E+02  0.92063715411E+02  0.00000000000E+00 0.  1.
         13   -1    0    0    0    0 -0.00000000000E+00 -0.00000000000E+00 -0.10000000000E+04  0.10000000000E+04  0.00000000000E+00 0.  1.
    9000005    2    1    2  501    0  0.45977147439E-02  0.11266101387E-02 -0.90822555282E+03  0.10917744084E+04  0.60588588375E+03 0.  0.
         13    1    3    3    0    0  0.11283062345E+03  0.28107910518E+03 -0.46537499539E+03  0.55525678681E+03  0.00000000000E+00 0.  1.
          3    1    3    3  501    0 -0.11282602573E+03 -0.28107797857E+03 -0.44285055743E+03  0.53651762164E+03  0.00000000000E+00 0.  1.
         21    1    1    2  502  501 -0.45977147439E-02 -0.11266101387E-02  0.28926823152E+00  0.28930696154E+00  0.00000000000E+00 0. -1.
<mgrwt>
<rscale>  1 0.60588588E+03</rscale>
<asrwt>0</asrwt>
<pdfrwt beam="1">  1        1 0.33477785E+00 0.60588588E+03</pdfrwt>
<pdfrwt beam="2">0</pdfrwt>
<totfact> 0.26074575E+00</totfact>
</mgrwt>
</event>
<event>
 6    1  0.2341564E-003  0.6250903E+03  0.7818608E-02  0.9854677E-01
          1   -1    0    0  502    0  0.00000000000E+00  0.00000000000E+00  0.97684532668E+02  0.97684532668E+02  0.00000000000E+00 0.  1.
         13   -1    0    0    0    0 -0.00000000000E+00 -0.00000000000E+00 -0.10000000000E+04  0.10000000000E+04  0.00000000000E+00 0.  1.
    9000005    2    1    2  501    0  0.36709230073E-05 -0.50753656851E-05 -0.90231551601E+03  0.10976844836E+04  0.62509034153E+03 0.  0.
         13    1    3    3    0    0 -0.21717368343E+03 -0.52206194325E+02 -0.67252466657E+02  0.23326549203E+03  0.00000000000E+00 0.  1.
          1    1    3    3  501    0  0.21717368710E+03  0.52206189250E+02 -0.83506304936E+03  0.86441899156E+03  0.00000000000E+00 0.  1.
         21    1    1    2  502  501 -0.36709230069E-05  0.50753656872E-05  0.48681009973E-04  0.49082336380E-04  0.00000000000E+00 0. -1.
<mgrwt>
<rscale>  1 0.62509034E+03</rscale>
<asrwt>0</asrwt>
<pdfrwt beam="1">  1        1 0.35521723E+00 0.62509034E+03</pdfrwt>
<pdfrwt beam="2">0</pdfrwt>
<totfact> 0.21174435E+00</totfact>
</mgrwt>
</event>
<event>
 6    1  0.2341564E-003  0.6379666E+03  0.7818608E-02  0.9829625E-01
          1   -1    0    0  502    0  0.00000000000E+00  0.00000000000E+00  0.10411842375E+03  0.10411842375E+03  0.00000000000E+00 0.  1.
         13   -1    0    0    0    0 -0.00000000000E+00 -0.00000000000E+00 -0.10000000000E+04  0.10000000000E+04  0.00000000000E+00 0.  1.
    9000005    2    1    2  501    0  0.14228538776E+01 -0.10831107268E+01 -0.89787213918E+03  0.11014426093E+04  0.63796414140E+03 0.  0.
         13    1    3    3    0    0  0.27387545922E+03 -0.13663826264E+03 -0.28992351070E+03  0.42158442101E+03  0.00000000000E+00 0.  1.
          3    1    3    3  501    0 -0.27245260534E+03  0.13555515191E+03 -0.60794862848E+03  0.67985818833E+03  0.00000000000E+00 0.  1.
         21    1    1    2  502  501 -0.14228538776E+01  0.10831107268E+01  0.19905629261E+01  0.26758144118E+01  0.00000000000E+00 0.  1.
<mgrwt>
<rscale>  1 0.63796665E+03</rscale>
<asrwt>0</asrwt>
<pdfrwt beam="1">  1        1 0.37861325E+00 0.63796665E+03</pdfrwt>
<pdfrwt beam="2">0</pdfrwt>
<totfact> 0.16679402E+00</totfact>
</mgrwt>
</event>
<event>
 6    1  0.2341564E-003  0.6535841E+03  0.7818608E-02  0.9800077E-01
          1   -1    0    0  502    0  0.00000000000E+00  0.00000000000E+00  0.10679316399E+03  0.10679316399E+03  0.00000000000E+00 0.  1.
         13   -1    0    0    0    0 -0.00000000000E+00 -0.00000000000E+00 -0.10000000000E+04  0.10000000000E+04  0.00000000000E+00 0.  1.
    9000005    2    1    2  501    0  0.10233400589E-03 -0.82853380263E-04 -0.89320692600E+03  0.11067930045E+04  0.65358407430E+03 0.  0.
         13    1    3    3    0    0 -0.19442923146E+02 -0.29463559144E+03 -0.20949494146E+03  0.36204459601E+03  0.00000000000E+00 0.  1.
          3    1    3    3  501    0  0.19443025480E+02  0.29463550859E+03 -0.68371198454E+03  0.74474840850E+03  0.00000000000E+00 0.  1.
         21    1    1    2  502  501 -0.10233400590E-03  0.82853380246E-04  0.89988685240E-04  0.15948321182E-03  0.00000000000E+00 0. -1.
<mgrwt>
<rscale>  1 0.65358407E+03</rscale>
<asrwt>0</asrwt>
<pdfrwt beam="1">  1        1 0.38833960E+00 0.65358407E+03</pdfrwt>
<pdfrwt beam="2">0</pdfrwt>
<totfact> 0.15063987E+00</totfact>
</mgrwt>
</event>
<event>
 6    1  0.2341564E-003  0.6528306E+03  0.7818608E-02  0.9801482E-01
          1   -1    0    0  502    0  0.00000000000E+00  0.00000000000E+00  0.10779934153E+03  0.10779934153E+03  0.00000000000E+00 0.  1.
         13   -1    0    0    0    0 -0.00000000000E+00 -0.00000000000E+00 -0.10000000000E+04  0.10000000000E+04  0.00000000000E+00 0.  1.
    9000005    2    1    2  501    0  0.10981015386E+00 -0.80027625711E-01 -0.89344896332E+03  0.11065436634E+04  0.65283061385E+03 0.  0.
         13    1    3    3    0    0  0.15628665750E+03  0.32122923648E+02 -0.92946865734E+03  0.94306382950E+03  0.00000000000E+00 0.  1.
          3    1    3    3  501    0 -0.15617684735E+03 -0.32202951273E+02  0.36019694019E+02  0.16347983385E+03  0.00000000000E+00 0.  1.
         21    1    1    2  502  501 -0.10981015386E+00  0.80027625711E-01  0.12483048448E+01  0.12556781739E+01  0.00000000000E+00 0.  1.
<mgrwt>
<rscale>  1 0.65283063E+03</rscale>
<asrwt>0</asrwt>
<pdfrwt beam="1">  1        1 0.39199843E+00 0.65283063E+03</pdfrwt>
<pdfrwt beam="2">0</pdfrwt>
<totfact> 0.14513565E+00</totfact>
</mgrwt>
</event>
<event>
 6    1  0.2341564E-003  0.6457069E+03  0.7818608E-02  0.9814868E-01
          1   -1    0    0  502    0  0.00000000000E+00  0.00000000000E+00  0.10425209937E+03  0.10425209937E+03  0.00000000000E+00 0.  1.
         13   -1    0    0    0    0 -0.00000000000E+00 -0.00000000000E+00 -0.10000000000E+04  0.10000000000E+04  0.00000000000E+00 0.  1.
    9000005    2    1    2  501    0  0.25936258920E-02  0.28814953253E-02 -0.89576542753E+03  0.11042341488E+04  0.64570686404E+03 0.  0.
         13    1    3    3    0    0  0.84141000294E+02 -0.22395513230E+03 -0.77144007145E+02  0.25136986107E+03  0.00000000000E+00 0.  1.
          3    1    3    3  501    0 -0.84138406668E+02  0.22395801380E+03 -0.81862142038E+03  0.85286428776E+03  0.00000000000E+00 0.  1.
         21    1    1    2  502  501 -0.25936258920E-02 -0.28814953253E-02  0.17526892865E-01  0.17950539938E-01  0.00000000000E+00 0.  1.
<mgrwt>
<rscale>  1 0.64570686E+03</rscale>
<asrwt>0</asrwt>
<pdfrwt beam="1">  1        1 0.37909934E+00 0.64570686E+03</pdfrwt>
<pdfrwt beam="2">0</pdfrwt>
<totfact> 0.16573605E+00</totfact>
</mgrwt>
</event>
<event>
 6    1  0.2341564E-003  0.6461063E+03  0.7818608E-02  0.9814113E-01
          1   -1    0    0  502    0  0.00000000000E+00  0.00000000000E+00  0.10843626952E+03  0.10843626952E+03  0.00000000000E+00 0.  1.
         13   -1    0    0    0    0 -0.00000000000E+00 -0.00000000000E+00 -0.10000000000E+04  0.10000000000E+04  0.00000000000E+00 0.  1.
    9000005    2    1    2  501    0  0.48580235640E+00  0.40271260205E+00 -0.89560965948E+03  0.11043414285E+04  0.64610597458E+03 0.  0.
         13    1    3    3    0    0  0.31996442807E+03 -0.36226036735E+02 -0.49688604906E+03  0.59210244613E+03  0.00000000000E+00 0.  1.
          3    1    3    3  501    0 -0.31947862571E+03  0.36628749337E+02 -0.39872361043E+03  0.51223898239E+03  0.00000000000E+00 0.  1.
         21    1    1    2  502  501 -0.48580235640E+00 -0.40271260205E+00  0.40459290069E+01  0.40948410102E+01  0.00000000000E+00 0. -1.
<mgrwt>
<rscale>  1 0.64610628E+03</rscale>
<asrwt>0</asrwt>
<pdfrwt beam="1">  1        1 0.39431454E+00 0.64610628E+03</pdfrwt>
<pdfrwt beam="2">0</pdfrwt>
<totfact> 0.14191782E+00</totfact>
</mgrwt>
</event>
<event>
 6    1  0.2341564E-003  0.6453983E+03  0.7818608E-02  0.9815452E-01
          1   -1    0    0  502    0  0.00000000000E+00  0.00000000000E+00  0.16819580133E+03  0.16819580133E+03  0.00000000000E+00 0.  1.
         13   -1    0    0    0    0 -0.00000000000E+00 -0.00000000000E+00 -0.10000000000E+04  0.10000000000E+04  0.00000000000E+00 0.  1.
    9000005    2    1    2  501    0  0.84327406847E+01  0.72598173915E+01 -0.89533130790E+03  0.11037015406E+04  0.64530235060E+03 0.  0.
         13    1    3    3    0    0 -0.10956350604E+03  0.27216823537E+03 -0.21377735859E+03  0.36301579751E+03  0.00000000000E+00 0.  1.
          3    1    3    3  501    0  0.11799624672E+03 -0.26490841797E+03 -0.68155394931E+03  0.74068574306E+03  0.00000000000E+00 0.  1.
         21    1    1    2  502  501 -0.84327406847E+01 -0.72598173915E+01  0.63527109224E+02  0.64494260755E+02  0.00000000000E+00 0. -1.
<mgrwt>
<rscale>  1 0.64539828E+03</rscale>
<asrwt>0</asrwt>
<pdfrwt beam="1">  1        1 0.61162239E+00 0.64539828E+03</pdfrwt>
<pdfrwt beam="2">0</pdfrwt>
<totfact> 0.12352645E-01</totfact>
</mgrwt>
</event>
<event>
 6    1  0.2341564E-003  0.6455261E+03  0.7818608E-02  0.9815211E-01
          1   -1    0    0  502    0  0.00000000000E+00  0.00000000000E+00  0.10418998436E+03  0.10418998436E+03  0.00000000000E+00 0.  1.
         13   -1    0    0    0    0 -0.00000000000E+00 -0.00000000000E+00 -0.10000000000E+04  0.10000000000E+04  0.00000000000E+00 0.  1.
    9000005    2    1    2  501    0  0.13336444709E-01  0.19976671630E-01 -0.89581159771E+03  0.11041659130E+04  0.64552609880E+03 0.  0.
         13    1    3    3    0    0 -0.25627874499E+03  0.26979368823E+02 -0.11549007556E+03  0.28239093298E+03  0.00000000000E+00 0.  1.
          3    1    3    3  501    0  0.25629208143E+03 -0.26959392151E+02 -0.78032152215E+03  0.82177498001E+03  0.00000000000E+00 0.  1.
         21    1    1    2  502  501 -0.13336444709E-01 -0.19976671630E-01  0.15820705373E-02  0.24071375409E-01  0.00000000000E+00 0. -1.
<mgrwt>
<rscale>  1 0.64552610E+03</rscale>
<asrwt>0</asrwt>
<pdfrwt beam="1">  1        1 0.37887347E+00 0.64552610E+03</pdfrwt>
<pdfrwt beam="2">0</pdfrwt>
<totfact> 0.16612214E+00</totfact>
</mgrwt>
</event>
<event>
 6    1  0.2341564E-003  0.6461922E+03  0.7818608E-02  0.9813951E-01
          1   -1    0    0  502    0  0.00000000000E+00  0.00000000000E+00  0.10439181249E+03  0.10439181249E+03  0.00000000000E+00 0.  1.
         13   -1    0    0    0    0 -0.00000000000E+00 -0.00000000000E+00 -0.10000000000E+04  0.10000000000E+04  0.00000000000E+00 0.  1.
    9000005    2    1    2  501    0  0.39495410114E-03  0.93535981057E-03 -0.89560847192E+03  0.11043907581E+04  0.64619224041E+03 0.  0.
         13    1    3    3    0    0  0.12216999514E+02 -0.30177164792E+03 -0.64397862964E+03  0.71128324738E+03  0.00000000000E+00 0.  1.
          3    1    3    3  501    0 -0.12216604560E+02  0.30177258328E+03 -0.25162984228E+03  0.39310751071E+03  0.00000000000E+00 0.  1.
         21    1    1    2  502  501 -0.39495410114E-03 -0.93535981055E-03  0.28440813701E-03  0.10544072769E-02  0.00000000000E+00 0.  1.
<mgrwt>
<rscale>  1 0.64619224E+03</rscale>
<asrwt>0</asrwt>
<pdfrwt beam="1">  1        1 0.37960739E+00 0.64619224E+03</pdfrwt>
<pdfrwt beam="2">0</pdfrwt>
<totfact> 0.16486837E+00</totfact>
</mgrwt>
</event>
<event>
 6    1  0.2341564E-003  0.6510662E+03  0.7818608E-02  0.9804781E-01
          1   -1    0    0  502    0  0.00000000000E+00  0.00000000000E+00  0.10630184476E+03  0.10630184476E+03  0.00000000000E+00 0.  1.
         13   -1    0    0    0    0 -0.00000000000E+00 -0.00000000000E+00 -0.10000000000E+04  0.10000000000E+04  0.00000000000E+00 0.  1.
    9000005    2    1    2  501    0  0.13460672175E+00  0.75822102689E-01 -0.89400809849E+03  0.11059555316E+04  0.65106615171E+03 0.  0.
         13    1    3    3    0    0 -0.77772088548E+02  0.29583965708E+03 -0.25776401659E+03  0.40001486061E+03  0.00000000000E+00 0.  1.
          1    1    3    3  501    0  0.77906695269E+02 -0.29576383498E+03 -0.63624408190E+03  0.70594067102E+03  0.00000000000E+00 0.  1.
         21    1    1    2  502  501 -0.13460672175E+00 -0.75822102689E-01  0.30994325138E+00  0.34631312403E+00  0.00000000000E+00 0.  1.
<mgrwt>
<rscale>  1 0.65106617E+03</rscale>
<asrwt>0</asrwt>
<pdfrwt beam="1">  1        1 0.38655298E+00 0.65106617E+03</pdfrwt>
<pdfrwt beam="2">0</pdfrwt>
<totfact> 0.15348108E+00</totfact>
</mgrwt>
</event>
<event>
 6    1  0.2341564E-003  0.6497524E+03  0.7818608E-02  0.9807244E-01
          1   -1    0    0  502    0  0.00000000000E+00  0.00000000000E+00  0.10590343321E+03  0.10590343321E+03  0.00000000000E+00 0.  1.
         13   -1    0    0    0    0 -0.00000000000E+00 -0.00000000000E+00 -0.10000000000E+04  0.10000000000E+04  0.00000000000E+00 0.  1.
    9000005    2    1    2  501    0 -0.10982821570E+00 -0.19370118836E+00 -0.89441686295E+03  0.11055133409E+04  0.64975239328E+03 0.  0.
         13    1    3    3    0    0 -0.18460431623E+03 -0.25445941112E+03 -0.30719857860E+03  0.43954443708E+03  0.00000000000E+00 0.  1.
          3    1    3    3  501    0  0.18449448802E+03  0.25426570993E+03 -0.58721828435E+03  0.66596890381E+03  0.00000000000E+00 0.  1.
         21    1    1    2  502  501  0.10982821570E+00  0.19370118836E+00  0.32029616424E+00  0.39009232261E+00  0.00000000000E+00 0. -1.
<mgrwt>
<rscale>  1 0.64975243E+03</rscale>
<asrwt>0</asrwt>
<pdfrwt beam="1">  1        1 0.38510421E+00 0.64975243E+03</pdfrwt>
<pdfrwt beam="2">0</pdfrwt>
<totfact> 0.15580134E+00</totfact>
</mgrwt>
</event>
<event>
 6    1  0.2341564E-003  0.6510387E+03  0.7818608E-02  0.9804832E-01
          1   -1    0    0  502    0  0.00000000000E+00  0.00000000000E+00  0.10680548690E+03  0.10680548690E+03  0.00000000000E+00 0.  1.
         13   -1    0    0    0    0 -0.00000000000E+00 -0.00000000000E+00 -0.10000000000E+04  0.10000000000E+04  0.00000000000E+00 0.  1.
    9000005    2    1    2  501    0 -0.20528075186E+01  0.15216476105E+01 -0.88902129011E+03  0.11019121015E+04  0.65103371328E+03 0.  0.
         13    1    3    3    0    0  0.23077135169E+03 -0.54816084990E+02 -0.68128284807E+02  0.24678266375E+03  0.00000000000E+00 0.  1.
          1    1    3    3  501    0 -0.23282415921E+03  0.56337732600E+02 -0.82089300530E+03  0.85512943779E+03  0.00000000000E+00 0.  1.
         21    1    1    2  502  501  0.20528075186E+01 -0.15216476105E+01 -0.41732229894E+01  0.48933853596E+01  0.00000000000E+00 0. -1.
<mgrwt>
<rscale>  1 0.65103873E+03</rscale>
<asrwt>0</asrwt>
<pdfrwt beam="1">  1        1 0.38838441E+00 0.65103873E+03</pdfrwt>
<pdfrwt beam="2">0</pdfrwt>
<totfact> 0.15064209E+00</totfact>
</mgrwt>
</event>
<event>
 6    1  0.2341564E-003  0.6771053E+03  0.7818608E-02  0.9757206E-01
          1   -1    0    0  502    0  0.00000000000E+00  0.00000000000E+00  0.11796871799E+03  0.11796871799E+03  0.00000000000E+00 0.  1.
         13   -1    0    0    0    0 -0.00000000000E+00 -0.00000000000E+00 -0.10000000000E+04  0.10000000000E+04  0.00000000000E+00 0.  1.
    9000005    2    1    2  501    0 -0.54491651138E-01  0.22268024092E-01 -0.88538179954E+03  0.11146176834E+04  0.67710534313E+03 0.  0.
         13    1    3    3    0    0 -0.14711980670E+03  0.28821980944E+03 -0.27878452472E+03  0.42712493172E+03  0.00000000000E+00 0.  1.
          1    1    3    3  501    0  0.14706531505E+03 -0.28819754142E+03 -0.60659727482E+03  0.68749275166E+03  0.00000000000E+00 0.  1.
         21    1    1    2  502  501  0.54491651138E-01 -0.22268024092E-01  0.33505175252E+01  0.33510346002E+01  0.00000000000E+00 0.  1.
<mgrwt>
<rscale>  1 0.67710535E+03</rscale>
<asrwt>0</asrwt>
<pdfrwt beam="1">  1        1 0.42897806E+00 0.67710535E+03</pdfrwt>
<pdfrwt beam="2">0</pdfrwt>
<totfact> 0.98588141E-01</totfact>
</mgrwt>
</event>
<event>
 6    1  0.2341564E-003  0.6596928E+03  0.7818608E-02  0.9788759E-01
          1   -1    0    0  502    0  0.00000000000E+00  0.00000000000E+00  0.10879872932E+03  0.10879872932E+03  0.00000000000E+00 0.  1.
         13   -1    0    0    0    0 -0.00000000000E+00 -0.00000000000E+00 -0.10000000000E+04  0.10000000000E+04  0.00000000000E+00 0.  1.
    9000005    2    1    2  501    0 -0.21787460790E-03  0.66064025987E-04 -0.89120081213E+03  0.11087982174E+04  0.65969280674E+03 0.  0.
         13    1    3    3    0    0  0.74380516546E+02 -0.20971190898E+03 -0.85485231398E+03  0.88333686934E+03  0.00000000000E+00 0.  1.
          1    1    3    3  501    0 -0.74380734420E+02  0.20971197505E+03 -0.36348498148E+02  0.22546134801E+03  0.00000000000E+00 0.  1.
         21    1    1    2  502  501  0.21787460790E-03 -0.66064025986E-04 -0.45855266529E-03  0.51196127504E-03  0.00000000000E+00 0. -1.
<mgrwt>
<rscale>  1 0.65969281E+03</rscale>
<asrwt>0</asrwt>
<pdfrwt beam="1">  1        1 0.39563258E+00 0.65969281E+03</pdfrwt>
<pdfrwt beam="2">0</pdfrwt>
<totfact> 0.13965920E+00</totfact>
</mgrwt>
</event>
<event>
 6    1  0.2341564E-003  0.6411407E+03  0.7818608E-02  0.9823547E-01
          1   -1    0    0  502    0  0.00000000000E+00  0.00000000000E+00  0.10307444194E+03  0.10307444194E+03  0.00000000000E+00 0.  1.
         13   -1    0    0    0    0 -0.00000000000E+00 -0.00000000000E+00 -0.10000000000E+04  0.10000000000E+04  0.00000000000E+00 0.  1.
    9000005    2    1    2  501    0  0.44596935648E-01  0.14235492483E+00 -0.89721468097E+03  0.11027491023E+04  0.64114068398E+03 0.  0.
         13    1    3    3    0    0  0.11124274707E+03 -0.30025173633E+03 -0.42410919980E+03  0.53140819273E+03  0.00000000000E+00 0.  1.
          3    1    3    3  501    0 -0.11119815014E+03  0.30039409125E+03 -0.47310548117E+03  0.57134090959E+03  0.00000000000E+00 0.  1.
         21    1    1    2  502  501 -0.44596935648E-01 -0.14235492483E+00  0.28912291575E+00  0.32533962516E+00  0.00000000000E+00 0. -1.
<mgrwt>
<rscale>  1 0.64114070E+03</rscale>
<asrwt>0</asrwt>
<pdfrwt beam="1">  1        1 0.37481694E+00 0.64114070E+03</pdfrwt>
<pdfrwt beam="2">0</pdfrwt>
<totfact> 0.17323988E+00</totfact>
</mgrwt>
</event>
<event>
 6    1  0.2341564E-003  0.6063236E+03  0.7818608E-02  0.9892373E-01
          1   -1    0    0  502    0  0.00000000000E+00  0.00000000000E+00  0.91907101074E+02  0.91907101074E+02  0.00000000000E+00 0.  1.
         13   -1    0    0    0    0 -0.00000000000E+00 -0.00000000000E+00 -0.10000000000E+04  0.10000000000E+04  0.00000000000E+00 0.  1.
    9000005    2    1    2  501    0 -0.58288678417E-05 -0.93968045292E-05 -0.90809292286E+03  0.10919070747E+04  0.60632359616E+03 0.  0.
         13    1    3    3    0    0  0.22907687926E+03  0.19681160348E+03 -0.50155820496E+03  0.58546704163E+03  0.00000000000E+00 0.  1.
          1    1    3    3  501    0 -0.22907688509E+03 -0.19681161287E+03 -0.40653471790E+03  0.50644003308E+03  0.00000000000E+00 0.  1.
         21    1    1    2  502  501  0.58288678516E-05  0.93968045133E-05  0.23932741685E-04  0.26363834320E-04  0.00000000000E+00 0.  1.
<mgrwt>
<rscale>  1 0.60632360E+03</rscale>
<asrwt>0</asrwt>
<pdfrwt beam="1">  1        1 0.33420835E+00 0.60632360E+03</pdfrwt>
<pdfrwt beam="2">0</pdfrwt>
<totfact> 0.26221263E+00</totfact>
</mgrwt>
</event>
<event>
 6    1  0.2341564E-003  0.6459397E+03  0.7818608E-02  0.9814428E-01
          1   -1    0    0  502    0  0.00000000000E+00  0.00000000000E+00  0.10430995014E+03  0.10430995014E+03  0.00000000000E+00 0.  1.
         13   -1    0    0    0    0 -0.00000000000E+00 -0.00000000000E+00 -0.10000000000E+04  0.10000000000E+04  0.00000000000E+00 0.  1.
    9000005    2    1    2  501    0  0.40398688778E-04 -0.10550227671E-04 -0.89569046749E+03  0.11043095304E+04  0.64593972275E+03 0.  0.
         13    1    3    3    0    0  0.29449184813E+02  0.31032031234E+03 -0.59234153350E+03  0.66935375030E+03  0.00000000000E+00 0.  1.
          1    1    3    3  501    0 -0.29449144415E+02 -0.31032032289E+03 -0.30334893400E+03  0.43495578012E+03  0.00000000000E+00 0.  1.
         21    1    1    2  502  501 -0.40398688777E-04  0.10550227674E-04  0.41763616531E-03  0.41971815297E-03  0.00000000000E+00 0. -1.
<mgrwt>
<rscale>  1 0.64593972E+03</rscale>
<asrwt>0</asrwt>
<pdfrwt beam="1">  1        1 0.37930971E+00 0.64593972E+03</pdfrwt>
<pdfrwt beam="2">0</pdfrwt>
<totfact> 0.16537528E+00</totfact>
</mgrwt>
</event>
<event>
 6    1  0.2341564E-003  0.6414728E+03  0.7818608E-02  0.9822913E-01
          1   -1    0    0  502    0  0.00000000000E+00  0.00000000000E+00  0.10296913390E+03  0.10296913390E+03  0.00000000000E+00 0.  1.
         13   -1    0    0    0    0 -0.00000000000E+00 -0.00000000000E+00 -0.10000000000E+04  0.10000000000E+04  0.00000000000E+00 0.  1.
    9000005    2    1    2  501    0 -0.19525922549E+00  0.68018049487E-01 -0.89698818750E+03  0.11027580081E+04  0.64147281568E+03 0.  0.
         13    1    3    3    0    0 -0.11216017960E+03 -0.29214298835E+03 -0.32759245970E+03  0.45303890692E+03  0.00000000000E+00 0.  1.
          1    1    3    3  501    0  0.11196492037E+03  0.29221100640E+03 -0.56939572780E+03  0.64971910122E+03  0.00000000000E+00 0.  1.
         21    1    1    2  502  501  0.19525922549E+00 -0.68018049487E-01 -0.42678603727E-01  0.21112575260E+00  0.00000000000E+00 0.  1.
<mgrwt>
<rscale>  1 0.64147285E+03</rscale>
<asrwt>0</asrwt>
<pdfrwt beam="1">  1        1 0.37443400E+00 0.64147285E+03</pdfrwt>
<pdfrwt beam="2">0</pdfrwt>
<totfact> 0.17390288E+00</totfact>
</mgrwt>
</event>
<event>
 6    1  0.2341564E-003  0.6545798E+03  0.7818608E-02  0.9798223E-01
          1   -1    0    0  502    0  0.00000000000E+00  0.00000000000E+00  0.10711979384E+03  0.10711979384E+03  0.00000000000E+00 0.  1.
         13   -1    0    0    0    0 -0.00000000000E+00 -0.00000000000E+00 -0.10000000000E+04  0.10000000000E+04  0.00000000000E+00 0.  1.
    9000005    2    1    2  501    0  0.63379899530E-04 -0.30058549771E-03 -0.89288128179E+03  0.11071186752E+04  0.65457984817E+03 0.  0.
         13    1    3    3    0    0  0.10875409856E+03  0.53336817938E+02  0.67812081166E+02  0.13881912135E+03  0.00000000000E+00 0.  1.
          3    1    3    3  501    0 -0.10875403518E+03 -0.53337118524E+02 -0.96069336295E+03  0.96829955386E+03  0.00000000000E+00 0.  1.
         21    1    1    2  502  501 -0.63379899540E-04  0.30058549771E-03  0.10756265520E-02  0.11186336007E-02  0.00000000000E+00 0. -1.
<mgrwt>
<rscale>  1 0.65457985E+03</rscale>
<asrwt>0</asrwt>
<pdfrwt beam="1">  1        1 0.38952734E+00 0.65457985E+03</pdfrwt>
<pdfrwt beam="2">0</pdfrwt>
<totfact> 0.14879741E+00</totfact>
</mgrwt>
</event>
<event>
 6    1  0.2341564E-003  0.6522836E+03  0.7818608E-02  0.9802504E-01
          1   -1    0    0  502    0  0.00000000000E+00  0.00000000000E+00  0.10816156119E+03  0.10816156119E+03  0.00000000000E+00 0.  1.
         13   -1    0    0    0    0 -0.00000000000E+00 -0.00000000000E+00 -0.10000000000E+04  0.10000000000E+04  0.00000000000E+00 0.  1.
    9000005    2    1    2  501    0  0.44725738751E+01 -0.12988823837E+01 -0.88925235575E+03  0.11028343820E+04  0.65226699357E+03 0.  0.
         13    1    3    3    0    0 -0.23850435515E+03 -0.20466584926E+03 -0.58220556802E+03  0.66161602210E+03  0.00000000000E+00 0.  1.
          1    1    3    3  501    0  0.24297692902E+03  0.20336696687E+03 -0.30704678774E+03  0.44121835990E+03  0.00000000000E+00 0.  1.
         21    1    1    2  502  501 -0.44725738751E+01  0.12988823837E+01 -0.25860830578E+01  0.53271791876E+01  0.00000000000E+00 0.  1.
<mgrwt>
<rscale>  1 0.65228362E+03</rscale>
<asrwt>0</asrwt>
<pdfrwt beam="1">  1        1 0.39331560E+00 0.65228362E+03</pdfrwt>
<pdfrwt beam="2">0</pdfrwt>
<totfact> 0.14320882E+00</totfact>
</mgrwt>
</event>
<event>
 6    1  0.2341564E-003  0.6647854E+03  0.7818608E-02  0.9779424E-01
          1   -1    0    0  502    0  0.00000000000E+00  0.00000000000E+00  0.11048683770E+03  0.11048683770E+03  0.00000000000E+00 0.  1.
         13   -1    0    0    0    0 -0.00000000000E+00 -0.00000000000E+00 -0.10000000000E+04  0.10000000000E+04  0.00000000000E+00 0.  1.
    9000005    2    1    2  501    0 -0.14602334417E-02  0.30329492972E-02 -0.88951329488E+03  0.11104834689E+04  0.66478540369E+03 0.  0.
         13    1    3    3    0    0 -0.24756457837E+03  0.20604448105E+03 -0.30758572490E+03  0.44536673292E+03  0.00000000000E+00 0.  1.
          1    1    3    3  501    0  0.24756311813E+03 -0.20604144810E+03 -0.58192756998E+03  0.66511673600E+03  0.00000000000E+00 0.  1.
         21    1    1    2  502  501  0.14602334417E-02 -0.30329492972E-02  0.13258190655E-03  0.33687744219E-02  0.00000000000E+00 0.  1.
<mgrwt>
<rscale>  1 0.66478540E+03</rscale>
<asrwt>0</asrwt>
<pdfrwt beam="1">  1        1 0.40177117E+00 0.66478540E+03</pdfrwt>
<pdfrwt beam="2">0</pdfrwt>
<totfact> 0.13100935E+00</totfact>
</mgrwt>
</event>
<event>
 6    1  0.2341564E-003  0.6642394E+03  0.7818608E-02  0.9780421E-01
          1   -1    0    0  502    0  0.00000000000E+00  0.00000000000E+00  0.11030434931E+03  0.11030434931E+03  0.00000000000E+00 0.  1.
         13   -1    0    0    0    0 -0.00000000000E+00 -0.00000000000E+00 -0.10000000000E+04  0.10000000000E+04  0.00000000000E+00 0.  1.
    9000005    2    1    2  501    0 -0.29001634132E-04  0.15368674674E-04 -0.88969650041E+03  0.11103034990E+04  0.66423941237E+03 0.  0.
         13    1    3    3    0    0  0.97179036208E+02  0.39141526718E+02  0.81959555901E+02  0.13301576221E+03  0.00000000000E+00 0.  1.
          1    1    3    3  501    0 -0.97179065209E+02 -0.39141511350E+02 -0.97165605631E+03  0.97728773675E+03  0.00000000000E+00 0.  1.
         21    1    1    2  502  501  0.29001634128E-04 -0.15368674671E-04  0.84972382295E-03  0.85035749319E-03  0.00000000000E+00 0. -1.
<mgrwt>
<rscale>  1 0.66423941E+03</rscale>
<asrwt>0</asrwt>
<pdfrwt beam="1">  1        1 0.40110757E+00 0.66423941E+03</pdfrwt>
<pdfrwt beam="2">0</pdfrwt>
<totfact> 0.13191931E+00</totfact>
</mgrwt>
</event>
<event>
 6    1  0.2341564E-003  0.6370138E+03  0.7818608E-02  0.9831457E-01
          1   -1    0    0  502    0  0.00000000000E+00  0.00000000000E+00  0.10150724147E+03  0.10150724147E+03  0.00000000000E+00 0.  1.
         13   -1    0    0    0    0 -0.00000000000E+00 -0.00000000000E+00 -0.10000000000E+04  0.10000000000E+04  0.00000000000E+00 0.  1.
    9000005    2    1    2  501    0  0.14172158784E-02 -0.72472081933E-03 -0.89855335827E+03  0.11014466208E+04  0.63701375250E+03 0.  0.
         13    1    3    3    0    0  0.16938922570E+03  0.23239197923E+03 -0.68602774743E+03  0.74386343642E+03  0.00000000000E+00 0.  1.
          3    1    3    3  501    0 -0.16938780849E+03 -0.23239270395E+03 -0.21252561084E+03  0.35758318441E+03  0.00000000000E+00 0.  1.
         21    1    1    2  502  501 -0.14172158784E-02  0.72472081933E-03  0.60599737281E-01  0.60620639056E-01  0.00000000000E+00 0. -1.
<mgrwt>
<rscale>  1 0.63701375E+03</rscale>
<asrwt>0</asrwt>
<pdfrwt beam="1">  1        1 0.36911802E+00 0.63701375E+03</pdfrwt>
<pdfrwt beam="2">0</pdfrwt>
<totfact> 0.18366467E+00</totfact>
</mgrwt>
</event>
<event>
 6    1  0.2341564E-003  0.6541089E+03  0.7818608E-02  0.9799100E-01
          1   -1    0    0  502    0  0.00000000000E+00  0.00000000000E+00  0.10725068850E+03  0.10725068850E+03  0.00000000000E+00 0.  1.
         13   -1    0    0    0    0 -0.00000000000E+00 -0.00000000000E+00 -0.10000000000E+04  0.10000000000E+04  0.00000000000E+00 0.  1.
    9000005    2    1    2  501    0 -0.19326288625E+00 -0.83843198017E-01 -0.89299181915E+03  0.11069294562E+04  0.65410884993E+03 0.  0.
         13    1    3    3    0    0  0.22942559771E+03 -0.15212320842E+03 -0.14772888701E+03  0.31241222685E+03  0.00000000000E+00 0.  1.
          1    1    3    3  501    0 -0.22961886059E+03  0.15203936523E+03 -0.74526293214E+03  0.79451722936E+03  0.00000000000E+00 0.  1.
         21    1    1    2  502  501  0.19326288625E+00  0.83843198017E-01  0.24250765282E+00  0.32123229403E+00  0.00000000000E+00 0. -1.
<mgrwt>
<rscale>  1 0.65410888E+03</rscale>
<asrwt>0</asrwt>
<pdfrwt beam="1">  1        1 0.39000333E+00 0.65410888E+03</pdfrwt>
<pdfrwt beam="2">0</pdfrwt>
<totfact> 0.14808897E+00</totfact>
</mgrwt>
</event>
<event>
 6    1  0.2341564E-003  0.6408171E+03  0.7818608E-02  0.9824164E-01
          1   -1    0    0  502    0  0.00000000000E+00  0.00000000000E+00  0.10270459767E+03  0.10270459767E+03  0.00000000000E+00 0.  1.
         13   -1    0    0    0    0 -0.00000000000E+00 -0.00000000000E+00 -0.10000000000E+04  0.10000000000E+04  0.00000000000E+00 0.  1.
    9000005    2    1    2  501    0 -0.37531098463E-01  0.16436051859E-01 -0.89732730510E+03  0.11026526697E+04  0.64081714695E+03 0.  0.
         13    1    3    3    0    0  0.26905022305E+03 -0.16887157760E+03 -0.37679461705E+03  0.49282838360E+03  0.00000000000E+00 0.  1.
          1    1    3    3  501    0 -0.26908775415E+03  0.16888801365E+03 -0.52053268805E+03  0.60982428610E+03  0.00000000000E+00 0.  1.
         21    1    1    2  502  501  0.37531098463E-01 -0.16436051859E-01  0.31902778124E-01  0.51927973238E-01  0.00000000000E+00 0.  1.
<mgrwt>
<rscale>  1 0.64081715E+03</rscale>
<asrwt>0</asrwt>
<pdfrwt beam="1">  1        1 0.37347205E+00 0.64081715E+03</pdfrwt>
<pdfrwt beam="2">0</pdfrwt>
<totfact> 0.17562693E+00</totfact>
</mgrwt>
</event>
<event>
 6    1  0.2341564E-003  0.6480605E+03  0.7818608E-02  0.9810425E-01
          1   -1    0    0  502    0  0.00000000000E+00  0.00000000000E+00  0.10705041304E+03  0.10705041304E+03  0.00000000000E+00 0.  1.
         13   -1    0    0    0    0 -0.00000000000E+00 -0.00000000000E+00 -0.10000000000E+04  0.10000000000E+04  0.00000000000E+00 0.  1.
    9000005    2    1    2  501    0  0.24877419050E-01  0.30138420297E+00 -0.89499210699E+03  0.11049856275E+04  0.64806039372E+03 0.  0.
         13    1    3    3    0    0 -0.28727159371E+03  0.10732947800E+03 -0.62618458243E+03  0.69724580793E+03  0.00000000000E+00 0.  1.
          1    1    3    3  501    0  0.28729647113E+03 -0.10702809379E+03 -0.26880752457E+03  0.40773981955E+03  0.00000000000E+00 0.  1.
         21    1    1    2  502  501 -0.24877419050E-01 -0.30138420297E+00  0.20425200320E+01  0.20647855591E+01  0.00000000000E+00 0. -1.
<mgrwt>
<rscale>  1 0.64806046E+03</rscale>
<asrwt>0</asrwt>
<pdfrwt beam="1">  1        1 0.38927505E+00 0.64806046E+03</pdfrwt>
<pdfrwt beam="2">0</pdfrwt>
<totfact> 0.14936214E+00</totfact>
</mgrwt>
</event>
<event>
 6    1  0.2341564E-003  0.6466098E+03  0.7818608E-02  0.9813161E-01
          1   -1    0    0  502    0  0.00000000000E+00  0.00000000000E+00  0.10511105683E+03  0.10511105683E+03  0.00000000000E+00 0.  1.
         13   -1    0    0    0    0 -0.00000000000E+00 -0.00000000000E+00 -0.10000000000E+04  0.10000000000E+04  0.00000000000E+00 0.  1.
    9000005    2    1    2  501    0 -0.21463281370E-01 -0.82890368085E-01 -0.89547046957E+03  0.11045232606E+04  0.64660982359E+03 0.  0.
         13    1    3    3    0    0 -0.28552779899E+03 -0.68238800110E+02 -0.67918639923E+03  0.73991676743E+03  0.00000000000E+00 0.  1.
          3    1    3    3  501    0  0.28550633571E+03  0.68155909741E+02 -0.21628407034E+03  0.36460649315E+03  0.00000000000E+00 0.  1.
         21    1    1    2  502  501  0.21463281370E-01  0.82890368085E-01  0.58152639222E+00  0.58779624907E+00  0.00000000000E+00 0. -1.
<mgrwt>
<rscale>  1 0.64660983E+03</rscale>
<asrwt>0</asrwt>
<pdfrwt beam="1">  1        1 0.38222283E+00 0.64660983E+03</pdfrwt>
<pdfrwt beam="2">0</pdfrwt>
<totfact> 0.16053108E+00</totfact>
</mgrwt>
</event>
<event>
 6    1  0.2341564E-003  0.6468070E+03  0.7818608E-02  0.9812789E-01
          1   -1    0    0  502    0  0.00000000000E+00  0.00000000000E+00  0.10468067469E+03  0.10468067469E+03  0.00000000000E+00 0.  1.
         13   -1    0    0    0    0 -0.00000000000E+00 -0.00000000000E+00 -0.10000000000E+04  0.10000000000E+04  0.00000000000E+00 0.  1.
    9000005    2    1    2  501    0 -0.29493970306E-02  0.10553169452E-01 -0.89540982675E+03  0.11045895123E+04  0.64680695167E+03 0.  0.
         13    1    3    3    0    0  0.30423958791E+03  0.52101552829E+02 -0.61251085131E+03  0.68589054639E+03  0.00000000000E+00 0.  1.
          1    1    3    3  501    0 -0.30424253730E+03 -0.52090999660E+02 -0.28289897544E+03  0.41869896591E+03  0.00000000000E+00 0.  1.
         21    1    1    2  502  501  0.29493970306E-02 -0.10553169452E-01  0.90501444096E-01  0.91162381012E-01  0.00000000000E+00 0.  1.
<mgrwt>
<rscale>  1 0.64680695E+03</rscale>
<asrwt>0</asrwt>
<pdfrwt beam="1">  1        1 0.38065780E+00 0.64680695E+03</pdfrwt>
<pdfrwt beam="2">0</pdfrwt>
<totfact> 0.16309975E+00</totfact>
</mgrwt>
</event>
<event>
 6    1  0.2341564E-003  0.6509649E+03  0.7818608E-02  0.9804970E-01
          1   -1    0    0  502    0  0.00000000000E+00  0.00000000000E+00  0.10595014261E+03  0.10595014261E+03  0.00000000000E+00 0.  1.
         13   -1    0    0    0    0 -0.00000000000E+00 -0.00000000000E+00 -0.10000000000E+04  0.10000000000E+04  0.00000000000E+00 0.  1.
    9000005    2    1    2  501    0  0.18724849981E-01  0.11333992762E-01 -0.89404799550E+03  0.11059281757E+04  0.65096490767E+03 0.  0.
         13    1    3    3    0    0  0.15900511836E+02  0.17157257786E+03 -0.91615784164E+03  0.93222055682E+03  0.00000000000E+00 0.  1.
          3    1    3    3  501    0 -0.15881786986E+02 -0.17156124387E+03  0.22109846136E+02  0.17370761886E+03  0.00000000000E+00 0.  1.
         21    1    1    2  502  501 -0.18724849981E-01 -0.11333992762E-01 -0.18618837050E-02  0.21966929910E-01  0.00000000000E+00 0.  1.
<mgrwt>
<rscale>  1 0.65096491E+03</rscale>
<asrwt>0</asrwt>
<pdfrwt beam="1">  1        1 0.38527406E+00 0.65096491E+03</pdfrwt>
<pdfrwt beam="2">0</pdfrwt>
<totfact> 0.15549719E+00</totfact>
</mgrwt>
</event>
<event>
 6    1  0.2341564E-003  0.6509702E+03  0.7818608E-02  0.9804960E-01
          1   -1    0    0  502    0  0.00000000000E+00  0.00000000000E+00  0.10594768314E+03  0.10594768314E+03  0.00000000000E+00 0.  1.
         13   -1    0    0    0    0 -0.00000000000E+00 -0.00000000000E+00 -0.10000000000E+04  0.10000000000E+04  0.00000000000E+00 0.  1.
    9000005    2    1    2  501    0 -0.18791968707E-03 -0.19163623248E-03 -0.89405946056E+03  0.11059405344E+04  0.65097015799E+03 0.  0.
         13    1    3    3    0    0  0.13394516962E+02 -0.82164789702E+01  0.10529573572E+03  0.10646180334E+03  0.00000000000E+00 0.  1.
          3    1    3    3  501    0 -0.13394704881E+02  0.82162873340E+01 -0.99935519628E+03  0.99947873105E+03  0.00000000000E+00 0.  1.
         21    1    1    2  502  501  0.18791968707E-03  0.19163623248E-03  0.71437017322E-02  0.71487420357E-02  0.00000000000E+00 0.  1.
<mgrwt>
<rscale>  1 0.65097016E+03</rscale>
<asrwt>0</asrwt>
<pdfrwt beam="1">  1        1 0.38526511E+00 0.65097016E+03</pdfrwt>
<pdfrwt beam="2">0</pdfrwt>
<totfact> 0.15551121E+00</totfact>
</mgrwt>
</event>
<event>
 6    1  0.2341564E-003  0.6572899E+03  0.7818608E-02  0.9793196E-01
          1   -1    0    0  502    0  0.00000000000E+00  0.00000000000E+00  0.10880172710E+03  0.10880172710E+03  0.00000000000E+00 0.  1.
         13   -1    0    0    0    0 -0.00000000000E+00 -0.00000000000E+00 -0.10000000000E+04  0.10000000000E+04  0.00000000000E+00 0.  1.
    9000005    2    1    2  501    0 -0.77450667200E+00 -0.83875664999E+00 -0.89150923691E+03  0.11076184808E+04  0.65728888325E+03 0.  0.
         13    1    3    3    0    0 -0.17586632418E+03  0.27216667185E+03 -0.35464231408E+03  0.48039029151E+03  0.00000000000E+00 0.  1.
          1    1    3    3  501    0  0.17509181751E+03 -0.27300542850E+03 -0.53686692283E+03  0.62722818924E+03  0.00000000000E+00 0.  1.
         21    1    1    2  502  501  0.77450667200E+00  0.83875664999E+00  0.31096400727E+00  0.11832463466E+01  0.00000000000E+00 0. -1.
<mgrwt>
<rscale>  1 0.65728987E+03</rscale>
<asrwt>0</asrwt>
<pdfrwt beam="1">  1        1 0.39564348E+00 0.65728987E+03</pdfrwt>
<pdfrwt beam="2">0</pdfrwt>
<totfact> 0.13970623E+00</totfact>
</mgrwt>
</event>
<event>
 6    1  0.2341564E-003  0.6469802E+03  0.7818608E-02  0.9812462E-01
          1   -1    0    0  502    0  0.00000000000E+00  0.00000000000E+00  0.10465181125E+03  0.10465181125E+03  0.00000000000E+00 0.  1.
         13   -1    0    0    0    0 -0.00000000000E+00 -0.00000000000E+00 -0.10000000000E+04  0.10000000000E+04  0.00000000000E+00 0.  1.
    9000005    2    1    2  501    0  0.90671786808E-04 -0.49045471542E-04 -0.89535414847E+03  0.11046458506E+04  0.64698021928E+03 0.  0.
         13    1    3    3    0    0  0.80237208787E+02  0.31332246834E+03 -0.45804359805E+03  0.56072534859E+03  0.00000000000E+00 0.  1.
          1    1    3    3  501    0 -0.80237118115E+02 -0.31332251739E+03 -0.43731055043E+03  0.54392050204E+03  0.00000000000E+00 0.  1.
         21    1    1    2  502  501 -0.90671786800E-04  0.49045471567E-04  0.59597205032E-02  0.59606119910E-02  0.00000000000E+00 0. -1.
<mgrwt>
<rscale>  1 0.64698022E+03</rscale>
<asrwt>0</asrwt>
<pdfrwt beam="1">  1        1 0.38055284E+00 0.64698022E+03</pdfrwt>
<pdfrwt beam="2">0</pdfrwt>
<totfact> 0.16326861E+00</totfact>
</mgrwt>
</event>
<event>
 6    1  0.2341564E-003  0.6504423E+03  0.7818608E-02  0.9805950E-01
          1   -1    0    0  502    0  0.00000000000E+00  0.00000000000E+00  0.10578805210E+03  0.10578805210E+03  0.00000000000E+00 0.  1.
         13   -1    0    0    0    0 -0.00000000000E+00 -0.00000000000E+00 -0.10000000000E+04  0.10000000000E+04  0.00000000000E+00 0.  1.
    9000005    2    1    2  501    0 -0.43198239263E-03 -0.35157531235E-03 -0.89423121063E+03  0.11057687813E+04  0.65044226469E+03 0.  0.
         13    1    3    3    0    0  0.11036599207E+03  0.16420462111E+03 -0.83081696383E+01  0.19802231057E+03  0.00000000000E+00 0.  1.
          1    1    3    3  501    0 -0.11036642405E+03 -0.16420497269E+03 -0.88592304099E+03  0.90774647075E+03  0.00000000000E+00 0.  1.
         21    1    1    2  502  501  0.43198239262E-03  0.35157531237E-03  0.19262726760E-01  0.19270777260E-01  0.00000000000E+00 0. -1.
<mgrwt>
<rscale>  1 0.65044226E+03</rscale>
<asrwt>0</asrwt>
<pdfrwt beam="1">  1        1 0.38468464E+00 0.65044226E+03</pdfrwt>
<pdfrwt beam="2">0</pdfrwt>
<totfact> 0.15644857E+00</totfact>
</mgrwt>
</event>
<event>
 6    1  0.2341564E-003  0.6527148E+03  0.7818608E-02  0.9801698E-01
          1   -1    0    0  502    0  0.00000000000E+00  0.00000000000E+00  0.10811650632E+03  0.10811650632E+03  0.00000000000E+00 0.  1.
         13   -1    0    0    0    0 -0.00000000000E+00 -0.00000000000E+00 -0.10000000000E+04  0.10000000000E+04  0.00000000000E+00 0.  1.
    9000005    2    1    2  501    0 -0.22236624375E+00 -0.13145718140E+00 -0.89347934765E+03  0.11064998809E+04  0.65271477318E+03 0.  0.
         13    1    3    3    0    0  0.75011860166E+02 -0.59948439443E+02  0.82015093190E+02  0.12628170916E+03  0.00000000000E+00 0.  1.
          1    1    3    3  501    0 -0.75234226410E+02  0.59816982261E+02 -0.97549444084E+03  0.98021817178E+03  0.00000000000E+00 0.  1.
         21    1    1    2  502  501  0.22236624375E+00  0.13145718140E+00  0.15958539683E+01  0.16166253817E+01  0.00000000000E+00 0. -1.
<mgrwt>
<rscale>  1 0.65271482E+03</rscale>
<asrwt>0</asrwt>
<pdfrwt beam="1">  1        1 0.39315176E+00 0.65271482E+03</pdfrwt>
<pdfrwt beam="2">0</pdfrwt>
<totfact> 0.14343741E+00</totfact>
</mgrwt>
</event>
<event>
 6    1  0.2341564E-003  0.6160871E+03  0.7818608E-02  0.9872581E-01
          1   -1    0    0  502    0  0.00000000000E+00  0.00000000000E+00  0.95705636816E+02  0.95705636816E+02  0.00000000000E+00 0.  1.
         13   -1    0    0    0    0 -0.00000000000E+00 -0.00000000000E+00 -0.10000000000E+04  0.10000000000E+04  0.00000000000E+00 0.  1.
    9000005    2    1    2  501    0 -0.28093057289E+00 -0.26130240900E+00 -0.90505945711E+03  0.10948497340E+04  0.61608698403E+03 0.  0.
         13    1    3    3    0    0  0.16875630299E+03 -0.14706366390E+03 -0.76469938901E+02  0.23654611092E+03  0.00000000000E+00 0.  1.
          3    1    3    3  501    0 -0.16903723356E+03  0.14680236149E+03 -0.82858951821E+03  0.85830362306E+03  0.00000000000E+00 0.  1.
         21    1    1    2  502  501  0.28093057289E+00  0.26130240900E+00  0.76509393061E+00  0.85590283233E+00  0.00000000000E+00 0. -1.
<mgrwt>
<rscale>  1 0.61608710E+03</rscale>
<asrwt>0</asrwt>
<pdfrwt beam="1">  1        1 0.34802123E+00 0.61608710E+03</pdfrwt>
<pdfrwt beam="2">0</pdfrwt>
<totfact> 0.22797404E+00</totfact>
</mgrwt>
</event>
<event>
 6    1  0.2341564E-003  0.6526075E+03  0.7818608E-02  0.9801899E-01
          1   -1    0    0  502    0  0.00000000000E+00  0.00000000000E+00  0.10647425885E+03  0.10647425885E+03  0.00000000000E+00 0.  1.
         13   -1    0    0    0    0 -0.00000000000E+00 -0.00000000000E+00 -0.10000000000E+04  0.10000000000E+04  0.00000000000E+00 0.  1.
    9000005    2    1    2  501    0  0.60950657286E-05  0.25675744155E-04 -0.89352585582E+03  0.11064741412E+04  0.65260751612E+03 0.  0.
         13    1    3    3    0    0  0.42881524822E+02 -0.29488656683E+03 -0.67218486896E+03  0.73527505773E+03  0.00000000000E+00 0.  1.
          1    1    3    3  501    0 -0.42881518727E+02  0.29488659251E+03 -0.22134098686E+03  0.37119908345E+03  0.00000000000E+00 0.  1.
         21    1    1    2  502  501 -0.60950657247E-05 -0.25675744175E-04  0.11466431041E-03  0.11766179391E-03  0.00000000000E+00 0.  1.
<mgrwt>
<rscale>  1 0.65260752E+03</rscale>
<asrwt>0</asrwt>
<pdfrwt beam="1">  1        1 0.38717994E+00 0.65260752E+03</pdfrwt>
<pdfrwt beam="2">0</pdfrwt>
<totfact> 0.15245974E+00</totfact>
</mgrwt>
</event>
<event>
 6    1  0.2341564E-003  0.6454283E+03  0.7818608E-02  0.9815396E-01
          1   -1    0    0  502    0  0.00000000000E+00  0.00000000000E+00  0.10428323184E+03  0.10428323184E+03  0.00000000000E+00 0.  1.
         13   -1    0    0    0    0 -0.00000000000E+00 -0.00000000000E+00 -0.10000000000E+04  0.10000000000E+04  0.00000000000E+00 0.  1.
    9000005    2    1    2  501    0  0.51014438634E-01  0.59598929037E-01 -0.89584322100E+03  0.11041344205E+04  0.64542833504E+03 0.  0.
         13    1    3    3    0    0  0.94392837807E+02 -0.25020248533E+03 -0.13891576881E+03  0.30134512161E+03  0.00000000000E+00 0.  1.
          1    1    3    3  501    0 -0.94341823369E+02  0.25026208426E+03 -0.75692745220E+03  0.80278929885E+03  0.00000000000E+00 0.  1.
         21    1    1    2  502  501 -0.51014438634E-01 -0.59598929037E-01  0.12645284711E+00  0.14881138342E+00  0.00000000000E+00 0. -1.
<mgrwt>
<rscale>  1 0.64542834E+03</rscale>
<asrwt>0</asrwt>
<pdfrwt beam="1">  1        1 0.37921255E+00 0.64542834E+03</pdfrwt>
<pdfrwt beam="2">0</pdfrwt>
<totfact> 0.16555409E+00</totfact>
</mgrwt>
</event>
<event>
 6    1  0.2341564E-003  0.6515747E+03  0.7818608E-02  0.9803829E-01
          1   -1    0    0  502    0  0.00000000000E+00  0.00000000000E+00  0.10613739450E+03  0.10613739450E+03  0.00000000000E+00 0.  1.
         13   -1    0    0    0    0 -0.00000000000E+00 -0.00000000000E+00 -0.10000000000E+04  0.10000000000E+04  0.00000000000E+00 0.  1.
    9000005    2    1    2  501    0 -0.21071664378E-05 -0.73790189958E-05 -0.89386260599E+03  0.11061373868E+04  0.65157467732E+03 0.  0.
         13    1    3    3    0    0  0.27214576730E+03  0.96681794952E+02 -0.70285651084E+03  0.75988022936E+03  0.00000000000E+00 0.  1.
          3    1    3    3  501    0 -0.27214576941E+03 -0.96681802331E+02 -0.19100609515E+03  0.34625715746E+03  0.00000000000E+00 0.  1.
         21    1    1    2  502  501  0.21071664166E-05  0.73790189982E-05  0.49278139322E-06  0.76897922718E-05  0.00000000000E+00 0.  1.
<mgrwt>
<rscale>  1 0.65157468E+03</rscale>
<asrwt>0</asrwt>
<pdfrwt beam="1">  1        1 0.38595498E+00 0.65157468E+03</pdfrwt>
<pdfrwt beam="2">0</pdfrwt>
<totfact> 0.15440481E+00</totfact>
</mgrwt>
</event>
<event>
 6    1  0.2341564E-003  0.6527111E+03  0.7818608E-02  0.9801705E-01
          1   -1    0    0  502    0  0.00000000000E+00  0.00000000000E+00  0.10650797110E+03  0.10650797110E+03  0.00000000000E+00 0.  1.
         13   -1    0    0    0    0 -0.00000000000E+00 -0.00000000000E+00 -0.10000000000E+04  0.10000000000E+04  0.00000000000E+00 0.  1.
    9000005    2    1    2  501    0 -0.60508158981E-05 -0.43660309217E-04 -0.89349188859E+03  0.11065078240E+04  0.65271112268E+03 0.  0.
         13    1    3    3    0    0  0.18542002559E+03  0.14822716648E+03 -0.82640624754E+03  0.85982507799E+03  0.00000000000E+00 0.  1.
          1    1    3    3  501    0 -0.18542003164E+03 -0.14822721014E+03 -0.67085641050E+02  0.24668274604E+03  0.00000000000E+00 0.  1.
         21    1    1    2  502  501  0.60508158998E-05  0.43660309206E-04 -0.14030993932E-03  0.14707043906E-03  0.00000000000E+00 0.  1.
<mgrwt>
<rscale>  1 0.65271112E+03</rscale>
<asrwt>0</asrwt>
<pdfrwt beam="1">  1        1 0.38730253E+00 0.65271112E+03</pdfrwt>
<pdfrwt beam="2">0</pdfrwt>
<totfact> 0.15226637E+00</totfact>
</mgrwt>
</event>
<event>
 6    1  0.2341564E-003  0.6406133E+03  0.7818608E-02  0.9824554E-01
          1   -1    0    0  502    0  0.00000000000E+00  0.00000000000E+00  0.11820321489E+03  0.11820321489E+03  0.00000000000E+00 0.  1.
         13   -1    0    0    0    0 -0.00000000000E+00 -0.00000000000E+00 -0.10000000000E+04  0.10000000000E+04  0.00000000000E+00 0.  1.
    9000005    2    1    2  501    0 -0.35875533843E+02  0.20273654649E+02 -0.85748654842E+03  0.10703590657E+04  0.63928653501E+03 0.  0.
         13    1    3    3    0    0 -0.19619758639E+03 -0.19607249438E+03 -0.15436145963E+03  0.31743562525E+03  0.00000000000E+00 0.  1.
          1    1    3    3  501    0  0.16032205255E+03  0.21634614902E+03 -0.70312508879E+03  0.75292344047E+03  0.00000000000E+00 0.  1.
         21    1    1    2  502  501  0.35875533843E+02 -0.20273654649E+02 -0.24310236692E+02  0.47844149165E+02  0.00000000000E+00 0. -1.
<mgrwt>
<rscale>  1 0.64061326E+03</rscale>
<asrwt>0</asrwt>
<pdfrwt beam="1">  1        1 0.42983078E+00 0.64061326E+03</pdfrwt>
<pdfrwt beam="2">0</pdfrwt>
<totfact> 0.98424898E-01</totfact>
</mgrwt>
</event>
<event>
 6    1  0.2341564E-003  0.6400264E+03  0.7818608E-02  0.9825676E-01
          1   -1    0    0  502    0  0.00000000000E+00  0.00000000000E+00  0.11321032423E+03  0.11321032423E+03  0.00000000000E+00 0.  1.
         13   -1    0    0    0    0 -0.00000000000E+00 -0.00000000000E+00 -0.10000000000E+04  0.10000000000E+04  0.00000000000E+00 0.  1.
    9000005    2    1    2  501    0  0.75156026448E-02  0.22276818201E+00 -0.89759028853E+03  0.11024074117E+04  0.64002634767E+03 0.  0.
         13    1    3    3    0    0 -0.27935997495E+03  0.55844908386E+02 -0.69995236427E+03  0.75570759004E+03  0.00000000000E+00 0.  1.
          3    1    3    3  501    0  0.27936749056E+03 -0.55622140204E+02 -0.19763792426E+03  0.34669982170E+03  0.00000000000E+00 0.  1.
         21    1    1    2  502  501 -0.75156026448E-02 -0.22276818201E+00  0.10800612766E+02  0.10802912490E+02  0.00000000000E+00 0.  1.
<mgrwt>
<rscale>  1 0.64002639E+03</rscale>
<asrwt>0</asrwt>
<pdfrwt beam="1">  1        1 0.41167477E+00 0.64002639E+03</pdfrwt>
<pdfrwt beam="2">0</pdfrwt>
<totfact> 0.11886534E+00</totfact>
</mgrwt>
</event>
<event>
 6    1  0.2341564E-003  0.6476452E+03  0.7818608E-02  0.9811208E-01
          1   -1    0    0  502    0  0.00000000000E+00  0.00000000000E+00  0.10486110635E+03  0.10486110635E+03  0.00000000000E+00 0.  1.
         13   -1    0    0    0    0 -0.00000000000E+00 -0.00000000000E+00 -0.10000000000E+04  0.10000000000E+04  0.00000000000E+00 0.  1.
    9000005    2    1    2  501    0 -0.56224487253E-05 -0.46491468684E-05 -0.89513892499E+03  0.11048610742E+04  0.64764519467E+03 0.  0.
         13    1    3    3    0    0  0.32069556657E+03  0.14138909640E+02 -0.52025880158E+03  0.61132215387E+03  0.00000000000E+00 0.  1.
          1    1    3    3  501    0 -0.32069557220E+03 -0.14138914289E+02 -0.37488012341E+03  0.49353892030E+03  0.00000000000E+00 0.  1.
         21    1    1    2  502  501  0.56224487417E-05  0.46491468681E-05  0.31339404679E-04  0.32177395514E-04  0.00000000000E+00 0.  1.
<mgrwt>
<rscale>  1 0.64764519E+03</rscale>
<asrwt>0</asrwt>
<pdfrwt beam="1">  1        1 0.38131392E+00 0.64764519E+03</pdfrwt>
<pdfrwt beam="2">0</pdfrwt>
<totfact> 0.16199067E+00</totfact>
</mgrwt>
</event>
<event>
 6    1  0.2341564E-003  0.6367189E+03  0.7818608E-02  0.9832024E-01
          1   -1    0    0  502    0  0.00000000000E+00  0.00000000000E+00  0.10136660175E+03  0.10136660175E+03  0.00000000000E+00 0.  1.
         13   -1    0    0    0    0 -0.00000000000E+00 -0.00000000000E+00 -0.10000000000E+04  0.10000000000E+04  0.00000000000E+00 0.  1.
    9000005    2    1    2  501    0 -0.40157762982E-03 -0.13046464082E-03 -0.89864724295E+03  0.11013527506E+04  0.63671894428E+03 0.  0.
         13    1    3    3    0    0 -0.15217462619E+03  0.13640142976E+03 -0.27076725804E+02  0.20614464819E+03  0.00000000000E+00 0.  1.
          3    1    3    3  501    0  0.15217422461E+03 -0.13640156023E+03 -0.87157051715E+03  0.89520810242E+03  0.00000000000E+00 0.  1.
         21    1    1    2  502  501  0.40157762982E-03  0.13046464080E-03  0.13844701331E-01  0.13851138602E-01  0.00000000000E+00 0.  1.
<mgrwt>
<rscale>  1 0.63671894E+03</rscale>
<asrwt>0</asrwt>
<pdfrwt beam="1">  1        1 0.36860660E+00 0.63671894E+03</pdfrwt>
<pdfrwt beam="2">0</pdfrwt>
<totfact> 0.18462642E+00</totfact>
</mgrwt>
</event>
<event>
 6    1  0.2341564E-003  0.6500238E+03  0.7818608E-02  0.9806734E-01
          1   -1    0    0  502    0  0.00000000000E+00  0.00000000000E+00  0.10563289138E+03  0.10563289138E+03  0.00000000000E+00 0.  1.
         13   -1    0    0    0    0 -0.00000000000E+00 -0.00000000000E+00 -0.10000000000E+04  0.10000000000E+04  0.00000000000E+00 0.  1.
    9000005    2    1    2  501    0 -0.66871955084E-06 -0.26284079581E-04 -0.89436725773E+03  0.11056327400E+04  0.65002381803E+03 0.  0.
         13    1    3    3    0    0  0.14417357827E+02 -0.26741842870E+03 -0.76041127231E+03  0.80619214786E+03  0.00000000000E+00 0.  1.
          3    1    3    3  501    0 -0.14417358496E+02  0.26741840241E+03 -0.13395598541E+03  0.29944059211E+03  0.00000000000E+00 0.  1.
         21    1    1    2  502  501  0.66871955046E-06  0.26284079585E-04  0.14910054889E-03  0.15140103601E-03  0.00000000000E+00 0. -1.
<mgrwt>
<rscale>  1 0.65002382E+03</rscale>
<asrwt>0</asrwt>
<pdfrwt beam="1">  1        1 0.38412042E+00 0.65002382E+03</pdfrwt>
<pdfrwt beam="2">0</pdfrwt>
<totfact> 0.15736207E+00</totfact>
</mgrwt>
</event>
<event>
 6    1  0.2341564E-003  0.6328340E+03  0.7818608E-02  0.9839534E-01
          1   -1    0    0  502    0  0.00000000000E+00  0.00000000000E+00  0.10012034775E+03  0.10012034775E+03  0.00000000000E+00 0.  1.
         13   -1    0    0    0    0 -0.00000000000E+00 -0.00000000000E+00 -0.10000000000E+04  0.10000000000E+04  0.00000000000E+00 0.  1.
    9000005    2    1    2  501    0 -0.55936081996E-04 -0.29049767846E-04 -0.89988026558E+03  0.11001197312E+04  0.63283404662E+03 0.  0.
         13    1    3    3    0    0  0.20224237926E+02  0.23143281967E+03 -0.76488900393E+02  0.24458275022E+03  0.00000000000E+00 0.  1.
          1    1    3    3  501    0 -0.20224293862E+02 -0.23143284872E+03 -0.82339136519E+03  0.85553698097E+03  0.00000000000E+00 0.  1.
         21    1    1    2  502  501  0.55936081993E-04  0.29049767831E-04  0.61333328158E-03  0.61656341812E-03  0.00000000000E+00 0. -1.
<mgrwt>
<rscale>  1 0.63283405E+03</rscale>
<asrwt>0</asrwt>
<pdfrwt beam="1">  1        1 0.36407476E+00 0.63283405E+03</pdfrwt>
<pdfrwt beam="2">0</pdfrwt>
<totfact> 0.19340678E+00</totfact>
</mgrwt>
</event>
<event>
 6    1  0.2341564E-003  0.6762837E+03  0.7818608E-02  0.9758672E-01
          1   -1    0    0  502    0  0.00000000000E+00  0.00000000000E+00  0.11441786342E+03  0.11441786342E+03  0.00000000000E+00 0.  1.
         13   -1    0    0    0    0 -0.00000000000E+00 -0.00000000000E+00 -0.10000000000E+04  0.10000000000E+04  0.00000000000E+00 0.  1.
    9000005    2    1    2  501    0  0.74279070661E-02 -0.58833077879E-01 -0.88564730532E+03  0.11143297529E+04  0.67628370170E+03 0.  0.
         13    1    3    3    0    0  0.12396148510E+03  0.58918049833E+02  0.66377922097E+02  0.15245922382E+03  0.00000000000E+00 0.  1.
          1    1    3    3  501    0 -0.12395405720E+03 -0.58976882911E+02 -0.95202522742E+03  0.96187052905E+03  0.00000000000E+00 0.  1.
         21    1    1    2  502  501 -0.74279070661E-02  0.58833077879E-01  0.65168738371E-01  0.88110551677E-01  0.00000000000E+00 0.  1.
<mgrwt>
<rscale>  1 0.67628370E+03</rscale>
<asrwt>0</asrwt>
<pdfrwt beam="1">  1        1 0.41606584E+00 0.67628370E+03</pdfrwt>
<pdfrwt beam="2">0</pdfrwt>
<totfact> 0.11279145E+00</totfact>
</mgrwt>
</event>
<event>
 6    1  0.2690224E-003  0.5142098E+03  0.7818608E-02  0.1010135E+00
          1   -1    0    0  502    0  0.00000000000E+00  0.00000000000E+00  0.66102944979E+02  0.66102944979E+02  0.00000000000E+00 0.  1.
         13   -1    0    0    0    0 -0.00000000000E+00 -0.00000000000E+00 -0.10000000000E+04  0.10000000000E+04  0.00000000000E+00 0.  1.
    9000005    2    1    2  501    0 -0.35847725428E-05 -0.15144171073E-05 -0.93389706342E+03  0.10661029357E+04  0.51420982535E+03 0.  0.
         13    1    3    3    0    0  0.21741614928E+03  0.72576566653E+02 -0.22546840064E+03  0.32151693530E+03  0.00000000000E+00 0.  1.
          3    1    3    3  501    0 -0.21741615287E+03 -0.72576568168E+02 -0.70842866278E+03  0.74458600042E+03  0.00000000000E+00 0.  1.
         21    1    1    2  502  501  0.35847725365E-05  0.15144171009E-05  0.84007942319E-05  0.92583690260E-05  0.00000000000E+00 0.  1.
<mgrwt>
<rscale>  1 0.51420983E+03</rscale>
<asrwt>0</asrwt>
<pdfrwt beam="1">  1        1 0.24037485E+00 0.51420983E+03</pdfrwt>
<pdfrwt beam="2">0</pdfrwt>
<totfact> 0.67863871E+00</totfact>
</mgrwt>
</event>
<event>
 6    1  0.2341564E-003  0.6507125E+03  0.7818608E-02  0.9805443E-01
          1   -1    0    0  502    0  0.00000000000E+00  0.00000000000E+00  0.10601103190E+03  0.10601103190E+03  0.00000000000E+00 0.  1.
         13   -1    0    0    0    0 -0.00000000000E+00 -0.00000000000E+00 -0.10000000000E+04  0.10000000000E+04  0.00000000000E+00 0.  1.
    9000005    2    1    2  501    0 -0.25165377278E-02 -0.40368215837E-03 -0.89414331393E+03  0.11058566650E+04  0.65071245396E+03 0.  0.
         13    1    3    3    0    0 -0.17545055351E+03 -0.44117497369E+02 -0.90664215294E+03  0.92451568066E+03  0.00000000000E+00 0.  1.
          1    1    3    3  501    0  0.17544803698E+03  0.44117093687E+02  0.12498839012E+02  0.18134098437E+03  0.00000000000E+00 0.  1.
         21    1    1    2  502  501  0.25165377278E-02  0.40368215837E-03  0.15434582870E+00  0.15436687066E+00  0.00000000000E+00 0.  1.
<mgrwt>
<rscale>  1 0.65071245E+03</rscale>
<asrwt>0</asrwt>
<pdfrwt beam="1">  1        1 0.38549547E+00 0.65071245E+03</pdfrwt>
<pdfrwt beam="2">0</pdfrwt>
<totfact> 0.15515409E+00</totfact>
</mgrwt>
</event>
<event>
 6    1  0.2341564E-003  0.6153269E+03  0.7818608E-02  0.9874108E-01
          1   -1    0    0  502    0  0.00000000000E+00  0.00000000000E+00  0.94659835702E+02  0.94659835702E+02  0.00000000000E+00 0.  1.
         13   -1    0    0    0    0 -0.00000000000E+00 -0.00000000000E+00 -0.10000000000E+04  0.10000000000E+04  0.00000000000E+00 0.  1.
    9000005    2    1    2  501    0 -0.38814855998E-04 -0.34295460267E-04 -0.90534318747E+03  0.10946568121E+04  0.61532694494E+03 0.  0.
         13    1    3    3    0    0  0.13276728688E+03 -0.16765383553E+03 -0.59190841071E+02  0.22189753649E+03  0.00000000000E+00 0.  1.
          1    1    3    3  501    0 -0.13276732570E+03  0.16765380123E+03 -0.84615234640E+03  0.87275927560E+03  0.00000000000E+00 0.  1.
         21    1    1    2  502  501  0.38814856011E-04  0.34295460282E-04  0.30231680372E-02  0.30236117067E-02  0.00000000000E+00 0.  1.
<mgrwt>
<rscale>  1 0.61532694E+03</rscale>
<asrwt>0</asrwt>
<pdfrwt beam="1">  1        1 0.34421831E+00 0.61532694E+03</pdfrwt>
<pdfrwt beam="2">0</pdfrwt>
<totfact> 0.23686045E+00</totfact>
</mgrwt>
</event>
<event>
 6    1  0.2341564E-003  0.6467762E+03  0.7818608E-02  0.9812847E-01
          1   -1    0    0  502    0  0.00000000000E+00  0.00000000000E+00  0.10554918923E+03  0.10554918923E+03  0.00000000000E+00 0.  1.
         13   -1    0    0    0    0 -0.00000000000E+00 -0.00000000000E+00 -0.10000000000E+04  0.10000000000E+04  0.00000000000E+00 0.  1.
    9000005    2    1    2  501    0  0.70142409186E+00 -0.80147667513E+00 -0.89508607111E+03  0.11043090617E+04  0.64677530462E+03 0.  0.
         13    1    3    3    0    0 -0.38851770468E+02  0.19466189844E+03 -0.11867181299E+02  0.19885558771E+03  0.00000000000E+00 0.  1.
          1    1    3    3  501    0  0.39553194560E+02 -0.19546337511E+03 -0.88321888981E+03  0.90545347398E+03  0.00000000000E+00 0.  1.
         21    1    1    2  502  501 -0.70142409186E+00  0.80147667513E+00  0.63526034286E+00  0.12401275421E+01  0.00000000000E+00 0.  1.
<mgrwt>
<rscale>  1 0.64677618E+03</rscale>
<asrwt>0</asrwt>
<pdfrwt beam="1">  1        1 0.38381604E+00 0.64677618E+03</pdfrwt>
<pdfrwt beam="2">0</pdfrwt>
<totfact> 0.15794512E+00</totfact>
</mgrwt>
</event>
<event>
 6    1  0.2341564E-003  0.6555128E+03  0.7818608E-02  0.9796489E-01
          1   -1    0    0  502    0  0.00000000000E+00  0.00000000000E+00  0.10757931543E+03  0.10757931543E+03  0.00000000000E+00 0.  1.
         13   -1    0    0    0    0 -0.00000000000E+00 -0.00000000000E+00 -0.10000000000E+04  0.10000000000E+04  0.00000000000E+00 0.  1.
    9000005    2    1    2  501    0  0.12093253597E+00 -0.54707577002E-01 -0.89254362476E+03  0.11073983959E+04  0.65551282783E+03 0.  0.
         13    1    3    3    0    0  0.24175721327E+02  0.31307922390E+03 -0.60478143331E+03  0.68144232919E+03  0.00000000000E+00 0.  1.
          1    1    3    3  501    0 -0.24054788791E+02 -0.31313393148E+03 -0.28776219146E+03  0.42595606668E+03  0.00000000000E+00 0.  1.
         21    1    1    2  502  501 -0.12093253597E+00  0.54707577002E-01  0.12294019524E+00  0.18091956457E+00  0.00000000000E+00 0.  1.
<mgrwt>
<rscale>  1 0.65551284E+03</rscale>
<asrwt>0</asrwt>
<pdfrwt beam="1">  1        1 0.39119834E+00 0.65551284E+03</pdfrwt>
<pdfrwt beam="2">0</pdfrwt>
<totfact> 0.14625419E+00</totfact>
</mgrwt>
</event>
<event>
 6    1  0.2341564E-003  0.6458253E+03  0.7818608E-02  0.9814644E-01
          1   -1    0    0  502    0  0.00000000000E+00  0.00000000000E+00  0.10427966945E+03  0.10427966945E+03  0.00000000000E+00 0.  1.
         13   -1    0    0    0    0 -0.00000000000E+00 -0.00000000000E+00 -0.10000000000E+04  0.10000000000E+04  0.00000000000E+00 0.  1.
    9000005    2    1    2  501    0  0.21221898899E-03 -0.87544493567E-04 -0.89572742398E+03  0.11042725723E+04  0.64582528278E+03 0.  0.
         13    1    3    3    0    0 -0.24129304557E+03 -0.20765758058E+03 -0.35533279126E+03  0.47708007416E+03  0.00000000000E+00 0.  1.
          3    1    3    3  501    0  0.24129325779E+03  0.20765749303E+03 -0.54039463272E+03  0.62719249815E+03  0.00000000000E+00 0.  1.
         21    1    1    2  502  501 -0.21221898897E-03  0.87544493559E-04  0.70934263704E-02  0.70971401712E-02  0.00000000000E+00 0.  1.
<mgrwt>
<rscale>  1 0.64582528E+03</rscale>
<asrwt>0</asrwt>
<pdfrwt beam="1">  1        1 0.37919960E+00 0.64582528E+03</pdfrwt>
<pdfrwt beam="2">0</pdfrwt>
<totfact> 0.16556380E+00</totfact>
</mgrwt>
</event>
<event>
 6    1  0.2341564E-003  0.6788629E+03  0.7818608E-02  0.9754078E-01
          1   -1    0    0  502    0  0.00000000000E+00  0.00000000000E+00  0.11523538504E+03  0.11523538504E+03  0.00000000000E+00 0.  1.
         13   -1    0    0    0    0 -0.00000000000E+00 -0.00000000000E+00 -0.10000000000E+04  0.10000000000E+04  0.00000000000E+00 0.  1.
    9000005    2    1    2  501    0  0.39014139628E-03 -0.41518935137E-02 -0.88478607214E+03  0.11152135264E+04  0.67886288450E+03 0.  0.
         13    1    3    3    0    0 -0.22065653082E+03 -0.23893140095E+03 -0.60198086517E+03  0.68422107610E+03  0.00000000000E+00 0.  1.
          3    1    3    3  501    0  0.22065692096E+03  0.23892724905E+03 -0.28280520697E+03  0.43099245028E+03  0.00000000000E+00 0.  1.
         21    1    1    2  502  501 -0.39014139627E-03  0.41518935137E-02  0.21457179906E-01  0.21858659602E-01  0.00000000000E+00 0.  1.
<mgrwt>
<rscale>  1 0.67886288E+03</rscale>
<asrwt>0</asrwt>
<pdfrwt beam="1">  1        1 0.41903865E+00 0.67886288E+03</pdfrwt>
<pdfrwt beam="2">0</pdfrwt>
<totfact> 0.10931099E+00</totfact>
</mgrwt>
</event>
<event>
 6    1  0.2341564E-003  0.6152924E+03  0.7818608E-02  0.9874178E-01
          1   -1    0    0  502    0  0.00000000000E+00  0.00000000000E+00  0.99073686089E+02  0.99073686089E+02  0.00000000000E+00 0.  1.
         13   -1    0    0    0    0 -0.00000000000E+00 -0.00000000000E+00 -0.10000000000E+04  0.10000000000E+04  0.00000000000E+00 0.  1.
    9000005    2    1    2  501    0 -0.10799868359E+02 -0.78059563084E+01 -0.88919633310E+03  0.10813208677E+04  0.61514805538E+03 0.  0.
         13    1    3    3    0    0  0.14151403748E+02 -0.18548058735E+03 -0.12484101988E+02  0.18643809512E+03  0.00000000000E+00 0.  1.
          3    1    3    3  501    0 -0.24951272107E+02  0.17767463104E+03 -0.87671223111E+03  0.89488277259E+03  0.00000000000E+00 0.  1.
         21    1    1    2  502  501  0.10799868359E+02  0.78059563084E+01 -0.11729980814E+02  0.17752818378E+02  0.00000000000E+00 0.  1.
<mgrwt>
<rscale>  1 0.61529237E+03</rscale>
<asrwt>0</asrwt>
<pdfrwt beam="1">  1        1 0.36026871E+00 0.61529237E+03</pdfrwt>
<pdfrwt beam="2">0</pdfrwt>
<totfact> 0.20161308E+00</totfact>
</mgrwt>
</event>
<event>
 6    1  0.2341564E-003  0.6483966E+03  0.7818608E-02  0.9809792E-01
          1   -1    0    0  502    0  0.00000000000E+00  0.00000000000E+00  0.10513585458E+03  0.10513585458E+03  0.00000000000E+00 0.  1.
         13   -1    0    0    0    0 -0.00000000000E+00 -0.00000000000E+00 -0.10000000000E+04  0.10000000000E+04  0.00000000000E+00 0.  1.
    9000005    2    1    2  501    0  0.59362918989E-03 -0.39747320174E-03 -0.89489544925E+03  0.11051045426E+04  0.64839662630E+03 0.  0.
         13    1    3    3    0    0  0.28739044366E+03 -0.55757547145E+02 -0.21004184401E+03  0.36030507547E+03  0.00000000000E+00 0.  1.
          1    1    3    3  501    0 -0.28738985003E+03  0.55757149672E+02 -0.68485360524E+03  0.74479946714E+03  0.00000000000E+00 0.  1.
         21    1    1    2  502  501 -0.59362918991E-03  0.39747320174E-03  0.31303824889E-01  0.31311975875E-01  0.00000000000E+00 0.  1.
<mgrwt>
<rscale>  1 0.64839663E+03</rscale>
<asrwt>0</asrwt>
<pdfrwt beam="1">  1        1 0.38231300E+00 0.64839663E+03</pdfrwt>
<pdfrwt beam="2">0</pdfrwt>
<totfact> 0.16033110E+00</totfact>
</mgrwt>
</event>
<event>
 6    1  0.2341564E-003  0.6181399E+03  0.7818608E-02  0.9868470E-01
          1   -1    0    0  502    0  0.00000000000E+00  0.00000000000E+00  0.95524276839E+02  0.95524276839E+02  0.00000000000E+00 0.  1.
         13   -1    0    0    0    0 -0.00000000000E+00 -0.00000000000E+00 -0.10000000000E+04  0.10000000000E+04  0.00000000000E+00 0.  1.
    9000005    2    1    2  501    0 -0.17467229199E-04  0.92025933611E-04 -0.90447528864E+03  0.10955238323E+04  0.61813988664E+03 0.  0.
         13    1    3    3    0    0 -0.41691702587E+02  0.26009472391E+03 -0.16571357792E+03  0.31120484151E+03  0.00000000000E+00 0.  1.
          1    1    3    3  501    0  0.41691685120E+02 -0.26009463189E+03 -0.73876171072E+03  0.78431899083E+03  0.00000000000E+00 0.  1.
         21    1    1    2  502  501  0.17467229201E-04 -0.92025933626E-04 -0.43451726746E-03  0.44449874272E-03  0.00000000000E+00 0. -1.
<mgrwt>
<rscale>  1 0.61813989E+03</rscale>
<asrwt>0</asrwt>
<pdfrwt beam="1">  1        1 0.34736174E+00 0.61813989E+03</pdfrwt>
<pdfrwt beam="2">0</pdfrwt>
<totfact> 0.22940205E+00</totfact>
</mgrwt>
</event>
<event>
 6    1  0.2341564E-003  0.6544122E+03  0.7818608E-02  0.9798535E-01
          1   -1    0    0  502    0  0.00000000000E+00  0.00000000000E+00  0.10706744091E+03  0.10706744091E+03  0.00000000000E+00 0.  1.
         13   -1    0    0    0    0 -0.00000000000E+00 -0.00000000000E+00 -0.10000000000E+04  0.10000000000E+04  0.00000000000E+00 0.  1.
    9000005    2    1    2  501    0 -0.22319634617E-02  0.89027907306E-02 -0.89292788059E+03  0.11070571390E+04  0.65441218582E+03 0.  0.
         13    1    3    3    0    0 -0.20452617959E+02  0.12572532919E+03  0.63400510441E+02  0.14228419697E+03  0.00000000000E+00 0.  1.
          3    1    3    3  501    0  0.20450385996E+02 -0.12571642640E+03 -0.95632839103E+03  0.96477294202E+03  0.00000000000E+00 0.  1.
         21    1    1    2  502  501  0.22319634617E-02 -0.89027907306E-02 -0.46784968266E-02  0.10301925851E-01  0.00000000000E+00 0.  1.
<mgrwt>
<rscale>  1 0.65441219E+03</rscale>
<asrwt>0</asrwt>
<pdfrwt beam="1">  1        1 0.38933697E+00 0.65441219E+03</pdfrwt>
<pdfrwt beam="2">0</pdfrwt>
<totfact> 0.14909150E+00</totfact>
</mgrwt>
</event>
<event>
 6    1  0.2341564E-003  0.6477128E+03  0.7818608E-02  0.9811080E-01
          1   -1    0    0  502    0  0.00000000000E+00  0.00000000000E+00  0.12213958336E+03  0.12213958336E+03  0.00000000000E+00 0.  1.
         13   -1    0    0    0    0 -0.00000000000E+00 -0.00000000000E+00 -0.10000000000E+04  0.10000000000E+04  0.00000000000E+00 0.  1.
    9000005    2    1    2  501    0 -0.60268714172E+01 -0.60773771747E+01 -0.89393662981E+03  0.11039268866E+04  0.64765624773E+03 0.  0.
         13    1    3    3    0    0 -0.22649806107E+03  0.16404224561E+03 -0.72774548664E+03  0.77963114569E+03  0.00000000000E+00 0.  1.
          3    1    3    3  501    0  0.22047118965E+03 -0.17011962279E+03 -0.16619114317E+03  0.32429574094E+03  0.00000000000E+00 0.  1.
         21    1    1    2  502  501  0.60268714172E+01  0.60773771747E+01  0.16076213167E+02  0.18212696730E+02  0.00000000000E+00 0.  1.
<mgrwt>
<rscale>  1 0.64771280E+03</rscale>
<asrwt>0</asrwt>
<pdfrwt beam="1">  1        1 0.44414488E+00 0.64771280E+03</pdfrwt>
<pdfrwt beam="2">0</pdfrwt>
<totfact> 0.84564902E-01</totfact>
</mgrwt>
</event>
<event>
 6    1  0.2341564E-003  0.6537831E+03  0.7818608E-02  0.9799706E-01
          1   -1    0    0  502    0  0.00000000000E+00  0.00000000000E+00  0.10685871989E+03  0.10685871989E+03  0.00000000000E+00 0.  1.
         13   -1    0    0    0    0 -0.00000000000E+00 -0.00000000000E+00 -0.10000000000E+04  0.10000000000E+04  0.00000000000E+00 0.  1.
    9000005    2    1    2  501    0  0.17949753840E-04  0.30390073448E-04 -0.89314190571E+03  0.11068580933E+04  0.65378312534E+03 0.  0.
         13    1    3    3    0    0  0.22087231097E+03 -0.23326694647E+03 -0.34414701908E+03  0.47078149583E+03  0.00000000000E+00 0.  1.
          3    1    3    3  501    0 -0.22087229302E+03  0.23326697686E+03 -0.54899488662E+03  0.63607659747E+03  0.00000000000E+00 0.  1.
         21    1    1    2  502  501 -0.17949753843E-04 -0.30390073450E-04  0.62560033658E-03  0.62659518938E-03  0.00000000000E+00 0.  1.
<mgrwt>
<rscale>  1 0.65378313E+03</rscale>
<asrwt>0</asrwt>
<pdfrwt beam="1">  1        1 0.38857798E+00 0.65378313E+03</pdfrwt>
<pdfrwt beam="2">0</pdfrwt>
<totfact> 0.15026837E+00</totfact>
</mgrwt>
</event>
<event>
 6    1  0.2341564E-003  0.6404401E+03  0.7818608E-02  0.9824885E-01
          3   -1    0    0  502    0  0.00000000000E+00  0.00000000000E+00  0.10254094519E+03  0.10254094519E+03  0.00000000000E+00 0.  1.
         13   -1    0    0    0    0 -0.00000000000E+00 -0.00000000000E+00 -0.10000000000E+04  0.10000000000E+04  0.00000000000E+00 0.  1.
    9000005    2    1    2  501    0  0.45329683019E-04 -0.29193467128E-04 -0.89745909608E+03  0.11025408773E+04  0.64044012754E+03 0.  0.
         13    1    3    3    0    0  0.27156296309E+03  0.16846421821E+03 -0.41369044867E+03  0.52274891015E+03  0.00000000000E+00 0.  1.
          3    1    3    3  501    0 -0.27156291776E+03 -0.16846424740E+03 -0.48376864740E+03  0.57979196714E+03  0.00000000000E+00 0.  1.
         21    1    1    2  502  501 -0.45329683018E-04  0.29193467123E-04  0.41272049733E-04  0.67900079340E-04  0.00000000000E+00 0.  1.
<mgrwt>
<rscale>  1 0.64044013E+03</rscale>
<asrwt>0</asrwt>
<pdfrwt beam="1">  1        3 0.37287695E+00 0.64044013E+03</pdfrwt>
<pdfrwt beam="2">0</pdfrwt>
<totfact> 0.82447308E-02</totfact>
</mgrwt>
</event>
<event>
 6    1  0.2341564E-003  0.6472539E+03  0.7818608E-02  0.9811946E-01
          1   -1    0    0  502    0  0.00000000000E+00  0.00000000000E+00  0.10473456564E+03  0.10473456564E+03  0.00000000000E+00 0.  1.
         13   -1    0    0    0    0 -0.00000000000E+00 -0.00000000000E+00 -0.10000000000E+04  0.10000000000E+04  0.00000000000E+00 0.  1.
    9000005    2    1    2  501    0 -0.10643521546E-03 -0.16397268682E-03 -0.89526552597E+03  0.11047343498E+04  0.64725390809E+03 0.  0.
         13    1    3    3    0    0 -0.31367576466E+03 -0.78276211290E+02 -0.47264790995E+03  0.57263923842E+03  0.00000000000E+00 0.  1.
          1    1    3    3  501    0  0.31367565822E+03  0.78276047318E+02 -0.42261761601E+03  0.53209511134E+03  0.00000000000E+00 0.  1.
         21    1    1    2  502  501  0.10643521542E-03  0.16397268682E-03  0.91612767085E-04  0.21588977790E-03  0.00000000000E+00 0.  1.
<mgrwt>
<rscale>  1 0.64725391E+03</rscale>
<asrwt>0</asrwt>
<pdfrwt beam="1">  1        1 0.38085377E+00 0.64725391E+03</pdfrwt>
<pdfrwt beam="2">0</pdfrwt>
<totfact> 0.16276185E+00</totfact>
</mgrwt>
</event>
<event>
 6    1  0.2341564E-003  0.6588658E+03  0.7818608E-02  0.9790284E-01
          1   -1    0    0  502    0  0.00000000000E+00  0.00000000000E+00  0.10852623882E+03  0.10852623882E+03  0.00000000000E+00 0.  1.
         13   -1    0    0    0    0 -0.00000000000E+00 -0.00000000000E+00 -0.10000000000E+04  0.10000000000E+04  0.00000000000E+00 0.  1.
    9000005    2    1    2  501    0  0.13557267806E-04 -0.15700020754E-04 -0.89147396121E+03  0.11085260377E+04  0.65886580787E+03 0.  0.
         13    1    3    3    0    0 -0.22834821733E+03 -0.23718849337E+03 -0.42694521548E+03  0.53915072732E+03  0.00000000000E+00 0.  1.
          3    1    3    3  501    0  0.22834823088E+03  0.23718847767E+03 -0.46452874573E+03  0.56937531040E+03  0.00000000000E+00 0.  1.
         21    1    1    2  502  501 -0.13557267824E-04  0.15700020766E-04  0.20002783521E-03  0.20110053461E-03  0.00000000000E+00 0.  1.
<mgrwt>
<rscale>  1 0.65886581E+03</rscale>
<asrwt>0</asrwt>
<pdfrwt beam="1">  1        1 0.39464170E+00 0.65886581E+03</pdfrwt>
<pdfrwt beam="2">0</pdfrwt>
<totfact> 0.14110521E+00</totfact>
</mgrwt>
</event>
<event>
 6    1  0.2341564E-003  0.6516476E+03  0.7818608E-02  0.9803693E-01
          1   -1    0    0  502    0  0.00000000000E+00  0.00000000000E+00  0.10616400796E+03  0.10616400796E+03  0.00000000000E+00 0.  1.
         13   -1    0    0    0    0 -0.00000000000E+00 -0.00000000000E+00 -0.10000000000E+04  0.10000000000E+04  0.00000000000E+00 0.  1.
    9000005    2    1    2  501    0 -0.90185161469E-04 -0.16583437352E-03 -0.89383885673E+03  0.11061611371E+04  0.65164757295E+03 0.  0.
         13    1    3    3    0    0 -0.28960300678E+03 -0.13903739715E+03 -0.35456815486E+03  0.47845571978E+03  0.00000000000E+00 0.  1.
          1    1    3    3  501    0  0.28960291660E+03  0.13903723131E+03 -0.53927070187E+03  0.62770541728E+03  0.00000000000E+00 0.  1.
         21    1    1    2  502  501  0.90185161515E-04  0.16583437350E-03  0.28646911284E-02  0.28709039803E-02  0.00000000000E+00 0.  1.
<mgrwt>
<rscale>  1 0.65164757E+03</rscale>
<asrwt>0</asrwt>
<pdfrwt beam="1">  1        1 0.38605175E+00 0.65164757E+03</pdfrwt>
<pdfrwt beam="2">0</pdfrwt>
<totfact> 0.15425053E+00</totfact>
</mgrwt>
</event>
<event>
 6    1  0.2341564E-003  0.6567461E+03  0.7818608E-02  0.9794202E-01
          1   -1    0    0  502    0  0.00000000000E+00  0.00000000000E+00  0.10782907060E+03  0.10782907060E+03  0.00000000000E+00 0.  1.
         13   -1    0    0    0    0 -0.00000000000E+00 -0.00000000000E+00 -0.10000000000E+04  0.10000000000E+04  0.00000000000E+00 0.  1.
    9000005    2    1    2  501    0 -0.97243296864E-05  0.48423616335E-04 -0.89217113075E+03  0.11078288633E+04  0.65674611821E+03 0.  0.
         13    1    3    3    0    0  0.15214778118E+03 -0.21939224035E+03 -0.12360705941E+03  0.29421184133E+03  0.00000000000E+00 0.  1.
          1    1    3    3  501    0 -0.15214779091E+03  0.21939228877E+03 -0.76856407134E+03  0.81361702195E+03  0.00000000000E+00 0.  1.
         21    1    1    2  502  501  0.97243296926E-05 -0.48423616339E-04  0.20134742645E-03  0.20731665477E-03  0.00000000000E+00 0. -1.
<mgrwt>
<rscale>  1 0.65674612E+03</rscale>
<asrwt>0</asrwt>
<pdfrwt beam="1">  1        1 0.39210654E+00 0.65674612E+03</pdfrwt>
<pdfrwt beam="2">0</pdfrwt>
<totfact> 0.14486972E+00</totfact>
</mgrwt>
</event>
<event>
 6    1  0.2341564E-003  0.6471075E+03  0.7818608E-02  0.9812222E-01
          1   -1    0    0  502    0  0.00000000000E+00  0.00000000000E+00  0.12162276696E+03  0.12162276696E+03  0.00000000000E+00 0.  1.
         13   -1    0    0    0    0 -0.00000000000E+00 -0.00000000000E+00 -0.10000000000E+04  0.10000000000E+04  0.00000000000E+00 0.  1.
    9000005    2    1    2  501    0  0.44945830895E+01  0.83151771625E+00 -0.89497161896E+03  0.11044103777E+04  0.64709133128E+03 0.  0.
         13    1    3    3    0    0 -0.26040563154E+02 -0.29146295436E+03 -0.68001110679E+03  0.74029985145E+03  0.00000000000E+00 0.  1.
          3    1    3    3  501    0  0.30535146243E+02  0.29229447208E+03 -0.21496051217E+03  0.36411052629E+03  0.00000000000E+00 0.  1.
         21    1    1    2  502  501 -0.44945830895E+01 -0.83151771625E+00  0.16594385912E+02  0.17212389220E+02  0.00000000000E+00 0.  1.
<mgrwt>
<rscale>  1 0.64710747E+03</rscale>
<asrwt>0</asrwt>
<pdfrwt beam="1">  1        1 0.44226554E+00 0.64710747E+03</pdfrwt>
<pdfrwt beam="2">0</pdfrwt>
<totfact> 0.86268890E-01</totfact>
</mgrwt>
</event>
<event>
 6    1  0.2341564E-003  0.5236666E+03  0.7818608E-02  0.1007780E+00
          1   -1    0    0  502    0  0.00000000000E+00  0.00000000000E+00  0.69853509855E+02  0.69853509855E+02  0.00000000000E+00 0.  1.
         13   -1    0    0    0    0 -0.00000000000E+00 -0.00000000000E+00 -0.10000000000E+04  0.10000000000E+04  0.00000000000E+00 0.  1.
    9000005    2    1    2  501    0 -0.43467645931E+00  0.13153299690E+00 -0.93140076100E+03  0.10685195534E+04  0.52366635569E+03 0.  0.
         13    1    3    3    0    0 -0.16263730505E+03 -0.72764780667E+02 -0.74096719931E+02  0.19296613746E+03  0.00000000000E+00 0.  1.
          1    1    3    3  501    0  0.16220262860E+03  0.72896313663E+02 -0.85730404107E+03  0.87555341590E+03  0.00000000000E+00 0.  1.
         21    1    1    2  502  501  0.43467645931E+00 -0.13153299690E+00  0.12542708532E+01  0.13339564935E+01  0.00000000000E+00 0.  1.
<mgrwt>
<rscale>  1 0.52366655E+03</rscale>
<asrwt>0</asrwt>
<pdfrwt beam="1">  1        1 0.25401330E+00 0.52366655E+03</pdfrwt>
<pdfrwt beam="2">0</pdfrwt>
<totfact> 0.59090830E+00</totfact>
</mgrwt>
</event>
<event>
 6    1  0.2341564E-003  0.6488995E+03  0.7818608E-02  0.9808846E-01
          1   -1    0    0  502    0  0.00000000000E+00  0.00000000000E+00  0.10526943742E+03  0.10526943742E+03  0.00000000000E+00 0.  1.
         13   -1    0    0    0    0 -0.00000000000E+00 -0.00000000000E+00 -0.10000000000E+04  0.10000000000E+04  0.00000000000E+00 0.  1.
    9000005    2    1    2  501    0 -0.78652548603E-03 -0.24212714783E-03 -0.89473227175E+03  0.11052675404E+04  0.64889945125E+03 0.  0.
         13    1    3    3    0    0 -0.29749969961E+03 -0.12568789187E+03 -0.50026140066E+03  0.59545359720E+03  0.00000000000E+00 0.  1.
          1    1    3    3  501    0  0.29749891308E+03  0.12568764974E+03 -0.39447087109E+03  0.50981394324E+03  0.00000000000E+00 0.  1.
         21    1    1    2  502  501  0.78652548608E-03  0.24212714783E-03  0.17091765225E-02  0.18969797788E-02  0.00000000000E+00 0.  1.
<mgrwt>
<rscale>  1 0.64889945E+03</rscale>
<asrwt>0</asrwt>
<pdfrwt beam="1">  1        1 0.38279876E+00 0.64889945E+03</pdfrwt>
<pdfrwt beam="2">0</pdfrwt>
<totfact> 0.15952603E+00</totfact>
</mgrwt>
</event>
<event>
 6    1  0.2341564E-003  0.6511512E+03  0.7818608E-02  0.9804621E-01
          1   -1    0    0  502    0  0.00000000000E+00  0.00000000000E+00  0.10637788928E+03  0.10637788928E+03  0.00000000000E+00 0.  1.
         13   -1    0    0    0    0 -0.00000000000E+00 -0.00000000000E+00 -0.10000000000E+04  0.10000000000E+04  0.00000000000E+00 0.  1.
    9000005    2    1    2  501    0 -0.34720682419E+00 -0.24706622786E-03 -0.89391037276E+03  0.11059266159E+04  0.65115113815E+03 0.  0.
         13    1    3    3    0    0  0.30210814223E+03  0.10297080027E+03 -0.55444904526E+03  0.63975468666E+03  0.00000000000E+00 0.  1.
          1    1    3    3  501    0 -0.30245534905E+03 -0.10297104733E+03 -0.33946132751E+03  0.46617192926E+03  0.00000000000E+00 0.  1.
         21    1    1    2  502  501  0.34720682419E+00  0.24706622785E-03  0.28826204235E+00  0.45127335936E+00  0.00000000000E+00 0. -1.
<mgrwt>
<rscale>  1 0.65115123E+03</rscale>
<asrwt>0</asrwt>
<pdfrwt beam="1">  1        1 0.38682950E+00 0.65115123E+03</pdfrwt>
<pdfrwt beam="2">0</pdfrwt>
<totfact> 0.15304666E+00</totfact>
</mgrwt>
</event>
<event>
 6    1  0.2341564E-003  0.5443389E+03  0.7818608E-02  0.1002813E+00
          1   -1    0    0  502    0  0.00000000000E+00  0.00000000000E+00  0.80993692524E+02  0.80993692524E+02  0.00000000000E+00 0.  1.
         13   -1    0    0    0    0 -0.00000000000E+00 -0.00000000000E+00 -0.10000000000E+04  0.10000000000E+04  0.00000000000E+00 0.  1.
    9000005    2    1    2  501    0 -0.14501945482E+01 -0.71284820789E+00 -0.92582231443E+03  0.10739887537E+04  0.54433654482E+03 0.  0.
         13    1    3    3    0    0  0.21246748136E+03  0.14508093612E+03 -0.63218192870E+03  0.68252831416E+03  0.00000000000E+00 0.  1.
          1    1    3    3  501    0 -0.21391767591E+03 -0.14579378433E+03 -0.29364038573E+03  0.39146043957E+03  0.00000000000E+00 0.  1.
         21    1    1    2  502  501  0.14501945482E+01  0.71284820789E+00  0.68160069504E+01  0.70049387965E+01  0.00000000000E+00 0.  1.
<mgrwt>
<rscale>  1 0.54433894E+03</rscale>
<asrwt>0</asrwt>
<pdfrwt beam="1">  1        1 0.29452314E+00 0.54433894E+03</pdfrwt>
<pdfrwt beam="2">0</pdfrwt>
<totfact> 0.39348106E+00</totfact>
</mgrwt>
</event>
<event>
 6    1  0.2341564E-003  0.6487178E+03  0.7818608E-02  0.9809188E-01
          1   -1    0    0  502    0  0.00000000000E+00  0.00000000000E+00  0.10520872182E+03  0.10520872182E+03  0.00000000000E+00 0.  1.
         13   -1    0    0    0    0 -0.00000000000E+00 -0.00000000000E+00 -0.10000000000E+04  0.10000000000E+04  0.00000000000E+00 0.  1.
    9000005    2    1    2  501    0  0.31150666018E-04 -0.17234593599E-04 -0.89479130146E+03  0.11052086793E+04  0.64871777500E+03 0.  0.
         13    1    3    3    0    0 -0.52752763269E+02  0.26799641741E+03 -0.14935478517E+03  0.31130657820E+03  0.00000000000E+00 0.  1.
          1    1    3    3  501    0  0.52752794420E+02 -0.26799643464E+03 -0.74543651628E+03  0.79390210109E+03  0.00000000000E+00 0.  1.
         21    1    1    2  502  501 -0.31150666012E-04  0.17234593623E-04  0.23277397484E-04  0.42535073104E-04  0.00000000000E+00 0. -1.
<mgrwt>
<rscale>  1 0.64871778E+03</rscale>
<asrwt>0</asrwt>
<pdfrwt beam="1">  1        1 0.38257798E+00 0.64871778E+03</pdfrwt>
<pdfrwt beam="2">0</pdfrwt>
<totfact> 0.15989009E+00</totfact>
</mgrwt>
</event>
<event>
 6    1  0.2341564E-003  0.6377397E+03  0.7818608E-02  0.9830061E-01
          1   -1    0    0  502    0  0.00000000000E+00  0.00000000000E+00  0.14697418069E+03  0.14697418069E+03  0.00000000000E+00 0.  1.
         13   -1    0    0    0    0 -0.00000000000E+00 -0.00000000000E+00 -0.10000000000E+04  0.10000000000E+04  0.00000000000E+00 0.  1.
    9000005    2    1    2  501    0 -0.67867122699E+01 -0.36373357097E+02 -0.88984399799E+03  0.10947759159E+04  0.63666544167E+03 0.  0.
         13    1    3    3    0    0  0.23082037890E+03 -0.18833517245E+03 -0.22736749693E+03  0.37475880665E+03  0.00000000000E+00 0.  1.
          1    1    3    3  501    0 -0.23760709117E+03  0.15196181535E+03 -0.66247650106E+03  0.72001710921E+03  0.00000000000E+00 0.  1.
         21    1    1    2  502  501  0.67867122699E+01  0.36373357097E+02  0.36818178686E+02  0.52198264834E+02  0.00000000000E+00 0.  1.
<mgrwt>
<rscale>  1 0.63773973E+03</rscale>
<asrwt>0</asrwt>
<pdfrwt beam="1">  1        1 0.53445269E+00 0.63773973E+03</pdfrwt>
<pdfrwt beam="2">0</pdfrwt>
<totfact> 0.31447392E-01</totfact>
</mgrwt>
</event>
<event>
 6    1  0.2341564E-003  0.6474286E+03  0.7818608E-02  0.9811616E-01
          1   -1    0    0  502    0  0.00000000000E+00  0.00000000000E+00  0.10479329662E+03  0.10479329662E+03  0.00000000000E+00 0.  1.
         13   -1    0    0    0    0 -0.00000000000E+00 -0.00000000000E+00 -0.10000000000E+04  0.10000000000E+04  0.00000000000E+00 0.  1.
    9000005    2    1    2  501    0 -0.85322811842E-04 -0.36813481756E-05 -0.89520906677E+03  0.11047909317E+04  0.64742855168E+03 0.  0.
         13    1    3    3    0    0 -0.44209073318E+02 -0.26032672651E+03 -0.12805779410E+03  0.29346762228E+03  0.00000000000E+00 0.  1.
          1    1    3    3  501    0  0.44208987995E+02  0.26032672282E+03 -0.76715127267E+03  0.81132330941E+03  0.00000000000E+00 0.  1.
         21    1    1    2  502  501  0.85322811838E-04  0.36813481794E-05  0.23633827734E-02  0.23649252986E-02  0.00000000000E+00 0. -1.
<mgrwt>
<rscale>  1 0.64742855E+03</rscale>
<asrwt>0</asrwt>
<pdfrwt beam="1">  1        1 0.38106734E+00 0.64742855E+03</pdfrwt>
<pdfrwt beam="2">0</pdfrwt>
<totfact> 0.16240370E+00</totfact>
</mgrwt>
</event>
<event>
 6    1  0.2341564E-003  0.6425661E+03  0.7818608E-02  0.9820829E-01
          1   -1    0    0  502    0  0.00000000000E+00  0.00000000000E+00  0.10327691080E+03  0.10327691080E+03  0.00000000000E+00 0.  1.
         13   -1    0    0    0    0 -0.00000000000E+00 -0.00000000000E+00 -0.10000000000E+04  0.10000000000E+04  0.00000000000E+00 0.  1.
    9000005    2    1    2  501    0  0.24320811193E-03  0.14291770956E-02 -0.89677718474E+03  0.11032227958E+04  0.64256611971E+03 0.  0.
         13    1    3    3    0    0  0.19507443330E+03  0.19108551080E+02 -0.11324456426E+02  0.19633495503E+03  0.00000000000E+00 0.  1.
          3    1    3    3  501    0 -0.19507419009E+03 -0.19107121903E+02 -0.88545272831E+03  0.90688784082E+03  0.00000000000E+00 0.  1.
         21    1    1    2  502  501 -0.24320811193E-03 -0.14291770956E-02  0.54095536237E-01  0.54114958543E-01  0.00000000000E+00 0.  1.
<mgrwt>
<rscale>  1 0.64256612E+03</rscale>
<asrwt>0</asrwt>
<pdfrwt beam="1">  1        1 0.37555319E+00 0.64256612E+03</pdfrwt>
<pdfrwt beam="2">0</pdfrwt>
<totfact> 0.17190695E+00</totfact>
</mgrwt>
</event>
<event>
 6    1  0.2341564E-003  0.4721043E+03  0.7818608E-02  0.1021328E+00
          1   -1    0    0  502    0  0.00000000000E+00  0.00000000000E+00  0.55903900106E+02  0.55903900106E+02  0.00000000000E+00 0.  1.
         13   -1    0    0    0    0 -0.00000000000E+00 -0.00000000000E+00 -0.10000000000E+04  0.10000000000E+04  0.00000000000E+00 0.  1.
    9000005    2    1    2  501    0 -0.56033843744E-02 -0.96474958174E-02 -0.94427921252E+03  0.10557204479E+04  0.47210426056E+03 0.  0.
         13    1    3    3    0    0  0.11636208508E+03 -0.19319000575E+03 -0.62802753099E+03  0.66729385794E+03  0.00000000000E+00 0.  1.
          1    1    3    3  501    0 -0.11636768846E+03  0.19318035825E+03 -0.31625168153E+03  0.38842658998E+03  0.00000000000E+00 0.  1.
         21    1    1    2  502  501  0.56033843744E-02  0.96474958174E-02  0.18311262382E+00  0.18345218749E+00  0.00000000000E+00 0. -1.
<mgrwt>
<rscale>  1 0.47210426E+03</rscale>
<asrwt>0</asrwt>
<pdfrwt beam="1">  1        1 0.20328734E+00 0.47210426E+03</pdfrwt>
<pdfrwt beam="2">0</pdfrwt>
<totfact> 0.99781452E+00</totfact>
</mgrwt>
</event>
<event>
 6    1  0.2341564E-003  0.6353394E+03  0.7818608E-02  0.9834684E-01
          1   -1    0    0  502    0  0.00000000000E+00  0.00000000000E+00  0.10226806533E+03  0.10226806533E+03  0.00000000000E+00 0.  1.
         13   -1    0    0    0    0 -0.00000000000E+00 -0.00000000000E+00 -0.10000000000E+04  0.10000000000E+04  0.00000000000E+00 0.  1.
    9000005    2    1    2  501    0  0.17921518808E+01  0.18380254562E+01 -0.89759571603E+03  0.10996973258E+04  0.63533420253E+03 0.  0.
         13    1    3    3    0    0  0.22779399096E+03 -0.77021380311E+02 -0.88980906934E+02  0.25639812234E+03  0.00000000000E+00 0.  1.
          1    1    3    3  501    0 -0.22600183908E+03  0.78859405767E+02 -0.80861480910E+03  0.84329920351E+03  0.00000000000E+00 0.  1.
         21    1    1    2  502  501 -0.17921518808E+01 -0.18380254562E+01 -0.13621864406E+00  0.25707394774E+01  0.00000000000E+00 0. -1.
<mgrwt>
<rscale>  1 0.63533939E+03</rscale>
<asrwt>0</asrwt>
<pdfrwt beam="1">  1        1 0.37188466E+00 0.63533939E+03</pdfrwt>
<pdfrwt beam="2">0</pdfrwt>
<totfact> 0.17865128E+00</totfact>
</mgrwt>
</event>
<event>
 6    1  0.2341564E-003  0.6455399E+03  0.7818608E-02  0.9815184E-01
          1   -1    0    0  502    0  0.00000000000E+00  0.00000000000E+00  0.10418049455E+03  0.10418049455E+03  0.00000000000E+00 0.  1.
         13   -1    0    0    0    0 -0.00000000000E+00 -0.00000000000E+00 -0.10000000000E+04  0.10000000000E+04  0.00000000000E+00 0.  1.
    9000005    2    1    2  501    0 -0.81979121234E-05 -0.16118634079E-04 -0.89581954135E+03  0.11041804544E+04  0.64553994851E+03 0.  0.
         13    1    3    3    0    0  0.44585942408E+02  0.17652879549E+03  0.79573257943E+01  0.18224609991E+03  0.00000000000E+00 0.  1.
          1    1    3    3  501    0 -0.44585950606E+02 -0.17652881161E+03 -0.90377686714E+03  0.92193435444E+03  0.00000000000E+00 0.  1.
         21    1    1    2  502  501  0.81979121219E-05  0.16118634076E-04  0.35899210382E-04  0.40196634607E-04  0.00000000000E+00 0.  1.
<mgrwt>
<rscale>  1 0.64553995E+03</rscale>
<asrwt>0</asrwt>
<pdfrwt beam="1">  1        1 0.37883896E+00 0.64553995E+03</pdfrwt>
<pdfrwt beam="2">0</pdfrwt>
<totfact> 0.16617994E+00</totfact>
</mgrwt>
</event>
<event>
 6    1  0.2341564E-003  0.5922835E+03  0.7818608E-02  0.9921546E-01
          1   -1    0    0  502    0  0.00000000000E+00  0.00000000000E+00  0.93540696955E+02  0.93540696955E+02  0.00000000000E+00 0.  1.
         13   -1    0    0    0    0 -0.00000000000E+00 -0.00000000000E+00 -0.10000000000E+04  0.10000000000E+04  0.00000000000E+00 0.  1.
    9000005    2    1    2  501    0  0.47892986276E+01 -0.17013097662E+02 -0.89187297662E+03  0.10706246809E+04  0.59201977843E+03 0.  0.
         13    1    3    3    0    0 -0.12721349638E+03 -0.27433324492E+03 -0.48162051938E+03  0.56868297637E+03  0.00000000000E+00 0.  1.
          1    1    3    3  501    0  0.13200279500E+03  0.25732014725E+03 -0.41025245724E+03  0.50194170453E+03  0.00000000000E+00 0.  1.
         21    1    1    2  502  501 -0.47892986276E+01  0.17013097662E+02 -0.14586326428E+02  0.22916016060E+02  0.00000000000E+00 0. -1.
<mgrwt>
<rscale>  1 0.59228355E+03</rscale>
<asrwt>0</asrwt>
<pdfrwt beam="1">  1        1 0.34014871E+00 0.59228355E+03</pdfrwt>
<pdfrwt beam="2">0</pdfrwt>
<totfact> 0.24773484E+00</totfact>
</mgrwt>
</event>
<event>
 6    1  0.2341564E-003  0.6516130E+03  0.7818608E-02  0.9803757E-01
          1   -1    0    0  502    0  0.00000000000E+00  0.00000000000E+00  0.10616838584E+03  0.10616838584E+03  0.00000000000E+00 0.  1.
         13   -1    0    0    0    0 -0.00000000000E+00 -0.00000000000E+00 -0.10000000000E+04  0.10000000000E+04  0.00000000000E+00 0.  1.
    9000005    2    1    2  501    0 -0.22253427396E-02 -0.56326165056E-01 -0.89376591919E+03  0.11060818213E+04  0.65161297864E+03 0.  0.
         13    1    3    3    0    0 -0.31406903053E+03 -0.76701390591E+02 -0.37831083315E+03  0.49763595703E+03  0.00000000000E+00 0.  1.
          3    1    3    3  501    0  0.31406680518E+03  0.76645064426E+02 -0.51545508604E+03  0.60844586427E+03  0.00000000000E+00 0.  1.
         21    1    1    2  502  501  0.22253427395E-02  0.56326165056E-01 -0.65694973824E-01  0.86564534343E-01  0.00000000000E+00 0.  1.
<mgrwt>
<rscale>  1 0.65161298E+03</rscale>
<asrwt>0</asrwt>
<pdfrwt beam="1">  1        1 0.38606767E+00 0.65161298E+03</pdfrwt>
<pdfrwt beam="2">0</pdfrwt>
<totfact> 0.15422650E+00</totfact>
</mgrwt>
</event>
<event>
 6    1  0.2341564E-003  0.6510724E+03  0.7818608E-02  0.9804769E-01
          1   -1    0    0  502    0  0.00000000000E+00  0.00000000000E+00  0.10597565185E+03  0.10597565185E+03  0.00000000000E+00 0.  1.
         13   -1    0    0    0    0 -0.00000000000E+00 -0.00000000000E+00 -0.10000000000E+04  0.10000000000E+04  0.00000000000E+00 0.  1.
    9000005    2    1    2  501    0  0.26029912289E-03  0.64359955957E-04 -0.89402616457E+03  0.11059738157E+04  0.65107242162E+03 0.  0.
         13    1    3    3    0    0  0.24422326473E+03  0.52168346678E+02 -0.92285278169E+02  0.26623882511E+03  0.00000000000E+00 0.  1.
          1    1    3    3  501    0 -0.24422300443E+03 -0.52168282318E+02 -0.80174088640E+03  0.83973499063E+03  0.00000000000E+00 0.  1.
         21    1    1    2  502  501 -0.26029912291E-03 -0.64359955954E-04  0.18164130212E-02  0.18360975195E-02  0.00000000000E+00 0.  1.
<mgrwt>
<rscale>  1 0.65107242E+03</rscale>
<asrwt>0</asrwt>
<pdfrwt beam="1">  1        1 0.38536682E+00 0.65107242E+03</pdfrwt>
<pdfrwt beam="2">0</pdfrwt>
<totfact> 0.15534724E+00</totfact>
</mgrwt>
</event>
<event>
 6    1  0.3323175E-003  0.6430388E+03  0.7818608E-02  0.9819930E-01
          1   -1    0    0  502    0  0.00000000000E+00  0.00000000000E+00  0.10337472189E+03  0.10337472189E+03  0.00000000000E+00 0.  1.
         13   -1    0    0    0    0 -0.00000000000E+00 -0.00000000000E+00 -0.10000000000E+04  0.10000000000E+04  0.00000000000E+00 0.  1.
    9000005    2    1    2  501    0  0.39517533992E-05 -0.16651859482E-05 -0.89662526570E+03  0.11033747087E+04  0.64303878640E+03 0.  0.
         13    1    3    3    0    0  0.13796252760E+03  0.28343278972E+03 -0.55692791117E+03  0.63995039147E+03  0.00000000000E+00 0.  1.
          1    1    3    3  501    0 -0.13796252364E+03 -0.28343279139E+03 -0.33969735453E+03  0.46342431727E+03  0.00000000000E+00 0.  1.
         21    1    1    2  502  501 -0.39517533927E-05  0.16651859462E-05 -0.12419188585E-04  0.13138700248E-04  0.00000000000E+00 0. -1.
<mgrwt>
<rscale>  1 0.64303879E+03</rscale>
<asrwt>0</asrwt>
<pdfrwt beam="1">  1        1 0.37590887E+00 0.64303879E+03</pdfrwt>
<pdfrwt beam="2">0</pdfrwt>
<totfact> 0.17127332E+00</totfact>
</mgrwt>
</event>
<event>
 6    1  0.2341564E-003  0.6295206E+03  0.7818608E-02  0.9845985E-01
          1   -1    0    0  502    0  0.00000000000E+00  0.00000000000E+00  0.99166904029E+02  0.99166904029E+02  0.00000000000E+00 0.  1.
         13   -1    0    0    0    0 -0.00000000000E+00 -0.00000000000E+00 -0.10000000000E+04  0.10000000000E+04  0.00000000000E+00 0.  1.
    9000005    2    1    2  501    0 -0.12506612522E-02 -0.13451411462E-03 -0.90092596034E+03  0.10990740311E+04  0.62952056354E+03 0.  0.
         13    1    3    3    0    0 -0.29609854824E+03 -0.72438530861E+02 -0.58741028290E+03  0.66179493160E+03  0.00000000000E+00 0.  1.
          1    1    3    3  501    0  0.29609729758E+03  0.72438396347E+02 -0.31351567744E+03  0.43727909955E+03  0.00000000000E+00 0.  1.
         21    1    1    2  502  501  0.12506612522E-02  0.13451411461E-03  0.92864368590E-01  0.92872887331E-01  0.00000000000E+00 0. -1.
<mgrwt>
<rscale>  1 0.62952056E+03</rscale>
<asrwt>0</asrwt>
<pdfrwt beam="1">  1        1 0.36060768E+00 0.62952056E+03</pdfrwt>
<pdfrwt beam="2">0</pdfrwt>
<totfact> 0.20040534E+00</totfact>
</mgrwt>
</event>
<event>
 6    1  0.2341564E-003  0.6468089E+03  0.7818608E-02  0.9812785E-01
          1   -1    0    0  502    0  0.00000000000E+00  0.00000000000E+00  0.10520344061E+03  0.10520344061E+03  0.00000000000E+00 0.  1.
         13   -1    0    0    0    0 -0.00000000000E+00 -0.00000000000E+00 -0.10000000000E+04  0.10000000000E+04  0.00000000000E+00 0.  1.
    9000005    2    1    2  501    0 -0.27132420850E+00 -0.73777792630E+00 -0.89511803314E+03  0.11043541595E+04  0.64680847114E+03 0.  0.
         13    1    3    3    0    0  0.16786684650E+03 -0.20482563394E+03 -0.13036182258E+03  0.29517287013E+03  0.00000000000E+00 0.  1.
          1    1    3    3  501    0 -0.16813817071E+03  0.20408785601E+03 -0.76475621056E+03  0.80918128934E+03  0.00000000000E+00 0.  1.
         21    1    1    2  502  501  0.27132420850E+00  0.73777792630E+00  0.32147375493E+00  0.84928114883E+00  0.00000000000E+00 0. -1.
<mgrwt>
<rscale>  1 0.64680895E+03</rscale>
<asrwt>0</asrwt>
<pdfrwt beam="1">  1        1 0.38255877E+00 0.64680895E+03</pdfrwt>
<pdfrwt beam="2">0</pdfrwt>
<totfact> 0.15997763E+00</totfact>
</mgrwt>
</event>
<event>
 6    1  0.3541519E-003  0.6271601E+03  0.7818608E-02  0.9850606E-01
          1   -1    0    0  502    0  0.00000000000E+00  0.00000000000E+00  0.98332441147E+02  0.98332441147E+02  0.00000000000E+00 0.  1.
         13   -1    0    0    0    0 -0.00000000000E+00 -0.00000000000E+00 -0.10000000000E+04  0.10000000000E+04  0.00000000000E+00 0.  1.
    9000005    2    1    2  501    0  0.58255101862E-05  0.13358534730E-04 -0.90166755092E+03  0.10983324246E+04  0.62716006126E+03 0.  0.
         13    1    3    3    0    0  0.16218329132E+03  0.97438347498E+02 -0.12892134868E+02  0.18964139498E+03  0.00000000000E+00 0.  1.
          1    1    3    3  501    0 -0.16218328550E+03 -0.97438334139E+02 -0.88877541605E+03  0.90869102958E+03  0.00000000000E+00 0.  1.
         21    1    1    2  502  501 -0.58255101845E-05 -0.13358534732E-04 -0.79314237621E-05  0.16592001145E-04  0.00000000000E+00 0.  1.
<mgrwt>
<rscale>  1 0.62716006E+03</rscale>
<asrwt>0</asrwt>
<pdfrwt beam="1">  1        1 0.35757327E+00 0.62716006E+03</pdfrwt>
<pdfrwt beam="2">0</pdfrwt>
<totfact> 0.20670940E+00</totfact>
</mgrwt>
</event>
<event>
 6    1  0.2341564E-003  0.6536993E+03  0.7818608E-02  0.9799862E-01
          1   -1    0    0  502    0  0.00000000000E+00  0.00000000000E+00  0.10758095112E+03  0.10758095112E+03  0.00000000000E+00 0.  1.
         13   -1    0    0    0    0 -0.00000000000E+00 -0.00000000000E+00 -0.10000000000E+04  0.10000000000E+04  0.00000000000E+00 0.  1.
    9000005    2    1    2  501    0  0.64434138662E-02 -0.46912658873E-01 -0.89316848966E+03  0.11068300158E+04  0.65369926633E+03 0.  0.
         13    1    3    3    0    0  0.20096750928E+03 -0.48475217733E+02 -0.87525861926E+03  0.89934166873E+03  0.00000000000E+00 0.  1.
          1    1    3    3  501    0 -0.20096106587E+03  0.48428305074E+02 -0.17909870397E+02  0.20748834711E+03  0.00000000000E+00 0.  1.
         21    1    1    2  502  501 -0.64434138662E-02  0.46912658873E-01  0.74944078045E+00  0.75093528253E+00  0.00000000000E+00 0. -1.
<mgrwt>
<rscale>  1 0.65369927E+03</rscale>
<asrwt>0</asrwt>
<pdfrwt beam="1">  1        1 0.39120428E+00 0.65369927E+03</pdfrwt>
<pdfrwt beam="2">0</pdfrwt>
<totfact> 0.14629461E+00</totfact>
</mgrwt>
</event>
<event>
 6    1  0.2341564E-003  0.6306342E+03  0.7818608E-02  0.9843812E-01
          1   -1    0    0  502    0  0.00000000000E+00  0.00000000000E+00  0.99424976383E+02  0.99424976383E+02  0.00000000000E+00 0.  1.
         13   -1    0    0    0    0 -0.00000000000E+00 -0.00000000000E+00 -0.10000000000E+04  0.10000000000E+04  0.00000000000E+00 0.  1.
    9000005    2    1    2  501    0 -0.44763692699E-05  0.66944713240E-05 -0.90057513941E+03  0.10994248603E+04  0.63063415839E+03 0.  0.
         13    1    3    3    0    0  0.28185020396E+03 -0.78346360485E+02 -0.24513896529E+03  0.38166844509E+03  0.00000000000E+00 0.  1.
          1    1    3    3  501    0 -0.28185020843E+03  0.78346367179E+02 -0.65543617412E+03  0.71775641522E+03  0.00000000000E+00 0.  1.
         21    1    1    2  502  501  0.44763693123E-05 -0.66944713276E-05  0.11579581235E-03  0.11607550985E-03  0.00000000000E+00 0. -1.
<mgrwt>
<rscale>  1 0.63063416E+03</rscale>
<asrwt>0</asrwt>
<pdfrwt beam="1">  1        1 0.36154613E+00 0.63063416E+03</pdfrwt>
<pdfrwt beam="2">0</pdfrwt>
<totfact> 0.19847962E+00</totfact>
</mgrwt>
</event>
<event>
 6    1  0.2341564E-003  0.6207750E+03  0.7818608E-02  0.9863218E-01
          1   -1    0    0  502    0  0.00000000000E+00  0.00000000000E+00  0.11367345020E+03  0.11367345020E+03  0.00000000000E+00 0.  1.
         13   -1    0    0    0    0 -0.00000000000E+00 -0.00000000000E+00 -0.10000000000E+04  0.10000000000E+04  0.00000000000E+00 0.  1.
    9000005    2    1    2  501    0 -0.25211559906E+00  0.42815124239E+00 -0.90365570119E+03  0.10963371771E+04  0.62077478428E+03 0.  0.
         13    1    3    3    0    0  0.13775154557E+03  0.18055339499E+03 -0.78086413172E+02  0.24015100389E+03  0.00000000000E+00 0.  1.
          1    1    3    3  501    0 -0.13800366117E+03 -0.18012524375E+03 -0.82556928802E+03  0.85618617324E+03  0.00000000000E+00 0.  1.
         21    1    1    2  502  501  0.25211559905E+00 -0.42815124239E+00  0.17329151391E+02  0.17336273062E+02  0.00000000000E+00 0.  1.
<mgrwt>
<rscale>  1 0.62077498E+03</rscale>
<asrwt>0</asrwt>
<pdfrwt beam="1">  1        1 0.41335887E+00 0.62077498E+03</pdfrwt>
<pdfrwt beam="2">0</pdfrwt>
<totfact> 0.11726656E+00</totfact>
</mgrwt>
</event>
<event>
 6    1  0.2341564E-003  0.6483283E+03  0.7818608E-02  0.9809921E-01
          1   -1    0    0  502    0  0.00000000000E+00  0.00000000000E+00  0.10508277002E+03  0.10508277002E+03  0.00000000000E+00 0.  1.
         13   -1    0    0    0    0 -0.00000000000E+00 -0.00000000000E+00 -0.10000000000E+04  0.10000000000E+04  0.00000000000E+00 0.  1.
    9000005    2    1    2  501    0  0.30993737710E-05 -0.11045884088E-04 -0.89491759043E+03  0.11050824094E+04  0.64832834109E+03 0.  0.
         13    1    3    3    0    0  0.30829901824E+03  0.10194948936E+02 -0.27760376823E+03  0.41498924536E+03  0.00000000000E+00 0.  1.
          1    1    3    3  501    0 -0.30829901514E+03 -0.10194959982E+02 -0.61731382221E+03  0.69009316402E+03  0.00000000000E+00 0.  1.
         21    1    1    2  502  501 -0.30993737342E-05  0.11045884087E-04  0.36045062411E-03  0.36063315168E-03  0.00000000000E+00 0.  1.
<mgrwt>
<rscale>  1 0.64832834E+03</rscale>
<asrwt>0</asrwt>
<pdfrwt beam="1">  1        1 0.38211997E+00 0.64832834E+03</pdfrwt>
<pdfrwt beam="2">0</pdfrwt>
<totfact> 0.16064820E+00</totfact>
</mgrwt>
</event>
<event>
 6    1  0.2341564E-003  0.6372100E+03  0.7818608E-02  0.9831079E-01
          1   -1    0    0  502    0  0.00000000000E+00  0.00000000000E+00  0.10639708590E+03  0.10639708590E+03  0.00000000000E+00 0.  1.
         13   -1    0    0    0    0 -0.00000000000E+00 -0.00000000000E+00 -0.10000000000E+04  0.10000000000E+04  0.00000000000E+00 0.  1.
    9000005    2    1    2  501    0  0.81017799675E+00  0.36295725658E+01 -0.89769983704E+03  0.11008640069E+04  0.63719913224E+03 0.  0.
         13    1    3    3    0    0 -0.27528078360E+03  0.14124500779E+03 -0.31495921817E+03  0.44150761166E+03  0.00000000000E+00 0.  1.
          1    1    3    3  501    0  0.27609096160E+03 -0.13761543522E+03 -0.58274061887E+03  0.65935639526E+03  0.00000000000E+00 0.  1.
         21    1    1    2  502  501 -0.81017799675E+00 -0.36295725658E+01  0.40969229360E+01  0.55330789747E+01  0.00000000000E+00 0. -1.
<mgrwt>
<rscale>  1 0.63720998E+03</rscale>
<asrwt>0</asrwt>
<pdfrwt beam="1">  1        1 0.38689931E+00 0.63720998E+03</pdfrwt>
<pdfrwt beam="2">0</pdfrwt>
<totfact> 0.15333687E+00</totfact>
</mgrwt>
</event>
<event>
 6    1  0.2341564E-003  0.6267622E+03  0.7818608E-02  0.9851388E-01
          1   -1    0    0  502    0  0.00000000000E+00  0.00000000000E+00  0.98305374059E+02  0.98305374059E+02  0.00000000000E+00 0.  1.
         13   -1    0    0    0    0 -0.00000000000E+00 -0.00000000000E+00 -0.10000000000E+04  0.10000000000E+04  0.00000000000E+00 0.  1.
    9000005    2    1    2  501    0 -0.38389696667E-02 -0.27180732897E-03 -0.90179224532E+03  0.10982076789E+04  0.62676219746E+03 0.  0.
         13    1    3    3    0    0 -0.14417775466E+03  0.24198174263E+03 -0.21022864134E+03  0.35148039823E+03  0.00000000000E+00 0.  1.
          3    1    3    3  501    0  0.14417391569E+03 -0.24198201443E+03 -0.69156360398E+03  0.74672728062E+03  0.00000000000E+00 0.  1.
         21    1    1    2  502  501  0.38389696667E-02  0.27180732897E-03  0.97619374224E-01  0.97695208640E-01  0.00000000000E+00 0.  1.
<mgrwt>
<rscale>  1 0.62676220E+03</rscale>
<asrwt>0</asrwt>
<pdfrwt beam="1">  1        1 0.35747484E+00 0.62676220E+03</pdfrwt>
<pdfrwt beam="2">0</pdfrwt>
<totfact> 0.20692902E+00</totfact>
</mgrwt>
</event>
<event>
 6    1  0.2341564E-003  0.6208605E+03  0.7818608E-02  0.9863048E-01
          1   -1    0    0  502    0  0.00000000000E+00  0.00000000000E+00  0.96997612513E+02  0.96997612513E+02  0.00000000000E+00 0.  1.
         13   -1    0    0    0    0 -0.00000000000E+00 -0.00000000000E+00 -0.10000000000E+04  0.10000000000E+04  0.00000000000E+00 0.  1.
    9000005    2    1    2  501    0  0.12297345610E+01  0.46490023074E+00 -0.90278044493E+03  0.10956643317E+04  0.62085913665E+03 0.  0.
         13    1    3    3    0    0 -0.28719554626E+03  0.44411105797E+02 -0.64051678142E+03  0.70336006098E+03  0.00000000000E+00 0.  1.
          3    1    3    3  501    0  0.28842528082E+03 -0.43946205566E+02 -0.26226366351E+03  0.39230427068E+03  0.00000000000E+00 0.  1.
         21    1    1    2  502  501 -0.12297345610E+01 -0.46490023074E+00 -0.22194256161E+00  0.13332808465E+01  0.00000000000E+00 0.  1.
<mgrwt>
<rscale>  1 0.62086053E+03</rscale>
<asrwt>0</asrwt>
<pdfrwt beam="1">  1        1 0.35271933E+00 0.62086053E+03</pdfrwt>
<pdfrwt beam="2">0</pdfrwt>
<totfact> 0.21729073E+00</totfact>
</mgrwt>
</event>
<event>
 6    1  0.2341564E-003  0.6523568E+03  0.7818608E-02  0.9802367E-01
          1   -1    0    0  502    0  0.00000000000E+00  0.00000000000E+00  0.10639252582E+03  0.10639252582E+03  0.00000000000E+00 0.  1.
         13   -1    0    0    0    0 -0.00000000000E+00 -0.00000000000E+00 -0.10000000000E+04  0.10000000000E+04  0.00000000000E+00 0.  1.
    9000005    2    1    2  501    0  0.85325627708E-04  0.34656600803E-04 -0.89360762853E+03  0.11063923461E+04  0.65235682698E+03 0.  0.
         13    1    3    3    0    0  0.28351373025E+03 -0.15943165503E+03 -0.48813489109E+03  0.58657834921E+03  0.00000000000E+00 0.  1.
          3    1    3    3  501    0 -0.28351364492E+03  0.15943168969E+03 -0.40547273744E+03  0.51981399687E+03  0.00000000000E+00 0.  1.
         21    1    1    2  502  501 -0.85325627713E-04 -0.34656600804E-04  0.15434785300E-03  0.17973536783E-03  0.00000000000E+00 0.  1.
<mgrwt>
<rscale>  1 0.65235683E+03</rscale>
<asrwt>0</asrwt>
<pdfrwt beam="1">  1        1 0.38688273E+00 0.65235683E+03</pdfrwt>
<pdfrwt beam="2">0</pdfrwt>
<totfact> 0.15292953E+00</totfact>
</mgrwt>
</event>
<event>
 6    1  0.2341564E-003  0.6497058E+03  0.7818608E-02  0.9807331E-01
          1   -1    0    0  502    0  0.00000000000E+00  0.00000000000E+00  0.10782551773E+03  0.10782551773E+03  0.00000000000E+00 0.  1.
         13   -1    0    0    0    0 -0.00000000000E+00 -0.00000000000E+00 -0.10000000000E+04  0.10000000000E+04  0.00000000000E+00 0.  1.
    9000005    2    1    2  501    0  0.12935568577E+01  0.10007567322E+01 -0.89414420192E+03  0.11052653226E+04  0.64970370540E+03 0.  0.
         13    1    3    3    0    0 -0.75459894634E+02  0.31300696144E+03 -0.52504162672E+03  0.61590280353E+03  0.00000000000E+00 0.  1.
          1    1    3    3  501    0  0.76753451492E+02 -0.31200620471E+03 -0.36910257520E+03  0.48936251912E+03  0.00000000000E+00 0.  1.
         21    1    1    2  502  501 -0.12935568577E+01 -0.10007567322E+01  0.19697196537E+01  0.25601950893E+01  0.00000000000E+00 0. -1.
<mgrwt>
<rscale>  1 0.64970576E+03</rscale>
<asrwt>0</asrwt>
<pdfrwt beam="1">  1        1 0.39209362E+00 0.64970576E+03</pdfrwt>
<pdfrwt beam="2">0</pdfrwt>
<totfact> 0.14507929E+00</totfact>
</mgrwt>
</event>
<event>
 6    1  0.2341564E-003  0.6459467E+03  0.7818608E-02  0.9814415E-01
          1   -1    0    0  502    0  0.00000000000E+00  0.00000000000E+00  0.10488566651E+03  0.10488566651E+03  0.00000000000E+00 0.  1.
         13   -1    0    0    0    0 -0.00000000000E+00 -0.00000000000E+00 -0.10000000000E+04  0.10000000000E+04  0.00000000000E+00 0.  1.
    9000005    2    1    2  501    0 -0.11344066125E+00 -0.15781718169E-01 -0.89568188914E+03  0.11043066697E+04  0.64594671698E+03 0.  0.
         13    1    3    3    0    0  0.96563606744E+02  0.28347820937E+03 -0.24115236944E+03  0.38449823228E+03  0.00000000000E+00 0.  1.
          3    1    3    3  501    0 -0.96677047406E+02 -0.28349399109E+03 -0.65452951970E+03  0.71980843746E+03  0.00000000000E+00 0.  1.
         21    1    1    2  502  501  0.11344066125E+00  0.15781718169E-01  0.56755564959E+00  0.57899677170E+00  0.00000000000E+00 0. -1.
<mgrwt>
<rscale>  1 0.64594673E+03</rscale>
<asrwt>0</asrwt>
<pdfrwt beam="1">  1        1 0.38140323E+00 0.64594673E+03</pdfrwt>
<pdfrwt beam="2">0</pdfrwt>
<totfact> 0.16189430E+00</totfact>
</mgrwt>
</event>
<event>
 6    1  0.2341564E-003  0.6490208E+03  0.7818608E-02  0.9808618E-01
          1   -1    0    0  502    0  0.00000000000E+00  0.00000000000E+00  0.10530706756E+03  0.10530706756E+03  0.00000000000E+00 0.  1.
         13   -1    0    0    0    0 -0.00000000000E+00 -0.00000000000E+00 -0.10000000000E+04  0.10000000000E+04  0.00000000000E+00 0.  1.
    9000005    2    1    2  501    0  0.43260647260E-05  0.26582982002E-05 -0.89469300127E+03  0.11053069985E+04  0.64902079667E+03 0.  0.
         13    1    3    3    0    0  0.18453002353E+03 -0.89757332154E+02 -0.87548118312E+03  0.89920799055E+03  0.00000000000E+00 0.  1.
          1    1    3    3  501    0 -0.18453001921E+03  0.89757334812E+02 -0.19211818147E+02  0.20609900800E+03  0.00000000000E+00 0.  1.
         21    1    1    2  502  501 -0.43260647384E-05 -0.26582981958E-05  0.68832320339E-04  0.69019343004E-04  0.00000000000E+00 0.  1.
<mgrwt>
<rscale>  1 0.64902080E+03</rscale>
<asrwt>0</asrwt>
<pdfrwt beam="1">  1        1 0.38293560E+00 0.64902080E+03</pdfrwt>
<pdfrwt beam="2">0</pdfrwt>
<totfact> 0.15930053E+00</totfact>
</mgrwt>
</event>
<event>
 6    1  0.4498542E-003  0.6542902E+03  0.7818608E-02  0.9798762E-01
          1   -1    0    0  502    0  0.00000000000E+00  0.00000000000E+00  0.10702393333E+03  0.10702393333E+03  0.00000000000E+00 0.  1.
         13   -1    0    0    0    0 -0.00000000000E+00 -0.00000000000E+00 -0.10000000000E+04  0.10000000000E+04  0.00000000000E+00 0.  1.
    9000005    2    1    2  501    0  0.76071244166E-05  0.55815611688E-06 -0.89297606450E+03  0.11070239254E+04  0.65429024114E+03 0.  0.
         13    1    3    3    0    0 -0.24313285286E+03  0.44209956481E+02 -0.80919578377E+03  0.84608860108E+03  0.00000000000E+00 0.  1.
          3    1    3    3  501    0  0.24313286047E+03 -0.44209955923E+02 -0.83780280724E+02  0.26093532433E+03  0.00000000000E+00 0.  1.
         21    1    1    2  502  501 -0.76071244021E-05 -0.55815611427E-06 -0.21680609007E-05  0.79297142437E-05  0.00000000000E+00 0. -1.
<mgrwt>
<rscale>  1 0.65429024E+03</rscale>
<asrwt>0</asrwt>
<pdfrwt beam="1">  1        1 0.38917876E+00 0.65429024E+03</pdfrwt>
<pdfrwt beam="2">0</pdfrwt>
<totfact> 0.14933584E+00</totfact>
</mgrwt>
</event>
<event>
 6    1  0.2341564E-003  0.5969271E+03  0.7818608E-02  0.9911802E-01
          1   -1    0    0  502    0  0.00000000000E+00  0.00000000000E+00  0.89152782224E+02  0.89152782224E+02  0.00000000000E+00 0.  1.
         13   -1    0    0    0    0 -0.00000000000E+00 -0.00000000000E+00 -0.10000000000E+04  0.10000000000E+04  0.00000000000E+00 0.  1.
    9000005    2    1    2  501    0  0.30637281505E-01  0.41673748088E-01 -0.91090931137E+03  0.10890719679E+04  0.59692711030E+03 0.  0.
         13    1    3    3    0    0 -0.21182794452E+03 -0.35179324365E+02 -0.77264383003E+02  0.22820702843E+03  0.00000000000E+00 0.  1.
          1    1    3    3  501    0  0.21185858180E+03  0.35220998113E+02 -0.83364492836E+03  0.86086493945E+03  0.00000000000E+00 0.  1.
         21    1    1    2  502  501 -0.30637281505E-01 -0.41673748088E-01  0.62093589900E-01  0.80814344051E-01  0.00000000000E+00 0.  1.
<mgrwt>
<rscale>  1 0.59692711E+03</rscale>
<asrwt>0</asrwt>
<pdfrwt beam="1">  1        1 0.32419262E+00 0.59692711E+03</pdfrwt>
<pdfrwt beam="2">0</pdfrwt>
<totfact> 0.29023509E+00</totfact>
</mgrwt>
</event>
<event>
 6    1  0.2341564E-003  0.6332495E+03  0.7818608E-02  0.9838728E-01
          1   -1    0    0  502    0  0.00000000000E+00  0.00000000000E+00  0.10025128711E+03  0.10025128711E+03  0.00000000000E+00 0.  1.
         13   -1    0    0    0    0 -0.00000000000E+00 -0.00000000000E+00 -0.10000000000E+04  0.10000000000E+04  0.00000000000E+00 0.  1.
    9000005    2    1    2  501    0 -0.60190165527E-05  0.37211803630E-05 -0.89974875785E+03  0.11002512416E+04  0.63324953010E+03 0.  0.
         13    1    3    3    0    0 -0.28755059737E+03 -0.11358799982E+03 -0.56852789181E+03  0.64715650620E+03  0.00000000000E+00 0.  1.
          3    1    3    3  501    0  0.28755059135E+03  0.11358800354E+03 -0.33122086605E+03  0.45309473539E+03  0.00000000000E+00 0.  1.
         21    1    1    2  502  501  0.60190165246E-05 -0.37211803736E-05  0.44960126206E-04  0.45513609962E-04  0.00000000000E+00 0. -1.
<mgrwt>
<rscale>  1 0.63324953E+03</rscale>
<asrwt>0</asrwt>
<pdfrwt beam="1">  1        1 0.36455090E+00 0.63324953E+03</pdfrwt>
<pdfrwt beam="2">0</pdfrwt>
<totfact> 0.19246553E+00</totfact>
</mgrwt>
</event>
<event>
 6    1  0.2341564E-003  0.6542573E+03  0.7818608E-02  0.9798823E-01
          1   -1    0    0  502    0  0.00000000000E+00  0.00000000000E+00  0.10795894321E+03  0.10795894321E+03  0.00000000000E+00 0.  1.
         13   -1    0    0    0    0 -0.00000000000E+00 -0.00000000000E+00 -0.10000000000E+04  0.10000000000E+04  0.00000000000E+00 0.  1.
    9000005    2    1    2  501    0  0.41775133500E+00  0.28359889985E-01 -0.89293528043E+03  0.11069715444E+04  0.65425714349E+03 0.  0.
         13    1    3    3    0    0  0.25337569645E+03  0.66238171724E+02 -0.11456045937E+03  0.28585107626E+03  0.00000000000E+00 0.  1.
          1    1    3    3  501    0 -0.25295794512E+03 -0.66209811834E+02 -0.77837482105E+03  0.82112046816E+03  0.00000000000E+00 0.  1.
         21    1    1    2  502  501 -0.41775133500E+00 -0.28359889985E-01  0.89422363025E+00  0.98739878578E+00  0.00000000000E+00 0. -1.
<mgrwt>
<rscale>  1 0.65425728E+03</rscale>
<asrwt>0</asrwt>
<pdfrwt beam="1">  1        1 0.39257880E+00 0.65425728E+03</pdfrwt>
<pdfrwt beam="2">0</pdfrwt>
<totfact> 0.14423871E+00</totfact>
</mgrwt>
</event>
<event>
 6    1  0.2341564E-003  0.6505562E+03  0.7818608E-02  0.9805736E-01
          1   -1    0    0  502    0  0.00000000000E+00  0.00000000000E+00  0.11069216676E+03  0.11069216676E+03  0.00000000000E+00 0.  1.
         13   -1    0    0    0    0 -0.00000000000E+00 -0.00000000000E+00 -0.10000000000E+04  0.10000000000E+04  0.00000000000E+00 0.  1.
    9000005    2    1    2  501    0 -0.64346298870E+00 -0.78540098694E+00 -0.89413578070E+03  0.11057586106E+04  0.65055536258E+03 0.  0.
         13    1    3    3    0    0  0.27914796460E+03 -0.16413273256E+03 -0.49770874489E+03  0.59378206000E+03  0.00000000000E+00 0.  1.
          1    1    3    3  501    0 -0.27979142759E+03  0.16334733158E+03 -0.39642703581E+03  0.51197655064E+03  0.00000000000E+00 0.  1.
         21    1    1    2  502  501  0.64346298870E+00  0.78540098694E+00  0.48279474590E+01  0.49335561206E+01  0.00000000000E+00 0. -1.
<mgrwt>
<rscale>  1 0.65055615E+03</rscale>
<asrwt>0</asrwt>
<pdfrwt beam="1">  1        1 0.40251782E+00 0.65055615E+03</pdfrwt>
<pdfrwt beam="2">0</pdfrwt>
<totfact> 0.13035821E+00</totfact>
</mgrwt>
</event>
<event>
 6    1  0.2341564E-003  0.5671214E+03  0.7818608E-02  0.9976069E-01
          1   -1    0    0  502    0  0.00000000000E+00  0.00000000000E+00  0.80464059913E+02  0.80464059913E+02  0.00000000000E+00 0.  1.
         13   -1    0    0    0    0 -0.00000000000E+00 -0.00000000000E+00 -0.10000000000E+04  0.10000000000E+04  0.00000000000E+00 0.  1.
    9000005    2    1    2  501    0  0.17415306978E-01 -0.17828699998E-02 -0.91959188190E+03  0.10804054429E+04  0.56712140799E+03 0.  0.
         13    1    3    3    0    0  0.20299839494E+03 -0.16506269195E+03 -0.66811782161E+03  0.71752035802E+03  0.00000000000E+00 0.  1.
          3    1    3    3  501    0 -0.20298097963E+03  0.16506090908E+03 -0.25147406029E+03  0.36288508484E+03  0.00000000000E+00 0.  1.
         21    1    1    2  502  501 -0.17415306978E-01  0.17828699998E-02  0.55941818027E-01  0.58617049966E-01  0.00000000000E+00 0.  1.
<mgrwt>
<rscale>  1 0.56712141E+03</rscale>
<asrwt>0</asrwt>
<pdfrwt beam="1">  1        1 0.29259720E+00 0.56712141E+03</pdfrwt>
<pdfrwt beam="2">0</pdfrwt>
<totfact> 0.39945020E+00</totfact>
</mgrwt>
</event>
<event>
 6    1  0.2341564E-003  0.6447790E+03  0.7818608E-02  0.9816626E-01
          1   -1    0    0  502    0  0.00000000000E+00  0.00000000000E+00  0.10833299963E+03  0.10833299963E+03  0.00000000000E+00 0.  1.
         13   -1    0    0    0    0 -0.00000000000E+00 -0.00000000000E+00 -0.10000000000E+04  0.10000000000E+04  0.00000000000E+00 0.  1.
    9000005    2    1    2  501    0  0.61578390402E-01  0.15248285026E+00 -0.89606330935E+03  0.11039336161E+04  0.64477899107E+03 0.  0.
         13    1    3    3    0    0  0.26021217558E+03  0.19007947447E+03 -0.46834382791E+03  0.56849496399E+03  0.00000000000E+00 0.  1.
          1    1    3    3  501    0 -0.26015059719E+03 -0.18992699162E+03 -0.42771948143E+03  0.53543865210E+03  0.00000000000E+00 0.  1.
         21    1    1    2  502  501 -0.61578390402E-01 -0.15248285026E+00  0.43963089746E+01  0.43993835384E+01  0.00000000000E+00 0.  1.
<mgrwt>
<rscale>  1 0.64477901E+03</rscale>
<asrwt>0</asrwt>
<pdfrwt beam="1">  1        1 0.39393901E+00 0.64477901E+03</pdfrwt>
<pdfrwt beam="2">0</pdfrwt>
<totfact> 0.14249984E+00</totfact>
</mgrwt>
</event>
<event>
 6    1  0.2341564E-003  0.6506725E+03  0.7818608E-02  0.9805518E-01
          1   -1    0    0  502    0  0.00000000000E+00  0.00000000000E+00  0.10584380909E+03  0.10584380909E+03  0.00000000000E+00 0.  1.
         13   -1    0    0    0    0 -0.00000000000E+00 -0.00000000000E+00 -0.10000000000E+04  0.10000000000E+04  0.00000000000E+00 0.  1.
    9000005    2    1    2  501    0  0.24769778914E-04 -0.85597566681E-04 -0.89415631818E+03  0.11058436537E+04  0.65067247148E+03 0.  0.
         13    1    3    3    0    0 -0.80419169828E+01 -0.30963905605E+03 -0.27795331080E+03  0.41617191213E+03  0.00000000000E+00 0.  1.
          3    1    3    3  501    0  0.80419417526E+01  0.30963897045E+03 -0.61620300738E+03  0.68967174159E+03  0.00000000000E+00 0.  1.
         21    1    1    2  502  501 -0.24769778915E-04  0.85597566666E-04  0.12726474970E-03  0.15536023263E-03  0.00000000000E+00 0.  1.
<mgrwt>
<rscale>  1 0.65067247E+03</rscale>
<asrwt>0</asrwt>
<pdfrwt beam="1">  1        1 0.38488739E+00 0.65067247E+03</pdfrwt>
<pdfrwt beam="2">0</pdfrwt>
<totfact> 0.15611923E+00</totfact>
</mgrwt>
</event>
<event>
 6    1  0.2341564E-003  0.6599827E+03  0.7818608E-02  0.9788226E-01
          1   -1    0    0  502    0  0.00000000000E+00  0.00000000000E+00  0.10889925362E+03  0.10889925362E+03  0.00000000000E+00 0.  1.
         13   -1    0    0    0    0 -0.00000000000E+00 -0.00000000000E+00 -0.10000000000E+04  0.10000000000E+04  0.00000000000E+00 0.  1.
    9000005    2    1    2  501    0 -0.92782113612E-03 -0.38478822799E-03 -0.89110563902E+03  0.11088942589E+04  0.65998274038E+03 0.  0.
         13    1    3    3    0    0  0.19606589005E+03 -0.25074665932E+03 -0.59182058420E+03  0.67198759235E+03  0.00000000000E+00 0.  1.
          1    1    3    3  501    0 -0.19606681787E+03  0.25074627453E+03 -0.29928505483E+03  0.43690666658E+03  0.00000000000E+00 0.  1.
         21    1    1    2  502  501  0.92782113611E-03  0.38478822799E-03  0.48926483508E-02  0.49946893723E-02  0.00000000000E+00 0. -1.
<mgrwt>
<rscale>  1 0.65998274E+03</rscale>
<asrwt>0</asrwt>
<pdfrwt beam="1">  1        1 0.39599812E+00 0.65998274E+03</pdfrwt>
<pdfrwt beam="2">0</pdfrwt>
<totfact> 0.13912970E+00</totfact>
</mgrwt>
</event>
<event>
 6    1  0.2341564E-003  0.5093088E+03  0.7818608E-02  0.1011377E+00
          3   -1    0    0  502    0  0.00000000000E+00  0.00000000000E+00  0.64856655490E+02  0.64856655490E+02  0.00000000000E+00 0.  1.
         13   -1    0    0    0    0 -0.00000000000E+00 -0.00000000000E+00 -0.10000000000E+04  0.10000000000E+04  0.00000000000E+00 0.  1.
    9000005    2    1    2  501    0  0.37500913869E-02 -0.48633667406E-02 -0.93514984783E+03  0.10648477107E+04  0.50930875618E+03 0.  0.
         13    1    3    3    0    0  0.98240921283E+02  0.21539521288E+03 -0.27142079748E+03  0.36016055538E+03  0.00000000000E+00 0.  1.
          1    1    3    3  501    0 -0.98237171191E+02 -0.21540007624E+03 -0.66372905035E+03  0.70468715536E+03  0.00000000000E+00 0.  1.
         21    1    1    2  502  501 -0.37500913869E-02  0.48633667407E-02  0.65033191629E-02  0.89447572130E-02  0.00000000000E+00 0.  1.
<mgrwt>
<rscale>  1 0.50930876E+03</rscale>
<asrwt>0</asrwt>
<pdfrwt beam="1">  1        3 0.23584288E+00 0.50930876E+03</pdfrwt>
<pdfrwt beam="2">0</pdfrwt>
<totfact> 0.46757473E-01</totfact>
</mgrwt>
</event>
<event>
 6    1  0.2341564E-003  0.6390436E+03  0.7818608E-02  0.9827558E-01
          1   -1    0    0  502    0  0.00000000000E+00  0.00000000000E+00  0.10209470326E+03  0.10209470326E+03  0.00000000000E+00 0.  1.
         13   -1    0    0    0    0 -0.00000000000E+00 -0.00000000000E+00 -0.10000000000E+04  0.10000000000E+04  0.00000000000E+00 0.  1.
    9000005    2    1    2  501    0 -0.19375304223E-03 -0.31512385789E-03 -0.89790575818E+03  0.11020941118E+04  0.63904356721E+03 0.  0.
         13    1    3    3    0    0 -0.16339514527E+03 -0.25659934079E+03 -0.61751528852E+03  0.68837949326E+03  0.00000000000E+00 0.  1.
          1    1    3    3  501    0  0.16339495152E+03  0.25659902566E+03 -0.28039046966E+03  0.41371461858E+03  0.00000000000E+00 0.  1.
         21    1    1    2  502  501  0.19375304223E-03  0.31512385788E-03  0.46144014617E-03  0.59141381086E-03  0.00000000000E+00 0.  1.
<mgrwt>
<rscale>  1 0.63904357E+03</rscale>
<asrwt>0</asrwt>
<pdfrwt beam="1">  1        1 0.37125425E+00 0.63904357E+03</pdfrwt>
<pdfrwt beam="2">0</pdfrwt>
<totfact> 0.17967277E+00</totfact>
</mgrwt>
</event>
<event>
 6    1  0.2341564E-003  0.6680750E+03  0.7818608E-02  0.9773442E-01
          1   -1    0    0  502    0  0.00000000000E+00  0.00000000000E+00  0.11162306054E+03  0.11162306054E+03  0.00000000000E+00 0.  1.
         13   -1    0    0    0    0 -0.00000000000E+00 -0.00000000000E+00 -0.10000000000E+04  0.10000000000E+04  0.00000000000E+00 0.  1.
    9000005    2    1    2  501    0  0.24269129849E-02 -0.36626511555E-02 -0.88841883293E+03  0.11115809373E+04  0.66807496392E+03 0.  0.
         13    1    3    3    0    0  0.11558564824E+03 -0.96807876774E+02 -0.94016797871E+03  0.95218046360E+03  0.00000000000E+00 0.  1.
          3    1    3    3  501    0 -0.11558322132E+03  0.96804214123E+02  0.51749145775E+02  0.15940047369E+03  0.00000000000E+00 0.  1.
         21    1    1    2  502  501 -0.24269129849E-02  0.36626511555E-02  0.41893471778E-01  0.42123246525E-01  0.00000000000E+00 0. -1.
<mgrwt>
<rscale>  1 0.66807496E+03</rscale>
<asrwt>0</asrwt>
<pdfrwt beam="1">  1        1 0.40590289E+00 0.66807496E+03</pdfrwt>
<pdfrwt beam="2">0</pdfrwt>
<totfact> 0.12547817E+00</totfact>
</mgrwt>
</event>
<event>
 6    1  0.2341564E-003  0.6509853E+03  0.7818608E-02  0.9804932E-01
          1   -1    0    0  502    0  0.00000000000E+00  0.00000000000E+00  0.10595564277E+03  0.10595564277E+03  0.00000000000E+00 0.  1.
         13   -1    0    0    0    0 -0.00000000000E+00 -0.00000000000E+00 -0.10000000000E+04  0.10000000000E+04  0.00000000000E+00 0.  1.
    9000005    2    1    2  501    0  0.44918062725E-02 -0.12403840333E-02 -0.89405393181E+03  0.11059449944E+04  0.65098532830E+03 0.  0.
         13    1    3    3    0    0 -0.61247697558E+02  0.25557484759E+03 -0.12079193928E+03  0.28924120690E+03  0.00000000000E+00 0.  1.
          1    1    3    3  501    0  0.61252189364E+02 -0.25557608797E+03 -0.77326199253E+03  0.81670378751E+03  0.00000000000E+00 0.  1.
         21    1    1    2  502  501 -0.44918062725E-02  0.12403840334E-02  0.95745780059E-02  0.10648352930E-01  0.00000000000E+00 0. -1.
<mgrwt>
<rscale>  1 0.65098533E+03</rscale>
<asrwt>0</asrwt>
<pdfrwt beam="1">  1        1 0.38529406E+00 0.65098533E+03</pdfrwt>
<pdfrwt beam="2">0</pdfrwt>
<totfact> 0.15546493E+00</totfact>
</mgrwt>
</event>
<event>
 6    1  0.2341564E-003  0.6448690E+03  0.7818608E-02  0.9816455E-01
          1   -1    0    0  502    0  0.00000000000E+00  0.00000000000E+00  0.10398760807E+03  0.10398760807E+03  0.00000000000E+00 0.  1.
         13   -1    0    0    0    0 -0.00000000000E+00 -0.00000000000E+00 -0.10000000000E+04  0.10000000000E+04  0.00000000000E+00 0.  1.
    9000005    2    1    2  501    0 -0.16908299279E-01  0.12911914359E-01 -0.89603059901E+03  0.11039596062E+04  0.64486896131E+03 0.  0.
         13    1    3    3    0    0 -0.19972623036E+03 -0.83283238770E+02 -0.38806314231E+02  0.21984675340E+03  0.00000000000E+00 0.  1.
          3    1    3    3  501    0  0.19970932206E+03  0.83296150685E+02 -0.85722428478E+03  0.88411285278E+03  0.00000000000E+00 0.  1.
         21    1    1    2  502  501  0.16908299279E-01 -0.12911914359E-01  0.18207073821E-01  0.28001886616E-01  0.00000000000E+00 0.  1.
<mgrwt>
<rscale>  1 0.64486896E+03</rscale>
<asrwt>0</asrwt>
<pdfrwt beam="1">  1        1 0.37813755E+00 0.64486896E+03</pdfrwt>
<pdfrwt beam="2">0</pdfrwt>
<totfact> 0.16738810E+00</totfact>
</mgrwt>
</event>
