<event>
 6    1  0.2220303E-003  0.6549197E+03  0.7818608E-02  0.9797591E-01
          1   -1    0    0  502    0  0.00000000000E+00  0.00000000000E+00  0.10723001970E+03  0.10723001970E+03  0.00000000000E+00 0.  1.
         13   -1    0    0    0    0 -0.00000000000E+00 -0.00000000000E+00 -0.10000000000E+04  0.10000000000E+04  0.00000000000E+00 0.  1.
    9000005    2    1    2  501    0 -0.86690289436E-05  0.38134534748E-05 -0.89277003401E+03  0.11072299652E+04  0.65491973716E+03 0.  0.
         13    1    3    3    0    0 -0.14777492557E+03 -0.24772351408E+03 -0.18433339511E+03  0.34232027198E+03  0.00000000000E+00 0.  1.
          1    1    3    3  501    0  0.14777491690E+03  0.24772351789E+03 -0.70843663890E+03  0.76490969318E+03  0.00000000000E+00 0.  1.
         21    1    1    2  502  501  0.86690289437E-05 -0.38134534960E-05  0.53715516542E-04  0.54544029992E-04  0.00000000000E+00 0. -1.
<mgrwt>
<rscale>  1 0.65491974E+03</rscale>
<asrwt>0</asrwt>
<pdfrwt beam="1">  1        1 0.38992817E+00 0.65491974E+03</pdfrwt>
<pdfrwt beam="2">0</pdfrwt>
<totfact> 0.14818038E+00</totfact>
</mgrwt>
</event>
<event>
 6    1  0.2220303E-003  0.6244334E+03  0.7818608E-02  0.9855972E-01
          1   -1    0    0  502    0  0.00000000000E+00  0.00000000000E+00  0.97479618122E+02  0.97479618122E+02  0.00000000000E+00 0.  1.
         13   -1    0    0    0    0 -0.00000000000E+00 -0.00000000000E+00 -0.10000000000E+04  0.10000000000E+04  0.00000000000E+00 0.  1.
    9000005    2    1    2  501    0 -0.35340115427E-03 -0.87110738161E-03 -0.90251984369E+03  0.10974785349E+04  0.62443339622E+03 0.  0.
         13    1    3    3    0    0  0.90096100379E+02 -0.29685725154E+03 -0.38942138245E+03  0.49788607955E+03  0.00000000000E+00 0.  1.
          3    1    3    3  501    0 -0.90096453780E+02  0.29685638044E+03 -0.51309846124E+03  0.59959245535E+03  0.00000000000E+00 0.  1.
         21    1    1    2  502  501  0.35340115428E-03  0.87110738163E-03 -0.53818699490E-03  0.10832200550E-02  0.00000000000E+00 0. -1.
<mgrwt>
<rscale>  1 0.62443340E+03</rscale>
<asrwt>0</asrwt>
<pdfrwt beam="1">  1        1 0.35447209E+00 0.62443340E+03</pdfrwt>
<pdfrwt beam="2">0</pdfrwt>
<totfact> 0.21336127E+00</totfact>
</mgrwt>
</event>
<event>
 6    1  0.2220303E-003  0.6576307E+03  0.7818608E-02  0.9792565E-01
          1   -1    0    0  502    0  0.00000000000E+00  0.00000000000E+00  0.10811954481E+03  0.10811954481E+03  0.00000000000E+00 0.  1.
         13   -1    0    0    0    0 -0.00000000000E+00 -0.00000000000E+00 -0.10000000000E+04  0.10000000000E+04  0.00000000000E+00 0.  1.
    9000005    2    1    2  501    0  0.23607109831E-05 -0.50070896123E-05 -0.89188046840E+03  0.11081195305E+04  0.65763068963E+03 0.  0.
         13    1    3    3    0    0  0.16976126222E+02  0.31706129385E+03 -0.58994250685E+03  0.66996135284E+03  0.00000000000E+00 0.  1.
          1    1    3    3  501    0 -0.16976123862E+02 -0.31706129885E+03 -0.30193796155E+03  0.43815817764E+03  0.00000000000E+00 0.  1.
         21    1    1    2  502  501 -0.23607109855E-05  0.50070895804E-05  0.13204138148E-04  0.14317582431E-04  0.00000000000E+00 0.  1.
<mgrwt>
<rscale>  1 0.65763069E+03</rscale>
<asrwt>0</asrwt>
<pdfrwt beam="1">  1        1 0.39316281E+00 0.65763069E+03</pdfrwt>
<pdfrwt beam="2">0</pdfrwt>
<totfact> 0.14328979E+00</totfact>
</mgrwt>
</event>
<event>
 6    1  0.2220303E-003  0.6520833E+03  0.7818608E-02  0.9802878E-01
          1   -1    0    0  502    0  0.00000000000E+00  0.00000000000E+00  0.10630574493E+03  0.10630574493E+03  0.00000000000E+00 0.  1.
         13   -1    0    0    0    0 -0.00000000000E+00 -0.00000000000E+00 -0.10000000000E+04  0.10000000000E+04  0.00000000000E+00 0.  1.
    9000005    2    1    2  501    0  0.69256972286E-03 -0.17504230620E-03 -0.89369680173E+03  0.11063031000E+04  0.65208325819E+03 0.  0.
         13    1    3    3    0    0  0.39099934931E+02 -0.73715132293E+02  0.87881033274E+02  0.12118498938E+03  0.00000000000E+00 0.  1.
          3    1    3    3  501    0 -0.39099242361E+02  0.73714957251E+02 -0.98157783500E+03  0.98511811061E+03  0.00000000000E+00 0.  1.
         21    1    1    2  502  501 -0.69256972286E-03  0.17504230620E-03  0.25466619152E-02  0.26449535989E-02  0.00000000000E+00 0.  1.
<mgrwt>
<rscale>  1 0.65208326E+03</rscale>
<asrwt>0</asrwt>
<pdfrwt beam="1">  1        1 0.38656716E+00 0.65208326E+03</pdfrwt>
<pdfrwt beam="2">0</pdfrwt>
<totfact> 0.15343004E+00</totfact>
</mgrwt>
</event>
<event>
 6    1  0.2220303E-003  0.5266860E+03  0.7818608E-02  0.1007039E+00
          1   -1    0    0  502    0  0.00000000000E+00  0.00000000000E+00  0.69349619766E+02  0.69349619766E+02  0.00000000000E+00 0.  1.
         13   -1    0    0    0    0 -0.00000000000E+00 -0.00000000000E+00 -0.10000000000E+04  0.10000000000E+04  0.00000000000E+00 0.  1.
    9000005    2    1    2  501    0 -0.37862284898E-05  0.11983319973E-03 -0.93065043607E+03  0.10693494875E+04  0.52668595222E+03 0.  0.
         13    1    3    3    0    0  0.22195479695E+03 -0.10553747741E+03 -0.27327406903E+03  0.36753341050E+03  0.00000000000E+00 0.  1.
          3    1    3    3  501    0 -0.22195480073E+03  0.10553759724E+03 -0.65737636705E+03  0.70181607701E+03  0.00000000000E+00 0.  1.
         21    1    1    2  502  501  0.37862285098E-05 -0.11983319973E-03  0.55840659322E-04  0.13225925494E-03  0.00000000000E+00 0.  1.
<mgrwt>
<rscale>  1 0.52668595E+03</rscale>
<asrwt>0</asrwt>
<pdfrwt beam="1">  1        1 0.25218097E+00 0.52668595E+03</pdfrwt>
<pdfrwt beam="2">0</pdfrwt>
<totfact> 0.60154315E+00</totfact>
</mgrwt>
</event>
<event>
 6    1  0.2220303E-003  0.6480626E+03  0.7818608E-02  0.9810421E-01
          1   -1    0    0  502    0  0.00000000000E+00  0.00000000000E+00  0.11778214118E+03  0.11778214118E+03  0.00000000000E+00 0.  1.
         13   -1    0    0    0    0 -0.00000000000E+00 -0.00000000000E+00 -0.10000000000E+04  0.10000000000E+04  0.00000000000E+00 0.  1.
    9000005    2    1    2  501    0 -0.20109576104E+00  0.32601538256E-01 -0.89500283431E+03  0.11049955427E+04  0.64806252359E+03 0.  0.
         13    1    3    3    0    0  0.39430231093E+02 -0.31665172878E+03 -0.54323454583E+03  0.63002129507E+03  0.00000000000E+00 0.  1.
          3    1    3    3  501    0 -0.39631326854E+02  0.31668433032E+03 -0.35176828848E+03  0.47497424764E+03  0.00000000000E+00 0.  1.
         21    1    1    2  502  501  0.20109576104E+00 -0.32601538256E-01  0.12784975486E+02  0.12786598474E+02  0.00000000000E+00 0. -1.
<mgrwt>
<rscale>  1 0.64806256E+03</rscale>
<asrwt>0</asrwt>
<pdfrwt beam="1">  1        1 0.42829960E+00 0.64806256E+03</pdfrwt>
<pdfrwt beam="2">0</pdfrwt>
<totfact> 0.99860711E-01</totfact>
</mgrwt>
</event>
<event>
 6    1  0.2220303E-003  0.6373497E+03  0.7818608E-02  0.9830811E-01
          1   -1    0    0  502    0  0.00000000000E+00  0.00000000000E+00  0.10155373967E+03  0.10155373967E+03  0.00000000000E+00 0.  1.
         13   -1    0    0    0    0 -0.00000000000E+00 -0.00000000000E+00 -0.10000000000E+04  0.10000000000E+04  0.00000000000E+00 0.  1.
    9000005    2    1    2  501    0 -0.64642174976E-04  0.69653590913E-04 -0.89844632373E+03  0.11015536254E+04  0.63734966313E+03 0.  0.
         13    1    3    3    0    0  0.87404375190E+02 -0.28786528707E+03 -0.63088477992E+03  0.69894316925E+03  0.00000000000E+00 0.  1.
          1    1    3    3  501    0 -0.87404439832E+02  0.28786535673E+03 -0.26756154381E+03  0.40261045619E+03  0.00000000000E+00 0.  1.
         21    1    1    2  502  501  0.64642174975E-04 -0.69653590933E-04  0.63395517504E-04  0.11423320513E-03  0.00000000000E+00 0. -1.
<mgrwt>
<rscale>  1 0.63734966E+03</rscale>
<asrwt>0</asrwt>
<pdfrwt beam="1">  1        1 0.36928710E+00 0.63734966E+03</pdfrwt>
<pdfrwt beam="2">0</pdfrwt>
<totfact> 0.18333979E+00</totfact>
</mgrwt>
</event>
<event>
 6    1  0.2220303E-003  0.6369009E+03  0.7818608E-02  0.9831674E-01
          1   -1    0    0  502    0  0.00000000000E+00  0.00000000000E+00  0.10336445729E+03  0.10336445729E+03  0.00000000000E+00 0.  1.
         13   -1    0    0    0    0 -0.00000000000E+00 -0.00000000000E+00 -0.10000000000E+04  0.10000000000E+04  0.00000000000E+00 0.  1.
    9000005    2    1    2  501    0 -0.97555149875E+00  0.48198533341E+00 -0.89842112272E+03  0.11012734512E+04  0.63689992662E+03 0.  0.
         13    1    3    3    0    0  0.10901691669E+03 -0.21670010602E+03 -0.80460275005E+03  0.84037444598E+03  0.00000000000E+00 0.  1.
          3    1    3    3  501    0 -0.10999246819E+03  0.21718209135E+03 -0.93818372666E+02  0.26089900520E+03  0.00000000000E+00 0.  1.
         21    1    1    2  502  501  0.97555149875E+00 -0.48198533341E+00  0.17855800040E+01  0.20910061068E+01  0.00000000000E+00 0.  1.
<mgrwt>
<rscale>  1 0.63690086E+03</rscale>
<asrwt>0</asrwt>
<pdfrwt beam="1">  1        1 0.37587155E+00 0.63690086E+03</pdfrwt>
<pdfrwt beam="2">0</pdfrwt>
<totfact> 0.17153160E+00</totfact>
</mgrwt>
</event>
<event>
 6    1  0.2220303E-003  0.6444925E+03  0.7818608E-02  0.9817169E-01
          1   -1    0    0  502    0  0.00000000000E+00  0.00000000000E+00  0.10409255409E+03  0.10409255409E+03  0.00000000000E+00 0.  1.
         13   -1    0    0    0    0 -0.00000000000E+00 -0.00000000000E+00 -0.10000000000E+04  0.10000000000E+04  0.00000000000E+00 0.  1.
    9000005    2    1    2  501    0  0.61956497310E-01  0.52857536023E-01 -0.89615002219E+03  0.11038366717E+04  0.64449245843E+03 0.  0.
         13    1    3    3    0    0 -0.17633927767E+03 -0.26027506170E+03 -0.56887856709E+03  0.64997036293E+03  0.00000000000E+00 0.  1.
          3    1    3    3  501    0  0.17640123417E+03  0.26032791923E+03 -0.32727145510E+03  0.45386630881E+03  0.00000000000E+00 0.  1.
         21    1    1    2  502  501 -0.61956497310E-01 -0.52857536023E-01  0.24257627944E+00  0.25588235191E+00  0.00000000000E+00 0.  1.
<mgrwt>
<rscale>  1 0.64449246E+03</rscale>
<asrwt>0</asrwt>
<pdfrwt beam="1">  1        1 0.37851918E+00 0.64449246E+03</pdfrwt>
<pdfrwt beam="2">0</pdfrwt>
<totfact> 0.16675243E+00</totfact>
</mgrwt>
</event>
<event>
 6    1  0.2220303E-003  0.6447975E+03  0.7818608E-02  0.9816591E-01
          1   -1    0    0  502    0  0.00000000000E+00  0.00000000000E+00  0.10394897571E+03  0.10394897571E+03  0.00000000000E+00 0.  1.
         13   -1    0    0    0    0 -0.00000000000E+00 -0.00000000000E+00 -0.10000000000E+04  0.10000000000E+04  0.00000000000E+00 0.  1.
    9000005    2    1    2  501    0 -0.12404880098E-01  0.38345900987E-03 -0.89605336553E+03  0.11039363460E+04  0.64479750465E+03 0.  0.
         13    1    3    3    0    0  0.22844819274E+03  0.22742070454E+03 -0.43872892545E+03  0.54441879436E+03  0.00000000000E+00 0.  1.
          1    1    3    3  501    0 -0.22846059762E+03 -0.22742032108E+03 -0.45732444008E+03  0.55951755165E+03  0.00000000000E+00 0.  1.
         21    1    1    2  502  501  0.12404880098E-01 -0.38345900987E-03  0.23412356756E-02  0.12629706075E-01  0.00000000000E+00 0. -1.
<mgrwt>
<rscale>  1 0.64479750E+03</rscale>
<asrwt>0</asrwt>
<pdfrwt beam="1">  1        1 0.37799707E+00 0.64479750E+03</pdfrwt>
<pdfrwt beam="2">0</pdfrwt>
<totfact> 0.16762915E+00</totfact>
</mgrwt>
</event>
<event>
 6    1  0.2220303E-003  0.6589383E+03  0.7818608E-02  0.9790150E-01
          1   -1    0    0  502    0  0.00000000000E+00  0.00000000000E+00  0.10856038998E+03  0.10856038998E+03  0.00000000000E+00 0.  1.
         13   -1    0    0    0    0 -0.00000000000E+00 -0.00000000000E+00 -0.10000000000E+04  0.10000000000E+04  0.00000000000E+00 0.  1.
    9000005    2    1    2  501    0 -0.73164541218E-02 -0.40316458562E-02 -0.89144820241E+03  0.11085484061E+04  0.65893829072E+03 0.  0.
         13    1    3    3    0    0  0.40268007632E+02 -0.32626689321E+03 -0.40889363207E+03  0.52465760300E+03  0.00000000000E+00 0.  1.
          3    1    3    3  501    0 -0.40275324086E+02  0.32626286156E+03 -0.48255457034E+03  0.58389080308E+03  0.00000000000E+00 0.  1.
         21    1    1    2  502  501  0.73164541218E-02  0.40316458562E-02  0.85923921377E-02  0.11983900528E-01  0.00000000000E+00 0. -1.
<mgrwt>
<rscale>  1 0.65893829E+03</rscale>
<asrwt>0</asrwt>
<pdfrwt beam="1">  1        1 0.39476589E+00 0.65893829E+03</pdfrwt>
<pdfrwt beam="2">0</pdfrwt>
<totfact> 0.14092402E+00</totfact>
</mgrwt>
</event>
<event>
 6    1  0.2220303E-003  0.6491925E+03  0.7818608E-02  0.9808296E-01
          1   -1    0    0  502    0  0.00000000000E+00  0.00000000000E+00  0.10577142414E+03  0.10577142414E+03  0.00000000000E+00 0.  1.
         13   -1    0    0    0    0 -0.00000000000E+00 -0.00000000000E+00 -0.10000000000E+04  0.10000000000E+04  0.00000000000E+00 0.  1.
    9000005    2    1    2  501    0 -0.66461633872E-02 -0.79739739274E-02 -0.89463720853E+03  0.11053626596E+04  0.64919247865E+03 0.  0.
         13    1    3    3    0    0 -0.13975007516E+02 -0.30850759433E+03 -0.61753204028E+03  0.69044772240E+03  0.00000000000E+00 0.  1.
          1    1    3    3  501    0  0.13968361352E+02  0.30849962035E+03 -0.27710516825E+03  0.41491493724E+03  0.00000000000E+00 0.  1.
         21    1    1    2  502  501  0.66461633872E-02  0.79739739273E-02  0.40863267240E+00  0.40876450030E+00  0.00000000000E+00 0.  1.
<mgrwt>
<rscale>  1 0.64919248E+03</rscale>
<asrwt>0</asrwt>
<pdfrwt beam="1">  1        1 0.38462417E+00 0.64919248E+03</pdfrwt>
<pdfrwt beam="2">0</pdfrwt>
<totfact> 0.15658106E+00</totfact>
</mgrwt>
</event>
<event>
 6    1  0.2220303E-003  0.6495235E+03  0.7818608E-02  0.9807674E-01
          1   -1    0    0  502    0  0.00000000000E+00  0.00000000000E+00  0.10549442101E+03  0.10549442101E+03  0.00000000000E+00 0.  1.
         13   -1    0    0    0    0 -0.00000000000E+00 -0.00000000000E+00 -0.10000000000E+04  0.10000000000E+04  0.00000000000E+00 0.  1.
    9000005    2    1    2  501    0 -0.69329347704E-03 -0.37635613779E-04 -0.89452980006E+03  0.11054701900E+04  0.64952350053E+03 0.  0.
         13    1    3    3    0    0 -0.22816037854E+03  0.22925124851E+03 -0.49709114862E+03  0.59305387893E+03  0.00000000000E+00 0.  1.
          1    1    3    3  501    0  0.22815968525E+03 -0.22925128614E+03 -0.39743865144E+03  0.51241631105E+03  0.00000000000E+00 0.  1.
         21    1    1    2  502  501  0.69329347702E-03  0.37635613752E-04  0.24221075640E-01  0.24231025101E-01  0.00000000000E+00 0. -1.
<mgrwt>
<rscale>  1 0.64952350E+03</rscale>
<asrwt>0</asrwt>
<pdfrwt beam="1">  1        1 0.38361689E+00 0.64952350E+03</pdfrwt>
<pdfrwt beam="2">0</pdfrwt>
<totfact> 0.15818529E+00</totfact>
</mgrwt>
</event>
<event>
 6    1  0.2220303E-003  0.6705386E+03  0.7818608E-02  0.9768985E-01
          1   -1    0    0  502    0  0.00000000000E+00  0.00000000000E+00  0.11240964848E+03  0.11240964848E+03  0.00000000000E+00 0.  1.
         13   -1    0    0    0    0 -0.00000000000E+00 -0.00000000000E+00 -0.10000000000E+04  0.10000000000E+04  0.00000000000E+00 0.  1.
    9000005    2    1    2  501    0 -0.17861960959E-02  0.71780438681E-02 -0.88759040713E+03  0.11124022513E+04  0.67053861773E+03 0.  0.
         13    1    3    3    0    0 -0.18210367738E+03 -0.20064857381E+03 -0.77134070012E+03  0.81755004444E+03  0.00000000000E+00 0.  1.
          3    1    3    3  501    0  0.18210189119E+03  0.20065575186E+03 -0.11624970701E+03  0.29485220689E+03  0.00000000000E+00 0.  1.
         21    1    1    2  502  501  0.17861960959E-02 -0.71780438681E-02  0.55609974249E-04  0.73971550433E-02  0.00000000000E+00 0.  1.
<mgrwt>
<rscale>  1 0.67053862E+03</rscale>
<asrwt>0</asrwt>
<pdfrwt beam="1">  1        1 0.40876322E+00 0.67053862E+03</pdfrwt>
<pdfrwt beam="2">0</pdfrwt>
<totfact> 0.12177453E+00</totfact>
</mgrwt>
</event>
<event>
 6    1  0.2220303E-003  0.6504335E+03  0.7818608E-02  0.9805966E-01
          3   -1    0    0  502    0  0.00000000000E+00  0.00000000000E+00  0.10855181220E+03  0.10855181220E+03  0.00000000000E+00 0.  1.
         13   -1    0    0    0    0 -0.00000000000E+00 -0.00000000000E+00 -0.10000000000E+04  0.10000000000E+04  0.00000000000E+00 0.  1.
    9000005    2    1    2  501    0  0.79824469887E+01 -0.16676157008E+01 -0.87587115910E+03  0.10909693145E+04  0.65038239324E+03 0.  0.
         13    1    3    3    0    0  0.30553325057E+03 -0.11827738597E+03 -0.38911006693E+03  0.50867155555E+03  0.00000000000E+00 0.  1.
          1    1    3    3  501    0 -0.29755080358E+03  0.11660977027E+03 -0.48676109217E+03  0.58229775895E+03  0.00000000000E+00 0.  1.
         21    1    1    2  502  501 -0.79824469887E+01  0.16676157008E+01 -0.15577028700E+02  0.17582497694E+02  0.00000000000E+00 0. -1.
<mgrwt>
<rscale>  1 0.65043352E+03</rscale>
<asrwt>0</asrwt>
<pdfrwt beam="1">  1        3 0.39473469E+00 0.65043352E+03</pdfrwt>
<pdfrwt beam="2">0</pdfrwt>
<totfact> 0.63123639E-02</totfact>
</mgrwt>
</event>
<event>
 6    1  0.2220303E-003  0.6543212E+03  0.7818608E-02  0.9798704E-01
          1   -1    0    0  502    0  0.00000000000E+00  0.00000000000E+00  0.11387429561E+03  0.11387429561E+03  0.00000000000E+00 0.  1.
         13   -1    0    0    0    0 -0.00000000000E+00 -0.00000000000E+00 -0.10000000000E+04  0.10000000000E+04  0.00000000000E+00 0.  1.
    9000005    2    1    2  501    0  0.65790100309E+00  0.35068584804E+01 -0.89244700535E+03  0.11066155260E+04  0.65431149628E+03 0.  0.
         13    1    3    3    0    0  0.11589732622E+02 -0.55713845080E+02  0.98544829062E+02  0.11379559645E+03  0.00000000000E+00 0.  1.
          1    1    3    3  501    0 -0.10931831619E+02  0.59220703560E+02 -0.99099183442E+03  0.99281992957E+03  0.00000000000E+00 0.  1.
         21    1    1    2  502  501 -0.65790100309E+00 -0.35068584804E+01  0.63213009681E+01  0.72587695969E+01  0.00000000000E+00 0. -1.
<mgrwt>
<rscale>  1 0.65432122E+03</rscale>
<asrwt>0</asrwt>
<pdfrwt beam="1">  1        1 0.41408922E+00 0.65432122E+03</pdfrwt>
<pdfrwt beam="2">0</pdfrwt>
<totfact> 0.11561100E+00</totfact>
</mgrwt>
</event>
<event>
 6    1  0.2220303E-003  0.6539521E+03  0.7818608E-02  0.9799392E-01
          1   -1    0    0  502    0  0.00000000000E+00  0.00000000000E+00  0.10691343120E+03  0.10691343120E+03  0.00000000000E+00 0.  1.
         13   -1    0    0    0    0 -0.00000000000E+00 -0.00000000000E+00 -0.10000000000E+04  0.10000000000E+04  0.00000000000E+00 0.  1.
    9000005    2    1    2  501    0  0.54914423799E-05 -0.17521877425E-04 -0.89308666995E+03  0.11069133284E+04  0.65395207511E+03 0.  0.
         13    1    3    3    0    0  0.29419212988E+03 -0.46235112538E+02 -0.67506162844E+03  0.73783121180E+03  0.00000000000E+00 0.  1.
          3    1    3    3  501    0 -0.29419212439E+03  0.46235095016E+02 -0.21802504151E+03  0.36908211660E+03  0.00000000000E+00 0.  1.
         21    1    1    2  502  501 -0.54914423594E-05  0.17521877426E-04  0.10115076150E-03  0.10280393319E-03  0.00000000000E+00 0.  1.
<mgrwt>
<rscale>  1 0.65395208E+03</rscale>
<asrwt>0</asrwt>
<pdfrwt beam="1">  1        1 0.38877693E+00 0.65395208E+03</pdfrwt>
<pdfrwt beam="2">0</pdfrwt>
<totfact> 0.14995892E+00</totfact>
</mgrwt>
</event>
<event>
 6    1  0.2220303E-003  0.6478868E+03  0.7818608E-02  0.9810753E-01
          1   -1    0    0  502    0  0.00000000000E+00  0.00000000000E+00  0.10516837096E+03  0.10516837096E+03  0.00000000000E+00 0.  1.
         13   -1    0    0    0    0 -0.00000000000E+00 -0.00000000000E+00 -0.10000000000E+04  0.10000000000E+04  0.00000000000E+00 0.  1.
    9000005    2    1    2  501    0 -0.39392769273E-02  0.47832170806E-02 -0.89506062295E+03  0.11049392932E+04  0.64788681336E+03 0.  0.
         13    1    3    3    0    0  0.32188681727E+03 -0.35577956408E+02 -0.46084488936E+03  0.56325387363E+03  0.00000000000E+00 0.  1.
          3    1    3    3  501    0 -0.32189075654E+03  0.35582739625E+02 -0.43421573359E+03  0.54168541960E+03  0.00000000000E+00 0.  1.
         21    1    1    2  502  501  0.39392769273E-02 -0.47832170806E-02  0.22899391037E+00  0.22907773365E+00  0.00000000000E+00 0. -1.
<mgrwt>
<rscale>  1 0.64788681E+03</rscale>
<asrwt>0</asrwt>
<pdfrwt beam="1">  1        1 0.38243125E+00 0.64788681E+03</pdfrwt>
<pdfrwt beam="2">0</pdfrwt>
<totfact> 0.16015343E+00</totfact>
</mgrwt>
</event>
<event>
 6    1  0.3274310E-003  0.5858468E+03  0.7818608E-02  0.9935212E-01
          1   -1    0    0  502    0  0.00000000000E+00  0.00000000000E+00  0.85804131177E+02  0.85804131177E+02  0.00000000000E+00 0.  1.
         13   -1    0    0    0    0 -0.00000000000E+00 -0.00000000000E+00 -0.10000000000E+04  0.10000000000E+04  0.00000000000E+00 0.  1.
    9000005    2    1    2  501    0  0.70976366260E-05 -0.81679141135E-05 -0.91419587881E+03  0.10858041165E+04  0.58584680120E+03 0.  0.
         13    1    3    3    0    0 -0.24758483728E+03 -0.24392691302E+00 -0.16696173795E+03  0.29862105266E+03  0.00000000000E+00 0.  1.
          1    1    3    3  501    0  0.24758484438E+03  0.24391874511E+00 -0.74723414086E+03  0.78718306379E+03  0.00000000000E+00 0.  1.
         21    1    1    2  502  501 -0.70976366293E-05  0.81679141135E-05  0.99867549091E-05  0.14725031080E-04  0.00000000000E+00 0. -1.
<mgrwt>
<rscale>  1 0.58584680E+03</rscale>
<asrwt>0</asrwt>
<pdfrwt beam="1">  1        1 0.31201568E+00 0.58584680E+03</pdfrwt>
<pdfrwt beam="2">0</pdfrwt>
<totfact> 0.32827779E+00</totfact>
</mgrwt>
</event>
<event>
 6    1  0.2220303E-003  0.5556359E+03  0.7818608E-02  0.1000198E+00
          1   -1    0    0  502    0  0.00000000000E+00  0.00000000000E+00  0.77182917055E+02  0.77182917055E+02  0.00000000000E+00 0.  1.
         13   -1    0    0    0    0 -0.00000000000E+00 -0.00000000000E+00 -0.10000000000E+04  0.10000000000E+04  0.00000000000E+00 0.  1.
    9000005    2    1    2  501    0 -0.32406250625E-05 -0.58505298441E-04 -0.92281718512E+03  0.10771827993E+04  0.55563587527E+03 0.  0.
         13    1    3    3    0    0  0.95506476113E+02 -0.10139119050E+03 -0.92741538128E+03  0.93781711966E+03  0.00000000000E+00 0.  1.
          1    1    3    3  501    0 -0.95506479354E+02  0.10139113200E+03  0.45981961541E+01  0.13936567961E+03  0.00000000000E+00 0.  1.
         21    1    1    2  502  501  0.32406250553E-05  0.58505298434E-04  0.10217761277E-03  0.11778640052E-03  0.00000000000E+00 0. -1.
<mgrwt>
<rscale>  1 0.55563588E+03</rscale>
<asrwt>0</asrwt>
<pdfrwt beam="1">  1        1 0.28066574E+00 0.55563588E+03</pdfrwt>
<pdfrwt beam="2">0</pdfrwt>
<totfact> 0.45061763E+00</totfact>
</mgrwt>
</event>
<event>
 6    1  0.2220303E-003  0.6487798E+03  0.7818608E-02  0.9809072E-01
          1   -1    0    0  502    0  0.00000000000E+00  0.00000000000E+00  0.10522890095E+03  0.10522890095E+03  0.00000000000E+00 0.  1.
         13   -1    0    0    0    0 -0.00000000000E+00 -0.00000000000E+00 -0.10000000000E+04  0.10000000000E+04  0.00000000000E+00 0.  1.
    9000005    2    1    2  501    0  0.42099039618E-04  0.17195006379E-04 -0.89477118921E+03  0.11052288000E+04  0.64877979257E+03 0.  0.
         13    1    3    3    0    0  0.11779958558E+03  0.10436117678E+03  0.35836826178E+02  0.16140717361E+03  0.00000000000E+00 0.  1.
          1    1    3    3  501    0 -0.11779954348E+03 -0.10436115959E+03 -0.93060801539E+03  0.94382162636E+03  0.00000000000E+00 0.  1.
         21    1    1    2  502  501 -0.42099039609E-04 -0.17195006381E-04  0.90163984572E-04  0.10098287723E-03  0.00000000000E+00 0.  1.
<mgrwt>
<rscale>  1 0.64877979E+03</rscale>
<asrwt>0</asrwt>
<pdfrwt beam="1">  1        1 0.38265136E+00 0.64877979E+03</pdfrwt>
<pdfrwt beam="2">0</pdfrwt>
<totfact> 0.15976896E+00</totfact>
</mgrwt>
</event>
<event>
 6    1  0.2220303E-003  0.6462940E+03  0.7818608E-02  0.9813758E-01
          1   -1    0    0  502    0  0.00000000000E+00  0.00000000000E+00  0.10442406994E+03  0.10442406994E+03  0.00000000000E+00 0.  1.
         13   -1    0    0    0    0 -0.00000000000E+00 -0.00000000000E+00 -0.10000000000E+04  0.10000000000E+04  0.00000000000E+00 0.  1.
    9000005    2    1    2  501    0 -0.13747925095E-04  0.27232662561E-04 -0.89557602585E+03  0.11044239694E+04  0.64629396263E+03 0.  0.
         13    1    3    3    0    0 -0.96333619310E+02  0.97069206651E+02 -0.94811082514E+03  0.95792313566E+03  0.00000000000E+00 0.  1.
          3    1    3    3  501    0  0.96333605562E+02 -0.97069179418E+02  0.52534799287E+02  0.14650083375E+03  0.00000000000E+00 0.  1.
         21    1    1    2  502  501  0.13747925092E-04 -0.27232662566E-04  0.95788170838E-04  0.10052858811E-03  0.00000000000E+00 0.  1.
<mgrwt>
<rscale>  1 0.64629396E+03</rscale>
<asrwt>0</asrwt>
<pdfrwt beam="1">  1        1 0.37972469E+00 0.64629396E+03</pdfrwt>
<pdfrwt beam="2">0</pdfrwt>
<totfact> 0.16466896E+00</totfact>
</mgrwt>
</event>
<event>
 6    1  0.2220303E-003  0.6436530E+03  0.7818608E-02  0.9818762E-01
          1   -1    0    0  502    0  0.00000000000E+00  0.00000000000E+00  0.11105612186E+03  0.11105612186E+03  0.00000000000E+00 0.  1.
         13   -1    0    0    0    0 -0.00000000000E+00 -0.00000000000E+00 -0.10000000000E+04  0.10000000000E+04  0.00000000000E+00 0.  1.
    9000005    2    1    2  501    0 -0.58977918513E+00 -0.76662035892E+00 -0.89639321163E+03  0.11035442569E+04  0.64365223643E+03 0.  0.
         13    1    3    3    0    0 -0.19192768895E+03  0.44392920608E+02 -0.88495605145E+03  0.90661688831E+03  0.00000000000E+00 0.  1.
          1    1    3    3  501    0  0.19133790976E+03 -0.45159540967E+02 -0.11437160184E+02  0.19692736855E+03  0.00000000000E+00 0.  1.
         21    1    1    2  502  501  0.58977918513E+00  0.76662035892E+00  0.74493334863E+01  0.75118649916E+01  0.00000000000E+00 0.  1.
<mgrwt>
<rscale>  1 0.64365296E+03</rscale>
<asrwt>0</asrwt>
<pdfrwt beam="1">  1        1 0.40384129E+00 0.64365296E+03</pdfrwt>
<pdfrwt beam="2">0</pdfrwt>
<totfact> 0.12876739E+00</totfact>
</mgrwt>
</event>
<event>
 6    1  0.2220303E-003  0.6025755E+03  0.7818608E-02  0.9900077E-01
          1   -1    0    0  502    0  0.00000000000E+00  0.00000000000E+00  0.91166134235E+02  0.91166134235E+02  0.00000000000E+00 0.  1.
         13   -1    0    0    0    0 -0.00000000000E+00 -0.00000000000E+00 -0.10000000000E+04  0.10000000000E+04  0.00000000000E+00 0.  1.
    9000005    2    1    2  501    0  0.71582387108E-03  0.14607329220E-01 -0.90922555581E+03  0.10907741713E+04  0.60257545678E+03 0.  0.
         13    1    3    3    0    0 -0.32440912133E+02  0.27214549338E+03 -0.22807675844E+03  0.35655937807E+03  0.00000000000E+00 0.  1.
          1    1    3    3  501    0  0.32441627957E+02 -0.27213088605E+03 -0.68114879737E+03  0.73421479318E+03  0.00000000000E+00 0.  1.
         21    1    1    2  502  501 -0.71582387108E-03 -0.14607329220E-01  0.39169004910E+00  0.39196298427E+00  0.00000000000E+00 0.  1.
<mgrwt>
<rscale>  1 0.60257546E+03</rscale>
<asrwt>0</asrwt>
<pdfrwt beam="1">  1        1 0.33151391E+00 0.60257546E+03</pdfrwt>
<pdfrwt beam="2">0</pdfrwt>
<totfact> 0.26953826E+00</totfact>
</mgrwt>
</event>
<event>
 6    1  0.2220303E-003  0.6438506E+03  0.7818608E-02  0.9818387E-01
          1   -1    0    0  502    0  0.00000000000E+00  0.00000000000E+00  0.10413235075E+03  0.10413235075E+03  0.00000000000E+00 0.  1.
         13   -1    0    0    0    0 -0.00000000000E+00 -0.00000000000E+00 -0.10000000000E+04  0.10000000000E+04  0.00000000000E+00 0.  1.
    9000005    2    1    2  501    0 -0.23328604423E+00 -0.23048425136E+00 -0.89630362267E+03  0.11035868068E+04  0.64385056387E+03 0.  0.
         13    1    3    3    0    0  0.13837582074E+03  0.58783795173E+02 -0.93583714848E+03  0.94783678491E+03  0.00000000000E+00 0.  1.
          1    1    3    3  501    0 -0.13860910678E+03 -0.59014279424E+02  0.39533525810E+02  0.15575002190E+03  0.00000000000E+00 0.  1.
         21    1    1    2  502  501  0.23328604423E+00  0.23048425136E+00  0.43597342464E+00  0.54554394466E+00  0.00000000000E+00 0.  1.
<mgrwt>
<rscale>  1 0.64385065E+03</rscale>
<asrwt>0</asrwt>
<pdfrwt beam="1">  1        1 0.37866389E+00 0.64385065E+03</pdfrwt>
<pdfrwt beam="2">0</pdfrwt>
<totfact> 0.16652726E+00</totfact>
</mgrwt>
</event>
<event>
 6    1  0.2220303E-003  0.6402704E+03  0.7818608E-02  0.9825209E-01
          1   -1    0    0  502    0  0.00000000000E+00  0.00000000000E+00  0.10266330090E+03  0.10266330090E+03  0.00000000000E+00 0.  1.
         13   -1    0    0    0    0 -0.00000000000E+00 -0.00000000000E+00 -0.10000000000E+04  0.10000000000E+04  0.00000000000E+00 0.  1.
    9000005    2    1    2  501    0 -0.79806231086E-02 -0.45080388368E-01 -0.89751019388E+03  0.11024838674E+04  0.64027035519E+03 0.  0.
         13    1    3    3    0    0 -0.11762253241E+03 -0.11751426388E+03  0.22316228032E+02  0.16775779082E+03  0.00000000000E+00 0.  1.
          3    1    3    3  501    0  0.11761455179E+03  0.11746918349E+03 -0.91982642191E+03  0.93472607662E+03  0.00000000000E+00 0.  1.
         21    1    1    2  502  501  0.79806231086E-02  0.45080388368E-01  0.17349477355E+00  0.17943346458E+00  0.00000000000E+00 0. -1.
<mgrwt>
<rscale>  1 0.64027036E+03</rscale>
<asrwt>0</asrwt>
<pdfrwt beam="1">  1        1 0.37332188E+00 0.64027036E+03</pdfrwt>
<pdfrwt beam="2">0</pdfrwt>
<totfact> 0.17591182E+00</totfact>
</mgrwt>
</event>
<event>
 6    1  0.2220303E-003  0.6541470E+03  0.7818608E-02  0.9799029E-01
          1   -1    0    0  502    0  0.00000000000E+00  0.00000000000E+00  0.10697726152E+03  0.10697726152E+03  0.00000000000E+00 0.  1.
         13   -1    0    0    0    0 -0.00000000000E+00 -0.00000000000E+00 -0.10000000000E+04  0.10000000000E+04  0.00000000000E+00 0.  1.
    9000005    2    1    2  501    0  0.13910449244E-03 -0.10030887864E-03 -0.89302289553E+03  0.11069770290E+04  0.65414696416E+03 0.  0.
         13    1    3    3    0    0  0.29172709962E+02  0.26240465172E+03 -0.11981694564E+03  0.28993680124E+03  0.00000000000E+00 0.  1.
          1    1    3    3  501    0 -0.29172570857E+02 -0.26240475203E+03 -0.77320594990E+03  0.81704022773E+03  0.00000000000E+00 0.  1.
         21    1    1    2  502  501 -0.13910449243E-03  0.10030887865E-03  0.15705001704E-03  0.23254384276E-03  0.00000000000E+00 0. -1.
<mgrwt>
<rscale>  1 0.65414696E+03</rscale>
<asrwt>0</asrwt>
<pdfrwt beam="1">  1        1 0.38900904E+00 0.65414696E+03</pdfrwt>
<pdfrwt beam="2">0</pdfrwt>
<totfact> 0.14959872E+00</totfact>
</mgrwt>
</event>
<event>
 6    1  0.2220303E-003  0.5901857E+03  0.7818608E-02  0.9925979E-01
          1   -1    0    0  502    0  0.00000000000E+00  0.00000000000E+00  0.87080087178E+02  0.87080087178E+02  0.00000000000E+00 0.  1.
         13   -1    0    0    0    0 -0.00000000000E+00 -0.00000000000E+00 -0.10000000000E+04  0.10000000000E+04  0.00000000000E+00 0.  1.
    9000005    2    1    2  501    0 -0.11876072853E-03  0.87836743336E-03 -0.91291768122E+03  0.10870776860E+04  0.59018573577E+03 0.  0.
         13    1    3    3    0    0  0.20977487111E+02 -0.29336631123E+03 -0.50065256823E+03  0.58065208310E+03  0.00000000000E+00 0.  1.
          3    1    3    3  501    0 -0.20977605871E+02  0.29336718960E+03 -0.41226511299E+03  0.50642560290E+03  0.00000000000E+00 0.  1.
         21    1    1    2  502  501  0.11876072853E-03 -0.87836743338E-03 -0.22316006214E-02  0.24011819573E-02  0.00000000000E+00 0. -1.
<mgrwt>
<rscale>  1 0.59018574E+03</rscale>
<asrwt>0</asrwt>
<pdfrwt beam="1">  1        1 0.31665553E+00 0.59018574E+03</pdfrwt>
<pdfrwt beam="2">0</pdfrwt>
<totfact> 0.31322968E+00</totfact>
</mgrwt>
</event>
<event>
 6    1  0.2220303E-003  0.6721360E+03  0.7818608E-02  0.9766107E-01
          1   -1    0    0  502    0  0.00000000000E+00  0.00000000000E+00  0.11302702525E+03  0.11302702525E+03  0.00000000000E+00 0.  1.
         13   -1    0    0    0    0 -0.00000000000E+00 -0.00000000000E+00 -0.10000000000E+04  0.10000000000E+04  0.00000000000E+00 0.  1.
    9000005    2    1    2  501    0  0.29754667298E-02 -0.13205176793E-01 -0.88705769071E+03  0.11129412347E+04  0.67213603161E+03 0.  0.
         13    1    3    3    0    0 -0.29501353963E+03  0.15817710336E+03 -0.39424274730E+03  0.51718500403E+03  0.00000000000E+00 0.  1.
          1    1    3    3  501    0  0.29501651510E+03 -0.15819030854E+03 -0.49281494341E+03  0.59575623064E+03  0.00000000000E+00 0.  1.
         21    1    1    2  502  501 -0.29754667299E-02  0.13205176793E-01  0.84715962340E-01  0.85790584399E-01  0.00000000000E+00 0.  1.
<mgrwt>
<rscale>  1 0.67213603E+03</rscale>
<asrwt>0</asrwt>
<pdfrwt beam="1">  1        1 0.41100823E+00 0.67213603E+03</pdfrwt>
<pdfrwt beam="2">0</pdfrwt>
<totfact> 0.11894751E+00</totfact>
</mgrwt>
</event>
<event>
 6    1  0.2220303E-003  0.6725639E+03  0.7818608E-02  0.9765337E-01
          1   -1    0    0  502    0  0.00000000000E+00  0.00000000000E+00  0.11308581117E+03  0.11308581117E+03  0.00000000000E+00 0.  1.
         13   -1    0    0    0    0 -0.00000000000E+00 -0.00000000000E+00 -0.10000000000E+04  0.10000000000E+04  0.00000000000E+00 0.  1.
    9000005    2    1    2  501    0 -0.23357420957E-05  0.72898583539E-04 -0.88691445959E+03  0.11130855308E+04  0.67256385581E+03 0.  0.
         13    1    3    3    0    0 -0.11522748961E+03  0.31300146274E+03 -0.37249959035E+03  0.50000323484E+03  0.00000000000E+00 0.  1.
          1    1    3    3  501    0  0.11522748728E+03 -0.31300138984E+03 -0.51441486925E+03  0.61308229592E+03  0.00000000000E+00 0.  1.
         21    1    1    2  502  501  0.23357420955E-05 -0.72898583531E-04  0.27076640410E-03  0.28041773261E-03  0.00000000000E+00 0.  1.
<mgrwt>
<rscale>  1 0.67256386E+03</rscale>
<asrwt>0</asrwt>
<pdfrwt beam="1">  1        1 0.41122200E+00 0.67256386E+03</pdfrwt>
<pdfrwt beam="2">0</pdfrwt>
<totfact> 0.11867540E+00</totfact>
</mgrwt>
</event>
<event>
 6    1  0.2220303E-003  0.6540809E+03  0.7818608E-02  0.9799152E-01
          1   -1    0    0  502    0  0.00000000000E+00  0.00000000000E+00  0.10698779889E+03  0.10698779889E+03  0.00000000000E+00 0.  1.
         13   -1    0    0    0    0 -0.00000000000E+00 -0.00000000000E+00 -0.10000000000E+04  0.10000000000E+04  0.00000000000E+00 0.  1.
    9000005    2    1    2  501    0 -0.28067547472E-01  0.91870105857E-01 -0.89291671582E+03  0.11068523539E+04  0.65408092980E+03 0.  0.
         13    1    3    3    0    0 -0.96263777011E+02  0.15062762183E+03 -0.90997918390E+03  0.92737129045E+03  0.00000000000E+00 0.  1.
          1    1    3    3  501    0  0.96235709463E+02 -0.15053575172E+03  0.17062468076E+02  0.17948106346E+03  0.00000000000E+00 0.  1.
         21    1    1    2  502  501  0.28067547472E-01 -0.91870105857E-01 -0.95485288111E-01  0.13544498447E+00  0.00000000000E+00 0. -1.
<mgrwt>
<rscale>  1 0.65408094E+03</rscale>
<asrwt>0</asrwt>
<pdfrwt beam="1">  1        1 0.38904736E+00 0.65408094E+03</pdfrwt>
<pdfrwt beam="2">0</pdfrwt>
<totfact> 0.14954205E+00</totfact>
</mgrwt>
</event>
<event>
 6    1  0.2220303E-003  0.6294850E+03  0.7818608E-02  0.9846054E-01
          1   -1    0    0  502    0  0.00000000000E+00  0.00000000000E+00  0.99143983670E+02  0.99143983670E+02  0.00000000000E+00 0.  1.
         13   -1    0    0    0    0 -0.00000000000E+00 -0.00000000000E+00 -0.10000000000E+04  0.10000000000E+04  0.00000000000E+00 0.  1.
    9000005    2    1    2  501    0 -0.69634657783E-02 -0.41475891453E-02 -0.90093693505E+03  0.10990626600E+04  0.62948500355E+03 0.  0.
         13    1    3    3    0    0  0.29802499611E+03 -0.83496839065E+02 -0.55031352648E+03  0.63137595604E+03  0.00000000000E+00 0.  1.
          1    1    3    3  501    0 -0.29803195958E+03  0.83492691475E+02 -0.35062340858E+03  0.46768670400E+03  0.00000000000E+00 0.  1.
         21    1    1    2  502  501  0.69634657783E-02  0.41475891453E-02  0.80918724228E-01  0.81323626838E-01  0.00000000000E+00 0. -1.
<mgrwt>
<rscale>  1 0.62948500E+03</rscale>
<asrwt>0</asrwt>
<pdfrwt beam="1">  1        1 0.36052434E+00 0.62948500E+03</pdfrwt>
<pdfrwt beam="2">0</pdfrwt>
<totfact> 0.20057494E+00</totfact>
</mgrwt>
</event>
<event>
 6    1  0.2220303E-003  0.6585613E+03  0.7818608E-02  0.9790846E-01
          1   -1    0    0  502    0  0.00000000000E+00  0.00000000000E+00  0.11761386376E+03  0.11761386376E+03  0.00000000000E+00 0.  1.
         13   -1    0    0    0    0 -0.00000000000E+00 -0.00000000000E+00 -0.10000000000E+04  0.10000000000E+04  0.00000000000E+00 0.  1.
    9000005    2    1    2  501    0 -0.70083348394E+01 -0.24159548974E+02 -0.86440920224E+03  0.10866950876E+04  0.65808065153E+03 0.  0.
         13    1    3    3    0    0 -0.19358736455E+03 -0.25594109145E+03 -0.26000246489E+03  0.41301718094E+03  0.00000000000E+00 0.  1.
          1    1    3    3  501    0  0.18657902971E+03  0.23178154248E+03 -0.60440673736E+03  0.67367790666E+03  0.00000000000E+00 0.  1.
         21    1    1    2  502  501  0.70083348394E+01  0.24159548974E+02 -0.17976933993E+02  0.30918776167E+02  0.00000000000E+00 0.  1.
<mgrwt>
<rscale>  1 0.65856127E+03</rscale>
<asrwt>0</asrwt>
<pdfrwt beam="1">  1        1 0.42768768E+00 0.65856127E+03</pdfrwt>
<pdfrwt beam="2">0</pdfrwt>
<totfact> 0.10029017E+00</totfact>
</mgrwt>
</event>
<event>
 6    1  0.2220303E-003  0.6514824E+03  0.7818608E-02  0.9804001E-01
          1   -1    0    0  502    0  0.00000000000E+00  0.00000000000E+00  0.10610955683E+03  0.10610955683E+03  0.00000000000E+00 0.  1.
         13   -1    0    0    0    0 -0.00000000000E+00 -0.00000000000E+00 -0.10000000000E+04  0.10000000000E+04  0.00000000000E+00 0.  1.
    9000005    2    1    2  501    0 -0.18816109474E-04 -0.11112377159E-03 -0.89389265606E+03  0.11061073411E+04  0.65148243983E+03 0.  0.
         13    1    3    3    0    0 -0.40374931964E+02 -0.70532340172E+02  0.88617619960E+02  0.12024154319E+03  0.00000000000E+00 0.  1.
          3    1    3    3  501    0  0.40374913148E+02  0.70532229048E+02 -0.98251027602E+03  0.98586579788E+03  0.00000000000E+00 0.  1.
         21    1    1    2  502  501  0.18816109474E-04  0.11112377159E-03  0.22128912933E-02  0.22157595571E-02  0.00000000000E+00 0.  1.
<mgrwt>
<rscale>  1 0.65148244E+03</rscale>
<asrwt>0</asrwt>
<pdfrwt beam="1">  1        1 0.38585375E+00 0.65148244E+03</pdfrwt>
<pdfrwt beam="2">0</pdfrwt>
<totfact> 0.15456679E+00</totfact>
</mgrwt>
</event>
<event>
 6    1  0.2220303E-003  0.6497917E+03  0.7818608E-02  0.9807170E-01
          1   -1    0    0  502    0  0.00000000000E+00  0.00000000000E+00  0.11062465900E+03  0.11062465900E+03  0.00000000000E+00 0.  1.
         13   -1    0    0    0    0 -0.00000000000E+00 -0.00000000000E+00 -0.10000000000E+04  0.10000000000E+04  0.00000000000E+00 0.  1.
    9000005    2    1    2  501    0 -0.16229180596E+00  0.44145857616E-01 -0.89444113686E+03  0.11055560719E+04  0.64979169935E+03 0.  0.
         13    1    3    3    0    0  0.12308611412E+03  0.24535463057E+03 -0.74286855504E+03  0.79196134773E+03  0.00000000000E+00 0.  1.
          3    1    3    3  501    0 -0.12324840593E+03 -0.24531048471E+03 -0.15157258181E+03  0.31359472417E+03  0.00000000000E+00 0.  1.
         21    1    1    2  502  501  0.16229180596E+00 -0.44145857616E-01  0.50657958516E+01  0.50685870908E+01  0.00000000000E+00 0. -1.
<mgrwt>
<rscale>  1 0.64979172E+03</rscale>
<asrwt>0</asrwt>
<pdfrwt beam="1">  1        1 0.40227234E+00 0.64979172E+03</pdfrwt>
<pdfrwt beam="2">0</pdfrwt>
<totfact> 0.13070658E+00</totfact>
</mgrwt>
</event>
<event>
 6    1  0.2220303E-003  0.6556578E+03  0.7818608E-02  0.9796220E-01
          1   -1    0    0  502    0  0.00000000000E+00  0.00000000000E+00  0.10747272327E+03  0.10747272327E+03  0.00000000000E+00 0.  1.
         13   -1    0    0    0    0 -0.00000000000E+00 -0.00000000000E+00 -0.10000000000E+04  0.10000000000E+04  0.00000000000E+00 0.  1.
    9000005    2    1    2  501    0 -0.62228831098E-03  0.47389165185E-03 -0.89252802327E+03  0.11074716420E+04  0.65565781130E+03 0.  0.
         13    1    3    3    0    0  0.28144675153E+03 -0.88174342104E+02 -0.20451217708E+03  0.35890419213E+03  0.00000000000E+00 0.  1.
          3    1    3    3  501    0 -0.28144737382E+03  0.88174815996E+02 -0.68801584619E+03  0.74856744987E+03  0.00000000000E+00 0.  1.
         21    1    1    2  502  501  0.62228831098E-03 -0.47389165186E-03  0.74654067579E-03  0.10812673214E-02  0.00000000000E+00 0. -1.
<mgrwt>
<rscale>  1 0.65565781E+03</rscale>
<asrwt>0</asrwt>
<pdfrwt beam="1">  1        1 0.39081073E+00 0.65565781E+03</pdfrwt>
<pdfrwt beam="2">0</pdfrwt>
<totfact> 0.14683057E+00</totfact>
</mgrwt>
</event>
<event>
 6    1  0.2220303E-003  0.6536142E+03  0.7818608E-02  0.9800021E-01
          1   -1    0    0  502    0  0.00000000000E+00  0.00000000000E+00  0.10680310194E+03  0.10680310194E+03  0.00000000000E+00 0.  1.
         13   -1    0    0    0    0 -0.00000000000E+00 -0.00000000000E+00 -0.10000000000E+04  0.10000000000E+04  0.00000000000E+00 0.  1.
    9000005    2    1    2  501    0  0.47065475698E-04 -0.77797573152E-04 -0.89319709852E+03  0.11068028818E+04  0.65361423057E+03 0.  0.
         13    1    3    3    0    0  0.11210014415E+03 -0.19539711739E+02 -0.96537075785E+03  0.97205398141E+03  0.00000000000E+00 0.  1.
          3    1    3    3  501    0 -0.11210009709E+03  0.19539633942E+02  0.72173659332E+02  0.13474890041E+03  0.00000000000E+00 0.  1.
         21    1    1    2  502  501 -0.47065475697E-04  0.77797573149E-04  0.20045775293E-03  0.22011572434E-03  0.00000000000E+00 0. -1.
<mgrwt>
<rscale>  1 0.65361423E+03</rscale>
<asrwt>0</asrwt>
<pdfrwt beam="1">  1        1 0.38837574E+00 0.65361423E+03</pdfrwt>
<pdfrwt beam="2">0</pdfrwt>
<totfact> 0.15058349E+00</totfact>
</mgrwt>
</event>
<event>
 6    1  0.2220303E-003  0.6475633E+03  0.7818608E-02  0.9811362E-01
          1   -1    0    0  502    0  0.00000000000E+00  0.00000000000E+00  0.10492704775E+03  0.10492704775E+03  0.00000000000E+00 0.  1.
         13   -1    0    0    0    0 -0.00000000000E+00 -0.00000000000E+00 -0.10000000000E+04  0.10000000000E+04  0.00000000000E+00 0.  1.
    9000005    2    1    2  501    0  0.22101216184E+00  0.27673087553E-01 -0.89498327048E+03  0.11046869332E+04  0.64756321417E+03 0.  0.
         13    1    3    3    0    0 -0.25548647647E+03 -0.18095993220E+03 -0.58754886228E+03  0.66575784057E+03  0.00000000000E+00 0.  1.
          3    1    3    3  501    0  0.25570748864E+03  0.18098760529E+03 -0.30743440821E+03  0.43892909263E+03  0.00000000000E+00 0.  1.
         21    1    1    2  502  501 -0.22101216184E+00 -0.27673087553E-01 -0.89681764242E-01  0.24011454411E+00  0.00000000000E+00 0. -1.
<mgrwt>
<rscale>  1 0.64756325E+03</rscale>
<asrwt>0</asrwt>
<pdfrwt beam="1">  1        1 0.38155371E+00 0.64756325E+03</pdfrwt>
<pdfrwt beam="2">0</pdfrwt>
<totfact> 0.16159867E+00</totfact>
</mgrwt>
</event>
<event>
 6    1  0.2220303E-003  0.6275514E+03  0.7818608E-02  0.9849839E-01
          1   -1    0    0  502    0  0.00000000000E+00  0.00000000000E+00  0.99109975918E+02  0.99109975918E+02  0.00000000000E+00 0.  1.
         13   -1    0    0    0    0 -0.00000000000E+00 -0.00000000000E+00 -0.10000000000E+04  0.10000000000E+04  0.00000000000E+00 0.  1.
    9000005    2    1    2  501    0  0.13000894999E+00 -0.50760732094E+00 -0.90142778088E+03  0.10983591431E+04  0.62755118402E+03 0.  0.
         13    1    3    3    0    0 -0.40829670142E+02 -0.40794949160E+02 -0.99060084384E+03  0.99228086833E+03  0.00000000000E+00 0.  1.
          3    1    3    3  501    0  0.40959679092E+02  0.40287341839E+02  0.89173062962E+02  0.10607827479E+03  0.00000000000E+00 0.  1.
         21    1    1    2  502  501 -0.13000894999E+00  0.50760732094E+00  0.53775679570E+00  0.75083279808E+00  0.00000000000E+00 0.  1.
<mgrwt>
<rscale>  1 0.62755140E+03</rscale>
<asrwt>0</asrwt>
<pdfrwt beam="1">  1        1 0.36040067E+00 0.62755140E+03</pdfrwt>
<pdfrwt beam="2">0</pdfrwt>
<totfact> 0.20089514E+00</totfact>
</mgrwt>
</event>
<event>
 6    1  0.2220303E-003  0.6779779E+03  0.7818608E-02  0.9755652E-01
          1   -1    0    0  502    0  0.00000000000E+00  0.00000000000E+00  0.11491365821E+03  0.11491365821E+03  0.00000000000E+00 0.  1.
         13   -1    0    0    0    0 -0.00000000000E+00 -0.00000000000E+00 -0.10000000000E+04  0.10000000000E+04  0.00000000000E+00 0.  1.
    9000005    2    1    2  501    0  0.89287865450E-04 -0.82754917869E-05 -0.88508647679E+03  0.11149134961E+04  0.67797789970E+03 0.  0.
         13    1    3    3    0    0  0.22086223887E+03 -0.37937690046E+02 -0.24271965442E+02  0.22540746481E+03  0.00000000000E+00 0.  1.
          3    1    3    3  501    0 -0.22086214959E+03  0.37937681770E+02 -0.86081451135E+03  0.88950603133E+03  0.00000000000E+00 0.  1.
         21    1    1    2  502  501 -0.89287865458E-04  0.82754917851E-05  0.13500152179E-03  0.16206855823E-03  0.00000000000E+00 0.  1.
<mgrwt>
<rscale>  1 0.67797790E+03</rscale>
<asrwt>0</asrwt>
<pdfrwt beam="1">  1        1 0.41786873E+00 0.67797790E+03</pdfrwt>
<pdfrwt beam="2">0</pdfrwt>
<totfact> 0.11066575E+00</totfact>
</mgrwt>
</event>
<event>
 6    1  0.2220303E-003  0.6480151E+03  0.7818608E-02  0.9810511E-01
          1   -1    0    0  502    0  0.00000000000E+00  0.00000000000E+00  0.10498096163E+03  0.10498096163E+03  0.00000000000E+00 0.  1.
         13   -1    0    0    0    0 -0.00000000000E+00 -0.00000000000E+00 -0.10000000000E+04  0.10000000000E+04  0.00000000000E+00 0.  1.
    9000005    2    1    2  501    0  0.10259827178E-04 -0.19801922292E-04 -0.89501909493E+03  0.11049809008E+04  0.64801513170E+03 0.  0.
         13    1    3    3    0    0 -0.22310182277E+03  0.52656218662E+01 -0.46960632372E+02  0.22805142203E+03  0.00000000000E+00 0.  1.
          1    1    3    3  501    0  0.22310183303E+03 -0.52656416681E+01 -0.84805846256E+03  0.87692947881E+03  0.00000000000E+00 0.  1.
         21    1    1    2  502  501 -0.10259827178E-04  0.19801922292E-04  0.56556360299E-04  0.60794753642E-04  0.00000000000E+00 0.  1.
<mgrwt>
<rscale>  1 0.64801513E+03</rscale>
<asrwt>0</asrwt>
<pdfrwt beam="1">  1        1 0.38174976E+00 0.64801513E+03</pdfrwt>
<pdfrwt beam="2">0</pdfrwt>
<totfact> 0.16126345E+00</totfact>
</mgrwt>
</event>
<event>
 6    1  0.2220303E-003  0.6623527E+03  0.7818608E-02  0.9783872E-01
          1   -1    0    0  502    0  0.00000000000E+00  0.00000000000E+00  0.10989224723E+03  0.10989224723E+03  0.00000000000E+00 0.  1.
         13   -1    0    0    0    0 -0.00000000000E+00 -0.00000000000E+00 -0.10000000000E+04  0.10000000000E+04  0.00000000000E+00 0.  1.
    9000005    2    1    2  501    0  0.12259953097E-01 -0.10149294899E+00 -0.89030861436E+03  0.11096668664E+04  0.66235271210E+03 0.  0.
         13    1    3    3    0    0  0.32174367522E+03  0.77876469383E+02 -0.42924552926E+03  0.54206591981E+03  0.00000000000E+00 0.  1.
          1    1    3    3  501    0 -0.32173141527E+03 -0.77977962332E+02 -0.46106308510E+03  0.56760094663E+03  0.00000000000E+00 0.  1.
         21    1    1    2  502  501 -0.12259953097E-01  0.10149294899E+00  0.20086159074E+00  0.22538079727E+00  0.00000000000E+00 0.  1.
<mgrwt>
<rscale>  1 0.66235272E+03</rscale>
<asrwt>0</asrwt>
<pdfrwt beam="1">  1        1 0.39960901E+00 0.66235272E+03</pdfrwt>
<pdfrwt beam="2">0</pdfrwt>
<totfact> 0.13401259E+00</totfact>
</mgrwt>
</event>
<event>
 6    1  0.2220303E-003  0.6349874E+03  0.7818608E-02  0.9835364E-01
          1   -1    0    0  502    0  0.00000000000E+00  0.00000000000E+00  0.10080889401E+03  0.10080889401E+03  0.00000000000E+00 0.  1.
         13   -1    0    0    0    0 -0.00000000000E+00 -0.00000000000E+00 -0.10000000000E+04  0.10000000000E+04  0.00000000000E+00 0.  1.
    9000005    2    1    2  501    0 -0.19455064762E-03  0.51692427419E-04 -0.89919774507E+03  0.11008022519E+04  0.63498741169E+03 0.  0.
         13    1    3    3    0    0 -0.30061102917E+03 -0.78268759739E+02 -0.56340062047E+03  0.64336090086E+03  0.00000000000E+00 0.  1.
          3    1    3    3  501    0  0.30061083462E+03  0.78268811432E+02 -0.33579712460E+03  0.45744135102E+03  0.00000000000E+00 0.  1.
         21    1    1    2  502  501  0.19455064762E-03 -0.51692427432E-04  0.66390762696E-02  0.66421273531E-02  0.00000000000E+00 0.  1.
<mgrwt>
<rscale>  1 0.63498741E+03</rscale>
<asrwt>0</asrwt>
<pdfrwt beam="1">  1        1 0.36657857E+00 0.63498741E+03</pdfrwt>
<pdfrwt beam="2">0</pdfrwt>
<totfact> 0.18850720E+00</totfact>
</mgrwt>
</event>
<event>
 6    1  0.2220303E-003  0.6602360E+03  0.7818608E-02  0.9787759E-01
          1   -1    0    0  502    0  0.00000000000E+00  0.00000000000E+00  0.10897818798E+03  0.10897818798E+03  0.00000000000E+00 0.  1.
         13   -1    0    0    0    0 -0.00000000000E+00 -0.00000000000E+00 -0.10000000000E+04  0.10000000000E+04  0.00000000000E+00 0.  1.
    9000005    2    1    2  501    0 -0.30789495548E-03  0.10544989945E-03 -0.89102201281E+03  0.11089778056E+04  0.66023597746E+03 0.  0.
         13    1    3    3    0    0  0.20801125819E+03  0.13436369068E+03 -0.81218516026E+03  0.84909776790E+03  0.00000000000E+00 0.  1.
          1    1    3    3  501    0 -0.20801156608E+03 -0.13436358523E+03 -0.78836852551E+02  0.25988003767E+03  0.00000000000E+00 0.  1.
         21    1    1    2  502  501  0.30789495547E-03 -0.10544989944E-03  0.20079753488E-03  0.38241160404E-03  0.00000000000E+00 0. -1.
<mgrwt>
<rscale>  1 0.66023598E+03</rscale>
<asrwt>0</asrwt>
<pdfrwt beam="1">  1        1 0.39628516E+00 0.66023598E+03</pdfrwt>
<pdfrwt beam="2">0</pdfrwt>
<totfact> 0.13871459E+00</totfact>
</mgrwt>
</event>
<event>
 6    1  0.2220303E-003  0.6530973E+03  0.7818608E-02  0.9800985E-01
          1   -1    0    0  502    0  0.00000000000E+00  0.00000000000E+00  0.10664043973E+03  0.10664043973E+03  0.00000000000E+00 0.  1.
         13   -1    0    0    0    0 -0.00000000000E+00 -0.00000000000E+00 -0.10000000000E+04  0.10000000000E+04  0.00000000000E+00 0.  1.
    9000005    2    1    2  501    0 -0.32968768465E-02  0.30861043216E-02 -0.89336508843E+03  0.11066333015E+04  0.65309729963E+03 0.  0.
         13    1    3    3    0    0  0.24133499915E+03 -0.85438038575E+01 -0.81913994458E+03  0.85399404401E+03  0.00000000000E+00 0.  1.
          3    1    3    3  501    0 -0.24133829603E+03  0.85468899618E+01 -0.74225143857E+02  0.25263925751E+03  0.00000000000E+00 0.  1.
         21    1    1    2  502  501  0.32968768465E-02 -0.30861043216E-02  0.55281672833E-02  0.71382119846E-02  0.00000000000E+00 0.  1.
<mgrwt>
<rscale>  1 0.65309730E+03</rscale>
<asrwt>0</asrwt>
<pdfrwt beam="1">  1        1 0.38778423E+00 0.65309730E+03</pdfrwt>
<pdfrwt beam="2">0</pdfrwt>
<totfact> 0.15150936E+00</totfact>
</mgrwt>
</event>
<event>
 6    1  0.2220303E-003  0.6527168E+03  0.7818608E-02  0.9801695E-01
          1   -1    0    0  502    0  0.00000000000E+00  0.00000000000E+00  0.10651009497E+03  0.10651009497E+03  0.00000000000E+00 0.  1.
         13   -1    0    0    0    0 -0.00000000000E+00 -0.00000000000E+00 -0.10000000000E+04  0.10000000000E+04  0.00000000000E+00 0.  1.
    9000005    2    1    2  501    0  0.30176141621E-04  0.85996348417E-04 -0.89349017381E+03  0.11065098112E+04  0.65271683868E+03 0.  0.
         13    1    3    3    0    0  0.12771399438E+03  0.15441259366E+03 -0.10058749166E+02  0.20063721458E+03  0.00000000000E+00 0.  1.
          3    1    3    3  501    0 -0.12771396420E+03 -0.15441250767E+03 -0.88343142464E+03  0.90587259657E+03  0.00000000000E+00 0.  1.
         21    1    1    2  502  501 -0.30176141614E-04 -0.85996348433E-04  0.26877699895E-03  0.28380811586E-03  0.00000000000E+00 0. -1.
<mgrwt>
<rscale>  1 0.65271684E+03</rscale>
<asrwt>0</asrwt>
<pdfrwt beam="1">  1        1 0.38731025E+00 0.65271684E+03</pdfrwt>
<pdfrwt beam="2">0</pdfrwt>
<totfact> 0.15225422E+00</totfact>
</mgrwt>
</event>
<event>
 6    1  0.2220303E-003  0.6462021E+03  0.7818608E-02  0.9813932E-01
          1   -1    0    0  502    0  0.00000000000E+00  0.00000000000E+00  0.10451697540E+03  0.10451697540E+03  0.00000000000E+00 0.  1.
         13   -1    0    0    0    0 -0.00000000000E+00 -0.00000000000E+00 -0.10000000000E+04  0.10000000000E+04  0.00000000000E+00 0.  1.
    9000005    2    1    2  501    0 -0.34032736559E-02 -0.10862150271E-03 -0.89560568472E+03  0.11043942680E+04  0.64620210209E+03 0.  0.
         13    1    3    3    0    0  0.22968341740E+03 -0.13047224171E+02 -0.83552975979E+03  0.86662257170E+03  0.00000000000E+00 0.  1.
          3    1    3    3  501    0 -0.22968682068E+03  0.13047115550E+02 -0.60075924927E+02  0.23777169632E+03  0.00000000000E+00 0.  1.
         21    1    1    2  502  501  0.34032736559E-02  0.10862150271E-03  0.12266012284E+00  0.12270737470E+00  0.00000000000E+00 0.  1.
<mgrwt>
<rscale>  1 0.64620210E+03</rscale>
<asrwt>0</asrwt>
<pdfrwt beam="1">  1        1 0.38006253E+00 0.64620210E+03</pdfrwt>
<pdfrwt beam="2">0</pdfrwt>
<totfact> 0.16410754E+00</totfact>
</mgrwt>
</event>
<event>
 6    1  0.2220303E-003  0.5724810E+03  0.7818608E-02  0.9964204E-01
          1   -1    0    0  502    0  0.00000000000E+00  0.00000000000E+00  0.81935554604E+02  0.81935554604E+02  0.00000000000E+00 0.  1.
         13   -1    0    0    0    0 -0.00000000000E+00 -0.00000000000E+00 -0.10000000000E+04  0.10000000000E+04  0.00000000000E+00 0.  1.
    9000005    2    1    2  501    0 -0.78999400898E-04  0.69813747864E-04 -0.91806638597E+03  0.10819336112E+04  0.57248096031E+03 0.  0.
         13    1    3    3    0    0  0.28029566997E+03 -0.57361617970E+02 -0.44238817741E+03  0.52684278237E+03  0.00000000000E+00 0.  1.
          3    1    3    3  501    0 -0.28029574897E+03  0.57361687784E+02 -0.47567820856E+03  0.55509082880E+03  0.00000000000E+00 0.  1.
         21    1    1    2  502  501  0.78999400874E-04 -0.69813747863E-04  0.19405768958E-02  0.19434385901E-02  0.00000000000E+00 0.  1.
<mgrwt>
<rscale>  1 0.57248096E+03</rscale>
<asrwt>0</asrwt>
<pdfrwt beam="1">  1        1 0.29794810E+00 0.57248096E+03</pdfrwt>
<pdfrwt beam="2">0</pdfrwt>
<totfact> 0.37842018E+00</totfact>
</mgrwt>
</event>
<event>
 6    1  0.2220303E-003  0.6560876E+03  0.7818608E-02  0.9795423E-01
          1   -1    0    0  502    0  0.00000000000E+00  0.00000000000E+00  0.10761412910E+03  0.10761412910E+03  0.00000000000E+00 0.  1.
         13   -1    0    0    0    0 -0.00000000000E+00 -0.00000000000E+00 -0.10000000000E+04  0.10000000000E+04  0.00000000000E+00 0.  1.
    9000005    2    1    2  501    0 -0.49793216135E-04  0.37519384489E-03 -0.89238724649E+03  0.11076127024E+04  0.65608757097E+03 0.  0.
         13    1    3    3    0    0 -0.15585825415E+03 -0.28627667367E+03 -0.38378684241E+03  0.50352603675E+03  0.00000000000E+00 0.  1.
          3    1    3    3  501    0  0.15585820435E+03  0.28627704886E+03 -0.50860040408E+03  0.60408666564E+03  0.00000000000E+00 0.  1.
         21    1    1    2  502  501  0.49793216134E-04 -0.37519384491E-03  0.13755988570E-02  0.14267172113E-02  0.00000000000E+00 0. -1.
<mgrwt>
<rscale>  1 0.65608757E+03</rscale>
<asrwt>0</asrwt>
<pdfrwt beam="1">  1        1 0.39132493E+00 0.65608757E+03</pdfrwt>
<pdfrwt beam="2">0</pdfrwt>
<totfact> 0.14604953E+00</totfact>
</mgrwt>
</event>
<event>
 6    1  0.2220303E-003  0.6388999E+03  0.7818608E-02  0.9827834E-01
          1   -1    0    0  502    0  0.00000000000E+00  0.00000000000E+00  0.10410622582E+03  0.10410622582E+03  0.00000000000E+00 0.  1.
         13   -1    0    0    0    0 -0.00000000000E+00 -0.00000000000E+00 -0.10000000000E+04  0.10000000000E+04  0.00000000000E+00 0.  1.
    9000005    2    1    2  501    0  0.74086490749E+00 -0.74524346917E+00 -0.89780290957E+03  0.11019269905E+04  0.63889899335E+03 0.  0.
         13    1    3    3    0    0 -0.15097953236E+03 -0.71138162432E+02 -0.91836968575E+03  0.93341220104E+03  0.00000000000E+00 0.  1.
          3    1    3    3  501    0  0.15172039726E+03  0.70392918963E+02  0.20566776182E+02  0.16851478946E+03  0.00000000000E+00 0.  1.
         21    1    1    2  502  501 -0.74086490749E+00  0.74524346917E+00  0.19091353897E+01  0.21792353190E+01  0.00000000000E+00 0.  1.
<mgrwt>
<rscale>  1 0.63889986E+03</rscale>
<asrwt>0</asrwt>
<pdfrwt beam="1">  1        1 0.37856889E+00 0.63889986E+03</pdfrwt>
<pdfrwt beam="2">0</pdfrwt>
<totfact> 0.16684028E+00</totfact>
</mgrwt>
</event>
<event>
 6    1  0.2220303E-003  0.5341011E+03  0.7818608E-02  0.1005242E+00
          1   -1    0    0  502    0  0.00000000000E+00  0.00000000000E+00  0.71319926354E+02  0.71319926354E+02  0.00000000000E+00 0.  1.
         13   -1    0    0    0    0 -0.00000000000E+00 -0.00000000000E+00 -0.10000000000E+04  0.10000000000E+04  0.00000000000E+00 0.  1.
    9000005    2    1    2  501    0  0.89585917375E-02 -0.44300771683E-03 -0.92867788869E+03  0.10713106945E+04  0.53410109828E+03 0.  0.
         13    1    3    3    0    0  0.11996645760E+03 -0.23139507111E+03 -0.34770225991E+03  0.43454860653E+03  0.00000000000E+00 0.  1.
          3    1    3    3  501    0 -0.11995749901E+03  0.23139462810E+03 -0.58097562877E+03  0.63676208800E+03  0.00000000000E+00 0.  1.
         21    1    1    2  502  501 -0.89585917375E-02  0.44300771683E-03 -0.21849589945E-02  0.92318290475E-02  0.00000000000E+00 0.  1.
<mgrwt>
<rscale>  1 0.53410110E+03</rscale>
<asrwt>0</asrwt>
<pdfrwt beam="1">  1        1 0.25934573E+00 0.53410110E+03</pdfrwt>
<pdfrwt beam="2">0</pdfrwt>
<totfact> 0.55926196E+00</totfact>
</mgrwt>
</event>
<event>
 6    1  0.2220303E-003  0.6663145E+03  0.7818608E-02  0.9776639E-01
          1   -1    0    0  502    0  0.00000000000E+00  0.00000000000E+00  0.11125769076E+03  0.11125769076E+03  0.00000000000E+00 0.  1.
         13   -1    0    0    0    0 -0.00000000000E+00 -0.00000000000E+00 -0.10000000000E+04  0.10000000000E+04  0.00000000000E+00 0.  1.
    9000005    2    1    2  501    0  0.63544185699E-02 -0.67956690777E-01 -0.88900134107E+03  0.11109898177E+04  0.66631447975E+03 0.  0.
         13    1    3    3    0    0 -0.16852407599E+03 -0.17300771738E+03 -0.82719025831E+03  0.86172835506E+03  0.00000000000E+00 0.  1.
          1    1    3    3  501    0  0.16853043041E+03  0.17293976069E+03 -0.61811082763E+02  0.24926146264E+03  0.00000000000E+00 0.  1.
         21    1    1    2  502  501 -0.63544185699E-02  0.67956690777E-01  0.25903183197E+00  0.26787306776E+00  0.00000000000E+00 0.  1.
<mgrwt>
<rscale>  1 0.66631448E+03</rscale>
<asrwt>0</asrwt>
<pdfrwt beam="1">  1        1 0.40457427E+00 0.66631448E+03</pdfrwt>
<pdfrwt beam="2">0</pdfrwt>
<totfact> 0.12724911E+00</totfact>
</mgrwt>
</event>
<event>
 6    1  0.2220303E-003  0.6527282E+03  0.7818608E-02  0.9801673E-01
          1   -1    0    0  502    0  0.00000000000E+00  0.00000000000E+00  0.10651355063E+03  0.10651355063E+03  0.00000000000E+00 0.  1.
         13   -1    0    0    0    0 -0.00000000000E+00 -0.00000000000E+00 -0.10000000000E+04  0.10000000000E+04  0.00000000000E+00 0.  1.
    9000005    2    1    2  501    0  0.33491479428E-04 -0.33535964401E-05 -0.89348644491E+03  0.11065135167E+04  0.65272822473E+03 0.  0.
         13    1    3    3    0    0 -0.27800094857E+03  0.36300622808E+01 -0.15698658139E+03  0.31928434270E+03  0.00000000000E+00 0.  1.
          1    1    3    3  501    0  0.27800098206E+03 -0.36300656344E+01 -0.73649986352E+03  0.78722917398E+03  0.00000000000E+00 0.  1.
         21    1    1    2  502  501 -0.33491479419E-04  0.33535964400E-05 -0.44556620888E-05  0.33952595297E-04  0.00000000000E+00 0. -1.
<mgrwt>
<rscale>  1 0.65272822E+03</rscale>
<asrwt>0</asrwt>
<pdfrwt beam="1">  1        1 0.38732282E+00 0.65272822E+03</pdfrwt>
<pdfrwt beam="2">0</pdfrwt>
<totfact> 0.15223439E+00</totfact>
</mgrwt>
</event>
<event>
 6    1  0.2220303E-003  0.6475038E+03  0.7818608E-02  0.9811474E-01
          1   -1    0    0  502    0  0.00000000000E+00  0.00000000000E+00  0.10536019541E+03  0.10536019541E+03  0.00000000000E+00 0.  1.
         13   -1    0    0    0    0 -0.00000000000E+00 -0.00000000000E+00 -0.10000000000E+04  0.10000000000E+04  0.00000000000E+00 0.  1.
    9000005    2    1    2  501    0  0.77781470144E-01 -0.50530518457E-01 -0.89518033231E+03  0.11048117672E+04  0.64750382622E+03 0.  0.
         13    1    3    3    0    0 -0.18198354211E+03 -0.26776003412E+03 -0.44569746202E+03  0.55087173926E+03  0.00000000000E+00 0.  1.
          3    1    3    3  501    0  0.18206132358E+03  0.26770950360E+03 -0.44948287029E+03  0.55394002793E+03  0.00000000000E+00 0.  1.
         21    1    1    2  502  501 -0.77781470144E-01  0.50530518457E-01  0.54052772598E+00  0.54842822041E+00  0.00000000000E+00 0.  1.
<mgrwt>
<rscale>  1 0.64750383E+03</rscale>
<asrwt>0</asrwt>
<pdfrwt beam="1">  1        1 0.38312879E+00 0.64750383E+03</pdfrwt>
<pdfrwt beam="2">0</pdfrwt>
<totfact> 0.15903220E+00</totfact>
</mgrwt>
</event>
<event>
 6    1  0.2220303E-003  0.6530588E+03  0.7818608E-02  0.9801056E-01
          1   -1    0    0  502    0  0.00000000000E+00  0.00000000000E+00  0.10662316598E+03  0.10662316598E+03  0.00000000000E+00 0.  1.
         13   -1    0    0    0    0 -0.00000000000E+00 -0.00000000000E+00 -0.10000000000E+04  0.10000000000E+04  0.00000000000E+00 0.  1.
    9000005    2    1    2  501    0 -0.26178370749E-03  0.35658371718E-03 -0.89337851841E+03  0.11066214245E+04  0.65305880282E+03 0.  0.
         13    1    3    3    0    0  0.23103181482E+03 -0.94051931067E+02 -0.80374621461E+03  0.84156368903E+03  0.00000000000E+00 0.  1.
          1    1    3    3  501    0 -0.23103207660E+03  0.94052287651E+02 -0.89632303799E+02  0.26505773544E+03  0.00000000000E+00 0.  1.
         21    1    1    2  502  501  0.26178370748E-03 -0.35658371718E-03  0.16843863300E-02  0.17415050863E-02  0.00000000000E+00 0.  1.
<mgrwt>
<rscale>  1 0.65305880E+03</rscale>
<asrwt>0</asrwt>
<pdfrwt beam="1">  1        1 0.38772142E+00 0.65305880E+03</pdfrwt>
<pdfrwt beam="2">0</pdfrwt>
<totfact> 0.15160753E+00</totfact>
</mgrwt>
</event>
<event>
 6    1  0.2220303E-003  0.6473834E+03  0.7818608E-02  0.9811701E-01
          1   -1    0    0  502    0  0.00000000000E+00  0.00000000000E+00  0.10621790431E+03  0.10621790431E+03  0.00000000000E+00 0.  1.
         13   -1    0    0    0    0 -0.00000000000E+00 -0.00000000000E+00 -0.10000000000E+04  0.10000000000E+04  0.00000000000E+00 0.  1.
    9000005    2    1    2  501    0  0.11012830687E+01  0.23574013299E+01 -0.89379125665E+03  0.11036159340E+04  0.64737821188E+03 0.  0.
         13    1    3    3    0    0  0.47283497510E+02  0.27544023752E+03 -0.73042584171E+03  0.78206455221E+03  0.00000000000E+00 0.  1.
          1    1    3    3  501    0 -0.46182214441E+02 -0.27308283619E+03 -0.16336541493E+03  0.32155138182E+03  0.00000000000E+00 0.  1.
         21    1    1    2  502  501 -0.11012830687E+01 -0.23574013299E+01  0.91609565408E-02  0.26019702825E+01  0.00000000000E+00 0.  1.
<mgrwt>
<rscale>  1 0.64738344E+03</rscale>
<asrwt>0</asrwt>
<pdfrwt beam="1">  1        1 0.38624774E+00 0.64738344E+03</pdfrwt>
<pdfrwt beam="2">0</pdfrwt>
<totfact> 0.15406446E+00</totfact>
</mgrwt>
</event>
<event>
 6    1  0.2220303E-003  0.6584452E+03  0.7818608E-02  0.9791060E-01
          1   -1    0    0  502    0  0.00000000000E+00  0.00000000000E+00  0.11785024048E+03  0.11785024048E+03  0.00000000000E+00 0.  1.
         13   -1    0    0    0    0 -0.00000000000E+00 -0.00000000000E+00 -0.10000000000E+04  0.10000000000E+04  0.00000000000E+00 0.  1.
    9000005    2    1    2  501    0 -0.74532286622E+00  0.11053580216E+01 -0.89156041184E+03  0.11083456258E+04  0.65844383285E+03 0.  0.
         13    1    3    3    0    0 -0.18829240753E+03 -0.25145717447E+03 -0.28087540020E+03  0.42139735615E+03  0.00000000000E+00 0.  1.
          3    1    3    3  501    0  0.18754708467E+03  0.25256253249E+03 -0.61068501164E+03  0.68694826968E+03  0.00000000000E+00 0.  1.
         21    1    1    2  502  501  0.74532286622E+00 -0.11053580216E+01  0.94106523179E+01  0.95046146465E+01  0.00000000000E+00 0.  1.
<mgrwt>
<rscale>  1 0.65844518E+03</rscale>
<asrwt>0</asrwt>
<pdfrwt beam="1">  1        1 0.42854723E+00 0.65844518E+03</pdfrwt>
<pdfrwt beam="2">0</pdfrwt>
<totfact> 0.99396310E-01</totfact>
</mgrwt>
</event>
<event>
 6    1  0.2220303E-003  0.6521447E+03  0.7818608E-02  0.9802763E-01
          1   -1    0    0  502    0  0.00000000000E+00  0.00000000000E+00  0.10734929138E+03  0.10734929138E+03  0.00000000000E+00 0.  1.
         13   -1    0    0    0    0 -0.00000000000E+00 -0.00000000000E+00 -0.10000000000E+04  0.10000000000E+04  0.00000000000E+00 0.  1.
    9000005    2    1    2  501    0 -0.21332179222E+00  0.88228878373E-01 -0.89366245205E+03  0.11063115461E+04  0.65214462009E+03 0.  0.
         13    1    3    3    0    0  0.92661412978E+01 -0.19927327521E+03 -0.92981311667E+01  0.19970516977E+03  0.00000000000E+00 0.  1.
          1    1    3    3  501    0 -0.94794630900E+01  0.19936150409E+03 -0.88436432088E+03  0.90660637632E+03  0.00000000000E+00 0.  1.
         21    1    1    2  502  501  0.21332179222E+00 -0.88228878373E-01  0.10117434290E+01  0.10377452906E+01  0.00000000000E+00 0.  1.
<mgrwt>
<rscale>  1 0.65214466E+03</rscale>
<asrwt>0</asrwt>
<pdfrwt beam="1">  1        1 0.39036188E+00 0.65214466E+03</pdfrwt>
<pdfrwt beam="2">0</pdfrwt>
<totfact> 0.14760161E+00</totfact>
</mgrwt>
</event>
<event>
 6    1  0.2220303E-003  0.6231788E+03  0.7818608E-02  0.9858451E-01
          1   -1    0    0  502    0  0.00000000000E+00  0.00000000000E+00  0.97449716579E+02  0.97449716579E+02  0.00000000000E+00 0.  1.
         13   -1    0    0    0    0 -0.00000000000E+00 -0.00000000000E+00 -0.10000000000E+04  0.10000000000E+04  0.00000000000E+00 0.  1.
    9000005    2    1    2  501    0 -0.25482578134E+00  0.69132807075E-01 -0.90285847376E+03  0.10970438880E+04  0.62317878567E+03 0.  0.
         13    1    3    3    0    0 -0.17321393512E+03  0.17091242381E+03 -0.79440708098E+03  0.83084098012E+03  0.00000000000E+00 0.  1.
          3    1    3    3  501    0  0.17295910934E+03 -0.17084329100E+03 -0.10845139278E+03  0.26620290791E+03  0.00000000000E+00 0.  1.
         21    1    1    2  502  501  0.25482578134E+00 -0.69132807075E-01  0.30819034256E+00  0.40582854889E+00  0.00000000000E+00 0. -1.
<mgrwt>
<rscale>  1 0.62317884E+03</rscale>
<asrwt>0</asrwt>
<pdfrwt beam="1">  1        1 0.35436335E+00 0.62317884E+03</pdfrwt>
<pdfrwt beam="2">0</pdfrwt>
<totfact> 0.21364268E+00</totfact>
</mgrwt>
</event>
<event>
 6    1  0.2220303E-003  0.6489918E+03  0.7818608E-02  0.9808673E-01
          1   -1    0    0  502    0  0.00000000000E+00  0.00000000000E+00  0.11756627834E+03  0.11756627834E+03  0.00000000000E+00 0.  1.
         13   -1    0    0    0    0 -0.00000000000E+00 -0.00000000000E+00 -0.10000000000E+04  0.10000000000E+04  0.00000000000E+00 0.  1.
    9000005    2    1    2  501    0  0.12258501749E+00  0.12700381662E+02 -0.89095883726E+03  0.11022694709E+04  0.64886749195E+03 0.  0.
         13    1    3    3    0    0  0.84202505919E+02 -0.83333115302E+02  0.66827152686E+02  0.13601594923E+03  0.00000000000E+00 0.  1.
          1    1    3    3  501    0 -0.84079920902E+02  0.96033496964E+02 -0.95778598994E+03  0.96625352169E+03  0.00000000000E+00 0.  1.
         21    1    1    2  502  501 -0.12258501749E+00 -0.12700381662E+02  0.85251156013E+01  0.15296807427E+02  0.00000000000E+00 0. -1.
<mgrwt>
<rscale>  1 0.64899178E+03</rscale>
<asrwt>0</asrwt>
<pdfrwt beam="1">  1        1 0.42751464E+00 0.64899178E+03</pdfrwt>
<pdfrwt beam="2">0</pdfrwt>
<totfact> 0.10066341E+00</totfact>
</mgrwt>
</event>
<event>
 6    1  0.2220303E-003  0.6481500E+03  0.7818608E-02  0.9810257E-01
          1   -1    0    0  502    0  0.00000000000E+00  0.00000000000E+00  0.10502977508E+03  0.10502977508E+03  0.00000000000E+00 0.  1.
         13   -1    0    0    0    0 -0.00000000000E+00 -0.00000000000E+00 -0.10000000000E+04  0.10000000000E+04  0.00000000000E+00 0.  1.
    9000005    2    1    2  501    0 -0.12300774071E-03 -0.12778605995E-02 -0.89497529255E+03  0.11050245474E+04  0.64815004130E+03 0.  0.
         13    1    3    3    0    0  0.25165451516E+03  0.52585111121E+02 -0.78387106352E+03  0.82495395820E+03  0.00000000000E+00 0.  1.
          3    1    3    3  501    0 -0.25165463817E+03 -0.52586388982E+02 -0.11110422902E+03  0.28007058918E+03  0.00000000000E+00 0.  1.
         21    1    1    2  502  501  0.12300774071E-03  0.12778605995E-02  0.50676306663E-02  0.52277087893E-02  0.00000000000E+00 0. -1.
<mgrwt>
<rscale>  1 0.64815004E+03</rscale>
<asrwt>0</asrwt>
<pdfrwt beam="1">  1        1 0.38192726E+00 0.64815004E+03</pdfrwt>
<pdfrwt beam="2">0</pdfrwt>
<totfact> 0.16096864E+00</totfact>
</mgrwt>
</event>
<event>
 6    1  0.2220303E-003  0.6415919E+03  0.7818608E-02  0.9822686E-01
          1   -1    0    0  502    0  0.00000000000E+00  0.00000000000E+00  0.11568576525E+03  0.11568576525E+03  0.00000000000E+00 0.  1.
         13   -1    0    0    0    0 -0.00000000000E+00 -0.00000000000E+00 -0.10000000000E+04  0.10000000000E+04  0.00000000000E+00 0.  1.
    9000005    2    1    2  501    0 -0.18905094592E+01  0.12687928640E+02 -0.89343976094E+03  0.10999430594E+04  0.64146361543E+03 0.  0.
         13    1    3    3    0    0  0.13061669967E+03 -0.22454003130E+03 -0.13181455458E+03  0.29129714157E+03  0.00000000000E+00 0.  1.
          3    1    3    3  501    0 -0.13250720913E+03  0.23722795994E+03 -0.76162520637E+03  0.80864591783E+03  0.00000000000E+00 0.  1.
         21    1    1    2  502  501  0.18905094592E+01 -0.12687928640E+02  0.91255261911E+01  0.15742705849E+02  0.00000000000E+00 0.  1.
<mgrwt>
<rscale>  1 0.64159187E+03</rscale>
<asrwt>0</asrwt>
<pdfrwt beam="1">  1        1 0.42067640E+00 0.64159187E+03</pdfrwt>
<pdfrwt beam="2">0</pdfrwt>
<totfact> 0.10825101E+00</totfact>
</mgrwt>
</event>
<event>
 6    1  0.2220303E-003  0.6674317E+03  0.7818608E-02  0.9774609E-01
          1   -1    0    0  502    0  0.00000000000E+00  0.00000000000E+00  0.11144609461E+03  0.11144609461E+03  0.00000000000E+00 0.  1.
         13   -1    0    0    0    0 -0.00000000000E+00 -0.00000000000E+00 -0.10000000000E+04  0.10000000000E+04  0.00000000000E+00 0.  1.
    9000005    2    1    2  501    0 -0.16940444494E-01 -0.20311495984E-02 -0.88863273072E+03  0.11113654439E+04  0.66743165906E+03 0.  0.
         13    1    3    3    0    0 -0.31756523833E+03 -0.10166672346E+03 -0.42149399814E+03  0.53743929306E+03  0.00000000000E+00 0.  1.
          3    1    3    3  501    0  0.31754829789E+03  0.10166469231E+03 -0.46713873258E+03  0.57392615085E+03  0.00000000000E+00 0.  1.
         21    1    1    2  502  501  0.16940444494E-01  0.20311495984E-02  0.78825322030E-01  0.80650701308E-01  0.00000000000E+00 0. -1.
<mgrwt>
<rscale>  1 0.66743166E+03</rscale>
<asrwt>0</asrwt>
<pdfrwt beam="1">  1        1 0.40525938E+00 0.66743166E+03</pdfrwt>
<pdfrwt beam="2">0</pdfrwt>
<totfact> 0.12632803E+00</totfact>
</mgrwt>
</event>
<event>
 6    1  0.2220303E-003  0.6509094E+03  0.7818608E-02  0.9805074E-01
          1   -1    0    0  502    0  0.00000000000E+00  0.00000000000E+00  0.10592687276E+03  0.10592687276E+03  0.00000000000E+00 0.  1.
         13   -1    0    0    0    0 -0.00000000000E+00 -0.00000000000E+00 -0.10000000000E+04  0.10000000000E+04  0.00000000000E+00 0.  1.
    9000005    2    1    2  501    0  0.24406775310E-03 -0.15974418808E-02 -0.89407911081E+03  0.11059206748E+04  0.65090942734E+03 0.  0.
         13    1    3    3    0    0  0.17182367444E+03  0.27481465976E+03 -0.49726541235E+03  0.59356496075E+03  0.00000000000E+00 0.  1.
          1    1    3    3  501    0 -0.17182343037E+03 -0.27481625720E+03 -0.39681369846E+03  0.51235571406E+03  0.00000000000E+00 0.  1.
         21    1    1    2  502  501 -0.24406775309E-03  0.15974418809E-02  0.59835690335E-02  0.61979422399E-02  0.00000000000E+00 0. -1.
<mgrwt>
<rscale>  1 0.65090943E+03</rscale>
<asrwt>0</asrwt>
<pdfrwt beam="1">  1        1 0.38518944E+00 0.65090943E+03</pdfrwt>
<pdfrwt beam="2">0</pdfrwt>
<totfact> 0.15563287E+00</totfact>
</mgrwt>
</event>
<event>
 6    1  0.2220303E-003  0.6518969E+03  0.7818608E-02  0.9803226E-01
          1   -1    0    0  502    0  0.00000000000E+00  0.00000000000E+00  0.10624385644E+03  0.10624385644E+03  0.00000000000E+00 0.  1.
         13   -1    0    0    0    0 -0.00000000000E+00 -0.00000000000E+00 -0.10000000000E+04  0.10000000000E+04  0.00000000000E+00 0.  1.
    9000005    2    1    2  501    0  0.18266769223E-02 -0.11972534633E-02 -0.89375662860E+03  0.11062416192E+04  0.65189693111E+03 0.  0.
         13    1    3    3    0    0 -0.32401973015E+03  0.33794925681E+02 -0.46474646864E+03  0.56755630790E+03  0.00000000000E+00 0.  1.
          1    1    3    3  501    0  0.32402155683E+03 -0.33796122935E+02 -0.42901015996E+03  0.53868531126E+03  0.00000000000E+00 0.  1.
         21    1    1    2  502  501 -0.18266769223E-02  0.11972534633E-02  0.48503559010E-03  0.22372804825E-02  0.00000000000E+00 0.  1.
<mgrwt>
<rscale>  1 0.65189693E+03</rscale>
<asrwt>0</asrwt>
<pdfrwt beam="1">  1        1 0.38634211E+00 0.65189693E+03</pdfrwt>
<pdfrwt beam="2">0</pdfrwt>
<totfact> 0.15378768E+00</totfact>
</mgrwt>
</event>
<event>
 6    1  0.2220303E-003  0.6363990E+03  0.7818608E-02  0.9832641E-01
          1   -1    0    0  502    0  0.00000000000E+00  0.00000000000E+00  0.10125092747E+03  0.10125092747E+03  0.00000000000E+00 0.  1.
         13   -1    0    0    0    0 -0.00000000000E+00 -0.00000000000E+00 -0.10000000000E+04  0.10000000000E+04  0.00000000000E+00 0.  1.
    9000005    2    1    2  501    0  0.51495590014E-08 -0.37162910473E-05 -0.89874907879E+03  0.11012509202E+04  0.63639899637E+03 0.  0.
         13    1    3    3    0    0  0.21909063293E+03 -0.17918284407E+03 -0.19775315993E+03  0.34527309381E+03  0.00000000000E+00 0.  1.
          1    1    3    3  501    0 -0.21909063293E+03  0.17918284035E+03 -0.70099591886E+03  0.75597782638E+03  0.00000000000E+00 0.  1.
         21    1    1    2  502  501 -0.51495581351E-08  0.37162910631E-05  0.62576876624E-05  0.72780148848E-05  0.00000000000E+00 0. -1.
<mgrwt>
<rscale>  1 0.63639900E+03</rscale>
<asrwt>0</asrwt>
<pdfrwt beam="1">  1        1 0.36818597E+00 0.63639900E+03</pdfrwt>
<pdfrwt beam="2">0</pdfrwt>
<totfact> 0.18542367E+00</totfact>
</mgrwt>
</event>
<event>
 6    1  0.2220303E-003  0.6260275E+03  0.7818608E-02  0.9852832E-01
          1   -1    0    0  502    0  0.00000000000E+00  0.00000000000E+00  0.10237488921E+03  0.10237488921E+03  0.00000000000E+00 0.  1.
         13   -1    0    0    0    0 -0.00000000000E+00 -0.00000000000E+00 -0.10000000000E+04  0.10000000000E+04  0.00000000000E+00 0.  1.
    9000005    2    1    2  501    0 -0.39005707045E+00 -0.13366745508E+01 -0.90190105856E+03  0.10978779377E+04  0.62602596421E+03 0.  0.
         13    1    3    3    0    0 -0.12872533316E+03  0.16894155617E+03 -0.47990953247E+02  0.21774892053E+03  0.00000000000E+00 0.  1.
          3    1    3    3  501    0  0.12833527609E+03 -0.17027823072E+03 -0.85391010531E+03  0.88012901719E+03  0.00000000000E+00 0.  1.
         21    1    1    2  502  501  0.39005707045E+00  0.13366745508E+01  0.42759477715E+01  0.44969514916E+01  0.00000000000E+00 0.  1.
<mgrwt>
<rscale>  1 0.62602751E+03</rscale>
<asrwt>0</asrwt>
<pdfrwt beam="1">  1        1 0.37227311E+00 0.62602751E+03</pdfrwt>
<pdfrwt beam="2">0</pdfrwt>
<totfact> 0.17825689E+00</totfact>
</mgrwt>
</event>
<event>
 6    1  0.2220303E-003  0.6515888E+03  0.7818608E-02  0.9803802E-01
          1   -1    0    0  502    0  0.00000000000E+00  0.00000000000E+00  0.10614218304E+03  0.10614218304E+03  0.00000000000E+00 0.  1.
         13   -1    0    0    0    0 -0.00000000000E+00 -0.00000000000E+00 -0.10000000000E+04  0.10000000000E+04  0.00000000000E+00 0.  1.
    9000005    2    1    2  501    0 -0.11490333580E-03  0.58026440095E-03 -0.89385693784E+03  0.11061411234E+04  0.65158879643E+03 0.  0.
         13    1    3    3    0    0  0.21536729466E+03 -0.24445173173E+03 -0.44938968237E+03  0.55505928276E+03  0.00000000000E+00 0.  1.
          1    1    3    3  501    0 -0.21536740956E+03  0.24445231200E+03 -0.44446725547E+03  0.55108184068E+03  0.00000000000E+00 0.  1.
         21    1    1    2  502  501  0.11490333579E-03 -0.58026440095E-03 -0.87911615525E-03  0.10596012297E-02  0.00000000000E+00 0. -1.
<mgrwt>
<rscale>  1 0.65158880E+03</rscale>
<asrwt>0</asrwt>
<pdfrwt beam="1">  1        1 0.38597239E+00 0.65158880E+03</pdfrwt>
<pdfrwt beam="2">0</pdfrwt>
<totfact> 0.15437701E+00</totfact>
</mgrwt>
</event>
<event>
 6    1  0.2220303E-003  0.6465115E+03  0.7818608E-02  0.9813347E-01
          1   -1    0    0  502    0  0.00000000000E+00  0.00000000000E+00  0.10477180743E+03  0.10477180743E+03  0.00000000000E+00 0.  1.
         13   -1    0    0    0    0 -0.00000000000E+00 -0.00000000000E+00 -0.10000000000E+04  0.10000000000E+04  0.00000000000E+00 0.  1.
    9000005    2    1    2  501    0  0.13734284635E-01  0.12783694779E-01 -0.89550536762E+03  0.11044939980E+04  0.64651150639E+03 0.  0.
         13    1    3    3    0    0 -0.14927584859E+03  0.30528497313E+02  0.39299001771E+02  0.15735208820E+03  0.00000000000E+00 0.  1.
          3    1    3    3  501    0  0.14928958287E+03 -0.30515713618E+02 -0.93480436939E+03  0.94714190984E+03  0.00000000000E+00 0.  1.
         21    1    1    2  502  501 -0.13734284635E-01 -0.12783694779E-01  0.27717505339E+00  0.27780940166E+00  0.00000000000E+00 0.  1.
<mgrwt>
<rscale>  1 0.64651151E+03</rscale>
<asrwt>0</asrwt>
<pdfrwt beam="1">  1        1 0.38098919E+00 0.64651151E+03</pdfrwt>
<pdfrwt beam="2">0</pdfrwt>
<totfact> 0.16256018E+00</totfact>
</mgrwt>
</event>
<event>
 6    1  0.2220303E-003  0.6326117E+03  0.7818608E-02  0.9839965E-01
          1   -1    0    0  502    0  0.00000000000E+00  0.00000000000E+00  0.10036165836E+03  0.10036165836E+03  0.00000000000E+00 0.  1.
         13   -1    0    0    0    0 -0.00000000000E+00 -0.00000000000E+00 -0.10000000000E+04  0.10000000000E+04  0.00000000000E+00 0.  1.
    9000005    2    1    2  501    0  0.61703728202E-02 -0.13443367478E-02 -0.89995057677E+03  0.11000493594E+04  0.63261169164E+03 0.  0.
         13    1    3    3    0    0 -0.79402829919E+02 -0.30311892037E+03 -0.37491141302E+03  0.48861483492E+03  0.00000000000E+00 0.  1.
          1    1    3    3  501    0  0.79409000292E+02  0.30311757604E+03 -0.52503916374E+03  0.61143452445E+03  0.00000000000E+00 0.  1.
         21    1    1    2  502  501 -0.61703728201E-02  0.13443367478E-02  0.31223512460E+00  0.31229898139E+00  0.00000000000E+00 0. -1.
<mgrwt>
<rscale>  1 0.63261169E+03</rscale>
<asrwt>0</asrwt>
<pdfrwt beam="1">  1        1 0.36495225E+00 0.63261169E+03</pdfrwt>
<pdfrwt beam="2">0</pdfrwt>
<totfact> 0.19170990E+00</totfact>
</mgrwt>
</event>
<event>
 6    1  0.2220303E-003  0.6583961E+03  0.7818608E-02  0.9791151E-01
          1   -1    0    0  502    0  0.00000000000E+00  0.00000000000E+00  0.10837179674E+03  0.10837179674E+03  0.00000000000E+00 0.  1.
         13   -1    0    0    0    0 -0.00000000000E+00 -0.00000000000E+00 -0.10000000000E+04  0.10000000000E+04  0.00000000000E+00 0.  1.
    9000005    2    1    2  501    0 -0.64835135703E-04 -0.57404582789E-03 -0.89162841885E+03  0.11083711801E+04  0.65839610846E+03 0.  0.
         13    1    3    3    0    0  0.95040973124E+02  0.11284632623E+03 -0.94122714131E+03  0.95272011181E+03  0.00000000000E+00 0.  1.
          3    1    3    3  501    0 -0.95041037959E+02 -0.11284690027E+03  0.49598722461E+02  0.15565106831E+03  0.00000000000E+00 0.  1.
         21    1    1    2  502  501  0.64835135704E-04  0.57404582789E-03  0.21558526974E-03  0.61661107342E-03  0.00000000000E+00 0. -1.
<mgrwt>
<rscale>  1 0.65839611E+03</rscale>
<asrwt>0</asrwt>
<pdfrwt beam="1">  1        1 0.39408009E+00 0.65839611E+03</pdfrwt>
<pdfrwt beam="2">0</pdfrwt>
<totfact> 0.14193108E+00</totfact>
</mgrwt>
</event>
<event>
 6    1  0.2220303E-003  0.6335017E+03  0.7818608E-02  0.9838239E-01
          1   -1    0    0  502    0  0.00000000000E+00  0.00000000000E+00  0.10400690442E+03  0.10400690442E+03  0.00000000000E+00 0.  1.
         13   -1    0    0    0    0 -0.00000000000E+00 -0.00000000000E+00 -0.10000000000E+04  0.10000000000E+04  0.00000000000E+00 0.  1.
    9000005    2    1    2  501    0  0.27155965199E+00  0.34901899153E-01 -0.89966328353E+03  0.11003265182E+04  0.63350165591E+03 0.  0.
         13    1    3    3    0    0 -0.27570667958E+03 -0.14206636037E+03 -0.56024570203E+03  0.64036885508E+03  0.00000000000E+00 0.  1.
          1    1    3    3  501    0  0.27597823923E+03  0.14210126227E+03 -0.33941758151E+03  0.45995766316E+03  0.00000000000E+00 0.  1.
         21    1    1    2  502  501 -0.27155965199E+00 -0.34901899153E-01  0.36701879594E+01  0.36803861814E+01  0.00000000000E+00 0. -1.
<mgrwt>
<rscale>  1 0.63350172E+03</rscale>
<asrwt>0</asrwt>
<pdfrwt beam="1">  1        1 0.37820772E+00 0.63350172E+03</pdfrwt>
<pdfrwt beam="2">0</pdfrwt>
<totfact> 0.16762091E+00</totfact>
</mgrwt>
</event>
<event>
 6    1  0.2220303E-003  0.6452952E+03  0.7818608E-02  0.9815648E-01
          1   -1    0    0  502    0  0.00000000000E+00  0.00000000000E+00  0.10410151405E+03  0.10410151405E+03  0.00000000000E+00 0.  1.
         13   -1    0    0    0    0 -0.00000000000E+00 -0.00000000000E+00 -0.10000000000E+04  0.10000000000E+04  0.00000000000E+00 0.  1.
    9000005    2    1    2  501    0  0.21477273890E-04 -0.10324486709E-04 -0.89589852708E+03  0.11041014665E+04  0.64529518635E+03 0.  0.
         13    1    3    3    0    0  0.21156203378E+02 -0.30962351097E+03 -0.59893655665E+03  0.67456601039E+03  0.00000000000E+00 0.  1.
          3    1    3    3  501    0 -0.21156181901E+02  0.30962350064E+03 -0.29696197043E+03  0.42953545612E+03  0.00000000000E+00 0.  1.
         21    1    1    2  502  501 -0.21477273889E-04  0.10324486709E-04  0.41129353011E-04  0.47534114051E-04  0.00000000000E+00 0. -1.
<mgrwt>
<rscale>  1 0.64529519E+03</rscale>
<asrwt>0</asrwt>
<pdfrwt beam="1">  1        1 0.37855176E+00 0.64529519E+03</pdfrwt>
<pdfrwt beam="2">0</pdfrwt>
<totfact> 0.16667272E+00</totfact>
</mgrwt>
</event>
<event>
 6    1  0.2220303E-003  0.6459213E+03  0.7818608E-02  0.9814463E-01
          1   -1    0    0  502    0  0.00000000000E+00  0.00000000000E+00  0.10464149309E+03  0.10464149309E+03  0.00000000000E+00 0.  1.
         13   -1    0    0    0    0 -0.00000000000E+00 -0.00000000000E+00 -0.10000000000E+04  0.10000000000E+04  0.00000000000E+00 0.  1.
    9000005    2    1    2  501    0 -0.95408837742E-02 -0.25956659311E-01 -0.89569579685E+03  0.11043030713E+04  0.64592128940E+03 0.  0.
         13    1    3    3    0    0  0.24721465976E+03  0.20749731321E+03 -0.46699241726E+03  0.56767256475E+03  0.00000000000E+00 0.  1.
          3    1    3    3  501    0 -0.24722420065E+03 -0.20752326987E+03 -0.42870337960E+03  0.53663050659E+03  0.00000000000E+00 0.  1.
         21    1    1    2  502  501  0.95408837742E-02  0.25956659311E-01  0.33728994497E+00  0.33842175404E+00  0.00000000000E+00 0.  1.
<mgrwt>
<rscale>  1 0.64592129E+03</rscale>
<asrwt>0</asrwt>
<pdfrwt beam="1">  1        1 0.38051532E+00 0.64592129E+03</pdfrwt>
<pdfrwt beam="2">0</pdfrwt>
<totfact> 0.16336270E+00</totfact>
</mgrwt>
</event>
<event>
 6    1  0.2220303E-003  0.6098020E+03  0.7818608E-02  0.9885276E-01
          1   -1    0    0  502    0  0.00000000000E+00  0.00000000000E+00  0.92966559498E+02  0.92966559498E+02  0.00000000000E+00 0.  1.
         13   -1    0    0    0    0 -0.00000000000E+00 -0.00000000000E+00 -0.10000000000E+04  0.10000000000E+04  0.00000000000E+00 0.  1.
    9000005    2    1    2  501    0  0.20359757004E-02 -0.19064347092E-02 -0.90703420043E+03  0.10929636686E+04  0.60980204998E+03 0.  0.
         13    1    3    3    0    0  0.84990553885E+02 -0.68670320422E+02 -0.96370422447E+03  0.96987877563E+03  0.00000000000E+00 0.  1.
          3    1    3    3  501    0 -0.84988517909E+02  0.68668413987E+02  0.56670024040E+02  0.12308489298E+03  0.00000000000E+00 0.  1.
         21    1    1    2  502  501 -0.20359757004E-02  0.19064347092E-02  0.75993265737E-03  0.28908801423E-02  0.00000000000E+00 0.  1.
<mgrwt>
<rscale>  1 0.60980205E+03</rscale>
<asrwt>0</asrwt>
<pdfrwt beam="1">  1        1 0.33806093E+00 0.60980205E+03</pdfrwt>
<pdfrwt beam="2">0</pdfrwt>
<totfact> 0.25215717E+00</totfact>
</mgrwt>
</event>
<event>
 6    1  0.2220303E-003  0.6612588E+03  0.7818608E-02  0.9785879E-01
          1   -1    0    0  502    0  0.00000000000E+00  0.00000000000E+00  0.10933974349E+03  0.10933974349E+03  0.00000000000E+00 0.  1.
         13   -1    0    0    0    0 -0.00000000000E+00 -0.00000000000E+00 -0.10000000000E+04  0.10000000000E+04  0.00000000000E+00 0.  1.
    9000005    2    1    2  501    0 -0.15856049213E-02  0.62017985420E-02 -0.89068372449E+03  0.11093154181E+04  0.66125879943E+03 0.  0.
         13    1    3    3    0    0  0.30886576263E+03 -0.57571862701E+02 -0.61807705046E+03  0.69334826675E+03  0.00000000000E+00 0.  1.
          1    1    3    3  501    0 -0.30886734823E+03  0.57578064499E+02 -0.27260667403E+03  0.41596715140E+03  0.00000000000E+00 0.  1.
         21    1    1    2  502  501  0.15856049213E-02 -0.62017985420E-02  0.23467981146E-01  0.24325348655E-01  0.00000000000E+00 0. -1.
<mgrwt>
<rscale>  1 0.66125880E+03</rscale>
<asrwt>0</asrwt>
<pdfrwt beam="1">  1        1 0.39759991E+00 0.66125880E+03</pdfrwt>
<pdfrwt beam="2">0</pdfrwt>
<totfact> 0.13683163E+00</totfact>
</mgrwt>
</event>
<event>
 6    1  0.2220303E-003  0.6473241E+03  0.7818608E-02  0.9811813E-01
          1   -1    0    0  502    0  0.00000000000E+00  0.00000000000E+00  0.10476104081E+03  0.10476104081E+03  0.00000000000E+00 0.  1.
         13   -1    0    0    0    0 -0.00000000000E+00 -0.00000000000E+00 -0.10000000000E+04  0.10000000000E+04  0.00000000000E+00 0.  1.
    9000005    2    1    2  501    0 -0.75932846286E-03  0.90709211577E-04 -0.89524284246E+03  0.11047570830E+04  0.64732408065E+03 0.  0.
         13    1    3    3    0    0 -0.22730152147E+03 -0.67767253677E+02 -0.82346868139E+03  0.85694751973E+03  0.00000000000E+00 0.  1.
          3    1    3    3  501    0  0.22730076214E+03  0.67767344386E+02 -0.71774161061E+02  0.24780956323E+03  0.00000000000E+00 0.  1.
         21    1    1    2  502  501  0.75932846287E-03 -0.90709211578E-04  0.38832667014E-02  0.39578489296E-02  0.00000000000E+00 0. -1.
<mgrwt>
<rscale>  1 0.64732408E+03</rscale>
<asrwt>0</asrwt>
<pdfrwt beam="1">  1        1 0.38095004E+00 0.64732408E+03</pdfrwt>
<pdfrwt beam="2">0</pdfrwt>
<totfact> 0.16260056E+00</totfact>
</mgrwt>
</event>
<event>
 6    1  0.2220303E-003  0.6839255E+03  0.7818608E-02  0.9745124E-01
          1   -1    0    0  502    0  0.00000000000E+00  0.00000000000E+00  0.11717486581E+03  0.11717486581E+03  0.00000000000E+00 0.  1.
         13   -1    0    0    0    0 -0.00000000000E+00 -0.00000000000E+00 -0.10000000000E+04  0.10000000000E+04  0.00000000000E+00 0.  1.
    9000005    2    1    2  501    0  0.65419646276E-01  0.35480602619E-01 -0.88305492633E+03  0.11169333228E+04  0.68392546311E+03 0.  0.
         13    1    3    3    0    0 -0.28989548232E+03 -0.17756159497E+03 -0.50138959596E+03  0.60577144008E+03  0.00000000000E+00 0.  1.
          3    1    3    3  501    0  0.28996090197E+03  0.17759707558E+03 -0.38166533037E+03  0.51116188270E+03  0.00000000000E+00 0.  1.
         21    1    1    2  502  501 -0.65419646276E-01 -0.35480602619E-01  0.22979214202E+00  0.24154302270E+00  0.00000000000E+00 0.  1.
<mgrwt>
<rscale>  1 0.68392547E+03</rscale>
<asrwt>0</asrwt>
<pdfrwt beam="1">  1        1 0.42609132E+00 0.68392547E+03</pdfrwt>
<pdfrwt beam="2">0</pdfrwt>
<totfact> 0.10147301E+00</totfact>
</mgrwt>
</event>
<event>
 6    1  0.2220303E-003  0.6463643E+03  0.7818608E-02  0.9813625E-01
          1   -1    0    0  502    0  0.00000000000E+00  0.00000000000E+00  0.16400406498E+03  0.16400406498E+03  0.00000000000E+00 0.  1.
         13   -1    0    0    0    0 -0.00000000000E+00 -0.00000000000E+00 -0.10000000000E+04  0.10000000000E+04  0.00000000000E+00 0.  1.
    9000005    2    1    2  501    0 -0.37465244641E+01  0.44116720004E+02 -0.88632152345E+03  0.10969743232E+04  0.64484610680E+03 0.  0.
         13    1    3    3    0    0  0.42956287814E+02 -0.24731041209E+01 -0.98080055110E+03  0.98174389733E+03  0.00000000000E+00 0.  1.
          1    1    3    3  501    0 -0.46702812278E+02  0.46589824125E+02  0.94479027649E+02  0.11523042590E+03  0.00000000000E+00 0.  1.
         21    1    1    2  502  501  0.37465244641E+01 -0.44116720004E+02  0.50325588424E+02  0.67029741755E+02  0.00000000000E+00 0.  1.
<mgrwt>
<rscale>  1 0.64636431E+03</rscale>
<asrwt>0</asrwt>
<pdfrwt beam="1">  1        1 0.59637968E+00 0.64636431E+03</pdfrwt>
<pdfrwt beam="2">0</pdfrwt>
<totfact> 0.14970403E-01</totfact>
</mgrwt>
</event>
<event>
 6    1  0.2220303E-003  0.6285498E+03  0.7818608E-02  0.9847883E-01
          3   -1    0    0  502    0  0.00000000000E+00  0.00000000000E+00  0.98768722816E+02  0.98768722816E+02  0.00000000000E+00 0.  1.
         13   -1    0    0    0    0 -0.00000000000E+00 -0.00000000000E+00 -0.10000000000E+04  0.10000000000E+04  0.00000000000E+00 0.  1.
    9000005    2    1    2  501    0  0.82531982599E-05 -0.24820894566E-05 -0.90123129641E+03  0.10987687017E+04  0.62854976757E+03 0.  0.
         13    1    3    3    0    0 -0.54905591005E+02  0.13054944555E+03  0.39822344499E+02  0.14711764265E+03  0.00000000000E+00 0.  1.
          3    1    3    3  501    0  0.54905599258E+02 -0.13054944803E+03 -0.94105364091E+03  0.95165105910E+03  0.00000000000E+00 0.  1.
         21    1    1    2  502  501 -0.82531982597E-05  0.24820894566E-05  0.19226394333E-04  0.21069653263E-04  0.00000000000E+00 0.  1.
<mgrwt>
<rscale>  1 0.62854977E+03</rscale>
<asrwt>0</asrwt>
<pdfrwt beam="1">  1        3 0.35915975E+00 0.62854977E+03</pdfrwt>
<pdfrwt beam="2">0</pdfrwt>
<totfact> 0.97672158E-02</totfact>
</mgrwt>
</event>
<event>
 6    1  0.2220303E-003  0.6286379E+03  0.7818608E-02  0.9847710E-01
          1   -1    0    0  502    0  0.00000000000E+00  0.00000000000E+00  0.98801819227E+02  0.98801819227E+02  0.00000000000E+00 0.  1.
         13   -1    0    0    0    0 -0.00000000000E+00 -0.00000000000E+00 -0.10000000000E+04  0.10000000000E+04  0.00000000000E+00 0.  1.
    9000005    2    1    2  501    0  0.49176394839E-03 -0.54922496271E-03 -0.90120356657E+03  0.10987963832E+04  0.62863791116E+03 0.  0.
         13    1    3    3    0    0 -0.26858451481E+03  0.11273606741E+03 -0.24416292638E+03  0.38008235569E+03  0.00000000000E+00 0.  1.
          1    1    3    3  501    0  0.26858500657E+03 -0.11273661664E+03 -0.65704064020E+03  0.71871402752E+03  0.00000000000E+00 0.  1.
         21    1    1    2  502  501 -0.49176394840E-03  0.54922496272E-03  0.53857980512E-02  0.54360188088E-02  0.00000000000E+00 0.  1.
<mgrwt>
<rscale>  1 0.62863791E+03</rscale>
<asrwt>0</asrwt>
<pdfrwt beam="1">  1        1 0.35928010E+00 0.62863791E+03</pdfrwt>
<pdfrwt beam="2">0</pdfrwt>
<totfact> 0.20313485E+00</totfact>
</mgrwt>
</event>
<event>
 6    1  0.2220303E-003  0.5474841E+03  0.7818608E-02  0.1002078E+00
          1   -1    0    0  502    0  0.00000000000E+00  0.00000000000E+00  0.78344693373E+02  0.78344693373E+02  0.00000000000E+00 0.  1.
         13   -1    0    0    0    0 -0.00000000000E+00 -0.00000000000E+00 -0.10000000000E+04  0.10000000000E+04  0.00000000000E+00 0.  1.
    9000005    2    1    2  501    0 -0.44773774088E+00  0.22715651235E+01 -0.92463911535E+03  0.10745679763E+04  0.54747920658E+03 0.  0.
         13    1    3    3    0    0  0.20322149216E+03  0.87601761110E+02 -0.77953416616E+03  0.81033731226E+03  0.00000000000E+00 0.  1.
          3    1    3    3  501    0 -0.20366922990E+03 -0.85330195986E+02 -0.14510494918E+03  0.26423066407E+03  0.00000000000E+00 0.  1.
         21    1    1    2  502  501  0.44773774088E+00 -0.22715651235E+01  0.29838087183E+01  0.37767170482E+01  0.00000000000E+00 0.  1.
<mgrwt>
<rscale>  1 0.54748410E+03</rscale>
<asrwt>0</asrwt>
<pdfrwt beam="1">  1        1 0.28489039E+00 0.54748410E+03</pdfrwt>
<pdfrwt beam="2">0</pdfrwt>
<totfact> 0.43270909E+00</totfact>
</mgrwt>
</event>
<event>
 6    1  0.2220303E-003  0.6427720E+03  0.7818608E-02  0.9820437E-01
          1   -1    0    0  502    0  0.00000000000E+00  0.00000000000E+00  0.10329024331E+03  0.10329024331E+03  0.00000000000E+00 0.  1.
         13   -1    0    0    0    0 -0.00000000000E+00 -0.00000000000E+00 -0.10000000000E+04  0.10000000000E+04  0.00000000000E+00 0.  1.
    9000005    2    1    2  501    0  0.47555736387E-03 -0.39072201352E-02 -0.89670383754E+03  0.11032831349E+04  0.64277204637E+03 0.  0.
         13    1    3    3    0    0  0.15031870656E+03 -0.25776546242E+03 -0.65326152242E+03  0.71818476998E+03  0.00000000000E+00 0.  1.
          1    1    3    3  501    0 -0.15031823101E+03  0.25776155520E+03 -0.24344231512E+03  0.38509836497E+03  0.00000000000E+00 0.  1.
         21    1    1    2  502  501 -0.47555736389E-03  0.39072201352E-02 -0.59191510257E-02  0.71083663986E-02  0.00000000000E+00 0.  1.
<mgrwt>
<rscale>  1 0.64277205E+03</rscale>
<asrwt>0</asrwt>
<pdfrwt beam="1">  1        1 0.37560168E+00 0.64277205E+03</pdfrwt>
<pdfrwt beam="2">0</pdfrwt>
<totfact> 0.17181600E+00</totfact>
</mgrwt>
</event>
<event>
 6    1  0.2220303E-003  0.6593517E+03  0.7818608E-02  0.9789388E-01
          1   -1    0    0  502    0  0.00000000000E+00  0.00000000000E+00  0.10870369595E+03  0.10870369595E+03  0.00000000000E+00 0.  1.
         13   -1    0    0    0    0 -0.00000000000E+00 -0.00000000000E+00 -0.10000000000E+04  0.10000000000E+04  0.00000000000E+00 0.  1.
    9000005    2    1    2  501    0  0.53637167807E-03 -0.16754768452E-02 -0.89131376970E+03  0.11086861419E+04  0.65935174621E+03 0.  0.
         13    1    3    3    0    0  0.12322228124E+03  0.10769270140E+03  0.35565549424E+02  0.16747046556E+03  0.00000000000E+00 0.  1.
          3    1    3    3  501    0 -0.12322174487E+03 -0.10769437687E+03 -0.92687931913E+03  0.94121567637E+03  0.00000000000E+00 0.  1.
         21    1    1    2  502  501 -0.53637167808E-03  0.16754768452E-02  0.17465649527E-01  0.17554026052E-01  0.00000000000E+00 0.  1.
<mgrwt>
<rscale>  1 0.65935175E+03</rscale>
<asrwt>0</asrwt>
<pdfrwt beam="1">  1        1 0.39528700E+00 0.65935175E+03</pdfrwt>
<pdfrwt beam="2">0</pdfrwt>
<totfact> 0.14016328E+00</totfact>
</mgrwt>
</event>
<event>
 6    1  0.2220303E-003  0.6637338E+03  0.7818608E-02  0.9781344E-01
          1   -1    0    0  502    0  0.00000000000E+00  0.00000000000E+00  0.11013593043E+03  0.11013593043E+03  0.00000000000E+00 0.  1.
         13   -1    0    0    0    0 -0.00000000000E+00 -0.00000000000E+00 -0.10000000000E+04  0.10000000000E+04  0.00000000000E+00 0.  1.
    9000005    2    1    2  501    0  0.24825475117E-03 -0.90653339768E-04 -0.88986427291E+03  0.11101355970E+04  0.66373384685E+03 0.  0.
         13    1    3    3    0    0  0.31758387260E+03  0.93823729624E+02 -0.48132026593E+03  0.58423591705E+03  0.00000000000E+00 0.  1.
          3    1    3    3  501    0 -0.31758362434E+03 -0.93823820277E+02 -0.40854400698E+03  0.52589967992E+03  0.00000000000E+00 0.  1.
         21    1    1    2  502  501 -0.24825475118E-03  0.90653339765E-04  0.20333726500E-03  0.33345838245E-03  0.00000000000E+00 0. -1.
<mgrwt>
<rscale>  1 0.66373385E+03</rscale>
<asrwt>0</asrwt>
<pdfrwt beam="1">  1        1 0.40049514E+00 0.66373385E+03</pdfrwt>
<pdfrwt beam="2">0</pdfrwt>
<totfact> 0.13276444E+00</totfact>
</mgrwt>
</event>
<event>
 6    1  0.2220303E-003  0.6521363E+03  0.7818608E-02  0.9802779E-01
          1   -1    0    0  502    0  0.00000000000E+00  0.00000000000E+00  0.10632070944E+03  0.10632070944E+03  0.00000000000E+00 0.  1.
         13   -1    0    0    0    0 -0.00000000000E+00 -0.00000000000E+00 -0.10000000000E+04  0.10000000000E+04  0.00000000000E+00 0.  1.
    9000005    2    1    2  501    0 -0.10388841503E-04  0.18599811341E-04 -0.89367954741E+03  0.11063204517E+04  0.65213634188E+03 0.  0.
         13    1    3    3    0    0 -0.17739348293E+03  0.17296864965E+03 -0.87231754552E+02  0.26267085973E+03  0.00000000000E+00 0.  1.
          1    1    3    3  501    0  0.17739347254E+03 -0.17296863105E+03 -0.80644779286E+03  0.84364959197E+03  0.00000000000E+00 0.  1.
         21    1    1    2  502  501  0.10388841492E-04 -0.18599811347E-04  0.25685506805E-03  0.25773708889E-03  0.00000000000E+00 0. -1.
<mgrwt>
<rscale>  1 0.65213634E+03</rscale>
<asrwt>0</asrwt>
<pdfrwt beam="1">  1        1 0.38662158E+00 0.65213634E+03</pdfrwt>
<pdfrwt beam="2">0</pdfrwt>
<totfact> 0.15334345E+00</totfact>
</mgrwt>
</event>
<event>
 6    1  0.2220303E-003  0.6515043E+03  0.7818608E-02  0.9803961E-01
          1   -1    0    0  502    0  0.00000000000E+00  0.00000000000E+00  0.10720348871E+03  0.10720348871E+03  0.00000000000E+00 0.  1.
         13   -1    0    0    0    0 -0.00000000000E+00 -0.00000000000E+00 -0.10000000000E+04  0.10000000000E+04  0.00000000000E+00 0.  1.
    9000005    2    1    2  501    0 -0.11701711975E-01  0.25311038926E-01 -0.89388532970E+03  0.11061143133E+04  0.65150432893E+03 0.  0.
         13    1    3    3    0    0 -0.25089872009E+03  0.14387027634E+03 -0.70146704357E+03  0.75875215807E+03  0.00000000000E+00 0.  1.
          1    1    3    3  501    0  0.25088701838E+03 -0.14384496531E+03 -0.19241828613E+03  0.34736215521E+03  0.00000000000E+00 0.  1.
         21    1    1    2  502  501  0.11701711975E-01 -0.25311038926E-01  0.10888184117E+01  0.10891754277E+01  0.00000000000E+00 0. -1.
<mgrwt>
<rscale>  1 0.65150433E+03</rscale>
<asrwt>0</asrwt>
<pdfrwt beam="1">  1        1 0.38983169E+00 0.65150433E+03</pdfrwt>
<pdfrwt beam="2">0</pdfrwt>
<totfact> 0.14842055E+00</totfact>
</mgrwt>
</event>
<event>
 6    1  0.2220303E-003  0.6478727E+03  0.7818608E-02  0.9810779E-01
          1   -1    0    0  502    0  0.00000000000E+00  0.00000000000E+00  0.10493491051E+03  0.10493491051E+03  0.00000000000E+00 0.  1.
         13   -1    0    0    0    0 -0.00000000000E+00 -0.00000000000E+00 -0.10000000000E+04  0.10000000000E+04  0.00000000000E+00 0.  1.
    9000005    2    1    2  501    0  0.21097555319E-03  0.24450856665E-03 -0.89506497510E+03  0.11049345679E+04  0.64787274190E+03 0.  0.
         13    1    3    3    0    0  0.13677913597E+02  0.32188354196E+03 -0.50508484846E+03  0.59908831073E+03  0.00000000000E+00 0.  1.
          1    1    3    3  501    0 -0.13677702621E+02 -0.32188329745E+03 -0.38998012663E+03  0.50584625717E+03  0.00000000000E+00 0.  1.
         21    1    1    2  502  501 -0.21097555318E-03 -0.24450856666E-03 -0.11439224465E-03  0.34260868180E-03  0.00000000000E+00 0.  1.
<mgrwt>
<rscale>  1 0.64787274E+03</rscale>
<asrwt>0</asrwt>
<pdfrwt beam="1">  1        1 0.38158230E+00 0.64787274E+03</pdfrwt>
<pdfrwt beam="2">0</pdfrwt>
<totfact> 0.16154250E+00</totfact>
</mgrwt>
</event>
<event>
 6    1  0.2220303E-003  0.6421541E+03  0.7818608E-02  0.9821614E-01
          1   -1    0    0  502    0  0.00000000000E+00  0.00000000000E+00  0.10829099829E+03  0.10829099829E+03  0.00000000000E+00 0.  1.
         13   -1    0    0    0    0 -0.00000000000E+00 -0.00000000000E+00 -0.10000000000E+04  0.10000000000E+04  0.00000000000E+00 0.  1.
    9000005    2    1    2  501    0 -0.39219663170E+00  0.11249162470E+00 -0.89690071188E+03  0.11030832803E+04  0.64215392995E+03 0.  0.
         13    1    3    3    0    0 -0.16997138544E+03 -0.20556455318E+03 -0.75576868824E+03  0.80145702787E+03  0.00000000000E+00 0.  1.
          3    1    3    3  501    0  0.16957918880E+03  0.20567704481E+03 -0.14113202364E+03  0.30162625239E+03  0.00000000000E+00 0.  1.
         21    1    1    2  502  501  0.39219663170E+00 -0.11249162470E+00  0.51917101720E+01  0.52077180294E+01  0.00000000000E+00 0. -1.
<mgrwt>
<rscale>  1 0.64215406E+03</rscale>
<asrwt>0</asrwt>
<pdfrwt beam="1">  1        1 0.39378628E+00 0.64215406E+03</pdfrwt>
<pdfrwt beam="2">0</pdfrwt>
<totfact> 0.14279370E+00</totfact>
</mgrwt>
</event>
<event>
 6    1  0.2220303E-003  0.6403166E+03  0.7818608E-02  0.9825121E-01
          1   -1    0    0  502    0  0.00000000000E+00  0.00000000000E+00  0.10328057149E+03  0.10328057149E+03  0.00000000000E+00 0.  1.
         13   -1    0    0    0    0 -0.00000000000E+00 -0.00000000000E+00 -0.10000000000E+04  0.10000000000E+04  0.00000000000E+00 0.  1.
    9000005    2    1    2  501    0  0.27964163381E-01 -0.25579408494E-01 -0.89749814609E+03  0.11025009322E+04  0.64031662630E+03 0.  0.
         13    1    3    3    0    0 -0.15565954361E+03 -0.20064854139E+03 -0.11305429053E+03  0.27797662363E+03  0.00000000000E+00 0.  1.
          3    1    3    3  501    0  0.15568750777E+03  0.20062296198E+03 -0.78444385556E+03  0.82452430860E+03  0.00000000000E+00 0.  1.
         21    1    1    2  502  501 -0.27964163381E-01  0.25579408494E-01  0.77871757401E+00  0.77963925032E+00  0.00000000000E+00 0. -1.
<mgrwt>
<rscale>  1 0.64031663E+03</rscale>
<asrwt>0</asrwt>
<pdfrwt beam="1">  1        1 0.37556651E+00 0.64031663E+03</pdfrwt>
<pdfrwt beam="2">0</pdfrwt>
<totfact> 0.17195466E+00</totfact>
</mgrwt>
</event>
<event>
 6    1  0.2220303E-003  0.6547285E+03  0.7818608E-02  0.9797947E-01
          1   -1    0    0  502    0  0.00000000000E+00  0.00000000000E+00  0.10778466342E+03  0.10778466342E+03  0.00000000000E+00 0.  1.
         13   -1    0    0    0    0 -0.00000000000E+00 -0.00000000000E+00 -0.10000000000E+04  0.10000000000E+04  0.00000000000E+00 0.  1.
    9000005    2    1    2  501    0 -0.36163254492E-02  0.26245010190E-01 -0.89283233556E+03  0.11071670959E+04  0.65472849196E+03 0.  0.
         13    1    3    3    0    0  0.18079310202E+03  0.15732895977E+03 -0.69310753415E+02  0.24948452429E+03  0.00000000000E+00 0.  1.
          1    1    3    3  501    0 -0.18079671834E+03 -0.15730271476E+03 -0.82352158214E+03  0.85768257163E+03  0.00000000000E+00 0.  1.
         21    1    1    2  502  501  0.36163254492E-02 -0.26245010190E-01  0.61699897273E+00  0.61756749487E+00  0.00000000000E+00 0. -1.
<mgrwt>
<rscale>  1 0.65472849E+03</rscale>
<asrwt>0</asrwt>
<pdfrwt beam="1">  1        1 0.39194506E+00 0.65472849E+03</pdfrwt>
<pdfrwt beam="2">0</pdfrwt>
<totfact> 0.14516349E+00</totfact>
</mgrwt>
</event>
<event>
 6    1  0.2220303E-003  0.6479380E+03  0.7818608E-02  0.9810656E-01
          3   -1    0    0  502    0  0.00000000000E+00  0.00000000000E+00  0.10510200230E+03  0.10510200230E+03  0.00000000000E+00 0.  1.
         13   -1    0    0    0    0 -0.00000000000E+00 -0.00000000000E+00 -0.10000000000E+04  0.10000000000E+04  0.00000000000E+00 0.  1.
    9000005    2    1    2  501    0  0.47485546470E-02  0.61681706125E-02 -0.89504395793E+03  0.11049558346E+04  0.64793804475E+03 0.  0.
         13    1    3    3    0    0  0.23069973356E+03 -0.18542315423E+03 -0.22288384709E+03  0.37051494232E+03  0.00000000000E+00 0.  1.
          3    1    3    3  501    0 -0.23069498500E+03  0.18542932240E+03 -0.67216011084E+03  0.73444089233E+03  0.00000000000E+00 0.  1.
         21    1    1    2  502  501 -0.47485546470E-02 -0.61681706125E-02  0.14596022639E+00  0.14616765302E+00  0.00000000000E+00 0. -1.
<mgrwt>
<rscale>  1 0.64793804E+03</rscale>
<asrwt>0</asrwt>
<pdfrwt beam="1">  1        3 0.38218991E+00 0.64793804E+03</pdfrwt>
<pdfrwt beam="2">0</pdfrwt>
<totfact> 0.73521187E-02</totfact>
</mgrwt>
</event>
<event>
 6    1  0.2220303E-003  0.6491818E+03  0.7818608E-02  0.9808316E-01
          1   -1    0    0  502    0  0.00000000000E+00  0.00000000000E+00  0.10537181816E+03  0.10537181816E+03  0.00000000000E+00 0.  1.
         13   -1    0    0    0    0 -0.00000000000E+00 -0.00000000000E+00 -0.10000000000E+04  0.10000000000E+04  0.00000000000E+00 0.  1.
    9000005    2    1    2  501    0  0.18005851983E-01  0.42688280132E-02 -0.89463274128E+03  0.11053527598E+04  0.64918177841E+03 0.  0.
         13    1    3    3    0    0  0.24615188578E+03 -0.88058124537E+02 -0.11972571814E+03  0.28753996549E+03  0.00000000000E+00 0.  1.
          3    1    3    3  501    0 -0.24613387993E+03  0.88062393365E+02 -0.77490702314E+03  0.81781279428E+03  0.00000000000E+00 0.  1.
         21    1    1    2  502  501 -0.18005851982E-01 -0.42688280132E-02  0.45594386449E-02  0.19058386054E-01  0.00000000000E+00 0.  1.
<mgrwt>
<rscale>  1 0.64918178E+03</rscale>
<asrwt>0</asrwt>
<pdfrwt beam="1">  1        1 0.38317106E+00 0.64918178E+03</pdfrwt>
<pdfrwt beam="2">0</pdfrwt>
<totfact> 0.15891463E+00</totfact>
</mgrwt>
</event>
<event>
 6    1  0.2220303E-003  0.6418076E+03  0.7818608E-02  0.9822274E-01
          1   -1    0    0  502    0  0.00000000000E+00  0.00000000000E+00  0.10629436901E+03  0.10629436901E+03  0.00000000000E+00 0.  1.
         13   -1    0    0    0    0 -0.00000000000E+00 -0.00000000000E+00 -0.10000000000E+04  0.10000000000E+04  0.00000000000E+00 0.  1.
    9000005    2    1    2  501    0 -0.41808444955E-01 -0.63168711770E+00 -0.89698739797E+03  0.11029520987E+04  0.64180724445E+03 0.  0.
         13    1    3    3    0    0 -0.98476509997E+02 -0.25379585239E+01  0.76359387780E+02  0.12463875945E+03  0.00000000000E+00 0.  1.
          3    1    3    3  501    0  0.98434701552E+02  0.19062714062E+01 -0.97334678575E+03  0.97831333921E+03  0.00000000000E+00 0.  1.
         21    1    1    2  502  501  0.41808444955E-01  0.63168711770E+00  0.32817669860E+01  0.33422703528E+01  0.00000000000E+00 0.  1.
<mgrwt>
<rscale>  1 0.64180756E+03</rscale>
<asrwt>0</asrwt>
<pdfrwt beam="1">  1        1 0.38652579E+00 0.64180756E+03</pdfrwt>
<pdfrwt beam="2">0</pdfrwt>
<totfact> 0.15378853E+00</totfact>
</mgrwt>
</event>
<event>
 6    1  0.2220303E-003  0.6422350E+03  0.7818608E-02  0.9821460E-01
          1   -1    0    0  502    0  0.00000000000E+00  0.00000000000E+00  0.10311702898E+03  0.10311702898E+03  0.00000000000E+00 0.  1.
         13   -1    0    0    0    0 -0.00000000000E+00 -0.00000000000E+00 -0.10000000000E+04  0.10000000000E+04  0.00000000000E+00 0.  1.
    9000005    2    1    2  501    0 -0.11578356487E-03 -0.22670291649E-04 -0.89688355804E+03  0.11031164302E+04  0.64223495850E+03 0.  0.
         13    1    3    3    0    0 -0.31177310144E+03 -0.43158181505E+02 -0.33911452796E+03  0.46267024811E+03  0.00000000000E+00 0.  1.
          3    1    3    3  501    0  0.31177298565E+03  0.43158158835E+02 -0.55776903008E+03  0.64044618211E+03  0.00000000000E+00 0.  1.
         21    1    1    2  502  501  0.11578356487E-03  0.22670291653E-04  0.58702447972E-03  0.59876332203E-03  0.00000000000E+00 0.  1.
<mgrwt>
<rscale>  1 0.64223496E+03</rscale>
<asrwt>0</asrwt>
<pdfrwt beam="1">  1        1 0.37497181E+00 0.64223496E+03</pdfrwt>
<pdfrwt beam="2">0</pdfrwt>
<totfact> 0.17293355E+00</totfact>
</mgrwt>
</event>
<event>
 6    1  0.2220303E-003  0.6490887E+03  0.7818608E-02  0.9808491E-01
          1   -1    0    0  502    0  0.00000000000E+00  0.00000000000E+00  0.10560072616E+03  0.10560072616E+03  0.00000000000E+00 0.  1.
         13   -1    0    0    0    0 -0.00000000000E+00 -0.00000000000E+00 -0.10000000000E+04  0.10000000000E+04  0.00000000000E+00 0.  1.
    9000005    2    1    2  501    0 -0.29034074316E+00  0.20946596917E+00 -0.89453401964E+03  0.11052181949E+04  0.64908860555E+03 0.  0.
         13    1    3    3    0    0  0.19572926302E+02  0.30096124100E+03 -0.24288057542E+03  0.38723602873E+03  0.00000000000E+00 0.  1.
          1    1    3    3  501    0 -0.19863267045E+02 -0.30075177503E+03 -0.65165344422E+03  0.71798216617E+03  0.00000000000E+00 0.  1.
         21    1    1    2  502  501  0.29034074316E+00 -0.20946596917E+00  0.13474580711E+00  0.38253126920E+00  0.00000000000E+00 0.  1.
<mgrwt>
<rscale>  1 0.64908870E+03</rscale>
<asrwt>0</asrwt>
<pdfrwt beam="1">  1        1 0.38400345E+00 0.64908870E+03</pdfrwt>
<pdfrwt beam="2">0</pdfrwt>
<totfact> 0.15757674E+00</totfact>
</mgrwt>
</event>
<event>
 6    1  0.2220303E-003  0.6479615E+03  0.7818608E-02  0.9810612E-01
          1   -1    0    0  502    0  0.00000000000E+00  0.00000000000E+00  0.11618983833E+03  0.11618983833E+03  0.00000000000E+00 0.  1.
         13   -1    0    0    0    0 -0.00000000000E+00 -0.00000000000E+00 -0.10000000000E+04  0.10000000000E+04  0.00000000000E+00 0.  1.
    9000005    2    1    2  501    0  0.28794592914E+01 -0.77712253576E+01 -0.89332124007E+03  0.11035746157E+04  0.64790848988E+03 0.  0.
         13    1    3    3    0    0  0.14212951415E+03 -0.29201174278E+03 -0.53130842470E+03  0.62270402188E+03  0.00000000000E+00 0.  1.
          1    1    3    3  501    0 -0.13925005485E+03  0.28424051742E+03 -0.36201281537E+03  0.48087059383E+03  0.00000000000E+00 0.  1.
         21    1    1    2  502  501 -0.28794592914E+01  0.77712253576E+01  0.95110783929E+01  0.12615222613E+02  0.00000000000E+00 0. -1.
<mgrwt>
<rscale>  1 0.64796149E+03</rscale>
<asrwt>0</asrwt>
<pdfrwt beam="1">  1        1 0.42250939E+00 0.64796149E+03</pdfrwt>
<pdfrwt beam="2">0</pdfrwt>
<totfact> 0.10607329E+00</totfact>
</mgrwt>
</event>
<event>
 6    1  0.2220303E-003  0.6374208E+03  0.7818608E-02  0.9830674E-01
          1   -1    0    0  502    0  0.00000000000E+00  0.00000000000E+00  0.10197077313E+03  0.10197077313E+03  0.00000000000E+00 0.  1.
         13   -1    0    0    0    0 -0.00000000000E+00 -0.00000000000E+00 -0.10000000000E+04  0.10000000000E+04  0.00000000000E+00 0.  1.
    9000005    2    1    2  501    0 -0.20894754499E-01  0.13168325782E-01 -0.89842325760E+03  0.11015759691E+04  0.63742079142E+03 0.  0.
         13    1    3    3    0    0 -0.17477452499E+03  0.26546145167E+03 -0.40805664989E+03  0.51722929773E+03  0.00000000000E+00 0.  1.
          1    1    3    3  501    0  0.17475363024E+03 -0.26544828334E+03 -0.49036660770E+03  0.58434667139E+03  0.00000000000E+00 0.  1.
         21    1    1    2  502  501  0.20894754499E-01 -0.13168325782E-01  0.39403072253E+00  0.39480400943E+00  0.00000000000E+00 0.  1.
<mgrwt>
<rscale>  1 0.63742079E+03</rscale>
<asrwt>0</asrwt>
<pdfrwt beam="1">  1        1 0.37080359E+00 0.63742079E+03</pdfrwt>
<pdfrwt beam="2">0</pdfrwt>
<totfact> 0.18054727E+00</totfact>
</mgrwt>
</event>
<event>
 6    1  0.2220303E-003  0.6449391E+03  0.7818608E-02  0.9816322E-01
          1   -1    0    0  502    0  0.00000000000E+00  0.00000000000E+00  0.10398671878E+03  0.10398671878E+03  0.00000000000E+00 0.  1.
         13   -1    0    0    0    0 -0.00000000000E+00 -0.00000000000E+00 -0.10000000000E+04  0.10000000000E+04  0.00000000000E+00 0.  1.
    9000005    2    1    2  501    0  0.31730566079E-03 -0.39616148825E-04 -0.89601296710E+03  0.11039862705E+04  0.64493910434E+03 0.  0.
         13    1    3    3    0    0 -0.24717394380E+03 -0.20646684097E+03 -0.42024469611E+03  0.52946115960E+03  0.00000000000E+00 0.  1.
          1    1    3    3  501    0  0.24717426110E+03  0.20646680136E+03 -0.47576827099E+03  0.57452511093E+03  0.00000000000E+00 0.  1.
         21    1    1    2  502  501 -0.31730566079E-03  0.39616148828E-04 -0.31411860324E-03  0.44824415057E-03  0.00000000000E+00 0.  1.
<mgrwt>
<rscale>  1 0.64493910E+03</rscale>
<asrwt>0</asrwt>
<pdfrwt beam="1">  1        1 0.37813432E+00 0.64493910E+03</pdfrwt>
<pdfrwt beam="2">0</pdfrwt>
<totfact> 0.16739144E+00</totfact>
</mgrwt>
</event>
<event>
 6    1  0.2220303E-003  0.6517008E+03  0.7818608E-02  0.9803593E-01
          1   -1    0    0  502    0  0.00000000000E+00  0.00000000000E+00  0.10620370127E+03  0.10620370127E+03  0.00000000000E+00 0.  1.
         13   -1    0    0    0    0 -0.00000000000E+00 -0.00000000000E+00 -0.10000000000E+04  0.10000000000E+04  0.00000000000E+00 0.  1.
    9000005    2    1    2  501    0 -0.12151024652E-02  0.21443989576E-02 -0.89382145520E+03  0.11061784243E+04  0.65170078466E+03 0.  0.
         13    1    3    3    0    0 -0.24143915402E+03 -0.21348153884E+03 -0.36531143616E+03  0.48715467555E+03  0.00000000000E+00 0.  1.
          1    1    3    3  501    0  0.24143793892E+03  0.21348368323E+03 -0.52851001904E+03  0.61902374880E+03  0.00000000000E+00 0.  1.
         21    1    1    2  502  501  0.12151024652E-02 -0.21443989576E-02  0.25156465102E-01  0.25276919458E-01  0.00000000000E+00 0. -1.
<mgrwt>
<rscale>  1 0.65170078E+03</rscale>
<asrwt>0</asrwt>
<pdfrwt beam="1">  1        1 0.38619609E+00 0.65170078E+03</pdfrwt>
<pdfrwt beam="2">0</pdfrwt>
<totfact> 0.15402229E+00</totfact>
</mgrwt>
</event>
<event>
 6    1  0.2220303E-003  0.6395058E+03  0.7818608E-02  0.9826672E-01
          1   -1    0    0  502    0  0.00000000000E+00  0.00000000000E+00  0.10231515240E+03  0.10231515240E+03  0.00000000000E+00 0.  1.
         13   -1    0    0    0    0 -0.00000000000E+00 -0.00000000000E+00 -0.10000000000E+04  0.10000000000E+04  0.00000000000E+00 0.  1.
    9000005    2    1    2  501    0 -0.53925561918E-02 -0.32026367223E-02 -0.89775793063E+03  0.11022418007E+04  0.63950581331E+03 0.  0.
         13    1    3    3    0    0  0.28968548069E+02  0.19957797003E+03 -0.21197148568E+02  0.20278032943E+03  0.00000000000E+00 0.  1.
          3    1    3    3  501    0 -0.28973940625E+02 -0.19958117267E+03 -0.87656078206E+03  0.89946147131E+03  0.00000000000E+00 0.  1.
         21    1    1    2  502  501  0.53925561918E-02  0.32026367223E-02  0.73083033482E-01  0.73351662062E-01  0.00000000000E+00 0. -1.
<mgrwt>
<rscale>  1 0.63950581E+03</rscale>
<asrwt>0</asrwt>
<pdfrwt beam="1">  1        1 0.37205588E+00 0.63950581E+03</pdfrwt>
<pdfrwt beam="2">0</pdfrwt>
<totfact> 0.17820603E+00</totfact>
</mgrwt>
</event>
<event>
 6    1  0.2220303E-003  0.6488054E+03  0.7818608E-02  0.9809023E-01
          1   -1    0    0  502    0  0.00000000000E+00  0.00000000000E+00  0.10524448523E+03  0.10524448523E+03  0.00000000000E+00 0.  1.
         13   -1    0    0    0    0 -0.00000000000E+00 -0.00000000000E+00 -0.10000000000E+04  0.10000000000E+04  0.00000000000E+00 0.  1.
    9000005    2    1    2  501    0 -0.92639960997E-04  0.13387565764E-02 -0.89476281546E+03  0.11052370622E+04  0.64880541599E+03 0.  0.
         13    1    3    3    0    0 -0.27344000236E+03  0.14965023652E+03 -0.29432574314E+03  0.42871000835E+03  0.00000000000E+00 0.  1.
          3    1    3    3  501    0  0.27343990972E+03 -0.14964889776E+03 -0.60043707231E+03  0.67652705389E+03  0.00000000000E+00 0.  1.
         21    1    1    2  502  501  0.92639960970E-04 -0.13387565764E-02  0.73006888192E-02  0.74229986237E-02  0.00000000000E+00 0.  1.
<mgrwt>
<rscale>  1 0.64880542E+03</rscale>
<asrwt>0</asrwt>
<pdfrwt beam="1">  1        1 0.38270803E+00 0.64880542E+03</pdfrwt>
<pdfrwt beam="2">0</pdfrwt>
<totfact> 0.15967612E+00</totfact>
</mgrwt>
</event>
<event>
 6    1  0.2220303E-003  0.6447617E+03  0.7818608E-02  0.9816658E-01
          1   -1    0    0  502    0  0.00000000000E+00  0.00000000000E+00  0.10392989604E+03  0.10392989604E+03  0.00000000000E+00 0.  1.
         13   -1    0    0    0    0 -0.00000000000E+00 -0.00000000000E+00 -0.10000000000E+04  0.10000000000E+04  0.00000000000E+00 0.  1.
    9000005    2    1    2  501    0 -0.21008589385E-04  0.21109392506E-04 -0.89607057890E+03  0.11039294202E+04  0.64476172526E+03 0.  0.
         13    1    3    3    0    0 -0.30106968450E+03  0.12421168382E+02 -0.25183007110E+03  0.39270297307E+03  0.00000000000E+00 0.  1.
          1    1    3    3  501    0  0.30106966349E+03 -0.12421147272E+02 -0.64424050780E+03  0.71122644710E+03  0.00000000000E+00 0.  1.
         21    1    1    2  502  501  0.21008589377E-04 -0.21109392507E-04  0.47493280691E-03  0.47586567260E-03  0.00000000000E+00 0. -1.
<mgrwt>
<rscale>  1 0.64476173E+03</rscale>
<asrwt>0</asrwt>
<pdfrwt beam="1">  1        1 0.37792769E+00 0.64476173E+03</pdfrwt>
<pdfrwt beam="2">0</pdfrwt>
<totfact> 0.16774834E+00</totfact>
</mgrwt>
</event>
<event>
 6    1  0.2220303E-003  0.6590608E+03  0.7818608E-02  0.9789924E-01
          1   -1    0    0  502    0  0.00000000000E+00  0.00000000000E+00  0.11549078890E+03  0.11549078890E+03  0.00000000000E+00 0.  1.
         13   -1    0    0    0    0 -0.00000000000E+00 -0.00000000000E+00 -0.10000000000E+04  0.10000000000E+04  0.00000000000E+00 0.  1.
    9000005    2    1    2  501    0 -0.12833896962E+01  0.35978918084E+01 -0.89081865820E+03  0.11081150830E+04  0.65904974281E+03 0.  0.
         13    1    3    3    0    0 -0.83288617750E+02  0.58824696574E+02  0.81652511544E+02  0.13063105073E+03  0.00000000000E+00 0.  1.
          1    1    3    3  501    0  0.82005228054E+02 -0.55226804766E+02 -0.97247116974E+03  0.97748403229E+03  0.00000000000E+00 0.  1.
         21    1    1    2  502  501  0.12833896962E+01 -0.35978918084E+01  0.63094470989E+01  0.73757058829E+01  0.00000000000E+00 0. -1.
<mgrwt>
<rscale>  1 0.65906081E+03</rscale>
<asrwt>0</asrwt>
<pdfrwt beam="1">  1        1 0.41996739E+00 0.65906081E+03</pdfrwt>
<pdfrwt beam="2">0</pdfrwt>
<totfact> 0.10867515E+00</totfact>
</mgrwt>
</event>
<event>
 6    1  0.2220303E-003  0.6638340E+03  0.7818608E-02  0.9781161E-01
          1   -1    0    0  502    0  0.00000000000E+00  0.00000000000E+00  0.11021115755E+03  0.11021115755E+03  0.00000000000E+00 0.  1.
         13   -1    0    0    0    0 -0.00000000000E+00 -0.00000000000E+00 -0.10000000000E+04  0.10000000000E+04  0.00000000000E+00 0.  1.
    9000005    2    1    2  501    0 -0.80597757770E-01  0.93016110973E-01 -0.88956384164E+03  0.11099546944E+04  0.66383400040E+03 0.  0.
         13    1    3    3    0    0 -0.20106670366E+03  0.11612542229E+03 -0.48161958671E+02  0.23713394376E+03  0.00000000000E+00 0.  1.
          1    1    3    3  501    0  0.20098610590E+03 -0.11603240618E+03 -0.84140188297E+03  0.87282075062E+03  0.00000000000E+00 0.  1.
         21    1    1    2  502  501  0.80597757770E-01 -0.93016110973E-01 -0.22500080217E+00  0.25646316780E+00  0.00000000000E+00 0. -1.
<mgrwt>
<rscale>  1 0.66383401E+03</rscale>
<asrwt>0</asrwt>
<pdfrwt beam="1">  1        1 0.40076869E+00 0.66383401E+03</pdfrwt>
<pdfrwt beam="2">0</pdfrwt>
<totfact> 0.13238943E+00</totfact>
</mgrwt>
</event>
<event>
 6    1  0.2220303E-003  0.6529541E+03  0.7818608E-02  0.9801252E-01
          1   -1    0    0  502    0  0.00000000000E+00  0.00000000000E+00  0.10658741727E+03  0.10658741727E+03  0.00000000000E+00 0.  1.
         13   -1    0    0    0    0 -0.00000000000E+00 -0.00000000000E+00 -0.10000000000E+04  0.10000000000E+04  0.00000000000E+00 0.  1.
    9000005    2    1    2  501    0 -0.34994876302E-04 -0.16264297187E-04 -0.89341272194E+03  0.11065872728E+04  0.65295413362E+03 0.  0.
         13    1    3    3    0    0 -0.20067683886E+03 -0.18703596143E+03 -0.14671524446E+03  0.31109324563E+03  0.00000000000E+00 0.  1.
          3    1    3    3  501    0  0.20067680386E+03  0.18703594517E+03 -0.74669747748E+03  0.79549402718E+03  0.00000000000E+00 0.  1.
         21    1    1    2  502  501  0.34994876311E-04  0.16264297200E-04  0.13921223971E-03  0.14446181647E-03  0.00000000000E+00 0.  1.
<mgrwt>
<rscale>  1 0.65295413E+03</rscale>
<asrwt>0</asrwt>
<pdfrwt beam="1">  1        1 0.38759143E+00 0.65295413E+03</pdfrwt>
<pdfrwt beam="2">0</pdfrwt>
<totfact> 0.15181161E+00</totfact>
</mgrwt>
</event>
<event>
 6    1  0.2220303E-003  0.6772180E+03  0.7818608E-02  0.9757006E-01
          1   -1    0    0  502    0  0.00000000000E+00  0.00000000000E+00  0.14263558192E+03  0.14263558192E+03  0.00000000000E+00 0.  1.
         13   -1    0    0    0    0 -0.00000000000E+00 -0.00000000000E+00 -0.10000000000E+04  0.10000000000E+04  0.00000000000E+00 0.  1.
    9000005    2    1    2  501    0 -0.13014730806E+01  0.25492807193E+01 -0.88526231117E+03  0.11145912402E+04  0.67721199078E+03 0.  0.
         13    1    3    3    0    0 -0.17456866230E+03 -0.28887473634E+03 -0.41720147446E+03  0.53663758855E+03  0.00000000000E+00 0.  1.
          1    1    3    3  501    0  0.17326718922E+03  0.29142401706E+03 -0.46806083671E+03  0.57795365163E+03  0.00000000000E+00 0.  1.
         21    1    1    2  502  501  0.13014730806E+01 -0.25492807193E+01  0.27897893094E+02  0.28044341737E+02  0.00000000000E+00 0.  1.
<mgrwt>
<rscale>  1 0.67721804E+03</rscale>
<asrwt>0</asrwt>
<pdfrwt beam="1">  1        1 0.51867594E+00 0.67721804E+03</pdfrwt>
<pdfrwt beam="2">0</pdfrwt>
<totfact> 0.37290779E-01</totfact>
</mgrwt>
</event>
<event>
 6    1  0.2220303E-003  0.6468725E+03  0.7818608E-02  0.9812665E-01
          1   -1    0    0  502    0  0.00000000000E+00  0.00000000000E+00  0.10461122010E+03  0.10461122010E+03  0.00000000000E+00 0.  1.
         13   -1    0    0    0    0 -0.00000000000E+00 -0.00000000000E+00 -0.10000000000E+04  0.10000000000E+04  0.00000000000E+00 0.  1.
    9000005    2    1    2  501    0 -0.24399376971E-03 -0.38470631182E-04 -0.89538891509E+03  0.11046109385E+04  0.64687248838E+03 0.  0.
         13    1    3    3    0    0 -0.17814430416E+03 -0.26799097009E+03 -0.39219030570E+03  0.50731429019E+03  0.00000000000E+00 0.  1.
          1    1    3    3  501    0  0.17814406017E+03  0.26799093161E+03 -0.50319860940E+03  0.59729664832E+03  0.00000000000E+00 0.  1.
         21    1    1    2  502  501  0.24399376971E-03  0.38470631172E-04  0.13519402635E-03  0.28158546461E-03  0.00000000000E+00 0.  1.
<mgrwt>
<rscale>  1 0.64687249E+03</rscale>
<asrwt>0</asrwt>
<pdfrwt beam="1">  1        1 0.38040524E+00 0.64687249E+03</pdfrwt>
<pdfrwt beam="2">0</pdfrwt>
<totfact> 0.16351693E+00</totfact>
</mgrwt>
</event>
<event>
 6    1  0.2220303E-003  0.6520762E+03  0.7818608E-02  0.9802891E-01
          1   -1    0    0  502    0  0.00000000000E+00  0.00000000000E+00  0.10630084281E+03  0.10630084281E+03  0.00000000000E+00 0.  1.
         13   -1    0    0    0    0 -0.00000000000E+00 -0.00000000000E+00 -0.10000000000E+04  0.10000000000E+04  0.00000000000E+00 0.  1.
    9000005    2    1    2  501    0  0.43021090050E-05 -0.88061540922E-05 -0.89369916425E+03  0.11063008307E+04  0.65207617031E+03 0.  0.
         13    1    3    3    0    0 -0.31542398960E+03 -0.39566563630E+02 -0.56969696210E+03  0.65238978747E+03  0.00000000000E+00 0.  1.
          3    1    3    3  501    0  0.31542399390E+03  0.39566554824E+02 -0.32400220215E+03  0.45391104326E+03  0.00000000000E+00 0.  1.
         21    1    1    2  502  501 -0.43021089660E-05  0.88061540983E-05  0.70578593132E-05  0.12077659941E-04  0.00000000000E+00 0.  1.
<mgrwt>
<rscale>  1 0.65207617E+03</rscale>
<asrwt>0</asrwt>
<pdfrwt beam="1">  1        1 0.38654933E+00 0.65207617E+03</pdfrwt>
<pdfrwt beam="2">0</pdfrwt>
<totfact> 0.15345812E+00</totfact>
</mgrwt>
</event>
<event>
 6    1  0.2220303E-003  0.5696611E+03  0.7818608E-02  0.9970429E-01
          1   -1    0    0  502    0  0.00000000000E+00  0.00000000000E+00  0.81135690915E+02  0.81135690915E+02  0.00000000000E+00 0.  1.
         13   -1    0    0    0    0 -0.00000000000E+00 -0.00000000000E+00 -0.10000000000E+04  0.10000000000E+04  0.00000000000E+00 0.  1.
    9000005    2    1    2  501    0  0.18862172732E-03 -0.13332694337E-04 -0.91887154752E+03  0.10811284500E+04  0.56966113136E+03 0.  0.
         13    1    3    3    0    0  0.21007390411E+03  0.11924739452E+03 -0.74586275542E+03  0.78400397717E+03  0.00000000000E+00 0.  1.
          1    1    3    3  501    0 -0.21007371549E+03 -0.11924740785E+03 -0.17300879210E+03  0.29712447285E+03  0.00000000000E+00 0.  1.
         21    1    1    2  502  501 -0.18862172731E-03  0.13332694335E-04  0.72384340428E-02  0.72409034870E-02  0.00000000000E+00 0.  1.
<mgrwt>
<rscale>  1 0.56966113E+03</rscale>
<asrwt>0</asrwt>
<pdfrwt beam="1">  1        1 0.29503950E+00 0.56966113E+03</pdfrwt>
<pdfrwt beam="2">0</pdfrwt>
<totfact> 0.38970433E+00</totfact>
</mgrwt>
</event>
<event>
 6    1  0.2220303E-003  0.6563097E+03  0.7818608E-02  0.9795011E-01
          1   -1    0    0  502    0  0.00000000000E+00  0.00000000000E+00  0.10802327021E+03  0.10802327021E+03  0.00000000000E+00 0.  1.
         13   -1    0    0    0    0 -0.00000000000E+00 -0.00000000000E+00 -0.10000000000E+04  0.10000000000E+04  0.00000000000E+00 0.  1.
    9000005    2    1    2  501    0 -0.23520392319E+00 -0.32236147275E+00 -0.89217847000E+03  0.11075761272E+04  0.65630960367E+03 0.  0.
         13    1    3    3    0    0  0.27542698842E+03 -0.17461258570E+03 -0.38458558429E+03  0.50423769462E+03  0.00000000000E+00 0.  1.
          3    1    3    3  501    0 -0.27566219234E+03  0.17429022423E+03 -0.50759288571E+03  0.60333843253E+03  0.00000000000E+00 0.  1.
         21    1    1    2  502  501  0.23520392319E+00  0.32236147275E+00  0.20174020767E+00  0.44714305987E+00  0.00000000000E+00 0.  1.
<mgrwt>
<rscale>  1 0.65630972E+03</rscale>
<asrwt>0</asrwt>
<pdfrwt beam="1">  1        1 0.39281272E+00 0.65630972E+03</pdfrwt>
<pdfrwt beam="2">0</pdfrwt>
<totfact> 0.14383911E+00</totfact>
</mgrwt>
</event>
<event>
 6    1  0.2220303E-003  0.6072948E+03  0.7818608E-02  0.9890386E-01
          3   -1    0    0  502    0  0.00000000000E+00  0.00000000000E+00  0.92202705629E+02  0.92202705629E+02  0.00000000000E+00 0.  1.
         13   -1    0    0    0    0 -0.00000000000E+00 -0.00000000000E+00 -0.10000000000E+04  0.10000000000E+04  0.00000000000E+00 0.  1.
    9000005    2    1    2  501    0  0.43681638477E-04  0.32346158491E-04 -0.90779824493E+03  0.10922017535E+04  0.60729483522E+03 0.  0.
         13    1    3    3    0    0 -0.28176635188E+02  0.29929453122E+03 -0.37695017588E+03  0.48214372783E+03  0.00000000000E+00 0.  1.
          1    1    3    3  501    0  0.28176678869E+02 -0.29929449888E+03 -0.53084806905E+03  0.61005802569E+03  0.00000000000E+00 0.  1.
         21    1    1    2  502  501 -0.43681638476E-04 -0.32346158488E-04  0.95055915417E-03  0.95211189736E-03  0.00000000000E+00 0. -1.
<mgrwt>
<rscale>  1 0.60729484E+03</rscale>
<asrwt>0</asrwt>
<pdfrwt beam="1">  1        3 0.33528327E+00 0.60729484E+03</pdfrwt>
<pdfrwt beam="2">0</pdfrwt>
<totfact> 0.13136203E-01</totfact>
</mgrwt>
</event>
<event>
 6    1  0.2220303E-003  0.6542967E+03  0.7818608E-02  0.9798750E-01
          1   -1    0    0  502    0  0.00000000000E+00  0.00000000000E+00  0.10703715534E+03  0.10703715534E+03  0.00000000000E+00 0.  1.
         13   -1    0    0    0    0 -0.00000000000E+00 -0.00000000000E+00 -0.10000000000E+04  0.10000000000E+04  0.00000000000E+00 0.  1.
    9000005    2    1    2  501    0  0.21076588024E-01  0.20380571622E-01 -0.89288743019E+03  0.11069562422E+04  0.65429668985E+03 0.  0.
         13    1    3    3    0    0 -0.46743098222E+02 -0.32121991230E+03 -0.51517859025E+03  0.60891389304E+03  0.00000000000E+00 0.  1.
          3    1    3    3  501    0  0.46764174810E+02  0.32124029287E+03 -0.37770883994E+03  0.49804234918E+03  0.00000000000E+00 0.  1.
         21    1    1    2  502  501 -0.21076588024E-01 -0.20380571622E-01 -0.75414470493E-01  0.80913117738E-01  0.00000000000E+00 0.  1.
<mgrwt>
<rscale>  1 0.65429669E+03</rscale>
<asrwt>0</asrwt>
<pdfrwt beam="1">  1        1 0.38922684E+00 0.65429669E+03</pdfrwt>
<pdfrwt beam="2">0</pdfrwt>
<totfact> 0.14926239E+00</totfact>
</mgrwt>
</event>
<event>
 6    1  0.2220303E-003  0.6500031E+03  0.7818608E-02  0.9806773E-01
          1   -1    0    0  502    0  0.00000000000E+00  0.00000000000E+00  0.10568945256E+03  0.10568945256E+03  0.00000000000E+00 0.  1.
         13   -1    0    0    0    0 -0.00000000000E+00 -0.00000000000E+00 -0.10000000000E+04  0.10000000000E+04  0.00000000000E+00 0.  1.
    9000005    2    1    2  501    0 -0.15428791086E-02 -0.14014474328E-03 -0.89437399681E+03  0.11056259843E+04  0.65000305456E+03 0.  0.
         13    1    3    3    0    0  0.15716922254E+03  0.28329483274E+03 -0.49113506959E+03  0.58836364890E+03  0.00000000000E+00 0.  1.
          3    1    3    3  501    0 -0.15717076542E+03 -0.28329497289E+03 -0.40323892723E+03  0.51726233537E+03  0.00000000000E+00 0.  1.
         21    1    1    2  502  501  0.15428791086E-02  0.14014474325E-03  0.63449373026E-01  0.63468283843E-01  0.00000000000E+00 0. -1.
<mgrwt>
<rscale>  1 0.65000305E+03</rscale>
<asrwt>0</asrwt>
<pdfrwt beam="1">  1        1 0.38432609E+00 0.65000305E+03</pdfrwt>
<pdfrwt beam="2">0</pdfrwt>
<totfact> 0.15703350E+00</totfact>
</mgrwt>
</event>
<event>
 6    1  0.2220303E-003  0.6478041E+03  0.7818608E-02  0.9810908E-01
          1   -1    0    0  502    0  0.00000000000E+00  0.00000000000E+00  0.10491349068E+03  0.10491349068E+03  0.00000000000E+00 0.  1.
         13   -1    0    0    0    0 -0.00000000000E+00 -0.00000000000E+00 -0.10000000000E+04  0.10000000000E+04  0.00000000000E+00 0.  1.
    9000005    2    1    2  501    0  0.10272496985E-03 -0.99075676872E-05 -0.89508745150E+03  0.11049125429E+04  0.64780412283E+03 0.  0.
         13    1    3    3    0    0  0.76506197393E+02  0.26575302363E+03 -0.15993081774E+03  0.31946163192E+03  0.00000000000E+00 0.  1.
          1    1    3    3  501    0 -0.76506094668E+02 -0.26575303353E+03 -0.73515663375E+03  0.78545091095E+03  0.00000000000E+00 0.  1.
         21    1    1    2  502  501 -0.10272496985E-03  0.99075676673E-05  0.94217436710E-03  0.94780964194E-03  0.00000000000E+00 0. -1.
<mgrwt>
<rscale>  1 0.64780412E+03</rscale>
<asrwt>0</asrwt>
<pdfrwt beam="1">  1        1 0.38150441E+00 0.64780412E+03</pdfrwt>
<pdfrwt beam="2">0</pdfrwt>
<totfact> 0.16167253E+00</totfact>
</mgrwt>
</event>
<event>
 6    1  0.2220303E-003  0.6495038E+03  0.7818608E-02  0.9807711E-01
          1   -1    0    0  502    0  0.00000000000E+00  0.00000000000E+00  0.10577291357E+03  0.10577291357E+03  0.00000000000E+00 0.  1.
         13   -1    0    0    0    0 -0.00000000000E+00 -0.00000000000E+00 -0.10000000000E+04  0.10000000000E+04  0.00000000000E+00 0.  1.
    9000005    2    1    2  501    0 -0.12100170922E-01  0.37674871207E-02 -0.89453605141E+03  0.11054636888E+04  0.64950382585E+03 0.  0.
         13    1    3    3    0    0  0.26416049201E+03  0.10270922244E+03 -0.17744585228E+03  0.33439046099E+03  0.00000000000E+00 0.  1.
          1    1    3    3  501    0 -0.26417259218E+03 -0.10270545495E+03 -0.71709019913E+03  0.77107322779E+03  0.00000000000E+00 0.  1.
         21    1    1    2  502  501  0.12100170922E-01 -0.37674871207E-02  0.30896497939E+00  0.30922478327E+00  0.00000000000E+00 0.  1.
<mgrwt>
<rscale>  1 0.64950383E+03</rscale>
<asrwt>0</asrwt>
<pdfrwt beam="1">  1        1 0.38462959E+00 0.64950383E+03</pdfrwt>
<pdfrwt beam="2">0</pdfrwt>
<totfact> 0.15656342E+00</totfact>
</mgrwt>
</event>
<event>
 6    1  0.2220303E-003  0.6637676E+03  0.7818608E-02  0.9781283E-01
          1   -1    0    0  502    0  0.00000000000E+00  0.00000000000E+00  0.11728646646E+03  0.11728646646E+03  0.00000000000E+00 0.  1.
         13   -1    0    0    0    0 -0.00000000000E+00 -0.00000000000E+00 -0.10000000000E+04  0.10000000000E+04  0.00000000000E+00 0.  1.
    9000005    2    1    2  501    0 -0.20071806280E+00  0.42603966219E+00 -0.88984452617E+03  0.11101399391E+04  0.66376741545E+03 0.  0.
         13    1    3    3    0    0  0.11804014900E+03 -0.26625099239E+03 -0.71007286210E+03  0.76748064290E+03  0.00000000000E+00 0.  1.
          1    1    3    3  501    0 -0.11824086706E+03  0.26667703205E+03 -0.17977166407E+03  0.34265929620E+03  0.00000000000E+00 0.  1.
         21    1    1    2  502  501  0.20071806280E+00 -0.42603966219E+00  0.71309926281E+01  0.71465273662E+01  0.00000000000E+00 0.  1.
<mgrwt>
<rscale>  1 0.66376758E+03</rscale>
<asrwt>0</asrwt>
<pdfrwt beam="1">  1        1 0.42649714E+00 0.66376758E+03</pdfrwt>
<pdfrwt beam="2">0</pdfrwt>
<totfact> 0.10143975E+00</totfact>
</mgrwt>
</event>
<event>
 6    1  0.2220303E-003  0.6361837E+03  0.7818608E-02  0.9833056E-01
          1   -1    0    0  502    0  0.00000000000E+00  0.00000000000E+00  0.10257769273E+03  0.10257769273E+03  0.00000000000E+00 0.  1.
         13   -1    0    0    0    0 -0.00000000000E+00 -0.00000000000E+00 -0.10000000000E+04  0.10000000000E+04  0.00000000000E+00 0.  1.
    9000005    2    1    2  501    0  0.53569185036E-03 -0.35527134664E+00 -0.89879264378E+03  0.11011620515E+04  0.63618355911E+03 0.  0.
         13    1    3    3    0    0  0.30348127161E+03 -0.13767949000E+02 -0.61267110876E+03  0.68385402400E+03  0.00000000000E+00 0.  1.
          1    1    3    3  501    0 -0.30348073591E+03  0.13412677654E+02 -0.28612153502E+03  0.41730802748E+03  0.00000000000E+00 0.  1.
         21    1    1    2  502  501 -0.53569185041E-03  0.35527134664E+00  0.13703365129E+01  0.14156412594E+01  0.00000000000E+00 0. -1.
<mgrwt>
<rscale>  1 0.63618366E+03</rscale>
<asrwt>0</asrwt>
<pdfrwt beam="1">  1        1 0.37301058E+00 0.63618366E+03</pdfrwt>
<pdfrwt beam="2">0</pdfrwt>
<totfact> 0.17659943E+00</totfact>
</mgrwt>
</event>
<event>
 6    1  0.2220303E-003  0.6823434E+03  0.7818608E-02  0.9747913E-01
          1   -1    0    0  502    0  0.00000000000E+00  0.00000000000E+00  0.11746297889E+03  0.11746297889E+03  0.00000000000E+00 0.  1.
         13   -1    0    0    0    0 -0.00000000000E+00 -0.00000000000E+00 -0.10000000000E+04  0.10000000000E+04  0.00000000000E+00 0.  1.
    9000005    2    1    2  501    0 -0.56741071307E+00  0.38951606581E+00 -0.88347615945E+03  0.11162986514E+04  0.68234308169E+03 0.  0.
         13    1    3    3    0    0  0.18335504501E+03  0.16602275644E+02  0.28077548236E+02  0.18623387662E+03  0.00000000000E+00 0.  1.
          1    1    3    3  501    0 -0.18392245572E+03 -0.16212759578E+02 -0.91155370768E+03  0.93006477478E+03  0.00000000000E+00 0.  1.
         21    1    1    2  502  501  0.56741071307E+00 -0.38951606581E+00  0.93913834117E+00  0.11643274912E+01  0.00000000000E+00 0. -1.
<mgrwt>
<rscale>  1 0.68234343E+03</rscale>
<asrwt>0</asrwt>
<pdfrwt beam="1">  1        1 0.42713901E+00 0.68234343E+03</pdfrwt>
<pdfrwt beam="2">0</pdfrwt>
<totfact> 0.10039951E+00</totfact>
</mgrwt>
</event>
<event>
 6    1  0.2220303E-003  0.6486513E+03  0.7818608E-02  0.9809313E-01
          1   -1    0    0  502    0  0.00000000000E+00  0.00000000000E+00  0.10908300235E+03  0.10908300235E+03  0.00000000000E+00 0.  1.
         13   -1    0    0    0    0 -0.00000000000E+00 -0.00000000000E+00 -0.10000000000E+04  0.10000000000E+04  0.00000000000E+00 0.  1.
    9000005    2    1    2  501    0  0.21188984880E+01 -0.15216030095E+01 -0.89432439411E+03  0.11047916905E+04  0.64864609191E+03 0.  0.
         13    1    3    3    0    0  0.22351863490E+03  0.22189899150E+03 -0.31420078093E+03  0.44488411222E+03  0.00000000000E+00 0.  1.
          1    1    3    3  501    0 -0.22139973641E+03 -0.22342059451E+03 -0.58012361318E+03  0.65990757830E+03  0.00000000000E+00 0.  1.
         21    1    1    2  502  501 -0.21188984880E+01  0.15216030095E+01  0.34073964595E+01  0.42913118220E+01  0.00000000000E+00 0.  1.
<mgrwt>
<rscale>  1 0.64865134E+03</rscale>
<asrwt>0</asrwt>
<pdfrwt beam="1">  1        1 0.39666630E+00 0.64865134E+03</pdfrwt>
<pdfrwt beam="2">0</pdfrwt>
<totfact> 0.13847505E+00</totfact>
</mgrwt>
</event>
<event>
 6    1  0.2220303E-003  0.5475015E+03  0.7818608E-02  0.1002074E+00
          3   -1    0    0  502    0  0.00000000000E+00  0.00000000000E+00  0.74942746360E+02  0.74942746360E+02  0.00000000000E+00 0.  1.
         13   -1    0    0    0    0 -0.00000000000E+00 -0.00000000000E+00 -0.10000000000E+04  0.10000000000E+04  0.00000000000E+00 0.  1.
    9000005    2    1    2  501    0  0.46525728860E-03  0.61864283964E-03 -0.92506049092E+03  0.10749394178E+04  0.54750145219E+03 0.  0.
         13    1    3    3    0    0 -0.65611468982E+02  0.19626481018E+03 -0.81437553435E+03  0.84025725318E+03  0.00000000000E+00 0.  1.
          3    1    3    3  501    0  0.65611934239E+02 -0.19626419153E+03 -0.11068495657E+03  0.23468216465E+03  0.00000000000E+00 0.  1.
         21    1    1    2  502  501 -0.46525728859E-03 -0.61864283962E-03  0.32372747931E-02  0.33285329191E-02  0.00000000000E+00 0.  1.
<mgrwt>
<rscale>  1 0.54750145E+03</rscale>
<asrwt>0</asrwt>
<pdfrwt beam="1">  1        3 0.27251965E+00 0.54750145E+03</pdfrwt>
<pdfrwt beam="2">0</pdfrwt>
<totfact> 0.28960607E-01</totfact>
</mgrwt>
</event>
<event>
 6    1  0.2220303E-003  0.6454896E+03  0.7818608E-02  0.9815280E-01
          1   -1    0    0  502    0  0.00000000000E+00  0.00000000000E+00  0.10608153616E+03  0.10608153616E+03  0.00000000000E+00 0.  1.
         13   -1    0    0    0    0 -0.00000000000E+00 -0.00000000000E+00 -0.10000000000E+04  0.10000000000E+04  0.00000000000E+00 0.  1.
    9000005    2    1    2  501    0  0.78331765106E-01  0.16235018514E+00 -0.89583112912E+03  0.11041603954E+04  0.64548953075E+03 0.  0.
         13    1    3    3    0    0  0.73134854961E+02  0.11404282074E+02 -0.98531752287E+03  0.98809381414E+03  0.00000000000E+00 0.  1.
          3    1    3    3  501    0 -0.73056523196E+02 -0.11241931889E+02  0.89486393747E+02  0.11606658124E+03  0.00000000000E+00 0.  1.
         21    1    1    2  502  501 -0.78331765106E-01 -0.16235018514E+00  0.19126652774E+01  0.19211407839E+01  0.00000000000E+00 0. -1.
<mgrwt>
<rscale>  1 0.64548956E+03</rscale>
<asrwt>0</asrwt>
<pdfrwt beam="1">  1        1 0.38575185E+00 0.64548956E+03</pdfrwt>
<pdfrwt beam="2">0</pdfrwt>
<totfact> 0.15489936E+00</totfact>
</mgrwt>
</event>
<event>
 6    1  0.2220303E-003  0.5669046E+03  0.7818608E-02  0.9976552E-01
          1   -1    0    0  502    0  0.00000000000E+00  0.00000000000E+00  0.80603397635E+02  0.80603397635E+02  0.00000000000E+00 0.  1.
         13   -1    0    0    0    0 -0.00000000000E+00 -0.00000000000E+00 -0.10000000000E+04  0.10000000000E+04  0.00000000000E+00 0.  1.
    9000005    2    1    2  501    0 -0.52082561943E+00  0.23534485192E+00 -0.91927050897E+03  0.10800181233E+04  0.56690435816E+03 0.  0.
         13    1    3    3    0    0 -0.26014552644E+02 -0.18476214164E+03 -0.86592981603E+03  0.88580373234E+03  0.00000000000E+00 0.  1.
          3    1    3    3  501    0  0.25493727025E+02  0.18499748649E+03 -0.53340692939E+02  0.19421439094E+03  0.00000000000E+00 0.  1.
         21    1    1    2  502  501  0.52082561943E+00 -0.23534485192E+00 -0.12609339305E+00  0.58527435357E+00  0.00000000000E+00 0. -1.
<mgrwt>
<rscale>  1 0.56690465E+03</rscale>
<asrwt>0</asrwt>
<pdfrwt beam="1">  1        1 0.29310388E+00 0.56690465E+03</pdfrwt>
<pdfrwt beam="2">0</pdfrwt>
<totfact> 0.39746014E+00</totfact>
</mgrwt>
</event>
<event>
 6    1  0.2220303E-003  0.5862477E+03  0.7818608E-02  0.9934356E-01
          1   -1    0    0  502    0  0.00000000000E+00  0.00000000000E+00  0.86344090650E+02  0.86344090650E+02  0.00000000000E+00 0.  1.
         13   -1    0    0    0    0 -0.00000000000E+00 -0.00000000000E+00 -0.10000000000E+04  0.10000000000E+04  0.00000000000E+00 0.  1.
    9000005    2    1    2  501    0 -0.83281047927E-01 -0.28145441305E-01 -0.91407344724E+03  0.10859173990E+04  0.58624766327E+03 0.  0.
         13    1    3    3    0    0 -0.18926705414E+03 -0.19728693662E+03 -0.26107344976E+03  0.37802579186E+03  0.00000000000E+00 0.  1.
          1    1    3    3  501    0  0.18918377309E+03  0.19725879118E+03 -0.65299999749E+03  0.70789160711E+03  0.00000000000E+00 0.  1.
         21    1    1    2  502  501  0.83281047927E-01  0.28145441305E-01  0.41753789419E+00  0.42669168248E+00  0.00000000000E+00 0. -1.
<mgrwt>
<rscale>  1 0.58624767E+03</rscale>
<asrwt>0</asrwt>
<pdfrwt beam="1">  1        1 0.31397917E+00 0.58624767E+03</pdfrwt>
<pdfrwt beam="2">0</pdfrwt>
<totfact> 0.32190754E+00</totfact>
</mgrwt>
</event>
<event>
 6    1  0.2220303E-003  0.6074943E+03  0.7818608E-02  0.9889979E-01
          1   -1    0    0  502    0  0.00000000000E+00  0.00000000000E+00  0.92263117346E+02  0.92263117346E+02  0.00000000000E+00 0.  1.
         13   -1    0    0    0    0 -0.00000000000E+00 -0.00000000000E+00 -0.10000000000E+04  0.10000000000E+04  0.00000000000E+00 0.  1.
    9000005    2    1    2  501    0  0.53859038417E-04  0.53913609349E-04 -0.90773766959E+03  0.10922623267E+04  0.60749429100E+03 0.  0.
         13    1    3    3    0    0 -0.16477886672E+03 -0.24750324650E+03 -0.56546487267E+03  0.63887436494E+03  0.00000000000E+00 0.  1.
          3    1    3    3  501    0  0.16477892058E+03  0.24750330042E+03 -0.34227279692E+03  0.45338796179E+03  0.00000000000E+00 0.  1.
         21    1    1    2  502  501 -0.53859038415E-04 -0.53913609373E-04  0.78693691550E-03  0.79061822789E-03  0.00000000000E+00 0.  1.
<mgrwt>
<rscale>  1 0.60749429E+03</rscale>
<asrwt>0</asrwt>
<pdfrwt beam="1">  1        1 0.33550295E+00 0.60749429E+03</pdfrwt>
<pdfrwt beam="2">0</pdfrwt>
<totfact> 0.25879082E+00</totfact>
</mgrwt>
</event>
<event>
 6    1  0.2220303E-003  0.6558324E+03  0.7818608E-02  0.9795896E-01
          1   -1    0    0  502    0  0.00000000000E+00  0.00000000000E+00  0.10753012965E+03  0.10753012965E+03  0.00000000000E+00 0.  1.
         13   -1    0    0    0    0 -0.00000000000E+00 -0.00000000000E+00 -0.10000000000E+04  0.10000000000E+04  0.00000000000E+00 0.  1.
    9000005    2    1    2  501    0  0.21240302634E-03  0.13357832865E-03 -0.89247094331E+03  0.11075290277E+04  0.65583241964E+03 0.  0.
         13    1    3    3    0    0  0.78867574354E+02  0.30013267815E+02  0.88879040796E+02  0.12255763714E+03  0.00000000000E+00 0.  1.
          3    1    3    3  501    0 -0.78867361951E+02 -0.30013134236E+02 -0.98134998410E+03  0.98497139060E+03  0.00000000000E+00 0.  1.
         21    1    1    2  502  501 -0.21240302634E-03 -0.13357832865E-03  0.10729544609E-02  0.11019026684E-02  0.00000000000E+00 0.  1.
<mgrwt>
<rscale>  1 0.65583242E+03</rscale>
<asrwt>0</asrwt>
<pdfrwt beam="1">  1        1 0.39101948E+00 0.65583242E+03</pdfrwt>
<pdfrwt beam="2">0</pdfrwt>
<totfact> 0.14651302E+00</totfact>
</mgrwt>
</event>
<event>
 6    1  0.2220303E-003  0.6738336E+03  0.7818608E-02  0.9763057E-01
          1   -1    0    0  502    0  0.00000000000E+00  0.00000000000E+00  0.11371961603E+03  0.11371961603E+03  0.00000000000E+00 0.  1.
         13   -1    0    0    0    0 -0.00000000000E+00 -0.00000000000E+00 -0.10000000000E+04  0.10000000000E+04  0.00000000000E+00 0.  1.
    9000005    2    1    2  501    0 -0.26629713258E+00 -0.16900816726E+00 -0.88634284141E+03  0.11133980902E+04  0.67383349225E+03 0.  0.
         13    1    3    3    0    0  0.92438967449E+02 -0.21306903229E+02 -0.97725325004E+03  0.98184665887E+03  0.00000000000E+00 0.  1.
          3    1    3    3  501    0 -0.92705264582E+02  0.21137895062E+02  0.90910408629E+02  0.13155143133E+03  0.00000000000E+00 0.  1.
         21    1    1    2  502  501  0.26629713258E+00  0.16900816726E+00  0.62457433231E-01  0.32152582227E+00  0.00000000000E+00 0.  1.
<mgrwt>
<rscale>  1 0.67383357E+03</rscale>
<asrwt>0</asrwt>
<pdfrwt beam="1">  1        1 0.41352675E+00 0.67383357E+03</pdfrwt>
<pdfrwt beam="2">0</pdfrwt>
<totfact> 0.11585165E+00</totfact>
</mgrwt>
</event>
<event>
 6    1  0.2220303E-003  0.6679783E+03  0.7818608E-02  0.9773617E-01
          1   -1    0    0  502    0  0.00000000000E+00  0.00000000000E+00  0.12340822765E+03  0.12340822765E+03  0.00000000000E+00 0.  1.
         13   -1    0    0    0    0 -0.00000000000E+00 -0.00000000000E+00 -0.10000000000E+04  0.10000000000E+04  0.00000000000E+00 0.  1.
    9000005    2    1    2  501    0 -0.19067627443E+01  0.17559274311E+02 -0.88061300387E+03  0.11052937538E+04  0.66774475351E+03 0.  0.
         13    1    3    3    0    0 -0.10154787751E+03 -0.12937693878E+03 -0.91052212327E+03  0.92525720785E+03  0.00000000000E+00 0.  1.
          3    1    3    3  501    0  0.99641114767E+02  0.14693621309E+03  0.29909119402E+02  0.18003654599E+03  0.00000000000E+00 0.  1.
         21    1    1    2  502  501  0.19067627443E+01 -0.17559274311E+02  0.40212315274E+01  0.18114473812E+02  0.00000000000E+00 0.  1.
<mgrwt>
<rscale>  1 0.66797831E+03</rscale>
<asrwt>0</asrwt>
<pdfrwt beam="1">  1        1 0.44875814E+00 0.66797831E+03</pdfrwt>
<pdfrwt beam="2">0</pdfrwt>
<totfact> 0.80203186E-01</totfact>
</mgrwt>
</event>
<event>
 6    1  0.2220303E-003  0.6430595E+03  0.7818608E-02  0.9819890E-01
          1   -1    0    0  502    0  0.00000000000E+00  0.00000000000E+00  0.10339620593E+03  0.10339620593E+03  0.00000000000E+00 0.  1.
         13   -1    0    0    0    0 -0.00000000000E+00 -0.00000000000E+00 -0.10000000000E+04  0.10000000000E+04  0.00000000000E+00 0.  1.
    9000005    2    1    2  501    0 -0.26582837930E-03  0.82686604202E-04 -0.89661862945E+03  0.11033813679E+04  0.64305946570E+03 0.  0.
         13    1    3    3    0    0 -0.24175594533E+03 -0.19504790772E+03 -0.30586657077E+03  0.43594034285E+03  0.00000000000E+00 0.  1.
          1    1    3    3  501    0  0.24175567950E+03  0.19504799041E+03 -0.59075205868E+03  0.66744102509E+03  0.00000000000E+00 0.  1.
         21    1    1    2  502  501  0.26582837932E-03 -0.82686604206E-04  0.14835384656E-01  0.14837996486E-01  0.00000000000E+00 0.  1.
<mgrwt>
<rscale>  1 0.64305947E+03</rscale>
<asrwt>0</asrwt>
<pdfrwt beam="1">  1        1 0.37598700E+00 0.64305947E+03</pdfrwt>
<pdfrwt beam="2">0</pdfrwt>
<totfact> 0.17113705E+00</totfact>
</mgrwt>
</event>
<event>
 6    1  0.2220303E-003  0.6478309E+03  0.7818608E-02  0.9810858E-01
          1   -1    0    0  502    0  0.00000000000E+00  0.00000000000E+00  0.10494056065E+03  0.10494056065E+03  0.00000000000E+00 0.  1.
         13   -1    0    0    0    0 -0.00000000000E+00 -0.00000000000E+00 -0.10000000000E+04  0.10000000000E+04  0.00000000000E+00 0.  1.
    9000005    2    1    2  501    0 -0.14609021903E-03  0.45616589459E-03 -0.89507876733E+03  0.11049212267E+04  0.64783093285E+03 0.  0.
         13    1    3    3    0    0 -0.22915587947E+03  0.91495560951E+02 -0.80545521727E+03  0.84240249394E+03  0.00000000000E+00 0.  1.
          1    1    3    3  501    0  0.22915573338E+03 -0.91495104785E+02 -0.89623550057E+02  0.26251873279E+03  0.00000000000E+00 0.  1.
         21    1    1    2  502  501  0.14609021904E-03 -0.45616589460E-03  0.19327978708E-01  0.19333912967E-01  0.00000000000E+00 0.  1.
<mgrwt>
<rscale>  1 0.64783093E+03</rscale>
<asrwt>0</asrwt>
<pdfrwt beam="1">  1        1 0.38160284E+00 0.64783093E+03</pdfrwt>
<pdfrwt beam="2">0</pdfrwt>
<totfact> 0.16151000E+00</totfact>
</mgrwt>
</event>
<event>
 6    1  0.2220303E-003  0.6462390E+03  0.7818608E-02  0.9813862E-01
          1   -1    0    0  502    0  0.00000000000E+00  0.00000000000E+00  0.10560574712E+03  0.10560574712E+03  0.00000000000E+00 0.  1.
         13   -1    0    0    0    0 -0.00000000000E+00 -0.00000000000E+00 -0.10000000000E+04  0.10000000000E+04  0.00000000000E+00 0.  1.
    9000005    2    1    2  501    0  0.17625331449E-01 -0.53075509728E-02 -0.89559370865E+03  0.11044061501E+04  0.64623900617E+03 0.  0.
         13    1    3    3    0    0 -0.13895091384E+03  0.24557402441E+03 -0.17872158349E+03  0.33399904540E+03  0.00000000000E+00 0.  1.
          1    1    3    3  501    0  0.13896853917E+03 -0.24557933196E+03 -0.71687212516E+03  0.77040710471E+03  0.00000000000E+00 0.  1.
         21    1    1    2  502  501 -0.17625331449E-01  0.53075509728E-02  0.11994557776E+01  0.11995970094E+01  0.00000000000E+00 0.  1.
<mgrwt>
<rscale>  1 0.64623901E+03</rscale>
<asrwt>0</asrwt>
<pdfrwt beam="1">  1        1 0.38402171E+00 0.64623901E+03</pdfrwt>
<pdfrwt beam="2">0</pdfrwt>
<totfact> 0.15763052E+00</totfact>
</mgrwt>
</event>
<event>
 6    1  0.2220303E-003  0.6541187E+03  0.7818608E-02  0.9799081E-01
          1   -1    0    0  502    0  0.00000000000E+00  0.00000000000E+00  0.14040150478E+03  0.14040150478E+03  0.00000000000E+00 0.  1.
         13   -1    0    0    0    0 -0.00000000000E+00 -0.00000000000E+00 -0.10000000000E+04  0.10000000000E+04  0.00000000000E+00 0.  1.
    9000005    2    1    2  501    0 -0.14480062067E+01 -0.18399455580E+01 -0.89298681440E+03  0.11069311899E+04  0.65411445965E+03 0.  0.
         13    1    3    3    0    0  0.30229404034E+03  0.86094213967E+01 -0.23789610984E+03  0.38477313841E+03  0.00000000000E+00 0.  1.
          3    1    3    3  501    0 -0.30374204655E+03 -0.10449366955E+02 -0.65509070456E+03  0.72215805148E+03  0.00000000000E+00 0.  1.
         21    1    1    2  502  501  0.14480062067E+01  0.18399455580E+01  0.33388319176E+02  0.33470314893E+02  0.00000000000E+00 0. -1.
<mgrwt>
<rscale>  1 0.65411865E+03</rscale>
<asrwt>0</asrwt>
<pdfrwt beam="1">  1        1 0.51055200E+00 0.65411865E+03</pdfrwt>
<pdfrwt beam="2">0</pdfrwt>
<totfact> 0.41073424E-01</totfact>
</mgrwt>
</event>
<event>
 6    1  0.2220303E-003  0.6566997E+03  0.7818608E-02  0.9794288E-01
          1   -1    0    0  502    0  0.00000000000E+00  0.00000000000E+00  0.10874007979E+03  0.10874007979E+03  0.00000000000E+00 0.  1.
         13   -1    0    0    0    0 -0.00000000000E+00 -0.00000000000E+00 -0.10000000000E+04  0.10000000000E+04  0.00000000000E+00 0.  1.
    9000005    2    1    2  501    0 -0.99674077801E-01 -0.37988207549E-01 -0.89218297870E+03  0.11078108785E+04  0.65669967542E+03 0.  0.
         13    1    3    3    0    0 -0.17837691787E+02  0.27750331737E+03 -0.15156599063E+03  0.31669942203E+03  0.00000000000E+00 0.  1.
          1    1    3    3  501    0  0.17738017710E+02 -0.27754130557E+03 -0.74061698807E+03  0.79111145649E+03  0.00000000000E+00 0.  1.
         21    1    1    2  502  501  0.99674077801E-01  0.37988207549E-01  0.92305849597E+00  0.92920127673E+00  0.00000000000E+00 0. -1.
<mgrwt>
<rscale>  1 0.65669968E+03</rscale>
<asrwt>0</asrwt>
<pdfrwt beam="1">  1        1 0.39541931E+00 0.65669968E+03</pdfrwt>
<pdfrwt beam="2">0</pdfrwt>
<totfact> 0.14004278E+00</totfact>
</mgrwt>
</event>
<event>
 6    1  0.2220303E-003  0.6454537E+03  0.7818608E-02  0.9815348E-01
          1   -1    0    0  502    0  0.00000000000E+00  0.00000000000E+00  0.10656803381E+03  0.10656803381E+03  0.00000000000E+00 0.  1.
         13   -1    0    0    0    0 -0.00000000000E+00 -0.00000000000E+00 -0.10000000000E+04  0.10000000000E+04  0.00000000000E+00 0.  1.
    9000005    2    1    2  501    0  0.23699748982E+00 -0.12949973851E+00 -0.89583904046E+03  0.11041458562E+04  0.64545364849E+03 0.  0.
         13    1    3    3    0    0  0.37859282714E+02 -0.23665074558E+03 -0.81789822298E+03  0.85228774708E+03  0.00000000000E+00 0.  1.
          1    1    3    3  501    0 -0.37622285224E+02  0.23652124585E+03 -0.77940817477E+02  0.25185810908E+03  0.00000000000E+00 0.  1.
         21    1    1    2  502  501 -0.23699748982E+00  0.12949973851E+00  0.24070742669E+01  0.24221776398E+01  0.00000000000E+00 0. -1.
<mgrwt>
<rscale>  1 0.64545370E+03</rscale>
<asrwt>0</asrwt>
<pdfrwt beam="1">  1        1 0.38752094E+00 0.64545370E+03</pdfrwt>
<pdfrwt beam="2">0</pdfrwt>
<totfact> 0.15213274E+00</totfact>
</mgrwt>
</event>
<event>
 6    1  0.2220303E-003  0.6473386E+03  0.7818608E-02  0.9811786E-01
          1   -1    0    0  502    0  0.00000000000E+00  0.00000000000E+00  0.10476918200E+03  0.10476918200E+03  0.00000000000E+00 0.  1.
         13   -1    0    0    0    0 -0.00000000000E+00 -0.00000000000E+00 -0.10000000000E+04  0.10000000000E+04  0.00000000000E+00 0.  1.
    9000005    2    1    2  501    0 -0.47509429163E-03 -0.34622131925E-03 -0.89523817301E+03  0.11047618035E+04  0.64733859466E+03 0.  0.
         13    1    3    3    0    0 -0.28557049942E+03 -0.12528115622E+03 -0.59557590220E+03  0.67227712554E+03  0.00000000000E+00 0.  1.
          1    1    3    3  501    0  0.28557002433E+03  0.12528081000E+03 -0.29966227081E+03  0.43248467799E+03  0.00000000000E+00 0.  1.
         21    1    1    2  502  501  0.47509429164E-03  0.34622131924E-03  0.73550078153E-02  0.73784635088E-02  0.00000000000E+00 0. -1.
<mgrwt>
<rscale>  1 0.64733859E+03</rscale>
<asrwt>0</asrwt>
<pdfrwt beam="1">  1        1 0.38097965E+00 0.64733859E+03</pdfrwt>
<pdfrwt beam="2">0</pdfrwt>
<totfact> 0.16255121E+00</totfact>
</mgrwt>
</event>
<event>
 6    1  0.2220303E-003  0.6658302E+03  0.7818608E-02  0.9777520E-01
          1   -1    0    0  502    0  0.00000000000E+00  0.00000000000E+00  0.11110683513E+03  0.11110683513E+03  0.00000000000E+00 0.  1.
         13   -1    0    0    0    0 -0.00000000000E+00 -0.00000000000E+00 -0.10000000000E+04  0.10000000000E+04  0.00000000000E+00 0.  1.
    9000005    2    1    2  501    0 -0.11108281908E+00  0.11428551169E+00 -0.88914158610E+03  0.11108116849E+04  0.66583016882E+03 0.  0.
         13    1    3    3    0    0 -0.27225268528E+03 -0.15309499582E+03 -0.63689106848E+03  0.70935874950E+03  0.00000000000E+00 0.  1.
          3    1    3    3  501    0  0.27214160246E+03  0.15320928133E+03 -0.25225051762E+03  0.40145293537E+03  0.00000000000E+00 0.  1.
         21    1    1    2  502  501  0.11108281908E+00 -0.11428551169E+00  0.24842122992E+00  0.29515026402E+00  0.00000000000E+00 0.  1.
<mgrwt>
<rscale>  1 0.66583019E+03</rscale>
<asrwt>0</asrwt>
<pdfrwt beam="1">  1        1 0.40402571E+00 0.66583019E+03</pdfrwt>
<pdfrwt beam="2">0</pdfrwt>
<totfact> 0.12798132E+00</totfact>
</mgrwt>
</event>
<event>
 6    1  0.2220303E-003  0.6966098E+03  0.7818608E-02  0.9723048E-01
          1   -1    0    0  502    0  0.00000000000E+00  0.00000000000E+00  0.13109585137E+03  0.13109585137E+03  0.00000000000E+00 0.  1.
         13   -1    0    0    0    0 -0.00000000000E+00 -0.00000000000E+00 -0.10000000000E+04  0.10000000000E+04  0.00000000000E+00 0.  1.
    9000005    2    1    2  501    0 -0.28573729410E-01 -0.41237011786E+00 -0.87867880506E+03  0.11213124586E+04  0.69660965864E+03 0.  0.
         13    1    3    3    0    0  0.12617753723E+03 -0.15290116007E+03 -0.90060039326E+03  0.92216083412E+03  0.00000000000E+00 0.  1.
          3    1    3    3  501    0 -0.12620611096E+03  0.15248878996E+03  0.21921588198E+02  0.19915162449E+03  0.00000000000E+00 0.  1.
         21    1    1    2  502  501  0.28573729410E-01  0.41237011786E+00  0.97746564327E+01  0.97833927627E+01  0.00000000000E+00 0.  1.
<mgrwt>
<rscale>  1 0.69660978E+03</rscale>
<asrwt>0</asrwt>
<pdfrwt beam="1">  1        1 0.47671319E+00 0.69660978E+03</pdfrwt>
<pdfrwt beam="2">0</pdfrwt>
<totfact> 0.59082820E-01</totfact>
</mgrwt>
</event>
<event>
 6    1  0.2220303E-003  0.6499862E+03  0.7818608E-02  0.9806805E-01
          1   -1    0    0  502    0  0.00000000000E+00  0.00000000000E+00  0.10562072650E+03  0.10562072650E+03  0.00000000000E+00 0.  1.
         13   -1    0    0    0    0 -0.00000000000E+00 -0.00000000000E+00 -0.10000000000E+04  0.10000000000E+04  0.00000000000E+00 0.  1.
    9000005    2    1    2  501    0  0.78880258030E-04 -0.56632990777E-05 -0.89437947625E+03  0.11056205089E+04  0.64998620146E+03 0.  0.
         13    1    3    3    0    0  0.25129002519E+03 -0.16424625755E+03 -0.65894110651E+03  0.72410419949E+03  0.00000000000E+00 0.  1.
          3    1    3    3  501    0 -0.25128994631E+03  0.16424625188E+03 -0.23543836974E+03  0.38151630937E+03  0.00000000000E+00 0.  1.
         21    1    1    2  502  501 -0.78880258047E-04  0.56632990744E-05  0.20274838944E-03  0.21762600370E-03  0.00000000000E+00 0.  1.
<mgrwt>
<rscale>  1 0.64998620E+03</rscale>
<asrwt>0</asrwt>
<pdfrwt beam="1">  1        1 0.38407618E+00 0.64998620E+03</pdfrwt>
<pdfrwt beam="2">0</pdfrwt>
<totfact> 0.15743405E+00</totfact>
</mgrwt>
</event>
<event>
 6    1  0.2220303E-003  0.6469701E+03  0.7818608E-02  0.9812481E-01
          1   -1    0    0  502    0  0.00000000000E+00  0.00000000000E+00  0.10464265071E+03  0.10464265071E+03  0.00000000000E+00 0.  1.
         13   -1    0    0    0    0 -0.00000000000E+00 -0.00000000000E+00 -0.10000000000E+04  0.10000000000E+04  0.00000000000E+00 0.  1.
    9000005    2    1    2  501    0  0.99864683648E-04  0.30698031622E-04 -0.89535736060E+03  0.11046425456E+04  0.64697013101E+03 0.  0.
         13    1    3    3    0    0  0.26348880601E+03  0.42833003761E+02 -0.13572435232E+03  0.29946972621E+03  0.00000000000E+00 0.  1.
          3    1    3    3  501    0 -0.26348870615E+03 -0.42832973063E+02 -0.75963300828E+03  0.80517281941E+03  0.00000000000E+00 0.  1.
         21    1    1    2  502  501 -0.99864683669E-04 -0.30698031619E-04  0.11313251223E-04  0.10508717259E-03  0.00000000000E+00 0.  1.
<mgrwt>
<rscale>  1 0.64697013E+03</rscale>
<asrwt>0</asrwt>
<pdfrwt beam="1">  1        1 0.38051953E+00 0.64697013E+03</pdfrwt>
<pdfrwt beam="2">0</pdfrwt>
<totfact> 0.16332419E+00</totfact>
</mgrwt>
</event>
<event>
 6    1  0.2220303E-003  0.6457336E+03  0.7818608E-02  0.9814818E-01
          1   -1    0    0  502    0  0.00000000000E+00  0.00000000000E+00  0.10427269922E+03  0.10427269922E+03  0.00000000000E+00 0.  1.
         13   -1    0    0    0    0 -0.00000000000E+00 -0.00000000000E+00 -0.10000000000E+04  0.10000000000E+04  0.00000000000E+00 0.  1.
    9000005    2    1    2  501    0  0.99221372227E-03  0.39898230038E-02 -0.89575688548E+03  0.11042428302E+04  0.64573355974E+03 0.  0.
         13    1    3    3    0    0  0.23367208646E+03  0.13769474590E+03 -0.74741525279E+03  0.79510505416E+03  0.00000000000E+00 0.  1.
          3    1    3    3  501    0 -0.23367109425E+03 -0.13769075608E+03 -0.14834163269E+03  0.30913777605E+03  0.00000000000E+00 0.  1.
         21    1    1    2  502  501 -0.99221372228E-03 -0.39898230038E-02  0.29584702531E-01  0.29869010688E-01  0.00000000000E+00 0.  1.
<mgrwt>
<rscale>  1 0.64573356E+03</rscale>
<asrwt>0</asrwt>
<pdfrwt beam="1">  1        1 0.37917425E+00 0.64573356E+03</pdfrwt>
<pdfrwt beam="2">0</pdfrwt>
<totfact> 0.16560921E+00</totfact>
</mgrwt>
</event>
<event>
 6    1  0.2220303E-003  0.6523678E+03  0.7818608E-02  0.9802346E-01
          1   -1    0    0  502    0  0.00000000000E+00  0.00000000000E+00  0.10639594502E+03  0.10639594502E+03  0.00000000000E+00 0.  1.
         13   -1    0    0    0    0 -0.00000000000E+00 -0.00000000000E+00 -0.10000000000E+04  0.10000000000E+04  0.00000000000E+00 0.  1.
    9000005    2    1    2  501    0  0.19837696072E-05 -0.10994335753E-05 -0.89360405732E+03  0.11063959418E+04  0.65236781704E+03 0.  0.
         13    1    3    3    0    0  0.67866976716E+02  0.30119587887E+03 -0.62525040804E+03  0.69732557441E+03  0.00000000000E+00 0.  1.
          1    1    3    3  501    0 -0.67866974733E+02 -0.30119587997E+03 -0.26835364928E+03  0.40907036735E+03  0.00000000000E+00 0.  1.
         21    1    1    2  502  501 -0.19837695979E-05  0.10994336311E-05  0.23394346547E-05  0.32583815968E-05  0.00000000000E+00 0.  1.
<mgrwt>
<rscale>  1 0.65236782E+03</rscale>
<asrwt>0</asrwt>
<pdfrwt beam="1">  1        1 0.38689516E+00 0.65236782E+03</pdfrwt>
<pdfrwt beam="2">0</pdfrwt>
<totfact> 0.15290983E+00</totfact>
</mgrwt>
</event>
<event>
 6    1  0.2220303E-003  0.6383876E+03  0.7818608E-02  0.9828816E-01
          1   -1    0    0  502    0  0.00000000000E+00  0.00000000000E+00  0.11190426639E+03  0.11190426639E+03  0.00000000000E+00 0.  1.
         13   -1    0    0    0    0 -0.00000000000E+00 -0.00000000000E+00 -0.10000000000E+04  0.10000000000E+04  0.00000000000E+00 0.  1.
    9000005    2    1    2  501    0  0.74105187657E+01  0.21423515853E+01 -0.89645356836E+03  0.11005306627E+04  0.63834100127E+03 0.  0.
         13    1    3    3    0    0  0.13434347591E+03 -0.21611567787E+03 -0.78376464755E+03  0.82403954911E+03  0.00000000000E+00 0.  1.
          3    1    3    3  501    0 -0.12693295715E+03  0.21825802946E+03 -0.11268892081E+03  0.27649111361E+03  0.00000000000E+00 0.  1.
         21    1    1    2  502  501 -0.74105187657E+01 -0.21423515853E+01  0.83578347455E+01  0.11373603665E+02  0.00000000000E+00 0.  1.
<mgrwt>
<rscale>  1 0.63838761E+03</rscale>
<asrwt>0</asrwt>
<pdfrwt beam="1">  1        1 0.40692546E+00 0.63838761E+03</pdfrwt>
<pdfrwt beam="2">0</pdfrwt>
<totfact> 0.12487265E+00</totfact>
</mgrwt>
</event>
<event>
 6    1  0.2220303E-003  0.6459312E+03  0.7818608E-02  0.9814444E-01
          1   -1    0    0  502    0  0.00000000000E+00  0.00000000000E+00  0.10430683509E+03  0.10430683509E+03  0.00000000000E+00 0.  1.
         13   -1    0    0    0    0 -0.00000000000E+00 -0.00000000000E+00 -0.10000000000E+04  0.10000000000E+04  0.00000000000E+00 0.  1.
    9000005    2    1    2  501    0 -0.40143016349E-04  0.26277365373E-04 -0.89569320275E+03  0.11043067740E+04  0.64593121741E+03 0.  0.
         13    1    3    3    0    0 -0.30278161243E+03  0.14300506045E+02 -0.63841987390E+03  0.70672565022E+03  0.00000000000E+00 0.  1.
          1    1    3    3  501    0  0.30278157228E+03 -0.14300479768E+02 -0.25727332885E+03  0.39758112376E+03  0.00000000000E+00 0.  1.
         21    1    1    2  502  501  0.40143016346E-04 -0.26277365374E-04  0.37840217677E-04  0.61105186083E-04  0.00000000000E+00 0.  1.
<mgrwt>
<rscale>  1 0.64593122E+03</rscale>
<asrwt>0</asrwt>
<pdfrwt beam="1">  1        1 0.37929838E+00 0.64593122E+03</pdfrwt>
<pdfrwt beam="2">0</pdfrwt>
<totfact> 0.16539456E+00</totfact>
</mgrwt>
</event>
<event>
 6    1  0.2220303E-003  0.6451251E+03  0.7818608E-02  0.9815970E-01
          1   -1    0    0  502    0  0.00000000000E+00  0.00000000000E+00  0.10405455100E+03  0.10405455100E+03  0.00000000000E+00 0.  1.
         13   -1    0    0    0    0 -0.00000000000E+00 -0.00000000000E+00 -0.10000000000E+04  0.10000000000E+04  0.00000000000E+00 0.  1.
    9000005    2    1    2  501    0 -0.57241331319E-05 -0.23107334346E-03 -0.89595338524E+03  0.11040466114E+04  0.64512514414E+03 0.  0.
         13    1    3    3    0    0 -0.30703313730E+03 -0.50245325121E+02 -0.59372145905E+03  0.67029777789E+03  0.00000000000E+00 0.  1.
          3    1    3    3  501    0  0.30703313158E+03  0.50245094047E+02 -0.30223192619E+03  0.43374883351E+03  0.00000000000E+00 0.  1.
         21    1    1    2  502  501  0.57241331381E-05  0.23107334347E-03  0.79362464660E-02  0.79396118056E-02  0.00000000000E+00 0.  1.
<mgrwt>
<rscale>  1 0.64512514E+03</rscale>
<asrwt>0</asrwt>
<pdfrwt beam="1">  1        1 0.37838098E+00 0.64512514E+03</pdfrwt>
<pdfrwt beam="2">0</pdfrwt>
<totfact> 0.16696714E+00</totfact>
</mgrwt>
</event>
<event>
 6    1  0.2220303E-003  0.6441217E+03  0.7818608E-02  0.9817872E-01
          1   -1    0    0  502    0  0.00000000000E+00  0.00000000000E+00  0.10372337015E+03  0.10372337015E+03  0.00000000000E+00 0.  1.
         13   -1    0    0    0    0 -0.00000000000E+00 -0.00000000000E+00 -0.10000000000E+04  0.10000000000E+04  0.00000000000E+00 0.  1.
    9000005    2    1    2  501    0 -0.24952643017E-04  0.82397410182E-04 -0.89627680564E+03  0.11037231744E+04  0.64412167594E+03 0.  0.
         13    1    3    3    0    0 -0.92308297185E+02 -0.25035915592E+03 -0.13911940889E+03  0.30092314403E+03  0.00000000000E+00 0.  1.
          3    1    3    3  501    0  0.92308272232E+02  0.25035923832E+03 -0.75715739675E+03  0.80280003038E+03  0.00000000000E+00 0.  1.
         21    1    1    2  502  501  0.24952643025E-04 -0.82397410206E-04  0.17578255106E-03  0.19573316750E-03  0.00000000000E+00 0. -1.
<mgrwt>
<rscale>  1 0.64412168E+03</rscale>
<asrwt>0</asrwt>
<pdfrwt beam="1">  1        1 0.37717669E+00 0.64412168E+03</pdfrwt>
<pdfrwt beam="2">0</pdfrwt>
<totfact> 0.16905145E+00</totfact>
</mgrwt>
</event>
<event>
 6    1  0.2220303E-003  0.6486460E+03  0.7818608E-02  0.9809323E-01
          1   -1    0    0  502    0  0.00000000000E+00  0.00000000000E+00  0.10518547038E+03  0.10518547038E+03  0.00000000000E+00 0.  1.
         13   -1    0    0    0    0 -0.00000000000E+00 -0.00000000000E+00 -0.10000000000E+04  0.10000000000E+04  0.00000000000E+00 0.  1.
    9000005    2    1    2  501    0 -0.73838724177E-04  0.14665670426E-03 -0.89481443793E+03  0.11051852823E+04  0.64864599738E+03 0.  0.
         13    1    3    3    0    0  0.32262833320E+03  0.33098959130E+02 -0.44893686863E+03  0.55383110647E+03  0.00000000000E+00 0.  1.
          3    1    3    3  501    0 -0.32262840704E+03 -0.33098812473E+02 -0.44587756931E+03  0.55135417585E+03  0.00000000000E+00 0.  1.
         21    1    1    2  502  501  0.73838724176E-04 -0.14665670426E-03 -0.91687090078E-04  0.18806081085E-03  0.00000000000E+00 0. -1.
<mgrwt>
<rscale>  1 0.64864600E+03</rscale>
<asrwt>0</asrwt>
<pdfrwt beam="1">  1        1 0.38249343E+00 0.64864600E+03</pdfrwt>
<pdfrwt beam="2">0</pdfrwt>
<totfact> 0.16002978E+00</totfact>
</mgrwt>
</event>
<event>
 6    1  0.2786174E-003  0.6466212E+03  0.7818608E-02  0.9813140E-01
          1   -1    0    0  502    0  0.00000000000E+00  0.00000000000E+00  0.10452974971E+03  0.10452974971E+03  0.00000000000E+00 0.  1.
         13   -1    0    0    0    0 -0.00000000000E+00 -0.00000000000E+00 -0.10000000000E+04  0.10000000000E+04  0.00000000000E+00 0.  1.
    9000005    2    1    2  501    0 -0.68611275310E-05  0.95354034215E-05 -0.89547024816E+03  0.11045297378E+04  0.64662119998E+03 0.  0.
         13    1    3    3    0    0 -0.10634516357E+03  0.27888512925E+03 -0.23545913942E+03  0.38016735192E+03  0.00000000000E+00 0.  1.
          1    1    3    3  501    0  0.10634515671E+03 -0.27888511972E+03 -0.66001110875E+03  0.72436238584E+03  0.00000000000E+00 0.  1.
         21    1    1    2  502  501  0.68611275313E-05 -0.95354034266E-05 -0.21331845146E-05  0.11939408096E-04  0.00000000000E+00 0. -1.
<mgrwt>
<rscale>  1 0.64662120E+03</rscale>
<asrwt>0</asrwt>
<pdfrwt beam="1">  1        1 0.38010898E+00 0.64662120E+03</pdfrwt>
<pdfrwt beam="2">0</pdfrwt>
<totfact> 0.16401747E+00</totfact>
</mgrwt>
</event>
<event>
 6    1  0.2220303E-003  0.6453917E+03  0.7818608E-02  0.9815465E-01
          1   -1    0    0  502    0  0.00000000000E+00  0.00000000000E+00  0.10517802877E+03  0.10517802877E+03  0.00000000000E+00 0.  1.
         13   -1    0    0    0    0 -0.00000000000E+00 -0.00000000000E+00 -0.10000000000E+04  0.10000000000E+04  0.00000000000E+00 0.  1.
    9000005    2    1    2  501    0 -0.43834142325E-01 -0.42981039688E-02 -0.89586688335E+03  0.11041321888E+04  0.64539167621E+03 0.  0.
         13    1    3    3    0    0  0.13567513736E+03  0.12629229985E+03 -0.89980434427E+03  0.91869763571E+03  0.00000000000E+00 0.  1.
          1    1    3    3  501    0 -0.13571897151E+03 -0.12629659795E+03  0.39374609167E+01  0.18543455309E+03  0.00000000000E+00 0.  1.
         21    1    1    2  502  501  0.43834142325E-01  0.42981039688E-02  0.10449121178E+01  0.10458399685E+01  0.00000000000E+00 0. -1.
<mgrwt>
<rscale>  1 0.64539168E+03</rscale>
<asrwt>0</asrwt>
<pdfrwt beam="1">  1        1 0.38246637E+00 0.64539168E+03</pdfrwt>
<pdfrwt beam="2">0</pdfrwt>
<totfact> 0.16017000E+00</totfact>
</mgrwt>
</event>
<event>
 6    1  0.2220303E-003  0.6321522E+03  0.7818608E-02  0.9840858E-01
          1   -1    0    0  502    0  0.00000000000E+00  0.00000000000E+00  0.10178881450E+03  0.10178881450E+03  0.00000000000E+00 0.  1.
         13   -1    0    0    0    0 -0.00000000000E+00 -0.00000000000E+00 -0.10000000000E+04  0.10000000000E+04  0.00000000000E+00 0.  1.
    9000005    2    1    2  501    0 -0.19106656539E-01 -0.26018952406E-01 -0.90009573124E+03  0.10999039923E+04  0.63215224895E+03 0.  0.
         13    1    3    3    0    0  0.30928330007E+03 -0.62555361591E+02 -0.41840671698E+03  0.52405487669E+03  0.00000000000E+00 0.  1.
          3    1    3    3  501    0 -0.30930240673E+03  0.62529342639E+02 -0.48168901426E+03  0.57584911562E+03  0.00000000000E+00 0.  1.
         21    1    1    2  502  501  0.19106656539E-01  0.26018952406E-01  0.18845457350E+01  0.18848221873E+01  0.00000000000E+00 0.  1.
<mgrwt>
<rscale>  1 0.63215225E+03</rscale>
<asrwt>0</asrwt>
<pdfrwt beam="1">  1        1 0.37014192E+00 0.63215225E+03</pdfrwt>
<pdfrwt beam="2">0</pdfrwt>
<totfact> 0.18193491E+00</totfact>
</mgrwt>
</event>
<event>
 6    1  0.2220303E-003  0.6369729E+03  0.7818608E-02  0.9831535E-01
          1   -1    0    0  502    0  0.00000000000E+00  0.00000000000E+00  0.10143490345E+03  0.10143490345E+03  0.00000000000E+00 0.  1.
         13   -1    0    0    0    0 -0.00000000000E+00 -0.00000000000E+00 -0.10000000000E+04  0.10000000000E+04  0.00000000000E+00 0.  1.
    9000005    2    1    2  501    0  0.97999312550E-03  0.28861437378E-02 -0.89856398340E+03  0.11014316586E+04  0.63697289282E+03 0.  0.
         13    1    3    3    0    0 -0.27745115984E+03  0.15503703225E+03 -0.48464221770E+03  0.57956337586E+03  0.00000000000E+00 0.  1.
          3    1    3    3  501    0  0.27745213983E+03 -0.15503414610E+03 -0.41392176570E+03  0.52186828269E+03  0.00000000000E+00 0.  1.
         21    1    1    2  502  501 -0.97999312552E-03 -0.28861437378E-02 -0.11131528416E-02  0.32448915930E-02  0.00000000000E+00 0.  1.
<mgrwt>
<rscale>  1 0.63697289E+03</rscale>
<asrwt>0</asrwt>
<pdfrwt beam="1">  1        1 0.36885497E+00 0.63697289E+03</pdfrwt>
<pdfrwt beam="2">0</pdfrwt>
<totfact> 0.18415503E+00</totfact>
</mgrwt>
</event>
<event>
 6    1  0.2220303E-003  0.6597747E+03  0.7818608E-02  0.9788609E-01
          1   -1    0    0  502    0  0.00000000000E+00  0.00000000000E+00  0.10882708241E+03  0.10882708241E+03  0.00000000000E+00 0.  1.
         13   -1    0    0    0    0 -0.00000000000E+00 -0.00000000000E+00 -0.10000000000E+04  0.10000000000E+04  0.00000000000E+00 0.  1.
    9000005    2    1    2  501    0  0.49557898421E-04  0.17262291947E-03 -0.89117433120E+03  0.11088256574E+04  0.65977469639E+03 0.  0.
         13    1    3    3    0    0 -0.29402724325E+03  0.43190985202E+02 -0.20491207805E+03  0.36097983422E+03  0.00000000000E+00 0.  1.
          1    1    3    3  501    0  0.29402729281E+03 -0.43190812579E+02 -0.68626225315E+03  0.74784582322E+03  0.00000000000E+00 0.  1.
         21    1    1    2  502  501 -0.49557898415E-04 -0.17262291947E-03  0.14136147450E-02  0.14249776506E-02  0.00000000000E+00 0. -1.
<mgrwt>
<rscale>  1 0.65977470E+03</rscale>
<asrwt>0</asrwt>
<pdfrwt beam="1">  1        1 0.39573568E+00 0.65977470E+03</pdfrwt>
<pdfrwt beam="2">0</pdfrwt>
<totfact> 0.13950966E+00</totfact>
</mgrwt>
</event>
<event>
 6    1  0.2220303E-003  0.6498561E+03  0.7818608E-02  0.9807049E-01
          1   -1    0    0  502    0  0.00000000000E+00  0.00000000000E+00  0.10606469374E+03  0.10606469374E+03  0.00000000000E+00 0.  1.
         13   -1    0    0    0    0 -0.00000000000E+00 -0.00000000000E+00 -0.10000000000E+04  0.10000000000E+04  0.00000000000E+00 0.  1.
    9000005    2    1    2  501    0  0.13837448722E-02 -0.23383232324E-01 -0.89442145122E+03  0.11055779848E+04  0.64985609752E+03 0.  0.
         13    1    3    3    0    0 -0.11974426981E+03  0.27301436041E+03 -0.22737015817E+03  0.37493028681E+03  0.00000000000E+00 0.  1.
          3    1    3    3  501    0  0.11974565355E+03 -0.27303774364E+03 -0.66705129305E+03  0.73064769797E+03  0.00000000000E+00 0.  1.
         21    1    1    2  502  501 -0.13837448722E-02  0.23383232324E-01  0.48614495541E+00  0.48670895613E+00  0.00000000000E+00 0. -1.
<mgrwt>
<rscale>  1 0.64985610E+03</rscale>
<asrwt>0</asrwt>
<pdfrwt beam="1">  1        1 0.38569061E+00 0.64985610E+03</pdfrwt>
<pdfrwt beam="2">0</pdfrwt>
<totfact> 0.15487047E+00</totfact>
</mgrwt>
</event>
<event>
 6    1  0.3423369E-003  0.6471618E+03  0.7818608E-02  0.9812120E-01
          1   -1    0    0  502    0  0.00000000000E+00  0.00000000000E+00  0.10470458608E+03  0.10470458608E+03  0.00000000000E+00 0.  1.
         13   -1    0    0    0    0 -0.00000000000E+00 -0.00000000000E+00 -0.10000000000E+04  0.10000000000E+04  0.00000000000E+00 0.  1.
    9000005    2    1    2  501    0 -0.82862862882E-06  0.16635260067E-05 -0.89529541457E+03  0.11047045841E+04  0.64716175629E+03 0.  0.
         13    1    3    3    0    0  0.17161042856E+03  0.16819936333E+03 -0.77723145519E+02  0.25255108863E+03  0.00000000000E+00 0.  1.
          3    1    3    3  501    0 -0.17161042939E+03 -0.16819936167E+03 -0.81757226905E+03  0.85215349548E+03  0.00000000000E+00 0.  1.
         21    1    1    2  502  501  0.82862865159E-06 -0.16635260246E-05  0.65300058167E-06  0.19698614257E-05  0.00000000000E+00 0. -1.
<mgrwt>
<rscale>  1 0.64716176E+03</rscale>
<asrwt>0</asrwt>
<pdfrwt beam="1">  1        1 0.38074475E+00 0.64716176E+03</pdfrwt>
<pdfrwt beam="2">0</pdfrwt>
<totfact> 0.16294505E+00</totfact>
</mgrwt>
</event>
<event>
 6    1  0.2220303E-003  0.6390777E+03  0.7818608E-02  0.9827493E-01
          1   -1    0    0  502    0  0.00000000000E+00  0.00000000000E+00  0.10210507688E+03  0.10210507688E+03  0.00000000000E+00 0.  1.
         13   -1    0    0    0    0 -0.00000000000E+00 -0.00000000000E+00 -0.10000000000E+04  0.10000000000E+04  0.00000000000E+00 0.  1.
    9000005    2    1    2  501    0  0.32425720526E-05 -0.39898657533E-05 -0.89789493033E+03  0.11021050680E+04  0.63907767530E+03 0.  0.
         13    1    3    3    0    0  0.10334231472E+02  0.23035717499E+02  0.10038226884E+03  0.10350864949E+03  0.00000000000E+00 0.  1.
          3    1    3    3  501    0 -0.10334228229E+02 -0.23035721489E+02 -0.99827719917E+03  0.99859641854E+03  0.00000000000E+00 0.  1.
         21    1    1    2  502  501 -0.32425720520E-05  0.39898657528E-05  0.72117315209E-05  0.88567699399E-05  0.00000000000E+00 0. -1.
<mgrwt>
<rscale>  1 0.63907768E+03</rscale>
<asrwt>0</asrwt>
<pdfrwt beam="1">  1        1 0.37129197E+00 0.63907768E+03</pdfrwt>
<pdfrwt beam="2">0</pdfrwt>
<totfact> 0.17960309E+00</totfact>
</mgrwt>
</event>
<event>
 6    1  0.2220303E-003  0.6522288E+03  0.7818608E-02  0.9802606E-01
          1   -1    0    0  502    0  0.00000000000E+00  0.00000000000E+00  0.10635072847E+03  0.10635072847E+03  0.00000000000E+00 0.  1.
         13   -1    0    0    0    0 -0.00000000000E+00 -0.00000000000E+00 -0.10000000000E+04  0.10000000000E+04  0.00000000000E+00 0.  1.
    9000005    2    1    2  501    0 -0.28951663182E-05 -0.18596290090E-04 -0.89364939371E+03  0.11063506049E+04  0.65222881107E+03 0.  0.
         13    1    3    3    0    0  0.22786205167E+03 -0.22407782680E+03 -0.33665096161E+03  0.46418299948E+03  0.00000000000E+00 0.  1.
          3    1    3    3  501    0 -0.22786205456E+03  0.22407780820E+03 -0.55699843210E+03  0.64216760538E+03  0.00000000000E+00 0.  1.
         21    1    1    2  502  501  0.28951663368E-05  0.18596290097E-04  0.12217286708E-03  0.12361396945E-03  0.00000000000E+00 0.  1.
<mgrwt>
<rscale>  1 0.65222881E+03</rscale>
<asrwt>0</asrwt>
<pdfrwt beam="1">  1        1 0.38673074E+00 0.65222881E+03</pdfrwt>
<pdfrwt beam="2">0</pdfrwt>
<totfact> 0.15317029E+00</totfact>
</mgrwt>
</event>
<event>
 6    1  0.2220303E-003  0.6439290E+03  0.7818608E-02  0.9818238E-01
          1   -1    0    0  502    0  0.00000000000E+00  0.00000000000E+00  0.10367723426E+03  0.10367723426E+03  0.00000000000E+00 0.  1.
         13   -1    0    0    0    0 -0.00000000000E+00 -0.00000000000E+00 -0.10000000000E+04  0.10000000000E+04  0.00000000000E+00 0.  1.
    9000005    2    1    2  501    0  0.24160768724E-02  0.47803823899E-02 -0.89633838340E+03  0.11036607236E+04  0.64392895207E+03 0.  0.
         13    1    3    3    0    0  0.70543380012E+01 -0.80875044851E+02  0.85830844980E+02  0.11814173909E+03  0.00000000000E+00 0.  1.
          1    1    3    3  501    0 -0.70519219243E+01  0.80879825233E+02 -0.98216922838E+03  0.98551898455E+03  0.00000000000E+00 0.  1.
         21    1    1    2  502  501 -0.24160768724E-02 -0.47803823899E-02  0.15617661788E-01  0.16510628182E-01  0.00000000000E+00 0. -1.
<mgrwt>
<rscale>  1 0.64392895E+03</rscale>
<asrwt>0</asrwt>
<pdfrwt beam="1">  1        1 0.37700892E+00 0.64392895E+03</pdfrwt>
<pdfrwt beam="2">0</pdfrwt>
<totfact> 0.16934542E+00</totfact>
</mgrwt>
</event>
<event>
 6    1  0.2220303E-003  0.4774195E+03  0.7818608E-02  0.1019847E+00
          1   -1    0    0  502    0  0.00000000000E+00  0.00000000000E+00  0.57100260749E+02  0.57100260749E+02  0.00000000000E+00 0.  1.
         13   -1    0    0    0    0 -0.00000000000E+00 -0.00000000000E+00 -0.10000000000E+04  0.10000000000E+04  0.00000000000E+00 0.  1.
    9000005    2    1    2  501    0  0.15427120559E-02 -0.58844063717E-03 -0.94301764732E+03  0.10569823411E+04  0.47741950765E+03 0.  0.
         13    1    3    3    0    0 -0.19951101423E+03  0.11693456077E+03 -0.34046031576E+03  0.41157206284E+03  0.00000000000E+00 0.  1.
          3    1    3    3  501    0  0.19951255694E+03 -0.11693514921E+03 -0.60255733156E+03  0.64541027828E+03  0.00000000000E+00 0.  1.
         21    1    1    2  502  501 -0.15427120559E-02  0.58844063718E-03  0.11790806732E+00  0.11791962756E+00  0.00000000000E+00 0. -1.
<mgrwt>
<rscale>  1 0.47741951E+03</rscale>
<asrwt>0</asrwt>
<pdfrwt beam="1">  1        1 0.20763775E+00 0.47741951E+03</pdfrwt>
<pdfrwt beam="2">0</pdfrwt>
<totfact> 0.95300811E+00</totfact>
</mgrwt>
</event>
<event>
 6    1  0.2220303E-003  0.6278160E+03  0.7818608E-02  0.9849320E-01
          1   -1    0    0  502    0  0.00000000000E+00  0.00000000000E+00  0.98540851138E+02  0.98540851138E+02  0.00000000000E+00 0.  1.
         13   -1    0    0    0    0 -0.00000000000E+00 -0.00000000000E+00 -0.10000000000E+04  0.10000000000E+04  0.00000000000E+00 0.  1.
    9000005    2    1    2  501    0  0.27267121510E-04 -0.36625879878E-03 -0.90146176386E+03  0.10985382105E+04  0.62781596679E+03 0.  0.
         13    1    3    3    0    0  0.24062274732E+03 -0.19969949088E+03 -0.49894080026E+03  0.58883029419E+03  0.00000000000E+00 0.  1.
          3    1    3    3  501    0 -0.24062272006E+03  0.19969912462E+03 -0.40252096360E+03  0.50970791628E+03  0.00000000000E+00 0.  1.
         21    1    1    2  502  501 -0.27267121502E-04  0.36625879879E-03  0.26150003559E-02  0.26406657995E-02  0.00000000000E+00 0. -1.
<mgrwt>
<rscale>  1 0.62781597E+03</rscale>
<asrwt>0</asrwt>
<pdfrwt beam="1">  1        1 0.35833112E+00 0.62781597E+03</pdfrwt>
<pdfrwt beam="2">0</pdfrwt>
<totfact> 0.20511486E+00</totfact>
</mgrwt>
</event>
<event>
 6    1  0.2220303E-003  0.6462801E+03  0.7818608E-02  0.9813784E-01
          1   -1    0    0  502    0  0.00000000000E+00  0.00000000000E+00  0.10441990497E+03  0.10441990497E+03  0.00000000000E+00 0.  1.
         13   -1    0    0    0    0 -0.00000000000E+00 -0.00000000000E+00 -0.10000000000E+04  0.10000000000E+04  0.00000000000E+00 0.  1.
    9000005    2    1    2  501    0 -0.63000834255E-03 -0.96830453629E-03 -0.89557921274E+03  0.11044184514E+04  0.64628011684E+03 0.  0.
         13    1    3    3    0    0  0.31757524137E+01  0.30335006304E+03 -0.25758879217E+03  0.39797403433E+03  0.00000000000E+00 0.  1.
          1    1    3    3  501    0 -0.31763824221E+01 -0.30335103134E+03 -0.63799042057E+03  0.70644441703E+03  0.00000000000E+00 0.  1.
         21    1    1    2  502  501  0.63000834255E-03  0.96830453628E-03 -0.88229613177E-03  0.14536060852E-02  0.00000000000E+00 0.  1.
<mgrwt>
<rscale>  1 0.64628012E+03</rscale>
<asrwt>0</asrwt>
<pdfrwt beam="1">  1        1 0.37970955E+00 0.64628012E+03</pdfrwt>
<pdfrwt beam="2">0</pdfrwt>
<totfact> 0.16469472E+00</totfact>
</mgrwt>
</event>
<event>
 6    1  0.2220303E-003  0.6855469E+03  0.7818608E-02  0.9742273E-01
          1   -1    0    0  502    0  0.00000000000E+00  0.00000000000E+00  0.11753906007E+03  0.11753906007E+03  0.00000000000E+00 0.  1.
         13   -1    0    0    0    0 -0.00000000000E+00 -0.00000000000E+00 -0.10000000000E+04  0.10000000000E+04  0.00000000000E+00 0.  1.
    9000005    2    1    2  501    0 -0.75773735209E-01  0.10428885916E+00 -0.88234007862E+03  0.11173623533E+04  0.68554693321E+03 0.  0.
         13    1    3    3    0    0 -0.26761117731E+03 -0.20260468319E+03 -0.55442363248E+03  0.64811261685E+03  0.00000000000E+00 0.  1.
          1    1    3    3  501    0  0.26753540357E+03  0.20270897205E+03 -0.32791644614E+03  0.46924973646E+03  0.00000000000E+00 0.  1.
         21    1    1    2  502  501  0.75773735209E-01 -0.10428885916E+00 -0.12086130603E+00  0.17670676384E+00  0.00000000000E+00 0.  1.
<mgrwt>
<rscale>  1 0.68554695E+03</rscale>
<asrwt>0</asrwt>
<pdfrwt beam="1">  1        1 0.42741567E+00 0.68554695E+03</pdfrwt>
<pdfrwt beam="2">0</pdfrwt>
<totfact> 0.10004834E+00</totfact>
</mgrwt>
</event>
<event>
 6    1  0.2220303E-003  0.6455276E+03  0.7818608E-02  0.9815208E-01
          1   -1    0    0  502    0  0.00000000000E+00  0.00000000000E+00  0.10443685385E+03  0.10443685385E+03  0.00000000000E+00 0.  1.
         13   -1    0    0    0    0 -0.00000000000E+00 -0.00000000000E+00 -0.10000000000E+04  0.10000000000E+04  0.00000000000E+00 0.  1.
    9000005    2    1    2  501    0  0.30653446774E+00  0.11937177047E+00 -0.89570358564E+03  0.11040791721E+04  0.64552753363E+03 0.  0.
         13    1    3    3    0    0  0.32426329276E+02  0.12622525238E+03 -0.95301585869E+03  0.96188539238E+03  0.00000000000E+00 0.  1.
          1    1    3    3  501    0 -0.32119794809E+02 -0.12610588061E+03  0.57312273048E+02  0.14219377970E+03  0.00000000000E+00 0.  1.
         21    1    1    2  502  501 -0.30653446774E+00 -0.11937177047E+00  0.14043949362E+00  0.35768177318E+00  0.00000000000E+00 0. -1.
<mgrwt>
<rscale>  1 0.64552762E+03</rscale>
<asrwt>0</asrwt>
<pdfrwt beam="1">  1        1 0.37977118E+00 0.64552762E+03</pdfrwt>
<pdfrwt beam="2">0</pdfrwt>
<totfact> 0.16461440E+00</totfact>
</mgrwt>
</event>
<event>
 6    1  0.2220303E-003  0.6521567E+03  0.7818608E-02  0.9802741E-01
          1   -1    0    0  502    0  0.00000000000E+00  0.00000000000E+00  0.10632771901E+03  0.10632771901E+03  0.00000000000E+00 0.  1.
         13   -1    0    0    0    0 -0.00000000000E+00 -0.00000000000E+00 -0.10000000000E+04  0.10000000000E+04  0.00000000000E+00 0.  1.
    9000005    2    1    2  501    0  0.35759098938E-03  0.62319497448E-03 -0.89367266580E+03  0.11063269039E+04  0.65215671798E+03 0.  0.
         13    1    3    3    0    0 -0.28154647934E+03 -0.13386769282E+03 -0.60900033261E+03  0.68415669574E+03  0.00000000000E+00 0.  1.
          3    1    3    3  501    0  0.28154683693E+03  0.13386831602E+03 -0.28467233318E+03  0.42217020821E+03  0.00000000000E+00 0.  1.
         21    1    1    2  502  501 -0.35759098940E-03 -0.62319497446E-03  0.38480192176E-03  0.81505571029E-03  0.00000000000E+00 0. -1.
<mgrwt>
<rscale>  1 0.65215672E+03</rscale>
<asrwt>0</asrwt>
<pdfrwt beam="1">  1        1 0.38664707E+00 0.65215672E+03</pdfrwt>
<pdfrwt beam="2">0</pdfrwt>
<totfact> 0.15330303E+00</totfact>
</mgrwt>
</event>
<event>
 6    1  0.2220303E-003  0.6615047E+03  0.7818608E-02  0.9785428E-01
          1   -1    0    0  502    0  0.00000000000E+00  0.00000000000E+00  0.10940378312E+03  0.10940378312E+03  0.00000000000E+00 0.  1.
         13   -1    0    0    0    0 -0.00000000000E+00 -0.00000000000E+00 -0.10000000000E+04  0.10000000000E+04  0.00000000000E+00 0.  1.
    9000005    2    1    2  501    0  0.12184769208E-02 -0.49989300223E-03 -0.89060280884E+03  0.11093970609E+04  0.66150470563E+03 0.  0.
         13    1    3    3    0    0  0.23669854696E+01 -0.24744098879E+03 -0.81336117884E+03  0.85017001406E+03  0.00000000000E+00 0.  1.
          1    1    3    3  501    0 -0.23657669927E+01  0.24744048890E+03 -0.77241630000E+02  0.25922704682E+03  0.00000000000E+00 0.  1.
         21    1    1    2  502  501 -0.12184769208E-02  0.49989300224E-03  0.65919601182E-02  0.67222404911E-02  0.00000000000E+00 0.  1.
<mgrwt>
<rscale>  1 0.66150471E+03</rscale>
<asrwt>0</asrwt>
<pdfrwt beam="1">  1        1 0.39783278E+00 0.66150471E+03</pdfrwt>
<pdfrwt beam="2">0</pdfrwt>
<totfact> 0.13649900E+00</totfact>
</mgrwt>
</event>
<event>
 6    1  0.2220303E-003  0.6567173E+03  0.7818608E-02  0.9794256E-01
          1   -1    0    0  502    0  0.00000000000E+00  0.00000000000E+00  0.10829182498E+03  0.10829182498E+03  0.00000000000E+00 0.  1.
         13   -1    0    0    0    0 -0.00000000000E+00 -0.00000000000E+00 -0.10000000000E+04  0.10000000000E+04  0.00000000000E+00 0.  1.
    9000005    2    1    2  501    0  0.19615400552E+00 -0.50688107101E-01 -0.89215641039E+03  0.11077999300E+04  0.65671727812E+03 0.  0.
         13    1    3    3    0    0  0.32806160042E+03  0.14862055208E+02 -0.45656689644E+03  0.56240432544E+03  0.00000000000E+00 0.  1.
          3    1    3    3  501    0 -0.32786544641E+03 -0.14912743315E+02 -0.43558951395E+03  0.54539560461E+03  0.00000000000E+00 0.  1.
         21    1    1    2  502  501 -0.19615400552E+00  0.50688107101E-01  0.44823536498E+00  0.49189492832E+00  0.00000000000E+00 0.  1.
<mgrwt>
<rscale>  1 0.65671731E+03</rscale>
<asrwt>0</asrwt>
<pdfrwt beam="1">  1        1 0.39378928E+00 0.65671731E+03</pdfrwt>
<pdfrwt beam="2">0</pdfrwt>
<totfact> 0.14239857E+00</totfact>
</mgrwt>
</event>
<event>
 6    1  0.2220303E-003  0.6560056E+03  0.7818608E-02  0.9795575E-01
          1   -1    0    0  502    0  0.00000000000E+00  0.00000000000E+00  0.10759169375E+03  0.10759169375E+03  0.00000000000E+00 0.  1.
         13   -1    0    0    0    0 -0.00000000000E+00 -0.00000000000E+00 -0.10000000000E+04  0.10000000000E+04  0.00000000000E+00 0.  1.
    9000005    2    1    2  501    0 -0.22429901645E-03 -0.94980135657E-04 -0.89241417173E+03  0.11075858232E+04  0.65600556543E+03 0.  0.
         13    1    3    3    0    0  0.85272846362E+02 -0.11190231082E+03  0.54055384824E+02  0.15071685414E+03  0.00000000000E+00 0.  1.
          1    1    3    3  501    0 -0.85273070661E+02  0.11190221584E+03 -0.94646955655E+03  0.95686896907E+03  0.00000000000E+00 0.  1.
         21    1    1    2  502  501  0.22429901644E-03  0.94980135657E-04  0.58654801603E-02  0.58705356472E-02  0.00000000000E+00 0. -1.
<mgrwt>
<rscale>  1 0.65600557E+03</rscale>
<asrwt>0</asrwt>
<pdfrwt beam="1">  1        1 0.39124335E+00 0.65600557E+03</pdfrwt>
<pdfrwt beam="2">0</pdfrwt>
<totfact> 0.14617356E+00</totfact>
</mgrwt>
</event>
<event>
 6    1  0.2220303E-003  0.6511116E+03  0.7818608E-02  0.9804696E-01
          1   -1    0    0  502    0  0.00000000000E+00  0.00000000000E+00  0.10598691457E+03  0.10598691457E+03  0.00000000000E+00 0.  1.
         13   -1    0    0    0    0 -0.00000000000E+00 -0.00000000000E+00 -0.10000000000E+04  0.10000000000E+04  0.00000000000E+00 0.  1.
    9000005    2    1    2  501    0  0.46455654885E-03  0.22048725003E-03 -0.89401317358E+03  0.11059863928E+04  0.65111162378E+03 0.  0.
         13    1    3    3    0    0 -0.21171588742E+03  0.24183295448E+03 -0.53493732996E+03  0.62407110320E+03  0.00000000000E+00 0.  1.
          1    1    3    3  501    0  0.21171635197E+03 -0.24183273400E+03 -0.35907584362E+03  0.48191528965E+03  0.00000000000E+00 0.  1.
         21    1    1    2  502  501 -0.46455654885E-03 -0.22048725003E-03  0.88150928381E-04  0.52172598237E-03  0.00000000000E+00 0. -1.
<mgrwt>
<rscale>  1 0.65111162E+03</rscale>
<asrwt>0</asrwt>
<pdfrwt beam="1">  1        1 0.38540777E+00 0.65111162E+03</pdfrwt>
<pdfrwt beam="2">0</pdfrwt>
<totfact> 0.15528132E+00</totfact>
</mgrwt>
</event>
<event>
 6    1  0.2220303E-003  0.6526368E+03  0.7818608E-02  0.9801844E-01
          1   -1    0    0  502    0  0.00000000000E+00  0.00000000000E+00  0.10654512114E+03  0.10654512114E+03  0.00000000000E+00 0.  1.
         13   -1    0    0    0    0 -0.00000000000E+00 -0.00000000000E+00 -0.10000000000E+04  0.10000000000E+04  0.00000000000E+00 0.  1.
    9000005    2    1    2  501    0 -0.11727380435E-01  0.38653195470E-02 -0.89351562301E+03  0.11064831347E+04  0.65263677383E+03 0.  0.
         13    1    3    3    0    0 -0.14014776812E+03 -0.20181194394E+03 -0.82681306954E+02  0.25924053724E+03  0.00000000000E+00 0.  1.
          3    1    3    3  501    0  0.14013604074E+03  0.20181580926E+03 -0.81083431606E+03  0.84724259742E+03  0.00000000000E+00 0.  1.
         21    1    1    2  502  501  0.11727380435E-01 -0.38653195470E-02  0.60744153163E-01  0.61986484741E-01  0.00000000000E+00 0. -1.
<mgrwt>
<rscale>  1 0.65263677E+03</rscale>
<asrwt>0</asrwt>
<pdfrwt beam="1">  1        1 0.38743762E+00 0.65263677E+03</pdfrwt>
<pdfrwt beam="2">0</pdfrwt>
<totfact> 0.15205884E+00</totfact>
</mgrwt>
</event>
<event>
 6    1  0.2220303E-003  0.6467063E+03  0.7818608E-02  0.9812979E-01
          1   -1    0    0  502    0  0.00000000000E+00  0.00000000000E+00  0.10475246925E+03  0.10475246925E+03  0.00000000000E+00 0.  1.
         13   -1    0    0    0    0 -0.00000000000E+00 -0.00000000000E+00 -0.10000000000E+04  0.10000000000E+04  0.00000000000E+00 0.  1.
    9000005    2    1    2  501    0 -0.40891209342E-01 -0.17821885164E-01 -0.89543991169E+03  0.11045549847E+04  0.64670632968E+03 0.  0.
         13    1    3    3    0    0 -0.15185871617E+03 -0.20235777704E+03 -0.79170655207E+03  0.83114920694E+03  0.00000000000E+00 0.  1.
          3    1    3    3  501    0  0.15181782497E+03  0.20233995516E+03 -0.10373335962E+03  0.27340577779E+03  0.00000000000E+00 0.  1.
         21    1    1    2  502  501  0.40891209342E-01  0.17821885164E-01  0.19238093608E+00  0.19748451879E+00  0.00000000000E+00 0. -1.
<mgrwt>
<rscale>  1 0.64670633E+03</rscale>
<asrwt>0</asrwt>
<pdfrwt beam="1">  1        1 0.38091887E+00 0.64670633E+03</pdfrwt>
<pdfrwt beam="2">0</pdfrwt>
<totfact> 0.16267057E+00</totfact>
</mgrwt>
</event>
<event>
 6    1  0.2220303E-003  0.6588523E+03  0.7818608E-02  0.9790309E-01
          1   -1    0    0  502    0  0.00000000000E+00  0.00000000000E+00  0.10852159231E+03  0.10852159231E+03  0.00000000000E+00 0.  1.
         13   -1    0    0    0    0 -0.00000000000E+00 -0.00000000000E+00 -0.10000000000E+04  0.10000000000E+04  0.00000000000E+00 0.  1.
    9000005    2    1    2  501    0 -0.12696875743E-04 -0.63190061326E-05 -0.89147841909E+03  0.11085215741E+04  0.65885226611E+03 0.  0.
         13    1    3    3    0    0 -0.56506612979E+02  0.95022662888E+02 -0.96785594187E+03  0.97414959220E+03  0.00000000000E+00 0.  1.
          3    1    3    3  501    0  0.56506600282E+02 -0.95022669207E+02  0.76377522773E+02  0.13437198191E+03  0.00000000000E+00 0.  1.
         21    1    1    2  502  501  0.12696875746E-04  0.63190061325E-05  0.11404688864E-04  0.18199104932E-04  0.00000000000E+00 0.  1.
<mgrwt>
<rscale>  1 0.65885227E+03</rscale>
<asrwt>0</asrwt>
<pdfrwt beam="1">  1        1 0.39462480E+00 0.65885227E+03</pdfrwt>
<pdfrwt beam="2">0</pdfrwt>
<totfact> 0.14112997E+00</totfact>
</mgrwt>
</event>
<event>
 6    1  0.2220303E-003  0.6538283E+03  0.7818608E-02  0.9799622E-01
          1   -1    0    0  502    0  0.00000000000E+00  0.00000000000E+00  0.10687571331E+03  0.10687571331E+03  0.00000000000E+00 0.  1.
         13   -1    0    0    0    0 -0.00000000000E+00 -0.00000000000E+00 -0.10000000000E+04  0.10000000000E+04  0.00000000000E+00 0.  1.
    9000005    2    1    2  501    0 -0.66969076454E-03  0.10701771270E-02 -0.89312699580E+03  0.11068727245E+04  0.65382826306E+03 0.  0.
         13    1    3    3    0    0  0.27406277344E+03  0.17255781054E+03 -0.52201203591E+03  0.61431520199E+03  0.00000000000E+00 0.  1.
          1    1    3    3  501    0 -0.27406344313E+03 -0.17255674037E+03 -0.37111495990E+03  0.49255752250E+03  0.00000000000E+00 0.  1.
         21    1    1    2  502  501  0.66969076453E-03 -0.10701771270E-02  0.27091180649E-02  0.29888267754E-02  0.00000000000E+00 0.  1.
<mgrwt>
<rscale>  1 0.65382826E+03</rscale>
<asrwt>0</asrwt>
<pdfrwt beam="1">  1        1 0.38863978E+00 0.65382826E+03</pdfrwt>
<pdfrwt beam="2">0</pdfrwt>
<totfact> 0.15017240E+00</totfact>
</mgrwt>
</event>
<event>
 6    1  0.2220303E-003  0.6649447E+03  0.7818608E-02  0.9779134E-01
          1   -1    0    0  502    0  0.00000000000E+00  0.00000000000E+00  0.11053808869E+03  0.11053808869E+03  0.00000000000E+00 0.  1.
         13   -1    0    0    0    0 -0.00000000000E+00 -0.00000000000E+00 -0.10000000000E+04  0.10000000000E+04  0.00000000000E+00 0.  1.
    9000005    2    1    2  501    0 -0.17304964172E-03 -0.40661865214E-04 -0.88946208087E+03  0.11105378430E+04  0.66494474019E+03 0.  0.
         13    1    3    3    0    0  0.29136964188E+03 -0.68495245837E+02 -0.20299600281E+03  0.36165625125E+03  0.00000000000E+00 0.  1.
          1    1    3    3  501    0 -0.29136981493E+03  0.68495205175E+02 -0.68646607806E+03  0.74888159178E+03  0.00000000000E+00 0.  1.
         21    1    1    2  502  501  0.17304964174E-03  0.40661865206E-04  0.16955443912E-03  0.24565885616E-03  0.00000000000E+00 0.  1.
<mgrwt>
<rscale>  1 0.66494474E+03</rscale>
<asrwt>0</asrwt>
<pdfrwt beam="1">  1        1 0.40195753E+00 0.66494474E+03</pdfrwt>
<pdfrwt beam="2">0</pdfrwt>
<totfact> 0.13075471E+00</totfact>
</mgrwt>
</event>
<event>
 6    1  0.2220303E-003  0.6468743E+03  0.7818608E-02  0.9812662E-01
          1   -1    0    0  502    0  0.00000000000E+00  0.00000000000E+00  0.10471660442E+03  0.10471660442E+03  0.00000000000E+00 0.  1.
         13   -1    0    0    0    0 -0.00000000000E+00 -0.00000000000E+00 -0.10000000000E+04  0.10000000000E+04  0.00000000000E+00 0.  1.
    9000005    2    1    2  501    0  0.18137876132E-01 -0.73206019892E-01 -0.89537325571E+03  0.11045992888E+04  0.64687426612E+03 0.  0.
         13    1    3    3    0    0  0.11506199731E+03  0.15550073081E+03 -0.50650127817E+01  0.19350812609E+03  0.00000000000E+00 0.  1.
          3    1    3    3  501    0 -0.11504385943E+03 -0.15557393683E+03 -0.89030824293E+03  0.91109116275E+03  0.00000000000E+00 0.  1.
         21    1    1    2  502  501 -0.18137876132E-01  0.73206019892E-01  0.89860126937E-01  0.11731558427E+00  0.00000000000E+00 0.  1.
<mgrwt>
<rscale>  1 0.64687427E+03</rscale>
<asrwt>0</asrwt>
<pdfrwt beam="1">  1        1 0.38078846E+00 0.64687427E+03</pdfrwt>
<pdfrwt beam="2">0</pdfrwt>
<totfact> 0.16288131E+00</totfact>
</mgrwt>
</event>
<event>
 6    1  0.2220303E-003  0.6297875E+03  0.7818608E-02  0.9845464E-01
          1   -1    0    0  502    0  0.00000000000E+00  0.00000000000E+00  0.99158401476E+02  0.99158401476E+02  0.00000000000E+00 0.  1.
         13   -1    0    0    0    0 -0.00000000000E+00 -0.00000000000E+00 -0.10000000000E+04  0.10000000000E+04  0.00000000000E+00 0.  1.
    9000005    2    1    2  501    0 -0.28865948877E-04 -0.36772519252E-06 -0.90084192279E+03  0.10991580759E+04  0.62978750861E+03 0.  0.
         13    1    3    3    0    0  0.89789816286E+02  0.16940879573E+03 -0.88638061653E+03  0.90688044887E+03  0.00000000000E+00 0.  1.
          1    1    3    3  501    0 -0.89789845152E+02 -0.16940879610E+03 -0.14461306266E+02  0.19227762706E+03  0.00000000000E+00 0.  1.
         21    1    1    2  502  501  0.28865948885E-04  0.36772520492E-06  0.32427021975E-03  0.32555268951E-03  0.00000000000E+00 0. -1.
<mgrwt>
<rscale>  1 0.62978751E+03</rscale>
<asrwt>0</asrwt>
<pdfrwt beam="1">  1        1 0.36057677E+00 0.62978751E+03</pdfrwt>
<pdfrwt beam="2">0</pdfrwt>
<totfact> 0.20045810E+00</totfact>
</mgrwt>
</event>
<event>
 6    1  0.2220303E-003  0.6278942E+03  0.7818608E-02  0.9849167E-01
          1   -1    0    0  502    0  0.00000000000E+00  0.00000000000E+00  0.98696874486E+02  0.98696874486E+02  0.00000000000E+00 0.  1.
         13   -1    0    0    0    0 -0.00000000000E+00 -0.00000000000E+00 -0.10000000000E+04  0.10000000000E+04  0.00000000000E+00 0.  1.
    9000005    2    1    2  501    0  0.21700149270E+00 -0.11860075756E+00 -0.90129924758E+03  0.10984495471E+04  0.62789410948E+03 0.  0.
         13    1    3    3    0    0  0.69301834274E+02 -0.27258492460E+03 -0.20643464095E+03  0.34888471783E+03  0.00000000000E+00 0.  1.
          1    1    3    3  501    0 -0.69084832781E+02  0.27246632384E+03 -0.69486460664E+03  0.74956482929E+03  0.00000000000E+00 0.  1.
         21    1    1    2  502  501 -0.21700149270E+00  0.11860075756E+00 -0.38779299712E-02  0.24732736579E+00  0.00000000000E+00 0.  1.
<mgrwt>
<rscale>  1 0.62789416E+03</rscale>
<asrwt>0</asrwt>
<pdfrwt beam="1">  1        1 0.35889848E+00 0.62789416E+03</pdfrwt>
<pdfrwt beam="2">0</pdfrwt>
<totfact> 0.20394406E+00</totfact>
</mgrwt>
</event>
<event>
 6    1  0.2220303E-003  0.6738583E+03  0.7818608E-02  0.9763013E-01
          1   -1    0    0  502    0  0.00000000000E+00  0.00000000000E+00  0.11352171864E+03  0.11352171864E+03  0.00000000000E+00 0.  1.
         13   -1    0    0    0    0 -0.00000000000E+00 -0.00000000000E+00 -0.10000000000E+04  0.10000000000E+04  0.00000000000E+00 0.  1.
    9000005    2    1    2  501    0 -0.81738131243E-04  0.57351274279E-04 -0.88647875872E+03  0.11135212310E+04  0.67385825076E+03 0.  0.
         13    1    3    3    0    0  0.12364423962E+03  0.18007966549E+03 -0.19344423158E+02  0.21929612541E+03  0.00000000000E+00 0.  1.
          1    1    3    3  501    0 -0.12364432136E+03 -0.18007960814E+03 -0.86713433556E+03  0.89422510554E+03  0.00000000000E+00 0.  1.
         21    1    1    2  502  501  0.81738131247E-04 -0.57351274277E-04  0.47735904651E-03  0.48769042439E-03  0.00000000000E+00 0. -1.
<mgrwt>
<rscale>  1 0.67385825E+03</rscale>
<asrwt>0</asrwt>
<pdfrwt beam="1">  1        1 0.41280712E+00 0.67385825E+03</pdfrwt>
<pdfrwt beam="2">0</pdfrwt>
<totfact> 0.11671719E+00</totfact>
</mgrwt>
</event>
<event>
 6    1  0.2220303E-003  0.6555281E+03  0.7818608E-02  0.9796461E-01
          3   -1    0    0  502    0  0.00000000000E+00  0.00000000000E+00  0.11132367203E+03  0.11132367203E+03  0.00000000000E+00 0.  1.
         13   -1    0    0    0    0 -0.00000000000E+00 -0.00000000000E+00 -0.10000000000E+04  0.10000000000E+04  0.00000000000E+00 0.  1.
    9000005    2    1    2  501    0  0.98448712951E-01  0.67798257106E-02 -0.89257002296E+03  0.11074287267E+04  0.65552812996E+03 0.  0.
         13    1    3    3    0    0  0.15041753036E+03  0.54139500876E+02 -0.92974742876E+03  0.94339111734E+03  0.00000000000E+00 0.  1.
          3    1    3    3  501    0 -0.15031908164E+03 -0.54132721050E+02  0.37177405798E+02  0.16403760939E+03  0.00000000000E+00 0.  1.
         21    1    1    2  502  501 -0.98448712951E-01 -0.67798257106E-02  0.38936949919E+01  0.38949452891E+01  0.00000000000E+00 0.  1.
<mgrwt>
<rscale>  1 0.65552814E+03</rscale>
<asrwt>0</asrwt>
<pdfrwt beam="1">  1        3 0.40481421E+00 0.65552814E+03</pdfrwt>
<pdfrwt beam="2">0</pdfrwt>
<totfact> 0.55847463E-02</totfact>
</mgrwt>
</event>
<event>
 6    1  0.2220303E-003  0.6478633E+03  0.7818608E-02  0.9810797E-01
          1   -1    0    0  502    0  0.00000000000E+00  0.00000000000E+00  0.10535293198E+03  0.10535293198E+03  0.00000000000E+00 0.  1.
         13   -1    0    0    0    0 -0.00000000000E+00 -0.00000000000E+00 -0.10000000000E+04  0.10000000000E+04  0.00000000000E+00 0.  1.
    9000005    2    1    2  501    0  0.22735925102E-01 -0.25940598034E-01 -0.89506751772E+03  0.11049310697E+04  0.64786326205E+03 0.  0.
         13    1    3    3    0    0 -0.24569049319E+03  0.17244946853E+03 -0.65512855741E+03  0.72062199826E+03  0.00000000000E+00 0.  1.
          3    1    3    3  501    0  0.24571322911E+03 -0.17247540913E+03 -0.23993896031E+03  0.38430907144E+03  0.00000000000E+00 0.  1.
         21    1    1    2  502  501 -0.22735925102E-01  0.25940598034E-01  0.42044969584E+00  0.42186228043E+00  0.00000000000E+00 0.  1.
<mgrwt>
<rscale>  1 0.64786326E+03</rscale>
<asrwt>0</asrwt>
<pdfrwt beam="1">  1        1 0.38310238E+00 0.64786326E+03</pdfrwt>
<pdfrwt beam="2">0</pdfrwt>
<totfact> 0.15906439E+00</totfact>
</mgrwt>
</event>
<event>
 6    1  0.2220303E-003  0.6337432E+03  0.7818608E-02  0.9837771E-01
          1   -1    0    0  502    0  0.00000000000E+00  0.00000000000E+00  0.10423253160E+03  0.10423253160E+03  0.00000000000E+00 0.  1.
         13   -1    0    0    0    0 -0.00000000000E+00 -0.00000000000E+00 -0.10000000000E+04  0.10000000000E+04  0.00000000000E+00 0.  1.
    9000005    2    1    2  501    0 -0.57399775088E-01 -0.59145844856E-01 -0.89959188543E+03  0.11004072266E+04  0.63374324231E+03 0.  0.
         13    1    3    3    0    0  0.99740610132E+02 -0.85239361055E+02  0.51027695195E+02  0.14077557906E+03  0.00000000000E+00 0.  1.
          1    1    3    3  501    0 -0.99798009907E+02  0.85180215210E+02 -0.95061958062E+03  0.95963164751E+03  0.00000000000E+00 0.  1.
         21    1    1    2  502  501  0.57399775088E-01  0.59145844856E-01  0.38244170238E+01  0.38253050254E+01  0.00000000000E+00 0.  1.
<mgrwt>
<rscale>  1 0.63374325E+03</rscale>
<asrwt>0</asrwt>
<pdfrwt beam="1">  1        1 0.37902819E+00 0.63374325E+03</pdfrwt>
<pdfrwt beam="2">0</pdfrwt>
<totfact> 0.16622354E+00</totfact>
</mgrwt>
</event>
<event>
 6    1  0.2220303E-003  0.6514767E+03  0.7818608E-02  0.9804012E-01
          1   -1    0    0  502    0  0.00000000000E+00  0.00000000000E+00  0.10611329312E+03  0.10611329312E+03  0.00000000000E+00 0.  1.
         13   -1    0    0    0    0 -0.00000000000E+00 -0.00000000000E+00 -0.10000000000E+04  0.10000000000E+04  0.00000000000E+00 0.  1.
    9000005    2    1    2  501    0 -0.63235172392E-02 -0.69981579887E-02 -0.89389124472E+03  0.11061028264E+04  0.65147671102E+03 0.  0.
         13    1    3    3    0    0  0.14086484952E+03 -0.29080889661E+03 -0.51682604494E+03  0.60952594770E+03  0.00000000000E+00 0.  1.
          3    1    3    3  501    0 -0.14087117304E+03  0.29080189846E+03 -0.37706519978E+03  0.49657687866E+03  0.00000000000E+00 0.  1.
         21    1    1    2  502  501  0.63235172392E-02  0.69981579887E-02  0.45378374233E-02  0.10466759479E-01  0.00000000000E+00 0.  1.
<mgrwt>
<rscale>  1 0.65147671E+03</rscale>
<asrwt>0</asrwt>
<pdfrwt beam="1">  1        1 0.38586733E+00 0.65147671E+03</pdfrwt>
<pdfrwt beam="2">0</pdfrwt>
<totfact> 0.15454555E+00</totfact>
</mgrwt>
</event>
<event>
 6    1  0.2220303E-003  0.6530247E+03  0.7818608E-02  0.9801120E-01
          1   -1    0    0  502    0  0.00000000000E+00  0.00000000000E+00  0.10661285140E+03  0.10661285140E+03  0.00000000000E+00 0.  1.
         13   -1    0    0    0    0 -0.00000000000E+00 -0.00000000000E+00 -0.10000000000E+04  0.10000000000E+04  0.00000000000E+00 0.  1.
    9000005    2    1    2  501    0  0.20600522535E-02  0.63660787782E-03 -0.89338918317E+03  0.11066098868E+04  0.65302466190E+03 0.  0.
         13    1    3    3    0    0 -0.24170714466E+03 -0.18356958210E+03 -0.24271102200E+03  0.38862420853E+03  0.00000000000E+00 0.  1.
          3    1    3    3  501    0  0.24170920471E+03  0.18357021871E+03 -0.65067816117E+03  0.71798567832E+03  0.00000000000E+00 0.  1.
         21    1    1    2  502  501 -0.20600522535E-02 -0.63660787783E-03  0.20345766523E-02  0.29645551152E-02  0.00000000000E+00 0. -1.
<mgrwt>
<rscale>  1 0.65302466E+03</rscale>
<asrwt>0</asrwt>
<pdfrwt beam="1">  1        1 0.38768391E+00 0.65302466E+03</pdfrwt>
<pdfrwt beam="2">0</pdfrwt>
<totfact> 0.15166650E+00</totfact>
</mgrwt>
</event>
<event>
 6    1  0.2220303E-003  0.6333935E+03  0.7818608E-02  0.9838449E-01
          1   -1    0    0  502    0  0.00000000000E+00  0.00000000000E+00  0.10878488864E+03  0.10878488864E+03  0.00000000000E+00 0.  1.
         13   -1    0    0    0    0 -0.00000000000E+00 -0.00000000000E+00 -0.10000000000E+04  0.10000000000E+04  0.00000000000E+00 0.  1.
    9000005    2    1    2  501    0  0.41648365836E+00 -0.69728135568E+00 -0.89968178765E+03  0.11002793453E+04  0.63339297363E+03 0.  0.
         13    1    3    3    0    0 -0.22876948169E-01  0.74721749236E+02 -0.98418307513E+03  0.98701553468E+03  0.00000000000E+00 0.  1.
          1    1    3    3  501    0  0.43936060653E+00 -0.75419030592E+02  0.84501287483E+02  0.11326381063E+03  0.00000000000E+00 0.  1.
         21    1    1    2  502  501 -0.41648365836E+00  0.69728135568E+00  0.84666762825E+01  0.85055433218E+01  0.00000000000E+00 0.  1.
<mgrwt>
<rscale>  1 0.63339349E+03</rscale>
<asrwt>0</asrwt>
<pdfrwt beam="1">  1        1 0.39558225E+00 0.63339349E+03</pdfrwt>
<pdfrwt beam="2">0</pdfrwt>
<totfact> 0.14042965E+00</totfact>
</mgrwt>
</event>
<event>
 6    1  0.2220303E-003  0.6468891E+03  0.7818608E-02  0.9812634E-01
          1   -1    0    0  502    0  0.00000000000E+00  0.00000000000E+00  0.10468930780E+03  0.10468930780E+03  0.00000000000E+00 0.  1.
         13   -1    0    0    0    0 -0.00000000000E+00 -0.00000000000E+00 -0.10000000000E+04  0.10000000000E+04  0.00000000000E+00 0.  1.
    9000005    2    1    2  501    0  0.50477100599E-01 -0.80017453810E-01 -0.89534807156E+03  0.11045875829E+04  0.64688913283E+03 0.  0.
         13    1    3    3    0    0 -0.64224903981E+02  0.22922451476E+03 -0.82144246192E+03  0.85524057124E+03  0.00000000000E+00 0.  1.
          3    1    3    3  501    0  0.64275381081E+02 -0.22930453221E+03 -0.73905609646E+02  0.24934701170E+03  0.00000000000E+00 0.  1.
         21    1    1    2  502  501 -0.50477100599E-01  0.80017453810E-01  0.37379364737E-01  0.10172486180E+00  0.00000000000E+00 0.  1.
<mgrwt>
<rscale>  1 0.64688914E+03</rscale>
<asrwt>0</asrwt>
<pdfrwt beam="1">  1        1 0.38068919E+00 0.64688914E+03</pdfrwt>
<pdfrwt beam="2">0</pdfrwt>
<totfact> 0.16304526E+00</totfact>
</mgrwt>
</event>
<event>
 6    1  0.2220303E-003  0.6600984E+03  0.7818608E-02  0.9788013E-01
          1   -1    0    0  502    0  0.00000000000E+00  0.00000000000E+00  0.10893251883E+03  0.10893251883E+03  0.00000000000E+00 0.  1.
         13   -1    0    0    0    0 -0.00000000000E+00 -0.00000000000E+00 -0.10000000000E+04  0.10000000000E+04  0.00000000000E+00 0.  1.
    9000005    2    1    2  501    0  0.96692113516E-05  0.83474432984E-05 -0.89106752548E+03  0.11089324727E+04  0.66009839728E+03 0.  0.
         13    1    3    3    0    0  0.23776369581E+03  0.17617631114E+03 -0.19999187271E+03  0.35716441144E+03  0.00000000000E+00 0.  1.
          1    1    3    3  501    0 -0.23776368614E+03 -0.17617630279E+03 -0.69107565277E+03  0.75176806128E+03  0.00000000000E+00 0.  1.
         21    1    1    2  502  501 -0.96692113520E-05 -0.83474433177E-05  0.44302613490E-04  0.46107429121E-04  0.00000000000E+00 0. -1.
<mgrwt>
<rscale>  1 0.66009840E+03</rscale>
<asrwt>0</asrwt>
<pdfrwt beam="1">  1        1 0.39611909E+00 0.66009840E+03</pdfrwt>
<pdfrwt beam="2">0</pdfrwt>
<totfact> 0.13895439E+00</totfact>
</mgrwt>
</event>
<event>
 6    1  0.2220303E-003  0.5959749E+03  0.7818608E-02  0.9913792E-01
          1   -1    0    0  502    0  0.00000000000E+00  0.00000000000E+00  0.88813897769E+02  0.88813897769E+02  0.00000000000E+00 0.  1.
         13   -1    0    0    0    0 -0.00000000000E+00 -0.00000000000E+00 -0.10000000000E+04  0.10000000000E+04  0.00000000000E+00 0.  1.
    9000005    2    1    2  501    0  0.52439694616E-02 -0.57199313536E-02 -0.91120251704E+03  0.10887957411E+04  0.59597494815E+03 0.  0.
         13    1    3    3    0    0 -0.13242219274E+03  0.18083842754E+03 -0.81432703475E+03  0.84461037972E+03  0.00000000000E+00 0.  1.
          3    1    3    3  501    0  0.13242743671E+03 -0.18084414747E+03 -0.96875482293E+02  0.24418536143E+03  0.00000000000E+00 0.  1.
         21    1    1    2  502  501 -0.52439694616E-02  0.57199313536E-02  0.16414812061E-01  0.18156620979E-01  0.00000000000E+00 0.  1.
<mgrwt>
<rscale>  1 0.59597495E+03</rscale>
<asrwt>0</asrwt>
<pdfrwt beam="1">  1        1 0.32296031E+00 0.59597495E+03</pdfrwt>
<pdfrwt beam="2">0</pdfrwt>
<totfact> 0.29386914E+00</totfact>
</mgrwt>
</event>
<event>
 6    1  0.2220303E-003  0.6420718E+03  0.7818608E-02  0.9821771E-01
          1   -1    0    0  502    0  0.00000000000E+00  0.00000000000E+00  0.10309340337E+03  0.10309340337E+03  0.00000000000E+00 0.  1.
         13   -1    0    0    0    0 -0.00000000000E+00 -0.00000000000E+00 -0.10000000000E+04  0.10000000000E+04  0.00000000000E+00 0.  1.
    9000005    2    1    2  501    0 -0.10608518926E-01  0.91270105329E-02 -0.89693410393E+03  0.11030625409E+04  0.64207178887E+03 0.  0.
         13    1    3    3    0    0 -0.11829670519E+02 -0.19807100947E+03 -0.88202736325E+03  0.90407097920E+03  0.00000000000E+00 0.  1.
          3    1    3    3  501    0  0.11819062000E+02  0.19808013648E+03 -0.14906740677E+02  0.19899156166E+03  0.00000000000E+00 0.  1.
         21    1    1    2  502  501  0.10608518926E-01 -0.91270105329E-02  0.27507297357E-01  0.30862508047E-01  0.00000000000E+00 0.  1.
<mgrwt>
<rscale>  1 0.64207179E+03</rscale>
<asrwt>0</asrwt>
<pdfrwt beam="1">  1        1 0.37488589E+00 0.64207179E+03</pdfrwt>
<pdfrwt beam="2">0</pdfrwt>
<totfact> 0.17308936E+00</totfact>
</mgrwt>
</event>
<event>
 6    1  0.2220303E-003  0.6625863E+03  0.7818608E-02  0.9783444E-01
          1   -1    0    0  502    0  0.00000000000E+00  0.00000000000E+00  0.11222269947E+03  0.11222269947E+03  0.00000000000E+00 0.  1.
         13   -1    0    0    0    0 -0.00000000000E+00 -0.00000000000E+00 -0.10000000000E+04  0.10000000000E+04  0.00000000000E+00 0.  1.
    9000005    2    1    2  501    0  0.33627913530E+00 -0.15048189232E+01 -0.88997457614E+03  0.11095383776E+04  0.66258455135E+03 0.  0.
         13    1    3    3    0    0  0.60502719392E+01  0.24066488756E+03 -0.82404325576E+03  0.85848906881E+03  0.00000000000E+00 0.  1.
          3    1    3    3  501    0 -0.57139928039E+01 -0.24216970648E+03 -0.65931320376E+02  0.25104930882E+03  0.00000000000E+00 0.  1.
         21    1    1    2  502  501 -0.33627913530E+00  0.15048189232E+01  0.21972756089E+01  0.26843218417E+01  0.00000000000E+00 0.  1.
<mgrwt>
<rscale>  1 0.66258635E+03</rscale>
<asrwt>0</asrwt>
<pdfrwt beam="1">  1        1 0.40808340E+00 0.66258635E+03</pdfrwt>
<pdfrwt beam="2">0</pdfrwt>
<totfact> 0.12281636E+00</totfact>
</mgrwt>
</event>
<event>
 6    1  0.2220303E-003  0.6482035E+03  0.7818608E-02  0.9810156E-01
          1   -1    0    0  502    0  0.00000000000E+00  0.00000000000E+00  0.10505174429E+03  0.10505174429E+03  0.00000000000E+00 0.  1.
         13   -1    0    0    0    0 -0.00000000000E+00 -0.00000000000E+00 -0.10000000000E+04  0.10000000000E+04  0.00000000000E+00 0.  1.
    9000005    2    1    2  501    0  0.26325872867E-03 -0.39146278777E-03 -0.89495803506E+03  0.11050419536E+04  0.64820354414E+03 0.  0.
         13    1    3    3    0    0 -0.21904541556E+03 -0.14077415195E+03 -0.77647740470E+03  0.81897217043E+03  0.00000000000E+00 0.  1.
          1    1    3    3  501    0  0.21904567882E+03  0.14077376049E+03 -0.11848063036E+03  0.28606978314E+03  0.00000000000E+00 0.  1.
         21    1    1    2  502  501 -0.26325872864E-03  0.39146278780E-03  0.97793522764E-02  0.97907241416E-02  0.00000000000E+00 0. -1.
<mgrwt>
<rscale>  1 0.64820354E+03</rscale>
<asrwt>0</asrwt>
<pdfrwt beam="1">  1        1 0.38200715E+00 0.64820354E+03</pdfrwt>
<pdfrwt beam="2">0</pdfrwt>
<totfact> 0.16083633E+00</totfact>
</mgrwt>
</event>
<event>
 6    1  0.2220303E-003  0.6368413E+03  0.7818608E-02  0.9831789E-01
          1   -1    0    0  502    0  0.00000000000E+00  0.00000000000E+00  0.10179351637E+03  0.10179351637E+03  0.00000000000E+00 0.  1.
         13   -1    0    0    0    0 -0.00000000000E+00 -0.00000000000E+00 -0.10000000000E+04  0.10000000000E+04  0.00000000000E+00 0.  1.
    9000005    2    1    2  501    0 -0.27078701952E-01  0.15562181215E+00 -0.89859114013E+03  0.11013776895E+04  0.63684123041E+03 0.  0.
         13    1    3    3    0    0  0.19558604131E+03 -0.52169243562E+02 -0.87430934144E+03  0.89743654597E+03  0.00000000000E+00 0.  1.
          1    1    3    3  501    0 -0.19561312001E+03  0.52324865374E+02 -0.24281798692E+02  0.20394114348E+03  0.00000000000E+00 0.  1.
         21    1    1    2  502  501  0.27078701952E-01 -0.15562181215E+00  0.38465650034E+00  0.41582692045E+00  0.00000000000E+00 0. -1.
<mgrwt>
<rscale>  1 0.63684125E+03</rscale>
<asrwt>0</asrwt>
<pdfrwt beam="1">  1        1 0.37015902E+00 0.63684125E+03</pdfrwt>
<pdfrwt beam="2">0</pdfrwt>
<totfact> 0.18174740E+00</totfact>
</mgrwt>
</event>
<event>
 6    1  0.2220303E-003  0.6406412E+03  0.7818608E-02  0.9824501E-01
          1   -1    0    0  502    0  0.00000000000E+00  0.00000000000E+00  0.10260785943E+03  0.10260785943E+03  0.00000000000E+00 0.  1.
         13   -1    0    0    0    0 -0.00000000000E+00 -0.00000000000E+00 -0.10000000000E+04  0.10000000000E+04  0.00000000000E+00 0.  1.
    9000005    2    1    2  501    0  0.89976430161E-03  0.87149829383E-03 -0.89739455587E+03  0.11026051386E+04  0.64064116543E+03 0.  0.
         13    1    3    3    0    0  0.10407171903E+02  0.14012510997E+03  0.46733244867E+02  0.14807887036E+03  0.00000000000E+00 0.  1.
          1    1    3    3  501    0 -0.10406272138E+02 -0.14012423847E+03 -0.94412780073E+03  0.95452626827E+03  0.00000000000E+00 0.  1.
         21    1    1    2  502  501 -0.89976430161E-03 -0.87149829383E-03  0.24152985562E-02  0.27207999174E-02  0.00000000000E+00 0.  1.
<mgrwt>
<rscale>  1 0.64064117E+03</rscale>
<asrwt>0</asrwt>
<pdfrwt beam="1">  1        1 0.37312028E+00 0.64064117E+03</pdfrwt>
<pdfrwt beam="2">0</pdfrwt>
<totfact> 0.17625941E+00</totfact>
</mgrwt>
</event>
<event>
 6    1  0.2220303E-003  0.6673441E+03  0.7818608E-02  0.9774768E-01
          1   -1    0    0  502    0  0.00000000000E+00  0.00000000000E+00  0.11133947420E+03  0.11133947420E+03  0.00000000000E+00 0.  1.
         13   -1    0    0    0    0 -0.00000000000E+00 -0.00000000000E+00 -0.10000000000E+04  0.10000000000E+04  0.00000000000E+00 0.  1.
    9000005    2    1    2  501    0 -0.36267509681E-02 -0.21511934646E-02 -0.88866072202E+03  0.11113352529E+04  0.66734411320E+03 0.  0.
         13    1    3    3    0    0  0.15817351461E+03  0.28650698755E+03 -0.55264664111E+03  0.64227986468E+03  0.00000000000E+00 0.  1.
          1    1    3    3  501    0 -0.15817714136E+03 -0.28650913875E+03 -0.33601408091E+03  0.46905538821E+03  0.00000000000E+00 0.  1.
         21    1    1    2  502  501  0.36267509680E-02  0.21511934646E-02  0.19621709677E-03  0.42213098744E-02  0.00000000000E+00 0.  1.
<mgrwt>
<rscale>  1 0.66734411E+03</rscale>
<asrwt>0</asrwt>
<pdfrwt beam="1">  1        1 0.40487167E+00 0.66734411E+03</pdfrwt>
<pdfrwt beam="2">0</pdfrwt>
<totfact> 0.12683553E+00</totfact>
</mgrwt>
</event>
<event>
 6    1  0.2220303E-003  0.6468119E+03  0.7818608E-02  0.9812780E-01
          1   -1    0    0  502    0  0.00000000000E+00  0.00000000000E+00  0.10459155158E+03  0.10459155158E+03  0.00000000000E+00 0.  1.
         13   -1    0    0    0    0 -0.00000000000E+00 -0.00000000000E+00 -0.10000000000E+04  0.10000000000E+04  0.00000000000E+00 0.  1.
    9000005    2    1    2  501    0 -0.66367119643E-04  0.46685317955E-04 -0.89540856626E+03  0.11045914085E+04  0.64681193497E+03 0.  0.
         13    1    3    3    0    0  0.86868568945E+02 -0.16324443077E+03  0.54011191882E+01  0.18499747170E+03  0.00000000000E+00 0.  1.
          3    1    3    3  501    0 -0.86868635312E+02  0.16324447745E+03 -0.90080968544E+03  0.91959393681E+03  0.00000000000E+00 0.  1.
         21    1    1    2  502  501  0.66367119647E-04 -0.46685317944E-04  0.11783993921E-03  0.14307468244E-03  0.00000000000E+00 0. -1.
<mgrwt>
<rscale>  1 0.64681193E+03</rscale>
<asrwt>0</asrwt>
<pdfrwt beam="1">  1        1 0.38033372E+00 0.64681193E+03</pdfrwt>
<pdfrwt beam="2">0</pdfrwt>
<totfact> 0.16363763E+00</totfact>
</mgrwt>
</event>
<event>
 6    1  0.2220303E-003  0.6476222E+03  0.7818608E-02  0.9811251E-01
          1   -1    0    0  502    0  0.00000000000E+00  0.00000000000E+00  0.10485374250E+03  0.10485374250E+03  0.00000000000E+00 0.  1.
         13   -1    0    0    0    0 -0.00000000000E+00 -0.00000000000E+00 -0.10000000000E+04  0.10000000000E+04  0.00000000000E+00 0.  1.
    9000005    2    1    2  501    0 -0.15902658731E-04 -0.12265747355E-03 -0.89514633202E+03  0.11048535981E+04  0.64762220277E+03 0.  0.
         13    1    3    3    0    0 -0.31080830497E+03  0.74300201407E+02 -0.53673272053E+03  0.62466337787E+03  0.00000000000E+00 0.  1.
          1    1    3    3  501    0  0.31080828906E+03 -0.74300324065E+02 -0.35841361148E+03  0.48019022023E+03  0.00000000000E+00 0.  1.
         21    1    1    2  502  501  0.15902658752E-04  0.12265747355E-03  0.74513804036E-04  0.14439548942E-03  0.00000000000E+00 0.  1.
<mgrwt>
<rscale>  1 0.64762220E+03</rscale>
<asrwt>0</asrwt>
<pdfrwt beam="1">  1        1 0.38128714E+00 0.64762220E+03</pdfrwt>
<pdfrwt beam="2">0</pdfrwt>
<totfact> 0.16203546E+00</totfact>
</mgrwt>
</event>
<event>
 6    1  0.2220303E-003  0.6402049E+03  0.7818608E-02  0.9825335E-01
          1   -1    0    0  502    0  0.00000000000E+00  0.00000000000E+00  0.10246718656E+03  0.10246718656E+03  0.00000000000E+00 0.  1.
         13   -1    0    0    0    0 -0.00000000000E+00 -0.00000000000E+00 -0.10000000000E+04  0.10000000000E+04  0.00000000000E+00 0.  1.
    9000005    2    1    2  501    0  0.12669552832E-03  0.63166143559E-03 -0.89753436513E+03  0.11024655064E+04  0.64020485496E+03 0.  0.
         13    1    3    3    0    0 -0.25474001330E+02  0.29624018353E+03 -0.24458592668E+03  0.38500577478E+03  0.00000000000E+00 0.  1.
          1    1    3    3  501    0  0.25474128026E+02 -0.29623955187E+03 -0.65294843845E+03  0.71745973166E+03  0.00000000000E+00 0.  1.
         21    1    1    2  502  501 -0.12669552832E-03 -0.63166143560E-03  0.15516951832E-02  0.16801207896E-02  0.00000000000E+00 0.  1.
<mgrwt>
<rscale>  1 0.64020485E+03</rscale>
<asrwt>0</asrwt>
<pdfrwt beam="1">  1        1 0.37260874E+00 0.64020485E+03</pdfrwt>
<pdfrwt beam="2">0</pdfrwt>
<totfact> 0.17718886E+00</totfact>
</mgrwt>
</event>
<event>
 6    1  0.2220303E-003  0.6496265E+03  0.7818608E-02  0.9807480E-01
          1   -1    0    0  502    0  0.00000000000E+00  0.00000000000E+00  0.10550365569E+03  0.10550365569E+03  0.00000000000E+00 0.  1.
         13   -1    0    0    0    0 -0.00000000000E+00 -0.00000000000E+00 -0.10000000000E+04  0.10000000000E+04  0.00000000000E+00 0.  1.
    9000005    2    1    2  501    0  0.77992668821E-05 -0.11537465404E-04 -0.89449634209E+03  0.11055036416E+04  0.64962650467E+03 0.  0.
         13    1    3    3    0    0 -0.24815656019E+03  0.39189037713E+02 -0.79760340739E+03  0.83623480824E+03  0.00000000000E+00 0.  1.
          1    1    3    3  501    0  0.24815656799E+03 -0.39189049250E+02 -0.96892934702E+02  0.26926883335E+03  0.00000000000E+00 0.  1.
         21    1    1    2  502  501 -0.77992668778E-05  0.11537465400E-04 -0.22186744667E-05  0.14101921432E-04  0.00000000000E+00 0. -1.
<mgrwt>
<rscale>  1 0.64962650E+03</rscale>
<asrwt>0</asrwt>
<pdfrwt beam="1">  1        1 0.38365047E+00 0.64962650E+03</pdfrwt>
<pdfrwt beam="2">0</pdfrwt>
<totfact> 0.15812823E+00</totfact>
</mgrwt>
</event>
<event>
 6    1  0.2220303E-003  0.6850142E+03  0.7818608E-02  0.9743209E-01
          1   -1    0    0  502    0  0.00000000000E+00  0.00000000000E+00  0.11784924084E+03  0.11784924084E+03  0.00000000000E+00 0.  1.
         13   -1    0    0    0    0 -0.00000000000E+00 -0.00000000000E+00 -0.10000000000E+04  0.10000000000E+04  0.00000000000E+00 0.  1.
    9000005    2    1    2  501    0  0.12665886861E+00  0.13074679219E+00 -0.88267164270E+03  0.11172974647E+04  0.68501413325E+03 0.  0.
         13    1    3    3    0    0  0.15421059843E+03  0.28085391982E+01 -0.94022672167E+03  0.95279330639E+03  0.00000000000E+00 0.  1.
          1    1    3    3  501    0 -0.15408393956E+03 -0.26777924060E+01  0.57555078963E+02  0.16450415836E+03  0.00000000000E+00 0.  1.
         21    1    1    2  502  501 -0.12665886861E+00 -0.13074679219E+00  0.52088354229E+00  0.55177609344E+00  0.00000000000E+00 0.  1.
<mgrwt>
<rscale>  1 0.68501416E+03</rscale>
<asrwt>0</asrwt>
<pdfrwt beam="1">  1        1 0.42854360E+00 0.68501416E+03</pdfrwt>
<pdfrwt beam="2">0</pdfrwt>
<totfact> 0.98885996E-01</totfact>
</mgrwt>
</event>
<event>
 6    1  0.2220303E-003  0.6308159E+03  0.7818608E-02  0.9843458E-01
          1   -1    0    0  502    0  0.00000000000E+00  0.00000000000E+00  0.12334524708E+03  0.12334524708E+03  0.00000000000E+00 0.  1.
         13   -1    0    0    0    0 -0.00000000000E+00 -0.00000000000E+00 -0.10000000000E+04  0.10000000000E+04  0.00000000000E+00 0.  1.
    9000005    2    1    2  501    0 -0.15017342673E+01 -0.11447766407E+01 -0.90047675386E+03  0.10994485224E+04  0.63081304960E+03 0.  0.
         13    1    3    3    0    0 -0.45126744292E+02  0.16432512820E+03 -0.91214558265E+03  0.92792711716E+03  0.00000000000E+00 0.  1.
          3    1    3    3  501    0  0.43625010025E+02 -0.16546990484E+03  0.11668828793E+02  0.17152140529E+03  0.00000000000E+00 0.  1.
         21    1    1    2  502  501  0.15017342673E+01  0.11447766407E+01  0.23822000942E+02  0.23896724634E+02  0.00000000000E+00 0.  1.
<mgrwt>
<rscale>  1 0.63081588E+03</rscale>
<asrwt>0</asrwt>
<pdfrwt beam="1">  1        1 0.44852912E+00 0.63081588E+03</pdfrwt>
<pdfrwt beam="2">0</pdfrwt>
<totfact> 0.81022911E-01</totfact>
</mgrwt>
</event>
<event>
 6    1  0.2220303E-003  0.6509727E+03  0.7818608E-02  0.9804956E-01
          1   -1    0    0  502    0  0.00000000000E+00  0.00000000000E+00  0.11539072488E+03  0.11539072488E+03  0.00000000000E+00 0.  1.
         13   -1    0    0    0    0 -0.00000000000E+00 -0.00000000000E+00 -0.10000000000E+04  0.10000000000E+04  0.00000000000E+00 0.  1.
    9000005    2    1    2  501    0 -0.28296466428E+02 -0.25533428787E+01 -0.84751185573E+03  0.10686635583E+04  0.65035240111E+03 0.  0.
         13    1    3    3    0    0  0.16242158059E+03 -0.10406969167E+03  0.11769399964E+01  0.19290582094E+03  0.00000000000E+00 0.  1.
          3    1    3    3  501    0 -0.19071804701E+03  0.10151634879E+03 -0.84868879573E+03  0.87575773735E+03  0.00000000000E+00 0.  1.
         21    1    1    2  502  501  0.28296466428E+02  0.25533428787E+01 -0.37097419390E+02  0.46727166590E+02  0.00000000000E+00 0.  1.
<mgrwt>
<rscale>  1 0.65097270E+03</rscale>
<asrwt>0</asrwt>
<pdfrwt beam="1">  1        1 0.41960352E+00 0.65097270E+03</pdfrwt>
<pdfrwt beam="2">0</pdfrwt>
<totfact> 0.10925990E+00</totfact>
</mgrwt>
</event>
<event>
 6    1  0.2220303E-003  0.6438827E+03  0.7818608E-02  0.9818326E-01
          1   -1    0    0  502    0  0.00000000000E+00  0.00000000000E+00  0.10824464383E+03  0.10824464383E+03  0.00000000000E+00 0.  1.
         13   -1    0    0    0    0 -0.00000000000E+00 -0.00000000000E+00 -0.10000000000E+04  0.10000000000E+04  0.00000000000E+00 0.  1.
    9000005    2    1    2  501    0  0.56344846546E+00  0.10410821990E+01 -0.89626952509E+03  0.11035778411E+04  0.64388165725E+03 0.  0.
         13    1    3    3    0    0  0.26471070120E+03  0.18400069390E+03 -0.46198182359E+03  0.56334289382E+03  0.00000000000E+00 0.  1.
          1    1    3    3  501    0 -0.26414725273E+03 -0.18295961171E+03 -0.43428770149E+03  0.54023494732E+03  0.00000000000E+00 0.  1.
         21    1    1    2  502  501 -0.56344846546E+00 -0.10410821990E+01  0.45141689149E+01  0.46668026861E+01  0.00000000000E+00 0.  1.
<mgrwt>
<rscale>  1 0.64388275E+03</rscale>
<asrwt>0</asrwt>
<pdfrwt beam="1">  1        1 0.39361772E+00 0.64388275E+03</pdfrwt>
<pdfrwt beam="2">0</pdfrwt>
<totfact> 0.14299314E+00</totfact>
</mgrwt>
</event>
<event>
 6    1  0.2220303E-003  0.7724772E+03  0.7818608E-02  0.9600733E-01
          1   -1    0    0  502    0  0.00000000000E+00  0.00000000000E+00  0.14924737458E+03  0.14924737458E+03  0.00000000000E+00 0.  1.
         13   -1    0    0    0    0 -0.00000000000E+00 -0.00000000000E+00 -0.10000000000E+04  0.10000000000E+04  0.00000000000E+00 0.  1.
    9000005    2    1    2  501    0 -0.84685367018E-02 -0.10507691671E-02 -0.85081944701E+03  0.11491800103E+04  0.77247716122E+03 0.  0.
         13    1    3    3    0    0 -0.23173921330E+03 -0.11352031977E+03 -0.85294845560E+03  0.89112905569E+03  0.00000000000E+00 0.  1.
          1    1    3    3  501    0  0.23173074476E+03  0.11351926900E+03  0.21290085911E+01  0.25805095462E+03  0.00000000000E+00 0.  1.
         21    1    1    2  502  501  0.84685367018E-02  0.10507691671E-02  0.66821589227E-01  0.67364271068E-01  0.00000000000E+00 0.  1.
<mgrwt>
<rscale>  1 0.77247716E+03</rscale>
<asrwt>0</asrwt>
<pdfrwt beam="1">  1        1 0.54271887E+00 0.77247716E+03</pdfrwt>
<pdfrwt beam="2">0</pdfrwt>
<totfact> 0.27738998E-01</totfact>
</mgrwt>
</event>
<event>
 6    1  0.2220303E-003  0.6338272E+03  0.7818608E-02  0.9837609E-01
          3   -1    0    0  502    0  0.00000000000E+00  0.00000000000E+00  0.10043617552E+03  0.10043617552E+03  0.00000000000E+00 0.  1.
         13   -1    0    0    0    0 -0.00000000000E+00 -0.00000000000E+00 -0.10000000000E+04  0.10000000000E+04  0.00000000000E+00 0.  1.
    9000005    2    1    2  501    0  0.89989923907E-04 -0.28595948888E-03 -0.89956574360E+03  0.11004342331E+04  0.63382724332E+03 0.  0.
         13    1    3    3    0    0  0.24897992093E+03 -0.17257981688E+03 -0.61134537005E+03  0.68228876270E+03  0.00000000000E+00 0.  1.
          1    1    3    3  501    0 -0.24897983094E+03  0.17257953092E+03 -0.28822037355E+03  0.41814547042E+03  0.00000000000E+00 0.  1.
         21    1    1    2  502  501 -0.89989923927E-04  0.28595948886E-03  0.19191207703E-02  0.19423942820E-02  0.00000000000E+00 0. -1.
<mgrwt>
<rscale>  1 0.63382724E+03</rscale>
<asrwt>0</asrwt>
<pdfrwt beam="1">  1        3 0.36522323E+00 0.63382724E+03</pdfrwt>
<pdfrwt beam="2">0</pdfrwt>
<totfact> 0.90615600E-02</totfact>
</mgrwt>
</event>
<event>
 6    1  0.4503234E-003  0.6365533E+03  0.7818608E-02  0.9832343E-01
          1   -1    0    0  502    0  0.00000000000E+00  0.00000000000E+00  0.10130004618E+03  0.10130004618E+03  0.00000000000E+00 0.  1.
         13   -1    0    0    0    0 -0.00000000000E+00 -0.00000000000E+00 -0.10000000000E+04  0.10000000000E+04  0.00000000000E+00 0.  1.
    9000005    2    1    2  501    0  0.13163919164E-05  0.12032426341E-04 -0.89869994882E+03  0.11013000331E+04  0.63655334800E+03 0.  0.
         13    1    3    3    0    0  0.11985802779E+03 -0.12458810728E+03 -0.91168428723E+03  0.92793123823E+03  0.00000000000E+00 0.  1.
          1    1    3    3  501    0 -0.11985802648E+03  0.12458811931E+03  0.12984338404E+02  0.17336879485E+03  0.00000000000E+00 0.  1.
         21    1    1    2  502  501 -0.13163919255E-05 -0.12032426346E-04 -0.50011887061E-05  0.13096719435E-04  0.00000000000E+00 0.  1.
<mgrwt>
<rscale>  1 0.63655335E+03</rscale>
<asrwt>0</asrwt>
<pdfrwt beam="1">  1        1 0.36836458E+00 0.63655335E+03</pdfrwt>
<pdfrwt beam="2">0</pdfrwt>
<totfact> 0.18508411E+00</totfact>
</mgrwt>
</event>
<event>
 6    1  0.2220303E-003  0.6502680E+03  0.7818608E-02  0.9806277E-01
          1   -1    0    0  502    0  0.00000000000E+00  0.00000000000E+00  0.10576606899E+03  0.10576606899E+03  0.00000000000E+00 0.  1.
         13   -1    0    0    0    0 -0.00000000000E+00 -0.00000000000E+00 -0.10000000000E+04  0.10000000000E+04  0.00000000000E+00 0.  1.
    9000005    2    1    2  501    0  0.63322226846E-02  0.15873464736E-01 -0.89428639535E+03  0.11057108914E+04  0.65026795868E+03 0.  0.
         13    1    3    3    0    0 -0.60791382279E+02  0.27697993771E+03 -0.71762979872E+03  0.77162556079E+03  0.00000000000E+00 0.  1.
          1    1    3    3  501    0  0.60797714501E+02 -0.27696406425E+03 -0.17665659663E+03  0.33408533057E+03  0.00000000000E+00 0.  1.
         21    1    1    2  502  501 -0.63322226846E-02 -0.15873464736E-01  0.52464336022E-01  0.55177626635E-01  0.00000000000E+00 0.  1.
<mgrwt>
<rscale>  1 0.65026796E+03</rscale>
<asrwt>0</asrwt>
<pdfrwt beam="1">  1        1 0.38460470E+00 0.65026796E+03</pdfrwt>
<pdfrwt beam="2">0</pdfrwt>
<totfact> 0.15658101E+00</totfact>
</mgrwt>
</event>
<event>
 6    1  0.2220303E-003  0.6430042E+03  0.7818608E-02  0.9819996E-01
          1   -1    0    0  502    0  0.00000000000E+00  0.00000000000E+00  0.10336368545E+03  0.10336368545E+03  0.00000000000E+00 0.  1.
         13   -1    0    0    0    0 -0.00000000000E+00 -0.00000000000E+00 -0.10000000000E+04  0.10000000000E+04  0.00000000000E+00 0.  1.
    9000005    2    1    2  501    0 -0.17981354688E-04  0.10967964596E-03 -0.89663637357E+03  0.11033635596E+04  0.64300416659E+03 0.  0.
         13    1    3    3    0    0  0.27974268979E+03  0.15746778371E+03 -0.47860493599E+03  0.57629398761E+03  0.00000000000E+00 0.  1.
          1    1    3    3  501    0 -0.27974270777E+03 -0.15746767403E+03 -0.41803143758E+03  0.52706957200E+03  0.00000000000E+00 0.  1.
         21    1    1    2  502  501  0.17981354647E-04 -0.10967964598E-03  0.59026222351E-04  0.12584533676E-03  0.00000000000E+00 0. -1.
<mgrwt>
<rscale>  1 0.64300417E+03</rscale>
<asrwt>0</asrwt>
<pdfrwt beam="1">  1        1 0.37586874E+00 0.64300417E+03</pdfrwt>
<pdfrwt beam="2">0</pdfrwt>
<totfact> 0.17134412E+00</totfact>
</mgrwt>
</event>
<event>
 6    1  0.2220303E-003  0.6279949E+03  0.7818608E-02  0.9848970E-01
          1   -1    0    0  502    0  0.00000000000E+00  0.00000000000E+00  0.98942684809E+02  0.98942684809E+02  0.00000000000E+00 0.  1.
         13   -1    0    0    0    0 -0.00000000000E+00 -0.00000000000E+00 -0.10000000000E+04  0.10000000000E+04  0.00000000000E+00 0.  1.
    9000005    2    1    2  501    0 -0.15806932932E-01  0.91750839392E-02 -0.90140535289E+03  0.10985941675E+04  0.62799485222E+03 0.  0.
         13    1    3    3    0    0  0.15588156341E+03 -0.25574865911E+03 -0.61557029438E+03  0.68456791173E+03  0.00000000000E+00 0.  1.
          1    1    3    3  501    0 -0.15589737034E+03  0.25575783420E+03 -0.28583505851E+03  0.41402625582E+03  0.00000000000E+00 0.  1.
         21    1    1    2  502  501  0.15806932932E-01 -0.91750839392E-02  0.34803769793E+00  0.34851725993E+00  0.00000000000E+00 0. -1.
<mgrwt>
<rscale>  1 0.62799485E+03</rscale>
<asrwt>0</asrwt>
<pdfrwt beam="1">  1        1 0.35979234E+00 0.62799485E+03</pdfrwt>
<pdfrwt beam="2">0</pdfrwt>
<totfact> 0.20211338E+00</totfact>
</mgrwt>
</event>
<event>
 6    1  0.2220303E-003  0.6203826E+03  0.7818608E-02  0.9863998E-01
          1   -1    0    0  502    0  0.00000000000E+00  0.00000000000E+00  0.98955097759E+02  0.98955097759E+02  0.00000000000E+00 0.  1.
         13   -1    0    0    0    0 -0.00000000000E+00 -0.00000000000E+00 -0.10000000000E+04  0.10000000000E+04  0.00000000000E+00 0.  1.
    9000005    2    1    2  501    0  0.50861740740E+01 -0.25784230855E+01 -0.90008393401E+03  0.10931722877E+04  0.62035638538E+03 0.  0.
         13    1    3    3    0    0 -0.13363741560E+03 -0.17500965761E+03 -0.65483833601E+02  0.22972912652E+03  0.00000000000E+00 0.  1.
          3    1    3    3  501    0  0.13872358968E+03  0.17243123453E+03 -0.83460010041E+03  0.86344316118E+03  0.00000000000E+00 0.  1.
         21    1    1    2  502  501 -0.50861740740E+01  0.25784230855E+01 -0.96096822576E+00  0.57828100652E+01  0.00000000000E+00 0.  1.
<mgrwt>
<rscale>  1 0.62038259E+03</rscale>
<asrwt>0</asrwt>
<pdfrwt beam="1">  1        1 0.35983748E+00 0.62038259E+03</pdfrwt>
<pdfrwt beam="2">0</pdfrwt>
<totfact> 0.20230115E+00</totfact>
</mgrwt>
</event>
<event>
 6    1  0.2220303E-003  0.6334374E+03  0.7818608E-02  0.9838364E-01
          1   -1    0    0  502    0  0.00000000000E+00  0.00000000000E+00  0.10048500513E+03  0.10048500513E+03  0.00000000000E+00 0.  1.
         13   -1    0    0    0    0 -0.00000000000E+00 -0.00000000000E+00 -0.10000000000E+04  0.10000000000E+04  0.00000000000E+00 0.  1.
    9000005    2    1    2  501    0  0.60354856954E-02  0.44249258089E-02 -0.89968916895E+03  0.11003106703E+04  0.63343742430E+03 0.  0.
         13    1    3    3    0    0  0.22617885784E+03 -0.11508137942E+03 -0.77902036992E+03  0.81931272197E+03  0.00000000000E+00 0.  1.
          3    1    3    3  501    0 -0.22617282236E+03  0.11508580435E+03 -0.12066879902E+03  0.28099794838E+03  0.00000000000E+00 0.  1.
         21    1    1    2  502  501 -0.60354856954E-02 -0.44249258089E-02  0.17417408084E+00  0.17433478566E+00  0.00000000000E+00 0. -1.
<mgrwt>
<rscale>  1 0.63343742E+03</rscale>
<asrwt>0</asrwt>
<pdfrwt beam="1">  1        1 0.36540079E+00 0.63343742E+03</pdfrwt>
<pdfrwt beam="2">0</pdfrwt>
<totfact> 0.19081553E+00</totfact>
</mgrwt>
</event>
<event>
 6    1  0.2220303E-003  0.6455801E+03  0.7818608E-02  0.9815108E-01
          1   -1    0    0  502    0  0.00000000000E+00  0.00000000000E+00  0.10419354458E+03  0.10419354458E+03  0.00000000000E+00 0.  1.
         13   -1    0    0    0    0 -0.00000000000E+00 -0.00000000000E+00 -0.10000000000E+04  0.10000000000E+04  0.00000000000E+00 0.  1.
    9000005    2    1    2  501    0 -0.77163747960E-05 -0.29196555340E-03 -0.89580629949E+03  0.11041932135E+04  0.64558014725E+03 0.  0.
         13    1    3    3    0    0 -0.70956686303E+02  0.27001364414E+03 -0.72502366489E+03  0.77691797122E+03  0.00000000000E+00 0.  1.
          3    1    3    3  501    0  0.70956678586E+02 -0.27001393610E+03 -0.17078263460E+03  0.32727524228E+03  0.00000000000E+00 0.  1.
         21    1    1    2  502  501  0.77163747973E-05  0.29196555340E-03 -0.15593053548E-03  0.33108572713E-03  0.00000000000E+00 0.  1.
<mgrwt>
<rscale>  1 0.64558015E+03</rscale>
<asrwt>0</asrwt>
<pdfrwt beam="1">  1        1 0.37888642E+00 0.64558015E+03</pdfrwt>
<pdfrwt beam="2">0</pdfrwt>
<totfact> 0.16609866E+00</totfact>
</mgrwt>
</event>
<event>
 6    1  0.2220303E-003  0.6510663E+03  0.7818608E-02  0.9804780E-01
          1   -1    0    0  502    0  0.00000000000E+00  0.00000000000E+00  0.10598572955E+03  0.10598572955E+03  0.00000000000E+00 0.  1.
         13   -1    0    0    0    0 -0.00000000000E+00 -0.00000000000E+00 -0.10000000000E+04  0.10000000000E+04  0.00000000000E+00 0.  1.
    9000005    2    1    2  501    0  0.17466606692E-01 -0.82072572610E-03 -0.89402179595E+03  0.11059666930E+04  0.65106632085E+03 0.  0.
         13    1    3    3    0    0  0.28969202110E+03 -0.13546221443E+03 -0.34361668390E+03  0.46940803581E+03  0.00000000000E+00 0.  1.
          1    1    3    3  501    0 -0.28967455450E+03  0.13546139370E+03 -0.55040511205E+03  0.63655865722E+03  0.00000000000E+00 0.  1.
         21    1    1    2  502  501 -0.17466606692E-01  0.82072572608E-03  0.75255062243E-02  0.19036522371E-01  0.00000000000E+00 0. -1.
<mgrwt>
<rscale>  1 0.65106632E+03</rscale>
<asrwt>0</asrwt>
<pdfrwt beam="1">  1        1 0.38540347E+00 0.65106632E+03</pdfrwt>
<pdfrwt beam="2">0</pdfrwt>
<totfact> 0.15528944E+00</totfact>
</mgrwt>
</event>
<event>
 6    1  0.2220303E-003  0.6462444E+03  0.7818608E-02  0.9813852E-01
          1   -1    0    0  502    0  0.00000000000E+00  0.00000000000E+00  0.10721536201E+03  0.10721536201E+03  0.00000000000E+00 0.  1.
         13   -1    0    0    0    0 -0.00000000000E+00 -0.00000000000E+00 -0.10000000000E+04  0.10000000000E+04  0.00000000000E+00 0.  1.
    9000005    2    1    2  501    0  0.81182158941E-01 -0.44248505593E-03 -0.89559140127E+03  0.11044074249E+04  0.64624437758E+03 0.  0.
         13    1    3    3    0    0 -0.13525390020E+03 -0.90347414467E+02  0.29333663351E+02  0.16527775599E+03  0.00000000000E+00 0.  1.
          3    1    3    3  501    0  0.13533508236E+03  0.90346971982E+02 -0.92492506462E+03  0.93912966891E+03  0.00000000000E+00 0.  1.
         21    1    1    2  502  501 -0.81182158941E-01  0.44248505592E-03  0.28067632775E+01  0.28079371138E+01  0.00000000000E+00 0.  1.
<mgrwt>
<rscale>  1 0.64624438E+03</rscale>
<asrwt>0</asrwt>
<pdfrwt beam="1">  1        1 0.38987487E+00 0.64624438E+03</pdfrwt>
<pdfrwt beam="2">0</pdfrwt>
<totfact> 0.14850101E+00</totfact>
</mgrwt>
</event>
<event>
 6    1  0.2220303E-003  0.6334546E+03  0.7818608E-02  0.9838331E-01
          1   -1    0    0  502    0  0.00000000000E+00  0.00000000000E+00  0.10035698264E+03  0.10035698264E+03  0.00000000000E+00 0.  1.
         13   -1    0    0    0    0 -0.00000000000E+00 -0.00000000000E+00 -0.10000000000E+04  0.10000000000E+04  0.00000000000E+00 0.  1.
    9000005    2    1    2  501    0  0.61415867424E-03 -0.10407651214E-03 -0.89968382615E+03  0.11003161691E+04  0.63345456422E+03 0.  0.
         13    1    3    3    0    0 -0.18765715899E+03 -0.23522115396E+03 -0.27813349005E+03  0.40975900098E+03  0.00000000000E+00 0.  1.
          1    1    3    3  501    0  0.18765777315E+03  0.23522104989E+03 -0.62155033610E+03  0.69055716812E+03  0.00000000000E+00 0.  1.
         21    1    1    2  502  501 -0.61415867424E-03  0.10407651215E-03  0.40808789443E-01  0.40813543323E-01  0.00000000000E+00 0. -1.
<mgrwt>
<rscale>  1 0.63345456E+03</rscale>
<asrwt>0</asrwt>
<pdfrwt beam="1">  1        1 0.36493525E+00 0.63345456E+03</pdfrwt>
<pdfrwt beam="2">0</pdfrwt>
<totfact> 0.19171348E+00</totfact>
</mgrwt>
</event>
<event>
 6    1  0.2220303E-003  0.6478070E+03  0.7818608E-02  0.9810903E-01
          1   -1    0    0  502    0  0.00000000000E+00  0.00000000000E+00  0.10510359368E+03  0.10510359368E+03  0.00000000000E+00 0.  1.
         13   -1    0    0    0    0 -0.00000000000E+00 -0.00000000000E+00 -0.10000000000E+04  0.10000000000E+04  0.00000000000E+00 0.  1.
    9000005    2    1    2  501    0 -0.70343801698E-01  0.65516232464E-01 -0.89507302200E+03  0.11049025123E+04  0.64780694477E+03 0.  0.
         13    1    3    3    0    0  0.16767505532E+03 -0.14800535998E+03 -0.84702268842E+03  0.87605247871E+03  0.00000000000E+00 0.  1.
          1    1    3    3  501    0 -0.16774539912E+03  0.14807087622E+03 -0.48050333589E+02  0.22885003358E+03  0.00000000000E+00 0.  1.
         21    1    1    2  502  501  0.70343801698E-01 -0.65516232464E-01  0.17661568779E+00  0.20108139726E+00  0.00000000000E+00 0. -1.
<mgrwt>
<rscale>  1 0.64780695E+03</rscale>
<asrwt>0</asrwt>
<pdfrwt beam="1">  1        1 0.38219569E+00 0.64780695E+03</pdfrwt>
<pdfrwt beam="2">0</pdfrwt>
<totfact> 0.16053995E+00</totfact>
</mgrwt>
</event>
<event>
 6    1  0.2220303E-003  0.6622536E+03  0.7818608E-02  0.9784054E-01
          1   -1    0    0  502    0  0.00000000000E+00  0.00000000000E+00  0.10965965556E+03  0.10965965556E+03  0.00000000000E+00 0.  1.
         13   -1    0    0    0    0 -0.00000000000E+00 -0.00000000000E+00 -0.10000000000E+04  0.10000000000E+04  0.00000000000E+00 0.  1.
    9000005    2    1    2  501    0 -0.99863144422E-03  0.18711435924E-02 -0.89035495236E+03  0.11096448945E+04  0.66225361505E+03 0.  0.
         13    1    3    3    0    0 -0.15840723204E+03  0.27008125207E+03 -0.26464645751E+03  0.40996887851E+03  0.00000000000E+00 0.  1.
          1    1    3    3  501    0  0.15840623340E+03 -0.27007938092E+03 -0.62570849485E+03  0.69967601596E+03  0.00000000000E+00 0.  1.
         21    1    1    2  502  501  0.99863144424E-03 -0.18711435924E-02  0.14607911841E-01  0.14761081649E-01  0.00000000000E+00 0.  1.
<mgrwt>
<rscale>  1 0.66225362E+03</rscale>
<asrwt>0</asrwt>
<pdfrwt beam="1">  1        1 0.39876322E+00 0.66225362E+03</pdfrwt>
<pdfrwt beam="2">0</pdfrwt>
<totfact> 0.13518345E+00</totfact>
</mgrwt>
</event>
<event>
 6    1  0.2220303E-003  0.6513481E+03  0.7818608E-02  0.9804253E-01
          1   -1    0    0  502    0  0.00000000000E+00  0.00000000000E+00  0.10607719813E+03  0.10607719813E+03  0.00000000000E+00 0.  1.
         13   -1    0    0    0    0 -0.00000000000E+00 -0.00000000000E+00 -0.10000000000E+04  0.10000000000E+04  0.00000000000E+00 0.  1.
    9000005    2    1    2  501    0  0.18990073382E-02 -0.10175344841E-02 -0.89393632057E+03  0.11060635088E+04  0.65134809459E+03 0.  0.
         13    1    3    3    0    0 -0.25337073050E+03 -0.12043466411E+03 -0.72786030722E+03  0.78005247402E+03  0.00000000000E+00 0.  1.
          1    1    3    3  501    0  0.25337262951E+03  0.12043364658E+03 -0.16607601335E+03  0.32601103481E+03  0.00000000000E+00 0.  1.
         21    1    1    2  502  501 -0.18990073382E-02  0.10175344841E-02  0.13518702283E-01  0.13689299351E-01  0.00000000000E+00 0. -1.
<mgrwt>
<rscale>  1 0.65134809E+03</rscale>
<asrwt>0</asrwt>
<pdfrwt beam="1">  1        1 0.38573608E+00 0.65134809E+03</pdfrwt>
<pdfrwt beam="2">0</pdfrwt>
<totfact> 0.15475605E+00</totfact>
</mgrwt>
</event>
<event>
 6    1  0.2220303E-003  0.6491125E+03  0.7818608E-02  0.9808446E-01
          1   -1    0    0  502    0  0.00000000000E+00  0.00000000000E+00  0.10533677744E+03  0.10533677744E+03  0.00000000000E+00 0.  1.
         13   -1    0    0    0    0 -0.00000000000E+00 -0.00000000000E+00 -0.10000000000E+04  0.10000000000E+04  0.00000000000E+00 0.  1.
    9000005    2    1    2  501    0 -0.11695050834E-04 -0.46576402440E-04 -0.89466322268E+03  0.11053367294E+04  0.64911247360E+03 0.  0.
         13    1    3    3    0    0  0.21423108080E+02 -0.19052304570E+03 -0.89326453581E+03  0.91360796376E+03  0.00000000000E+00 0.  1.
          1    1    3    3  501    0 -0.21423119775E+02  0.19052299912E+03 -0.13986868601E+01  0.19172876565E+03  0.00000000000E+00 0.  1.
         21    1    1    2  502  501  0.11695050830E-04  0.46576402433E-04  0.11109176798E-06  0.48022367902E-04  0.00000000000E+00 0.  1.
<mgrwt>
<rscale>  1 0.64911247E+03</rscale>
<asrwt>0</asrwt>
<pdfrwt beam="1">  1        1 0.38304363E+00 0.64911247E+03</pdfrwt>
<pdfrwt beam="2">0</pdfrwt>
<totfact> 0.15912283E+00</totfact>
</mgrwt>
</event>
<event>
 6    1  0.2220303E-003  0.6467105E+03  0.7818608E-02  0.9812971E-01
          1   -1    0    0  502    0  0.00000000000E+00  0.00000000000E+00  0.10459350521E+03  0.10459350521E+03  0.00000000000E+00 0.  1.
         13   -1    0    0    0    0 -0.00000000000E+00 -0.00000000000E+00 -0.10000000000E+04  0.10000000000E+04  0.00000000000E+00 0.  1.
    9000005    2    1    2  501    0  0.12890036950E-02  0.84492297655E-03 -0.89544137927E+03  0.11045585867E+04  0.64671045125E+03 0.  0.
         13    1    3    3    0    0 -0.30808560207E+03 -0.68311876607E+01 -0.61502013595E+03  0.68790491418E+03  0.00000000000E+00 0.  1.
          1    1    3    3  501    0  0.30808689108E+03  0.68320325837E+01 -0.28042124331E+03  0.41665367252E+03  0.00000000000E+00 0.  1.
         21    1    1    2  502  501 -0.12890036950E-02 -0.84492297655E-03  0.34884473865E-01  0.34918504295E-01  0.00000000000E+00 0. -1.
<mgrwt>
<rscale>  1 0.64671045E+03</rscale>
<asrwt>0</asrwt>
<pdfrwt beam="1">  1        1 0.38034082E+00 0.64671045E+03</pdfrwt>
<pdfrwt beam="2">0</pdfrwt>
<totfact> 0.16362887E+00</totfact>
</mgrwt>
</event>
<event>
 6    1  0.2268059E-003  0.6455190E+03  0.7818608E-02  0.9815224E-01
          1   -1    0    0  502    0  0.00000000000E+00  0.00000000000E+00  0.10417369969E+03  0.10417369969E+03  0.00000000000E+00 0.  1.
         13   -1    0    0    0    0 -0.00000000000E+00 -0.00000000000E+00 -0.10000000000E+04  0.10000000000E+04  0.00000000000E+00 0.  1.
    9000005    2    1    2  501    0  0.40205043490E-05 -0.58755026373E-05 -0.89582630055E+03  0.11041736926E+04  0.64551900251E+03 0.  0.
         13    1    3    3    0    0 -0.15148921556E+03 -0.22101535150E+03 -0.75569725567E+03  0.80179493030E+03  0.00000000000E+00 0.  1.
          1    1    3    3  501    0  0.15148921958E+03  0.22101534562E+03 -0.14012904488E+03  0.30237876226E+03  0.00000000000E+00 0.  1.
         21    1    1    2  502  501 -0.40205043419E-05  0.58755026313E-05  0.24349784052E-06  0.71235719644E-05  0.00000000000E+00 0. -1.
<mgrwt>
<rscale>  1 0.64551900E+03</rscale>
<asrwt>0</asrwt>
<pdfrwt beam="1">  1        1 0.37881425E+00 0.64551900E+03</pdfrwt>
<pdfrwt beam="2">0</pdfrwt>
<totfact> 0.16622227E+00</totfact>
</mgrwt>
</event>
<event>
 6    1  0.2220303E-003  0.6540104E+03  0.7818608E-02  0.9799283E-01
          1   -1    0    0  502    0  0.00000000000E+00  0.00000000000E+00  0.10698866669E+03  0.10698866669E+03  0.00000000000E+00 0.  1.
         13   -1    0    0    0    0 -0.00000000000E+00 -0.00000000000E+00 -0.10000000000E+04  0.10000000000E+04  0.00000000000E+00 0.  1.
    9000005    2    1    2  501    0 -0.63522434506E-01 -0.49376573702E-01 -0.89303381038E+03  0.11069051301E+04  0.65401037764E+03 0.  0.
         13    1    3    3    0    0  0.15729244765E+03  0.10240025230E+02  0.38384909223E+02  0.16223185094E+03  0.00000000000E+00 0.  1.
          3    1    3    3  501    0 -0.15735597008E+03 -0.10289401803E+02 -0.93141871960E+03  0.94467327914E+03  0.00000000000E+00 0.  1.
         21    1    1    2  502  501  0.63522434506E-01  0.49376573702E-01  0.22477066746E-01  0.83536604226E-01  0.00000000000E+00 0.  1.
<mgrwt>
<rscale>  1 0.65401038E+03</rscale>
<asrwt>0</asrwt>
<pdfrwt beam="1">  1        1 0.38905052E+00 0.65401038E+03</pdfrwt>
<pdfrwt beam="2">0</pdfrwt>
<totfact> 0.14953919E+00</totfact>
</mgrwt>
</event>
<event>
 6    1  0.2220303E-003  0.6412218E+03  0.7818608E-02  0.9823392E-01
          1   -1    0    0  502    0  0.00000000000E+00  0.00000000000E+00  0.10285054895E+03  0.10285054895E+03  0.00000000000E+00 0.  1.
         13   -1    0    0    0    0 -0.00000000000E+00 -0.00000000000E+00 -0.10000000000E+04  0.10000000000E+04  0.00000000000E+00 0.  1.
    9000005    2    1    2  501    0  0.32445763290E-02 -0.32170931522E-03 -0.89720860192E+03  0.11027913083E+04  0.64122179801E+03 0.  0.
         13    1    3    3    0    0 -0.12017208303E+03  0.17438338026E+03 -0.34628114244E+02  0.21459263535E+03  0.00000000000E+00 0.  1.
          3    1    3    3  501    0  0.12017532761E+03 -0.17438370197E+03 -0.86258048768E+03  0.88819867293E+03  0.00000000000E+00 0.  1.
         21    1    1    2  502  501 -0.32445763290E-02  0.32170931522E-03  0.59150874934E-01  0.59240668277E-01  0.00000000000E+00 0.  1.
<mgrwt>
<rscale>  1 0.64122180E+03</rscale>
<asrwt>0</asrwt>
<pdfrwt beam="1">  1        1 0.37400278E+00 0.64122180E+03</pdfrwt>
<pdfrwt beam="2">0</pdfrwt>
<totfact> 0.17467235E+00</totfact>
</mgrwt>
</event>
<event>
 6    1  0.2220303E-003  0.5564606E+03  0.7818608E-02  0.1000010E+00
          1   -1    0    0  502    0  0.00000000000E+00  0.00000000000E+00  0.77412932717E+02  0.77412932717E+02  0.00000000000E+00 0.  1.
         13   -1    0    0    0    0 -0.00000000000E+00 -0.00000000000E+00 -0.10000000000E+04  0.10000000000E+04  0.00000000000E+00 0.  1.
    9000005    2    1    2  501    0  0.32827868068E-04  0.32514607256E-04 -0.92258790848E+03  0.10774120902E+04  0.55646056764E+03 0.  0.
         13    1    3    3    0    0  0.65845490708E+02 -0.26995441088E+03 -0.43383884668E+03  0.51519623202E+03  0.00000000000E+00 0.  1.
          3    1    3    3  501    0 -0.65845457880E+02  0.26995444339E+03 -0.48874906181E+03  0.56221585823E+03  0.00000000000E+00 0.  1.
         21    1    1    2  502  501 -0.32827868072E-04 -0.32514607260E-04  0.84120026562E-03  0.84246825192E-03  0.00000000000E+00 0.  1.
<mgrwt>
<rscale>  1 0.55646057E+03</rscale>
<asrwt>0</asrwt>
<pdfrwt beam="1">  1        1 0.28150217E+00 0.55646057E+03</pdfrwt>
<pdfrwt beam="2">0</pdfrwt>
<totfact> 0.44682328E+00</totfact>
</mgrwt>
</event>
<event>
 6    1  0.2220303E-003  0.6562765E+03  0.7818608E-02  0.9795073E-01
          1   -1    0    0  502    0  0.00000000000E+00  0.00000000000E+00  0.10830682725E+03  0.10830682725E+03  0.00000000000E+00 0.  1.
         13   -1    0    0    0    0 -0.00000000000E+00 -0.00000000000E+00 -0.10000000000E+04  0.10000000000E+04  0.00000000000E+00 0.  1.
    9000005    2    1    2  501    0  0.14080446864E-01 -0.98829126649E+00 -0.89186465547E+03  0.11073036701E+04  0.65627576315E+03 0.  0.
         13    1    3    3    0    0  0.17680021041E+03 -0.21445017520E+03 -0.15102643104E+03  0.31631657389E+03  0.00000000000E+00 0.  1.
          3    1    3    3  501    0 -0.17678612996E+03  0.21346188394E+03 -0.74083822443E+03  0.79098709624E+03  0.00000000000E+00 0.  1.
         21    1    1    2  502  501 -0.14080446864E-01  0.98829126649E+00  0.17148272429E+00  0.10031571219E+01  0.00000000000E+00 0.  1.
<mgrwt>
<rscale>  1 0.65627651E+03</rscale>
<asrwt>0</asrwt>
<pdfrwt beam="1">  1        1 0.39384384E+00 0.65627651E+03</pdfrwt>
<pdfrwt beam="2">0</pdfrwt>
<totfact> 0.14233080E+00</totfact>
</mgrwt>
</event>
<event>
 6    1  0.2220303E-003  0.6546227E+03  0.7818608E-02  0.9798144E-01
          1   -1    0    0  502    0  0.00000000000E+00  0.00000000000E+00  0.10713350095E+03  0.10713350095E+03  0.00000000000E+00 0.  1.
         13   -1    0    0    0    0 -0.00000000000E+00 -0.00000000000E+00 -0.10000000000E+04  0.10000000000E+04  0.00000000000E+00 0.  1.
    9000005    2    1    2  501    0  0.13962781479E-02  0.40774904316E-03 -0.89286645702E+03  0.11071320457E+04  0.65462268265E+03 0.  0.
         13    1    3    3    0    0  0.28192649146E+03  0.83912854788E+02 -0.20363940085E+03  0.35776098077E+03  0.00000000000E+00 0.  1.
          1    1    3    3  501    0 -0.28192509518E+03 -0.83912447039E+02 -0.68922705617E+03  0.74937106497E+03  0.00000000000E+00 0.  1.
         21    1    1    2  502  501 -0.13962781479E-02 -0.40774904316E-03 -0.42024662133E-04  0.14552037729E-02  0.00000000000E+00 0. -1.
<mgrwt>
<rscale>  1 0.65462268E+03</rscale>
<asrwt>0</asrwt>
<pdfrwt beam="1">  1        1 0.38957719E+00 0.65462268E+03</pdfrwt>
<pdfrwt beam="2">0</pdfrwt>
<totfact> 0.14872053E+00</totfact>
</mgrwt>
</event>
<event>
 6    1  0.2220303E-003  0.6521031E+03  0.7818608E-02  0.9802841E-01
          1   -1    0    0  502    0  0.00000000000E+00  0.00000000000E+00  0.10631095383E+03  0.10631095383E+03  0.00000000000E+00 0.  1.
         13   -1    0    0    0    0 -0.00000000000E+00 -0.00000000000E+00 -0.10000000000E+04  0.10000000000E+04  0.00000000000E+00 0.  1.
    9000005    2    1    2  501    0  0.68301491977E-03  0.96613506891E-03 -0.89369007943E+03  0.11063093830E+04  0.65210313050E+03 0.  0.
         13    1    3    3    0    0  0.11851090449E+03  0.46457871026E+02  0.62413523253E+02  0.14176958823E+03  0.00000000000E+00 0.  1.
          1    1    3    3  501    0 -0.11851022147E+03 -0.46456904891E+02 -0.95610360268E+03  0.96453979476E+03  0.00000000000E+00 0.  1.
         21    1    1    2  502  501 -0.68301491977E-03 -0.96613506891E-03  0.10332602937E-02  0.15708447366E-02  0.00000000000E+00 0.  1.
<mgrwt>
<rscale>  1 0.65210313E+03</rscale>
<asrwt>0</asrwt>
<pdfrwt beam="1">  1        1 0.38658610E+00 0.65210313E+03</pdfrwt>
<pdfrwt beam="2">0</pdfrwt>
<totfact> 0.15339985E+00</totfact>
</mgrwt>
</event>
<event>
 6    1  0.2220303E-003  0.6484943E+03  0.7818608E-02  0.9809609E-01
          1   -1    0    0  502    0  0.00000000000E+00  0.00000000000E+00  0.11386991682E+03  0.11386991682E+03  0.00000000000E+00 0.  1.
         13   -1    0    0    0    0 -0.00000000000E+00 -0.00000000000E+00 -0.10000000000E+04  0.10000000000E+04  0.00000000000E+00 0.  1.
    9000005    2    1    2  501    0 -0.71930930069E+00  0.56179581521E+01 -0.89383741128E+03  0.11043053067E+04  0.64846959359E+03 0.  0.
         13    1    3    3    0    0 -0.31159123049E+03 -0.54276936613E+02 -0.32624925823E+03  0.45439372714E+03  0.00000000000E+00 0.  1.
          1    1    3    3  501    0  0.31087192119E+03  0.59894894765E+02 -0.56758815305E+03  0.64991157959E+03  0.00000000000E+00 0.  1.
         21    1    1    2  502  501  0.71930930069E+00 -0.56179581521E+01  0.77073280992E+01  0.95646100860E+01  0.00000000000E+00 0.  1.
<mgrwt>
<rscale>  1 0.64849433E+03</rscale>
<asrwt>0</asrwt>
<pdfrwt beam="1">  1        1 0.41407330E+00 0.64849433E+03</pdfrwt>
<pdfrwt beam="2">0</pdfrwt>
<totfact> 0.11576160E+00</totfact>
</mgrwt>
</event>
<event>
 6    1  0.2220303E-003  0.6522047E+03  0.7818608E-02  0.9802651E-01
          1   -1    0    0  502    0  0.00000000000E+00  0.00000000000E+00  0.10637673795E+03  0.10637673795E+03  0.00000000000E+00 0.  1.
         13   -1    0    0    0    0 -0.00000000000E+00 -0.00000000000E+00 -0.10000000000E+04  0.10000000000E+04  0.00000000000E+00 0.  1.
    9000005    2    1    2  501    0 -0.44879203120E-01 -0.34441192583E-01 -0.89362895512E+03  0.11063198807E+04  0.65220469621E+03 0.  0.
         13    1    3    3    0    0 -0.32255673621E+03 -0.16155409373E+02 -0.52372181758E+03  0.61529536610E+03  0.00000000000E+00 0.  1.
          3    1    3    3  501    0  0.32251185701E+03  0.16120968180E+02 -0.36990713753E+03  0.49102451458E+03  0.00000000000E+00 0.  1.
         21    1    1    2  502  501  0.44879203120E-01  0.34441192583E-01  0.56930674571E-02  0.56857274260E-01  0.00000000000E+00 0. -1.
<mgrwt>
<rscale>  1 0.65220470E+03</rscale>
<asrwt>0</asrwt>
<pdfrwt beam="1">  1        1 0.38682532E+00 0.65220470E+03</pdfrwt>
<pdfrwt beam="2">0</pdfrwt>
<totfact> 0.15302336E+00</totfact>
</mgrwt>
</event>
<event>
 6    1  0.2220303E-003  0.6558455E+03  0.7818608E-02  0.9795872E-01
          1   -1    0    0  502    0  0.00000000000E+00  0.00000000000E+00  0.10755396559E+03  0.10755396559E+03  0.00000000000E+00 0.  1.
         13   -1    0    0    0    0 -0.00000000000E+00 -0.00000000000E+00 -0.10000000000E+04  0.10000000000E+04  0.00000000000E+00 0.  1.
    9000005    2    1    2  501    0  0.49609624725E-02 -0.26935213077E-02 -0.89246623024E+03  0.11075329957E+04  0.65584553389E+03 0.  0.
         13    1    3    3    0    0 -0.10002435821E+03  0.10451433538E+03  0.50732806908E+02  0.15330341233E+03  0.00000000000E+00 0.  1.
          3    1    3    3  501    0  0.10002931917E+03 -0.10451702890E+03 -0.94319903715E+03  0.95422958333E+03  0.00000000000E+00 0.  1.
         21    1    1    2  502  501 -0.49609624725E-02  0.26935213077E-02  0.20195832779E-01  0.20969927690E-01  0.00000000000E+00 0. -1.
<mgrwt>
<rscale>  1 0.65584553E+03</rscale>
<asrwt>0</asrwt>
<pdfrwt beam="1">  1        1 0.39110615E+00 0.65584553E+03</pdfrwt>
<pdfrwt beam="2">0</pdfrwt>
<totfact> 0.14638296E+00</totfact>
</mgrwt>
</event>
<event>
 6    1  0.2220303E-003  0.6482457E+03  0.7818608E-02  0.9810076E-01
          1   -1    0    0  502    0  0.00000000000E+00  0.00000000000E+00  0.13523797377E+03  0.13523797377E+03  0.00000000000E+00 0.  1.
         13   -1    0    0    0    0 -0.00000000000E+00 -0.00000000000E+00 -0.10000000000E+04  0.10000000000E+04  0.00000000000E+00 0.  1.
    9000005    2    1    2  501    0  0.69162008306E+00  0.16433463255E+00 -0.89493973776E+03  0.11050518906E+04  0.64824535581E+03 0.  0.
         13    1    3    3    0    0  0.22456507040E+03 -0.21432745627E+03 -0.60772714213E+03  0.68242069769E+03  0.00000000000E+00 0.  1.
          1    1    3    3  501    0 -0.22387345032E+03  0.21449179090E+03 -0.28721259563E+03  0.42263119290E+03  0.00000000000E+00 0.  1.
         21    1    1    2  502  501 -0.69162008306E+00 -0.16433463255E+00  0.30177711532E+02  0.30186083176E+02  0.00000000000E+00 0. -1.
<mgrwt>
<rscale>  1 0.64824575E+03</rscale>
<asrwt>0</asrwt>
<pdfrwt beam="1">  1        1 0.49177549E+00 0.64824575E+03</pdfrwt>
<pdfrwt beam="2">0</pdfrwt>
<totfact> 0.50646950E-01</totfact>
</mgrwt>
</event>
<event>
 6    1  0.2220303E-003  0.6564750E+03  0.7818608E-02  0.9794705E-01
          1   -1    0    0  502    0  0.00000000000E+00  0.00000000000E+00  0.10776576648E+03  0.10776576648E+03  0.00000000000E+00 0.  1.
         13   -1    0    0    0    0 -0.00000000000E+00 -0.00000000000E+00 -0.10000000000E+04  0.10000000000E+04  0.00000000000E+00 0.  1.
    9000005    2    1    2  501    0  0.44014057726E-02  0.50045725420E-03 -0.89225993007E+03  0.11077396909E+04  0.65647501094E+03 0.  0.
         13    1    3    3    0    0 -0.24435355652E+03  0.41219326543E+02 -0.80933617620E+03  0.84642349895E+03  0.00000000000E+00 0.  1.
          1    1    3    3  501    0  0.24435795792E+03 -0.41218826085E+02 -0.82923753866E+02  0.26131619196E+03  0.00000000000E+00 0.  1.
         21    1    1    2  502  501 -0.44014057726E-02 -0.50045725420E-03  0.25696550804E-01  0.26075573886E-01  0.00000000000E+00 0.  1.
<mgrwt>
<rscale>  1 0.65647501E+03</rscale>
<asrwt>0</asrwt>
<pdfrwt beam="1">  1        1 0.39187634E+00 0.65647501E+03</pdfrwt>
<pdfrwt beam="2">0</pdfrwt>
<totfact> 0.14521833E+00</totfact>
</mgrwt>
</event>
<event>
 6    1  0.2220303E-003  0.6445128E+03  0.7818608E-02  0.9817130E-01
          1   -1    0    0  502    0  0.00000000000E+00  0.00000000000E+00  0.11051331088E+03  0.11051331088E+03  0.00000000000E+00 0.  1.
         13   -1    0    0    0    0 -0.00000000000E+00 -0.00000000000E+00 -0.10000000000E+04  0.10000000000E+04  0.00000000000E+00 0.  1.
    9000005    2    1    2  501    0  0.25510218198E+01 -0.62522185751E+00 -0.89586397358E+03  0.11036163281E+04  0.64450744125E+03 0.  0.
         13    1    3    3    0    0 -0.15343955742E+03  0.17529878940E+03 -0.67526171665E+02  0.24255545182E+03  0.00000000000E+00 0.  1.
          3    1    3    3  501    0  0.15599057924E+03 -0.17592401126E+03 -0.82833780191E+03  0.86106087626E+03  0.00000000000E+00 0.  1.
         21    1    1    2  502  501 -0.25510218198E+01  0.62522185751E+00  0.63772844553E+01  0.68969827983E+01  0.00000000000E+00 0. -1.
<mgrwt>
<rscale>  1 0.64451279E+03</rscale>
<asrwt>0</asrwt>
<pdfrwt beam="1">  1        1 0.40186743E+00 0.64451279E+03</pdfrwt>
<pdfrwt beam="2">0</pdfrwt>
<totfact> 0.13138441E+00</totfact>
</mgrwt>
</event>
<event>
 6    1  0.2220303E-003  0.6412750E+03  0.7818608E-02  0.9823290E-01
          1   -1    0    0  502    0  0.00000000000E+00  0.00000000000E+00  0.11586794366E+03  0.11586794366E+03  0.00000000000E+00 0.  1.
         13   -1    0    0    0    0 -0.00000000000E+00 -0.00000000000E+00 -0.10000000000E+04  0.10000000000E+04  0.00000000000E+00 0.  1.
    9000005    2    1    2  501    0  0.21649698176E-01 -0.18786368569E+00 -0.89719084240E+03  0.11028077884E+04  0.64127496032E+03 0.  0.
         13    1    3    3    0    0 -0.25703187957E+03 -0.78788303683E+02 -0.74916988091E+03  0.79594503226E+03  0.00000000000E+00 0.  1.
          1    1    3    3  501    0  0.25705352927E+03  0.78600439998E+02 -0.14802096149E+03  0.30686275616E+03  0.00000000000E+00 0.  1.
         21    1    1    2  502  501 -0.21649698176E-01  0.18786368569E+00  0.13058786064E+02  0.13060155242E+02  0.00000000000E+00 0. -1.
<mgrwt>
<rscale>  1 0.64127499E+03</rscale>
<asrwt>0</asrwt>
<pdfrwt beam="1">  1        1 0.42133887E+00 0.64127499E+03</pdfrwt>
<pdfrwt beam="2">0</pdfrwt>
<totfact> 0.10751543E+00</totfact>
</mgrwt>
</event>
<event>
 6    1  0.2220303E-003  0.6497003E+03  0.7818608E-02  0.9807342E-01
          1   -1    0    0  502    0  0.00000000000E+00  0.00000000000E+00  0.10557136077E+03  0.10557136077E+03  0.00000000000E+00 0.  1.
         13   -1    0    0    0    0 -0.00000000000E+00 -0.00000000000E+00 -0.10000000000E+04  0.10000000000E+04  0.00000000000E+00 0.  1.
    9000005    2    1    2  501    0  0.12764844977E-01  0.89452714876E-02 -0.89447083967E+03  0.11055263737E+04  0.64970029991E+03 0.  0.
         13    1    3    3    0    0 -0.19071268400E+03  0.26250824615E+03 -0.47390343466E+03  0.57433994508E+03  0.00000000000E+00 0.  1.
          3    1    3    3  501    0  0.19072544884E+03 -0.26249930088E+03 -0.42056740501E+03  0.53118642862E+03  0.00000000000E+00 0.  1.
         21    1    1    2  502  501 -0.12764844977E-01 -0.89452714876E-02  0.42200438939E-01  0.44987066985E-01  0.00000000000E+00 0. -1.
<mgrwt>
<rscale>  1 0.64970030E+03</rscale>
<asrwt>0</asrwt>
<pdfrwt beam="1">  1        1 0.38389667E+00 0.64970030E+03</pdfrwt>
<pdfrwt beam="2">0</pdfrwt>
<totfact> 0.15773032E+00</totfact>
</mgrwt>
</event>
<event>
 6    1  0.2220303E-003  0.6397166E+03  0.7818608E-02  0.9826269E-01
          1   -1    0    0  502    0  0.00000000000E+00  0.00000000000E+00  0.10230935036E+03  0.10230935036E+03  0.00000000000E+00 0.  1.
         13   -1    0    0    0    0 -0.00000000000E+00 -0.00000000000E+00 -0.10000000000E+04  0.10000000000E+04  0.00000000000E+00 0.  1.
    9000005    2    1    2  501    0 -0.12397342005E-04  0.97341713143E-05 -0.89769067592E+03  0.11023093197E+04  0.63971656747E+03 0.  0.
         13    1    3    3    0    0  0.14502446810E+03 -0.58128441514E+02 -0.92977314279E+03  0.94280915837E+03  0.00000000000E+00 0.  1.
          1    1    3    3  501    0 -0.14502448049E+03  0.58128451248E+02  0.32082466870E+02  0.15950016134E+03  0.00000000000E+00 0.  1.
         21    1    1    2  502  501  0.12397341979E-04 -0.97341713163E-05  0.26284594061E-04  0.30648459411E-04  0.00000000000E+00 0. -1.
<mgrwt>
<rscale>  1 0.63971657E+03</rscale>
<asrwt>0</asrwt>
<pdfrwt beam="1">  1        1 0.37203479E+00 0.63971657E+03</pdfrwt>
<pdfrwt beam="2">0</pdfrwt>
<totfact> 0.17823724E+00</totfact>
</mgrwt>
</event>
<event>
 6    1  0.2220303E-003  0.6454631E+03  0.7818608E-02  0.9815330E-01
          3   -1    0    0  502    0  0.00000000000E+00  0.00000000000E+00  0.10486323346E+03  0.10486323346E+03  0.00000000000E+00 0.  1.
         13   -1    0    0    0    0 -0.00000000000E+00 -0.00000000000E+00 -0.10000000000E+04  0.10000000000E+04  0.00000000000E+00 0.  1.
    9000005    2    1    2  501    0 -0.91196111218E-01 -0.23426689832E-01 -0.89584089286E+03  0.11041528396E+04  0.64546307334E+03 0.  0.
         13    1    3    3    0    0  0.53556161522E+02 -0.52302565150E+02 -0.98492217511E+03  0.98776288237E+03  0.00000000000E+00 0.  1.
          3    1    3    3  501    0 -0.53647357634E+02  0.52279138460E+02  0.89081282255E+02  0.11638995725E+03  0.00000000000E+00 0.  1.
         21    1    1    2  502  501  0.91196111218E-01  0.23426689832E-01  0.70412631649E+00  0.71039384152E+00  0.00000000000E+00 0. -1.
<mgrwt>
<rscale>  1 0.64546308E+03</rscale>
<asrwt>0</asrwt>
<pdfrwt beam="1">  1        3 0.38132165E+00 0.64546308E+03</pdfrwt>
<pdfrwt beam="2">0</pdfrwt>
<totfact> 0.74331670E-02</totfact>
</mgrwt>
</event>
<event>
 6    1  0.2220303E-003  0.6477429E+03  0.7818608E-02  0.9811024E-01
          1   -1    0    0  502    0  0.00000000000E+00  0.00000000000E+00  0.10511188169E+03  0.10511188169E+03  0.00000000000E+00 0.  1.
         13   -1    0    0    0    0 -0.00000000000E+00 -0.00000000000E+00 -0.10000000000E+04  0.10000000000E+04  0.00000000000E+00 0.  1.
    9000005    2    1    2  501    0  0.47635419493E-01  0.49579793850E-01 -0.89510131486E+03  0.11048878726E+04  0.64774288301E+03 0.  0.
         13    1    3    3    0    0  0.31021824173E+02  0.13811678702E+03  0.49336507620E+02  0.14990894375E+03  0.00000000000E+00 0.  1.
          1    1    3    3  501    0 -0.30974188754E+02 -0.13806720722E+03 -0.94443782248E+03  0.95497892888E+03  0.00000000000E+00 0.  1.
         21    1    1    2  502  501 -0.47635419493E-01 -0.49579793850E-01  0.21319655563E+00  0.22400906339E+00  0.00000000000E+00 0. -1.
<mgrwt>
<rscale>  1 0.64774289E+03</rscale>
<asrwt>0</asrwt>
<pdfrwt beam="1">  1        1 0.38222583E+00 0.64774289E+03</pdfrwt>
<pdfrwt beam="2">0</pdfrwt>
<totfact> 0.16049264E+00</totfact>
</mgrwt>
</event>
<event>
 6    1  0.2220303E-003  0.6377515E+03  0.7818608E-02  0.9830038E-01
          1   -1    0    0  502    0  0.00000000000E+00  0.00000000000E+00  0.10247537401E+03  0.10247537401E+03  0.00000000000E+00 0.  1.
         13   -1    0    0    0    0 -0.00000000000E+00 -0.00000000000E+00 -0.10000000000E+04  0.10000000000E+04  0.00000000000E+00 0.  1.
    9000005    2    1    2  501    0  0.64441311003E+00 -0.36196556573E+00 -0.89812428552E+03  0.11015235973E+04  0.63775109324E+03 0.  0.
         13    1    3    3    0    0 -0.18204946704E+01 -0.31817971656E+03 -0.40866496616E+03  0.51792731227E+03  0.00000000000E+00 0.  1.
          1    1    3    3  501    0  0.24649077804E+01  0.31781775099E+03 -0.48945931936E+03  0.58359628505E+03  0.00000000000E+00 0.  1.
         21    1    1    2  502  501 -0.64441311003E+00  0.36196556573E+00  0.59965952362E+00  0.95177669199E+00  0.00000000000E+00 0.  1.
<mgrwt>
<rscale>  1 0.63775152E+03</rscale>
<asrwt>0</asrwt>
<pdfrwt beam="1">  1        1 0.37263851E+00 0.63775152E+03</pdfrwt>
<pdfrwt beam="2">0</pdfrwt>
<totfact> 0.17721494E+00</totfact>
</mgrwt>
</event>
<event>
 6    1  0.2220303E-003  0.6526803E+03  0.7818608E-02  0.9801763E-01
          1   -1    0    0  502    0  0.00000000000E+00  0.00000000000E+00  0.10666133663E+03  0.10666133663E+03  0.00000000000E+00 0.  1.
         13   -1    0    0    0    0 -0.00000000000E+00 -0.00000000000E+00 -0.10000000000E+04  0.10000000000E+04  0.00000000000E+00 0.  1.
    9000005    2    1    2  501    0  0.11995608688E+00 -0.23973864418E+00 -0.89337025043E+03  0.11063914073E+04  0.65268022034E+03 0.  0.
         13    1    3    3    0    0 -0.24924589847E+03 -0.16398155267E+03 -0.22249718772E+03  0.37218069007E+03  0.00000000000E+00 0.  1.
          3    1    3    3  501    0  0.24936585456E+03  0.16374181402E+03 -0.67087306271E+03  0.73421071727E+03  0.00000000000E+00 0.  1.
         21    1    1    2  502  501 -0.11995608688E+00  0.23973864418E+00  0.31587063554E-01  0.26992929236E+00  0.00000000000E+00 0.  1.
<mgrwt>
<rscale>  1 0.65268028E+03</rscale>
<asrwt>0</asrwt>
<pdfrwt beam="1">  1        1 0.38786022E+00 0.65268028E+03</pdfrwt>
<pdfrwt beam="2">0</pdfrwt>
<totfact> 0.15140366E+00</totfact>
</mgrwt>
</event>
<event>
 6    1  0.2220303E-003  0.6484096E+03  0.7818608E-02  0.9809768E-01
          3   -1    0    0  502    0  0.00000000000E+00  0.00000000000E+00  0.10515669174E+03  0.10515669174E+03  0.00000000000E+00 0.  1.
         13   -1    0    0    0    0 -0.00000000000E+00 -0.00000000000E+00 -0.10000000000E+04  0.10000000000E+04  0.00000000000E+00 0.  1.
    9000005    2    1    2  501    0 -0.12403728659E-01  0.15353489236E-01 -0.89488898450E+03  0.11051069333E+04  0.64840962291E+03 0.  0.
         13    1    3    3    0    0 -0.20326011301E+03  0.22104023825E+03 -0.23912900803E+03  0.38386995578E+03  0.00000000000E+00 0.  1.
          1    1    3    3  501    0  0.20324770928E+03 -0.22102488476E+03 -0.65575997647E+03  0.72123697753E+03  0.00000000000E+00 0.  1.
         21    1    1    2  502  501  0.12403728659E-01 -0.15353489236E-01  0.45676240039E-01  0.49758426628E-01  0.00000000000E+00 0. -1.
<mgrwt>
<rscale>  1 0.64840962E+03</rscale>
<asrwt>0</asrwt>
<pdfrwt beam="1">  1        3 0.38238878E+00 0.64840962E+03</pdfrwt>
<pdfrwt beam="2">0</pdfrwt>
<totfact> 0.73337989E-02</totfact>
</mgrwt>
</event>
<event>
 6    1  0.2220303E-003  0.6481103E+03  0.7818608E-02  0.9810331E-01
          1   -1    0    0  502    0  0.00000000000E+00  0.00000000000E+00  0.10501189489E+03  0.10501189489E+03  0.00000000000E+00 0.  1.
         13   -1    0    0    0    0 -0.00000000000E+00 -0.00000000000E+00 -0.10000000000E+04  0.10000000000E+04  0.00000000000E+00 0.  1.
    9000005    2    1    2  501    0 -0.14477529032E-03 -0.15469914786E-04 -0.89498820181E+03  0.11050117201E+04  0.64811034569E+03 0.  0.
         13    1    3    3    0    0 -0.30176732250E+03 -0.95854793730E+02 -0.32986154854E+03  0.45723112275E+03  0.00000000000E+00 0.  1.
          1    1    3    3  501    0  0.30176717772E+03  0.95854778260E+02 -0.56512665327E+03  0.64778059735E+03  0.00000000000E+00 0.  1.
         21    1    1    2  502  501  0.14477529032E-03  0.15469914793E-04  0.96706138440E-04  0.17478924499E-03  0.00000000000E+00 0. -1.
<mgrwt>
<rscale>  1 0.64811035E+03</rscale>
<asrwt>0</asrwt>
<pdfrwt beam="1">  1        1 0.38186224E+00 0.64811035E+03</pdfrwt>
<pdfrwt beam="2">0</pdfrwt>
<totfact> 0.16107628E+00</totfact>
</mgrwt>
</event>
<event>
 6    1  0.2220303E-003  0.6356860E+03  0.7818608E-02  0.9834015E-01
          1   -1    0    0  502    0  0.00000000000E+00  0.00000000000E+00  0.10146511013E+03  0.10146511013E+03  0.00000000000E+00 0.  1.
         13   -1    0    0    0    0 -0.00000000000E+00 -0.00000000000E+00 -0.10000000000E+04  0.10000000000E+04  0.00000000000E+00 0.  1.
    9000005    2    1    2  501    0 -0.80750621271E-02  0.22827315238E-01 -0.89897547314E+03  0.11010238620E+04  0.63568596240E+03 0.  0.
         13    1    3    3    0    0 -0.18096729128E+03  0.36326296474E+02 -0.13109004685E+01  0.18458190266E+03  0.00000000000E+00 0.  1.
          3    1    3    3  501    0  0.18095921622E+03 -0.36303469159E+02 -0.89766457268E+03  0.91644195934E+03  0.00000000000E+00 0.  1.
         21    1    1    2  502  501  0.80750621272E-02 -0.22827315238E-01  0.44058327579E+00  0.44124813411E+00  0.00000000000E+00 0.  1.
<mgrwt>
<rscale>  1 0.63568596E+03</rscale>
<asrwt>0</asrwt>
<pdfrwt beam="1">  1        1 0.36896481E+00 0.63568596E+03</pdfrwt>
<pdfrwt beam="2">0</pdfrwt>
<totfact> 0.18399381E+00</totfact>
</mgrwt>
</event>
