<event>
 6    1  0.9621574E-003  0.5429668E+03  0.7818608E-02  0.1003135E+00
          1   -1    0    0  502    0  0.00000000000E+00  0.00000000000E+00  0.77364220607E+02  0.77364220607E+02  0.00000000000E+00 0.  1.
         13   -1    0    0    0    0 -0.00000000000E+00 -0.00000000000E+00 -0.10000000000E+04  0.10000000000E+04  0.00000000000E+00 0.  1.
    9000005    2    1    2  501    0  0.26505808348E-01 -0.26713742630E+00 -0.92629147480E+03  0.10736986819E+04  0.54296674964E+03 0.  0.
         13    1    3    3    0    0 -0.19974443048E+03  0.37319592843E+02 -0.81902708883E+03  0.84385778527E+03  0.00000000000E+00 0.  1.
          3    1    3    3  501    0  0.19977093629E+03 -0.37586730269E+02 -0.10726438596E+03  0.22984089665E+03  0.00000000000E+00 0.  1.
         21    1    1    2  502  501 -0.26505808348E-01  0.26713742630E+00  0.36556954040E+01  0.36655386848E+01  0.00000000000E+00 0.  1.
<mgrwt>
<rscale>  1 0.54296682E+03</rscale>
<asrwt>0</asrwt>
<pdfrwt beam="1">  1        1 0.28132503E+00 0.54296682E+03</pdfrwt>
<pdfrwt beam="2">0</pdfrwt>
<totfact> 0.44866217E+00</totfact>
</mgrwt>
</event>
<event>
 6    1  0.9621574E-003  0.6605164E+03  0.7818608E-02  0.9787244E-01
          1   -1    0    0  502    0  0.00000000000E+00  0.00000000000E+00  0.10977305776E+03  0.10977305776E+03  0.00000000000E+00 0.  1.
         13   -1    0    0    0    0 -0.00000000000E+00 -0.00000000000E+00 -0.10000000000E+04  0.10000000000E+04  0.00000000000E+00 0.  1.
    9000005    2    1    2  501    0  0.57574956469E+00 -0.16212722897E+01 -0.88945763734E+03  0.11078884248E+04  0.66051412791E+03 0.  0.
         13    1    3    3    0    0  0.11242426009E+03 -0.26723491981E+03 -0.71365803713E+03  0.77029962390E+03  0.00000000000E+00 0.  1.
          1    1    3    3  501    0 -0.11184851053E+03  0.26561364752E+03 -0.17579960021E+03  0.33758880090E+03  0.00000000000E+00 0.  1.
         21    1    1    2  502  501 -0.57574956469E+00  0.16212722897E+01 -0.76930489798E+00  0.18846329682E+01  0.00000000000E+00 0.  1.
<mgrwt>
<rscale>  1 0.66051637E+03</rscale>
<asrwt>0</asrwt>
<pdfrwt beam="1">  1        1 0.39917560E+00 0.66051637E+03</pdfrwt>
<pdfrwt beam="2">0</pdfrwt>
<totfact> 0.13465637E+00</totfact>
</mgrwt>
</event>
<event>
 6    1  0.9621574E-003  0.6186661E+03  0.7818608E-02  0.9867419E-01
          1   -1    0    0  502    0  0.00000000000E+00  0.00000000000E+00  0.10860574083E+03  0.10860574083E+03  0.00000000000E+00 0.  1.
         13   -1    0    0    0    0 -0.00000000000E+00 -0.00000000000E+00 -0.10000000000E+04  0.10000000000E+04  0.00000000000E+00 0.  1.
    9000005    2    1    2  501    0  0.59744661921E-01 -0.28329398973E+00 -0.90431129003E+03  0.10956854656E+04  0.61866602179E+03 0.  0.
         13    1    3    3    0    0  0.41320462537E+02  0.15466761766E+03 -0.92068617513E+03  0.93450119617E+03  0.00000000000E+00 0.  1.
          3    1    3    3  501    0 -0.41260717875E+02 -0.15495091165E+03  0.16374885100E+02  0.16118426947E+03  0.00000000000E+00 0.  1.
         21    1    1    2  502  501 -0.59744661921E-01  0.28329398973E+00  0.12917030856E+02  0.12920275192E+02  0.00000000000E+00 0. -1.
<mgrwt>
<rscale>  1 0.61866609E+03</rscale>
<asrwt>0</asrwt>
<pdfrwt beam="1">  1        1 0.39493080E+00 0.61866609E+03</pdfrwt>
<pdfrwt beam="2">0</pdfrwt>
<totfact> 0.14177481E+00</totfact>
</mgrwt>
</event>
<event>
 6    1  0.9621574E-003  0.6477766E+03  0.7818608E-02  0.9810960E-01
          1   -1    0    0  502    0  0.00000000000E+00  0.00000000000E+00  0.10490478638E+03  0.10490478638E+03  0.00000000000E+00 0.  1.
         13   -1    0    0    0    0 -0.00000000000E+00 -0.00000000000E+00 -0.10000000000E+04  0.10000000000E+04  0.00000000000E+00 0.  1.
    9000005    2    1    2  501    0 -0.15871698565E-04  0.39847023444E-04 -0.89509635870E+03  0.11049036405E+04  0.64777663081E+03 0.  0.
         13    1    3    3    0    0  0.16664674972E+03 -0.26503748617E+02  0.24005573167E+02  0.17044018137E+03  0.00000000000E+00 0.  1.
          3    1    3    3  501    0 -0.16664676559E+03  0.26503788465E+02 -0.91910193187E+03  0.93446345913E+03  0.00000000000E+00 0.  1.
         21    1    1    2  502  501  0.15871698541E-04 -0.39847023446E-04  0.11450842577E-02  0.11458872778E-02  0.00000000000E+00 0.  1.
<mgrwt>
<rscale>  1 0.64777663E+03</rscale>
<asrwt>0</asrwt>
<pdfrwt beam="1">  1        1 0.38147275E+00 0.64777663E+03</pdfrwt>
<pdfrwt beam="2">0</pdfrwt>
<totfact> 0.16172538E+00</totfact>
</mgrwt>
</event>
<event>
 6    1  0.9621574E-003  0.6543249E+03  0.7818608E-02  0.9798697E-01
          1   -1    0    0  502    0  0.00000000000E+00  0.00000000000E+00  0.10703542936E+03  0.10703542936E+03  0.00000000000E+00 0.  1.
         13   -1    0    0    0    0 -0.00000000000E+00 -0.00000000000E+00 -0.10000000000E+04  0.10000000000E+04  0.00000000000E+00 0.  1.
    9000005    2    1    2  501    0 -0.17480220870E-04 -0.28831173893E-04 -0.89296471566E+03  0.11070352805E+04  0.65432494129E+03 0.  0.
         13    1    3    3    0    0 -0.74100361097E+01 -0.17914862620E+03 -0.90946930247E+03  0.92697548567E+03  0.00000000000E+00 0.  1.
          1    1    3    3  501    0  0.74100186294E+01  0.17914859737E+03  0.16504586808E+02  0.18005979480E+03  0.00000000000E+00 0.  1.
         21    1    1    2  502  501  0.17480220870E-04  0.28831173892E-04  0.14502452080E-03  0.14889226422E-03  0.00000000000E+00 0. -1.
<mgrwt>
<rscale>  1 0.65432494E+03</rscale>
<asrwt>0</asrwt>
<pdfrwt beam="1">  1        1 0.38922056E+00 0.65432494E+03</pdfrwt>
<pdfrwt beam="2">0</pdfrwt>
<totfact> 0.14927117E+00</totfact>
</mgrwt>
</event>
<event>
 6    1  0.9621574E-003  0.6500374E+03  0.7818608E-02  0.9806709E-01
          1   -1    0    0  502    0  0.00000000000E+00  0.00000000000E+00  0.10563735222E+03  0.10563735222E+03  0.00000000000E+00 0.  1.
         13   -1    0    0    0    0 -0.00000000000E+00 -0.00000000000E+00 -0.10000000000E+04  0.10000000000E+04  0.00000000000E+00 0.  1.
    9000005    2    1    2  501    0 -0.53095646081E-04 -0.91844669384E-04 -0.89436282236E+03  0.11056371479E+04  0.65003741804E+03 0.  0.
         13    1    3    3    0    0 -0.12964791478E+03 -0.29707490579E+03 -0.48797124880E+03  0.58581398167E+03  0.00000000000E+00 0.  1.
          3    1    3    3  501    0  0.12964786169E+03  0.29707481395E+03 -0.40639157356E+03  0.51982316626E+03  0.00000000000E+00 0.  1.
         21    1    1    2  502  501  0.53095646076E-04  0.91844669384E-04  0.17458499413E-03  0.20429026189E-03  0.00000000000E+00 0. -1.
<mgrwt>
<rscale>  1 0.65003742E+03</rscale>
<asrwt>0</asrwt>
<pdfrwt beam="1">  1        1 0.38413664E+00 0.65003742E+03</pdfrwt>
<pdfrwt beam="2">0</pdfrwt>
<totfact> 0.15733569E+00</totfact>
</mgrwt>
</event>
<event>
 6    1  0.9621574E-003  0.6568295E+03  0.7818608E-02  0.9794048E-01
          1   -1    0    0  502    0  0.00000000000E+00  0.00000000000E+00  0.10786968559E+03  0.10786968559E+03  0.00000000000E+00 0.  1.
         13   -1    0    0    0    0 -0.00000000000E+00 -0.00000000000E+00 -0.10000000000E+04  0.10000000000E+04  0.00000000000E+00 0.  1.
    9000005    2    1    2  501    0  0.33959866278E-03 -0.41923695869E-02 -0.89214339827E+03  0.11078559423E+04  0.65682946473E+03 0.  0.
         13    1    3    3    0    0 -0.16375952952E+03 -0.24001834646E+03 -0.70425681892E+03  0.76184227839E+03  0.00000000000E+00 0.  1.
          1    1    3    3  501    0  0.16375986912E+03  0.24001415409E+03 -0.18788657935E+03  0.34601366388E+03  0.00000000000E+00 0.  1.
         21    1    1    2  502  501 -0.33959866277E-03  0.41923695869E-02  0.13083864732E-01  0.13743318607E-01  0.00000000000E+00 0. -1.
<mgrwt>
<rscale>  1 0.65682946E+03</rscale>
<asrwt>0</asrwt>
<pdfrwt beam="1">  1        1 0.39225423E+00 0.65682946E+03</pdfrwt>
<pdfrwt beam="2">0</pdfrwt>
<totfact> 0.14464890E+00</totfact>
</mgrwt>
</event>
<event>
 6    1  0.9621574E-003  0.6478004E+03  0.7818608E-02  0.9810915E-01
          1   -1    0    0  502    0  0.00000000000E+00  0.00000000000E+00  0.10491769374E+03  0.10491769374E+03  0.00000000000E+00 0.  1.
         13   -1    0    0    0    0 -0.00000000000E+00 -0.00000000000E+00 -0.10000000000E+04  0.10000000000E+04  0.00000000000E+00 0.  1.
    9000005    2    1    2  501    0 -0.19571532425E-03  0.79422477391E-04 -0.89508864772E+03  0.11049113488E+04  0.64780043326E+03 0.  0.
         13    1    3    3    0    0 -0.14451993606E+03 -0.33369206676E+02  0.43583434595E+02  0.15459311642E+03  0.00000000000E+00 0.  1.
          1    1    3    3  501    0  0.14451974034E+03  0.33369286098E+02 -0.93867208232E+03  0.95031823234E+03  0.00000000000E+00 0.  1.
         21    1    1    2  502  501  0.19571532426E-03 -0.79422477390E-04  0.63414624654E-02  0.63449790085E-02  0.00000000000E+00 0.  1.
<mgrwt>
<rscale>  1 0.64780043E+03</rscale>
<asrwt>0</asrwt>
<pdfrwt beam="1">  1        1 0.38151969E+00 0.64780043E+03</pdfrwt>
<pdfrwt beam="2">0</pdfrwt>
<totfact> 0.16164751E+00</totfact>
</mgrwt>
</event>
<event>
 6    1  0.9621574E-003  0.6592535E+03  0.7818608E-02  0.9789569E-01
          1   -1    0    0  502    0  0.00000000000E+00  0.00000000000E+00  0.10872641904E+03  0.10872641904E+03  0.00000000000E+00 0.  1.
         13   -1    0    0    0    0 -0.00000000000E+00 -0.00000000000E+00 -0.10000000000E+04  0.10000000000E+04  0.00000000000E+00 0.  1.
    9000005    2    1    2  501    0 -0.48655293069E-02 -0.49939492871E-02 -0.89134601781E+03  0.11086536474E+04  0.65925350694E+03 0.  0.
         13    1    3    3    0    0 -0.32252171447E+02  0.19629190081E+03 -0.88767584071E+03  0.90969176707E+03  0.00000000000E+00 0.  1.
          3    1    3    3  501    0  0.32247305917E+02 -0.19629689476E+03 -0.36701770944E+01  0.19896188035E+03  0.00000000000E+00 0.  1.
         21    1    1    2  502  501  0.48655293069E-02  0.49939492871E-02  0.72436845173E-01  0.72771625264E-01  0.00000000000E+00 0.  1.
<mgrwt>
<rscale>  1 0.65925351E+03</rscale>
<asrwt>0</asrwt>
<pdfrwt beam="1">  1        1 0.39536963E+00 0.65925351E+03</pdfrwt>
<pdfrwt beam="2">0</pdfrwt>
<totfact> 0.14004729E+00</totfact>
</mgrwt>
</event>
<event>
 6    1  0.9621574E-003  0.6496105E+03  0.7818608E-02  0.9807510E-01
          1   -1    0    0  502    0  0.00000000000E+00  0.00000000000E+00  0.10572824099E+03  0.10572824099E+03  0.00000000000E+00 0.  1.
         13   -1    0    0    0    0 -0.00000000000E+00 -0.00000000000E+00 -0.10000000000E+04  0.10000000000E+04  0.00000000000E+00 0.  1.
    9000005    2    1    2  501    0 -0.49478481385E-01 -0.57608858211E-02 -0.89449854979E+03  0.11054960442E+04  0.64961053377E+03 0.  0.
         13    1    3    3    0    0 -0.30094329644E+03 -0.12164919769E+03 -0.46803133166E+03  0.56957767020E+03  0.00000000000E+00 0.  1.
          1    1    3    3  501    0  0.30089381796E+03  0.12164343681E+03 -0.42646721813E+03  0.53591837396E+03  0.00000000000E+00 0.  1.
         21    1    1    2  502  501  0.49478481385E-01  0.57608858211E-02  0.22679077984E+00  0.23219682544E+00  0.00000000000E+00 0. -1.
<mgrwt>
<rscale>  1 0.64961054E+03</rscale>
<asrwt>0</asrwt>
<pdfrwt beam="1">  1        1 0.38446714E+00 0.64961054E+03</pdfrwt>
<pdfrwt beam="2">0</pdfrwt>
<totfact> 0.15681951E+00</totfact>
</mgrwt>
</event>
<event>
 6    1  0.9621574E-003  0.6640489E+03  0.7818608E-02  0.9780769E-01
          1   -1    0    0  502    0  0.00000000000E+00  0.00000000000E+00  0.11024024473E+03  0.11024024473E+03  0.00000000000E+00 0.  1.
         13   -1    0    0    0    0 -0.00000000000E+00 -0.00000000000E+00 -0.10000000000E+04  0.10000000000E+04  0.00000000000E+00 0.  1.
    9000005    2    1    2  501    0 -0.30984081150E-05 -0.15608816980E-04 -0.88975974557E+03  0.11102402261E+04  0.66404890994E+03 0.  0.
         13    1    3    3    0    0 -0.25957700621E+03  0.93379149222E+02 -0.13595642067E+03  0.30754517715E+03  0.00000000000E+00 0.  1.
          1    1    3    3  501    0  0.25957700311E+03 -0.93379164830E+02 -0.75380332490E+03  0.80269504895E+03  0.00000000000E+00 0.  1.
         21    1    1    2  502  501  0.30984081485E-05  0.15608816978E-04 -0.96984220702E-05  0.18635844257E-04  0.00000000000E+00 0. -1.
<mgrwt>
<rscale>  1 0.66404891E+03</rscale>
<asrwt>0</asrwt>
<pdfrwt beam="1">  1        1 0.40087446E+00 0.66404891E+03</pdfrwt>
<pdfrwt beam="2">0</pdfrwt>
<totfact> 0.13224034E+00</totfact>
</mgrwt>
</event>
<event>
 6    1  0.9621574E-003  0.6542227E+03  0.7818608E-02  0.9798888E-01
          1   -1    0    0  502    0  0.00000000000E+00  0.00000000000E+00  0.17209279731E+03  0.17209279731E+03  0.00000000000E+00 0.  1.
         13   -1    0    0    0    0 -0.00000000000E+00 -0.00000000000E+00 -0.10000000000E+04  0.10000000000E+04  0.00000000000E+00 0.  1.
    9000005    2    1    2  501    0  0.12854631952E+03  0.49925925014E+02 -0.52344236115E+03  0.83785396955E+03  0.63952374045E+03 0.  0.
         13    1    3    3    0    0 -0.15052165635E+03 -0.89127388934E+02 -0.49472534661E+03  0.52474148784E+03  0.00000000000E+00 0.  1.
          3    1    3    3  501    0  0.27906797587E+03  0.13905331395E+03 -0.28717014542E+02  0.31311248171E+03  0.00000000000E+00 0.  1.
         21    1    1    2  502  501 -0.12854631952E+03 -0.49925925014E+02 -0.30446484154E+03  0.33423882776E+03  0.00000000000E+00 0. -1.
<mgrwt>
<rscale>  1 0.65422272E+03</rscale>
<asrwt>0</asrwt>
<pdfrwt beam="1">  1        1 0.62579331E+00 0.65422272E+03</pdfrwt>
<pdfrwt beam="2">0</pdfrwt>
<totfact> 0.10258813E-01</totfact>
</mgrwt>
</event>
<event>
 6    1  0.9621574E-003  0.6482329E+03  0.7818608E-02  0.9810101E-01
          1   -1    0    0  502    0  0.00000000000E+00  0.00000000000E+00  0.10505358950E+03  0.10505358950E+03  0.00000000000E+00 0.  1.
         13   -1    0    0    0    0 -0.00000000000E+00 -0.00000000000E+00 -0.10000000000E+04  0.10000000000E+04  0.00000000000E+00 0.  1.
    9000005    2    1    2  501    0 -0.12074222807E-02  0.13985144332E-02 -0.89494806795E+03  0.11050511074E+04  0.64823291002E+03 0.  0.
         13    1    3    3    0    0  0.56905024218E+02 -0.31847952321E+03 -0.41408606458E+03  0.52548516379E+03  0.00000000000E+00 0.  1.
          3    1    3    3  501    0 -0.56906231640E+02  0.31848092173E+03 -0.48086200337E+03  0.57956594361E+03  0.00000000000E+00 0.  1.
         21    1    1    2  502  501  0.12074222807E-02 -0.13985144332E-02  0.16574509784E-02  0.24821069537E-02  0.00000000000E+00 0.  1.
<mgrwt>
<rscale>  1 0.64823291E+03</rscale>
<asrwt>0</asrwt>
<pdfrwt beam="1">  1        1 0.38201386E+00 0.64823291E+03</pdfrwt>
<pdfrwt beam="2">0</pdfrwt>
<totfact> 0.16082449E+00</totfact>
</mgrwt>
</event>
<event>
 6    1  0.9621574E-003  0.6520224E+03  0.7818608E-02  0.9802992E-01
          1   -1    0    0  502    0  0.00000000000E+00  0.00000000000E+00  0.10628355387E+03  0.10628355387E+03  0.00000000000E+00 0.  1.
         13   -1    0    0    0    0 -0.00000000000E+00 -0.00000000000E+00 -0.10000000000E+04  0.10000000000E+04  0.00000000000E+00 0.  1.
    9000005    2    1    2  501    0 -0.87400458213E-04  0.53378191652E-04 -0.89371667922E+03  0.11062832993E+04  0.65202241951E+03 0.  0.
         13    1    3    3    0    0 -0.78924157360E+02 -0.88025097592E+02  0.68629571392E+02  0.13670207932E+03  0.00000000000E+00 0.  1.
          1    1    3    3  501    0  0.78924069960E+02  0.88025150971E+02 -0.96234625061E+03  0.96958121995E+03  0.00000000000E+00 0.  1.
         21    1    1    2  502  501  0.87400458210E-04 -0.53378191651E-04  0.23308716513E-03  0.25459320098E-03  0.00000000000E+00 0. -1.
<mgrwt>
<rscale>  1 0.65202242E+03</rscale>
<asrwt>0</asrwt>
<pdfrwt beam="1">  1        1 0.38648647E+00 0.65202242E+03</pdfrwt>
<pdfrwt beam="2">0</pdfrwt>
<totfact> 0.15355801E+00</totfact>
</mgrwt>
</event>
<event>
 6    1  0.9621574E-003  0.6502697E+03  0.7818608E-02  0.9806273E-01
          1   -1    0    0  502    0  0.00000000000E+00  0.00000000000E+00  0.10571266347E+03  0.10571266347E+03  0.00000000000E+00 0.  1.
         13   -1    0    0    0    0 -0.00000000000E+00 -0.00000000000E+00 -0.10000000000E+04  0.10000000000E+04  0.00000000000E+00 0.  1.
    9000005    2    1    2  501    0 -0.99370492990E-06 -0.15180629660E-05 -0.89428733629E+03  0.11057126616E+04  0.65026967502E+03 0.  0.
         13    1    3    3    0    0  0.27593796008E+03 -0.22612082551E+02 -0.73700720257E+03  0.78729453239E+03  0.00000000000E+00 0.  1.
          1    1    3    3  501    0 -0.27593796107E+03  0.22612081033E+02 -0.15728013372E+03  0.31841812925E+03  0.00000000000E+00 0.  1.
         21    1    1    2  502  501  0.99370494967E-06  0.15180629639E-05 -0.23634204993E-06  0.18297055102E-05  0.00000000000E+00 0.  1.
<mgrwt>
<rscale>  1 0.65026968E+03</rscale>
<asrwt>0</asrwt>
<pdfrwt beam="1">  1        1 0.38441050E+00 0.65026968E+03</pdfrwt>
<pdfrwt beam="2">0</pdfrwt>
<totfact> 0.15689090E+00</totfact>
</mgrwt>
</event>
<event>
 6    1  0.9621574E-003  0.6435058E+03  0.7818608E-02  0.9819042E-01
          1   -1    0    0  502    0  0.00000000000E+00  0.00000000000E+00  0.10355427262E+03  0.10355427262E+03  0.00000000000E+00 0.  1.
         13   -1    0    0    0    0 -0.00000000000E+00 -0.00000000000E+00 -0.10000000000E+04  0.10000000000E+04  0.00000000000E+00 0.  1.
    9000005    2    1    2  501    0  0.33997372246E-02 -0.49284031181E-02 -0.89647474993E+03  0.11035246389E+04  0.64350575089E+03 0.  0.
         13    1    3    3    0    0  0.24973786858E+03  0.13558483149E+03 -0.70702225341E+03  0.76199259600E+03  0.00000000000E+00 0.  1.
          1    1    3    3  501    0 -0.24973446884E+03 -0.13558975990E+03 -0.18945249651E+03  0.34153204293E+03  0.00000000000E+00 0.  1.
         21    1    1    2  502  501 -0.33997372246E-02  0.49284031181E-02  0.29022546194E-01  0.29633689579E-01  0.00000000000E+00 0.  1.
<mgrwt>
<rscale>  1 0.64350575E+03</rscale>
<asrwt>0</asrwt>
<pdfrwt beam="1">  1        1 0.37656179E+00 0.64350575E+03</pdfrwt>
<pdfrwt beam="2">0</pdfrwt>
<totfact> 0.17012845E+00</totfact>
</mgrwt>
</event>
<event>
 6    1  0.9621574E-003  0.6523023E+03  0.7818608E-02  0.9802469E-01
          1   -1    0    0  502    0  0.00000000000E+00  0.00000000000E+00  0.10637466324E+03  0.10637466324E+03  0.00000000000E+00 0.  1.
         13   -1    0    0    0    0 -0.00000000000E+00 -0.00000000000E+00 -0.10000000000E+04  0.10000000000E+04  0.00000000000E+00 0.  1.
    9000005    2    1    2  501    0  0.46179774131E-04  0.85938982579E-05 -0.89362543627E+03  0.11063745532E+04  0.65230225481E+03 0.  0.
         13    1    3    3    0    0  0.16791548950E+03  0.26405197957E+03 -0.29084917145E+03  0.42721458316E+03  0.00000000000E+00 0.  1.
          1    1    3    3  501    0 -0.16791544332E+03 -0.26405197098E+03 -0.60277626482E+03  0.67915997004E+03  0.00000000000E+00 0.  1.
         21    1    1    2  502  501 -0.46179774121E-04 -0.85938982617E-05  0.99511491377E-04  0.11004073583E-03  0.00000000000E+00 0. -1.
<mgrwt>
<rscale>  1 0.65230225E+03</rscale>
<asrwt>0</asrwt>
<pdfrwt beam="1">  1        1 0.38681777E+00 0.65230225E+03</pdfrwt>
<pdfrwt beam="2">0</pdfrwt>
<totfact> 0.15303237E+00</totfact>
</mgrwt>
</event>
<event>
 6    1  0.9621574E-003  0.6515534E+03  0.7818608E-02  0.9803869E-01
          1   -1    0    0  502    0  0.00000000000E+00  0.00000000000E+00  0.10822048040E+03  0.10822048040E+03  0.00000000000E+00 0.  1.
         13   -1    0    0    0    0 -0.00000000000E+00 -0.00000000000E+00 -0.10000000000E+04  0.10000000000E+04  0.00000000000E+00 0.  1.
    9000005    2    1    2  501    0 -0.32926000514E+00 -0.61161172181E-01 -0.89385469233E+03  0.11061184588E+04  0.65155331464E+03 0.  0.
         13    1    3    3    0    0 -0.31497099717E+03 -0.38801900554E+02 -0.57332928427E+03  0.65530053010E+03  0.00000000000E+00 0.  1.
          1    1    3    3  501    0  0.31464173717E+03  0.38740739382E+02 -0.32052540806E+03  0.45081792873E+03  0.00000000000E+00 0.  1.
         21    1    1    2  502  501  0.32926000514E+00  0.61161172181E-01  0.20751727277E+01  0.21020215722E+01  0.00000000000E+00 0.  1.
<mgrwt>
<rscale>  1 0.65155340E+03</rscale>
<asrwt>0</asrwt>
<pdfrwt beam="1">  1        1 0.39352985E+00 0.65155340E+03</pdfrwt>
<pdfrwt beam="2">0</pdfrwt>
<totfact> 0.14291489E+00</totfact>
</mgrwt>
</event>
<event>
 6    1  0.9621574E-003  0.6676397E+03  0.7818608E-02  0.9774231E-01
          1   -1    0    0  502    0  0.00000000000E+00  0.00000000000E+00  0.11143583114E+03  0.11143583114E+03  0.00000000000E+00 0.  1.
         13   -1    0    0    0    0 -0.00000000000E+00 -0.00000000000E+00 -0.10000000000E+04  0.10000000000E+04  0.00000000000E+00 0.  1.
    9000005    2    1    2  501    0 -0.12390129032E-03 -0.97072297194E-04 -0.88856424455E+03  0.11114356565E+04  0.66763972456E+03 0.  0.
         13    1    3    3    0    0 -0.23301827933E+03 -0.19090332891E+03 -0.20480404424E+03  0.36426130185E+03  0.00000000000E+00 0.  1.
          1    1    3    3  501    0  0.23301815543E+03  0.19090323184E+03 -0.68376020031E+03  0.74717435463E+03  0.00000000000E+00 0.  1.
         21    1    1    2  502  501  0.12390129031E-03  0.97072297211E-04  0.75689231204E-04  0.17465228411E-03  0.00000000000E+00 0.  1.
<mgrwt>
<rscale>  1 0.66763972E+03</rscale>
<asrwt>0</asrwt>
<pdfrwt beam="1">  1        1 0.40522206E+00 0.66763972E+03</pdfrwt>
<pdfrwt beam="2">0</pdfrwt>
<totfact> 0.12637166E+00</totfact>
</mgrwt>
</event>
<event>
 6    1  0.9621574E-003  0.6287045E+03  0.7818608E-02  0.9847580E-01
          1   -1    0    0  502    0  0.00000000000E+00  0.00000000000E+00  0.98824439067E+02  0.98824439067E+02  0.00000000000E+00 0.  1.
         13   -1    0    0    0    0 -0.00000000000E+00 -0.00000000000E+00 -0.10000000000E+04  0.10000000000E+04  0.00000000000E+00 0.  1.
    9000005    2    1    2  501    0 -0.70440770837E-03  0.81800767845E-03 -0.90118261985E+03  0.10988172981E+04  0.62870449359E+03 0.  0.
         13    1    3    3    0    0  0.43016977309E+02  0.30241778981E+03 -0.58033281417E+03  0.65581487870E+03  0.00000000000E+00 0.  1.
          1    1    3    3  501    0 -0.43017681717E+02 -0.30241697180E+03 -0.32084980568E+03  0.44300241938E+03  0.00000000000E+00 0.  1.
         21    1    1    2  502  501  0.70440770837E-03 -0.81800767843E-03  0.70589146154E-02  0.71409804879E-02  0.00000000000E+00 0.  1.
<mgrwt>
<rscale>  1 0.62870449E+03</rscale>
<asrwt>0</asrwt>
<pdfrwt beam="1">  1        1 0.35936235E+00 0.62870449E+03</pdfrwt>
<pdfrwt beam="2">0</pdfrwt>
<totfact> 0.20296427E+00</totfact>
</mgrwt>
</event>
<event>
 6    1  0.9621574E-003  0.6779336E+03  0.7818608E-02  0.9755731E-01
          1   -1    0    0  502    0  0.00000000000E+00  0.00000000000E+00  0.11489858583E+03  0.11489858583E+03  0.00000000000E+00 0.  1.
         13   -1    0    0    0    0 -0.00000000000E+00 -0.00000000000E+00 -0.10000000000E+04  0.10000000000E+04  0.00000000000E+00 0.  1.
    9000005    2    1    2  501    0  0.12496479636E-03 -0.18424210833E-03 -0.88510123819E+03  0.11148983021E+04  0.67793364135E+03 0.  0.
         13    1    3    3    0    0 -0.17509026926E+03  0.18639786124E+03 -0.80843205963E+03  0.84791695354E+03  0.00000000000E+00 0.  1.
          3    1    3    3  501    0  0.17509039423E+03 -0.18639804548E+03 -0.76669178561E+02  0.26698134851E+03  0.00000000000E+00 0.  1.
         21    1    1    2  502  501 -0.12496479634E-03  0.18424210834E-03 -0.17597741503E-03  0.28377703468E-03  0.00000000000E+00 0.  1.
<mgrwt>
<rscale>  1 0.67793364E+03</rscale>
<asrwt>0</asrwt>
<pdfrwt beam="1">  1        1 0.41781392E+00 0.67793364E+03</pdfrwt>
<pdfrwt beam="2">0</pdfrwt>
<totfact> 0.11072966E+00</totfact>
</mgrwt>
</event>
<event>
 6    1  0.9621574E-003  0.6552321E+03  0.7818608E-02  0.9797011E-01
          1   -1    0    0  502    0  0.00000000000E+00  0.00000000000E+00  0.10733363399E+03  0.10733363399E+03  0.00000000000E+00 0.  1.
         13   -1    0    0    0    0 -0.00000000000E+00 -0.00000000000E+00 -0.10000000000E+04  0.10000000000E+04  0.00000000000E+00 0.  1.
    9000005    2    1    2  501    0  0.45806505909E-04  0.32506189200E-04 -0.89266772297E+03  0.11073322759E+04  0.65523210051E+03 0.  0.
         13    1    3    3    0    0  0.77316566650E+02 -0.22627838777E+03 -0.67865875955E+02  0.24856696758E+03  0.00000000000E+00 0.  1.
          3    1    3    3  501    0 -0.77316520844E+02  0.22627842028E+03 -0.82480184702E+03  0.85876530829E+03  0.00000000000E+00 0.  1.
         21    1    1    2  502  501 -0.45806505913E-04 -0.32506189206E-04  0.13569624518E-02  0.13581244361E-02  0.00000000000E+00 0. -1.
<mgrwt>
<rscale>  1 0.65523210E+03</rscale>
<asrwt>0</asrwt>
<pdfrwt beam="1">  1        1 0.39030495E+00 0.65523210E+03</pdfrwt>
<pdfrwt beam="2">0</pdfrwt>
<totfact> 0.14760277E+00</totfact>
</mgrwt>
</event>
<event>
 6    1  0.9621574E-003  0.6494994E+03  0.7818608E-02  0.9807719E-01
          1   -1    0    0  502    0  0.00000000000E+00  0.00000000000E+00  0.10974554391E+03  0.10974554391E+03  0.00000000000E+00 0.  1.
         13   -1    0    0    0    0 -0.00000000000E+00 -0.00000000000E+00 -0.10000000000E+04  0.10000000000E+04  0.00000000000E+00 0.  1.
    9000005    2    1    2  501    0  0.17738830284E+01 -0.30410281613E+01 -0.89372305493E+03  0.11048033085E+04  0.64948984362E+03 0.  0.
         13    1    3    3    0    0  0.15774962928E+03 -0.85710916776E+02 -0.90998536771E+03  0.92752610542E+03  0.00000000000E+00 0.  1.
          1    1    3    3  501    0 -0.15597574625E+03  0.82669888615E+02  0.16262312779E+02  0.17727720304E+03  0.00000000000E+00 0.  1.
         21    1    1    2  502  501 -0.17738830284E+01  0.30410281613E+01  0.34685988437E+01  0.49422354471E+01  0.00000000000E+00 0. -1.
<mgrwt>
<rscale>  1 0.64949939E+03</rscale>
<asrwt>0</asrwt>
<pdfrwt beam="1">  1        1 0.39907555E+00 0.64949939E+03</pdfrwt>
<pdfrwt beam="2">0</pdfrwt>
<totfact> 0.13507522E+00</totfact>
</mgrwt>
</event>
<event>
 6    1  0.9621574E-003  0.6510715E+03  0.7818608E-02  0.9804771E-01
          1   -1    0    0  502    0  0.00000000000E+00  0.00000000000E+00  0.10599074347E+03  0.10599074347E+03  0.00000000000E+00 0.  1.
         13   -1    0    0    0    0 -0.00000000000E+00 -0.00000000000E+00 -0.10000000000E+04  0.10000000000E+04  0.00000000000E+00 0.  1.
    9000005    2    1    2  501    0 -0.25745910338E-02  0.39585679447E-02 -0.89402611642E+03  0.11059732348E+04  0.65107150081E+03 0.  0.
         13    1    3    3    0    0 -0.49909412936E+02  0.30537839488E+03 -0.61881075212E+03  0.69186245779E+03  0.00000000000E+00 0.  1.
          1    1    3    3  501    0  0.49906838345E+02 -0.30537443631E+03 -0.27521536430E+03  0.41411077698E+03  0.00000000000E+00 0.  1.
         21    1    1    2  502  501  0.25745910338E-02 -0.39585679447E-02  0.16859887784E-01  0.17508700558E-01  0.00000000000E+00 0. -1.
<mgrwt>
<rscale>  1 0.65107150E+03</rscale>
<asrwt>0</asrwt>
<pdfrwt beam="1">  1        1 0.38542170E+00 0.65107150E+03</pdfrwt>
<pdfrwt beam="2">0</pdfrwt>
<totfact> 0.15526045E+00</totfact>
</mgrwt>
</event>
<event>
 6    1  0.9621574E-003  0.6665720E+03  0.7818608E-02  0.9776171E-01
          1   -1    0    0  502    0  0.00000000000E+00  0.00000000000E+00  0.11107955816E+03  0.11107955816E+03  0.00000000000E+00 0.  1.
         13   -1    0    0    0    0 -0.00000000000E+00 -0.00000000000E+00 -0.10000000000E+04  0.10000000000E+04  0.00000000000E+00 0.  1.
    9000005    2    1    2  501    0 -0.34392199666E-05 -0.18027831516E-04 -0.88892043958E+03  0.11110795397E+04  0.66657197328E+03 0.  0.
         13    1    3    3    0    0  0.66266253045E+02  0.11524933384E+03  0.64970709713E+02  0.14796897771E+03  0.00000000000E+00 0.  1.
          3    1    3    3  501    0 -0.66266256484E+02 -0.11524935187E+03 -0.95389114929E+03  0.96311056195E+03  0.00000000000E+00 0.  1.
         21    1    1    2  502  501  0.34392199626E-05  0.18027831520E-04 -0.22661051738E-05  0.18492327488E-04  0.00000000000E+00 0. -1.
<mgrwt>
<rscale>  1 0.66657197E+03</rscale>
<asrwt>0</asrwt>
<pdfrwt beam="1">  1        1 0.40392652E+00 0.66657197E+03</pdfrwt>
<pdfrwt beam="2">0</pdfrwt>
<totfact> 0.12809420E+00</totfact>
</mgrwt>
</event>
<event>
 6    1  0.9621574E-003  0.6519476E+03  0.7818608E-02  0.9803131E-01
          1   -1    0    0  502    0  0.00000000000E+00  0.00000000000E+00  0.10628606612E+03  0.10628606612E+03  0.00000000000E+00 0.  1.
         13   -1    0    0    0    0 -0.00000000000E+00 -0.00000000000E+00 -0.10000000000E+04  0.10000000000E+04  0.00000000000E+00 0.  1.
    9000005    2    1    2  501    0  0.35297964619E-01  0.46384333274E-02 -0.89372749357E+03  0.11062479698E+04  0.65194764878E+03 0.  0.
         13    1    3    3    0    0 -0.22099484922E+03 -0.20754670334E+03 -0.65001127177E+03  0.71723706742E+03  0.00000000000E+00 0.  1.
          1    1    3    3  501    0  0.22103014719E+03  0.20755134177E+03 -0.24371622180E+03  0.38901090242E+03  0.00000000000E+00 0.  1.
         21    1    1    2  502  501 -0.35297964619E-01 -0.46384333274E-02  0.13559681988E-01  0.38096277319E-01  0.00000000000E+00 0. -1.
<mgrwt>
<rscale>  1 0.65194765E+03</rscale>
<asrwt>0</asrwt>
<pdfrwt beam="1">  1        1 0.38649560E+00 0.65194765E+03</pdfrwt>
<pdfrwt beam="2">0</pdfrwt>
<totfact> 0.15354584E+00</totfact>
</mgrwt>
</event>
<event>
 6    1  0.9621574E-003  0.6480473E+03  0.7818608E-02  0.9810450E-01
          1   -1    0    0  502    0  0.00000000000E+00  0.00000000000E+00  0.10501019242E+03  0.10501019242E+03  0.00000000000E+00 0.  1.
         13   -1    0    0    0    0 -0.00000000000E+00 -0.00000000000E+00 -0.10000000000E+04  0.10000000000E+04  0.00000000000E+00 0.  1.
    9000005    2    1    2  501    0  0.10036052058E-01 -0.12209745201E-01 -0.89500493226E+03  0.11049883165E+04  0.64804733666E+03 0.  0.
         13    1    3    3    0    0  0.15633529299E+03 -0.22933466599E+03 -0.16239409507E+03  0.32156951810E+03  0.00000000000E+00 0.  1.
          1    1    3    3  501    0 -0.15632525693E+03  0.22932245625E+03 -0.73261083719E+03  0.78341879839E+03  0.00000000000E+00 0.  1.
         21    1    1    2  502  501 -0.10036052058E-01  0.12209745201E-01  0.15124680095E-01  0.21875926649E-01  0.00000000000E+00 0. -1.
<mgrwt>
<rscale>  1 0.64804734E+03</rscale>
<asrwt>0</asrwt>
<pdfrwt beam="1">  1        1 0.38185605E+00 0.64804734E+03</pdfrwt>
<pdfrwt beam="2">0</pdfrwt>
<totfact> 0.16108829E+00</totfact>
</mgrwt>
</event>
<event>
 6    1  0.9621574E-003  0.6475878E+03  0.7818608E-02  0.9811316E-01
          1   -1    0    0  502    0  0.00000000000E+00  0.00000000000E+00  0.10514981278E+03  0.10514981278E+03  0.00000000000E+00 0.  1.
         13   -1    0    0    0    0 -0.00000000000E+00 -0.00000000000E+00 -0.10000000000E+04  0.10000000000E+04  0.00000000000E+00 0.  1.
    9000005    2    1    2  501    0 -0.63206439256E-03 -0.58885882540E-02 -0.89515748864E+03  0.11048424543E+04  0.64758776959E+03 0.  0.
         13    1    3    3    0    0 -0.11547075725E+03 -0.88000148504E+02  0.46201063018E+02  0.15235504632E+03  0.00000000000E+00 0.  1.
          1    1    3    3  501    0  0.11547012518E+03  0.87994259915E+02 -0.94135855165E+03  0.95248740798E+03  0.00000000000E+00 0.  1.
         21    1    1    2  502  501  0.63206439257E-03  0.58885882540E-02  0.30730141953E+00  0.30735848357E+00  0.00000000000E+00 0. -1.
<mgrwt>
<rscale>  1 0.64758777E+03</rscale>
<asrwt>0</asrwt>
<pdfrwt beam="1">  1        1 0.38236376E+00 0.64758777E+03</pdfrwt>
<pdfrwt beam="2">0</pdfrwt>
<totfact> 0.16027223E+00</totfact>
</mgrwt>
</event>
<event>
 6    1  0.9621574E-003  0.6324979E+03  0.7818608E-02  0.9840186E-01
          1   -1    0    0  502    0  0.00000000000E+00  0.00000000000E+00  0.10009558759E+03  0.10009558759E+03  0.00000000000E+00 0.  1.
         13   -1    0    0    0    0 -0.00000000000E+00 -0.00000000000E+00 -0.10000000000E+04  0.10000000000E+04  0.00000000000E+00 0.  1.
    9000005    2    1    2  501    0  0.60446441629E-02 -0.15703898597E-02 -0.89998646763E+03  0.11000132950E+04  0.63249791093E+03 0.  0.
         13    1    3    3    0    0  0.21908195887E+03 -0.67947940971E+02 -0.82864179229E+03  0.85980291191E+03  0.00000000000E+00 0.  1.
          3    1    3    3  501    0 -0.21907591423E+03  0.67946370581E+02 -0.71344675333E+02  0.24021038314E+03  0.00000000000E+00 0.  1.
         21    1    1    2  502  501 -0.60446441629E-02  0.15703898597E-02  0.82055217854E-01  0.82292542945E-01  0.00000000000E+00 0.  1.
<mgrwt>
<rscale>  1 0.63249791E+03</rscale>
<asrwt>0</asrwt>
<pdfrwt beam="1">  1        1 0.36398472E+00 0.63249791E+03</pdfrwt>
<pdfrwt beam="2">0</pdfrwt>
<totfact> 0.19359430E+00</totfact>
</mgrwt>
</event>
<event>
 6    1  0.9621574E-003  0.6795462E+03  0.7818608E-02  0.9752865E-01
          1   -1    0    0  502    0  0.00000000000E+00  0.00000000000E+00  0.11597587279E+03  0.11597587279E+03  0.00000000000E+00 0.  1.
         13   -1    0    0    0    0 -0.00000000000E+00 -0.00000000000E+00 -0.10000000000E+04  0.10000000000E+04  0.00000000000E+00 0.  1.
    9000005    2    1    2  501    0  0.41182485927E+00 -0.40091095740E+00 -0.88437411934E+03  0.11153029510E+04  0.67954599486E+03 0.  0.
         13    1    3    3    0    0 -0.22651333241E+03  0.49791187897E+02 -0.34805269720E+02  0.23451835525E+03  0.00000000000E+00 0.  1.
          1    1    3    3  501    0  0.22692515727E+03 -0.50192098854E+02 -0.84956884962E+03  0.88078459570E+03  0.00000000000E+00 0.  1.
         21    1    1    2  502  501 -0.41182485927E+00  0.40091095740E+00  0.34999212829E+00  0.67292183821E+00  0.00000000000E+00 0.  1.
<mgrwt>
<rscale>  1 0.67954624E+03</rscale>
<asrwt>0</asrwt>
<pdfrwt beam="1">  1        1 0.42173134E+00 0.67954624E+03</pdfrwt>
<pdfrwt beam="2">0</pdfrwt>
<totfact> 0.10627914E+00</totfact>
</mgrwt>
</event>
<event>
 6    1  0.9621574E-003  0.6440691E+03  0.7818608E-02  0.9817972E-01
          1   -1    0    0  502    0  0.00000000000E+00  0.00000000000E+00  0.10519566352E+03  0.10519566352E+03  0.00000000000E+00 0.  1.
         13   -1    0    0    0    0 -0.00000000000E+00 -0.00000000000E+00 -0.10000000000E+04  0.10000000000E+04  0.00000000000E+00 0.  1.
    9000005    2    1    2  501    0 -0.11165437212E+01  0.38250696364E+00 -0.89603134511E+03  0.11034931561E+04  0.64406799414E+03 0.  0.
         13    1    3    3    0    0  0.22996997481E+03  0.22503181497E+03 -0.45290270960E+03  0.55555951205E+03  0.00000000000E+00 0.  1.
          1    1    3    3  501    0 -0.23108651853E+03 -0.22464930800E+03 -0.44312863551E+03  0.54793364401E+03  0.00000000000E+00 0.  1.
         21    1    1    2  502  501  0.11165437212E+01 -0.38250696364E+00  0.12270086271E+01  0.17025074536E+01  0.00000000000E+00 0. -1.
<mgrwt>
<rscale>  1 0.64406908E+03</rscale>
<asrwt>0</asrwt>
<pdfrwt beam="1">  1        1 0.38253049E+00 0.64406908E+03</pdfrwt>
<pdfrwt beam="2">0</pdfrwt>
<totfact> 0.16010477E+00</totfact>
</mgrwt>
</event>
<event>
 6    1  0.1455043E-002  0.6790758E+03  0.7818608E-02  0.9753700E-01
          1   -1    0    0  502    0  0.00000000000E+00  0.00000000000E+00  0.11528600037E+03  0.11528600037E+03  0.00000000000E+00 0.  1.
         13   -1    0    0    0    0 -0.00000000000E+00 -0.00000000000E+00 -0.10000000000E+04  0.10000000000E+04  0.00000000000E+00 0.  1.
    9000005    2    1    2  501    0  0.21887768469E-05 -0.13742294414E-05 -0.88471400077E+03  0.11152859975E+04  0.67907583756E+03 0.  0.
         13    1    3    3    0    0 -0.42750868149E+02  0.54015047452E+02  0.10368889638E+03  0.12448553856E+03  0.00000000000E+00 0.  1.
          3    1    3    3  501    0  0.42750870337E+02 -0.54015048826E+02 -0.98840289715E+03  0.99080045898E+03  0.00000000000E+00 0.  1.
         21    1    1    2  502  501 -0.21887768418E-05  0.13742294365E-05  0.11355302291E-05  0.28228849620E-05  0.00000000000E+00 0. -1.
<mgrwt>
<rscale>  1 0.67907584E+03</rscale>
<asrwt>0</asrwt>
<pdfrwt beam="1">  1        1 0.41922270E+00 0.67907584E+03</pdfrwt>
<pdfrwt beam="2">0</pdfrwt>
<totfact> 0.10909775E+00</totfact>
</mgrwt>
</event>
<event>
 6    1  0.9621574E-003  0.6514079E+03  0.7818608E-02  0.9804141E-01
          1   -1    0    0  502    0  0.00000000000E+00  0.00000000000E+00  0.10608305368E+03  0.10608305368E+03  0.00000000000E+00 0.  1.
         13   -1    0    0    0    0 -0.00000000000E+00 -0.00000000000E+00 -0.10000000000E+04  0.10000000000E+04  0.00000000000E+00 0.  1.
    9000005    2    1    2  501    0  0.25028037953E-05 -0.56502963446E-05 -0.89391694404E+03  0.11060830471E+04  0.65140786318E+03 0.  0.
         13    1    3    3    0    0  0.26393084295E+03 -0.11581220023E+03 -0.18938365846E+03  0.34487407220E+03  0.00000000000E+00 0.  1.
          1    1    3    3  501    0 -0.26393084045E+03  0.11581219458E+03 -0.70453328559E+03  0.76120897489E+03  0.00000000000E+00 0.  1.
         21    1    1    2  502  501 -0.25028038410E-05  0.56502963317E-05 -0.22761692424E-05  0.65856527484E-05  0.00000000000E+00 0. -1.
<mgrwt>
<rscale>  1 0.65140786E+03</rscale>
<asrwt>0</asrwt>
<pdfrwt beam="1">  1        1 0.38575737E+00 0.65140786E+03</pdfrwt>
<pdfrwt beam="2">0</pdfrwt>
<totfact> 0.15472077E+00</totfact>
</mgrwt>
</event>
<event>
 6    1  0.9621574E-003  0.5959855E+03  0.7818608E-02  0.9913770E-01
          1   -1    0    0  502    0  0.00000000000E+00  0.00000000000E+00  0.90949376428E+02  0.90949376428E+02  0.00000000000E+00 0.  1.
         13   -1    0    0    0    0 -0.00000000000E+00 -0.00000000000E+00 -0.10000000000E+04  0.10000000000E+04  0.00000000000E+00 0.  1.
    9000005    2    1    2  501    0  0.20055866637E+00  0.58123327350E+00 -0.91115237501E+03  0.10887595328E+04  0.59598514393E+03 0.  0.
         13    1    3    3    0    0 -0.13656421721E+03 -0.22299197030E+03 -0.19510029227E+03  0.32625040733E+03  0.00000000000E+00 0.  1.
          1    1    3    3  501    0  0.13676477588E+03  0.22357320357E+03 -0.71605208274E+03  0.76250912550E+03  0.00000000000E+00 0.  1.
         21    1    1    2  502  501 -0.20055866637E+00 -0.58123327350E+00  0.21017514350E+01  0.21898435997E+01  0.00000000000E+00 0.  1.
<mgrwt>
<rscale>  1 0.59598546E+03</rscale>
<asrwt>0</asrwt>
<pdfrwt beam="1">  1        1 0.33072570E+00 0.59598546E+03</pdfrwt>
<pdfrwt beam="2">0</pdfrwt>
<totfact> 0.27198311E+00</totfact>
</mgrwt>
</event>
<event>
 6    1  0.9621574E-003  0.6502060E+03  0.7818608E-02  0.9806393E-01
          1   -1    0    0  502    0  0.00000000000E+00  0.00000000000E+00  0.10591160259E+03  0.10591160259E+03  0.00000000000E+00 0.  1.
         13   -1    0    0    0    0 -0.00000000000E+00 -0.00000000000E+00 -0.10000000000E+04  0.10000000000E+04  0.00000000000E+00 0.  1.
    9000005    2    1    2  501    0  0.29011944663E-02  0.51903258470E-02 -0.89430798245E+03  0.11056919371E+04  0.65020603823E+03 0.  0.
         13    1    3    3    0    0  0.22810749667E+03  0.10430994391E+03 -0.79888005693E+03  0.83733084250E+03  0.00000000000E+00 0.  1.
          3    1    3    3  501    0 -0.22810459548E+03 -0.10430475359E+03 -0.95427925522E+02  0.26836109455E+03  0.00000000000E+00 0.  1.
         21    1    1    2  502  501 -0.29011944663E-02 -0.51903258470E-02  0.21958503909E+00  0.21966553167E+00  0.00000000000E+00 0.  1.
<mgrwt>
<rscale>  1 0.65020604E+03</rscale>
<asrwt>0</asrwt>
<pdfrwt beam="1">  1        1 0.38513391E+00 0.65020604E+03</pdfrwt>
<pdfrwt beam="2">0</pdfrwt>
<totfact> 0.15574115E+00</totfact>
</mgrwt>
</event>
<event>
 6    1  0.9621574E-003  0.5403391E+03  0.7818608E-02  0.1003755E+00
          1   -1    0    0  502    0  0.00000000000E+00  0.00000000000E+00  0.72992078290E+02  0.72992078290E+02  0.00000000000E+00 0.  1.
         13   -1    0    0    0    0 -0.00000000000E+00 -0.00000000000E+00 -0.10000000000E+04  0.10000000000E+04  0.00000000000E+00 0.  1.
    9000005    2    1    2  501    0  0.43451463496E-03 -0.20942594600E-03 -0.92700828588E+03  0.10729914739E+04  0.54033909813E+03 0.  0.
         13    1    3    3    0    0 -0.24358805529E+02  0.23191668799E+03 -0.19258710421E+03  0.30243758742E+03  0.00000000000E+00 0.  1.
          1    1    3    3  501    0  0.24359240043E+02 -0.23191689742E+03 -0.73442118167E+03  0.77055388648E+03  0.00000000000E+00 0.  1.
         21    1    1    2  502  501 -0.43451463496E-03  0.20942594602E-03  0.36417254644E-03  0.60438715939E-03  0.00000000000E+00 0.  1.
<mgrwt>
<rscale>  1 0.54033910E+03</rscale>
<asrwt>0</asrwt>
<pdfrwt beam="1">  1        1 0.26542630E+00 0.54033910E+03</pdfrwt>
<pdfrwt beam="2">0</pdfrwt>
<totfact> 0.52578815E+00</totfact>
</mgrwt>
</event>
<event>
 6    1  0.9621574E-003  0.6566204E+03  0.7818608E-02  0.9794435E-01
          1   -1    0    0  502    0  0.00000000000E+00  0.00000000000E+00  0.10820952606E+03  0.10820952606E+03  0.00000000000E+00 0.  1.
         13   -1    0    0    0    0 -0.00000000000E+00 -0.00000000000E+00 -0.10000000000E+04  0.10000000000E+04  0.00000000000E+00 0.  1.
    9000005    2    1    2  501    0 -0.21473448575E+00 -0.20008375497E+00 -0.89215513068E+03  0.11077414246E+04  0.65662028640E+03 0.  0.
         13    1    3    3    0    0 -0.62344363387E+02 -0.29234259819E+03 -0.21671253577E+03  0.36920907021E+03  0.00000000000E+00 0.  1.
          3    1    3    3  501    0  0.62129628902E+02  0.29214251443E+03 -0.67544259490E+03  0.73853235443E+03  0.00000000000E+00 0.  1.
         21    1    1    2  502  501  0.21473448575E+00  0.20008375497E+00  0.36465673880E+00  0.46810142653E+00  0.00000000000E+00 0.  1.
<mgrwt>
<rscale>  1 0.65662035E+03</rscale>
<asrwt>0</asrwt>
<pdfrwt beam="1">  1        1 0.39349002E+00 0.65662035E+03</pdfrwt>
<pdfrwt beam="2">0</pdfrwt>
<totfact> 0.14283782E+00</totfact>
</mgrwt>
</event>
<event>
 6    1  0.9621574E-003  0.6457295E+03  0.7818608E-02  0.9814826E-01
          1   -1    0    0  502    0  0.00000000000E+00  0.00000000000E+00  0.10444288842E+03  0.10444288842E+03  0.00000000000E+00 0.  1.
         13   -1    0    0    0    0 -0.00000000000E+00 -0.00000000000E+00 -0.10000000000E+04  0.10000000000E+04  0.00000000000E+00 0.  1.
    9000005    2    1    2  501    0 -0.98312287165E-01 -0.31616074438E+00 -0.89559554543E+03  0.11041095716E+04  0.64572939808E+03 0.  0.
         13    1    3    3    0    0 -0.42812999642E+02  0.13656956352E+03 -0.94244831836E+03  0.95325391759E+03  0.00000000000E+00 0.  1.
          1    1    3    3  501    0  0.42714687355E+02 -0.13688572427E+03  0.46852772930E+02  0.15085565404E+03  0.00000000000E+00 0.  1.
         21    1    1    2  502  501  0.98312287165E-01  0.31616074438E+00  0.38433849414E-01  0.33331679057E+00  0.00000000000E+00 0. -1.
<mgrwt>
<rscale>  1 0.64572948E+03</rscale>
<asrwt>0</asrwt>
<pdfrwt beam="1">  1        1 0.37979312E+00 0.64572948E+03</pdfrwt>
<pdfrwt beam="2">0</pdfrwt>
<totfact> 0.16457160E+00</totfact>
</mgrwt>
</event>
<event>
 6    1  0.9621574E-003  0.6531018E+03  0.7818608E-02  0.9800976E-01
          3   -1    0    0  502    0  0.00000000000E+00  0.00000000000E+00  0.10663667027E+03  0.10663667027E+03  0.00000000000E+00 0.  1.
         13   -1    0    0    0    0 -0.00000000000E+00 -0.00000000000E+00 -0.10000000000E+04  0.10000000000E+04  0.00000000000E+00 0.  1.
    9000005    2    1    2  501    0 -0.96591395507E-03  0.87875958690E-03 -0.89336410202E+03  0.11066351532E+04  0.65310178641E+03 0.  0.
         13    1    3    3    0    0 -0.88211350177E+02  0.58529652781E+02 -0.97011763122E+03  0.97587662179E+03  0.00000000000E+00 0.  1.
          3    1    3    3  501    0  0.88210384263E+02 -0.58528774021E+02  0.76753529197E+02  0.13075853136E+03  0.00000000000E+00 0.  1.
         21    1    1    2  502  501  0.96591395508E-03 -0.87875958690E-03  0.77229565033E-03  0.15171185688E-02  0.00000000000E+00 0. -1.
<mgrwt>
<rscale>  1 0.65310179E+03</rscale>
<asrwt>0</asrwt>
<pdfrwt beam="1">  1        3 0.38777053E+00 0.65310179E+03</pdfrwt>
<pdfrwt beam="2">0</pdfrwt>
<totfact> 0.68646338E-02</totfact>
</mgrwt>
</event>
<event>
 6    1  0.9621574E-003  0.7273894E+03  0.7818608E-02  0.9671506E-01
          1   -1    0    0  502    0  0.00000000000E+00  0.00000000000E+00  0.14027936586E+03  0.14027936586E+03  0.00000000000E+00 0.  1.
         13   -1    0    0    0    0 -0.00000000000E+00 -0.00000000000E+00 -0.10000000000E+04  0.10000000000E+04  0.00000000000E+00 0.  1.
    9000005    2    1    2  501    0  0.16100450782E+02 -0.31616938034E+01 -0.85625939797E+03  0.11235103176E+04  0.72720427416E+03 0.  0.
         13    1    3    3    0    0 -0.30728257519E+03  0.17322311661E+03 -0.34534374221E+03  0.49365081730E+03  0.00000000000E+00 0.  1.
          1    1    3    3  501    0  0.32338302597E+03 -0.17638481041E+03 -0.51091565576E+03  0.62985950031E+03  0.00000000000E+00 0.  1.
         21    1    1    2  502  501 -0.16100450782E+02  0.31616938034E+01 -0.34612361685E+01  0.16769048240E+02  0.00000000000E+00 0. -1.
<mgrwt>
<rscale>  1 0.72738936E+03</rscale>
<asrwt>0</asrwt>
<pdfrwt beam="1">  1        1 0.51010786E+00 0.72738936E+03</pdfrwt>
<pdfrwt beam="2">0</pdfrwt>
<totfact> 0.40623376E-01</totfact>
</mgrwt>
</event>
<event>
 6    1  0.9621574E-003  0.6452607E+03  0.7818608E-02  0.9815713E-01
          1   -1    0    0  502    0  0.00000000000E+00  0.00000000000E+00  0.10412703938E+03  0.10412703938E+03  0.00000000000E+00 0.  1.
         13   -1    0    0    0    0 -0.00000000000E+00 -0.00000000000E+00 -0.10000000000E+04  0.10000000000E+04  0.00000000000E+00 0.  1.
    9000005    2    1    2  501    0 -0.80485175725E-01  0.31032827772E-02 -0.89585243358E+03  0.11040439199E+04  0.64526071300E+03 0.  0.
         13    1    3    3    0    0 -0.11842088511E+03  0.30011987128E+03 -0.45191178988E+03  0.55526544013E+03  0.00000000000E+00 0.  1.
          3    1    3    3  501    0  0.11834039994E+03 -0.30011676800E+03 -0.44394064370E+03  0.54877847974E+03  0.00000000000E+00 0.  1.
         21    1    1    2  502  501  0.80485175725E-01 -0.31032827772E-02 -0.20527038509E-01  0.83119511461E-01  0.00000000000E+00 0.  1.
<mgrwt>
<rscale>  1 0.64526072E+03</rscale>
<asrwt>0</asrwt>
<pdfrwt beam="1">  1        1 0.37864458E+00 0.64526072E+03</pdfrwt>
<pdfrwt beam="2">0</pdfrwt>
<totfact> 0.16651678E+00</totfact>
</mgrwt>
</event>
<event>
 6    1  0.9621574E-003  0.6482755E+03  0.7818608E-02  0.9810020E-01
          1   -1    0    0  502    0  0.00000000000E+00  0.00000000000E+00  0.10570360706E+03  0.10570360706E+03  0.00000000000E+00 0.  1.
         13   -1    0    0    0    0 -0.00000000000E+00 -0.00000000000E+00 -0.10000000000E+04  0.10000000000E+04  0.00000000000E+00 0.  1.
    9000005    2    1    2  501    0  0.48743663979E-01  0.53245561364E-01 -0.89493246053E+03  0.11050634563E+04  0.64827550340E+03 0.  0.
         13    1    3    3    0    0 -0.24004813070E+03  0.21128102596E+03 -0.53769833894E+03  0.62560553121E+03  0.00000000000E+00 0.  1.
          1    1    3    3  501    0  0.24009687437E+03 -0.21122778040E+03 -0.35723412159E+03  0.47945792508E+03  0.00000000000E+00 0.  1.
         21    1    1    2  502  501 -0.48743663979E-01 -0.53245561364E-01  0.63606758515E+00  0.64015076932E+00  0.00000000000E+00 0.  1.
<mgrwt>
<rscale>  1 0.64827551E+03</rscale>
<asrwt>0</asrwt>
<pdfrwt beam="1">  1        1 0.38437756E+00 0.64827551E+03</pdfrwt>
<pdfrwt beam="2">0</pdfrwt>
<totfact> 0.15700133E+00</totfact>
</mgrwt>
</event>
<event>
 6    1  0.9621574E-003  0.6393528E+03  0.7818608E-02  0.9826966E-01
          1   -1    0    0  502    0  0.00000000000E+00  0.00000000000E+00  0.10219308767E+03  0.10219308767E+03  0.00000000000E+00 0.  1.
         13   -1    0    0    0    0 -0.00000000000E+00 -0.00000000000E+00 -0.10000000000E+04  0.10000000000E+04  0.00000000000E+00 0.  1.
    9000005    2    1    2  501    0 -0.15771774071E-03  0.20911121509E-03 -0.89780677672E+03  0.11021927927E+04  0.63935275398E+03 0.  0.
         13    1    3    3    0    0 -0.29011097095E+03  0.97857360265E+02 -0.29040963826E+03  0.42199312366E+03  0.00000000000E+00 0.  1.
          1    1    3    3  501    0  0.29011081324E+03 -0.97857151154E+02 -0.60739713846E+03  0.68019966907E+03  0.00000000000E+00 0.  1.
         21    1    1    2  502  501  0.15771774071E-03 -0.20911121508E-03 -0.13560841553E-03  0.29494411059E-03  0.00000000000E+00 0. -1.
<mgrwt>
<rscale>  1 0.63935275E+03</rscale>
<asrwt>0</asrwt>
<pdfrwt beam="1">  1        1 0.37161201E+00 0.63935275E+03</pdfrwt>
<pdfrwt beam="2">0</pdfrwt>
<totfact> 0.17901340E+00</totfact>
</mgrwt>
</event>
<event>
 6    1  0.9621574E-003  0.5892991E+03  0.7818608E-02  0.9927859E-01
          1   -1    0    0  502    0  0.00000000000E+00  0.00000000000E+00  0.86973528652E+02  0.86973528652E+02  0.00000000000E+00 0.  1.
         13   -1    0    0    0    0 -0.00000000000E+00 -0.00000000000E+00 -0.10000000000E+04  0.10000000000E+04  0.00000000000E+00 0.  1.
    9000005    2    1    2  501    0  0.18604152596E-02  0.34213101679E-02 -0.91318160802E+03  0.10868183431E+04  0.58929912751E+03 0.  0.
         13    1    3    3    0    0 -0.37001409651E+02 -0.16827090884E+03 -0.89741454352E+03  0.91380362552E+03  0.00000000000E+00 0.  1.
          3    1    3    3  501    0  0.37003270067E+02  0.16827433015E+03 -0.15767064491E+02  0.17301471760E+03  0.00000000000E+00 0.  1.
         21    1    1    2  502  501 -0.18604152596E-02 -0.34213101679E-02  0.15513666762E+00  0.15518554105E+00  0.00000000000E+00 0.  1.
<mgrwt>
<rscale>  1 0.58929913E+03</rscale>
<asrwt>0</asrwt>
<pdfrwt beam="1">  1        1 0.31626804E+00 0.58929913E+03</pdfrwt>
<pdfrwt beam="2">0</pdfrwt>
<totfact> 0.31448955E+00</totfact>
</mgrwt>
</event>
<event>
 6    1  0.9621574E-003  0.6417749E+03  0.7818608E-02  0.9822337E-01
          1   -1    0    0  502    0  0.00000000000E+00  0.00000000000E+00  0.10301045843E+03  0.10301045843E+03  0.00000000000E+00 0.  1.
         13   -1    0    0    0    0 -0.00000000000E+00 -0.00000000000E+00 -0.10000000000E+04  0.10000000000E+04  0.00000000000E+00 0.  1.
    9000005    2    1    2  501    0 -0.60740402597E-01 -0.11090384452E+00 -0.89685957926E+03  0.11028291320E+04  0.64177486206E+03 0.  0.
         13    1    3    3    0    0 -0.14797513085E+03 -0.28377624303E+03 -0.49003106169E+03  0.58528286911E+03  0.00000000000E+00 0.  1.
          1    1    3    3  501    0  0.14791439044E+03  0.28366533919E+03 -0.40682851757E+03  0.51754626292E+03  0.00000000000E+00 0.  1.
         21    1    1    2  502  501  0.60740402597E-01  0.11090384452E+00 -0.12996231066E+00  0.18132639474E+00  0.00000000000E+00 0. -1.
<mgrwt>
<rscale>  1 0.64177487E+03</rscale>
<asrwt>0</asrwt>
<pdfrwt beam="1">  1        1 0.37458428E+00 0.64177487E+03</pdfrwt>
<pdfrwt beam="2">0</pdfrwt>
<totfact> 0.17362868E+00</totfact>
</mgrwt>
</event>
<event>
 6    1  0.9621574E-003  0.6543647E+03  0.7818608E-02  0.9798623E-01
          1   -1    0    0  502    0  0.00000000000E+00  0.00000000000E+00  0.10704861388E+03  0.10704861388E+03  0.00000000000E+00 0.  1.
         13   -1    0    0    0    0 -0.00000000000E+00 -0.00000000000E+00 -0.10000000000E+04  0.10000000000E+04  0.00000000000E+00 0.  1.
    9000005    2    1    2  501    0  0.29570834906E-03  0.22440075895E-03 -0.89295160112E+03  0.11070481849E+04  0.65436467031E+03 0.  0.
         13    1    3    3    0    0  0.23145356231E+03 -0.52933489031E+02 -0.82731917006E+03  0.86071465359E+03  0.00000000000E+00 0.  1.
          3    1    3    3  501    0 -0.23145326660E+03  0.52933713432E+02 -0.65632431063E+02  0.24633353131E+03  0.00000000000E+00 0.  1.
         21    1    1    2  502  501 -0.29570834905E-03 -0.22440075895E-03  0.21500077077E-03  0.42898072188E-03  0.00000000000E+00 0. -1.
<mgrwt>
<rscale>  1 0.65436467E+03</rscale>
<asrwt>0</asrwt>
<pdfrwt beam="1">  1        1 0.38926851E+00 0.65436467E+03</pdfrwt>
<pdfrwt beam="2">0</pdfrwt>
<totfact> 0.14919704E+00</totfact>
</mgrwt>
</event>
<event>
 6    1  0.9621574E-003  0.6689019E+03  0.7818608E-02  0.9771944E-01
          1   -1    0    0  502    0  0.00000000000E+00  0.00000000000E+00  0.11185743629E+03  0.11185743629E+03  0.00000000000E+00 0.  1.
         13   -1    0    0    0    0 -0.00000000000E+00 -0.00000000000E+00 -0.10000000000E+04  0.10000000000E+04  0.00000000000E+00 0.  1.
    9000005    2    1    2  501    0  0.10588747253E-04  0.10774343821E-04 -0.88814256648E+03  0.11118574209E+04  0.66890186581E+03 0.  0.
         13    1    3    3    0    0 -0.59998775882E+01  0.30728586266E+03 -0.66331227722E+03  0.73105661684E+03  0.00000000000E+00 0.  1.
          3    1    3    3  501    0  0.59998881769E+01 -0.30728585188E+03 -0.22483028926E+03  0.38080080409E+03  0.00000000000E+00 0.  1.
         21    1    1    2  502  501 -0.10588747253E-04 -0.10774343804E-04  0.27794516268E-05  0.15360123833E-04  0.00000000000E+00 0. -1.
<mgrwt>
<rscale>  1 0.66890187E+03</rscale>
<asrwt>0</asrwt>
<pdfrwt beam="1">  1        1 0.40675517E+00 0.66890187E+03</pdfrwt>
<pdfrwt beam="2">0</pdfrwt>
<totfact> 0.12436149E+00</totfact>
</mgrwt>
</event>
<event>
 6    1  0.9621574E-003  0.6455790E+03  0.7818608E-02  0.9815110E-01
          1   -1    0    0  502    0  0.00000000000E+00  0.00000000000E+00  0.10433393218E+03  0.10433393218E+03  0.00000000000E+00 0.  1.
         13   -1    0    0    0    0 -0.00000000000E+00 -0.00000000000E+00 -0.10000000000E+04  0.10000000000E+04  0.00000000000E+00 0.  1.
    9000005    2    1    2  501    0 -0.29176526951E-03 -0.31412011215E-02 -0.89580690946E+03  0.11041930552E+04  0.64557903013E+03 0.  0.
         13    1    3    3    0    0 -0.21480931161E+03 -0.34405414702E+02 -0.85577566633E+03  0.88299420383E+03  0.00000000000E+00 0.  1.
          3    1    3    3  501    0  0.21480901984E+03  0.34402273501E+02 -0.40031243127E+02  0.22119885139E+03  0.00000000000E+00 0.  1.
         21    1    1    2  502  501  0.29176526952E-03  0.31412011215E-02  0.14084163433E+00  0.14087696133E+00  0.00000000000E+00 0.  1.
<mgrwt>
<rscale>  1 0.64557903E+03</rscale>
<asrwt>0</asrwt>
<pdfrwt beam="1">  1        1 0.37939692E+00 0.64557903E+03</pdfrwt>
<pdfrwt beam="2">0</pdfrwt>
<totfact> 0.16523981E+00</totfact>
</mgrwt>
</event>
<event>
 6    1  0.9621574E-003  0.6452252E+03  0.7818608E-02  0.9815780E-01
          1   -1    0    0  502    0  0.00000000000E+00  0.00000000000E+00  0.10407896106E+03  0.10407896106E+03  0.00000000000E+00 0.  1.
         13   -1    0    0    0    0 -0.00000000000E+00 -0.00000000000E+00 -0.10000000000E+04  0.10000000000E+04  0.00000000000E+00 0.  1.
    9000005    2    1    2  501    0 -0.84910654436E-05  0.23214152236E-05 -0.89592110784E+03  0.11040788916E+04  0.64522520672E+03 0.  0.
         13    1    3    3    0    0 -0.31390568537E+03 -0.57536192617E+02 -0.52879693714E+03  0.61763532403E+03  0.00000000000E+00 0.  1.
          1    1    3    3  501    0  0.31390567688E+03  0.57536194938E+02 -0.36712417071E+03  0.48644356756E+03  0.00000000000E+00 0.  1.
         21    1    1    2  502  501  0.84910654422E-05 -0.23214152236E-05  0.68908017943E-04  0.69467993333E-04  0.00000000000E+00 0. -1.
<mgrwt>
<rscale>  1 0.64522521E+03</rscale>
<asrwt>0</asrwt>
<pdfrwt beam="1">  1        1 0.37846975E+00 0.64522521E+03</pdfrwt>
<pdfrwt beam="2">0</pdfrwt>
<totfact> 0.16681369E+00</totfact>
</mgrwt>
</event>
<event>
 6    1  0.9621574E-003  0.6507018E+03  0.7818608E-02  0.9805463E-01
          1   -1    0    0  502    0  0.00000000000E+00  0.00000000000E+00  0.10585552194E+03  0.10585552194E+03  0.00000000000E+00 0.  1.
         13   -1    0    0    0    0 -0.00000000000E+00 -0.00000000000E+00 -0.10000000000E+04  0.10000000000E+04  0.00000000000E+00 0.  1.
    9000005    2    1    2  501    0  0.77774023396E-04  0.70104656942E-04 -0.89414678459E+03  0.11058532130E+04  0.65070181834E+03 0.  0.
         13    1    3    3    0    0 -0.23159165600E+03 -0.21963410422E+03 -0.33986677548E+03  0.46624377738E+03  0.00000000000E+00 0.  1.
          1    1    3    3  501    0  0.23159173378E+03  0.21963417433E+03 -0.55428000911E+03  0.63960943566E+03  0.00000000000E+00 0.  1.
         21    1    1    2  502  501 -0.77774023402E-04 -0.70104656956E-04  0.23065266139E-02  0.23089020080E-02  0.00000000000E+00 0. -1.
<mgrwt>
<rscale>  1 0.65070182E+03</rscale>
<asrwt>0</asrwt>
<pdfrwt beam="1">  1        1 0.38492998E+00 0.65070182E+03</pdfrwt>
<pdfrwt beam="2">0</pdfrwt>
<totfact> 0.15605068E+00</totfact>
</mgrwt>
</event>
<event>
 6    1  0.9621574E-003  0.6543685E+03  0.7818608E-02  0.9798616E-01
          1   -1    0    0  502    0  0.00000000000E+00  0.00000000000E+00  0.10704960302E+03  0.10704960302E+03  0.00000000000E+00 0.  1.
         13   -1    0    0    0    0 -0.00000000000E+00 -0.00000000000E+00 -0.10000000000E+04  0.10000000000E+04  0.00000000000E+00 0.  1.
    9000005    2    1    2  501    0  0.15717582272E-04  0.21309821790E-04 -0.89295047858E+03  0.11070495172E+04  0.65436845615E+03 0.  0.
         13    1    3    3    0    0  0.24658938820E+03  0.86140219787E+02 -0.11313360342E+03  0.28465009408E+03  0.00000000000E+00 0.  1.
          1    1    3    3  501    0 -0.24658937248E+03 -0.86140198477E+02 -0.77981687516E+03  0.82239942315E+03  0.00000000000E+00 0.  1.
         21    1    1    2  502  501 -0.15717582285E-04 -0.21309821794E-04  0.81600923857E-04  0.85789636158E-04  0.00000000000E+00 0.  1.
<mgrwt>
<rscale>  1 0.65436846E+03</rscale>
<asrwt>0</asrwt>
<pdfrwt beam="1">  1        1 0.38927210E+00 0.65436846E+03</pdfrwt>
<pdfrwt beam="2">0</pdfrwt>
<totfact> 0.14919146E+00</totfact>
</mgrwt>
</event>
<event>
 6    1  0.9621574E-003  0.7046232E+03  0.7818608E-02  0.9709358E-01
          1   -1    0    0  502    0  0.00000000000E+00  0.00000000000E+00  0.12412430685E+03  0.12412430685E+03  0.00000000000E+00 0.  1.
         13   -1    0    0    0    0 -0.00000000000E+00 -0.00000000000E+00 -0.10000000000E+04  0.10000000000E+04  0.00000000000E+00 0.  1.
    9000005    2    1    2  501    0 -0.88624120679E-04  0.16506033904E-03 -0.87587651820E+03  0.11241234608E+04  0.70462321846E+03 0.  0.
         13    1    3    3    0    0  0.23729186134E+03 -0.22457126182E+03 -0.22759490605E+03  0.39816971301E+03  0.00000000000E+00 0.  1.
          3    1    3    3  501    0 -0.23729194997E+03  0.22457142688E+03 -0.64828161214E+03  0.72595374779E+03  0.00000000000E+00 0.  1.
         21    1    1    2  502  501  0.88624120675E-04 -0.16506033905E-03  0.82504870291E-03  0.84605231072E-03  0.00000000000E+00 0.  1.
<mgrwt>
<rscale>  1 0.70462322E+03</rscale>
<asrwt>0</asrwt>
<pdfrwt beam="1">  1        1 0.45136207E+00 0.70462322E+03</pdfrwt>
<pdfrwt beam="2">0</pdfrwt>
<totfact> 0.77449076E-01</totfact>
</mgrwt>
</event>
<event>
 6    1  0.9621574E-003  0.6280885E+03  0.7818608E-02  0.9848786E-01
          1   -1    0    0  502    0  0.00000000000E+00  0.00000000000E+00  0.98624112284E+02  0.98624112284E+02  0.00000000000E+00 0.  1.
         13   -1    0    0    0    0 -0.00000000000E+00 -0.00000000000E+00 -0.10000000000E+04  0.10000000000E+04  0.00000000000E+00 0.  1.
    9000005    2    1    2  501    0 -0.23982384079E-05  0.15513799639E-04 -0.90137619675E+03  0.10986238029E+04  0.62808853845E+03 0.  0.
         13    1    3    3    0    0 -0.85686279039E+02  0.21619123188E+03 -0.81525280010E+02  0.24642881008E+03  0.00000000000E+00 0.  1.
          3    1    3    3  501    0  0.85686276641E+02 -0.21619121636E+03 -0.81985091674E+03  0.85219499278E+03  0.00000000000E+00 0.  1.
         21    1    1    2  502  501  0.23982384012E-05 -0.15513799651E-04  0.30903106545E-03  0.30942952177E-03  0.00000000000E+00 0. -1.
<mgrwt>
<rscale>  1 0.62808854E+03</rscale>
<asrwt>0</asrwt>
<pdfrwt beam="1">  1        1 0.35863389E+00 0.62808854E+03</pdfrwt>
<pdfrwt beam="2">0</pdfrwt>
<totfact> 0.20448076E+00</totfact>
</mgrwt>
</event>
<event>
 6    1  0.9621574E-003  0.6402938E+03  0.7818608E-02  0.9825165E-01
          1   -1    0    0  502    0  0.00000000000E+00  0.00000000000E+00  0.10677808691E+03  0.10677808691E+03  0.00000000000E+00 0.  1.
         13   -1    0    0    0    0 -0.00000000000E+00 -0.00000000000E+00 -0.10000000000E+04  0.10000000000E+04  0.00000000000E+00 0.  1.
    9000005    2    1    2  501    0 -0.12438475251E+01 -0.38464493504E+00 -0.89739664652E+03  0.11024050436E+04  0.64029246747E+03 0.  0.
         13    1    3    3    0    0 -0.23412043840E+03 -0.21846662517E+03 -0.48073392376E+03  0.57762024847E+03  0.00000000000E+00 0.  1.
          3    1    3    3  501    0  0.23287659087E+03  0.21808198024E+03 -0.41666272276E+03  0.52478479515E+03  0.00000000000E+00 0.  1.
         21    1    1    2  502  501  0.12438475251E+01  0.38464493504E+00  0.41747334360E+01  0.43730432943E+01  0.00000000000E+00 0.  1.
<mgrwt>
<rscale>  1 0.64029379E+03</rscale>
<asrwt>0</asrwt>
<pdfrwt beam="1">  1        1 0.38828477E+00 0.64029379E+03</pdfrwt>
<pdfrwt beam="2">0</pdfrwt>
<totfact> 0.15109870E+00</totfact>
</mgrwt>
</event>
<event>
 6    1  0.9621574E-003  0.6190024E+03  0.7818608E-02  0.9866748E-01
          1   -1    0    0  502    0  0.00000000000E+00  0.00000000000E+00  0.95793661214E+02  0.95793661214E+02  0.00000000000E+00 0.  1.
         13   -1    0    0    0    0 -0.00000000000E+00 -0.00000000000E+00 -0.10000000000E+04  0.10000000000E+04  0.00000000000E+00 0.  1.
    9000005    2    1    2  501    0 -0.69357751244E-04  0.17257999900E-04 -0.90420902139E+03  0.10957909777E+04  0.61900235245E+03 0.  0.
         13    1    3    3    0    0 -0.87600979621E+02 -0.14847800541E+03  0.29274937426E+01  0.17241873431E+03  0.00000000000E+00 0.  1.
          1    1    3    3  501    0  0.87600910263E+02  0.14847802267E+03 -0.90713651514E+03  0.92337224335E+03  0.00000000000E+00 0.  1.
         21    1    1    2  502  501  0.69357751241E-04 -0.17257999909E-04  0.26826072207E-02  0.26835591733E-02  0.00000000000E+00 0. -1.
<mgrwt>
<rscale>  1 0.61900235E+03</rscale>
<asrwt>0</asrwt>
<pdfrwt beam="1">  1        1 0.34834132E+00 0.61900235E+03</pdfrwt>
<pdfrwt beam="2">0</pdfrwt>
<totfact> 0.22712514E+00</totfact>
</mgrwt>
</event>
<event>
 6    1  0.9621574E-003  0.6613433E+03  0.7818608E-02  0.9785724E-01
          1   -1    0    0  502    0  0.00000000000E+00  0.00000000000E+00  0.10934409106E+03  0.10934409106E+03  0.00000000000E+00 0.  1.
         13   -1    0    0    0    0 -0.00000000000E+00 -0.00000000000E+00 -0.10000000000E+04  0.10000000000E+04  0.00000000000E+00 0.  1.
    9000005    2    1    2  501    0 -0.44210909095E-03  0.18216977082E-06 -0.89065608110E+03  0.11093436166E+04  0.66134333362E+03 0.  0.
         13    1    3    3    0    0  0.30953238045E+03  0.55384177864E+02 -0.61693186280E+03  0.69244683915E+03  0.00000000000E+00 0.  1.
          1    1    3    3  501    0 -0.30953282256E+03 -0.55384177682E+02 -0.27372421830E+03  0.41689677747E+03  0.00000000000E+00 0.  1.
         21    1    1    2  502  501  0.44210909096E-03 -0.18216977063E-06  0.17215855616E-03  0.47444604536E-03  0.00000000000E+00 0. -1.
<mgrwt>
<rscale>  1 0.66134333E+03</rscale>
<asrwt>0</asrwt>
<pdfrwt beam="1">  1        1 0.39761572E+00 0.66134333E+03</pdfrwt>
<pdfrwt beam="2">0</pdfrwt>
<totfact> 0.13680729E+00</totfact>
</mgrwt>
</event>
<event>
 6    1  0.9621574E-003  0.6492213E+03  0.7818608E-02  0.9808241E-01
          1   -1    0    0  502    0  0.00000000000E+00  0.00000000000E+00  0.10540113695E+03  0.10540113695E+03  0.00000000000E+00 0.  1.
         13   -1    0    0    0    0 -0.00000000000E+00 -0.00000000000E+00 -0.10000000000E+04  0.10000000000E+04  0.00000000000E+00 0.  1.
    9000005    2    1    2  501    0  0.22144236067E-01 -0.45817140746E-01 -0.89460091461E+03  0.11053502077E+04  0.64922128948E+03 0.  0.
         13    1    3    3    0    0  0.14484185070E+03 -0.24962517056E+03 -0.70040840535E+03  0.75753800022E+03  0.00000000000E+00 0.  1.
          1    1    3    3  501    0 -0.14481970647E+03  0.24957935342E+03 -0.19419250925E+03  0.34781220750E+03  0.00000000000E+00 0.  1.
         21    1    1    2  502  501 -0.22144236067E-01  0.45817140746E-01  0.20515594025E-02  0.50929230046E-01  0.00000000000E+00 0. -1.
<mgrwt>
<rscale>  1 0.64922129E+03</rscale>
<asrwt>0</asrwt>
<pdfrwt beam="1">  1        1 0.38327767E+00 0.64922129E+03</pdfrwt>
<pdfrwt beam="2">0</pdfrwt>
<totfact> 0.15874116E+00</totfact>
</mgrwt>
</event>
<event>
 6    1  0.9621574E-003  0.6540402E+03  0.7818608E-02  0.9799227E-01
          1   -1    0    0  502    0  0.00000000000E+00  0.00000000000E+00  0.10694216068E+03  0.10694216068E+03  0.00000000000E+00 0.  1.
         13   -1    0    0    0    0 -0.00000000000E+00 -0.00000000000E+00 -0.10000000000E+04  0.10000000000E+04  0.00000000000E+00 0.  1.
    9000005    2    1    2  501    0 -0.47433566692E-05 -0.28242080248E-05 -0.89305785874E+03  0.11069421405E+04  0.65404018479E+03 0.  0.
         13    1    3    3    0    0  0.20554450575E+03  0.21723259161E+03 -0.67044441472E+03  0.73412141770E+03  0.00000000000E+00 0.  1.
          3    1    3    3  501    0 -0.20554451049E+03 -0.21723259444E+03 -0.22261344402E+03  0.37282072279E+03  0.00000000000E+00 0.  1.
         21    1    1    2  502  501  0.47433566765E-05  0.28242080354E-05  0.19418358691E-04  0.20187824000E-04  0.00000000000E+00 0. -1.
<mgrwt>
<rscale>  1 0.65404018E+03</rscale>
<asrwt>0</asrwt>
<pdfrwt beam="1">  1        1 0.38888140E+00 0.65404018E+03</pdfrwt>
<pdfrwt beam="2">0</pdfrwt>
<totfact> 0.14979668E+00</totfact>
</mgrwt>
</event>
