<event>
 6    1  0.5997306E-003  0.6510730E+03  0.7818608E-02  0.9804768E-01
          3   -1    0    0  502    0  0.00000000000E+00  0.00000000000E+00  0.10597401993E+03  0.10597401993E+03  0.00000000000E+00 0.  1.
         13   -1    0    0    0    0 -0.00000000000E+00 -0.00000000000E+00 -0.10000000000E+04  0.10000000000E+04  0.00000000000E+00 0.  1.
    9000005    2    1    2  501    0  0.24662011811E-06  0.72701561749E-06 -0.89402598035E+03  0.11059740191E+04  0.65107302003E+03 0.  0.
         13    1    3    3    0    0 -0.71640222740E+02  0.29143632894E+03 -0.23277158085E+03  0.37980266481E+03  0.00000000000E+00 0.  1.
          3    1    3    3  501    0  0.71640222986E+02 -0.29143632822E+03 -0.66125439950E+03  0.72617135430E+03  0.00000000000E+00 0.  1.
         21    1    1    2  502  501 -0.24662012600E-06 -0.72701562783E-06  0.28631616855E-06  0.81935960239E-06  0.00000000000E+00 0. -1.
<mgrwt>
<rscale>  1 0.65107302E+03</rscale>
<asrwt>0</asrwt>
<pdfrwt beam="1">  1        3 0.38536089E+00 0.65107302E+03</pdfrwt>
<pdfrwt beam="2">0</pdfrwt>
<totfact> 0.70706691E-02</totfact>
</mgrwt>
</event>
<event>
 6    1  0.5467084E-003  0.6510988E+03  0.7818608E-02  0.9804720E-01
          1   -1    0    0  502    0  0.00000000000E+00  0.00000000000E+00  0.10615379766E+03  0.10615379766E+03  0.00000000000E+00 0.  1.
         13   -1    0    0    0    0 -0.00000000000E+00 -0.00000000000E+00 -0.10000000000E+04  0.10000000000E+04  0.00000000000E+00 0.  1.
    9000005    2    1    2  501    0 -0.39257719598E-02 -0.60356813412E-02 -0.89401751502E+03  0.11059823337E+04  0.65109876771E+03 0.  0.
         13    1    3    3    0    0 -0.21731463349E+03  0.17545971130E+02 -0.85767962342E+03  0.88495640992E+03  0.00000000000E+00 0.  1.
          1    1    3    3  501    0  0.21731070772E+03 -0.17552006811E+02 -0.36337891600E+02  0.22102592381E+03  0.00000000000E+00 0.  1.
         21    1    1    2  502  501  0.39257719598E-02  0.60356813412E-02  0.17131268731E+00  0.17146392614E+00  0.00000000000E+00 0. -1.
<mgrwt>
<rscale>  1 0.65109877E+03</rscale>
<asrwt>0</asrwt>
<pdfrwt beam="1">  1        1 0.38601462E+00 0.65109877E+03</pdfrwt>
<pdfrwt beam="2">0</pdfrwt>
<totfact> 0.15432455E+00</totfact>
</mgrwt>
</event>
<event>
 6    1  0.5467084E-003  0.6386919E+03  0.7818608E-02  0.9828233E-01
          1   -1    0    0  502    0  0.00000000000E+00  0.00000000000E+00  0.10551186552E+03  0.10551186552E+03  0.00000000000E+00 0.  1.
         13   -1    0    0    0    0 -0.00000000000E+00 -0.00000000000E+00 -0.10000000000E+04  0.10000000000E+04  0.00000000000E+00 0.  1.
    9000005    2    1    2  501    0  0.13973601110E+01  0.22487301109E+01 -0.89746302653E+03  0.11015294812E+04  0.63868638979E+03 0.  0.
         13    1    3    3    0    0  0.16283067080E+03  0.25826547348E+03 -0.61924920216E+03  0.69042338932E+03  0.00000000000E+00 0.  1.
          3    1    3    3  501    0 -0.16143331069E+03 -0.25601674337E+03 -0.27821382437E+03  0.41110609185E+03  0.00000000000E+00 0.  1.
         21    1    1    2  502  501 -0.13973601110E+01 -0.22487301109E+01  0.29748920475E+01  0.39823843468E+01  0.00000000000E+00 0.  1.
<mgrwt>
<rscale>  1 0.63869188E+03</rscale>
<asrwt>0</asrwt>
<pdfrwt beam="1">  1        1 0.38368032E+00 0.63869188E+03</pdfrwt>
<pdfrwt beam="2">0</pdfrwt>
<totfact> 0.15840156E+00</totfact>
</mgrwt>
</event>
<event>
 6    1  0.5467084E-003  0.6427654E+03  0.7818608E-02  0.9820450E-01
          1   -1    0    0  502    0  0.00000000000E+00  0.00000000000E+00  0.10328684259E+03  0.10328684259E+03  0.00000000000E+00 0.  1.
         13   -1    0    0    0    0 -0.00000000000E+00 -0.00000000000E+00 -0.10000000000E+04  0.10000000000E+04  0.00000000000E+00 0.  1.
    9000005    2    1    2  501    0 -0.16579893725E-05 -0.20389527691E-04 -0.89671315135E+03  0.11032868213E+04  0.64276538033E+03 0.  0.
         13    1    3    3    0    0  0.23952367716E+03  0.20538481188E+03 -0.34349286959E+03  0.46641383377E+03  0.00000000000E+00 0.  1.
          1    1    3    3  501    0 -0.23952367881E+03 -0.20538483227E+03 -0.55322028176E+03  0.63687298749E+03  0.00000000000E+00 0.  1.
         21    1    1    2  502  501  0.16579893730E-05  0.20389527714E-04 -0.60593504377E-05  0.21335357904E-04  0.00000000000E+00 0. -1.
<mgrwt>
<rscale>  1 0.64276538E+03</rscale>
<asrwt>0</asrwt>
<pdfrwt beam="1">  1        1 0.37558931E+00 0.64276538E+03</pdfrwt>
<pdfrwt beam="2">0</pdfrwt>
<totfact> 0.17183775E+00</totfact>
</mgrwt>
</event>
<event>
 6    1  0.5467084E-003  0.6504421E+03  0.7818608E-02  0.9805950E-01
          1   -1    0    0  502    0  0.00000000000E+00  0.00000000000E+00  0.10576898928E+03  0.10576898928E+03  0.00000000000E+00 0.  1.
         13   -1    0    0    0    0 -0.00000000000E+00 -0.00000000000E+00 -0.10000000000E+04  0.10000000000E+04  0.00000000000E+00 0.  1.
    9000005    2    1    2  501    0 -0.12934602944E-04  0.13230690720E-03 -0.89423123524E+03  0.11057687284E+04  0.65044214079E+03 0.  0.
         13    1    3    3    0    0 -0.89831350031E+01 -0.17967423318E+03 -0.90771036611E+03  0.92536567665E+03  0.00000000000E+00 0.  1.
          1    1    3    3  501    0  0.89831220685E+01  0.17967436548E+03  0.13479130863E+02  0.18040305170E+03  0.00000000000E+00 0.  1.
         21    1    1    2  502  501  0.12934602945E-04 -0.13230690722E-03  0.22452253490E-03  0.26092679113E-03  0.00000000000E+00 0.  1.
<mgrwt>
<rscale>  1 0.65044214E+03</rscale>
<asrwt>0</asrwt>
<pdfrwt beam="1">  1        1 0.38461532E+00 0.65044214E+03</pdfrwt>
<pdfrwt beam="2">0</pdfrwt>
<totfact> 0.15655905E+00</totfact>
</mgrwt>
</event>
<event>
 6    1  0.5467084E-003  0.6417825E+03  0.7818608E-02  0.9822322E-01
          1   -1    0    0  502    0  0.00000000000E+00  0.00000000000E+00  0.10297120411E+03  0.10297120411E+03  0.00000000000E+00 0.  1.
         13   -1    0    0    0    0 -0.00000000000E+00 -0.00000000000E+00 -0.10000000000E+04  0.10000000000E+04  0.00000000000E+00 0.  1.
    9000005    2    1    2  501    0 -0.41799855239E-05  0.68869350898E-05 -0.89702880827E+03  0.11029711893E+04  0.64178248781E+03 0.  0.
         13    1    3    3    0    0  0.22352761192E+03  0.26127575146E+02 -0.55393124342E+02  0.23176635152E+03  0.00000000000E+00 0.  1.
          3    1    3    3  501    0 -0.22352761610E+03 -0.26127568259E+02 -0.84163568393E+03  0.87120483782E+03  0.00000000000E+00 0.  1.
         21    1    1    2  502  501  0.41799855085E-05 -0.68869350894E-05  0.12377217786E-04  0.14768130346E-04  0.00000000000E+00 0. -1.
<mgrwt>
<rscale>  1 0.64178249E+03</rscale>
<asrwt>0</asrwt>
<pdfrwt beam="1">  1        1 0.37444153E+00 0.64178249E+03</pdfrwt>
<pdfrwt beam="2">0</pdfrwt>
<totfact> 0.17387977E+00</totfact>
</mgrwt>
</event>
<event>
 6    1  0.5467084E-003  0.6737538E+03  0.7818608E-02  0.9763200E-01
          1   -1    0    0  502    0  0.00000000000E+00  0.00000000000E+00  0.11397838448E+03  0.11397838448E+03  0.00000000000E+00 0.  1.
         13   -1    0    0    0    0 -0.00000000000E+00 -0.00000000000E+00 -0.10000000000E+04  0.10000000000E+04  0.00000000000E+00 0.  1.
    9000005    2    1    2  501    0  0.27216845827E-01 -0.16220491132E-01 -0.88651339114E+03  0.11134855893E+04  0.67375378577E+03 0.  0.
         13    1    3    3    0    0  0.20423214142E+03 -0.16721650430E+03 -0.97309256926E+02  0.28132049051E+03  0.00000000000E+00 0.  1.
          3    1    3    3  501    0 -0.20420492458E+03  0.16720028381E+03 -0.78920413421E+03  0.83216509875E+03  0.00000000000E+00 0.  1.
         21    1    1    2  502  501 -0.27216845827E-01  0.16220491132E-01  0.49177561456E+00  0.49279520706E+00  0.00000000000E+00 0. -1.
<mgrwt>
<rscale>  1 0.67375379E+03</rscale>
<asrwt>0</asrwt>
<pdfrwt beam="1">  1        1 0.41446773E+00 0.67375379E+03</pdfrwt>
<pdfrwt beam="2">0</pdfrwt>
<totfact> 0.11473004E+00</totfact>
</mgrwt>
</event>
<event>
 6    1  0.5467084E-003  0.6396104E+03  0.7818608E-02  0.9826472E-01
          1   -1    0    0  502    0  0.00000000000E+00  0.00000000000E+00  0.12385697574E+03  0.12385697574E+03  0.00000000000E+00 0.  1.
         13   -1    0    0    0    0 -0.00000000000E+00 -0.00000000000E+00 -0.10000000000E+04  0.10000000000E+04  0.00000000000E+00 0.  1.
    9000005    2    1    2  501    0  0.94197749458E-01  0.61619062325E+00 -0.89771967646E+03  0.11022713211E+04  0.63961008383E+03 0.  0.
         13    1    3    3    0    0 -0.19831081029E+03 -0.83465939963E+02 -0.41209981239E+02  0.21907077205E+03  0.00000000000E+00 0.  1.
          1    1    3    3  501    0  0.19840500804E+03  0.84082130587E+02 -0.85650969522E+03  0.88320054909E+03  0.00000000000E+00 0.  1.
         21    1    1    2  502  501 -0.94197749458E-01 -0.61619062325E+00  0.21576652208E+02  0.21585654602E+02  0.00000000000E+00 0. -1.
<mgrwt>
<rscale>  1 0.63961039E+03</rscale>
<asrwt>0</asrwt>
<pdfrwt beam="1">  1        1 0.45038995E+00 0.63961039E+03</pdfrwt>
<pdfrwt beam="2">0</pdfrwt>
<totfact> 0.79292938E-01</totfact>
</mgrwt>
</event>
<event>
 6    1  0.5467084E-003  0.6593928E+03  0.7818608E-02  0.9789312E-01
          1   -1    0    0  502    0  0.00000000000E+00  0.00000000000E+00  0.11086518180E+03  0.11086518180E+03  0.00000000000E+00 0.  1.
         13   -1    0    0    0    0 -0.00000000000E+00 -0.00000000000E+00 -0.10000000000E+04  0.10000000000E+04  0.00000000000E+00 0.  1.
    9000005    2    1    2  501    0 -0.45857754403E-01 -0.20671224418E-01 -0.89129997108E+03  0.11086994447E+04  0.65939276436E+03 0.  0.
         13    1    3    3    0    0 -0.32445759594E+03 -0.10680404464E+02 -0.34868324395E+03  0.47641033491E+03  0.00000000000E+00 0.  1.
          1    1    3    3  501    0  0.32441173819E+03  0.10659733240E+02 -0.54261672713E+03  0.63228910978E+03  0.00000000000E+00 0.  1.
         21    1    1    2  502  501  0.45857754403E-01  0.20671224418E-01  0.21651528744E+01  0.21657371038E+01  0.00000000000E+00 0. -1.
<mgrwt>
<rscale>  1 0.65939277E+03</rscale>
<asrwt>0</asrwt>
<pdfrwt beam="1">  1        1 0.40314697E+00 0.65939277E+03</pdfrwt>
<pdfrwt beam="2">0</pdfrwt>
<totfact> 0.12930036E+00</totfact>
</mgrwt>
</event>
<event>
 6    1  0.5467084E-003  0.6974163E+03  0.7818608E-02  0.9721661E-01
          1   -1    0    0  502    0  0.00000000000E+00  0.00000000000E+00  0.12160159266E+03  0.12160159266E+03  0.00000000000E+00 0.  1.
         13   -1    0    0    0    0 -0.00000000000E+00 -0.00000000000E+00 -0.10000000000E+04  0.10000000000E+04  0.00000000000E+00 0.  1.
    9000005    2    1    2  501    0 -0.33637812930E-03  0.10823907272E-03 -0.87840260528E+03  0.11215973799E+04  0.69741633589E+03 0.  0.
         13    1    3    3    0    0 -0.29213853244E+03  0.14439757125E+03 -0.23961448743E+03  0.40448817450E+03  0.00000000000E+00 0.  1.
          3    1    3    3  501    0  0.29213819606E+03 -0.14439746301E+03 -0.63878811785E+03  0.71710920537E+03  0.00000000000E+00 0.  1.
         21    1    1    2  502  501  0.33637812931E-03 -0.10823907272E-03  0.41979456038E-02  0.42127916202E-02  0.00000000000E+00 0.  1.
<mgrwt>
<rscale>  1 0.69741634E+03</rscale>
<asrwt>0</asrwt>
<pdfrwt beam="1">  1        1 0.44218854E+00 0.69741634E+03</pdfrwt>
<pdfrwt beam="2">0</pdfrwt>
<totfact> 0.85474785E-01</totfact>
</mgrwt>
</event>
<event>
 6    1  0.5467084E-003  0.6418802E+03  0.7818608E-02  0.9822136E-01
          1   -1    0    0  502    0  0.00000000000E+00  0.00000000000E+00  0.10300315697E+03  0.10300315697E+03  0.00000000000E+00 0.  1.
         13   -1    0    0    0    0 -0.00000000000E+00 -0.00000000000E+00 -0.10000000000E+04  0.10000000000E+04  0.00000000000E+00 0.  1.
    9000005    2    1    2  501    0  0.54216798472E-03  0.33803978608E-03 -0.89699724399E+03  0.11030024027E+04  0.64188024160E+03 0.  0.
         13    1    3    3    0    0  0.23343938939E+03  0.23614142622E+02 -0.72209652034E+02  0.24549095726E+03  0.00000000000E+00 0.  1.
          1    1    3    3  501    0 -0.23343884722E+03 -0.23613804582E+02 -0.82478759195E+03  0.85751144540E+03  0.00000000000E+00 0.  1.
         21    1    1    2  502  501 -0.54216798473E-03 -0.33803978608E-03  0.40095287207E-03  0.75430777953E-03  0.00000000000E+00 0.  1.
<mgrwt>
<rscale>  1 0.64188024E+03</rscale>
<asrwt>0</asrwt>
<pdfrwt beam="1">  1        1 0.37455772E+00 0.64188024E+03</pdfrwt>
<pdfrwt beam="2">0</pdfrwt>
<totfact> 0.17367205E+00</totfact>
</mgrwt>
</event>
<event>
 6    1  0.5467084E-003  0.6399874E+03  0.7818608E-02  0.9825751E-01
          1   -1    0    0  502    0  0.00000000000E+00  0.00000000000E+00  0.10239599595E+03  0.10239599595E+03  0.00000000000E+00 0.  1.
         13   -1    0    0    0    0 -0.00000000000E+00 -0.00000000000E+00 -0.10000000000E+04  0.10000000000E+04  0.00000000000E+00 0.  1.
    9000005    2    1    2  501    0 -0.18980737508E-04  0.11058804716E-05 -0.89760404183E+03  0.11023959537E+04  0.63998736139E+03 0.  0.
         13    1    3    3    0    0  0.71134036777E+02  0.24427806928E+03 -0.78309724347E+03  0.82339123085E+03  0.00000000000E+00 0.  1.
          3    1    3    3  501    0 -0.71134055757E+02 -0.24427806817E+03 -0.11450679836E+03  0.27900472281E+03  0.00000000000E+00 0.  1.
         21    1    1    2  502  501  0.18980737505E-04 -0.11058804663E-05  0.37775986228E-04  0.42290856025E-04  0.00000000000E+00 0.  1.
<mgrwt>
<rscale>  1 0.63998736E+03</rscale>
<asrwt>0</asrwt>
<pdfrwt beam="1">  1        1 0.37234986E+00 0.63998736E+03</pdfrwt>
<pdfrwt beam="2">0</pdfrwt>
<totfact> 0.17766090E+00</totfact>
</mgrwt>
</event>
<event>
 6    1  0.5467084E-003  0.6480624E+03  0.7818608E-02  0.9810422E-01
          1   -1    0    0  502    0  0.00000000000E+00  0.00000000000E+00  0.10499622885E+03  0.10499622885E+03  0.00000000000E+00 0.  1.
         13   -1    0    0    0    0 -0.00000000000E+00 -0.00000000000E+00 -0.10000000000E+04  0.10000000000E+04  0.00000000000E+00 0.  1.
    9000005    2    1    2  501    0 -0.22159142816E-04 -0.13043894903E-04 -0.89500376913E+03  0.11049962031E+04  0.64806239052E+03 0.  0.
         13    1    3    3    0    0 -0.31182822122E+03 -0.57950898944E+02 -0.56061774675E+03  0.64411753912E+03  0.00000000000E+00 0.  1.
          1    1    3    3  501    0  0.31182819906E+03  0.57950885900E+02 -0.33438602239E+03  0.46087866393E+03  0.00000000000E+00 0.  1.
         21    1    1    2  502  501  0.22159142790E-04  0.13043894899E-04 -0.20206062444E-05  0.25792511567E-04  0.00000000000E+00 0. -1.
<mgrwt>
<rscale>  1 0.64806239E+03</rscale>
<asrwt>0</asrwt>
<pdfrwt beam="1">  1        1 0.38180527E+00 0.64806239E+03</pdfrwt>
<pdfrwt beam="2">0</pdfrwt>
<totfact> 0.16117104E+00</totfact>
</mgrwt>
</event>
<event>
 6    1  0.5467084E-003  0.6374282E+03  0.7818608E-02  0.9830659E-01
          1   -1    0    0  502    0  0.00000000000E+00  0.00000000000E+00  0.10552726721E+03  0.10552726721E+03  0.00000000000E+00 0.  1.
         13   -1    0    0    0    0 -0.00000000000E+00 -0.00000000000E+00 -0.10000000000E+04  0.10000000000E+04  0.00000000000E+00 0.  1.
    9000005    2    1    2  501    0  0.43320447708E-01  0.44796921543E-01 -0.89842104110E+03  0.11015784672E+04  0.63742822994E+03 0.  0.
         13    1    3    3    0    0 -0.23537653337E+03  0.11423968929E+03 -0.76370929666E+03  0.80728229813E+03  0.00000000000E+00 0.  1.
          1    1    3    3  501    0  0.23541985381E+03 -0.11419489237E+03 -0.13471174444E+03  0.29429616902E+03  0.00000000000E+00 0.  1.
         21    1    1    2  502  501 -0.43320447708E-01 -0.44796921543E-01  0.39483083105E+01  0.39488000633E+01  0.00000000000E+00 0. -1.
<mgrwt>
<rscale>  1 0.63742823E+03</rscale>
<asrwt>0</asrwt>
<pdfrwt beam="1">  1        1 0.38373633E+00 0.63742823E+03</pdfrwt>
<pdfrwt beam="2">0</pdfrwt>
<totfact> 0.15834880E+00</totfact>
</mgrwt>
</event>
<event>
 6    1  0.5467084E-003  0.6516154E+03  0.7818608E-02  0.9803753E-01
          1   -1    0    0  502    0  0.00000000000E+00  0.00000000000E+00  0.10615070154E+03  0.10615070154E+03  0.00000000000E+00 0.  1.
         13   -1    0    0    0    0 -0.00000000000E+00 -0.00000000000E+00 -0.10000000000E+04  0.10000000000E+04  0.00000000000E+00 0.  1.
    9000005    2    1    2  501    0  0.13378908046E-03 -0.14521035382E-04 -0.89384920543E+03  0.11061505379E+04  0.65161538544E+03 0.  0.
         13    1    3    3    0    0 -0.10766948543E+02  0.31722399205E+03 -0.57171087144E+03  0.65391154512E+03  0.00000000000E+00 0.  1.
          1    1    3    3  501    0  0.10767082332E+02 -0.31722400657E+03 -0.32213833399E+03  0.45223899283E+03  0.00000000000E+00 0.  1.
         21    1    1    2  502  501 -0.13378908046E-03  0.14521035396E-04 -0.93030010498E-04  0.16360000419E-03  0.00000000000E+00 0.  1.
<mgrwt>
<rscale>  1 0.65161539E+03</rscale>
<asrwt>0</asrwt>
<pdfrwt beam="1">  1        1 0.38600337E+00 0.65161539E+03</pdfrwt>
<pdfrwt beam="2">0</pdfrwt>
<totfact> 0.15432753E+00</totfact>
</mgrwt>
</event>
<event>
 6    1  0.5467084E-003  0.6057539E+03  0.7818608E-02  0.9893540E-01
          1   -1    0    0  502    0  0.00000000000E+00  0.00000000000E+00  0.91876040666E+02  0.91876040666E+02  0.00000000000E+00 0.  1.
         13   -1    0    0    0    0 -0.00000000000E+00 -0.00000000000E+00 -0.10000000000E+04  0.10000000000E+04  0.00000000000E+00 0.  1.
    9000005    2    1    2  501    0 -0.37650208050E-02 -0.29590501768E-03 -0.90826552708E+03  0.10917344226E+04  0.60575389531E+03 0.  0.
         13    1    3    3    0    0  0.24675314635E+03  0.13194542621E+03 -0.66304467074E+03  0.71967002586E+03  0.00000000000E+00 0.  1.
          3    1    3    3  501    0 -0.24675691138E+03 -0.13194572211E+03 -0.24522085634E+03  0.37206439669E+03  0.00000000000E+00 0.  1.
         21    1    1    2  502  501  0.37650208050E-02  0.29590501769E-03  0.14156774884E+00  0.14161811484E+00  0.00000000000E+00 0. -1.
<mgrwt>
<rscale>  1 0.60575390E+03</rscale>
<asrwt>0</asrwt>
<pdfrwt beam="1">  1        1 0.33409540E+00 0.60575390E+03</pdfrwt>
<pdfrwt beam="2">0</pdfrwt>
<totfact> 0.26253486E+00</totfact>
</mgrwt>
</event>
<event>
 6    1  0.5467084E-003  0.6622533E+03  0.7818608E-02  0.9784054E-01
          1   -1    0    0  502    0  0.00000000000E+00  0.00000000000E+00  0.10969712203E+03  0.10969712203E+03  0.00000000000E+00 0.  1.
         13   -1    0    0    0    0 -0.00000000000E+00 -0.00000000000E+00 -0.10000000000E+04  0.10000000000E+04  0.00000000000E+00 0.  1.
    9000005    2    1    2  501    0  0.14293789421E-02 -0.17245047491E-01 -0.89035353465E+03  0.11096435914E+04  0.66225333738E+03 0.  0.
         13    1    3    3    0    0  0.53983622728E+01  0.21223989038E+03 -0.19411839803E+02  0.21319412025E+03  0.00000000000E+00 0.  1.
          1    1    3    3  501    0 -0.53969328939E+01 -0.21225713543E+03 -0.87094169484E+03  0.89644947110E+03  0.00000000000E+00 0.  1.
         21    1    1    2  502  501 -0.14293789421E-02  0.17245047491E-01  0.50656681022E-01  0.53530683904E-01  0.00000000000E+00 0. -1.
<mgrwt>
<rscale>  1 0.66225334E+03</rscale>
<asrwt>0</asrwt>
<pdfrwt beam="1">  1        1 0.39889947E+00 0.66225334E+03</pdfrwt>
<pdfrwt beam="2">0</pdfrwt>
<totfact> 0.13499461E+00</totfact>
</mgrwt>
</event>
<event>
 6    1  0.5467084E-003  0.6567054E+03  0.7818608E-02  0.9794278E-01
          1   -1    0    0  502    0  0.00000000000E+00  0.00000000000E+00  0.10806339476E+03  0.10806339476E+03  0.00000000000E+00 0.  1.
         13   -1    0    0    0    0 -0.00000000000E+00 -0.00000000000E+00 -0.10000000000E+04  0.10000000000E+04  0.00000000000E+00 0.  1.
    9000005    2    1    2  501    0 -0.21069068137E+00 -0.24160494158E+00 -0.89206397656E+03  0.11077184499E+04  0.65670535491E+03 0.  0.
         13    1    3    3    0    0  0.11399473979E+02  0.26159982763E+03 -0.77979981686E+03  0.82258870172E+03  0.00000000000E+00 0.  1.
          3    1    3    3  501    0 -0.11610164661E+02 -0.26184143257E+03 -0.11226415971E+03  0.28512974817E+03  0.00000000000E+00 0.  1.
         21    1    1    2  502  501  0.21069068137E+00  0.24160494158E+00  0.12737132352E+00  0.34494487250E+00  0.00000000000E+00 0.  1.
<mgrwt>
<rscale>  1 0.65670543E+03</rscale>
<asrwt>0</asrwt>
<pdfrwt beam="1">  1        1 0.39295863E+00 0.65670543E+03</pdfrwt>
<pdfrwt beam="2">0</pdfrwt>
<totfact> 0.14361406E+00</totfact>
</mgrwt>
</event>
<event>
 6    1  0.5467084E-003  0.6472912E+03  0.7818608E-02  0.9811875E-01
          1   -1    0    0  502    0  0.00000000000E+00  0.00000000000E+00  0.10480708936E+03  0.10480708936E+03  0.00000000000E+00 0.  1.
         13   -1    0    0    0    0 -0.00000000000E+00 -0.00000000000E+00 -0.10000000000E+04  0.10000000000E+04  0.00000000000E+00 0.  1.
    9000005    2    1    2  501    0  0.33390712610E-02  0.74530335321E-03 -0.89525345661E+03  0.11047464468E+04  0.64729124832E+03 0.  0.
         13    1    3    3    0    0  0.70984567226E+01  0.71373392748E+02 -0.98626483971E+03  0.98886949762E+03  0.00000000000E+00 0.  1.
          3    1    3    3  501    0 -0.70951176513E+01 -0.71372647445E+02  0.91011383104E+02  0.11587694918E+03  0.00000000000E+00 0.  1.
         21    1    1    2  502  501 -0.33390712610E-02 -0.74530335321E-03  0.60545971661E-01  0.60642555672E-01  0.00000000000E+00 0. -1.
<mgrwt>
<rscale>  1 0.64729125E+03</rscale>
<asrwt>0</asrwt>
<pdfrwt beam="1">  1        1 0.38111749E+00 0.64729125E+03</pdfrwt>
<pdfrwt beam="2">0</pdfrwt>
<totfact> 0.16232502E+00</totfact>
</mgrwt>
</event>
<event>
 6    1  0.5467084E-003  0.6575555E+03  0.7818608E-02  0.9792704E-01
          1   -1    0    0  502    0  0.00000000000E+00  0.00000000000E+00  0.10813160688E+03  0.10813160688E+03  0.00000000000E+00 0.  1.
         13   -1    0    0    0    0 -0.00000000000E+00 -0.00000000000E+00 -0.10000000000E+04  0.10000000000E+04  0.00000000000E+00 0.  1.
    9000005    2    1    2  501    0 -0.26259383952E-01 -0.57977753136E-01 -0.89187174215E+03  0.11080678716E+04  0.65755547255E+03 0.  0.
         13    1    3    3    0    0 -0.32702072255E+03 -0.21510995420E+02 -0.49052009918E+03  0.58992816818E+03  0.00000000000E+00 0.  1.
          1    1    3    3  501    0  0.32699446317E+03  0.21453017667E+02 -0.40135164297E+03  0.51813970339E+03  0.00000000000E+00 0.  1.
         21    1    1    2  502  501  0.26259383952E-01  0.57977753136E-01  0.33490358553E-02  0.63735321019E-01  0.00000000000E+00 0. -1.
<mgrwt>
<rscale>  1 0.65755548E+03</rscale>
<asrwt>0</asrwt>
<pdfrwt beam="1">  1        1 0.39320667E+00 0.65755548E+03</pdfrwt>
<pdfrwt beam="2">0</pdfrwt>
<totfact> 0.14322751E+00</totfact>
</mgrwt>
</event>
<event>
 6    1  0.5467084E-003  0.6694952E+03  0.7818608E-02  0.9770870E-01
          1   -1    0    0  502    0  0.00000000000E+00  0.00000000000E+00  0.11222007102E+03  0.11222007102E+03  0.00000000000E+00 0.  1.
         13   -1    0    0    0    0 -0.00000000000E+00 -0.00000000000E+00 -0.10000000000E+04  0.10000000000E+04  0.00000000000E+00 0.  1.
    9000005    2    1    2  501    0 -0.14397951718E-01 -0.93514198401E-02 -0.88794355794E+03  0.11120555439E+04  0.66949516074E+03 0.  0.
         13    1    3    3    0    0 -0.22459881903E+03  0.20694134098E+03 -0.67165078255E+03  0.73782390976E+03  0.00000000000E+00 0.  1.
          3    1    3    3  501    0  0.22458442108E+03 -0.20695069240E+03 -0.21629277539E+03  0.37423163410E+03  0.00000000000E+00 0.  1.
         21    1    1    2  502  501  0.14397951718E-01  0.93514198401E-02  0.16362895409E+00  0.16452715485E+00  0.00000000000E+00 0. -1.
<mgrwt>
<rscale>  1 0.66949516E+03</rscale>
<asrwt>0</asrwt>
<pdfrwt beam="1">  1        1 0.40807385E+00 0.66949516E+03</pdfrwt>
<pdfrwt beam="2">0</pdfrwt>
<totfact> 0.12266800E+00</totfact>
</mgrwt>
</event>
<event>
 6    1  0.5467084E-003  0.6548808E+03  0.7818608E-02  0.9797664E-01
          1   -1    0    0  502    0  0.00000000000E+00  0.00000000000E+00  0.10734908421E+03  0.10734908421E+03  0.00000000000E+00 0.  1.
         13   -1    0    0    0    0 -0.00000000000E+00 -0.00000000000E+00 -0.10000000000E+04  0.10000000000E+04  0.00000000000E+00 0.  1.
    9000005    2    1    2  501    0  0.43436812689E-02  0.46902353038E-02 -0.89278269070E+03  0.11072171543E+04  0.65488082426E+03 0.  0.
         13    1    3    3    0    0 -0.30831725595E+03 -0.90659492513E+02 -0.34030574805E+03  0.46806695680E+03  0.00000000000E+00 0.  1.
          1    1    3    3  501    0  0.30832159963E+03  0.90664182748E+02 -0.55247694265E+03  0.63915019753E+03  0.00000000000E+00 0.  1.
         21    1    1    2  502  501 -0.43436812690E-02 -0.46902353038E-02  0.13177491159E+00  0.13192987985E+00  0.00000000000E+00 0.  1.
<mgrwt>
<rscale>  1 0.65488082E+03</rscale>
<asrwt>0</asrwt>
<pdfrwt beam="1">  1        1 0.39036113E+00 0.65488082E+03</pdfrwt>
<pdfrwt beam="2">0</pdfrwt>
<totfact> 0.14752770E+00</totfact>
</mgrwt>
</event>
<event>
 6    1  0.5467084E-003  0.6520605E+03  0.7818608E-02  0.9802920E-01
          1   -1    0    0  502    0  0.00000000000E+00  0.00000000000E+00  0.11791579522E+03  0.11791579522E+03  0.00000000000E+00 0.  1.
         13   -1    0    0    0    0 -0.00000000000E+00 -0.00000000000E+00 -0.10000000000E+04  0.10000000000E+04  0.00000000000E+00 0.  1.
    9000005    2    1    2  501    0  0.21433447273E+02 -0.10756020114E+02 -0.87790699221E+03  0.10935737794E+04  0.65161939761E+03 0.  0.
         13    1    3    3    0    0 -0.26145583669E+03 -0.45446935937E+02 -0.13472606617E+03  0.29761668540E+03  0.00000000000E+00 0.  1.
          1    1    3    3  501    0  0.28288928396E+03  0.34690915823E+02 -0.74318092604E+03  0.79595709398E+03  0.00000000000E+00 0.  1.
         21    1    1    2  502  501 -0.21433447273E+02  0.10756020114E+02 -0.41772125674E+01  0.24342015847E+02  0.00000000000E+00 0. -1.
<mgrwt>
<rscale>  1 0.65206052E+03</rscale>
<asrwt>0</asrwt>
<pdfrwt beam="1">  1        1 0.42878561E+00 0.65206052E+03</pdfrwt>
<pdfrwt beam="2">0</pdfrwt>
<totfact> 0.99275471E-01</totfact>
</mgrwt>
</event>
<event>
 6    1  0.5467084E-003  0.6681381E+03  0.7818608E-02  0.9773327E-01
          1   -1    0    0  502    0  0.00000000000E+00  0.00000000000E+00  0.11161247458E+03  0.11161247458E+03  0.00000000000E+00 0.  1.
         13   -1    0    0    0    0 -0.00000000000E+00 -0.00000000000E+00 -0.10000000000E+04  0.10000000000E+04  0.00000000000E+00 0.  1.
    9000005    2    1    2  501    0  0.11406866000E-03 -0.10624831631E-03 -0.88839786704E+03  0.11116021318E+04  0.66813810642E+03 0.  0.
         13    1    3    3    0    0  0.10357806741E+03  0.14837028067E+03 -0.91140818229E+03  0.92919698180E+03  0.00000000000E+00 0.  1.
          3    1    3    3  501    0 -0.10357795335E+03 -0.14837038692E+03  0.23010315258E+02  0.18240514999E+03  0.00000000000E+00 0.  1.
         21    1    1    2  502  501 -0.11406865999E-03  0.10624831631E-03  0.10341617224E-01  0.10342792040E-01  0.00000000000E+00 0. -1.
<mgrwt>
<rscale>  1 0.66813811E+03</rscale>
<asrwt>0</asrwt>
<pdfrwt beam="1">  1        1 0.40586440E+00 0.66813811E+03</pdfrwt>
<pdfrwt beam="2">0</pdfrwt>
<totfact> 0.12552646E+00</totfact>
</mgrwt>
</event>
<event>
 6    1  0.5467084E-003  0.6516327E+03  0.7818608E-02  0.9803720E-01
          1   -1    0    0  502    0  0.00000000000E+00  0.00000000000E+00  0.10615726382E+03  0.10615726382E+03  0.00000000000E+00 0.  1.
         13   -1    0    0    0    0 -0.00000000000E+00 -0.00000000000E+00 -0.10000000000E+04  0.10000000000E+04  0.00000000000E+00 0.  1.
    9000005    2    1    2  501    0  0.10087084269E-03  0.25269905734E-04 -0.89384370215E+03  0.11061562923E+04  0.65163270255E+03 0.  0.
         13    1    3    3    0    0 -0.26219985660E+03 -0.14760032548E+03 -0.23475520227E+03  0.38163415187E+03  0.00000000000E+00 0.  1.
          3    1    3    3  501    0  0.26219995747E+03  0.14760035075E+03 -0.65908849989E+03  0.72452214039E+03  0.00000000000E+00 0.  1.
         21    1    1    2  502  501 -0.10087084269E-03 -0.25269905736E-04  0.96597232047E-03  0.97155340510E-03  0.00000000000E+00 0.  1.
<mgrwt>
<rscale>  1 0.65163270E+03</rscale>
<asrwt>0</asrwt>
<pdfrwt beam="1">  1        1 0.38602723E+00 0.65163270E+03</pdfrwt>
<pdfrwt beam="2">0</pdfrwt>
<totfact> 0.15428951E+00</totfact>
</mgrwt>
</event>
<event>
 6    1  0.5467084E-003  0.6589759E+03  0.7818608E-02  0.9790081E-01
          1   -1    0    0  502    0  0.00000000000E+00  0.00000000000E+00  0.10856239279E+03  0.10856239279E+03  0.00000000000E+00 0.  1.
         13   -1    0    0    0    0 -0.00000000000E+00 -0.00000000000E+00 -0.10000000000E+04  0.10000000000E+04  0.00000000000E+00 0.  1.
    9000005    2    1    2  501    0  0.54147362825E-04  0.21598707843E-03 -0.89143753139E+03  0.11085621576E+04  0.65897586057E+03 0.  0.
         13    1    3    3    0    0  0.53656880091E+02 -0.39288630696E+02  0.97154649553E+02  0.11773564971E+03  0.00000000000E+00 0.  1.
          3    1    3    3  501    0 -0.53656825943E+02  0.39288846683E+02 -0.98859218094E+03  0.99082650785E+03  0.00000000000E+00 0.  1.
         21    1    1    2  502  501 -0.54147362821E-04 -0.21598707843E-03 -0.75818899103E-04  0.23522512708E-03  0.00000000000E+00 0.  1.
<mgrwt>
<rscale>  1 0.65897586E+03</rscale>
<asrwt>0</asrwt>
<pdfrwt beam="1">  1        1 0.39477317E+00 0.65897586E+03</pdfrwt>
<pdfrwt beam="2">0</pdfrwt>
<totfact> 0.14091253E+00</totfact>
</mgrwt>
</event>
<event>
 6    1  0.5467084E-003  0.5961100E+03  0.7818608E-02  0.9913510E-01
          1   -1    0    0  502    0  0.00000000000E+00  0.00000000000E+00  0.88837225129E+02  0.88837225129E+02  0.00000000000E+00 0.  1.
         13   -1    0    0    0    0 -0.00000000000E+00 -0.00000000000E+00 -0.10000000000E+04  0.10000000000E+04  0.00000000000E+00 0.  1.
    9000005    2    1    2  501    0 -0.45751678925E-05  0.58869387317E-04 -0.91116322303E+03  0.10888367731E+04  0.59610997261E+03 0.  0.
         13    1    3    3    0    0 -0.12381285932E+03 -0.26404585095E+03 -0.34317810610E+03  0.45035657877E+03  0.00000000000E+00 0.  1.
          3    1    3    3  501    0  0.12381285475E+03  0.26404590982E+03 -0.56798511693E+03  0.63848019432E+03  0.00000000000E+00 0.  1.
         21    1    1    2  502  501  0.45751678896E-05 -0.58869387332E-04  0.44815981159E-03  0.45203291213E-03  0.00000000000E+00 0. -1.
<mgrwt>
<rscale>  1 0.59610997E+03</rscale>
<asrwt>0</asrwt>
<pdfrwt beam="1">  1        1 0.32304514E+00 0.59610997E+03</pdfrwt>
<pdfrwt beam="2">0</pdfrwt>
<totfact> 0.29361380E+00</totfact>
</mgrwt>
</event>
<event>
 6    1  0.5467084E-003  0.6425959E+03  0.7818608E-02  0.9820773E-01
          1   -1    0    0  502    0  0.00000000000E+00  0.00000000000E+00  0.10469198219E+03  0.10469198219E+03  0.00000000000E+00 0.  1.
         13   -1    0    0    0    0 -0.00000000000E+00 -0.00000000000E+00 -0.10000000000E+04  0.10000000000E+04  0.00000000000E+00 0.  1.
    9000005    2    1    2  501    0 -0.98502667391E-02 -0.38380439937E-01 -0.89676734091E+03  0.11032321212E+04  0.64259586680E+03 0.  0.
         13    1    3    3    0    0 -0.20760711969E+03  0.23367798718E+03 -0.57591607796E+03  0.65527509238E+03  0.00000000000E+00 0.  1.
          1    1    3    3  501    0  0.20759726943E+03 -0.23371636762E+03 -0.32085126295E+03  0.44795702885E+03  0.00000000000E+00 0.  1.
         21    1    1    2  502  501  0.98502667391E-02  0.38380439937E-01  0.14593231055E+01  0.14598609565E+01  0.00000000000E+00 0. -1.
<mgrwt>
<rscale>  1 0.64259587E+03</rscale>
<asrwt>0</asrwt>
<pdfrwt beam="1">  1        1 0.38069892E+00 0.64259587E+03</pdfrwt>
<pdfrwt beam="2">0</pdfrwt>
<totfact> 0.16315830E+00</totfact>
</mgrwt>
</event>
<event>
 6    1  0.5467084E-003  0.6022786E+03  0.7818608E-02  0.9900690E-01
          3   -1    0    0  502    0  0.00000000000E+00  0.00000000000E+00  0.90704151672E+02  0.90704151672E+02  0.00000000000E+00 0.  1.
         13   -1    0    0    0    0 -0.00000000000E+00 -0.00000000000E+00 -0.10000000000E+04  0.10000000000E+04  0.00000000000E+00 0.  1.
    9000005    2    1    2  501    0  0.27168788329E-01  0.24722585337E-01 -0.90929410833E+03  0.10906673770E+04  0.60227863190E+03 0.  0.
         13    1    3    3    0    0  0.47490762708E+02 -0.26328336786E+03 -0.70494594161E+03  0.75400416771E+03  0.00000000000E+00 0.  1.
          1    1    3    3  501    0 -0.47463593920E+02  0.26330809045E+03 -0.20434816672E+03  0.33666320928E+03  0.00000000000E+00 0.  1.
         21    1    1    2  502  501 -0.27168788329E-01 -0.24722585337E-01 -0.17399981491E-02  0.36774677137E-01  0.00000000000E+00 0. -1.
<mgrwt>
<rscale>  1 0.60227863E+03</rscale>
<asrwt>0</asrwt>
<pdfrwt beam="1">  1        3 0.32983397E+00 0.60227863E+03</pdfrwt>
<pdfrwt beam="2">0</pdfrwt>
<totfact> 0.14058793E-01</totfact>
</mgrwt>
</event>
<event>
 6    1  0.5467084E-003  0.6504920E+03  0.7818608E-02  0.9805856E-01
          1   -1    0    0  502    0  0.00000000000E+00  0.00000000000E+00  0.10586770845E+03  0.10586770845E+03  0.00000000000E+00 0.  1.
         13   -1    0    0    0    0 -0.00000000000E+00 -0.00000000000E+00 -0.10000000000E+04  0.10000000000E+04  0.00000000000E+00 0.  1.
    9000005    2    1    2  501    0 -0.10111598080E+00 -0.46529789755E-01 -0.89417143165E+03  0.11057497194E+04  0.65049202950E+03 0.  0.
         13    1    3    3    0    0 -0.14221261165E+03 -0.13020926888E+03 -0.89243726419E+03  0.91302965512E+03  0.00000000000E+00 0.  1.
          3    1    3    3  501    0  0.14211149567E+03  0.13016273909E+03 -0.17341674615E+01  0.19272006431E+03  0.00000000000E+00 0.  1.
         21    1    1    2  502  501  0.10111598080E+00  0.46529789755E-01  0.39140102579E-01  0.11798902719E+00  0.00000000000E+00 0.  1.
<mgrwt>
<rscale>  1 0.65049204E+03</rscale>
<asrwt>0</asrwt>
<pdfrwt beam="1">  1        1 0.38497430E+00 0.65049204E+03</pdfrwt>
<pdfrwt beam="2">0</pdfrwt>
<totfact> 0.15598630E+00</totfact>
</mgrwt>
</event>
<event>
 6    1  0.5467084E-003  0.6357159E+03  0.7818608E-02  0.9833958E-01
          1   -1    0    0  502    0  0.00000000000E+00  0.00000000000E+00  0.10106615356E+03  0.10106615356E+03  0.00000000000E+00 0.  1.
         13   -1    0    0    0    0 -0.00000000000E+00 -0.00000000000E+00 -0.10000000000E+04  0.10000000000E+04  0.00000000000E+00 0.  1.
    9000005    2    1    2  501    0 -0.77941839672E-03  0.47505554742E-03 -0.89896630943E+03  0.11010336777E+04  0.63571592243E+03 0.  0.
         13    1    3    3    0    0  0.23067617231E+03  0.53846636625E+02 -0.82395119712E+02  0.25079854964E+03  0.00000000000E+00 0.  1.
          1    1    3    3  501    0 -0.23067695173E+03 -0.53846161569E+02 -0.81657118972E+03  0.85023512810E+03  0.00000000000E+00 0.  1.
         21    1    1    2  502  501  0.77941839671E-03 -0.47505554742E-03  0.32462985770E-01  0.32475815862E-01  0.00000000000E+00 0. -1.
<mgrwt>
<rscale>  1 0.63571592E+03</rscale>
<asrwt>0</asrwt>
<pdfrwt beam="1">  1        1 0.36751406E+00 0.63571592E+03</pdfrwt>
<pdfrwt beam="2">0</pdfrwt>
<totfact> 0.18670985E+00</totfact>
</mgrwt>
</event>
<event>
 6    1  0.5467084E-003  0.6525878E+03  0.7818608E-02  0.9801935E-01
          1   -1    0    0  502    0  0.00000000000E+00  0.00000000000E+00  0.10845593518E+03  0.10845593518E+03  0.00000000000E+00 0.  1.
         13   -1    0    0    0    0 -0.00000000000E+00 -0.00000000000E+00 -0.10000000000E+04  0.10000000000E+04  0.00000000000E+00 0.  1.
    9000005    2    1    2  501    0 -0.49998414815E+01  0.26321328991E+01 -0.88703223934E+03  0.11012252293E+04  0.65256331912E+03 0.  0.
         13    1    3    3    0    0 -0.20992247031E+03 -0.24883329604E+03 -0.49382694582E+03  0.59148161863E+03  0.00000000000E+00 0.  1.
          1    1    3    3  501    0  0.20492262883E+03  0.25146542894E+03 -0.39320529353E+03  0.50974361067E+03  0.00000000000E+00 0.  1.
         21    1    1    2  502  501  0.49998414815E+01 -0.26321328991E+01 -0.45118254784E+01  0.72307058843E+01  0.00000000000E+00 0. -1.
<mgrwt>
<rscale>  1 0.65258778E+03</rscale>
<asrwt>0</asrwt>
<pdfrwt beam="1">  1        1 0.39438605E+00 0.65258778E+03</pdfrwt>
<pdfrwt beam="2">0</pdfrwt>
<totfact> 0.14164096E+00</totfact>
</mgrwt>
</event>
<event>
 6    1  0.5467084E-003  0.6530297E+03  0.7818608E-02  0.9801111E-01
          1   -1    0    0  502    0  0.00000000000E+00  0.00000000000E+00  0.10661894675E+03  0.10661894675E+03  0.00000000000E+00 0.  1.
         13   -1    0    0    0    0 -0.00000000000E+00 -0.00000000000E+00 -0.10000000000E+04  0.10000000000E+04  0.00000000000E+00 0.  1.
    9000005    2    1    2  501    0 -0.87208399812E-03  0.24971993597E-03 -0.89338801749E+03  0.11066119237E+04  0.65302970823E+03 0.  0.
         13    1    3    3    0    0 -0.12593983499E+03 -0.17613657311E+03 -0.86083497985E+03  0.88764959131E+03  0.00000000000E+00 0.  1.
          3    1    3    3  501    0  0.12593896290E+03  0.17613682283E+03 -0.32553037643E+02  0.21896233237E+03  0.00000000000E+00 0.  1.
         21    1    1    2  502  501  0.87208399812E-03 -0.24971993597E-03  0.69642437535E-02  0.70230749394E-02  0.00000000000E+00 0.  1.
<mgrwt>
<rscale>  1 0.65302971E+03</rscale>
<asrwt>0</asrwt>
<pdfrwt beam="1">  1        1 0.38770608E+00 0.65302971E+03</pdfrwt>
<pdfrwt beam="2">0</pdfrwt>
<totfact> 0.15163208E+00</totfact>
</mgrwt>
</event>
<event>
 6    1  0.5467084E-003  0.6698149E+03  0.7818608E-02  0.9770292E-01
          1   -1    0    0  502    0  0.00000000000E+00  0.00000000000E+00  0.11721863943E+03  0.11721863943E+03  0.00000000000E+00 0.  1.
         13   -1    0    0    0    0 -0.00000000000E+00 -0.00000000000E+00 -0.10000000000E+04  0.10000000000E+04  0.00000000000E+00 0.  1.
    9000005    2    1    2  501    0  0.25956724729E+01  0.37668968910E+00 -0.88745573942E+03  0.11118586741E+04  0.66980978071E+03 0.  0.
         13    1    3    3    0    0 -0.24925943387E+03  0.20979086532E+03 -0.32005499263E+03  0.45670304450E+03  0.00000000000E+00 0.  1.
          3    1    3    3  501    0  0.25185510634E+03 -0.20941417563E+03 -0.56740074679E+03  0.65515562960E+03  0.00000000000E+00 0.  1.
         21    1    1    2  502  501 -0.25956724729E+01 -0.37668968910E+00  0.46743788521E+01  0.53599653322E+01  0.00000000000E+00 0.  1.
<mgrwt>
<rscale>  1 0.66981492E+03</rscale>
<asrwt>0</asrwt>
<pdfrwt beam="1">  1        1 0.42625050E+00 0.66981492E+03</pdfrwt>
<pdfrwt beam="2">0</pdfrwt>
<totfact> 0.10158088E+00</totfact>
</mgrwt>
</event>
<event>
 6    1  0.5467084E-003  0.6438120E+03  0.7818608E-02  0.9818460E-01
          1   -1    0    0  502    0  0.00000000000E+00  0.00000000000E+00  0.10493134550E+03  0.10493134550E+03  0.00000000000E+00 0.  1.
         13   -1    0    0    0    0 -0.00000000000E+00 -0.00000000000E+00 -0.10000000000E+04  0.10000000000E+04  0.00000000000E+00 0.  1.
    9000005    2    1    2  501    0  0.35420708536E-01  0.11562612175E+00 -0.89637345201E+03  0.11036209560E+04  0.64381195583E+03 0.  0.
         13    1    3    3    0    0  0.32332914838E+01  0.60196038832E+02  0.93865428608E+02  0.11155597677E+03  0.00000000000E+00 0.  1.
          1    1    3    3  501    0 -0.31978707753E+01 -0.60080412711E+02 -0.99023888062E+03  0.99206497926E+03  0.00000000000E+00 0.  1.
         21    1    1    2  502  501 -0.35420708536E-01 -0.11562612175E+00  0.13047975165E+01  0.13103894787E+01  0.00000000000E+00 0. -1.
<mgrwt>
<rscale>  1 0.64381197E+03</rscale>
<asrwt>0</asrwt>
<pdfrwt beam="1">  1        1 0.38156933E+00 0.64381197E+03</pdfrwt>
<pdfrwt beam="2">0</pdfrwt>
<totfact> 0.16168489E+00</totfact>
</mgrwt>
</event>
<event>
 6    1  0.5467084E-003  0.6547830E+03  0.7818608E-02  0.9797845E-01
          1   -1    0    0  502    0  0.00000000000E+00  0.00000000000E+00  0.11106749659E+03  0.11106749659E+03  0.00000000000E+00 0.  1.
         13   -1    0    0    0    0 -0.00000000000E+00 -0.00000000000E+00 -0.10000000000E+04  0.10000000000E+04  0.00000000000E+00 0.  1.
    9000005    2    1    2  501    0 -0.46107686104E+01 -0.47549375184E+01 -0.88939346801E+03  0.11044281362E+04  0.65474949293E+03 0.  0.
         13    1    3    3    0    0 -0.77966685621E+02  0.98869633364E+01  0.91538807575E+02  0.12064787359E+03  0.00000000000E+00 0.  1.
          3    1    3    3  501    0  0.73355917010E+02 -0.14641900855E+02 -0.98093227558E+03  0.98378026261E+03  0.00000000000E+00 0.  1.
         21    1    1    2  502  501  0.46107686104E+01  0.47549375184E+01  0.46096460265E+00  0.66393603869E+01  0.00000000000E+00 0. -1.
<mgrwt>
<rscale>  1 0.65478299E+03</rscale>
<asrwt>0</asrwt>
<pdfrwt beam="1">  1        1 0.40388266E+00 0.65478299E+03</pdfrwt>
<pdfrwt beam="2">0</pdfrwt>
<totfact> 0.12843794E+00</totfact>
</mgrwt>
</event>
<event>
 6    1  0.5467084E-003  0.6486984E+03  0.7818608E-02  0.9809225E-01
          1   -1    0    0  502    0  0.00000000000E+00  0.00000000000E+00  0.10520279750E+03  0.10520279750E+03  0.00000000000E+00 0.  1.
         13   -1    0    0    0    0 -0.00000000000E+00 -0.00000000000E+00 -0.10000000000E+04  0.10000000000E+04  0.00000000000E+00 0.  1.
    9000005    2    1    2  501    0 -0.57076702606E-03  0.24644403678E-03 -0.89479730598E+03  0.11052021672E+04  0.64869839809E+03 0.  0.
         13    1    3    3    0    0 -0.24469133698E+03  0.20797860334E+03 -0.36981616030E+03  0.48978867102E+03  0.00000000000E+00 0.  1.
          1    1    3    3  501    0  0.24469076621E+03 -0.20797835690E+03 -0.52498114569E+03  0.61541349622E+03  0.00000000000E+00 0.  1.
         21    1    1    2  502  501  0.57076702606E-03 -0.24644403678E-03  0.10348155453E-03  0.63025240454E-03  0.00000000000E+00 0.  1.
<mgrwt>
<rscale>  1 0.64869840E+03</rscale>
<asrwt>0</asrwt>
<pdfrwt beam="1">  1        1 0.38255643E+00 0.64869840E+03</pdfrwt>
<pdfrwt beam="2">0</pdfrwt>
<totfact> 0.15992570E+00</totfact>
</mgrwt>
</event>
<event>
 6    1  0.5467084E-003  0.6549643E+03  0.7818608E-02  0.9797508E-01
          1   -1    0    0  502    0  0.00000000000E+00  0.00000000000E+00  0.10725111949E+03  0.10725111949E+03  0.00000000000E+00 0.  1.
         13   -1    0    0    0    0 -0.00000000000E+00 -0.00000000000E+00 -0.10000000000E+04  0.10000000000E+04  0.00000000000E+00 0.  1.
    9000005    2    1    2  501    0 -0.68197410513E-04  0.19278876738E-03 -0.89275542572E+03  0.11072445711E+04  0.65496434259E+03 0.  0.
         13    1    3    3    0    0 -0.12934361396E+03  0.14181180571E+03  0.21871672221E+01  0.19195088541E+03  0.00000000000E+00 0.  1.
          1    1    3    3  501    0  0.12934354576E+03 -0.14181161292E+03 -0.89494259294E+03  0.91529368568E+03  0.00000000000E+00 0.  1.
         21    1    1    2  502  501  0.68197410504E-04 -0.19278876739E-03  0.65452021186E-02  0.65483959234E-02  0.00000000000E+00 0. -1.
<mgrwt>
<rscale>  1 0.65496434E+03</rscale>
<asrwt>0</asrwt>
<pdfrwt beam="1">  1        1 0.39000489E+00 0.65496434E+03</pdfrwt>
<pdfrwt beam="2">0</pdfrwt>
<totfact> 0.14806310E+00</totfact>
</mgrwt>
</event>
<event>
 6    1  0.5467084E-003  0.6471977E+03  0.7818608E-02  0.9812052E-01
          1   -1    0    0  502    0  0.00000000000E+00  0.00000000000E+00  0.10471640903E+03  0.10471640903E+03  0.00000000000E+00 0.  1.
         13   -1    0    0    0    0 -0.00000000000E+00 -0.00000000000E+00 -0.10000000000E+04  0.10000000000E+04  0.00000000000E+00 0.  1.
    9000005    2    1    2  501    0 -0.25912092855E-03 -0.18697252187E-03 -0.89528361995E+03  0.11047160882E+04  0.64719770962E+03 0.  0.
         13    1    3    3    0    0 -0.25744544922E+03  0.87700429742E+01 -0.78196002678E+03  0.82329615355E+03  0.00000000000E+00 0.  1.
          1    1    3    3  501    0  0.25744519010E+03 -0.87702299467E+01 -0.11332359318E+03  0.28141993463E+03  0.00000000000E+00 0.  1.
         21    1    1    2  502  501  0.25912092852E-03  0.18697252186E-03  0.28985898242E-04  0.32084663287E-03  0.00000000000E+00 0.  1.
<mgrwt>
<rscale>  1 0.64719771E+03</rscale>
<asrwt>0</asrwt>
<pdfrwt beam="1">  1        1 0.38078774E+00 0.64719771E+03</pdfrwt>
<pdfrwt beam="2">0</pdfrwt>
<totfact> 0.16287279E+00</totfact>
</mgrwt>
</event>
<event>
 6    1  0.5467084E-003  0.6568186E+03  0.7818608E-02  0.9794068E-01
          1   -1    0    0  502    0  0.00000000000E+00  0.00000000000E+00  0.15392921834E+03  0.15392921834E+03  0.00000000000E+00 0.  1.
         13   -1    0    0    0    0 -0.00000000000E+00 -0.00000000000E+00 -0.10000000000E+04  0.10000000000E+04  0.00000000000E+00 0.  1.
    9000005    2    1    2  501    0 -0.14784433708E+01  0.10380866948E+01 -0.89212771164E+03  0.11078368739E+04  0.65681612482E+03 0.  0.
         13    1    3    3    0    0 -0.21388403694E+03 -0.24342100107E+03 -0.53724719032E+03  0.62740314673E+03  0.00000000000E+00 0.  1.
          3    1    3    3  501    0  0.21240559356E+03  0.24445908777E+03 -0.35488052132E+03  0.48043372715E+03  0.00000000000E+00 0.  1.
         21    1    1    2  502  501  0.14784433708E+01 -0.10380866948E+01  0.46056929985E+02  0.46092344466E+02  0.00000000000E+00 0.  1.
<mgrwt>
<rscale>  1 0.65681861E+03</rscale>
<asrwt>0</asrwt>
<pdfrwt beam="1">  1        1 0.55974379E+00 0.65681861E+03</pdfrwt>
<pdfrwt beam="2">0</pdfrwt>
<totfact> 0.23304432E-01</totfact>
</mgrwt>
</event>
<event>
 6    1  0.5467084E-003  0.6414523E+03  0.7818608E-02  0.9822952E-01
          1   -1    0    0  502    0  0.00000000000E+00  0.00000000000E+00  0.10286550897E+03  0.10286550897E+03  0.00000000000E+00 0.  1.
         13   -1    0    0    0    0 -0.00000000000E+00 -0.00000000000E+00 -0.10000000000E+04  0.10000000000E+04  0.00000000000E+00 0.  1.
    9000005    2    1    2  501    0 -0.58437312325E-03  0.28592506834E-03 -0.89713415149E+03  0.11028647751E+04  0.64145227914E+03 0.  0.
         13    1    3    3    0    0 -0.16788984142E+03  0.25657996472E+03 -0.61026764225E+03  0.68296915913E+03  0.00000000000E+00 0.  1.
          3    1    3    3  501    0  0.16788925704E+03 -0.25657967879E+03 -0.28686650925E+03  0.41989561599E+03  0.00000000000E+00 0.  1.
         21    1    1    2  502  501  0.58437312326E-03 -0.28592506837E-03 -0.33954276174E-03  0.73384901646E-03  0.00000000000E+00 0. -1.
<mgrwt>
<rscale>  1 0.64145228E+03</rscale>
<asrwt>0</asrwt>
<pdfrwt beam="1">  1        1 0.37405719E+00 0.64145228E+03</pdfrwt>
<pdfrwt beam="2">0</pdfrwt>
<totfact> 0.17456875E+00</totfact>
</mgrwt>
</event>
<event>
 6    1  0.5467084E-003  0.6551737E+03  0.7818608E-02  0.9797119E-01
          1   -1    0    0  502    0  0.00000000000E+00  0.00000000000E+00  0.11440336187E+03  0.11440336187E+03  0.00000000000E+00 0.  1.
         13   -1    0    0    0    0 -0.00000000000E+00 -0.00000000000E+00 -0.10000000000E+04  0.10000000000E+04  0.00000000000E+00 0.  1.
    9000005    2    1    2  501    0 -0.43062701821E-01 -0.91401904714E-01 -0.89268646546E+03  0.11073128146E+04  0.65517366675E+03 0.  0.
         13    1    3    3    0    0  0.76244364494E+02 -0.70918625680E+02  0.78600558977E+02  0.13046341425E+03  0.00000000000E+00 0.  1.
          1    1    3    3  501    0 -0.76287427196E+02  0.70827223775E+02 -0.97128702444E+03  0.97684940038E+03  0.00000000000E+00 0.  1.
         21    1    1    2  502  501  0.43062701821E-01  0.91401904714E-01  0.70898273329E+01  0.70905472507E+01  0.00000000000E+00 0. -1.
<mgrwt>
<rscale>  1 0.65517367E+03</rscale>
<asrwt>0</asrwt>
<pdfrwt beam="1">  1        1 0.41601310E+00 0.65517367E+03</pdfrwt>
<pdfrwt beam="2">0</pdfrwt>
<totfact> 0.11331189E+00</totfact>
</mgrwt>
</event>
<event>
 6    1  0.5467084E-003  0.6515114E+03  0.7818608E-02  0.9803947E-01
          1   -1    0    0  502    0  0.00000000000E+00  0.00000000000E+00  0.11266800973E+03  0.11266800973E+03  0.00000000000E+00 0.  1.
         13   -1    0    0    0    0 -0.00000000000E+00 -0.00000000000E+00 -0.10000000000E+04  0.10000000000E+04  0.00000000000E+00 0.  1.
    9000005    2    1    2  501    0  0.28531445075E-01 -0.10920795061E+00 -0.89388268638E+03  0.11061163412E+04  0.65151138947E+03 0.  0.
         13    1    3    3    0    0 -0.18044738873E+03  0.12680768274E+03 -0.85385756418E+03  0.88188105117E+03  0.00000000000E+00 0.  1.
          3    1    3    3  501    0  0.18047592018E+03 -0.12691689070E+03 -0.40025122205E+02  0.22423529008E+03  0.00000000000E+00 0.  1.
         21    1    1    2  502  501 -0.28531445075E-01  0.10920795061E+00  0.65506961087E+01  0.65516684843E+01  0.00000000000E+00 0.  1.
<mgrwt>
<rscale>  1 0.65151140E+03</rscale>
<asrwt>0</asrwt>
<pdfrwt beam="1">  1        1 0.40970272E+00 0.65151140E+03</pdfrwt>
<pdfrwt beam="2">0</pdfrwt>
<totfact> 0.12103831E+00</totfact>
</mgrwt>
</event>
<event>
 6    1  0.5467084E-003  0.6450099E+03  0.7818608E-02  0.9816188E-01
          1   -1    0    0  502    0  0.00000000000E+00  0.00000000000E+00  0.10421109119E+03  0.10421109119E+03  0.00000000000E+00 0.  1.
         13   -1    0    0    0    0 -0.00000000000E+00 -0.00000000000E+00 -0.10000000000E+04  0.10000000000E+04  0.00000000000E+00 0.  1.
    9000005    2    1    2  501    0  0.13056784274E-01  0.16324115967E-01 -0.89598996209E+03  0.11040089542E+04  0.64500989005E+03 0.  0.
         13    1    3    3    0    0  0.79178079093E+02  0.14727090220E+03  0.24028135930E+02  0.16892376435E+03  0.00000000000E+00 0.  1.
          3    1    3    3  501    0 -0.79165022309E+02 -0.14725457809E+03 -0.92001809802E+03  0.93508518982E+03  0.00000000000E+00 0.  1.
         21    1    1    2  502  501 -0.13056784274E-01 -0.16324115967E-01  0.20105327906E+00  0.20213702629E+00  0.00000000000E+00 0. -1.
<mgrwt>
<rscale>  1 0.64500989E+03</rscale>
<asrwt>0</asrwt>
<pdfrwt beam="1">  1        1 0.37895022E+00 0.64500989E+03</pdfrwt>
<pdfrwt beam="2">0</pdfrwt>
<totfact> 0.16600846E+00</totfact>
</mgrwt>
</event>
<event>
 6    1  0.5467084E-003  0.5719990E+03  0.7818608E-02  0.9965265E-01
          1   -1    0    0  502    0  0.00000000000E+00  0.00000000000E+00  0.81798535942E+02  0.81798535942E+02  0.00000000000E+00 0.  1.
         13   -1    0    0    0    0 -0.00000000000E+00 -0.00000000000E+00 -0.10000000000E+04  0.10000000000E+04  0.00000000000E+00 0.  1.
    9000005    2    1    2  501    0  0.44802313494E-03  0.94356833586E-04 -0.91820428020E+03  0.10817956828E+04  0.57199895035E+03 0.  0.
         13    1    3    3    0    0  0.28513048214E+02 -0.13908583127E+03  0.10439062864E+02  0.14236163954E+03  0.00000000000E+00 0.  1.
          1    1    3    3  501    0 -0.28512600191E+02  0.13908592563E+03 -0.92864334306E+03  0.93943404329E+03  0.00000000000E+00 0.  1.
         21    1    1    2  502  501 -0.44802313494E-03 -0.94356833593E-04  0.28161397010E-02  0.28531159733E-02  0.00000000000E+00 0.  1.
<mgrwt>
<rscale>  1 0.57199895E+03</rscale>
<asrwt>0</asrwt>
<pdfrwt beam="1">  1        1 0.29744985E+00 0.57199895E+03</pdfrwt>
<pdfrwt beam="2">0</pdfrwt>
<totfact> 0.38032975E+00</totfact>
</mgrwt>
</event>
<event>
 6    1  0.5467084E-003  0.6541620E+03  0.7818608E-02  0.9799001E-01
          1   -1    0    0  502    0  0.00000000000E+00  0.00000000000E+00  0.10759669663E+03  0.10759669663E+03  0.00000000000E+00 0.  1.
         13   -1    0    0    0    0 -0.00000000000E+00 -0.00000000000E+00 -0.10000000000E+04  0.10000000000E+04  0.00000000000E+00 0.  1.
    9000005    2    1    2  501    0 -0.17253186762E+01  0.27203656874E+00 -0.89100837148E+03  0.11053613972E+04  0.65415965156E+03 0.  0.
         13    1    3    3    0    0 -0.11290073244E+03  0.29791611277E+03 -0.31787929224E+03  0.45005314138E+03  0.00000000000E+00 0.  1.
          1    1    3    3  501    0  0.11117541376E+03 -0.29764407620E+03 -0.57312907924E+03  0.65530825585E+03  0.00000000000E+00 0.  1.
         21    1    1    2  502  501  0.17253186762E+01 -0.27203656874E+00 -0.13949318852E+01  0.22352993969E+01  0.00000000000E+00 0. -1.
<mgrwt>
<rscale>  1 0.65416198E+03</rscale>
<asrwt>0</asrwt>
<pdfrwt beam="1">  1        1 0.39126154E+00 0.65416198E+03</pdfrwt>
<pdfrwt beam="2">0</pdfrwt>
<totfact> 0.14619646E+00</totfact>
</mgrwt>
</event>
<event>
 6    1  0.5467084E-003  0.6526511E+03  0.7818608E-02  0.9801817E-01
          1   -1    0    0  502    0  0.00000000000E+00  0.00000000000E+00  0.10650589228E+03  0.10650589228E+03  0.00000000000E+00 0.  1.
         13   -1    0    0    0    0 -0.00000000000E+00 -0.00000000000E+00 -0.10000000000E+04  0.10000000000E+04  0.00000000000E+00 0.  1.
    9000005    2    1    2  501    0 -0.26118102336E-03 -0.71583482915E-03 -0.89351162343E+03  0.11064883600E+04  0.65265110864E+03 0.  0.
         13    1    3    3    0    0 -0.83443074747E+02 -0.19571217843E+03 -0.86624593743E+03  0.89199104683E+03  0.00000000000E+00 0.  1.
          1    1    3    3  501    0  0.83442813566E+02  0.19571146259E+03 -0.27265686005E+02  0.21449731317E+03  0.00000000000E+00 0.  1.
         21    1    1    2  502  501  0.26118102336E-03  0.71583482913E-03  0.17515718149E-01  0.17532284999E-01  0.00000000000E+00 0.  1.
<mgrwt>
<rscale>  1 0.65265111E+03</rscale>
<asrwt>0</asrwt>
<pdfrwt beam="1">  1        1 0.38729497E+00 0.65265111E+03</pdfrwt>
<pdfrwt beam="2">0</pdfrwt>
<totfact> 0.15227980E+00</totfact>
</mgrwt>
</event>
<event>
 6    1  0.5467084E-003  0.6343500E+03  0.7818608E-02  0.9836597E-01
          1   -1    0    0  502    0  0.00000000000E+00  0.00000000000E+00  0.10059999602E+03  0.10059999602E+03  0.00000000000E+00 0.  1.
         13   -1    0    0    0    0 -0.00000000000E+00 -0.00000000000E+00 -0.10000000000E+04  0.10000000000E+04  0.00000000000E+00 0.  1.
    9000005    2    1    2  501    0 -0.27027077749E-05 -0.26252690937E-04 -0.89940001457E+03  0.11005999676E+04  0.63434998418E+03 0.  0.
         13    1    3    3    0    0 -0.30717114415E+03  0.63021334848E+02 -0.36696059166E+03  0.48268610533E+03  0.00000000000E+00 0.  1.
          3    1    3    3  501    0  0.30717114145E+03 -0.63021361100E+02 -0.53243942292E+03  0.61791386226E+03  0.00000000000E+00 0.  1.
         21    1    1    2  502  501  0.27027077646E-05  0.26252690936E-04  0.10594104121E-04  0.28438415089E-04  0.00000000000E+00 0.  1.
<mgrwt>
<rscale>  1 0.63434998E+03</rscale>
<asrwt>0</asrwt>
<pdfrwt beam="1">  1        1 0.36581894E+00 0.63434998E+03</pdfrwt>
<pdfrwt beam="2">0</pdfrwt>
<totfact> 0.18998043E+00</totfact>
</mgrwt>
</event>
<event>
 6    1  0.8120578E-003  0.6817593E+03  0.7818608E-02  0.9748945E-01
          3   -1    0    0  502    0  0.00000000000E+00  0.00000000000E+00  0.11619902826E+03  0.11619902826E+03  0.00000000000E+00 0.  1.
         13   -1    0    0    0    0 -0.00000000000E+00 -0.00000000000E+00 -0.10000000000E+04  0.10000000000E+04  0.00000000000E+00 0.  1.
    9000005    2    1    2  501    0 -0.19548673060E-03  0.22724230163E-04 -0.88380090365E+03  0.11161988200E+04  0.68175931860E+03 0.  0.
         13    1    3    3    0    0 -0.32438020793E+03  0.10383661688E+03 -0.41907038644E+03  0.54002273201E+03  0.00000000000E+00 0.  1.
          1    1    3    3  501    0  0.32438001244E+03 -0.10383659415E+03 -0.46473051721E+03  0.57617608800E+03  0.00000000000E+00 0.  1.
         21    1    1    2  502  501  0.19548673061E-03 -0.22724230171E-04 -0.68096027038E-04  0.20825110175E-03  0.00000000000E+00 0. -1.
<mgrwt>
<rscale>  1 0.68175932E+03</rscale>
<asrwt>0</asrwt>
<pdfrwt beam="1">  1        3 0.42254281E+00 0.68175932E+03</pdfrwt>
<pdfrwt beam="2">0</pdfrwt>
<totfact> 0.44956734E-02</totfact>
</mgrwt>
</event>
<event>
 6    1  0.5467084E-003  0.6498027E+03  0.7818608E-02  0.9807149E-01
          1   -1    0    0  502    0  0.00000000000E+00  0.00000000000E+00  0.10556211607E+03  0.10556211607E+03  0.00000000000E+00 0.  1.
         13   -1    0    0    0    0 -0.00000000000E+00 -0.00000000000E+00 -0.10000000000E+04  0.10000000000E+04  0.00000000000E+00 0.  1.
    9000005    2    1    2  501    0 -0.23773402813E-03  0.40904952911E-03 -0.89443904628E+03  0.11055608611E+04  0.64980274709E+03 0.  0.
         13    1    3    3    0    0 -0.26727710491E+03  0.32487058220E+02 -0.13782810686E+03  0.30247156362E+03  0.00000000000E+00 0.  1.
          1    1    3    3  501    0  0.26727686717E+03 -0.32486649170E+02 -0.75661093942E+03  0.80308929750E+03  0.00000000000E+00 0.  1.
         21    1    1    2  502  501  0.23773402812E-03 -0.40904952911E-03  0.11623509970E-02  0.12549497304E-02  0.00000000000E+00 0.  1.
<mgrwt>
<rscale>  1 0.64980275E+03</rscale>
<asrwt>0</asrwt>
<pdfrwt beam="1">  1        1 0.38386305E+00 0.64980275E+03</pdfrwt>
<pdfrwt beam="2">0</pdfrwt>
<totfact> 0.15778132E+00</totfact>
</mgrwt>
</event>
<event>
 6    1  0.5467084E-003  0.5818403E+03  0.7818608E-02  0.9943815E-01
          1   -1    0    0  502    0  0.00000000000E+00  0.00000000000E+00  0.84634942459E+02  0.84634942459E+02  0.00000000000E+00 0.  1.
         13   -1    0    0    0    0 -0.00000000000E+00 -0.00000000000E+00 -0.10000000000E+04  0.10000000000E+04  0.00000000000E+00 0.  1.
    9000005    2    1    2  501    0 -0.14669441157E-04  0.85395358735E-04 -0.91536545482E+03  0.10846345358E+04  0.58184032213E+03 0.  0.
         13    1    3    3    0    0  0.12316173170E+03  0.17698286356E+02 -0.94789428962E+03  0.95602595456E+03  0.00000000000E+00 0.  1.
          3    1    3    3  501    0 -0.12316174637E+03 -0.17698200960E+02  0.32528834801E+02  0.12860858128E+03  0.00000000000E+00 0.  1.
         21    1    1    2  502  501  0.14669441154E-04 -0.85395358732E-04  0.39728111841E-03  0.40662002760E-03  0.00000000000E+00 0.  1.
<mgrwt>
<rscale>  1 0.58184032E+03</rscale>
<asrwt>0</asrwt>
<pdfrwt beam="1">  1        1 0.30776408E+00 0.58184032E+03</pdfrwt>
<pdfrwt beam="2">0</pdfrwt>
<totfact> 0.34269301E+00</totfact>
</mgrwt>
</event>
<event>
 6    1  0.5467084E-003  0.6476171E+03  0.7818608E-02  0.9811261E-01
          1   -1    0    0  502    0  0.00000000000E+00  0.00000000000E+00  0.10536702643E+03  0.10536702643E+03  0.00000000000E+00 0.  1.
         13   -1    0    0    0    0 -0.00000000000E+00 -0.00000000000E+00 -0.10000000000E+04  0.10000000000E+04  0.00000000000E+00 0.  1.
    9000005    2    1    2  501    0 -0.37141390708E+00 -0.77406853032E+00 -0.89471872729E+03  0.11045041915E+04  0.64761653083E+03 0.  0.
         13    1    3    3    0    0  0.11301900164E+03 -0.17458461945E+03 -0.23950974191E+02  0.20934835382E+03  0.00000000000E+00 0.  1.
          1    1    3    3  501    0 -0.11339041555E+03  0.17381055092E+03 -0.87076775310E+03  0.89515583771E+03  0.00000000000E+00 0.  1.
         21    1    1    2  502  501  0.37141390708E+00  0.77406853032E+00  0.85753718800E-01  0.86283490906E+00  0.00000000000E+00 0. -1.
<mgrwt>
<rscale>  1 0.64761710E+03</rscale>
<asrwt>0</asrwt>
<pdfrwt beam="1">  1        1 0.38315363E+00 0.64761710E+03</pdfrwt>
<pdfrwt beam="2">0</pdfrwt>
<totfact> 0.15898869E+00</totfact>
</mgrwt>
</event>
<event>
 6    1  0.5467084E-003  0.6457136E+03  0.7818608E-02  0.9814856E-01
          1   -1    0    0  502    0  0.00000000000E+00  0.00000000000E+00  0.10632630815E+03  0.10632630815E+03  0.00000000000E+00 0.  1.
         13   -1    0    0    0    0 -0.00000000000E+00 -0.00000000000E+00 -0.10000000000E+04  0.10000000000E+04  0.00000000000E+00 0.  1.
    9000005    2    1    2  501    0  0.30025855504E-01 -0.72886060062E-01 -0.89576265164E+03  0.11042358616E+04  0.64571363906E+03 0.  0.
         13    1    3    3    0    0 -0.40033185099E+02 -0.31816608476E+03 -0.51251064751E+03  0.60456552764E+03  0.00000000000E+00 0.  1.
          1    1    3    3  501    0  0.40063210955E+02  0.31809319870E+03 -0.38325200413E+03  0.49967033392E+03  0.00000000000E+00 0.  1.
         21    1    1    2  502  501 -0.30025855504E-01  0.72886060062E-01  0.20889597889E+01  0.20904465861E+01  0.00000000000E+00 0.  1.
<mgrwt>
<rscale>  1 0.64571364E+03</rscale>
<asrwt>0</asrwt>
<pdfrwt beam="1">  1        1 0.38664194E+00 0.64571364E+03</pdfrwt>
<pdfrwt beam="2">0</pdfrwt>
<totfact> 0.15349452E+00</totfact>
</mgrwt>
</event>
<event>
 6    1  0.5467084E-003  0.6499369E+03  0.7818608E-02  0.9806898E-01
          1   -1    0    0  502    0  0.00000000000E+00  0.00000000000E+00  0.10582950102E+03  0.10582950102E+03  0.00000000000E+00 0.  1.
         13   -1    0    0    0    0 -0.00000000000E+00 -0.00000000000E+00 -0.10000000000E+04  0.10000000000E+04  0.00000000000E+00 0.  1.
    9000005    2    1    2  501    0  0.27361939773E-02  0.22926132678E-02 -0.89439548364E+03  0.11056044880E+04  0.64993692217E+03 0.  0.
         13    1    3    3    0    0  0.27839681002E+03  0.15339589781E+03 -0.56220379845E+03  0.64583914119E+03  0.00000000000E+00 0.  1.
          1    1    3    3  501    0 -0.27839407383E+03 -0.15339360519E+03 -0.33219168519E+03  0.45976534685E+03  0.00000000000E+00 0.  1.
         21    1    1    2  502  501 -0.27361939774E-02 -0.22926132678E-02  0.22498465853E+00  0.22501297609E+00  0.00000000000E+00 0. -1.
<mgrwt>
<rscale>  1 0.64993692E+03</rscale>
<asrwt>0</asrwt>
<pdfrwt beam="1">  1        1 0.38483536E+00 0.64993692E+03</pdfrwt>
<pdfrwt beam="2">0</pdfrwt>
<totfact> 0.15622319E+00</totfact>
</mgrwt>
</event>
<event>
 6    1  0.5467084E-003  0.6507712E+03  0.7818608E-02  0.9805333E-01
          1   -1    0    0  502    0  0.00000000000E+00  0.00000000000E+00  0.10598044161E+03  0.10598044161E+03  0.00000000000E+00 0.  1.
         13   -1    0    0    0    0 -0.00000000000E+00 -0.00000000000E+00 -0.10000000000E+04  0.10000000000E+04  0.00000000000E+00 0.  1.
    9000005    2    1    2  501    0  0.29350072253E+00 -0.67414250941E-01 -0.89338686226E+03  0.11052797336E+04  0.65077116800E+03 0.  0.
         13    1    3    3    0    0  0.10732089580E+03 -0.28945203954E+03 -0.27171983115E+03  0.41125651911E+03  0.00000000000E+00 0.  1.
          3    1    3    3  501    0 -0.10702739508E+03  0.28938462529E+03 -0.62166703111E+03  0.69402321447E+03  0.00000000000E+00 0.  1.
         21    1    1    2  502  501 -0.29350072253E+00  0.67414250941E-01 -0.63269612667E+00  0.70070803053E+00  0.00000000000E+00 0. -1.
<mgrwt>
<rscale>  1 0.65077124E+03</rscale>
<asrwt>0</asrwt>
<pdfrwt beam="1">  1        1 0.38538424E+00 0.65077124E+03</pdfrwt>
<pdfrwt beam="2">0</pdfrwt>
<totfact> 0.15532832E+00</totfact>
</mgrwt>
</event>
<event>
 6    1  0.5467084E-003  0.6539215E+03  0.7818608E-02  0.9799449E-01
          1   -1    0    0  502    0  0.00000000000E+00  0.00000000000E+00  0.10797050334E+03  0.10797050334E+03  0.00000000000E+00 0.  1.
         13   -1    0    0    0    0 -0.00000000000E+00 -0.00000000000E+00 -0.10000000000E+04  0.10000000000E+04  0.00000000000E+00 0.  1.
    9000005    2    1    2  501    0 -0.39517302047E+00 -0.48861632515E+00 -0.89299330935E+03  0.11068199198E+04  0.65392116448E+03 0.  0.
         13    1    3    3    0    0  0.22209768616E+03  0.15985469907E+03 -0.74824917465E+03  0.79671684705E+03  0.00000000000E+00 0.  1.
          1    1    3    3  501    0 -0.22249285918E+03 -0.16034331540E+03 -0.14474413471E+03  0.31010307272E+03  0.00000000000E+00 0.  1.
         21    1    1    2  502  501  0.39517302047E+00  0.48861632515E+00  0.96381269003E+00  0.11505835610E+01  0.00000000000E+00 0.  1.
<mgrwt>
<rscale>  1 0.65392147E+03</rscale>
<asrwt>0</asrwt>
<pdfrwt beam="1">  1        1 0.39262084E+00 0.65392147E+03</pdfrwt>
<pdfrwt beam="2">0</pdfrwt>
<totfact> 0.14418576E+00</totfact>
</mgrwt>
</event>
<event>
 6    1  0.5467084E-003  0.6445566E+03  0.7818608E-02  0.9817047E-01
          1   -1    0    0  502    0  0.00000000000E+00  0.00000000000E+00  0.10414904106E+03  0.10414904106E+03  0.00000000000E+00 0.  1.
         13   -1    0    0    0    0 -0.00000000000E+00 -0.00000000000E+00 -0.10000000000E+04  0.10000000000E+04  0.00000000000E+00 0.  1.
    9000005    2    1    2  501    0 -0.40358715440E-02  0.31094698011E-02 -0.89613665629E+03  0.11038632983E+04  0.64455664959E+03 0.  0.
         13    1    3    3    0    0  0.27670745959E+03 -0.12175345717E+03 -0.25681436783E+03  0.39666678969E+03  0.00000000000E+00 0.  1.
          1    1    3    3  501    0 -0.27671149546E+03  0.12175656664E+03 -0.63932228846E+03  0.70719650859E+03  0.00000000000E+00 0.  1.
         21    1    1    2  502  501  0.40358715440E-02 -0.31094698011E-02  0.28569735167E+00  0.28574277561E+00  0.00000000000E+00 0. -1.
<mgrwt>
<rscale>  1 0.64455665E+03</rscale>
<asrwt>0</asrwt>
<pdfrwt beam="1">  1        1 0.37872458E+00 0.64455665E+03</pdfrwt>
<pdfrwt beam="2">0</pdfrwt>
<totfact> 0.16640308E+00</totfact>
</mgrwt>
</event>
<event>
 6    1  0.5467084E-003  0.6408028E+03  0.7818608E-02  0.9824192E-01
          1   -1    0    0  502    0  0.00000000000E+00  0.00000000000E+00  0.10550025064E+03  0.10550025064E+03  0.00000000000E+00 0.  1.
         13   -1    0    0    0    0 -0.00000000000E+00 -0.00000000000E+00 -0.10000000000E+04  0.10000000000E+04  0.00000000000E+00 0.  1.
    9000005    2    1    2  501    0  0.15354317496E+01 -0.38106381417E+01 -0.89560746106E+03  0.11012451903E+04  0.64078964274E+03 0.  0.
         13    1    3    3    0    0 -0.15620268573E+02  0.15485658693E+03  0.32934028860E+02  0.15908867202E+03  0.00000000000E+00 0.  1.
          1    1    3    3  501    0  0.17155700323E+02 -0.15866722507E+03 -0.92854148992E+03  0.94215651824E+03  0.00000000000E+00 0.  1.
         21    1    1    2  502  501 -0.15354317496E+01  0.38106381417E+01  0.11077116999E+01  0.42550603891E+01  0.00000000000E+00 0.  1.
<mgrwt>
<rscale>  1 0.64080281E+03</rscale>
<asrwt>0</asrwt>
<pdfrwt beam="1">  1        1 0.38363808E+00 0.64080281E+03</pdfrwt>
<pdfrwt beam="2">0</pdfrwt>
<totfact> 0.15840715E+00</totfact>
</mgrwt>
</event>
<event>
 6    1  0.5467084E-003  0.5779328E+03  0.7818608E-02  0.9952276E-01
          1   -1    0    0  502    0  0.00000000000E+00  0.00000000000E+00  0.84205452384E+02  0.84205452384E+02  0.00000000000E+00 0.  1.
         13   -1    0    0    0    0 -0.00000000000E+00 -0.00000000000E+00 -0.10000000000E+04  0.10000000000E+04  0.00000000000E+00 0.  1.
    9000005    2    1    2  501    0 -0.73578150712E+00  0.26344610895E+00 -0.91625696415E+03  0.10832973735E+04  0.57793231802E+03 0.  0.
         13    1    3    3    0    0  0.20303318055E+03  0.11987200533E+03 -0.77028882034E+03  0.80556603504E+03  0.00000000000E+00 0.  1.
          1    1    3    3  501    0 -0.20376896205E+03 -0.11960855922E+03 -0.14596814381E+03  0.27773133842E+03  0.00000000000E+00 0.  1.
         21    1    1    2  502  501  0.73578150712E+00 -0.26344610895E+00  0.46241653419E+00  0.90807892258E+00  0.00000000000E+00 0.  1.
<mgrwt>
<rscale>  1 0.57793285E+03</rscale>
<asrwt>0</asrwt>
<pdfrwt beam="1">  1        1 0.30620229E+00 0.57793285E+03</pdfrwt>
<pdfrwt beam="2">0</pdfrwt>
<totfact> 0.34829456E+00</totfact>
</mgrwt>
</event>
<event>
 6    1  0.5467084E-003  0.6563001E+03  0.7818608E-02  0.9795029E-01
          1   -1    0    0  502    0  0.00000000000E+00  0.00000000000E+00  0.10848489877E+03  0.10848489877E+03  0.00000000000E+00 0.  1.
         13   -1    0    0    0    0 -0.00000000000E+00 -0.00000000000E+00 -0.10000000000E+04  0.10000000000E+04  0.00000000000E+00 0.  1.
    9000005    2    1    2  501    0 -0.43124804312E+00 -0.41060697370E+00 -0.89219331047E+03  0.11075823797E+04  0.65629983233E+03 0.  0.
         13    1    3    3    0    0 -0.10252534086E+03 -0.26965306020E+03 -0.71117960472E+03  0.76746377671E+03  0.00000000000E+00 0.  1.
          3    1    3    3  501    0  0.10209409281E+03  0.26924245323E+03 -0.18101370575E+03  0.34011860296E+03  0.00000000000E+00 0.  1.
         21    1    1    2  502  501  0.43124804312E+00  0.41060697370E+00  0.67820923817E+00  0.90251910356E+00  0.00000000000E+00 0. -1.
<mgrwt>
<rscale>  1 0.65630010E+03</rscale>
<asrwt>0</asrwt>
<pdfrwt beam="1">  1        1 0.39449137E+00 0.65630010E+03</pdfrwt>
<pdfrwt beam="2">0</pdfrwt>
<totfact> 0.14139011E+00</totfact>
</mgrwt>
</event>
<event>
 6    1  0.5467084E-003  0.6520994E+03  0.7818608E-02  0.9802848E-01
          1   -1    0    0  502    0  0.00000000000E+00  0.00000000000E+00  0.10693888357E+03  0.10693888357E+03  0.00000000000E+00 0.  1.
         13   -1    0    0    0    0 -0.00000000000E+00 -0.00000000000E+00 -0.10000000000E+04  0.10000000000E+04  0.00000000000E+00 0.  1.
    9000005    2    1    2  501    0  0.15384942577E-01 -0.98315939762E-02 -0.89369144400E+03  0.11063082916E+04  0.65209940860E+03 0.  0.
         13    1    3    3    0    0  0.10533182932E+03 -0.30827725077E+03 -0.42387993921E+03  0.53460626677E+03  0.00000000000E+00 0.  1.
          1    1    3    3  501    0 -0.10531644437E+03  0.30826741917E+03 -0.46981150479E+03  0.57170202485E+03  0.00000000000E+00 0.  1.
         21    1    1    2  502  501 -0.15384942577E-01  0.98315939762E-02  0.63032757495E+00  0.63059195082E+00  0.00000000000E+00 0.  1.
<mgrwt>
<rscale>  1 0.65209941E+03</rscale>
<asrwt>0</asrwt>
<pdfrwt beam="1">  1        1 0.38886949E+00 0.65209941E+03</pdfrwt>
<pdfrwt beam="2">0</pdfrwt>
<totfact> 0.14986882E+00</totfact>
</mgrwt>
</event>
<event>
 6    1  0.5467084E-003  0.6418226E+03  0.7818608E-02  0.9822246E-01
          1   -1    0    0  502    0  0.00000000000E+00  0.00000000000E+00  0.10299592867E+03  0.10299592867E+03  0.00000000000E+00 0.  1.
         13   -1    0    0    0    0 -0.00000000000E+00 -0.00000000000E+00 -0.10000000000E+04  0.10000000000E+04  0.00000000000E+00 0.  1.
    9000005    2    1    2  501    0  0.68208422326E-03 -0.27025266600E-02 -0.89701575121E+03  0.11029839208E+04  0.64182261697E+03 0.  0.
         13    1    3    3    0    0  0.20524180586E+03  0.63219653523E+02 -0.38710140575E+02  0.21821869408E+03  0.00000000000E+00 0.  1.
          1    1    3    3  501    0 -0.20524112377E+03 -0.63222356049E+02 -0.85830561064E+03  0.88476522674E+03  0.00000000000E+00 0.  1.
         21    1    1    2  502  501 -0.68208422327E-03  0.27025266600E-02  0.11679883552E-01  0.12007854472E-01  0.00000000000E+00 0. -1.
<mgrwt>
<rscale>  1 0.64182262E+03</rscale>
<asrwt>0</asrwt>
<pdfrwt beam="1">  1        1 0.37453144E+00 0.64182262E+03</pdfrwt>
<pdfrwt beam="2">0</pdfrwt>
<totfact> 0.17372015E+00</totfact>
</mgrwt>
</event>
<event>
 6    1  0.5467084E-003  0.6507013E+03  0.7818608E-02  0.9805464E-01
          1   -1    0    0  502    0  0.00000000000E+00  0.00000000000E+00  0.10607170283E+03  0.10607170283E+03  0.00000000000E+00 0.  1.
         13   -1    0    0    0    0 -0.00000000000E+00 -0.00000000000E+00 -0.10000000000E+04  0.10000000000E+04  0.00000000000E+00 0.  1.
    9000005    2    1    2  501    0  0.28468747662E-01  0.13864941555E+00 -0.89412132178E+03  0.11058323440E+04  0.65070132552E+03 0.  0.
         13    1    3    3    0    0  0.22770108166E+03 -0.14616293791E+03 -0.75400582797E+03  0.80108437485E+03  0.00000000000E+00 0.  1.
          3    1    3    3  501    0 -0.22767261291E+03  0.14630158733E+03 -0.14011549381E+03  0.30474796919E+03  0.00000000000E+00 0.  1.
         21    1    1    2  502  501 -0.28468747662E-01 -0.13864941555E+00  0.19302461025E+00  0.23935878966E+00  0.00000000000E+00 0.  1.
<mgrwt>
<rscale>  1 0.65070134E+03</rscale>
<asrwt>0</asrwt>
<pdfrwt beam="1">  1        1 0.38571610E+00 0.65070134E+03</pdfrwt>
<pdfrwt beam="2">0</pdfrwt>
<totfact> 0.15480606E+00</totfact>
</mgrwt>
</event>
<event>
 6    1  0.5467084E-003  0.6479538E+03  0.7818608E-02  0.9810626E-01
          1   -1    0    0  502    0  0.00000000000E+00  0.00000000000E+00  0.10745058836E+03  0.10745058836E+03  0.00000000000E+00 0.  1.
         13   -1    0    0    0    0 -0.00000000000E+00 -0.00000000000E+00 -0.10000000000E+04  0.10000000000E+04  0.00000000000E+00 0.  1.
    9000005    2    1    2  501    0 -0.36021850177E+01 -0.73859658152E+00 -0.89344090003E+03  0.11036669376E+04  0.64794332002E+03 0.  0.
         13    1    3    3    0    0 -0.31732429684E+03 -0.65366136067E+02 -0.39069349517E+03  0.50755181832E+03  0.00000000000E+00 0.  1.
          3    1    3    3  501    0  0.31372211182E+03  0.64627539486E+02 -0.50274740486E+03  0.59611511925E+03  0.00000000000E+00 0.  1.
         21    1    1    2  502  501  0.36021850177E+01  0.73859658152E+00  0.89148839112E+00  0.37836507983E+01  0.00000000000E+00 0. -1.
<mgrwt>
<rscale>  1 0.64795375E+03</rscale>
<asrwt>0</asrwt>
<pdfrwt beam="1">  1        1 0.39073024E+00 0.64795375E+03</pdfrwt>
<pdfrwt beam="2">0</pdfrwt>
<totfact> 0.14716257E+00</totfact>
</mgrwt>
</event>
<event>
 6    1  0.5467084E-003  0.6407609E+03  0.7818608E-02  0.9824272E-01
          1   -1    0    0  502    0  0.00000000000E+00  0.00000000000E+00  0.10370650225E+03  0.10370650225E+03  0.00000000000E+00 0.  1.
         13   -1    0    0    0    0 -0.00000000000E+00 -0.00000000000E+00 -0.10000000000E+04  0.10000000000E+04  0.00000000000E+00 0.  1.
    9000005    2    1    2  501    0 -0.15851578531E-01  0.70598136716E-02 -0.89735628112E+03  0.11026435772E+04  0.64076092486E+03 0.  0.
         13    1    3    3    0    0 -0.13853574038E+03  0.23165351483E+03 -0.15166442953E+03  0.30960878779E+03  0.00000000000E+00 0.  1.
          3    1    3    3  501    0  0.13851988880E+03 -0.23164645502E+03 -0.74569185159E+03  0.79303478943E+03  0.00000000000E+00 0.  1.
         21    1    1    2  502  501  0.15851578531E-01 -0.70598136716E-02  0.10627833665E+01  0.10629250198E+01  0.00000000000E+00 0.  1.
<mgrwt>
<rscale>  1 0.64076093E+03</rscale>
<asrwt>0</asrwt>
<pdfrwt beam="1">  1        1 0.37711535E+00 0.64076093E+03</pdfrwt>
<pdfrwt beam="2">0</pdfrwt>
<totfact> 0.16926115E+00</totfact>
</mgrwt>
</event>
<event>
 6    1  0.5467085E-003  0.6015403E+03  0.7818608E-02  0.9902216E-01
          1   -1    0    0  502    0  0.00000000000E+00  0.00000000000E+00  0.90462815612E+02  0.90462815612E+02  0.00000000000E+00 0.  1.
         13   -1    0    0    0    0 -0.00000000000E+00 -0.00000000000E+00 -0.10000000000E+04  0.10000000000E+04  0.00000000000E+00 0.  1.
    9000005    2    1    2  501    0  0.23880947816E-03  0.66852888352E-04 -0.90953720929E+03  0.10904625664E+04  0.60154025101E+03 0.  0.
         13    1    3    3    0    0 -0.15619261309E+03 -0.18770790010E+03 -0.77307720234E+03  0.81072729628E+03  0.00000000000E+00 0.  1.
          1    1    3    3  501    0  0.15619285190E+03  0.18770796695E+03 -0.13646000695E+03  0.27973527010E+03  0.00000000000E+00 0.  1.
         21    1    1    2  502  501 -0.23880947817E-03 -0.66852888360E-04  0.24902310552E-04  0.24923763884E-03  0.00000000000E+00 0. -1.
<mgrwt>
<rscale>  1 0.60154025E+03</rscale>
<asrwt>0</asrwt>
<pdfrwt beam="1">  1        1 0.32895639E+00 0.60154025E+03</pdfrwt>
<pdfrwt beam="2">0</pdfrwt>
<totfact> 0.27655341E+00</totfact>
</mgrwt>
</event>
<event>
 6    1  0.5467084E-003  0.6492456E+03  0.7818608E-02  0.9808196E-01
          1   -1    0    0  502    0  0.00000000000E+00  0.00000000000E+00  0.10540374994E+03  0.10540374994E+03  0.00000000000E+00 0.  1.
         13   -1    0    0    0    0 -0.00000000000E+00 -0.00000000000E+00 -0.10000000000E+04  0.10000000000E+04  0.00000000000E+00 0.  1.
    9000005    2    1    2  501    0 -0.20672370849E-02  0.15117520744E-03 -0.89462000024E+03  0.11053799095E+04  0.64924556177E+03 0.  0.
         13    1    3    3    0    0  0.19509516684E+03  0.23872605136E+03 -0.27428909459E+03  0.41265816256E+03  0.00000000000E+00 0.  1.
          3    1    3    3  501    0 -0.19509723407E+03 -0.23872590018E+03 -0.62033090565E+03  0.69272174692E+03  0.00000000000E+00 0.  1.
         21    1    1    2  502  501  0.20672370849E-02 -0.15117520743E-03  0.23750174896E-01  0.23840451563E-01  0.00000000000E+00 0.  1.
<mgrwt>
<rscale>  1 0.64924556E+03</rscale>
<asrwt>0</asrwt>
<pdfrwt beam="1">  1        1 0.38328717E+00 0.64924556E+03</pdfrwt>
<pdfrwt beam="2">0</pdfrwt>
<totfact> 0.15872511E+00</totfact>
</mgrwt>
</event>
<event>
 6    1  0.5467084E-003  0.6424286E+03  0.7818608E-02  0.9821091E-01
          1   -1    0    0  502    0  0.00000000000E+00  0.00000000000E+00  0.10317932206E+03  0.10317932206E+03  0.00000000000E+00 0.  1.
         13   -1    0    0    0    0 -0.00000000000E+00 -0.00000000000E+00 -0.10000000000E+04  0.10000000000E+04  0.00000000000E+00 0.  1.
    9000005    2    1    2  501    0 -0.42527966400E-04 -0.12828088487E-04 -0.89682138549E+03  0.11031786131E+04  0.64242856021E+03 0.  0.
         13    1    3    3    0    0 -0.31381557300E+03 -0.44539879373E+02 -0.53788021100E+03  0.62432294215E+03  0.00000000000E+00 0.  1.
          3    1    3    3  501    0  0.31381553047E+03  0.44539866545E+02 -0.35894117449E+03  0.47885567097E+03  0.00000000000E+00 0.  1.
         21    1    1    2  502  501  0.42527966370E-04  0.12828088486E-04  0.70755143744E-03  0.70894444380E-03  0.00000000000E+00 0.  1.
<mgrwt>
<rscale>  1 0.64242856E+03</rscale>
<asrwt>0</asrwt>
<pdfrwt beam="1">  1        1 0.37519833E+00 0.64242856E+03</pdfrwt>
<pdfrwt beam="2">0</pdfrwt>
<totfact> 0.17253083E+00</totfact>
</mgrwt>
</event>
<event>
 6    1  0.5467084E-003  0.6484112E+03  0.7818608E-02  0.9809765E-01
          1   -1    0    0  502    0  0.00000000000E+00  0.00000000000E+00  0.10524379943E+03  0.10524379943E+03  0.00000000000E+00 0.  1.
         13   -1    0    0    0    0 -0.00000000000E+00 -0.00000000000E+00 -0.10000000000E+04  0.10000000000E+04  0.00000000000E+00 0.  1.
    9000005    2    1    2  501    0 -0.77914441271E-02 -0.27196618732E-02 -0.89489058240E+03  0.11051091644E+04  0.64841122046E+03 0.  0.
         13    1    3    3    0    0 -0.12658829612E+03  0.61353686155E+02  0.50385414634E+02  0.14942409955E+03  0.00000000000E+00 0.  1.
          1    1    3    3  501    0  0.12658050468E+03 -0.61356405817E+02 -0.94527599703E+03  0.95568506489E+03  0.00000000000E+00 0.  1.
         21    1    1    2  502  501  0.77914441271E-02  0.27196618732E-02  0.13438182369E+00  0.13463497949E+00  0.00000000000E+00 0. -1.
<mgrwt>
<rscale>  1 0.64841122E+03</rscale>
<asrwt>0</asrwt>
<pdfrwt beam="1">  1        1 0.38270553E+00 0.64841122E+03</pdfrwt>
<pdfrwt beam="2">0</pdfrwt>
<totfact> 0.15969177E+00</totfact>
</mgrwt>
</event>
<event>
 6    1  0.8444764E-003  0.6686673E+03  0.7818608E-02  0.9772368E-01
          3   -1    0    0  502    0  0.00000000000E+00  0.00000000000E+00  0.11177899739E+03  0.11177899739E+03  0.00000000000E+00 0.  1.
         13   -1    0    0    0    0 -0.00000000000E+00 -0.00000000000E+00 -0.10000000000E+04  0.10000000000E+04  0.00000000000E+00 0.  1.
    9000005    2    1    2  501    0 -0.11649181801E-04 -0.13236766193E-04 -0.88822101308E+03  0.11117789769E+04  0.66866727553E+03 0.  0.
         13    1    3    3    0    0 -0.23885002775E+03  0.12445255822E+03 -0.11474389922E+03  0.29275234826E+03  0.00000000000E+00 0.  1.
          3    1    3    3  501    0  0.23885001610E+03 -0.12445257146E+03 -0.77347711385E+03  0.81902662862E+03  0.00000000000E+00 0.  1.
         21    1    1    2  502  501  0.11649181779E-04  0.13236766197E-04  0.10471410532E-04  0.20507702309E-04  0.00000000000E+00 0. -1.
<mgrwt>
<rscale>  1 0.66866728E+03</rscale>
<asrwt>0</asrwt>
<pdfrwt beam="1">  1        3 0.40646994E+00 0.66866728E+03</pdfrwt>
<pdfrwt beam="2">0</pdfrwt>
<totfact> 0.54622964E-02</totfact>
</mgrwt>
</event>
<event>
 6    1  0.5467084E-003  0.6593229E+03  0.7818608E-02  0.9789441E-01
          1   -1    0    0  502    0  0.00000000000E+00  0.00000000000E+00  0.10879966344E+03  0.10879966344E+03  0.00000000000E+00 0.  1.
         13   -1    0    0    0    0 -0.00000000000E+00 -0.00000000000E+00 -0.10000000000E+04  0.10000000000E+04  0.00000000000E+00 0.  1.
    9000005    2    1    2  501    0  0.31427188529E-01  0.30525933228E-02 -0.89132107083E+03  0.11086748686E+04  0.65932291935E+03 0.  0.
         13    1    3    3    0    0  0.65281235640E+02 -0.24002204840E+03 -0.80945741432E+03  0.84681375109E+03  0.00000000000E+00 0.  1.
          1    1    3    3  501    0 -0.65249808451E+02  0.24002510099E+03 -0.81863656510E+02  0.26186111751E+03  0.00000000000E+00 0.  1.
         21    1    1    2  502  501 -0.31427188529E-01 -0.30525933228E-02  0.12073426524E+00  0.12479482886E+00  0.00000000000E+00 0.  1.
<mgrwt>
<rscale>  1 0.65932292E+03</rscale>
<asrwt>0</asrwt>
<pdfrwt beam="1">  1        1 0.39563597E+00 0.65932292E+03</pdfrwt>
<pdfrwt beam="2">0</pdfrwt>
<totfact> 0.13966397E+00</totfact>
</mgrwt>
</event>
<event>
 6    1  0.5467084E-003  0.6551076E+03  0.7818608E-02  0.9797242E-01
          1   -1    0    0  502    0  0.00000000000E+00  0.00000000000E+00  0.10729211504E+03  0.10729211504E+03  0.00000000000E+00 0.  1.
         13   -1    0    0    0    0 -0.00000000000E+00 -0.00000000000E+00 -0.10000000000E+04  0.10000000000E+04  0.00000000000E+00 0.  1.
    9000005    2    1    2  501    0 -0.14251772527E-04  0.24026304743E-04 -0.89270850905E+03  0.11072914903E+04  0.65510759606E+03 0.  0.
         13    1    3    3    0    0  0.59915323597E+02  0.27225097005E+03 -0.73706173559E+03  0.78801677569E+03  0.00000000000E+00 0.  1.
          1    1    3    3  501    0 -0.59915337849E+02 -0.27225094602E+03 -0.15564677346E+03  0.31927471464E+03  0.00000000000E+00 0.  1.
         21    1    1    2  502  501  0.14251772526E-04 -0.24026304729E-04  0.62408604621E-03  0.62471094869E-03  0.00000000000E+00 0. -1.
<mgrwt>
<rscale>  1 0.65510760E+03</rscale>
<asrwt>0</asrwt>
<pdfrwt beam="1">  1        1 0.39015397E+00 0.65510760E+03</pdfrwt>
<pdfrwt beam="2">0</pdfrwt>
<totfact> 0.14783394E+00</totfact>
</mgrwt>
</event>
<event>
 6    1  0.5467084E-003  0.6579070E+03  0.7818608E-02  0.9792054E-01
          1   -1    0    0  502    0  0.00000000000E+00  0.00000000000E+00  0.10823069993E+03  0.10823069993E+03  0.00000000000E+00 0.  1.
         13   -1    0    0    0    0 -0.00000000000E+00 -0.00000000000E+00 -0.10000000000E+04  0.10000000000E+04  0.00000000000E+00 0.  1.
    9000005    2    1    2  501    0 -0.22686748071E-03 -0.15687762095E-03 -0.89178959435E+03  0.11082104038E+04  0.65790699833E+03 0.  0.
         13    1    3    3    0    0 -0.87620023103E+02  0.19066500371E+03 -0.19160513802E+02  0.21070723143E+03  0.00000000000E+00 0.  1.
          3    1    3    3  501    0  0.87619796235E+02 -0.19066516059E+03 -0.87262908055E+03  0.89750317235E+03  0.00000000000E+00 0.  1.
         21    1    1    2  502  501  0.22686748070E-03  0.15687762094E-03  0.20294276018E-01  0.20296150338E-01  0.00000000000E+00 0. -1.
<mgrwt>
<rscale>  1 0.65790700E+03</rscale>
<asrwt>0</asrwt>
<pdfrwt beam="1">  1        1 0.39356701E+00 0.65790700E+03</pdfrwt>
<pdfrwt beam="2">0</pdfrwt>
<totfact> 0.14269118E+00</totfact>
</mgrwt>
</event>
<event>
 6    1  0.5467084E-003  0.5710384E+03  0.7818608E-02  0.9967383E-01
          1   -1    0    0  502    0  0.00000000000E+00  0.00000000000E+00  0.82660340463E+02  0.82660340463E+02  0.00000000000E+00 0.  1.
         13   -1    0    0    0    0 -0.00000000000E+00 -0.00000000000E+00 -0.10000000000E+04  0.10000000000E+04  0.00000000000E+00 0.  1.
    9000005    2    1    2  501    0 -0.11466774476E+00  0.39714089079E-01 -0.91847529626E+03  0.10815182386E+04  0.57103836636E+03 0.  0.
         13    1    3    3    0    0  0.33707293972E+02  0.13685911524E+03  0.11038292873E+02  0.14138049017E+03  0.00000000000E+00 0.  1.
          1    1    3    3  501    0 -0.33821961717E+02 -0.13681940115E+03 -0.92951358913E+03  0.94013774842E+03  0.00000000000E+00 0.  1.
         21    1    1    2  502  501  0.11466774476E+00 -0.39714089079E-01  0.11356367245E+01  0.11421018652E+01  0.00000000000E+00 0. -1.
<mgrwt>
<rscale>  1 0.57103838E+03</rscale>
<asrwt>0</asrwt>
<pdfrwt beam="1">  1        1 0.30058369E+00 0.57103838E+03</pdfrwt>
<pdfrwt beam="2">0</pdfrwt>
<totfact> 0.36873678E+00</totfact>
</mgrwt>
</event>
<event>
 6    1  0.5467084E-003  0.6521751E+03  0.7818608E-02  0.9802706E-01
          1   -1    0    0  502    0  0.00000000000E+00  0.00000000000E+00  0.10634674228E+03  0.10634674228E+03  0.00000000000E+00 0.  1.
         13   -1    0    0    0    0 -0.00000000000E+00 -0.00000000000E+00 -0.10000000000E+04  0.10000000000E+04  0.00000000000E+00 0.  1.
    9000005    2    1    2  501    0 -0.11425089129E-02  0.11662315531E-03 -0.89366689001E+03  0.11063330617E+04  0.65217507856E+03 0.  0.
         13    1    3    3    0    0 -0.92052920128E+02 -0.67511558988E+02  0.71329241527E+02  0.13460836303E+03  0.00000000000E+00 0.  1.
          3    1    3    3  501    0  0.92051777620E+02  0.67511675611E+02 -0.96499613154E+03  0.97172469867E+03  0.00000000000E+00 0.  1.
         21    1    1    2  502  501  0.11425089129E-02 -0.11662315531E-03  0.13632295408E-01  0.13680584990E-01  0.00000000000E+00 0. -1.
<mgrwt>
<rscale>  1 0.65217508E+03</rscale>
<asrwt>0</asrwt>
<pdfrwt beam="1">  1        1 0.38671624E+00 0.65217508E+03</pdfrwt>
<pdfrwt beam="2">0</pdfrwt>
<totfact> 0.15319445E+00</totfact>
</mgrwt>
</event>
<event>
 6    1  0.5467084E-003  0.6360524E+03  0.7818608E-02  0.9833309E-01
          1   -1    0    0  502    0  0.00000000000E+00  0.00000000000E+00  0.10114082900E+03  0.10114082900E+03  0.00000000000E+00 0.  1.
         13   -1    0    0    0    0 -0.00000000000E+00 -0.00000000000E+00 -0.10000000000E+04  0.10000000000E+04  0.00000000000E+00 0.  1.
    9000005    2    1    2  501    0  0.34095701170E-03  0.16427672475E-03 -0.89885909168E+03  0.11011404423E+04  0.63605236182E+03 0.  0.
         13    1    3    3    0    0 -0.25645689023E+03  0.15507082924E+03 -0.26520803447E+03  0.40019045488E+03  0.00000000000E+00 0.  1.
          1    1    3    3  501    0  0.25645723119E+03 -0.15507066497E+03 -0.63365105721E+03  0.70094998742E+03  0.00000000000E+00 0.  1.
         21    1    1    2  502  501 -0.34095701168E-03 -0.16427672476E-03 -0.79326893404E-04  0.38669274900E-03  0.00000000000E+00 0. -1.
<mgrwt>
<rscale>  1 0.63605236E+03</rscale>
<asrwt>0</asrwt>
<pdfrwt beam="1">  1        1 0.36778561E+00 0.63605236E+03</pdfrwt>
<pdfrwt beam="2">0</pdfrwt>
<totfact> 0.18618698E+00</totfact>
</mgrwt>
</event>
<event>
 6    1  0.5467084E-003  0.6606679E+03  0.7818608E-02  0.9786965E-01
          1   -1    0    0  502    0  0.00000000000E+00  0.00000000000E+00  0.10912052252E+03  0.10912052252E+03  0.00000000000E+00 0.  1.
         13   -1    0    0    0    0 -0.00000000000E+00 -0.00000000000E+00 -0.10000000000E+04  0.10000000000E+04  0.00000000000E+00 0.  1.
    9000005    2    1    2  501    0 -0.23860141596E-05 -0.32409756514E-05 -0.89087949317E+03  0.11091205063E+04  0.66066786374E+03 0.  0.
         13    1    3    3    0    0 -0.29795064415E+03  0.51954849519E+02 -0.66845072965E+03  0.73368949203E+03  0.00000000000E+00 0.  1.
          1    1    3    3  501    0  0.29795064176E+03 -0.51954852760E+02 -0.22242876352E+03  0.37543101429E+03  0.00000000000E+00 0.  1.
         21    1    1    2  502  501  0.23860141475E-05  0.32409756490E-05  0.15692731804E-04  0.16200580796E-04  0.00000000000E+00 0. -1.
<mgrwt>
<rscale>  1 0.66066786E+03</rscale>
<asrwt>0</asrwt>
<pdfrwt beam="1">  1        1 0.39680274E+00 0.66066786E+03</pdfrwt>
<pdfrwt beam="2">0</pdfrwt>
<totfact> 0.13796966E+00</totfact>
</mgrwt>
</event>
<event>
 6    1  0.5467084E-003  0.6527106E+03  0.7818608E-02  0.9801706E-01
          1   -1    0    0  502    0  0.00000000000E+00  0.00000000000E+00  0.10667112159E+03  0.10667112159E+03  0.00000000000E+00 0.  1.
         13   -1    0    0    0    0 -0.00000000000E+00 -0.00000000000E+00 -0.10000000000E+04  0.10000000000E+04  0.00000000000E+00 0.  1.
    9000005    2    1    2  501    0 -0.17184872847E-01 -0.10245016288E-02 -0.89349171356E+03  0.11065073789E+04  0.65271060749E+03 0.  0.
         13    1    3    3    0    0 -0.21921959322E+03  0.23956233362E+03 -0.39145680194E+03  0.50861160970E+03  0.00000000000E+00 0.  1.
          3    1    3    3  501    0  0.21920240835E+03 -0.23956335812E+03 -0.50203491162E+03  0.59789576923E+03  0.00000000000E+00 0.  1.
         21    1    1    2  502  501  0.17184872847E-01  0.10245016288E-02  0.16283515680E+00  0.16374265708E+00  0.00000000000E+00 0. -1.
<mgrwt>
<rscale>  1 0.65271061E+03</rscale>
<asrwt>0</asrwt>
<pdfrwt beam="1">  1        1 0.38789581E+00 0.65271061E+03</pdfrwt>
<pdfrwt beam="2">0</pdfrwt>
<totfact> 0.15134787E+00</totfact>
</mgrwt>
</event>
<event>
 6    1  0.5467084E-003  0.6452637E+03  0.7818608E-02  0.9815707E-01
          1   -1    0    0  502    0  0.00000000000E+00  0.00000000000E+00  0.10444575546E+03  0.10444575546E+03  0.00000000000E+00 0.  1.
         13   -1    0    0    0    0 -0.00000000000E+00 -0.00000000000E+00 -0.10000000000E+04  0.10000000000E+04  0.00000000000E+00 0.  1.
    9000005    2    1    2  501    0 -0.29445394719E+00 -0.14055033185E+00 -0.89582387055E+03  0.11040224876E+04  0.64526362021E+03 0.  0.
         13    1    3    3    0    0 -0.29123617069E+02 -0.40632183874E+02  0.97439925074E+02  0.10951574515E+03  0.00000000000E+00 0.  1.
          1    1    3    3  501    0  0.28829163122E+02  0.40491633543E+02 -0.99326379562E+03  0.99450674242E+03  0.00000000000E+00 0.  1.
         21    1    1    2  502  501  0.29445394719E+00  0.14055033185E+00  0.26962600978E+00  0.42326789147E+00  0.00000000000E+00 0. -1.
<mgrwt>
<rscale>  1 0.64526370E+03</rscale>
<asrwt>0</asrwt>
<pdfrwt beam="1">  1        1 0.37980355E+00 0.64526370E+03</pdfrwt>
<pdfrwt beam="2">0</pdfrwt>
<totfact> 0.16456827E+00</totfact>
</mgrwt>
</event>
<event>
 6    1  0.5467084E-003  0.6503924E+03  0.7818608E-02  0.9806043E-01
          3   -1    0    0  502    0  0.00000000000E+00  0.00000000000E+00  0.10576368970E+03  0.10576368970E+03  0.00000000000E+00 0.  1.
         13   -1    0    0    0    0 -0.00000000000E+00 -0.00000000000E+00 -0.10000000000E+04  0.10000000000E+04  0.00000000000E+00 0.  1.
    9000005    2    1    2  501    0 -0.15266571935E-01  0.82300399340E-02 -0.89423941473E+03  0.11057460704E+04  0.65039237470E+03 0.  0.
         13    1    3    3    0    0  0.26742178943E+03  0.13570101723E+03 -0.23327346094E+03  0.37992852896E+03  0.00000000000E+00 0.  1.
          3    1    3    3  501    0 -0.26743705600E+03 -0.13569278719E+03 -0.66096595379E+03  0.72581754145E+03  0.00000000000E+00 0.  1.
         21    1    1    2  502  501  0.15266571935E-01 -0.82300399340E-02  0.31044254408E-02  0.17619285833E-01  0.00000000000E+00 0.  1.
<mgrwt>
<rscale>  1 0.65039237E+03</rscale>
<asrwt>0</asrwt>
<pdfrwt beam="1">  1        3 0.38459605E+00 0.65039237E+03</pdfrwt>
<pdfrwt beam="2">0</pdfrwt>
<totfact> 0.71374340E-02</totfact>
</mgrwt>
</event>
<event>
 6    1  0.5467084E-003  0.6530536E+03  0.7818608E-02  0.9801066E-01
          1   -1    0    0  502    0  0.00000000000E+00  0.00000000000E+00  0.10717331486E+03  0.10717331486E+03  0.00000000000E+00 0.  1.
         13   -1    0    0    0    0 -0.00000000000E+00 -0.00000000000E+00 -0.10000000000E+04  0.10000000000E+04  0.00000000000E+00 0.  1.
    9000005    2    1    2  501    0 -0.26745818928E-02  0.19713642737E-01 -0.89338005006E+03  0.11066195924E+04  0.65305360279E+03 0.  0.
         13    1    3    3    0    0  0.25814353638E+03  0.44965721937E+01 -0.10794847013E+03  0.27984134209E+03  0.00000000000E+00 0.  1.
          3    1    3    3  501    0 -0.25814621096E+03 -0.44768585510E+01 -0.78543157993E+03  0.82677825035E+03  0.00000000000E+00 0.  1.
         21    1    1    2  502  501  0.26745818928E-02 -0.19713642737E-01  0.55336492075E+00  0.55372241838E+00  0.00000000000E+00 0. -1.
<mgrwt>
<rscale>  1 0.65305360E+03</rscale>
<asrwt>0</asrwt>
<pdfrwt beam="1">  1        1 0.38972197E+00 0.65305360E+03</pdfrwt>
<pdfrwt beam="2">0</pdfrwt>
<totfact> 0.14854410E+00</totfact>
</mgrwt>
</event>
<event>
 6    1  0.5467084E-003  0.6486869E+03  0.7818608E-02  0.9809246E-01
          1   -1    0    0  502    0  0.00000000000E+00  0.00000000000E+00  0.10525300894E+03  0.10525300894E+03  0.00000000000E+00 0.  1.
         13   -1    0    0    0    0 -0.00000000000E+00 -0.00000000000E+00 -0.10000000000E+04  0.10000000000E+04  0.00000000000E+00 0.  1.
    9000005    2    1    2  501    0  0.50198261011E-02  0.80909155519E-02 -0.89480086907E+03  0.11051982960E+04  0.64868688762E+03 0.  0.
         13    1    3    3    0    0 -0.27775943524E+03  0.17621883542E+02 -0.73114496127E+03  0.78232588416E+03  0.00000000000E+00 0.  1.
          3    1    3    3  501    0  0.27776445507E+03 -0.17613792627E+02 -0.16365590781E+03  0.32287241187E+03  0.00000000000E+00 0.  1.
         21    1    1    2  502  501 -0.50198261011E-02 -0.80909155519E-02  0.53878016544E-01  0.54712907392E-01  0.00000000000E+00 0. -1.
<mgrwt>
<rscale>  1 0.64868689E+03</rscale>
<asrwt>0</asrwt>
<pdfrwt beam="1">  1        1 0.38273902E+00 0.64868689E+03</pdfrwt>
<pdfrwt beam="2">0</pdfrwt>
<totfact> 0.15962926E+00</totfact>
</mgrwt>
</event>
<event>
 6    1  0.5467084E-003  0.6507253E+03  0.7818608E-02  0.9805419E-01
          1   -1    0    0  502    0  0.00000000000E+00  0.00000000000E+00  0.10587226375E+03  0.10587226375E+03  0.00000000000E+00 0.  1.
         13   -1    0    0    0    0 -0.00000000000E+00 -0.00000000000E+00 -0.10000000000E+04  0.10000000000E+04  0.00000000000E+00 0.  1.
    9000005    2    1    2  501    0  0.53139880534E-03  0.21895071472E-02 -0.89413903271E+03  0.11058607448E+04  0.65072527004E+03 0.  0.
         13    1    3    3    0    0  0.10151796881E+03  0.30596720775E+03 -0.37222406208E+03  0.49241505116E+03  0.00000000000E+00 0.  1.
          3    1    3    3  501    0 -0.10151743741E+03 -0.30596501824E+03 -0.52191497062E+03  0.61344569364E+03  0.00000000000E+00 0.  1.
         21    1    1    2  502  501 -0.53139880534E-03 -0.21895071472E-02  0.11296453462E-01  0.11518949043E-01  0.00000000000E+00 0. -1.
<mgrwt>
<rscale>  1 0.65072527E+03</rscale>
<asrwt>0</asrwt>
<pdfrwt beam="1">  1        1 0.38499086E+00 0.65072527E+03</pdfrwt>
<pdfrwt beam="2">0</pdfrwt>
<totfact> 0.15595328E+00</totfact>
</mgrwt>
</event>
<event>
 6    1  0.5467084E-003  0.6485678E+03  0.7818608E-02  0.9809470E-01
          1   -1    0    0  502    0  0.00000000000E+00  0.00000000000E+00  0.10516009199E+03  0.10516009199E+03  0.00000000000E+00 0.  1.
         13   -1    0    0    0    0 -0.00000000000E+00 -0.00000000000E+00 -0.10000000000E+04  0.10000000000E+04  0.00000000000E+00 0.  1.
    9000005    2    1    2  501    0 -0.28757251869E-06 -0.11560275894E-04 -0.89483996573E+03  0.11051600331E+04  0.64856775633E+03 0.  0.
         13    1    3    3    0    0  0.10955235814E+03 -0.28716593397E+02  0.70365500138E+02  0.13333291236E+03  0.00000000000E+00 0.  1.
          1    1    3    3  501    0 -0.10955235842E+03  0.28716581837E+02 -0.96520546587E+03  0.97182712076E+03  0.00000000000E+00 0.  1.
         21    1    1    2  502  501  0.28757252702E-06  0.11560275893E-04  0.57717170049E-04  0.58864203003E-04  0.00000000000E+00 0. -1.
<mgrwt>
<rscale>  1 0.64856776E+03</rscale>
<asrwt>0</asrwt>
<pdfrwt beam="1">  1        1 0.38240114E+00 0.64856776E+03</pdfrwt>
<pdfrwt beam="2">0</pdfrwt>
<totfact> 0.16018238E+00</totfact>
</mgrwt>
</event>
<event>
 6    1  0.5467084E-003  0.6402039E+03  0.7818608E-02  0.9825337E-01
          1   -1    0    0  502    0  0.00000000000E+00  0.00000000000E+00  0.10248915645E+03  0.10248915645E+03  0.00000000000E+00 0.  1.
         13   -1    0    0    0    0 -0.00000000000E+00 -0.00000000000E+00 -0.10000000000E+04  0.10000000000E+04  0.00000000000E+00 0.  1.
    9000005    2    1    2  501    0  0.32219958302E-01  0.41490026161E-01 -0.89749754454E+03  0.11024349678E+04  0.64020388392E+03 0.  0.
         13    1    3    3    0    0  0.52845191448E+02  0.29925169584E+03 -0.27541908383E+03  0.41012176663E+03  0.00000000000E+00 0.  1.
          1    1    3    3  501    0 -0.52812971489E+02 -0.29921020581E+03 -0.62207846071E+03  0.69231320116E+03  0.00000000000E+00 0.  1.
         21    1    1    2  502  501 -0.32219958302E-01 -0.41490026161E-01 -0.13299014562E-01  0.54188668300E-01  0.00000000000E+00 0.  1.
<mgrwt>
<rscale>  1 0.64020389E+03</rscale>
<asrwt>0</asrwt>
<pdfrwt beam="1">  1        1 0.37268863E+00 0.64020389E+03</pdfrwt>
<pdfrwt beam="2">0</pdfrwt>
<totfact> 0.17704562E+00</totfact>
</mgrwt>
</event>
<event>
 6    1  0.5467084E-003  0.6602592E+03  0.7818608E-02  0.9787717E-01
          1   -1    0    0  502    0  0.00000000000E+00  0.00000000000E+00  0.11100878756E+03  0.11100878756E+03  0.00000000000E+00 0.  1.
         13   -1    0    0    0    0 -0.00000000000E+00 -0.00000000000E+00 -0.10000000000E+04  0.10000000000E+04  0.00000000000E+00 0.  1.
    9000005    2    1    2  501    0 -0.33132810095E+01 -0.43814159731E+01 -0.88526337649E+03  0.11043701584E+04  0.66023634121E+03 0.  0.
         13    1    3    3    0    0  0.21726863317E+03  0.70408315238E+01 -0.85407037832E+03  0.88130099478E+03  0.00000000000E+00 0.  1.
          1    1    3    3  501    0 -0.22058191418E+03 -0.11422247497E+02 -0.31192998172E+02  0.22306916357E+03  0.00000000000E+00 0.  1.
         21    1    1    2  502  501  0.33132810095E+01  0.43814159731E+01 -0.37278359438E+01  0.66386292110E+01  0.00000000000E+00 0.  1.
<mgrwt>
<rscale>  1 0.66025919E+03</rscale>
<asrwt>0</asrwt>
<pdfrwt beam="1">  1        1 0.40366917E+00 0.66025919E+03</pdfrwt>
<pdfrwt beam="2">0</pdfrwt>
<totfact> 0.12858662E+00</totfact>
</mgrwt>
</event>
<event>
 6    1  0.5467084E-003  0.6599133E+03  0.7818608E-02  0.9788353E-01
          1   -1    0    0  502    0  0.00000000000E+00  0.00000000000E+00  0.10890143548E+03  0.10890143548E+03  0.00000000000E+00 0.  1.
         13   -1    0    0    0    0 -0.00000000000E+00 -0.00000000000E+00 -0.10000000000E+04  0.10000000000E+04  0.00000000000E+00 0.  1.
    9000005    2    1    2  501    0 -0.47331148392E-03 -0.75930006682E-03 -0.89112861097E+03  0.11088713757E+04  0.65991327202E+03 0.  0.
         13    1    3    3    0    0 -0.25301105341E+03  0.20458904052E+03 -0.53760082704E+03  0.62839948909E+03  0.00000000000E+00 0.  1.
          3    1    3    3  501    0  0.25301058010E+03 -0.20458979982E+03 -0.35352778393E+03  0.48047188663E+03  0.00000000000E+00 0.  1.
         21    1    1    2  502  501  0.47331148392E-03  0.75930006682E-03  0.30046445348E-01  0.30059764444E-01  0.00000000000E+00 0. -1.
<mgrwt>
<rscale>  1 0.65991327E+03</rscale>
<asrwt>0</asrwt>
<pdfrwt beam="1">  1        1 0.39600605E+00 0.65991327E+03</pdfrwt>
<pdfrwt beam="2">0</pdfrwt>
<totfact> 0.13912019E+00</totfact>
</mgrwt>
</event>
<event>
 6    1  0.5467084E-003  0.6466344E+03  0.7818608E-02  0.9813115E-01
          1   -1    0    0  502    0  0.00000000000E+00  0.00000000000E+00  0.11524729906E+03  0.11524729906E+03  0.00000000000E+00 0.  1.
         13   -1    0    0    0    0 -0.00000000000E+00 -0.00000000000E+00 -0.10000000000E+04  0.10000000000E+04  0.00000000000E+00 0.  1.
    9000005    2    1    2  501    0  0.89883812514E+01 -0.76334600394E+01 -0.89175878466E+03  0.11015306698E+04  0.64652689482E+03 0.  0.
         13    1    3    3    0    0 -0.33878912407E+02  0.23188672653E+03 -0.81250028565E+03  0.84562163456E+03  0.00000000000E+00 0.  1.
          3    1    3    3  501    0  0.42867293659E+02 -0.23952018657E+03 -0.79258499011E+02  0.25590903522E+03  0.00000000000E+00 0.  1.
         21    1    1    2  502  501 -0.89883812514E+01  0.76334600394E+01  0.70060837223E+01  0.13716629280E+02  0.00000000000E+00 0.  1.
<mgrwt>
<rscale>  1 0.64663443E+03</rscale>
<asrwt>0</asrwt>
<pdfrwt beam="1">  1        1 0.41908197E+00 0.64663443E+03</pdfrwt>
<pdfrwt beam="2">0</pdfrwt>
<totfact> 0.10994728E+00</totfact>
</mgrwt>
</event>
<event>
 6    1  0.5467084E-003  0.6613384E+03  0.7818608E-02  0.9785733E-01
          1   -1    0    0  502    0  0.00000000000E+00  0.00000000000E+00  0.11026772398E+03  0.11026772398E+03  0.00000000000E+00 0.  1.
         13   -1    0    0    0    0 -0.00000000000E+00 -0.00000000000E+00 -0.10000000000E+04  0.10000000000E+04  0.00000000000E+00 0.  1.
    9000005    2    1    2  501    0  0.56378826845E+00 -0.81752086520E+00 -0.89035246624E+03  0.11090968980E+04  0.66133760577E+03 0.  0.
         13    1    3    3    0    0  0.18306573682E+03  0.19053188114E+03 -0.77826377147E+03  0.82189412926E+03  0.00000000000E+00 0.  1.
          1    1    3    3  501    0 -0.18250194855E+03 -0.19134940201E+03 -0.11208869476E+03  0.28720276873E+03  0.00000000000E+00 0.  1.
         21    1    1    2  502  501 -0.56378826845E+00  0.81752086520E+00  0.62019021890E+00  0.11708259838E+01  0.00000000000E+00 0.  1.
<mgrwt>
<rscale>  1 0.66133835E+03</rscale>
<asrwt>0</asrwt>
<pdfrwt beam="1">  1        1 0.40097439E+00 0.66133835E+03</pdfrwt>
<pdfrwt beam="2">0</pdfrwt>
<totfact> 0.13217180E+00</totfact>
</mgrwt>
</event>
<event>
 6    1  0.5467084E-003  0.6465245E+03  0.7818608E-02  0.9813323E-01
          1   -1    0    0  502    0  0.00000000000E+00  0.00000000000E+00  0.11426944481E+03  0.11426944481E+03  0.00000000000E+00 0.  1.
         13   -1    0    0    0    0 -0.00000000000E+00 -0.00000000000E+00 -0.10000000000E+04  0.10000000000E+04  0.00000000000E+00 0.  1.
    9000005    2    1    2  501    0  0.14083464911E+02 -0.21779157548E+02 -0.87003726609E+03  0.10839551741E+04  0.64600410163E+03 0.  0.
         13    1    3    3    0    0  0.34622041693E+02 -0.27713941153E+03 -0.75141141765E+03  0.80163835847E+03  0.00000000000E+00 0.  1.
          3    1    3    3  501    0 -0.20538576782E+02  0.25536025398E+03 -0.11862584843E+03  0.28231681560E+03  0.00000000000E+00 0.  1.
         21    1    1    2  502  501 -0.14083464911E+02  0.21779157548E+02 -0.15693289106E+02  0.30314270738E+02  0.00000000000E+00 0. -1.
<mgrwt>
<rscale>  1 0.64652454E+03</rscale>
<asrwt>0</asrwt>
<pdfrwt beam="1">  1        1 0.41552613E+00 0.64652454E+03</pdfrwt>
<pdfrwt beam="2">0</pdfrwt>
<totfact> 0.11407800E+00</totfact>
</mgrwt>
</event>
<event>
 6    1  0.5467084E-003  0.6830069E+03  0.7818608E-02  0.9746742E-01
          1   -1    0    0  502    0  0.00000000000E+00  0.00000000000E+00  0.11664415086E+03  0.11664415086E+03  0.00000000000E+00 0.  1.
         13   -1    0    0    0    0 -0.00000000000E+00 -0.00000000000E+00 -0.10000000000E+04  0.10000000000E+04  0.00000000000E+00 0.  1.
    9000005    2    1    2  501    0 -0.84625726360E-02 -0.10591396028E-01 -0.88337272515E+03  0.11166225039E+04  0.68300691388E+03 0.  0.
         13    1    3    3    0    0  0.27096849668E+03 -0.18861016747E+03 -0.29891263566E+03  0.44536107286E+03  0.00000000000E+00 0.  1.
          3    1    3    3  501    0 -0.27097695925E+03  0.18859957608E+03 -0.58446008949E+03  0.67126143100E+03  0.00000000000E+00 0.  1.
         21    1    1    2  502  501  0.84625726360E-02  0.10591396028E-01  0.16876007152E-01  0.21646995700E-01  0.00000000000E+00 0. -1.
<mgrwt>
<rscale>  1 0.68300691E+03</rscale>
<asrwt>0</asrwt>
<pdfrwt beam="1">  1        1 0.42416144E+00 0.68300691E+03</pdfrwt>
<pdfrwt beam="2">0</pdfrwt>
<totfact> 0.10355454E+00</totfact>
</mgrwt>
</event>
<event>
 6    1  0.5467084E-003  0.6461692E+03  0.7818608E-02  0.9813994E-01
          1   -1    0    0  502    0  0.00000000000E+00  0.00000000000E+00  0.10707035271E+03  0.10707035271E+03  0.00000000000E+00 0.  1.
         13   -1    0    0    0    0 -0.00000000000E+00 -0.00000000000E+00 -0.10000000000E+04  0.10000000000E+04  0.00000000000E+00 0.  1.
    9000005    2    1    2  501    0  0.11281949917E+01  0.26188883544E+00 -0.89547781447E+03  0.11042713233E+04  0.64616816529E+03 0.  0.
         13    1    3    3    0    0 -0.86050707689E+02  0.29862023904E+03 -0.29690842800E+03  0.42980621921E+03  0.00000000000E+00 0.  1.
          3    1    3    3  501    0  0.87178902681E+02 -0.29835835020E+03 -0.59856938646E+03  0.67446510408E+03  0.00000000000E+00 0.  1.
         21    1    1    2  502  501 -0.11281949917E+01 -0.26188883544E+00  0.25481671781E+01  0.27990294155E+01  0.00000000000E+00 0. -1.
<mgrwt>
<rscale>  1 0.64616920E+03</rscale>
<asrwt>0</asrwt>
<pdfrwt beam="1">  1        1 0.38934756E+00 0.64616920E+03</pdfrwt>
<pdfrwt beam="2">0</pdfrwt>
<totfact> 0.14930448E+00</totfact>
</mgrwt>
</event>
<event>
 6    1  0.5467084E-003  0.6494954E+03  0.7818608E-02  0.9807726E-01
          1   -1    0    0  502    0  0.00000000000E+00  0.00000000000E+00  0.11747087194E+03  0.11747087194E+03  0.00000000000E+00 0.  1.
         13   -1    0    0    0    0 -0.00000000000E+00 -0.00000000000E+00 -0.10000000000E+04  0.10000000000E+04  0.00000000000E+00 0.  1.
    9000005    2    1    2  501    0 -0.18479475409E+00  0.24738619568E-01 -0.89453811559E+03  0.11054604372E+04  0.64949542201E+03 0.  0.
         13    1    3    3    0    0 -0.28567528811E+03 -0.13164793369E+02 -0.70956938978E+03  0.76503098037E+03  0.00000000000E+00 0.  1.
          3    1    3    3  501    0  0.28549049335E+03  0.13189531989E+02 -0.18496872581E+03  0.34042945683E+03  0.00000000000E+00 0.  1.
         21    1    1    2  502  501  0.18479475409E+00 -0.24738619568E-01  0.12008987531E+02  0.12010434739E+02  0.00000000000E+00 0.  1.
<mgrwt>
<rscale>  1 0.64949545E+03</rscale>
<asrwt>0</asrwt>
<pdfrwt beam="1">  1        1 0.42716771E+00 0.64949545E+03</pdfrwt>
<pdfrwt beam="2">0</pdfrwt>
<totfact> 0.10101824E+00</totfact>
</mgrwt>
</event>
<event>
 6    1  0.5467084E-003  0.6264109E+03  0.7818608E-02  0.9852078E-01
          1   -1    0    0  502    0  0.00000000000E+00  0.00000000000E+00  0.98097666395E+02  0.98097666395E+02  0.00000000000E+00 0.  1.
         13   -1    0    0    0    0 -0.00000000000E+00 -0.00000000000E+00 -0.10000000000E+04  0.10000000000E+04  0.00000000000E+00 0.  1.
    9000005    2    1    2  501    0  0.13361855736E-04  0.37952352159E-05 -0.90190235827E+03  0.10980976381E+04  0.62641085472E+03 0.  0.
         13    1    3    3    0    0  0.37918971198E+02  0.27067199382E+03 -0.18281414840E+03  0.32881938731E+03  0.00000000000E+00 0.  1.
          1    1    3    3  501    0 -0.37918957836E+02 -0.27067199002E+03 -0.71908820987E+03  0.76927825078E+03  0.00000000000E+00 0.  1.
         21    1    1    2  502  501 -0.13361855739E-04 -0.37952351789E-05  0.24667260337E-04  0.28309304679E-04  0.00000000000E+00 0.  1.
<mgrwt>
<rscale>  1 0.62641085E+03</rscale>
<asrwt>0</asrwt>
<pdfrwt beam="1">  1        1 0.35671954E+00 0.62641085E+03</pdfrwt>
<pdfrwt beam="2">0</pdfrwt>
<totfact> 0.20852035E+00</totfact>
</mgrwt>
</event>
<event>
 6    1  0.5467084E-003  0.6574859E+03  0.7818608E-02  0.9792833E-01
          1   -1    0    0  502    0  0.00000000000E+00  0.00000000000E+00  0.10814647518E+03  0.10814647518E+03  0.00000000000E+00 0.  1.
         13   -1    0    0    0    0 -0.00000000000E+00 -0.00000000000E+00 -0.10000000000E+04  0.10000000000E+04  0.00000000000E+00 0.  1.
    9000005    2    1    2  501    0  0.32345063305E-02  0.23367186953E-02 -0.89192800459E+03  0.11080718886E+04  0.65748592754E+03 0.  0.
         13    1    3    3    0    0  0.12293013656E+03  0.16431006845E+03 -0.87881021743E+03  0.90245056116E+03  0.00000000000E+00 0.  1.
          1    1    3    3  501    0 -0.12292690206E+03 -0.16430773174E+03 -0.13117787157E+02  0.20562132744E+03  0.00000000000E+00 0.  1.
         21    1    1    2  502  501 -0.32345063305E-02 -0.23367186953E-02  0.74479766958E-01  0.74586580372E-01  0.00000000000E+00 0. -1.
<mgrwt>
<rscale>  1 0.65748593E+03</rscale>
<asrwt>0</asrwt>
<pdfrwt beam="1">  1        1 0.39326074E+00 0.65748593E+03</pdfrwt>
<pdfrwt beam="2">0</pdfrwt>
<totfact> 0.14315017E+00</totfact>
</mgrwt>
</event>
<event>
 6    1  0.5467084E-003  0.6514687E+03  0.7818608E-02  0.9804027E-01
          1   -1    0    0  502    0  0.00000000000E+00  0.00000000000E+00  0.10621675293E+03  0.10621675293E+03  0.00000000000E+00 0.  1.
         13   -1    0    0    0    0 -0.00000000000E+00 -0.00000000000E+00 -0.10000000000E+04  0.10000000000E+04  0.00000000000E+00 0.  1.
    9000005    2    1    2  501    0  0.28194762262E-02 -0.99740229456E-03 -0.89389710730E+03  0.11061028534E+04  0.65146871291E+03 0.  0.
         13    1    3    3    0    0 -0.20553306306E+03 -0.17199361227E+03 -0.76128955071E+03  0.80708575919E+03  0.00000000000E+00 0.  1.
          3    1    3    3  501    0  0.20553588254E+03  0.17199261487E+03 -0.13260755660E+03  0.29901709423E+03  0.00000000000E+00 0.  1.
         21    1    1    2  502  501 -0.28194762262E-02  0.99740229456E-03  0.11386023674E+00  0.11389950732E+00  0.00000000000E+00 0.  1.
<mgrwt>
<rscale>  1 0.65146871E+03</rscale>
<asrwt>0</asrwt>
<pdfrwt beam="1">  1        1 0.38624355E+00 0.65146871E+03</pdfrwt>
<pdfrwt beam="2">0</pdfrwt>
<totfact> 0.15395441E+00</totfact>
</mgrwt>
</event>
<event>
 6    1  0.5467084E-003  0.6390104E+03  0.7818608E-02  0.9827622E-01
          1   -1    0    0  502    0  0.00000000000E+00  0.00000000000E+00  0.10209402413E+03  0.10209402413E+03  0.00000000000E+00 0.  1.
         13   -1    0    0    0    0 -0.00000000000E+00 -0.00000000000E+00 -0.10000000000E+04  0.10000000000E+04  0.00000000000E+00 0.  1.
    9000005    2    1    2  501    0  0.15679914001E-01 -0.90058321508E-02 -0.89790699277E+03  0.11020759134E+04  0.63901044662E+03 0.  0.
         13    1    3    3    0    0 -0.22784863633E+03 -0.22080602318E+03 -0.51375003540E+03  0.60382894915E+03  0.00000000000E+00 0.  1.
          1    1    3    3  501    0  0.22786431624E+03  0.22079701735E+03 -0.38415695737E+03  0.49824696425E+03  0.00000000000E+00 0.  1.
         21    1    1    2  502  501 -0.15679914001E-01  0.90058321508E-02  0.10169040595E-02  0.18110737414E-01  0.00000000000E+00 0.  1.
<mgrwt>
<rscale>  1 0.63901045E+03</rscale>
<asrwt>0</asrwt>
<pdfrwt beam="1">  1        1 0.37125178E+00 0.63901045E+03</pdfrwt>
<pdfrwt beam="2">0</pdfrwt>
<totfact> 0.17967835E+00</totfact>
</mgrwt>
</event>
<event>
 6    1  0.5467084E-003  0.6387133E+03  0.7818608E-02  0.9828191E-01
          1   -1    0    0  502    0  0.00000000000E+00  0.00000000000E+00  0.10198980254E+03  0.10198980254E+03  0.00000000000E+00 0.  1.
         13   -1    0    0    0    0 -0.00000000000E+00 -0.00000000000E+00 -0.10000000000E+04  0.10000000000E+04  0.00000000000E+00 0.  1.
    9000005    2    1    2  501    0 -0.37035779300E-04  0.22873574011E-04 -0.89801131688E+03  0.11019886823E+04  0.63871333993E+03 0.  0.
         13    1    3    3    0    0  0.12303707867E+03  0.14153256015E+03 -0.30194401849E+01  0.18755987132E+03  0.00000000000E+00 0.  1.
          3    1    3    3  501    0 -0.12303711570E+03 -0.14153253728E+03 -0.89499187670E+03  0.91442881095E+03  0.00000000000E+00 0.  1.
         21    1    1    2  502  501  0.37035779300E-04 -0.22873574024E-04  0.11194232827E-02  0.11202693137E-02  0.00000000000E+00 0.  1.
<mgrwt>
<rscale>  1 0.63871334E+03</rscale>
<asrwt>0</asrwt>
<pdfrwt beam="1">  1        1 0.37087279E+00 0.63871334E+03</pdfrwt>
<pdfrwt beam="2">0</pdfrwt>
<totfact> 0.18037839E+00</totfact>
</mgrwt>
</event>
<event>
 6    1  0.5467084E-003  0.6105169E+03  0.7818608E-02  0.9883824E-01
          1   -1    0    0  502    0  0.00000000000E+00  0.00000000000E+00  0.93244881362E+02  0.93244881362E+02  0.00000000000E+00 0.  1.
         13   -1    0    0    0    0 -0.00000000000E+00 -0.00000000000E+00 -0.10000000000E+04  0.10000000000E+04  0.00000000000E+00 0.  1.
    9000005    2    1    2  501    0  0.13871336768E-01  0.93729227359E-03 -0.90681641871E+03  0.10931820244E+04  0.61051692944E+03 0.  0.
         13    1    3    3    0    0 -0.27602481467E+03 -0.12194646955E+03 -0.37098995448E+03  0.47821980937E+03  0.00000000000E+00 0.  1.
          3    1    3    3  501    0  0.27603868600E+03  0.12194740684E+03 -0.53582646423E+03  0.61496221508E+03  0.00000000000E+00 0.  1.
         21    1    1    2  502  501 -0.13871336768E-01 -0.93729227359E-03  0.61300074279E-01  0.62856913757E-01  0.00000000000E+00 0. -1.
<mgrwt>
<rscale>  1 0.61051693E+03</rscale>
<asrwt>0</asrwt>
<pdfrwt beam="1">  1        1 0.33907301E+00 0.61051693E+03</pdfrwt>
<pdfrwt beam="2">0</pdfrwt>
<totfact> 0.24958716E+00</totfact>
</mgrwt>
</event>
