<event>
 6    1  0.1176956E-001  0.5919964E+03  0.7818608E-02  0.9922152E-01
          1   -1    0    0  502    0  0.00000000000E+00  0.00000000000E+00  0.87614930655E+02  0.87614930655E+02  0.00000000000E+00 0.  1.
         13   -1    0    0    0    0 -0.00000000000E+00 -0.00000000000E+00 -0.10000000000E+04  0.10000000000E+04  0.00000000000E+00 0.  1.
    9000005    2    1    2  501    0 -0.12275148720E-06 -0.80707138750E-06 -0.91238507004E+03  0.10876149296E+04  0.59199638431E+03 0.  0.
         13    1    3    3    0    0 -0.24482901951E+03  0.15029085966E+03 -0.32516615837E+03  0.43389125578E+03  0.00000000000E+00 0.  1.
          1    1    3    3  501    0  0.24482901939E+03 -0.15029086046E+03 -0.58721891166E+03  0.65372367380E+03  0.00000000000E+00 0.  1.
         21    1    1    2  502  501  0.12275149235E-06  0.80707137100E-06  0.69204145482E-06  0.10702118958E-05  0.00000000000E+00 0. -1.
<mgrwt>
<rscale>  1 0.59199638E+03</rscale>
<asrwt>0</asrwt>
<pdfrwt beam="1">  1        1 0.31860042E+00 0.59199638E+03</pdfrwt>
<pdfrwt beam="2">0</pdfrwt>
<totfact> 0.30712608E+00</totfact>
</mgrwt>
</event>
<event>
 6    1  0.1176956E-001  0.6419661E+03  0.7818608E-02  0.9821972E-01
          1   -1    0    0  502    0  0.00000000000E+00  0.00000000000E+00  0.10305466327E+03  0.10305466327E+03  0.00000000000E+00 0.  1.
         13   -1    0    0    0    0 -0.00000000000E+00 -0.00000000000E+00 -0.10000000000E+04  0.10000000000E+04  0.00000000000E+00 0.  1.
    9000005    2    1    2  501    0  0.66917050799E-01  0.23359081308E-02 -0.89690186671E+03  0.11029748323E+04  0.64196613431E+03 0.  0.
         13    1    3    3    0    0 -0.26761430803E+03 -0.16336506311E+03 -0.56627813359E+03  0.64728393020E+03  0.00000000000E+00 0.  1.
          3    1    3    3  501    0  0.26768122508E+03  0.16336739902E+03 -0.33062373311E+03  0.45569090206E+03  0.00000000000E+00 0.  1.
         21    1    1    2  502  501 -0.66917050799E-01 -0.23359081308E-02 -0.43470022147E-01  0.79831015150E-01  0.00000000000E+00 0. -1.
<mgrwt>
<rscale>  1 0.64196614E+03</rscale>
<asrwt>0</asrwt>
<pdfrwt beam="1">  1        1 0.37474502E+00 0.64196614E+03</pdfrwt>
<pdfrwt beam="2">0</pdfrwt>
<totfact> 0.17334001E+00</totfact>
</mgrwt>
</event>
<event>
 6    1  0.1176956E-001  0.6516807E+03  0.7818608E-02  0.9803630E-01
          1   -1    0    0  502    0  0.00000000000E+00  0.00000000000E+00  0.10617195029E+03  0.10617195029E+03  0.00000000000E+00 0.  1.
         13   -1    0    0    0    0 -0.00000000000E+00 -0.00000000000E+00 -0.10000000000E+04  0.10000000000E+04  0.00000000000E+00 0.  1.
    9000005    2    1    2  501    0 -0.15886359961E-06  0.96797049309E-06 -0.89382804974E+03  0.11061719493E+04  0.65168074924E+03 0.  0.
         13    1    3    3    0    0  0.10050166496E+03  0.15330467510E+03  0.10346218662E+02  0.18360270234E+03  0.00000000000E+00 0.  1.
          3    1    3    3  501    0 -0.10050166512E+03 -0.15330467413E+03 -0.90417426841E+03  0.92256924697E+03  0.00000000000E+00 0.  1.
         21    1    1    2  502  501  0.15886361042E-06 -0.96797048708E-06  0.37032469024E-07  0.98161902708E-06  0.00000000000E+00 0. -1.
<mgrwt>
<rscale>  1 0.65168075E+03</rscale>
<asrwt>0</asrwt>
<pdfrwt beam="1">  1        1 0.38608063E+00 0.65168075E+03</pdfrwt>
<pdfrwt beam="2">0</pdfrwt>
<totfact> 0.15420420E+00</totfact>
</mgrwt>
</event>
<event>
 6    1  0.1176956E-001  0.5273097E+03  0.7818608E-02  0.1006887E+00
          1   -1    0    0  502    0  0.00000000000E+00  0.00000000000E+00  0.70085633241E+02  0.70085633241E+02  0.00000000000E+00 0.  1.
         13   -1    0    0    0    0 -0.00000000000E+00 -0.00000000000E+00 -0.10000000000E+04  0.10000000000E+04  0.00000000000E+00 0.  1.
    9000005    2    1    2  501    0 -0.91690647932E-01  0.72025283891E-01 -0.93047976549E+03  0.10695083374E+04  0.52730965865E+03 0.  0.
         13    1    3    3    0    0  0.30007765233E+02  0.50157296977E+02  0.56209165740E+02  0.81090632798E+02  0.00000000000E+00 0.  1.
          1    1    3    3  501    0 -0.30099455881E+02 -0.50085271694E+02 -0.98668893123E+03  0.98841770456E+03  0.00000000000E+00 0.  1.
         21    1    1    2  502  501  0.91690647932E-01 -0.72025283891E-01  0.56539872705E+00  0.57729588340E+00  0.00000000000E+00 0.  1.
<mgrwt>
<rscale>  1 0.52730967E+03</rscale>
<asrwt>0</asrwt>
<pdfrwt beam="1">  1        1 0.25485739E+00 0.52730967E+03</pdfrwt>
<pdfrwt beam="2">0</pdfrwt>
<totfact> 0.58558405E+00</totfact>
</mgrwt>
</event>
<event>
 6    1  0.1176956E-001  0.5933425E+03  0.7818608E-02  0.9919315E-01
          1   -1    0    0  502    0  0.00000000000E+00  0.00000000000E+00  0.88043607094E+02  0.88043607094E+02  0.00000000000E+00 0.  1.
         13   -1    0    0    0    0 -0.00000000000E+00 -0.00000000000E+00 -0.10000000000E+04  0.10000000000E+04  0.00000000000E+00 0.  1.
    9000005    2    1    2  501    0  0.21418908425E-03  0.60349157025E-03 -0.91198615266E+03  0.10880138405E+04  0.59334254387E+03 0.  0.
         13    1    3    3    0    0  0.36028208812E+02  0.28450098384E+03 -0.59534507209E+03  0.66081358680E+03  0.00000000000E+00 0.  1.
          1    1    3    3  501    0 -0.36027994623E+02 -0.28450038035E+03 -0.31664108057E+03  0.42720025365E+03  0.00000000000E+00 0.  1.
         21    1    1    2  502  501 -0.21418908425E-03 -0.60349157025E-03  0.29759755363E-01  0.29766644391E-01  0.00000000000E+00 0. -1.
<mgrwt>
<rscale>  1 0.59334254E+03</rscale>
<asrwt>0</asrwt>
<pdfrwt beam="1">  1        1 0.32015925E+00 0.59334254E+03</pdfrwt>
<pdfrwt beam="2">0</pdfrwt>
<totfact> 0.30232422E+00</totfact>
</mgrwt>
</event>
