<event>
 6    1  0.4233639E-003  0.6041023E+03  0.7818608E-02  0.9896932E-01
          1   -1    0    0  502    0  0.00000000000E+00  0.00000000000E+00  0.92071769140E+02  0.92071769140E+02  0.00000000000E+00 0.  1.
         13   -1    0    0    0    0 -0.00000000000E+00 -0.00000000000E+00 -0.10000000000E+04  0.10000000000E+04  0.00000000000E+00 0.  1.
    9000005    2    1    2  501    0  0.13739857998E-01 -0.25941751587E-01 -0.90876483316E+03  0.10912346520E+04  0.60410226186E+03 0.  0.
         13    1    3    3    0    0  0.49961089779E+02  0.20976190397E+03 -0.83642600390E+03  0.86377348121E+03  0.00000000000E+00 0.  1.
          3    1    3    3  501    0 -0.49947349921E+02 -0.20978784573E+03 -0.72338829263E+02  0.22746117075E+03  0.00000000000E+00 0.  1.
         21    1    1    2  502  501 -0.13739857998E-01  0.25941751587E-01  0.83660230231E+00  0.83711717842E+00  0.00000000000E+00 0. -1.
<mgrwt>
<rscale>  1 0.60410226E+03</rscale>
<asrwt>0</asrwt>
<pdfrwt beam="1">  1        1 0.33480714E+00 0.60410226E+03</pdfrwt>
<pdfrwt beam="2">0</pdfrwt>
<totfact> 0.26075164E+00</totfact>
</mgrwt>
</event>
<event>
 6    1  0.4233639E-003  0.6772006E+03  0.7818608E-02  0.9757037E-01
          1   -1    0    0  502    0  0.00000000000E+00  0.00000000000E+00  0.11865232983E+03  0.11865232983E+03  0.00000000000E+00 0.  1.
         13   -1    0    0    0    0 -0.00000000000E+00 -0.00000000000E+00 -0.10000000000E+04  0.10000000000E+04  0.00000000000E+00 0.  1.
    9000005    2    1    2  501    0 -0.63708825782E+01 -0.96080189471E+01 -0.86974413061E+03  0.11022955483E+04  0.67710244483E+03 0.  0.
         13    1    3    3    0    0 -0.32155678266E+03 -0.77704525387E+02 -0.58525591711E+03  0.67228063058E+03  0.00000000000E+00 0.  1.
          1    1    3    3  501    0  0.31518590009E+03  0.68096506440E+02 -0.28448821350E+03  0.43001491767E+03  0.00000000000E+00 0.  1.
         21    1    1    2  502  501  0.63708825782E+01  0.96080189471E+01 -0.11603539568E+02  0.16356781573E+02  0.00000000000E+00 0.  1.
<mgrwt>
<rscale>  1 0.67720058E+03</rscale>
<asrwt>0</asrwt>
<pdfrwt beam="1">  1        1 0.43146393E+00 0.67720058E+03</pdfrwt>
<pdfrwt beam="2">0</pdfrwt>
<totfact> 0.96054983E-01</totfact>
</mgrwt>
</event>
<event>
 6    1  0.4233639E-003  0.6524811E+03  0.7818608E-02  0.9802135E-01
          1   -1    0    0  502    0  0.00000000000E+00  0.00000000000E+00  0.10643322127E+03  0.10643322127E+03  0.00000000000E+00 0.  1.
         13   -1    0    0    0    0 -0.00000000000E+00 -0.00000000000E+00 -0.10000000000E+04  0.10000000000E+04  0.00000000000E+00 0.  1.
    9000005    2    1    2  501    0 -0.12252999937E-04  0.17194830804E-06 -0.89356709740E+03  0.11064329024E+04  0.65248111841E+03 0.  0.
         13    1    3    3    0    0 -0.19587354926E+03  0.12636668850E+02 -0.88867304882E+03  0.91009116048E+03  0.00000000000E+00 0.  1.
          3    1    3    3  501    0  0.19587353700E+03 -0.12636668678E+02 -0.48940485817E+01  0.19634174188E+03  0.00000000000E+00 0.  1.
         21    1    1    2  502  501  0.12252999945E-04 -0.17194830744E-06  0.31866484593E-03  0.31890037567E-03  0.00000000000E+00 0. -1.
<mgrwt>
<rscale>  1 0.65248112E+03</rscale>
<asrwt>0</asrwt>
<pdfrwt beam="1">  1        1 0.38703071E+00 0.65248112E+03</pdfrwt>
<pdfrwt beam="2">0</pdfrwt>
<totfact> 0.15269546E+00</totfact>
</mgrwt>
</event>
<event>
 6    1  0.6429737E-003  0.6496445E+03  0.7818608E-02  0.9807446E-01
          1   -1    0    0  502    0  0.00000000000E+00  0.00000000000E+00  0.10550949765E+03  0.10550949765E+03  0.00000000000E+00 0.  1.
         13   -1    0    0    0    0 -0.00000000000E+00 -0.00000000000E+00 -0.10000000000E+04  0.10000000000E+04  0.00000000000E+00 0.  1.
    9000005    2    1    2  501    0  0.51300099813E-06  0.14833768773E-05 -0.89449050224E+03  0.11055094961E+04  0.64964450842E+03 0.  0.
         13    1    3    3    0    0  0.11260660509E+03 -0.30169152722E+03 -0.37481792645E+03  0.49415230759E+03  0.00000000000E+00 0.  1.
          1    1    3    3  501    0 -0.11260660457E+03  0.30169152871E+03 -0.51967257580E+03  0.61135718849E+03  0.00000000000E+00 0.  1.
         21    1    1    2  502  501 -0.51300098456E-06 -0.14833769117E-05 -0.10330547060E-06  0.15729746001E-05  0.00000000000E+00 0.  1.
<mgrwt>
<rscale>  1 0.64964451E+03</rscale>
<asrwt>0</asrwt>
<pdfrwt beam="1">  1        1 0.38367171E+00 0.64964451E+03</pdfrwt>
<pdfrwt beam="2">0</pdfrwt>
<totfact> 0.15809352E+00</totfact>
</mgrwt>
</event>
<event>
 6    1  0.4233639E-003  0.5900743E+03  0.7818608E-02  0.9926215E-01
          1   -1    0    0  502    0  0.00000000000E+00  0.00000000000E+00  0.87047057154E+02  0.87047057154E+02  0.00000000000E+00 0.  1.
         13   -1    0    0    0    0 -0.00000000000E+00 -0.00000000000E+00 -0.10000000000E+04  0.10000000000E+04  0.00000000000E+00 0.  1.
    9000005    2    1    2  501    0  0.96834445173E-05 -0.42904870838E-05 -0.91295306858E+03  0.10870469310E+04  0.59007433830E+03 0.  0.
         13    1    3    3    0    0  0.20551803511E+03 -0.93566647931E+02 -0.10667507455E+03  0.24974377247E+03  0.00000000000E+00 0.  1.
          1    1    3    3  501    0 -0.20551802542E+03  0.93566643640E+02 -0.80627799403E+03  0.83730315850E+03  0.00000000000E+00 0.  1.
         21    1    1    2  502  501 -0.96834445324E-05  0.42904870831E-05  0.12573340096E-03  0.12617870460E-03  0.00000000000E+00 0.  1.
<mgrwt>
<rscale>  1 0.59007434E+03</rscale>
<asrwt>0</asrwt>
<pdfrwt beam="1">  1        1 0.31653542E+00 0.59007434E+03</pdfrwt>
<pdfrwt beam="2">0</pdfrwt>
<totfact> 0.31361048E+00</totfact>
</mgrwt>
</event>
<event>
 6    1  0.4233639E-003  0.6479584E+03  0.7818608E-02  0.9810618E-01
          1   -1    0    0  502    0  0.00000000000E+00  0.00000000000E+00  0.10496399134E+03  0.10496399134E+03  0.00000000000E+00 0.  1.
         13   -1    0    0    0    0 -0.00000000000E+00 -0.00000000000E+00 -0.10000000000E+04  0.10000000000E+04  0.00000000000E+00 0.  1.
    9000005    2    1    2  501    0  0.57291496347E-04  0.40026605120E-03 -0.89503745738E+03  0.11049624873E+04  0.64795836913E+03 0.  0.
         13    1    3    3    0    0 -0.13505140309E+03 -0.11563443521E+03 -0.90937522208E+03  0.92659241235E+03  0.00000000000E+00 0.  1.
          3    1    3    3  501    0  0.13505146038E+03  0.11563483547E+03  0.14337764704E+02  0.17837007491E+03  0.00000000000E+00 0.  1.
         21    1    1    2  502  501 -0.57291496345E-04 -0.40026605120E-03  0.14487151769E-02  0.15040847353E-02  0.00000000000E+00 0.  1.
<mgrwt>
<rscale>  1 0.64795837E+03</rscale>
<asrwt>0</asrwt>
<pdfrwt beam="1">  1        1 0.38168805E+00 0.64795837E+03</pdfrwt>
<pdfrwt beam="2">0</pdfrwt>
<totfact> 0.16136636E+00</totfact>
</mgrwt>
</event>
<event>
 6    1  0.4233639E-003  0.6109856E+03  0.7818608E-02  0.9882873E-01
          1   -1    0    0  502    0  0.00000000000E+00  0.00000000000E+00  0.93327536142E+02  0.93327536142E+02  0.00000000000E+00 0.  1.
         13   -1    0    0    0    0 -0.00000000000E+00 -0.00000000000E+00 -0.10000000000E+04  0.10000000000E+04  0.00000000000E+00 0.  1.
    9000005    2    1    2  501    0 -0.99764272207E-03 -0.11113197511E-03 -0.90667397445E+03  0.10933257224E+04  0.61098562944E+03 0.  0.
         13    1    3    3    0    0 -0.11424507891E+03 -0.79907705930E+01 -0.96013343965E+03  0.96693950814E+03  0.00000000000E+00 0.  1.
          1    1    3    3  501    0  0.11424408127E+03  0.79906594610E+01  0.53459465197E+02  0.12638621429E+03  0.00000000000E+00 0.  1.
         21    1    1    2  502  501  0.99764272207E-03  0.11113197511E-03  0.15105968682E-02  0.18137100692E-02  0.00000000000E+00 0. -1.
<mgrwt>
<rscale>  1 0.61098563E+03</rscale>
<asrwt>0</asrwt>
<pdfrwt beam="1">  1        1 0.33937357E+00 0.61098563E+03</pdfrwt>
<pdfrwt beam="2">0</pdfrwt>
<totfact> 0.24881757E+00</totfact>
</mgrwt>
</event>
<event>
 6    1  0.4233639E-003  0.6356942E+03  0.7818608E-02  0.9833999E-01
          1   -1    0    0  502    0  0.00000000000E+00  0.00000000000E+00  0.10102732863E+03  0.10102732863E+03  0.00000000000E+00 0.  1.
         13   -1    0    0    0    0 -0.00000000000E+00 -0.00000000000E+00 -0.10000000000E+04  0.10000000000E+04  0.00000000000E+00 0.  1.
    9000005    2    1    2  501    0 -0.20985327538E-04  0.13936975762E-04 -0.89897320961E+03  0.11010267898E+04  0.63569423489E+03 0.  0.
         13    1    3    3    0    0 -0.12719772153E+03  0.19611246047E+03 -0.82252181027E+03  0.85509150732E+03  0.00000000000E+00 0.  1.
          3    1    3    3  501    0  0.12719770055E+03 -0.19611244654E+03 -0.76451399335E+02  0.24593528249E+03  0.00000000000E+00 0.  1.
         21    1    1    2  502  501  0.20985327529E-04 -0.13936975762E-04  0.53823247253E-03  0.53882169384E-03  0.00000000000E+00 0. -1.
<mgrwt>
<rscale>  1 0.63569423E+03</rscale>
<asrwt>0</asrwt>
<pdfrwt beam="1">  1        1 0.36737288E+00 0.63569423E+03</pdfrwt>
<pdfrwt beam="2">0</pdfrwt>
<totfact> 0.18697705E+00</totfact>
</mgrwt>
</event>
<event>
 6    1  0.4233639E-003  0.6825374E+03  0.7818608E-02  0.9747570E-01
          1   -1    0    0  502    0  0.00000000000E+00  0.00000000000E+00  0.11827060027E+03  0.11827060027E+03  0.00000000000E+00 0.  1.
         13   -1    0    0    0    0 -0.00000000000E+00 -0.00000000000E+00 -0.10000000000E+04  0.10000000000E+04  0.00000000000E+00 0.  1.
    9000005    2    1    2  501    0  0.86310182074E+00 -0.37265801614E+01 -0.88085952001E+03  0.11143477142E+04  0.68252670408E+03 0.  0.
         13    1    3    3    0    0  0.19338649386E+03  0.26017741998E+03 -0.60671365732E+03  0.68788958987E+03  0.00000000000E+00 0.  1.
          1    1    3    3  501    0 -0.19252339203E+03 -0.26390400014E+03 -0.27414586269E+03  0.42645812432E+03  0.00000000000E+00 0.  1.
         21    1    1    2  502  501 -0.86310182074E+00  0.37265801614E+01 -0.86987971764E+00  0.39228860773E+01  0.00000000000E+00 0.  1.
<mgrwt>
<rscale>  1 0.68253742E+03</rscale>
<asrwt>0</asrwt>
<pdfrwt beam="1">  1        1 0.43007582E+00 0.68253742E+03</pdfrwt>
<pdfrwt beam="2">0</pdfrwt>
<totfact> 0.97360225E-01</totfact>
</mgrwt>
</event>
<event>
 6    1  0.4233639E-003  0.6441774E+03  0.7818608E-02  0.9817767E-01
          1   -1    0    0  502    0  0.00000000000E+00  0.00000000000E+00  0.10375025913E+03  0.10375025913E+03  0.00000000000E+00 0.  1.
         13   -1    0    0    0    0 -0.00000000000E+00 -0.00000000000E+00 -0.10000000000E+04  0.10000000000E+04  0.00000000000E+00 0.  1.
    9000005    2    1    2  501    0  0.19977629679E-01 -0.32785949139E-02 -0.89624430931E+03  0.11037292983E+04  0.64417738358E+03 0.  0.
         13    1    3    3    0    0 -0.20575945264E+03  0.18818498441E+03 -0.17191070599E+03  0.32757263552E+03  0.00000000000E+00 0.  1.
          1    1    3    3  501    0  0.20577943027E+03 -0.18818826301E+03 -0.72433360332E+03  0.77615666277E+03  0.00000000000E+00 0.  1.
         21    1    1    2  502  501 -0.19977629679E-01  0.32785949139E-02 -0.54315657888E-02  0.20960839180E-01  0.00000000000E+00 0. -1.
<mgrwt>
<rscale>  1 0.64417738E+03</rscale>
<asrwt>0</asrwt>
<pdfrwt beam="1">  1        1 0.37727447E+00 0.64417738E+03</pdfrwt>
<pdfrwt beam="2">0</pdfrwt>
<totfact> 0.16888210E+00</totfact>
</mgrwt>
</event>
<event>
 6    1  0.4233639E-003  0.6413573E+03  0.7818608E-02  0.9823133E-01
          1   -1    0    0  502    0  0.00000000000E+00  0.00000000000E+00  0.10283494783E+03  0.10283494783E+03  0.00000000000E+00 0.  1.
         13   -1    0    0    0    0 -0.00000000000E+00 -0.00000000000E+00 -0.10000000000E+04  0.10000000000E+04  0.00000000000E+00 0.  1.
    9000005    2    1    2  501    0 -0.40361945935E-04  0.34485413607E-04 -0.89716518270E+03  0.11028348069E+04  0.64135734681E+03 0.  0.
         13    1    3    3    0    0 -0.72571667208E+02  0.31072071015E+03 -0.39364312351E+03  0.50672370705E+03  0.00000000000E+00 0.  1.
          1    1    3    3  501    0  0.72571626846E+02 -0.31072067566E+03 -0.50352205918E+03  0.59611109987E+03  0.00000000000E+00 0.  1.
         21    1    1    2  502  501  0.40361945934E-04 -0.34485413610E-04  0.13052284649E-03  0.14090615277E-03  0.00000000000E+00 0.  1.
<mgrwt>
<rscale>  1 0.64135735E+03</rscale>
<asrwt>0</asrwt>
<pdfrwt beam="1">  1        1 0.37394605E+00 0.64135735E+03</pdfrwt>
<pdfrwt beam="2">0</pdfrwt>
<totfact> 0.17476844E+00</totfact>
</mgrwt>
</event>
<event>
 6    1  0.4233639E-003  0.6589226E+03  0.7818608E-02  0.9790179E-01
          1   -1    0    0  502    0  0.00000000000E+00  0.00000000000E+00  0.11208262713E+03  0.11208262713E+03  0.00000000000E+00 0.  1.
         13   -1    0    0    0    0 -0.00000000000E+00 -0.00000000000E+00 -0.10000000000E+04  0.10000000000E+04  0.00000000000E+00 0.  1.
    9000005    2    1    2  501    0  0.32264709439E+00  0.15804576648E+00 -0.89144514059E+03  0.11085366118E+04  0.65892249312E+03 0.  0.
         13    1    3    3    0    0  0.89754182535E+02  0.36736848194E+02  0.84009465856E+02  0.12830822129E+03  0.00000000000E+00 0.  1.
          1    1    3    3  501    0 -0.89431535441E+02 -0.36578802428E+02 -0.97545460645E+03  0.98022839051E+03  0.00000000000E+00 0.  1.
         21    1    1    2  502  501 -0.32264709439E+00 -0.15804576648E+00  0.35277677211E+01  0.35460153279E+01  0.00000000000E+00 0.  1.
<mgrwt>
<rscale>  1 0.65892259E+03</rscale>
<asrwt>0</asrwt>
<pdfrwt beam="1">  1        1 0.40757405E+00 0.65892259E+03</pdfrwt>
<pdfrwt beam="2">0</pdfrwt>
<totfact> 0.12354934E+00</totfact>
</mgrwt>
</event>
<event>
 6    1  0.4233639E-003  0.6544604E+03  0.7818608E-02  0.9798445E-01
          1   -1    0    0  502    0  0.00000000000E+00  0.00000000000E+00  0.10707960746E+03  0.10707960746E+03  0.00000000000E+00 0.  1.
         13   -1    0    0    0    0 -0.00000000000E+00 -0.00000000000E+00 -0.10000000000E+04  0.10000000000E+04  0.00000000000E+00 0.  1.
    9000005    2    1    2  501    0 -0.64838914682E-06 -0.12460575647E-05 -0.89292041132E+03  0.11070795886E+04  0.65446035372E+03 0.  0.
         13    1    3    3    0    0  0.78227705492E+02 -0.14711957232E+03 -0.92286429697E+03  0.93778582474E+03  0.00000000000E+00 0.  1.
          3    1    3    3  501    0 -0.78227706141E+02  0.14711957108E+03  0.29943885646E+02  0.16929376388E+03  0.00000000000E+00 0.  1.
         21    1    1    2  502  501  0.64838914442E-06  0.12460575662E-05  0.18780180280E-04  0.18832637609E-04  0.00000000000E+00 0.  1.
<mgrwt>
<rscale>  1 0.65446035E+03</rscale>
<asrwt>0</asrwt>
<pdfrwt beam="1">  1        1 0.38938121E+00 0.65446035E+03</pdfrwt>
<pdfrwt beam="2">0</pdfrwt>
<totfact> 0.14902285E+00</totfact>
</mgrwt>
</event>
<event>
 6    1  0.4233639E-003  0.6668566E+03  0.7818608E-02  0.9775653E-01
          3   -1    0    0  502    0  0.00000000000E+00  0.00000000000E+00  0.11128499822E+03  0.11128499822E+03  0.00000000000E+00 0.  1.
         13   -1    0    0    0    0 -0.00000000000E+00 -0.00000000000E+00 -0.10000000000E+04  0.10000000000E+04  0.00000000000E+00 0.  1.
    9000005    2    1    2  501    0 -0.72268218869E-01  0.13978466596E+00 -0.88875938972E+03  0.11111214967E+04  0.66685658347E+03 0.  0.
         13    1    3    3    0    0 -0.10052289939E+03  0.10810926142E+03  0.53780945048E+02  0.15711414881E+03  0.00000000000E+00 0.  1.
          3    1    3    3  501    0  0.10045063117E+03 -0.10796947676E+03 -0.94254033477E+03  0.95400734792E+03  0.00000000000E+00 0.  1.
         21    1    1    2  502  501  0.72268218869E-01 -0.13978466596E+00  0.44387938513E-01  0.16350149046E+00  0.00000000000E+00 0. -1.
<mgrwt>
<rscale>  1 0.66685660E+03</rscale>
<asrwt>0</asrwt>
<pdfrwt beam="1">  1        3 0.40467357E+00 0.66685660E+03</pdfrwt>
<pdfrwt beam="2">0</pdfrwt>
<totfact> 0.55833727E-02</totfact>
</mgrwt>
</event>
<event>
 6    1  0.4233639E-003  0.6290819E+03  0.7818608E-02  0.9846842E-01
          1   -1    0    0  502    0  0.00000000000E+00  0.00000000000E+00  0.98936024401E+02  0.98936024401E+02  0.00000000000E+00 0.  1.
         13   -1    0    0    0    0 -0.00000000000E+00 -0.00000000000E+00 -0.10000000000E+04  0.10000000000E+04  0.00000000000E+00 0.  1.
    9000005    2    1    2  501    0 -0.78522712386E-05 -0.60749083470E-05 -0.90106397588E+03  0.10989360145E+04  0.62908193050E+03 0.  0.
         13    1    3    3    0    0 -0.12015494319E+03 -0.15427177954E+02 -0.95761378021E+03  0.96524575122E+03  0.00000000000E+00 0.  1.
          3    1    3    3  501    0  0.12015493534E+03  0.15427171880E+02  0.56549804336E+02  0.13369026325E+03  0.00000000000E+00 0.  1.
         21    1    1    2  502  501  0.78522712380E-05  0.60749083465E-05  0.27613009586E-06  0.99317129863E-05  0.00000000000E+00 0. -1.
<mgrwt>
<rscale>  1 0.62908193E+03</rscale>
<asrwt>0</asrwt>
<pdfrwt beam="1">  1        1 0.35976812E+00 0.62908193E+03</pdfrwt>
<pdfrwt beam="2">0</pdfrwt>
<totfact> 0.20212299E+00</totfact>
</mgrwt>
</event>
<event>
 6    1  0.4233639E-003  0.6463677E+03  0.7818608E-02  0.9813619E-01
          1   -1    0    0  502    0  0.00000000000E+00  0.00000000000E+00  0.10444856008E+03  0.10444856008E+03  0.00000000000E+00 0.  1.
         13   -1    0    0    0    0 -0.00000000000E+00 -0.00000000000E+00 -0.10000000000E+04  0.10000000000E+04  0.00000000000E+00 0.  1.
    9000005    2    1    2  501    0 -0.25520001020E-03 -0.25704098974E-03 -0.89555213614E+03  0.11044477753E+04  0.64636774345E+03 0.  0.
         13    1    3    3    0    0  0.21892637460E+03 -0.21516755480E+03 -0.27502011127E+03  0.41214305252E+03  0.00000000000E+00 0.  1.
          3    1    3    3  501    0 -0.21892662980E+03  0.21516729776E+03 -0.62053202486E+03  0.69230472275E+03  0.00000000000E+00 0.  1.
         21    1    1    2  502  501  0.25520001021E-03  0.25704098973E-03  0.69621547697E-03  0.78480131625E-03  0.00000000000E+00 0. -1.
<mgrwt>
<rscale>  1 0.64636774E+03</rscale>
<asrwt>0</asrwt>
<pdfrwt beam="1">  1        1 0.37981375E+00 0.64636774E+03</pdfrwt>
<pdfrwt beam="2">0</pdfrwt>
<totfact> 0.16451783E+00</totfact>
</mgrwt>
</event>
<event>
 6    1  0.4233639E-003  0.6180010E+03  0.7818608E-02  0.9868748E-01
          1   -1    0    0  502    0  0.00000000000E+00  0.00000000000E+00  0.95499772820E+02  0.95499772820E+02  0.00000000000E+00 0.  1.
         13   -1    0    0    0    0 -0.00000000000E+00 -0.00000000000E+00 -0.10000000000E+04  0.10000000000E+04  0.00000000000E+00 0.  1.
    9000005    2    1    2  501    0 -0.11591826242E-01 -0.39883826756E-02 -0.90451643504E+03  0.10954794511E+04  0.61800100839E+03 0.  0.
         13    1    3    3    0    0 -0.29189854440E+03 -0.71562007195E+02 -0.32494533078E+03  0.44262325864E+03  0.00000000000E+00 0.  1.
          1    1    3    3  501    0  0.29188695257E+03  0.71558018812E+02 -0.57957110426E+03  0.65285619246E+03  0.00000000000E+00 0.  1.
         21    1    1    2  502  501  0.11591826242E-01  0.39883826756E-02  0.16207860335E-01  0.20321721596E-01  0.00000000000E+00 0.  1.
<mgrwt>
<rscale>  1 0.61800101E+03</rscale>
<asrwt>0</asrwt>
<pdfrwt beam="1">  1        1 0.34727263E+00 0.61800101E+03</pdfrwt>
<pdfrwt beam="2">0</pdfrwt>
<totfact> 0.22961273E+00</totfact>
</mgrwt>
</event>
<event>
 6    1  0.4233639E-003  0.6485269E+03  0.7818608E-02  0.9809547E-01
          1   -1    0    0  502    0  0.00000000000E+00  0.00000000000E+00  0.10574372011E+03  0.10574372011E+03  0.00000000000E+00 0.  1.
         13   -1    0    0    0    0 -0.00000000000E+00 -0.00000000000E+00 -0.10000000000E+04  0.10000000000E+04  0.00000000000E+00 0.  1.
    9000005    2    1    2  501    0 -0.29490671387E+00 -0.10570730409E+00 -0.89480745734E+03  0.11051097323E+04  0.64852682017E+03 0.  0.
         13    1    3    3    0    0  0.15375532033E+03 -0.28545052996E+03 -0.45244418029E+03  0.55662234941E+03  0.00000000000E+00 0.  1.
          1    1    3    3  501    0 -0.15405022705E+03  0.28534482265E+03 -0.44236327705E+03  0.54848738285E+03  0.00000000000E+00 0.  1.
         21    1    1    2  502  501  0.29490671387E+00  0.10570730409E+00  0.55117745473E+00  0.63398784738E+00  0.00000000000E+00 0.  1.
<mgrwt>
<rscale>  1 0.64852690E+03</rscale>
<asrwt>0</asrwt>
<pdfrwt beam="1">  1        1 0.38452343E+00 0.64852690E+03</pdfrwt>
<pdfrwt beam="2">0</pdfrwt>
<totfact> 0.15676105E+00</totfact>
</mgrwt>
</event>
<event>
 6    1  0.4233639E-003  0.6401027E+03  0.7818608E-02  0.9825530E-01
          1   -1    0    0  502    0  0.00000000000E+00  0.00000000000E+00  0.10256498000E+03  0.10256498000E+03  0.00000000000E+00 0.  1.
         13   -1    0    0    0    0 -0.00000000000E+00 -0.00000000000E+00 -0.10000000000E+04  0.10000000000E+04  0.00000000000E+00 0.  1.
    9000005    2    1    2  501    0  0.88545193050E-02  0.88197119632E-02 -0.89756679640E+03  0.11024326123E+04  0.64010273433E+03 0.  0.
         13    1    3    3    0    0  0.39718161362E+02  0.18710493227E+03 -0.68335856269E+01  0.19139614916E+03  0.00000000000E+00 0.  1.
          3    1    3    3  501    0 -0.39709306843E+02 -0.18709611256E+03 -0.89073321077E+03  0.91103646313E+03  0.00000000000E+00 0.  1.
         21    1    1    2  502  501 -0.88545193050E-02 -0.88197119631E-02  0.13177639787E+00  0.13236770327E+00  0.00000000000E+00 0.  1.
<mgrwt>
<rscale>  1 0.64010273E+03</rscale>
<asrwt>0</asrwt>
<pdfrwt beam="1">  1        1 0.37296435E+00 0.64010273E+03</pdfrwt>
<pdfrwt beam="2">0</pdfrwt>
<totfact> 0.17655530E+00</totfact>
</mgrwt>
</event>
<event>
 6    1  0.4233639E-003  0.6527614E+03  0.7818608E-02  0.9801611E-01
          1   -1    0    0  502    0  0.00000000000E+00  0.00000000000E+00  0.10666362421E+03  0.10666362421E+03  0.00000000000E+00 0.  1.
         13   -1    0    0    0    0 -0.00000000000E+00 -0.00000000000E+00 -0.10000000000E+04  0.10000000000E+04  0.00000000000E+00 0.  1.
    9000005    2    1    2  501    0 -0.20350467717E-01 -0.39746943266E-02 -0.89347476817E+03  0.11065236871E+04  0.65276144828E+03 0.  0.
         13    1    3    3    0    0  0.30770472051E+02 -0.12983921827E+03  0.58174136124E+02  0.14556536218E+03  0.00000000000E+00 0.  1.
          1    1    3    3  501    0 -0.30790822518E+02  0.12983524358E+03 -0.95164890429E+03  0.96095832494E+03  0.00000000000E+00 0.  1.
         21    1    1    2  502  501  0.20350467717E-01  0.39746943266E-02  0.13839237638E+00  0.13993709148E+00  0.00000000000E+00 0. -1.
<mgrwt>
<rscale>  1 0.65276145E+03</rscale>
<asrwt>0</asrwt>
<pdfrwt beam="1">  1        1 0.38786854E+00 0.65276145E+03</pdfrwt>
<pdfrwt beam="2">0</pdfrwt>
<totfact> 0.15138854E+00</totfact>
</mgrwt>
</event>
<event>
 6    1  0.4233639E-003  0.6345707E+03  0.7818608E-02  0.9836170E-01
          1   -1    0    0  502    0  0.00000000000E+00  0.00000000000E+00  0.10067006336E+03  0.10067006336E+03  0.00000000000E+00 0.  1.
         13   -1    0    0    0    0 -0.00000000000E+00 -0.00000000000E+00 -0.10000000000E+04  0.10000000000E+04  0.00000000000E+00 0.  1.
    9000005    2    1    2  501    0 -0.23822181660E-04 -0.15538881133E-04 -0.89933001884E+03  0.11006699764E+04  0.63457065337E+03 0.  0.
         13    1    3    3    0    0 -0.34556006470E+02 -0.29147632219E+02  0.95055159184E+02  0.10525770915E+03  0.00000000000E+00 0.  1.
          1    1    3    3  501    0  0.34555982648E+02  0.29147616680E+02 -0.99438517802E+03  0.99541226724E+03  0.00000000000E+00 0.  1.
         21    1    1    2  502  501  0.23822181655E-04  0.15538881133E-04  0.82201661451E-04  0.86983138084E-04  0.00000000000E+00 0. -1.
<mgrwt>
<rscale>  1 0.63457065E+03</rscale>
<asrwt>0</asrwt>
<pdfrwt beam="1">  1        1 0.36607373E+00 0.63457065E+03</pdfrwt>
<pdfrwt beam="2">0</pdfrwt>
<totfact> 0.18948483E+00</totfact>
</mgrwt>
</event>
<event>
 6    1  0.4233639E-003  0.6478089E+03  0.7818608E-02  0.9810899E-01
          1   -1    0    0  502    0  0.00000000000E+00  0.00000000000E+00  0.10494622186E+03  0.10494622186E+03  0.00000000000E+00 0.  1.
         13   -1    0    0    0    0 -0.00000000000E+00 -0.00000000000E+00 -0.10000000000E+04  0.10000000000E+04  0.00000000000E+00 0.  1.
    9000005    2    1    2  501    0 -0.62763694720E-02  0.73785366799E-01 -0.89502929361E+03  0.11048682272E+04  0.64780888971E+03 0.  0.
         13    1    3    3    0    0  0.28439062179E+03  0.39523189847E+02 -0.19182660737E+03  0.34530791417E+03  0.00000000000E+00 0.  1.
          3    1    3    3  501    0 -0.28439689816E+03 -0.39449404480E+02 -0.70320268625E+03  0.75956031304E+03  0.00000000000E+00 0.  1.
         21    1    1    2  502  501  0.62763694720E-02 -0.73785366799E-01 -0.24484530487E-01  0.77994649820E-01  0.00000000000E+00 0.  1.
<mgrwt>
<rscale>  1 0.64780889E+03</rscale>
<asrwt>0</asrwt>
<pdfrwt beam="1">  1        1 0.38162343E+00 0.64780889E+03</pdfrwt>
<pdfrwt beam="2">0</pdfrwt>
<totfact> 0.16147685E+00</totfact>
</mgrwt>
</event>
<event>
 6    1  0.4233639E-003  0.6608029E+03  0.7818608E-02  0.9786717E-01
          3   -1    0    0  502    0  0.00000000000E+00  0.00000000000E+00  0.10916525747E+03  0.10916525747E+03  0.00000000000E+00 0.  1.
         13   -1    0    0    0    0 -0.00000000000E+00 -0.00000000000E+00 -0.10000000000E+04  0.10000000000E+04  0.00000000000E+00 0.  1.
    9000005    2    1    2  501    0  0.23731847641E-04 -0.20154796817E-03 -0.89083480027E+03  0.11091650465E+04  0.66080288964E+03 0.  0.
         13    1    3    3    0    0 -0.35549906696E+02 -0.31924703783E+03 -0.57524699286E+03  0.65885625885E+03  0.00000000000E+00 0.  1.
          3    1    3    3  501    0  0.35549930428E+02  0.31924683628E+03 -0.31558780740E+03  0.45030878762E+03  0.00000000000E+00 0.  1.
         21    1    1    2  502  501 -0.23731847642E-04  0.20154796822E-03  0.57735203798E-04  0.21099321753E-03  0.00000000000E+00 0.  1.
<mgrwt>
<rscale>  1 0.66080289E+03</rscale>
<asrwt>0</asrwt>
<pdfrwt beam="1">  1        3 0.39696541E+00 0.66080289E+03</pdfrwt>
<pdfrwt beam="2">0</pdfrwt>
<totfact> 0.61336528E-02</totfact>
</mgrwt>
</event>
<event>
 6    1  0.4233639E-003  0.6840020E+03  0.7818608E-02  0.9744989E-01
          1   -1    0    0  502    0  0.00000000000E+00  0.00000000000E+00  0.11705487479E+03  0.11705487479E+03  0.00000000000E+00 0.  1.
         13   -1    0    0    0    0 -0.00000000000E+00 -0.00000000000E+00 -0.10000000000E+04  0.10000000000E+04  0.00000000000E+00 0.  1.
    9000005    2    1    2  501    0  0.32566335563E-01 -0.40470825720E-01 -0.88302689103E+03  0.11169580032E+04  0.68400196487E+03 0.  0.
         13    1    3    3    0    0 -0.23058927186E+03 -0.14588961298E+03 -0.10483283913E+03  0.29230996499E+03  0.00000000000E+00 0.  1.
          1    1    3    3  501    0  0.23062183819E+03  0.14584914215E+03 -0.77819405190E+03  0.82464803822E+03  0.00000000000E+00 0.  1.
         21    1    1    2  502  501 -0.32566335563E-01  0.40470825720E-01  0.81765817897E-01  0.96871579542E-01  0.00000000000E+00 0.  1.
<mgrwt>
<rscale>  1 0.68400197E+03</rscale>
<asrwt>0</asrwt>
<pdfrwt beam="1">  1        1 0.42565499E+00 0.68400197E+03</pdfrwt>
<pdfrwt beam="2">0</pdfrwt>
<totfact> 0.10193464E+00</totfact>
</mgrwt>
</event>
<event>
 6    1  0.4233639E-003  0.6517890E+03  0.7818608E-02  0.9803428E-01
          1   -1    0    0  502    0  0.00000000000E+00  0.00000000000E+00  0.10620739373E+03  0.10620739373E+03  0.00000000000E+00 0.  1.
         13   -1    0    0    0    0 -0.00000000000E+00 -0.00000000000E+00 -0.10000000000E+04  0.10000000000E+04  0.00000000000E+00 0.  1.
    9000005    2    1    2  501    0  0.17955339331E-05  0.57371275091E-05 -0.89379277946E+03  0.11062072204E+04  0.65178898572E+03 0.  0.
         13    1    3    3    0    0  0.27512099188E+03  0.14569477798E+03 -0.61046757128E+03  0.68526577624E+03  0.00000000000E+00 0.  1.
          1    1    3    3  501    0 -0.27512099009E+03 -0.14569477224E+03 -0.28332520818E+03  0.42094144419E+03  0.00000000000E+00 0.  1.
         21    1    1    2  502  501 -0.17955339304E-05 -0.57371275241E-05  0.17319799775E-03  0.17330229369E-03  0.00000000000E+00 0. -1.
<mgrwt>
<rscale>  1 0.65178899E+03</rscale>
<asrwt>0</asrwt>
<pdfrwt beam="1">  1        1 0.38620952E+00 0.65178899E+03</pdfrwt>
<pdfrwt beam="2">0</pdfrwt>
<totfact> 0.15399871E+00</totfact>
</mgrwt>
</event>
<event>
 6    1  0.4233639E-003  0.6488963E+03  0.7818608E-02  0.9808852E-01
          1   -1    0    0  502    0  0.00000000000E+00  0.00000000000E+00  0.10526781205E+03  0.10526781205E+03  0.00000000000E+00 0.  1.
         13   -1    0    0    0    0 -0.00000000000E+00 -0.00000000000E+00 -0.10000000000E+04  0.10000000000E+04  0.00000000000E+00 0.  1.
    9000005    2    1    2  501    0 -0.61227708972E-03 -0.59221190114E-03 -0.89473324809E+03  0.11052664521E+04  0.64889625124E+03 0.  0.
         13    1    3    3    0    0 -0.20752431149E+03  0.19628563976E+03 -0.70943288705E+03  0.76478063094E+03  0.00000000000E+00 0.  1.
          1    1    3    3  501    0  0.20752369921E+03 -0.19628623198E+03 -0.18530036105E+03  0.34048582115E+03  0.00000000000E+00 0.  1.
         21    1    1    2  502  501  0.61227708970E-03  0.59221190112E-03  0.10601423042E-02  0.13599631891E-02  0.00000000000E+00 0.  1.
<mgrwt>
<rscale>  1 0.64889625E+03</rscale>
<asrwt>0</asrwt>
<pdfrwt beam="1">  1        1 0.38279285E+00 0.64889625E+03</pdfrwt>
<pdfrwt beam="2">0</pdfrwt>
<totfact> 0.15953572E+00</totfact>
</mgrwt>
</event>
<event>
 6    1  0.4233639E-003  0.6421129E+03  0.7818608E-02  0.9821692E-01
          1   -1    0    0  502    0  0.00000000000E+00  0.00000000000E+00  0.10308147396E+03  0.10308147396E+03  0.00000000000E+00 0.  1.
         13   -1    0    0    0    0 -0.00000000000E+00 -0.00000000000E+00 -0.10000000000E+04  0.10000000000E+04  0.00000000000E+00 0.  1.
    9000005    2    1    2  501    0 -0.31938713249E-04  0.51618454620E-04 -0.89692275765E+03  0.11030772419E+04  0.64211289383E+03 0.  0.
         13    1    3    3    0    0 -0.18882624240E+03  0.17935884242E+03 -0.77100494895E+03  0.81380192644E+03  0.00000000000E+00 0.  1.
          3    1    3    3  501    0  0.18882621046E+03 -0.17935879080E+03 -0.12591780871E+03  0.28927531548E+03  0.00000000000E+00 0.  1.
         21    1    1    2  502  501  0.31938713258E-04 -0.51618454599E-04  0.42316111600E-02  0.42320464973E-02  0.00000000000E+00 0. -1.
<mgrwt>
<rscale>  1 0.64211289E+03</rscale>
<asrwt>0</asrwt>
<pdfrwt beam="1">  1        1 0.37484251E+00 0.64211289E+03</pdfrwt>
<pdfrwt beam="2">0</pdfrwt>
<totfact> 0.17316417E+00</totfact>
</mgrwt>
</event>
<event>
 6    1  0.4233639E-003  0.6414001E+03  0.7818608E-02  0.9823052E-01
          1   -1    0    0  502    0  0.00000000000E+00  0.00000000000E+00  0.10285619695E+03  0.10285619695E+03  0.00000000000E+00 0.  1.
         13   -1    0    0    0    0 -0.00000000000E+00 -0.00000000000E+00 -0.10000000000E+04  0.10000000000E+04  0.00000000000E+00 0.  1.
    9000005    2    1    2  501    0  0.23205233950E-02 -0.82667492546E-03 -0.89715127294E+03  0.11028483314E+04  0.64140005881E+03 0.  0.
         13    1    3    3    0    0 -0.97183321616E+01 -0.24874499686E+03 -0.10092529837E+03  0.26861577633E+03  0.00000000000E+00 0.  1.
          1    1    3    3  501    0  0.97206526850E+01  0.24874417018E+03 -0.79622597457E+03  0.83423255503E+03  0.00000000000E+00 0.  1.
         21    1    1    2  502  501 -0.23205233950E-02  0.82667492545E-03  0.74698861100E-02  0.78655844510E-02  0.00000000000E+00 0. -1.
<mgrwt>
<rscale>  1 0.64140006E+03</rscale>
<asrwt>0</asrwt>
<pdfrwt beam="1">  1        1 0.37402332E+00 0.64140006E+03</pdfrwt>
<pdfrwt beam="2">0</pdfrwt>
<totfact> 0.17463032E+00</totfact>
</mgrwt>
</event>
<event>
 6    1  0.4233639E-003  0.6430138E+03  0.7818608E-02  0.9819977E-01
          1   -1    0    0  502    0  0.00000000000E+00  0.00000000000E+00  0.10336668870E+03  0.10336668870E+03  0.00000000000E+00 0.  1.
         13   -1    0    0    0    0 -0.00000000000E+00 -0.00000000000E+00 -0.10000000000E+04  0.10000000000E+04  0.00000000000E+00 0.  1.
    9000005    2    1    2  501    0  0.71931998491E-05 -0.35793379993E-06 -0.89663330801E+03  0.11033666808E+04  0.64301379707E+03 0.  0.
         13    1    3    3    0    0 -0.47107088089E+02 -0.27020534572E+03 -0.73614660936E+03  0.78558375561E+03  0.00000000000E+00 0.  1.
          3    1    3    3  501    0  0.47107095283E+02  0.27020534536E+03 -0.16048669865E+03  0.31778292517E+03  0.00000000000E+00 0.  1.
         21    1    1    2  502  501 -0.71931998460E-05  0.35793382824E-06 -0.32964835039E-05  0.79206719502E-05  0.00000000000E+00 0.  1.
<mgrwt>
<rscale>  1 0.64301380E+03</rscale>
<asrwt>0</asrwt>
<pdfrwt beam="1">  1        1 0.37587966E+00 0.64301380E+03</pdfrwt>
<pdfrwt beam="2">0</pdfrwt>
<totfact> 0.17132484E+00</totfact>
</mgrwt>
</event>
<event>
 6    1  0.4233639E-003  0.6489935E+03  0.7818608E-02  0.9808670E-01
          1   -1    0    0  502    0  0.00000000000E+00  0.00000000000E+00  0.10531186082E+03  0.10531186082E+03  0.00000000000E+00 0.  1.
         13   -1    0    0    0    0 -0.00000000000E+00 -0.00000000000E+00 -0.10000000000E+04  0.10000000000E+04  0.00000000000E+00 0.  1.
    9000005    2    1    2  501    0 -0.44753075284E-02 -0.26126764517E-01 -0.89468597010E+03  0.11052852649E+04  0.64899347537E+03 0.  0.
         13    1    3    3    0    0 -0.15616132696E+03 -0.10386556840E+02  0.36774700268E+02  0.16076883772E+03  0.00000000000E+00 0.  1.
          1    1    3    3  501    0  0.15615685166E+03  0.10360430076E+02 -0.93146067037E+03  0.94451642721E+03  0.00000000000E+00 0.  1.
         21    1    1    2  502  501  0.44753075284E-02  0.26126764517E-01 -0.21690863694E-02  0.26595885721E-01  0.00000000000E+00 0. -1.
<mgrwt>
<rscale>  1 0.64899348E+03</rscale>
<asrwt>0</asrwt>
<pdfrwt beam="1">  1        1 0.38295303E+00 0.64899348E+03</pdfrwt>
<pdfrwt beam="2">0</pdfrwt>
<totfact> 0.15927309E+00</totfact>
</mgrwt>
</event>
<event>
 6    1  0.4233639E-003  0.6451758E+03  0.7818608E-02  0.9815874E-01
          1   -1    0    0  502    0  0.00000000000E+00  0.00000000000E+00  0.10406309446E+03  0.10406309446E+03  0.00000000000E+00 0.  1.
         13   -1    0    0    0    0 -0.00000000000E+00 -0.00000000000E+00 -0.10000000000E+04  0.10000000000E+04  0.00000000000E+00 0.  1.
    9000005    2    1    2  501    0  0.11042676249E-04 -0.12313500974E-06 -0.89593704668E+03  0.11040629529E+04  0.64517579955E+03 0.  0.
         13    1    3    3    0    0 -0.22567236856E+03 -0.22228601436E+03 -0.55239543844E+03  0.63677296623E+03  0.00000000000E+00 0.  1.
          3    1    3    3  501    0  0.22567237960E+03  0.22228601424E+03 -0.34354160824E+03  0.46728998666E+03  0.00000000000E+00 0.  1.
         21    1    1    2  502  501 -0.11042676250E-04  0.12313501740E-06  0.14114194335E-03  0.14157331681E-03  0.00000000000E+00 0. -1.
<mgrwt>
<rscale>  1 0.64517580E+03</rscale>
<asrwt>0</asrwt>
<pdfrwt beam="1">  1        1 0.37841205E+00 0.64517580E+03</pdfrwt>
<pdfrwt beam="2">0</pdfrwt>
<totfact> 0.16691294E+00</totfact>
</mgrwt>
</event>
<event>
 6    1  0.4233639E-003  0.6488246E+03  0.7818608E-02  0.9808987E-01
          1   -1    0    0  502    0  0.00000000000E+00  0.00000000000E+00  0.10529353541E+03  0.10529353541E+03  0.00000000000E+00 0.  1.
         13   -1    0    0    0    0 -0.00000000000E+00 -0.00000000000E+00 -0.10000000000E+04  0.10000000000E+04  0.00000000000E+00 0.  1.
    9000005    2    1    2  501    0 -0.68572859738E-01  0.47370394887E-01 -0.89471516769E+03  0.11052097384E+04  0.64882457387E+03 0.  0.
         13    1    3    3    0    0  0.49163947242E+02 -0.29469701384E+03 -0.66253393811E+03  0.72678376621E+03  0.00000000000E+00 0.  1.
          1    1    3    3  501    0 -0.49232520102E+02  0.29474438424E+03 -0.23218122958E+03  0.37842597221E+03  0.00000000000E+00 0.  1.
         21    1    1    2  502  501  0.68572859738E-01 -0.47370394887E-01  0.87030966688E-02  0.83796988586E-01  0.00000000000E+00 0.  1.
<mgrwt>
<rscale>  1 0.64882458E+03</rscale>
<asrwt>0</asrwt>
<pdfrwt beam="1">  1        1 0.38288639E+00 0.64882458E+03</pdfrwt>
<pdfrwt beam="2">0</pdfrwt>
<totfact> 0.15938607E+00</totfact>
</mgrwt>
</event>
<event>
 6    1  0.4233639E-003  0.6440200E+03  0.7818608E-02  0.9818065E-01
          3   -1    0    0  502    0  0.00000000000E+00  0.00000000000E+00  0.10435765607E+03  0.10435765607E+03  0.00000000000E+00 0.  1.
         13   -1    0    0    0    0 -0.00000000000E+00 -0.00000000000E+00 -0.10000000000E+04  0.10000000000E+04  0.00000000000E+00 0.  1.
    9000005    2    1    2  501    0  0.62923270686E-01 -0.34596129711E-01 -0.89630742594E+03  0.11036887089E+04  0.64401999906E+03 0.  0.
         13    1    3    3    0    0 -0.78236253596E+02  0.24031663071E+03 -0.79003504837E+03  0.82947475671E+03  0.00000000000E+00 0.  1.
          3    1    3    3  501    0  0.78299176867E+02 -0.24035122684E+03 -0.10627237757E+03  0.27421395219E+03  0.00000000000E+00 0.  1.
         21    1    1    2  502  501 -0.62923270686E-01  0.34596129711E-01  0.66508201622E+00  0.66894717167E+00  0.00000000000E+00 0.  1.
<mgrwt>
<rscale>  1 0.64402000E+03</rscale>
<asrwt>0</asrwt>
<pdfrwt beam="1">  1        3 0.37948319E+00 0.64402000E+03</pdfrwt>
<pdfrwt beam="2">0</pdfrwt>
<totfact> 0.76030295E-02</totfact>
</mgrwt>
</event>
<event>
 6    1  0.4233639E-003  0.6369488E+03  0.7818608E-02  0.9831582E-01
          1   -1    0    0  502    0  0.00000000000E+00  0.00000000000E+00  0.10702904247E+03  0.10702904247E+03  0.00000000000E+00 0.  1.
         13   -1    0    0    0    0 -0.00000000000E+00 -0.00000000000E+00 -0.10000000000E+04  0.10000000000E+04  0.00000000000E+00 0.  1.
    9000005    2    1    2  501    0 -0.34623323110E+01 -0.83894646040E+01 -0.89421049178E+03  0.10978689493E+04  0.63688417739E+03 0.  0.
         13    1    3    3    0    0  0.17955714786E+03  0.52184537165E+02 -0.88535198678E+03  0.90488238781E+03  0.00000000000E+00 0.  1.
          1    1    3    3  501    0 -0.18301948017E+03 -0.60574001769E+02 -0.88585049957E+01  0.19298656151E+03  0.00000000000E+00 0.  1.
         21    1    1    2  502  501  0.34623323110E+01  0.83894646040E+01  0.12395342504E+01  0.91600931509E+01  0.00000000000E+00 0. -1.
<mgrwt>
<rscale>  1 0.63694884E+03</rscale>
<asrwt>0</asrwt>
<pdfrwt beam="1">  1        1 0.38919734E+00 0.63694884E+03</pdfrwt>
<pdfrwt beam="2">0</pdfrwt>
<totfact> 0.14979360E+00</totfact>
</mgrwt>
</event>
<event>
 6    1  0.4233639E-003  0.5129289E+03  0.7818608E-02  0.1010458E+00
          1   -1    0    0  502    0  0.00000000000E+00  0.00000000000E+00  0.65911717337E+02  0.65911717337E+02  0.00000000000E+00 0.  1.
         13   -1    0    0    0    0 -0.00000000000E+00 -0.00000000000E+00 -0.10000000000E+04  0.10000000000E+04  0.00000000000E+00 0.  1.
    9000005    2    1    2  501    0  0.27634614298E-03 -0.23098041574E-02 -0.93422596721E+03  0.10657740131E+04  0.51292893198E+03 0.  0.
         13    1    3    3    0    0  0.16354164006E+03  0.15681013947E+03 -0.21744107274E+03  0.31403169902E+03  0.00000000000E+00 0.  1.
          3    1    3    3  501    0 -0.16354136371E+03 -0.15681244928E+03 -0.71678489447E+03  0.75174231412E+03  0.00000000000E+00 0.  1.
         21    1    1    2  502  501 -0.27634614299E-03  0.23098041574E-02  0.13768454928E+00  0.13770419991E+00  0.00000000000E+00 0. -1.
<mgrwt>
<rscale>  1 0.51292893E+03</rscale>
<asrwt>0</asrwt>
<pdfrwt beam="1">  1        1 0.23967948E+00 0.51292893E+03</pdfrwt>
<pdfrwt beam="2">0</pdfrwt>
<totfact> 0.68355118E+00</totfact>
</mgrwt>
</event>
<event>
 6    1  0.4233639E-003  0.6222341E+03  0.7818608E-02  0.9860322E-01
          1   -1    0    0  502    0  0.00000000000E+00  0.00000000000E+00  0.96863097943E+02  0.96863097943E+02  0.00000000000E+00 0.  1.
         13   -1    0    0    0    0 -0.00000000000E+00 -0.00000000000E+00 -0.10000000000E+04  0.10000000000E+04  0.00000000000E+00 0.  1.
    9000005    2    1    2  501    0 -0.77918482398E-03 -0.17586488882E-02 -0.90320615340E+03  0.10967938199E+04  0.62223414228E+03 0.  0.
         13    1    3    3    0    0  0.36540505528E+02 -0.20064995374E+03 -0.37475477827E+02  0.20736447121E+03  0.00000000000E+00 0.  1.
          1    1    3    3  501    0 -0.36541284713E+02  0.20064819509E+03 -0.86573067557E+03  0.88942934869E+03  0.00000000000E+00 0.  1.
         21    1    1    2  502  501  0.77918482399E-03  0.17586488882E-02  0.69251339151E-01  0.69278048104E-01  0.00000000000E+00 0. -1.
<mgrwt>
<rscale>  1 0.62223414E+03</rscale>
<asrwt>0</asrwt>
<pdfrwt beam="1">  1        1 0.35223019E+00 0.62223414E+03</pdfrwt>
<pdfrwt beam="2">0</pdfrwt>
<totfact> 0.21830681E+00</totfact>
</mgrwt>
</event>
<event>
 6    1  0.4233639E-003  0.6477147E+03  0.7818608E-02  0.9811077E-01
          1   -1    0    0  502    0  0.00000000000E+00  0.00000000000E+00  0.11617376400E+03  0.11617376400E+03  0.00000000000E+00 0.  1.
         13   -1    0    0    0    0 -0.00000000000E+00 -0.00000000000E+00 -0.10000000000E+04  0.10000000000E+04  0.00000000000E+00 0.  1.
    9000005    2    1    2  501    0 -0.14435538017E+01 -0.29999298634E+02 -0.81468462991E+03  0.10407907191E+04  0.64701795413E+03 0.  0.
         13    1    3    3    0    0 -0.14337114579E+03 -0.25936149459E+03 -0.67467931029E+03  0.73689608633E+03  0.00000000000E+00 0.  1.
          1    1    3    3  501    0  0.14192759198E+03  0.22936219595E+03 -0.14000531962E+03  0.30389463276E+03  0.00000000000E+00 0.  1.
         21    1    1    2  502  501  0.14435538017E+01  0.29999298634E+02 -0.69141606089E+02  0.75383044902E+02  0.00000000000E+00 0. -1.
<mgrwt>
<rscale>  1 0.64771466E+03</rscale>
<asrwt>0</asrwt>
<pdfrwt beam="1">  1        1 0.42245094E+00 0.64771466E+03</pdfrwt>
<pdfrwt beam="2">0</pdfrwt>
<totfact> 0.10614301E+00</totfact>
</mgrwt>
</event>
<event>
 6    1  0.4233639E-003  0.6255685E+03  0.7818608E-02  0.9853735E-01
          1   -1    0    0  502    0  0.00000000000E+00  0.00000000000E+00  0.97834612857E+02  0.97834612857E+02  0.00000000000E+00 0.  1.
         13   -1    0    0    0    0 -0.00000000000E+00 -0.00000000000E+00 -0.10000000000E+04  0.10000000000E+04  0.00000000000E+00 0.  1.
    9000005    2    1    2  501    0 -0.55728612878E-04 -0.11802264908E-03 -0.90216601678E+03  0.10978339698E+04  0.62556846427E+03 0.  0.
         13    1    3    3    0    0 -0.11494436608E+03 -0.29026994378E+03 -0.41754729560E+03  0.52135840994E+03  0.00000000000E+00 0.  1.
          1    1    3    3  501    0  0.11494431035E+03  0.29026982576E+03 -0.48461872118E+03  0.57647555989E+03  0.00000000000E+00 0.  1.
         21    1    1    2  502  501  0.55728612876E-04  0.11802264911E-03  0.62963711672E-03  0.64302249008E-03  0.00000000000E+00 0.  1.
<mgrwt>
<rscale>  1 0.62556846E+03</rscale>
<asrwt>0</asrwt>
<pdfrwt beam="1">  1        1 0.35576298E+00 0.62556846E+03</pdfrwt>
<pdfrwt beam="2">0</pdfrwt>
<totfact> 0.21056771E+00</totfact>
</mgrwt>
</event>
<event>
 6    1  0.4233639E-003  0.6288555E+03  0.7818608E-02  0.9847285E-01
          1   -1    0    0  502    0  0.00000000000E+00  0.00000000000E+00  0.11058811237E+03  0.11058811237E+03  0.00000000000E+00 0.  1.
         13   -1    0    0    0    0 -0.00000000000E+00 -0.00000000000E+00 -0.10000000000E+04  0.10000000000E+04  0.00000000000E+00 0.  1.
    9000005    2    1    2  501    0 -0.36656487867E+00  0.78124275615E-03 -0.90113202936E+03  0.10988622396E+04  0.62885543081E+03 0.  0.
         13    1    3    3    0    0 -0.15731244273E+03  0.21219723503E+03 -0.15236918793E+03  0.30494465174E+03  0.00000000000E+00 0.  1.
          1    1    3    3  501    0  0.15694587785E+03 -0.21219645379E+03 -0.74876284143E+03  0.79391758784E+03  0.00000000000E+00 0.  1.
         21    1    1    2  502  501  0.36656487867E+00 -0.78124275616E-03  0.11720141736E+02  0.11725872792E+02  0.00000000000E+00 0. -1.
<mgrwt>
<rscale>  1 0.62885554E+03</rscale>
<asrwt>0</asrwt>
<pdfrwt beam="1">  1        1 0.40213944E+00 0.62885554E+03</pdfrwt>
<pdfrwt beam="2">0</pdfrwt>
<totfact> 0.13141764E+00</totfact>
</mgrwt>
</event>
<event>
 6    1  0.4233639E-003  0.4685170E+03  0.7818608E-02  0.1022340E+00
          1   -1    0    0  502    0  0.00000000000E+00  0.00000000000E+00  0.54879331679E+02  0.54879331679E+02  0.00000000000E+00 0.  1.
         13   -1    0    0    0    0 -0.00000000000E+00 -0.00000000000E+00 -0.10000000000E+04  0.10000000000E+04  0.00000000000E+00 0.  1.
    9000005    2    1    2  501    0  0.11922974790E-03  0.47747585654E-04 -0.94512296265E+03  0.10548770338E+04  0.46851696004E+03 0.  0.
         13    1    3    3    0    0  0.13244732476E+03 -0.18653196889E+03 -0.35907549042E+03  0.42576011682E+03  0.00000000000E+00 0.  1.
          3    1    3    3  501    0 -0.13244720553E+03  0.18653201664E+03 -0.58604747223E+03  0.62911691695E+03  0.00000000000E+00 0.  1.
         21    1    1    2  502  501 -0.11922974790E-03 -0.47747585645E-04  0.22943237922E-02  0.22979158444E-02  0.00000000000E+00 0. -1.
<mgrwt>
<rscale>  1 0.46851696E+03</rscale>
<asrwt>0</asrwt>
<pdfrwt beam="1">  1        1 0.19956163E+00 0.46851696E+03</pdfrwt>
<pdfrwt beam="2">0</pdfrwt>
<totfact> 0.10378880E+01</totfact>
</mgrwt>
</event>
<event>
 6    1  0.4233639E-003  0.6500830E+03  0.7818608E-02  0.9806623E-01
          1   -1    0    0  502    0  0.00000000000E+00  0.00000000000E+00  0.10598445701E+03  0.10598445701E+03  0.00000000000E+00 0.  1.
         13   -1    0    0    0    0 -0.00000000000E+00 -0.00000000000E+00 -0.10000000000E+04  0.10000000000E+04  0.00000000000E+00 0.  1.
    9000005    2    1    2  501    0 -0.34462055827E-01 -0.22242955619E-01 -0.89434660960E+03  0.11056508592E+04  0.65008304295E+03 0.  0.
         13    1    3    3    0    0 -0.44164802257E+00  0.83805354199E+02  0.86959685218E+02  0.12077052330E+03  0.00000000000E+00 0.  1.
          3    1    3    3  501    0  0.40718596674E+00 -0.83827597155E+02 -0.98130629482E+03  0.98488033592E+03  0.00000000000E+00 0.  1.
         21    1    1    2  502  501  0.34462055827E-01  0.22242955619E-01  0.33106660567E+00  0.33359778140E+00  0.00000000000E+00 0.  1.
<mgrwt>
<rscale>  1 0.65008304E+03</rscale>
<asrwt>0</asrwt>
<pdfrwt beam="1">  1        1 0.38539884E+00 0.65008304E+03</pdfrwt>
<pdfrwt beam="2">0</pdfrwt>
<totfact> 0.15532497E+00</totfact>
</mgrwt>
</event>
<event>
 6    1  0.4233639E-003  0.6535092E+03  0.7818608E-02  0.9800217E-01
          1   -1    0    0  502    0  0.00000000000E+00  0.00000000000E+00  0.10677506599E+03  0.10677506599E+03  0.00000000000E+00 0.  1.
         13   -1    0    0    0    0 -0.00000000000E+00 -0.00000000000E+00 -0.10000000000E+04  0.10000000000E+04  0.00000000000E+00 0.  1.
    9000005    2    1    2  501    0 -0.51659131673E-02  0.77196052859E-02 -0.89322755137E+03  0.11067654156E+04  0.65350916336E+03 0.  0.
         13    1    3    3    0    0 -0.83388074818E+02  0.64292926258E+02 -0.97048118625E+03  0.97617666652E+03  0.00000000000E+00 0.  1.
          1    1    3    3  501    0  0.83382908905E+02 -0.64285206653E+02  0.77253634875E+02  0.13058874911E+03  0.00000000000E+00 0.  1.
         21    1    1    2  502  501  0.51659131673E-02 -0.77196052859E-02  0.26173646118E-02  0.96503659067E-02  0.00000000000E+00 0.  1.
<mgrwt>
<rscale>  1 0.65350916E+03</rscale>
<asrwt>0</asrwt>
<pdfrwt beam="1">  1        1 0.38827379E+00 0.65350916E+03</pdfrwt>
<pdfrwt beam="2">0</pdfrwt>
<totfact> 0.15074313E+00</totfact>
</mgrwt>
</event>
<event>
 6    1  0.4233639E-003  0.6536107E+03  0.7818608E-02  0.9800028E-01
          1   -1    0    0  502    0  0.00000000000E+00  0.00000000000E+00  0.10914946753E+03  0.10914946753E+03  0.00000000000E+00 0.  1.
         13   -1    0    0    0    0 -0.00000000000E+00 -0.00000000000E+00 -0.10000000000E+04  0.10000000000E+04  0.00000000000E+00 0.  1.
    9000005    2    1    2  501    0  0.29314489998E-01 -0.76700671768E-01 -0.89319748305E+03  0.11068010810E+04  0.65361065048E+03 0.  0.
         13    1    3    3    0    0  0.20271162447E+03  0.35505924997E+02 -0.16703389616E+02  0.20647439703E+03  0.00000000000E+00 0.  1.
          3    1    3    3  501    0 -0.20268230998E+03 -0.35582625669E+02 -0.87649409343E+03  0.90032668396E+03  0.00000000000E+00 0.  1.
         21    1    1    2  502  501 -0.29314489998E-01  0.76700671768E-01  0.23469505725E+01  0.23483865359E+01  0.00000000000E+00 0.  1.
<mgrwt>
<rscale>  1 0.65361066E+03</rscale>
<asrwt>0</asrwt>
<pdfrwt beam="1">  1        1 0.39690799E+00 0.65361066E+03</pdfrwt>
<pdfrwt beam="2">0</pdfrwt>
<totfact> 0.13800326E+00</totfact>
</mgrwt>
</event>
<event>
 6    1  0.4233639E-003  0.6461712E+03  0.7818608E-02  0.9813990E-01
          1   -1    0    0  502    0  0.00000000000E+00  0.00000000000E+00  0.10439360720E+03  0.10439360720E+03  0.00000000000E+00 0.  1.
         13   -1    0    0    0    0 -0.00000000000E+00 -0.00000000000E+00 -0.10000000000E+04  0.10000000000E+04  0.00000000000E+00 0.  1.
    9000005    2    1    2  501    0 -0.15026376860E-03 -0.86040492766E-03 -0.89561567698E+03  0.11043842820E+04  0.64617118593E+03 0.  0.
         13    1    3    3    0    0 -0.13740330321E+03 -0.29238914774E+03 -0.44153077092E+03  0.54710191292E+03  0.00000000000E+00 0.  1.
          3    1    3    3  501    0  0.13740315295E+03  0.29238828733E+03 -0.45408490606E+03  0.55728236911E+03  0.00000000000E+00 0.  1.
         21    1    1    2  502  501  0.15026376858E-03  0.86040492767E-03  0.92841834258E-02  0.93251776242E-02  0.00000000000E+00 0. -1.
<mgrwt>
<rscale>  1 0.64617119E+03</rscale>
<asrwt>0</asrwt>
<pdfrwt beam="1">  1        1 0.37961392E+00 0.64617119E+03</pdfrwt>
<pdfrwt beam="2">0</pdfrwt>
<totfact> 0.16485807E+00</totfact>
</mgrwt>
</event>
<event>
 6    1  0.4233639E-003  0.6633152E+03  0.7818608E-02  0.9782110E-01
          1   -1    0    0  502    0  0.00000000000E+00  0.00000000000E+00  0.10999771686E+03  0.10999771686E+03  0.00000000000E+00 0.  1.
         13   -1    0    0    0    0 -0.00000000000E+00 -0.00000000000E+00 -0.10000000000E+04  0.10000000000E+04  0.00000000000E+00 0.  1.
    9000005    2    1    2  501    0  0.76558554110E-03  0.10846220858E-02 -0.89000266703E+03  0.11099963349E+04  0.66331524639E+03 0.  0.
         13    1    3    3    0    0  0.29700179975E+03  0.13819986382E+03 -0.35824462300E+03  0.48543638237E+03  0.00000000000E+00 0.  1.
          3    1    3    3  501    0 -0.29700103417E+03 -0.13819877920E+03 -0.53175804403E+03  0.62455995250E+03  0.00000000000E+00 0.  1.
         21    1    1    2  502  501 -0.76558554111E-03 -0.10846220857E-02  0.38389157531E-03  0.13819909664E-02  0.00000000000E+00 0.  1.
<mgrwt>
<rscale>  1 0.66331525E+03</rscale>
<asrwt>0</asrwt>
<pdfrwt beam="1">  1        1 0.39999254E+00 0.66331525E+03</pdfrwt>
<pdfrwt beam="2">0</pdfrwt>
<totfact> 0.13346191E+00</totfact>
</mgrwt>
</event>
<event>
 6    1  0.4233639E-003  0.6511146E+03  0.7818608E-02  0.9804690E-01
          1   -1    0    0  502    0  0.00000000000E+00  0.00000000000E+00  0.10599175198E+03  0.10599175198E+03  0.00000000000E+00 0.  1.
         13   -1    0    0    0    0 -0.00000000000E+00 -0.00000000000E+00 -0.10000000000E+04  0.10000000000E+04  0.00000000000E+00 0.  1.
    9000005    2    1    2  501    0 -0.52864364250E-04 -0.38456179624E-04 -0.89401244175E+03  0.11059875577E+04  0.65111460732E+03 0.  0.
         13    1    3    3    0    0  0.31636728600E+03  0.76542271596E+02 -0.45782395714E+03  0.56173815495E+03  0.00000000000E+00 0.  1.
          1    1    3    3  501    0 -0.31636733887E+03 -0.76542310052E+02 -0.43618848461E+03  0.54424940279E+03  0.00000000000E+00 0.  1.
         21    1    1    2  502  501  0.52864364241E-04  0.38456179613E-04  0.41937293513E-02  0.41942388333E-02  0.00000000000E+00 0. -1.
<mgrwt>
<rscale>  1 0.65111461E+03</rscale>
<asrwt>0</asrwt>
<pdfrwt beam="1">  1        1 0.38542537E+00 0.65111461E+03</pdfrwt>
<pdfrwt beam="2">0</pdfrwt>
<totfact> 0.15525341E+00</totfact>
</mgrwt>
</event>
<event>
 6    1  0.4233639E-003  0.6690026E+03  0.7818608E-02  0.9771761E-01
          1   -1    0    0  502    0  0.00000000000E+00  0.00000000000E+00  0.11189403442E+03  0.11189403442E+03  0.00000000000E+00 0.  1.
         13   -1    0    0    0    0 -0.00000000000E+00 -0.00000000000E+00 -0.10000000000E+04  0.10000000000E+04  0.00000000000E+00 0.  1.
    9000005    2    1    2  501    0 -0.12934637989E-02  0.68173709923E-03 -0.88810867478E+03  0.11118909559E+04  0.66900260052E+03 0.  0.
         13    1    3    3    0    0 -0.99754435990E+02 -0.31762962082E+03 -0.39016010936E+03  0.51289807414E+03  0.00000000000E+00 0.  1.
          1    1    3    3  501    0  0.99753142526E+02  0.31763030256E+03 -0.49794856541E+03  0.59899288171E+03  0.00000000000E+00 0.  1.
         21    1    1    2  502  501  0.12934637989E-02 -0.68173709927E-03  0.27091931535E-02  0.30785616145E-02  0.00000000000E+00 0. -1.
<mgrwt>
<rscale>  1 0.66900260E+03</rscale>
<asrwt>0</asrwt>
<pdfrwt beam="1">  1        1 0.40688826E+00 0.66900260E+03</pdfrwt>
<pdfrwt beam="2">0</pdfrwt>
<totfact> 0.12418863E+00</totfact>
</mgrwt>
</event>
<event>
 6    1  0.4233639E-003  0.5259883E+03  0.7818608E-02  0.1007210E+00
          1   -1    0    0  502    0  0.00000000000E+00  0.00000000000E+00  0.69167516744E+02  0.69167516744E+02  0.00000000000E+00 0.  1.
         13   -1    0    0    0    0 -0.00000000000E+00 -0.00000000000E+00 -0.10000000000E+04  0.10000000000E+04  0.00000000000E+00 0.  1.
    9000005    2    1    2  501    0  0.39571233003E-04  0.79064037095E-04 -0.93083408275E+03  0.10691659148E+04  0.52598827341E+03 0.  0.
         13    1    3    3    0    0 -0.13737289686E+03 -0.21013463389E+03 -0.30616563382E+03  0.39593594492E+03  0.00000000000E+00 0.  1.
          3    1    3    3  501    0  0.13737293643E+03  0.21013471295E+03 -0.62466844894E+03  0.67322996988E+03  0.00000000000E+00 0.  1.
         21    1    1    2  502  501 -0.39571233015E-04 -0.79064037098E-04  0.15994983828E-02  0.16019400991E-02  0.00000000000E+00 0. -1.
<mgrwt>
<rscale>  1 0.52598827E+03</rscale>
<asrwt>0</asrwt>
<pdfrwt beam="1">  1        1 0.25151877E+00 0.52598827E+03</pdfrwt>
<pdfrwt beam="2">0</pdfrwt>
<totfact> 0.60561558E+00</totfact>
</mgrwt>
</event>
<event>
 6    1  0.4233639E-003  0.6602615E+03  0.7818608E-02  0.9787713E-01
          1   -1    0    0  502    0  0.00000000000E+00  0.00000000000E+00  0.10898782866E+03  0.10898782866E+03  0.00000000000E+00 0.  1.
         13   -1    0    0    0    0 -0.00000000000E+00 -0.00000000000E+00 -0.10000000000E+04  0.10000000000E+04  0.00000000000E+00 0.  1.
    9000005    2    1    2  501    0 -0.22333334044E-05  0.43874395644E-04 -0.89101369907E+03  0.11089863003E+04  0.66026146510E+03 0.  0.
         13    1    3    3    0    0 -0.38561514364E+02 -0.71631810704E+02  0.91887070953E+02  0.12272465320E+03  0.00000000000E+00 0.  1.
          3    1    3    3  501    0  0.38561512131E+02  0.71631854578E+02 -0.98290077003E+03  0.98626164709E+03  0.00000000000E+00 0.  1.
         21    1    1    2  502  501  0.22333334041E-05 -0.43874395644E-04  0.15277396809E-02  0.15283711862E-02  0.00000000000E+00 0.  1.
<mgrwt>
<rscale>  1 0.66026147E+03</rscale>
<asrwt>0</asrwt>
<pdfrwt beam="1">  1        1 0.39632021E+00 0.66026147E+03</pdfrwt>
<pdfrwt beam="2">0</pdfrwt>
<totfact> 0.13866411E+00</totfact>
</mgrwt>
</event>
<event>
 6    1  0.4233639E-003  0.6506122E+03  0.7818608E-02  0.9805631E-01
          1   -1    0    0  502    0  0.00000000000E+00  0.00000000000E+00  0.10591870044E+03  0.10591870044E+03  0.00000000000E+00 0.  1.
         13   -1    0    0    0    0 -0.00000000000E+00 -0.00000000000E+00 -0.10000000000E+04  0.10000000000E+04  0.00000000000E+00 0.  1.
    9000005    2    1    2  501    0 -0.32804905418E-01  0.16326323245E-02 -0.89417279224E+03  0.11058214907E+04  0.65061216233E+03 0.  0.
         13    1    3    3    0    0 -0.31057348025E+03 -0.51918197616E+02 -0.58605209485E+03  0.66528824111E+03  0.00000000000E+00 0.  1.
          1    1    3    3  501    0  0.31054067534E+03  0.51919830248E+02 -0.30812069739E+03  0.44053324957E+03  0.00000000000E+00 0.  1.
         21    1    1    2  502  501  0.32804905418E-01 -0.16326323245E-02  0.91492682796E-01  0.97209764494E-01  0.00000000000E+00 0.  1.
<mgrwt>
<rscale>  1 0.65061216E+03</rscale>
<asrwt>0</asrwt>
<pdfrwt beam="1">  1        1 0.38515972E+00 0.65061216E+03</pdfrwt>
<pdfrwt beam="2">0</pdfrwt>
<totfact> 0.15568853E+00</totfact>
</mgrwt>
</event>
<event>
 6    1  0.4233639E-003  0.6622646E+03  0.7818608E-02  0.9784034E-01
          3   -1    0    0  502    0  0.00000000000E+00  0.00000000000E+00  0.10986538010E+03  0.10986538010E+03  0.00000000000E+00 0.  1.
         13   -1    0    0    0    0 -0.00000000000E+00 -0.00000000000E+00 -0.10000000000E+04  0.10000000000E+04  0.00000000000E+00 0.  1.
    9000005    2    1    2  501    0 -0.16008802191E-01 -0.22196872168E-02 -0.89035107381E+03  0.11096483236E+04  0.66226457498E+03 0.  0.
         13    1    3    3    0    0 -0.20552741731E+03  0.25168867162E+03 -0.55197751754E+03  0.64052157384E+03  0.00000000000E+00 0.  1.
          1    1    3    3  501    0  0.20551140851E+03 -0.25169089131E+03 -0.33837355627E+03  0.46912674980E+03  0.00000000000E+00 0.  1.
         21    1    1    2  502  501  0.16008802191E-01  0.22196872168E-02  0.21645391235E+00  0.21705645563E+00  0.00000000000E+00 0. -1.
<mgrwt>
<rscale>  1 0.66226458E+03</rscale>
<asrwt>0</asrwt>
<pdfrwt beam="1">  1        3 0.39951132E+00 0.66226458E+03</pdfrwt>
<pdfrwt beam="2">0</pdfrwt>
<totfact> 0.59464714E-02</totfact>
</mgrwt>
</event>
<event>
 6    1  0.4233639E-003  0.6549549E+03  0.7818608E-02  0.9797526E-01
          1   -1    0    0  502    0  0.00000000000E+00  0.00000000000E+00  0.10724207357E+03  0.10724207357E+03  0.00000000000E+00 0.  1.
         13   -1    0    0    0    0 -0.00000000000E+00 -0.00000000000E+00 -0.10000000000E+04  0.10000000000E+04  0.00000000000E+00 0.  1.
    9000005    2    1    2  501    0 -0.16588284211E-04 -0.60171091263E-04 -0.89275850433E+03  0.11072414923E+04  0.65495494138E+03 0.  0.
         13    1    3    3    0    0 -0.92435532365E+02  0.70962139493E+02 -0.96376155209E+03  0.97078127412E+03  0.00000000000E+00 0.  1.
          1    1    3    3  501    0  0.92435515776E+02 -0.70962199664E+02  0.71003047762E+02  0.13646021819E+03  0.00000000000E+00 0.  1.
         21    1    1    2  502  501  0.16588284216E-04  0.60171091254E-04  0.57789807543E-03  0.58125890701E-03  0.00000000000E+00 0. -1.
<mgrwt>
<rscale>  1 0.65495494E+03</rscale>
<asrwt>0</asrwt>
<pdfrwt beam="1">  1        1 0.38997200E+00 0.65495494E+03</pdfrwt>
<pdfrwt beam="2">0</pdfrwt>
<totfact> 0.14811310E+00</totfact>
</mgrwt>
</event>
<event>
 6    1  0.4233639E-003  0.6563072E+03  0.7818608E-02  0.9795016E-01
          1   -1    0    0  502    0  0.00000000000E+00  0.00000000000E+00  0.10768577412E+03  0.10768577412E+03  0.00000000000E+00 0.  1.
         13   -1    0    0    0    0 -0.00000000000E+00 -0.00000000000E+00 -0.10000000000E+04  0.10000000000E+04  0.00000000000E+00 0.  1.
    9000005    2    1    2  501    0  0.36239589747E-04  0.18159725000E-02 -0.89231422243E+03  0.11076839578E+04  0.65630715277E+03 0.  0.
         13    1    3    3    0    0  0.32563641526E+03  0.15417854555E+02 -0.50948782320E+03  0.60485917962E+03  0.00000000000E+00 0.  1.
          3    1    3    3  501    0 -0.32563637902E+03 -0.15416038583E+02 -0.38282639923E+03  0.50282477816E+03  0.00000000000E+00 0.  1.
         21    1    1    2  502  501 -0.36239589734E-04 -0.18159725000E-02 -0.34510320774E-05  0.18163373415E-02  0.00000000000E+00 0.  1.
<mgrwt>
<rscale>  1 0.65630715E+03</rscale>
<asrwt>0</asrwt>
<pdfrwt beam="1">  1        1 0.39158546E+00 0.65630715E+03</pdfrwt>
<pdfrwt beam="2">0</pdfrwt>
<totfact> 0.14565526E+00</totfact>
</mgrwt>
</event>
<event>
 6    1  0.4233639E-003  0.6456634E+03  0.7818608E-02  0.9814951E-01
          1   -1    0    0  502    0  0.00000000000E+00  0.00000000000E+00  0.10422240275E+03  0.10422240275E+03  0.00000000000E+00 0.  1.
         13   -1    0    0    0    0 -0.00000000000E+00 -0.00000000000E+00 -0.10000000000E+04  0.10000000000E+04  0.00000000000E+00 0.  1.
    9000005    2    1    2  501    0  0.10490178852E-04  0.32285602842E-04 -0.89577969703E+03  0.11042203027E+04  0.64566338853E+03 0.  0.
         13    1    3    3    0    0 -0.23058150996E+03  0.73589734439E+02 -0.81323909070E+03  0.84849342979E+03  0.00000000000E+00 0.  1.
          1    1    3    3  501    0  0.23058152045E+03 -0.73589702153E+02 -0.82540606330E+02  0.25572687291E+03  0.00000000000E+00 0.  1.
         21    1    1    2  502  501 -0.10490178836E-04 -0.32285602849E-04  0.20997807845E-02  0.21000551772E-02  0.00000000000E+00 0.  1.
<mgrwt>
<rscale>  1 0.64566339E+03</rscale>
<asrwt>0</asrwt>
<pdfrwt beam="1">  1        1 0.37899135E+00 0.64566339E+03</pdfrwt>
<pdfrwt beam="2">0</pdfrwt>
<totfact> 0.16591922E+00</totfact>
</mgrwt>
</event>
<event>
 6    1  0.4233639E-003  0.5608396E+03  0.7818608E-02  0.9990157E-01
          1   -1    0    0  502    0  0.00000000000E+00  0.00000000000E+00  0.91762503848E+02  0.91762503848E+02  0.00000000000E+00 0.  1.
         13   -1    0    0    0    0 -0.00000000000E+00 -0.00000000000E+00 -0.10000000000E+04  0.10000000000E+04  0.00000000000E+00 0.  1.
    9000005    2    1    2  501    0  0.10444537707E+01 -0.33354086230E+00 -0.92134003980E+03  0.10786141662E+04  0.56083852259E+03 0.  0.
         13    1    3    3    0    0  0.17400213778E+03 -0.16377795526E+03 -0.17758893900E+03  0.29772100000E+03  0.00000000000E+00 0.  1.
          1    1    3    3  501    0 -0.17295768401E+03  0.16344441440E+03 -0.74375110080E+03  0.78089316619E+03  0.00000000000E+00 0.  1.
         21    1    1    2  502  501 -0.10444537707E+01  0.33354086230E+00  0.13102543651E+02  0.13148337663E+02  0.00000000000E+00 0. -1.
<mgrwt>
<rscale>  1 0.56083959E+03</rscale>
<asrwt>0</asrwt>
<pdfrwt beam="1">  1        1 0.33368254E+00 0.56083959E+03</pdfrwt>
<pdfrwt beam="2">0</pdfrwt>
<totfact> 0.26585142E+00</totfact>
</mgrwt>
</event>
<event>
 6    1  0.4233639E-003  0.6517219E+03  0.7818608E-02  0.9803553E-01
          1   -1    0    0  502    0  0.00000000000E+00  0.00000000000E+00  0.10618539559E+03  0.10618539559E+03  0.00000000000E+00 0.  1.
         13   -1    0    0    0    0 -0.00000000000E+00 -0.00000000000E+00 -0.10000000000E+04  0.10000000000E+04  0.00000000000E+00 0.  1.
    9000005    2    1    2  501    0 -0.43558333829E-05 -0.78375121007E-05 -0.89381462883E+03  0.11061853696E+04  0.65172193544E+03 0.  0.
         13    1    3    3    0    0 -0.33114701370E+02  0.27513363106E+03 -0.15592448332E+03  0.31797412298E+03  0.00000000000E+00 0.  1.
          3    1    3    3  501    0  0.33114697014E+02 -0.27513363889E+03 -0.73789014551E+03  0.78821124659E+03  0.00000000000E+00 0.  1.
         21    1    1    2  502  501  0.43558333848E-05  0.78375120928E-05  0.24425002251E-04  0.26018851151E-04  0.00000000000E+00 0.  1.
<mgrwt>
<rscale>  1 0.65172194E+03</rscale>
<asrwt>0</asrwt>
<pdfrwt beam="1">  1        1 0.38612953E+00 0.65172194E+03</pdfrwt>
<pdfrwt beam="2">0</pdfrwt>
<totfact> 0.15412621E+00</totfact>
</mgrwt>
</event>
<event>
 6    1  0.4233639E-003  0.5527353E+03  0.7818608E-02  0.1000863E+00
          1   -1    0    0  502    0  0.00000000000E+00  0.00000000000E+00  0.76379159866E+02  0.76379159866E+02  0.00000000000E+00 0.  1.
         13   -1    0    0    0    0 -0.00000000000E+00 -0.00000000000E+00 -0.10000000000E+04  0.10000000000E+04  0.00000000000E+00 0.  1.
    9000005    2    1    2  501    0 -0.16767678500E-03 -0.90926171424E-04 -0.92362080241E+03  0.10763789654E+04  0.55273528074E+03 0.  0.
         13    1    3    3    0    0 -0.16276565695E+03  0.21025423276E+03 -0.31505096714E+03  0.41225794519E+03  0.00000000000E+00 0.  1.
          1    1    3    3  501    0  0.16276548927E+03 -0.21025432368E+03 -0.60856983526E+03  0.66412102024E+03  0.00000000000E+00 0.  1.
         21    1    1    2  502  501  0.16767678501E-03  0.90926171417E-04 -0.37725486957E-04  0.19443838419E-03  0.00000000000E+00 0. -1.
<mgrwt>
<rscale>  1 0.55273528E+03</rscale>
<asrwt>0</asrwt>
<pdfrwt beam="1">  1        1 0.27774299E+00 0.55273528E+03</pdfrwt>
<pdfrwt beam="2">0</pdfrwt>
<totfact> 0.46413526E+00</totfact>
</mgrwt>
</event>
<event>
 6    1  0.4233639E-003  0.6465007E+03  0.7818608E-02  0.9813368E-01
          1   -1    0    0  502    0  0.00000000000E+00  0.00000000000E+00  0.10457694646E+03  0.10457694646E+03  0.00000000000E+00 0.  1.
         13   -1    0    0    0    0 -0.00000000000E+00 -0.00000000000E+00 -0.10000000000E+04  0.10000000000E+04  0.00000000000E+00 0.  1.
    9000005    2    1    2  501    0  0.69631554771E-02  0.35724090969E-02 -0.89550902874E+03  0.11044906158E+04  0.64650065722E+03 0.  0.
         13    1    3    3    0    0 -0.18440866034E+03 -0.15428553655E+03 -0.81685636470E+03  0.85150742883E+03  0.00000000000E+00 0.  1.
          3    1    3    3  501    0  0.18441562350E+03  0.15428910896E+03 -0.78652664037E+02  0.25298318698E+03  0.00000000000E+00 0.  1.
         21    1    1    2  502  501 -0.69631554771E-02 -0.35724090969E-02  0.85975200406E-01  0.86330659246E-01  0.00000000000E+00 0. -1.
<mgrwt>
<rscale>  1 0.64650066E+03</rscale>
<asrwt>0</asrwt>
<pdfrwt beam="1">  1        1 0.38028061E+00 0.64650066E+03</pdfrwt>
<pdfrwt beam="2">0</pdfrwt>
<totfact> 0.16373533E+00</totfact>
</mgrwt>
</event>
<event>
 6    1  0.5558687E-003  0.6596609E+03  0.7818608E-02  0.9788818E-01
          3   -1    0    0  502    0  0.00000000000E+00  0.00000000000E+00  0.10878814012E+03  0.10878814012E+03  0.00000000000E+00 0.  1.
         13   -1    0    0    0    0 -0.00000000000E+00 -0.00000000000E+00 -0.10000000000E+04  0.10000000000E+04  0.00000000000E+00 0.  1.
    9000005    2    1    2  501    0  0.22484508690E-05 -0.72055729561E-06 -0.89121186299E+03  0.11087881362E+04  0.65966093282E+03 0.  0.
         13    1    3    3    0    0 -0.18734577992E+03  0.26481592400E+03 -0.54592609620E+03  0.63502851697E+03  0.00000000000E+00 0.  1.
          1    1    3    3  501    0  0.18734578217E+03 -0.26481592472E+03 -0.34528576679E+03  0.47375961925E+03  0.00000000000E+00 0.  1.
         21    1    1    2  502  501 -0.22484508512E-05  0.72055734300E-06  0.31109437441E-05  0.39054711743E-05  0.00000000000E+00 0.  1.
<mgrwt>
<rscale>  1 0.65966093E+03</rscale>
<asrwt>0</asrwt>
<pdfrwt beam="1">  1        3 0.39559407E+00 0.65966093E+03</pdfrwt>
<pdfrwt beam="2">0</pdfrwt>
<totfact> 0.62373701E-02</totfact>
</mgrwt>
</event>
<event>
 6    1  0.4233639E-003  0.6495044E+03  0.7818608E-02  0.9807710E-01
          1   -1    0    0  502    0  0.00000000000E+00  0.00000000000E+00  0.10558582397E+03  0.10558582397E+03  0.00000000000E+00 0.  1.
         13   -1    0    0    0    0 -0.00000000000E+00 -0.00000000000E+00 -0.10000000000E+04  0.10000000000E+04  0.00000000000E+00 0.  1.
    9000005    2    1    2  501    0 -0.36815504541E-01  0.11319274182E+00 -0.89450302273E+03  0.11054372921E+04  0.64950437638E+03 0.  0.
         13    1    3    3    0    0 -0.12861295721E+03 -0.29125169590E+02  0.57849031451E+02  0.14400027329E+03  0.00000000000E+00 0.  1.
          1    1    3    3  501    0  0.12857614171E+03  0.29238362331E+02 -0.95235205418E+03  0.96143701882E+03  0.00000000000E+00 0.  1.
         21    1    1    2  502  501  0.36815504541E-01 -0.11319274182E+00  0.88846704749E-01  0.14853186568E+00  0.00000000000E+00 0. -1.
<mgrwt>
<rscale>  1 0.64950439E+03</rscale>
<asrwt>0</asrwt>
<pdfrwt beam="1">  1        1 0.38394926E+00 0.64950439E+03</pdfrwt>
<pdfrwt beam="2">0</pdfrwt>
<totfact> 0.15765159E+00</totfact>
</mgrwt>
</event>
<event>
 6    1  0.4233639E-003  0.6512963E+03  0.7818608E-02  0.9804350E-01
          1   -1    0    0  502    0  0.00000000000E+00  0.00000000000E+00  0.10604672722E+03  0.10604672722E+03  0.00000000000E+00 0.  1.
         13   -1    0    0    0    0 -0.00000000000E+00 -0.00000000000E+00 -0.10000000000E+04  0.10000000000E+04  0.00000000000E+00 0.  1.
    9000005    2    1    2  501    0  0.42080153184E-06  0.14544845612E-05 -0.89395329284E+03  0.11060467071E+04  0.65129626784E+03 0.  0.
         13    1    3    3    0    0  0.36964534782E+01  0.22535721927E+03 -0.84613928651E+03  0.87564332478E+03  0.00000000000E+00 0.  1.
          1    1    3    3  501    0 -0.36964530574E+01 -0.22535721781E+03 -0.47814006330E+02  0.23040338232E+03  0.00000000000E+00 0.  1.
         21    1    1    2  502  501 -0.42080153195E-06 -0.14544845424E-05  0.20058884408E-04  0.20115949963E-04  0.00000000000E+00 0.  1.
<mgrwt>
<rscale>  1 0.65129627E+03</rscale>
<asrwt>0</asrwt>
<pdfrwt beam="1">  1        1 0.38562528E+00 0.65129627E+03</pdfrwt>
<pdfrwt beam="2">0</pdfrwt>
<totfact> 0.15493234E+00</totfact>
</mgrwt>
</event>
<event>
 6    1  0.4233639E-003  0.6436395E+03  0.7818608E-02  0.9818788E-01
          1   -1    0    0  502    0  0.00000000000E+00  0.00000000000E+00  0.11466514246E+03  0.11466514246E+03  0.00000000000E+00 0.  1.
         13   -1    0    0    0    0 -0.00000000000E+00 -0.00000000000E+00 -0.10000000000E+04  0.10000000000E+04  0.00000000000E+00 0.  1.
    9000005    2    1    2  501    0 -0.34540637973E+00  0.12922771986E+01 -0.89638754912E+03  0.11035318017E+04  0.64363810467E+03 0.  0.
         13    1    3    3    0    0 -0.19571349640E+03  0.23954172646E+03 -0.60483623821E+03  0.67934592547E+03  0.00000000000E+00 0.  1.
          1    1    3    3  501    0  0.19536809002E+03 -0.23824944926E+03 -0.29155131091E+03  0.42418587620E+03  0.00000000000E+00 0.  1.
         21    1    1    2  502  501  0.34540637973E+00 -0.12922771986E+01  0.11052691587E+02  0.11133340795E+02  0.00000000000E+00 0. -1.
<mgrwt>
<rscale>  1 0.64363949E+03</rscale>
<asrwt>0</asrwt>
<pdfrwt beam="1">  1        1 0.41696503E+00 0.64363949E+03</pdfrwt>
<pdfrwt beam="2">0</pdfrwt>
<totfact> 0.11245436E+00</totfact>
</mgrwt>
</event>
<event>
 6    1  0.4233639E-003  0.6558581E+03  0.7818608E-02  0.9795848E-01
          1   -1    0    0  502    0  0.00000000000E+00  0.00000000000E+00  0.10754028710E+03  0.10754028710E+03  0.00000000000E+00 0.  1.
         13   -1    0    0    0    0 -0.00000000000E+00 -0.00000000000E+00 -0.10000000000E+04  0.10000000000E+04  0.00000000000E+00 0.  1.
    9000005    2    1    2  501    0 -0.74570032382E-04  0.11234876256E-04 -0.89246252599E+03  0.11075374730E+04  0.65585813542E+03 0.  0.
         13    1    3    3    0    0  0.27597605478E+03  0.71603562314E+01 -0.14736078002E+03  0.31293649995E+03  0.00000000000E+00 0.  1.
          3    1    3    3  501    0 -0.27597612935E+03 -0.71603449965E+01 -0.74510174597E+03  0.79460097305E+03  0.00000000000E+00 0.  1.
         21    1    1    2  502  501  0.74570032400E-04 -0.11234876256E-04  0.28130895301E-02  0.28141001433E-02  0.00000000000E+00 0.  1.
<mgrwt>
<rscale>  1 0.65585814E+03</rscale>
<asrwt>0</asrwt>
<pdfrwt beam="1">  1        1 0.39105641E+00 0.65585814E+03</pdfrwt>
<pdfrwt beam="2">0</pdfrwt>
<totfact> 0.14645704E+00</totfact>
</mgrwt>
</event>
<event>
 6    1  0.4233639E-003  0.6389792E+03  0.7818608E-02  0.9827682E-01
          1   -1    0    0  502    0  0.00000000000E+00  0.00000000000E+00  0.10207480576E+03  0.10207480576E+03  0.00000000000E+00 0.  1.
         13   -1    0    0    0    0 -0.00000000000E+00 -0.00000000000E+00 -0.10000000000E+04  0.10000000000E+04  0.00000000000E+00 0.  1.
    9000005    2    1    2  501    0 -0.13616522831E-02 -0.68166137554E-03 -0.89792583661E+03  0.11020731531E+04  0.63897920676E+03 0.  0.
         13    1    3    3    0    0 -0.40205268075E+02  0.46215377055E+02  0.91850518931E+02  0.11040309092E+03  0.00000000000E+00 0.  1.
          3    1    3    3  501    0  0.40203906423E+02 -0.46216058716E+02 -0.98977635554E+03  0.99167006215E+03  0.00000000000E+00 0.  1.
         21    1    1    2  502  501  0.13616522831E-02  0.68166137554E-03  0.64236638471E-03  0.16526928763E-02  0.00000000000E+00 0. -1.
<mgrwt>
<rscale>  1 0.63897921E+03</rscale>
<asrwt>0</asrwt>
<pdfrwt beam="1">  1        1 0.37118189E+00 0.63897921E+03</pdfrwt>
<pdfrwt beam="2">0</pdfrwt>
<totfact> 0.17980647E+00</totfact>
</mgrwt>
</event>
<event>
 6    1  0.4233639E-003  0.6207104E+03  0.7818608E-02  0.9863346E-01
          1   -1    0    0  502    0  0.00000000000E+00  0.00000000000E+00  0.96324459182E+02  0.96324459182E+02  0.00000000000E+00 0.  1.
         13   -1    0    0    0    0 -0.00000000000E+00 -0.00000000000E+00 -0.10000000000E+04  0.10000000000E+04  0.00000000000E+00 0.  1.
    9000005    2    1    2  501    0  0.51358713944E-03 -0.15980200592E-02 -0.90367945166E+03  0.10963202034E+04  0.62071042921E+03 0.  0.
         13    1    3    3    0    0  0.16456188181E+03  0.20434485753E+03 -0.15903452604E+03  0.30680517306E+03  0.00000000000E+00 0.  1.
          1    1    3    3  501    0 -0.16456136822E+03 -0.20434645555E+03 -0.74464492561E+03  0.78951503029E+03  0.00000000000E+00 0.  1.
         21    1    1    2  502  501 -0.51358713945E-03  0.15980200592E-02  0.39108379946E-02  0.42558305511E-02  0.00000000000E+00 0. -1.
<mgrwt>
<rscale>  1 0.62071043E+03</rscale>
<asrwt>0</asrwt>
<pdfrwt beam="1">  1        1 0.35027150E+00 0.62071043E+03</pdfrwt>
<pdfrwt beam="2">0</pdfrwt>
<totfact> 0.22270204E+00</totfact>
</mgrwt>
</event>
<event>
 6    1  0.4233639E-003  0.6494741E+03  0.7818608E-02  0.9807767E-01
          3   -1    0    0  502    0  0.00000000000E+00  0.00000000000E+00  0.10570356379E+03  0.10570356379E+03  0.00000000000E+00 0.  1.
         13   -1    0    0    0    0 -0.00000000000E+00 -0.00000000000E+00 -0.10000000000E+04  0.10000000000E+04  0.00000000000E+00 0.  1.
    9000005    2    1    2  501    0 -0.73341906442E+00  0.55795268662E-01 -0.89361385318E+03  0.11047001017E+04  0.64947367539E+03 0.  0.
         13    1    3    3    0    0  0.88579850249E+02 -0.19095194549E+03 -0.26312842758E+02  0.21213533664E+03  0.00000000000E+00 0.  1.
          3    1    3    3  501    0 -0.89313269313E+02  0.19100774076E+03 -0.86730101043E+03  0.89256476504E+03  0.00000000000E+00 0.  1.
         21    1    1    2  502  501  0.73341906442E+00 -0.55795268662E-01 -0.68258302131E+00  0.10034621154E+01  0.00000000000E+00 0. -1.
<mgrwt>
<rscale>  1 0.64947409E+03</rscale>
<asrwt>0</asrwt>
<pdfrwt beam="1">  1        3 0.38437741E+00 0.64947409E+03</pdfrwt>
<pdfrwt beam="2">0</pdfrwt>
<totfact> 0.71574996E-02</totfact>
</mgrwt>
</event>
<event>
 6    1  0.4233639E-003  0.6439266E+03  0.7818608E-02  0.9818243E-01
          1   -1    0    0  502    0  0.00000000000E+00  0.00000000000E+00  0.10366052126E+03  0.10366052126E+03  0.00000000000E+00 0.  1.
         13   -1    0    0    0    0 -0.00000000000E+00 -0.00000000000E+00 -0.10000000000E+04  0.10000000000E+04  0.00000000000E+00 0.  1.
    9000005    2    1    2  501    0 -0.67455126782E-05 -0.20760850305E-04 -0.89633963734E+03  0.11036603612E+04  0.64392658536E+03 0.  0.
         13    1    3    3    0    0  0.25693378665E+03 -0.11712298898E+03 -0.71329357024E+03  0.76715088647E+03  0.00000000000E+00 0.  1.
          3    1    3    3  501    0 -0.25693379340E+03  0.11712296822E+03 -0.18304606711E+03  0.33650947469E+03  0.00000000000E+00 0.  1.
         21    1    1    2  502  501  0.67455126523E-05  0.20760850313E-04  0.15860621389E-03  0.16010136143E-03  0.00000000000E+00 0.  1.
<mgrwt>
<rscale>  1 0.64392659E+03</rscale>
<asrwt>0</asrwt>
<pdfrwt beam="1">  1        1 0.37694814E+00 0.64392659E+03</pdfrwt>
<pdfrwt beam="2">0</pdfrwt>
<totfact> 0.16944993E+00</totfact>
</mgrwt>
</event>
<event>
 6    1  0.4233639E-003  0.6449205E+03  0.7818608E-02  0.9816357E-01
          1   -1    0    0  502    0  0.00000000000E+00  0.00000000000E+00  0.10398080601E+03  0.10398080601E+03  0.00000000000E+00 0.  1.
         13   -1    0    0    0    0 -0.00000000000E+00 -0.00000000000E+00 -0.10000000000E+04  0.10000000000E+04  0.00000000000E+00 0.  1.
    9000005    2    1    2  501    0 -0.47605723086E-03 -0.27044444568E-04 -0.89601898068E+03  0.11039802836E+04  0.64492050125E+03 0.  0.
         13    1    3    3    0    0  0.28313729311E+03  0.11131453819E+02 -0.18453613795E+03  0.33814822523E+03  0.00000000000E+00 0.  1.
          1    1    3    3  501    0 -0.28313776917E+03 -0.11131480864E+02 -0.71148284273E+03  0.76583205842E+03  0.00000000000E+00 0.  1.
         21    1    1    2  502  501  0.47605723083E-03  0.27044444569E-04 -0.21330949865E-03  0.52236273913E-03  0.00000000000E+00 0.  1.
<mgrwt>
<rscale>  1 0.64492050E+03</rscale>
<asrwt>0</asrwt>
<pdfrwt beam="1">  1        1 0.37811282E+00 0.64492050E+03</pdfrwt>
<pdfrwt beam="2">0</pdfrwt>
<totfact> 0.16742855E+00</totfact>
</mgrwt>
</event>
<event>
 6    1  0.4233639E-003  0.6398744E+03  0.7818608E-02  0.9825967E-01
          1   -1    0    0  502    0  0.00000000000E+00  0.00000000000E+00  0.10237831775E+03  0.10237831775E+03  0.00000000000E+00 0.  1.
         13   -1    0    0    0    0 -0.00000000000E+00 -0.00000000000E+00 -0.10000000000E+04  0.10000000000E+04  0.00000000000E+00 0.  1.
    9000005    2    1    2  501    0  0.30790603017E-02 -0.15644802035E-02 -0.89764000523E+03  0.11023596721E+04  0.63987441557E+03 0.  0.
         13    1    3    3    0    0 -0.20118758296E+03 -0.23350922109E+03 -0.30105632715E+03  0.43085718282E+03  0.00000000000E+00 0.  1.
          1    1    3    3  501    0  0.20119066202E+03  0.23350765661E+03 -0.59658367808E+03  0.67150248929E+03  0.00000000000E+00 0.  1.
         21    1    1    2  502  501 -0.30790603017E-02  0.15644802035E-02  0.18322975853E-01  0.18645633665E-01  0.00000000000E+00 0.  1.
<mgrwt>
<rscale>  1 0.63987442E+03</rscale>
<asrwt>0</asrwt>
<pdfrwt beam="1">  1        1 0.37228558E+00 0.63987442E+03</pdfrwt>
<pdfrwt beam="2">0</pdfrwt>
<totfact> 0.17778022E+00</totfact>
</mgrwt>
</event>
<event>
 6    1  0.4233639E-003  0.6316972E+03  0.7818608E-02  0.9841742E-01
          1   -1    0    0  502    0  0.00000000000E+00  0.00000000000E+00  0.11040626644E+03  0.11040626644E+03  0.00000000000E+00 0.  1.
         13   -1    0    0    0    0 -0.00000000000E+00 -0.00000000000E+00 -0.10000000000E+04  0.10000000000E+04  0.00000000000E+00 0.  1.
    9000005    2    1    2  501    0 -0.20954988522E+02  0.19475663848E+02 -0.87219125081E+03  0.10769210543E+04  0.63104909966E+03 0.  0.
         13    1    3    3    0    0 -0.16981045989E+03 -0.22826215159E+03 -0.20755091437E+03  0.35215988442E+03  0.00000000000E+00 0.  1.
          3    1    3    3  501    0  0.14885547137E+03  0.24773781544E+03 -0.66464033644E+03  0.72476116989E+03  0.00000000000E+00 0.  1.
         21    1    1    2  502  501  0.20954988522E+02 -0.19475663848E+02 -0.17402482746E+02  0.33485212140E+02  0.00000000000E+00 0. -1.
<mgrwt>
<rscale>  1 0.63169722E+03</rscale>
<asrwt>0</asrwt>
<pdfrwt beam="1">  1        1 0.40147818E+00 0.63169722E+03</pdfrwt>
<pdfrwt beam="2">0</pdfrwt>
<totfact> 0.13223905E+00</totfact>
</mgrwt>
</event>
<event>
 6    1  0.4233639E-003  0.6620860E+03  0.7818608E-02  0.9784361E-01
          1   -1    0    0  502    0  0.00000000000E+00  0.00000000000E+00  0.10958951224E+03  0.10958951224E+03  0.00000000000E+00 0.  1.
         13   -1    0    0    0    0 -0.00000000000E+00 -0.00000000000E+00 -0.10000000000E+04  0.10000000000E+04  0.00000000000E+00 0.  1.
    9000005    2    1    2  501    0 -0.56528881487E-06  0.41817706844E-05 -0.89041053551E+03  0.11095894643E+04  0.66208598953E+03 0.  0.
         13    1    3    3    0    0 -0.80251849286E+02  0.53379567807E+02  0.85554263375E+02  0.12887695510E+03  0.00000000000E+00 0.  1.
          1    1    3    3  501    0  0.80251848720E+02 -0.53379563625E+02 -0.97596479889E+03  0.98071250920E+03  0.00000000000E+00 0.  1.
         21    1    1    2  502  501  0.56528881929E-06 -0.41817706841E-05  0.47754876371E-04  0.47940953001E-04  0.00000000000E+00 0.  1.
<mgrwt>
<rscale>  1 0.66208599E+03</rscale>
<asrwt>0</asrwt>
<pdfrwt beam="1">  1        1 0.39850816E+00 0.66208599E+03</pdfrwt>
<pdfrwt beam="2">0</pdfrwt>
<totfact> 0.13554194E+00</totfact>
</mgrwt>
</event>
<event>
 6    1  0.4233639E-003  0.6493810E+03  0.7818608E-02  0.9807941E-01
          1   -1    0    0  502    0  0.00000000000E+00  0.00000000000E+00  0.10542894157E+03  0.10542894157E+03  0.00000000000E+00 0.  1.
         13   -1    0    0    0    0 -0.00000000000E+00 -0.00000000000E+00 -0.10000000000E+04  0.10000000000E+04  0.00000000000E+00 0.  1.
    9000005    2    1    2  501    0 -0.14144817706E-03  0.37724621558E-03 -0.89457607282E+03  0.11054239110E+04  0.64938099218E+03 0.  0.
         13    1    3    3    0    0 -0.25331433092E+03  0.19963715544E+03 -0.51100164169E+03  0.60427296968E+03  0.00000000000E+00 0.  1.
          1    1    3    3  501    0  0.25331418947E+03 -0.19963677819E+03 -0.38357443112E+03  0.50115094134E+03  0.00000000000E+00 0.  1.
         21    1    1    2  502  501  0.14144817706E-03 -0.37724621555E-03  0.50143816993E-02  0.50305413347E-02  0.00000000000E+00 0. -1.
<mgrwt>
<rscale>  1 0.64938099E+03</rscale>
<asrwt>0</asrwt>
<pdfrwt beam="1">  1        1 0.38337878E+00 0.64938099E+03</pdfrwt>
<pdfrwt beam="2">0</pdfrwt>
<totfact> 0.15857325E+00</totfact>
</mgrwt>
</event>
<event>
 6    1  0.4233639E-003  0.6600921E+03  0.7818608E-02  0.9788024E-01
          1   -1    0    0  502    0  0.00000000000E+00  0.00000000000E+00  0.11295418014E+03  0.11295418014E+03  0.00000000000E+00 0.  1.
         13   -1    0    0    0    0 -0.00000000000E+00 -0.00000000000E+00 -0.10000000000E+04  0.10000000000E+04  0.00000000000E+00 0.  1.
    9000005    2    1    2  501    0 -0.53029223776E+01 -0.32500880521E+01 -0.88820250164E+03  0.11066278881E+04  0.66006281124E+03 0.  0.
         13    1    3    3    0    0  0.26626026011E+03  0.16990080310E+03 -0.58226345226E+03  0.66241341837E+03  0.00000000000E+00 0.  1.
          3    1    3    3  501    0 -0.27156318249E+03 -0.17315089115E+03 -0.30593904938E+03  0.44421446974E+03  0.00000000000E+00 0.  1.
         21    1    1    2  502  501  0.53029223776E+01  0.32500880521E+01  0.11566817793E+01  0.63262920283E+01  0.00000000000E+00 0. -1.
<mgrwt>
<rscale>  1 0.66009211E+03</rscale>
<asrwt>0</asrwt>
<pdfrwt beam="1">  1        1 0.41074334E+00 0.66009211E+03</pdfrwt>
<pdfrwt beam="2">0</pdfrwt>
<totfact> 0.11954708E+00</totfact>
</mgrwt>
</event>
<event>
 6    1  0.4233639E-003  0.6480015E+03  0.7818608E-02  0.9810537E-01
          1   -1    0    0  502    0  0.00000000000E+00  0.00000000000E+00  0.10497964098E+03  0.10497964098E+03  0.00000000000E+00 0.  1.
         13   -1    0    0    0    0 -0.00000000000E+00 -0.00000000000E+00 -0.10000000000E+04  0.10000000000E+04  0.00000000000E+00 0.  1.
    9000005    2    1    2  501    0  0.16062765095E-02 -0.74234967079E-02 -0.89501733316E+03  0.11049714652E+04  0.64800147537E+03 0.  0.
         13    1    3    3    0    0  0.23897406474E+03  0.14099043773E+03 -0.16222940820E+03  0.32141139997E+03  0.00000000000E+00 0.  1.
          3    1    3    3  501    0 -0.23897245846E+03 -0.14099786123E+03 -0.73278792496E+03  0.78356006518E+03  0.00000000000E+00 0.  1.
         21    1    1    2  502  501 -0.16062765095E-02  0.74234967079E-02 -0.30258550534E-02  0.81758318477E-02  0.00000000000E+00 0. -1.
<mgrwt>
<rscale>  1 0.64800148E+03</rscale>
<asrwt>0</asrwt>
<pdfrwt beam="1">  1        1 0.38174495E+00 0.64800148E+03</pdfrwt>
<pdfrwt beam="2">0</pdfrwt>
<totfact> 0.16127173E+00</totfact>
</mgrwt>
</event>
<event>
 6    1  0.4233639E-003  0.5865140E+03  0.7818608E-02  0.9933787E-01
          1   -1    0    0  502    0  0.00000000000E+00  0.00000000000E+00  0.86000016924E+02  0.86000016924E+02  0.00000000000E+00 0.  1.
         13   -1    0    0    0    0 -0.00000000000E+00 -0.00000000000E+00 -0.10000000000E+04  0.10000000000E+04  0.00000000000E+00 0.  1.
    9000005    2    1    2  501    0 -0.29526667490E-04 -0.52752501460E-05 -0.91400032564E+03  0.10859996730E+04  0.58651401908E+03 0.  0.
         13    1    3    3    0    0 -0.11610961987E+03 -0.26911998053E+03 -0.43917545955E+03  0.52799819320E+03  0.00000000000E+00 0.  1.
          1    1    3    3  501    0  0.11610959034E+03  0.26911997526E+03 -0.47482486609E+03  0.55800147985E+03  0.00000000000E+00 0.  1.
         21    1    1    2  502  501  0.29526667489E-04  0.52752501064E-05  0.34256672125E-03  0.34387731950E-03  0.00000000000E+00 0.  1.
<mgrwt>
<rscale>  1 0.58651402E+03</rscale>
<asrwt>0</asrwt>
<pdfrwt beam="1">  1        1 0.31272799E+00 0.58651402E+03</pdfrwt>
<pdfrwt beam="2">0</pdfrwt>
<totfact> 0.32592212E+00</totfact>
</mgrwt>
</event>
<event>
 6    1  0.4233639E-003  0.4646267E+03  0.7818608E-02  0.1023448E+00
          1   -1    0    0  502    0  0.00000000000E+00  0.00000000000E+00  0.54000545968E+02  0.54000545968E+02  0.00000000000E+00 0.  1.
         13   -1    0    0    0    0 -0.00000000000E+00 -0.00000000000E+00 -0.10000000000E+04  0.10000000000E+04  0.00000000000E+00 0.  1.
    9000005    2    1    2  501    0  0.32366029835E-02 -0.15190187096E-02 -0.94603038774E+03  0.10539694063E+04  0.46462674797E+03 0.  0.
         13    1    3    3    0    0  0.15309829467E+03  0.12292905955E+03 -0.19133765144E+03  0.27415458845E+03  0.00000000000E+00 0.  1.
          3    1    3    3  501    0 -0.15309505806E+03 -0.12293057857E+03 -0.75469273630E+03  0.77981481787E+03  0.00000000000E+00 0.  1.
         21    1    1    2  502  501 -0.32366029835E-02  0.15190187096E-02  0.30933708831E-01  0.31139642881E-01  0.00000000000E+00 0.  1.
<mgrwt>
<rscale>  1 0.46462675E+03</rscale>
<asrwt>0</asrwt>
<pdfrwt beam="1">  1        1 0.19636604E+00 0.46462675E+03</pdfrwt>
<pdfrwt beam="2">0</pdfrwt>
<totfact> 0.10738281E+01</totfact>
</mgrwt>
</event>
<event>
 6    1  0.4233639E-003  0.5726473E+03  0.7818608E-02  0.9963837E-01
          1   -1    0    0  502    0  0.00000000000E+00  0.00000000000E+00  0.81981343595E+02  0.81981343595E+02  0.00000000000E+00 0.  1.
         13   -1    0    0    0    0 -0.00000000000E+00 -0.00000000000E+00 -0.10000000000E+04  0.10000000000E+04  0.00000000000E+00 0.  1.
    9000005    2    1    2  501    0  0.17761082063E-05 -0.75151472174E-05 -0.91801875513E+03  0.10819812446E+04  0.57264734246E+03 0.  0.
         13    1    3    3    0    0 -0.26083916531E+03  0.23426564654E+02 -0.24032898586E+03  0.35544886487E+03  0.00000000000E+00 0.  1.
          3    1    3    3  501    0  0.26083916709E+03 -0.23426572169E+02 -0.67768976927E+03  0.72653237970E+03  0.00000000000E+00 0.  1.
         21    1    1    2  502  501 -0.17761082447E-05  0.75151472148E-05  0.98726803768E-04  0.99028348368E-04  0.00000000000E+00 0. -1.
<mgrwt>
<rscale>  1 0.57264734E+03</rscale>
<asrwt>0</asrwt>
<pdfrwt beam="1">  1        1 0.29811461E+00 0.57264734E+03</pdfrwt>
<pdfrwt beam="2">0</pdfrwt>
<totfact> 0.37778382E+00</totfact>
</mgrwt>
</event>
<event>
 6    1  0.4233639E-003  0.6523060E+03  0.7818608E-02  0.9802462E-01
          1   -1    0    0  502    0  0.00000000000E+00  0.00000000000E+00  0.10653130272E+03  0.10653130272E+03  0.00000000000E+00 0.  1.
         13   -1    0    0    0    0 -0.00000000000E+00 -0.00000000000E+00 -0.10000000000E+04  0.10000000000E+04  0.00000000000E+00 0.  1.
    9000005    2    1    2  501    0 -0.13785390378E-01 -0.12585769547E-01 -0.89362360763E+03  0.11063752718E+04  0.65230597847E+03 0.  0.
         13    1    3    3    0    0  0.12388625209E+03 -0.14518294475E+03 -0.89539727731E+03  0.91551197432E+03  0.00000000000E+00 0.  1.
          1    1    3    3  501    0 -0.12390003748E+03  0.14517035898E+03  0.17736696833E+01  0.19086329746E+03  0.00000000000E+00 0.  1.
         21    1    1    2  502  501  0.13785390378E-01  0.12585769547E-01  0.15491034528E+00  0.15603093815E+00  0.00000000000E+00 0. -1.
<mgrwt>
<rscale>  1 0.65230598E+03</rscale>
<asrwt>0</asrwt>
<pdfrwt beam="1">  1        1 0.38738737E+00 0.65230598E+03</pdfrwt>
<pdfrwt beam="2">0</pdfrwt>
<totfact> 0.15214609E+00</totfact>
</mgrwt>
</event>
<event>
 6    1  0.4233639E-003  0.6789478E+03  0.7818608E-02  0.9753927E-01
          1   -1    0    0  502    0  0.00000000000E+00  0.00000000000E+00  0.11683037632E+03  0.11683037632E+03  0.00000000000E+00 0.  1.
         13   -1    0    0    0    0 -0.00000000000E+00 -0.00000000000E+00 -0.10000000000E+04  0.10000000000E+04  0.00000000000E+00 0.  1.
    9000005    2    1    2  501    0 -0.36630025573E+01  0.20984767506E+01 -0.87393296889E+03  0.11066747383E+04  0.67893469569E+03 0.  0.
         13    1    3    3    0    0  0.17913823788E+03  0.19482947501E+03 -0.78201209687E+03  0.82558582368E+03  0.00000000000E+00 0.  1.
          1    1    3    3  501    0 -0.18280124044E+03 -0.19273099826E+03 -0.91920872019E+02  0.28108891459E+03  0.00000000000E+00 0.  1.
         21    1    1    2  502  501  0.36630025573E+01 -0.20984767506E+01 -0.92366547908E+01  0.10155638047E+02  0.00000000000E+00 0. -1.
<mgrwt>
<rscale>  1 0.67894782E+03</rscale>
<asrwt>0</asrwt>
<pdfrwt beam="1">  1        1 0.42483863E+00 0.67894782E+03</pdfrwt>
<pdfrwt beam="2">0</pdfrwt>
<totfact> 0.10290593E+00</totfact>
</mgrwt>
</event>
<event>
 6    1  0.4233639E-003  0.6518806E+03  0.7818608E-02  0.9803257E-01
          1   -1    0    0  502    0  0.00000000000E+00  0.00000000000E+00  0.10649789942E+03  0.10649789942E+03  0.00000000000E+00 0.  1.
         13   -1    0    0    0    0 -0.00000000000E+00 -0.00000000000E+00 -0.10000000000E+04  0.10000000000E+04  0.00000000000E+00 0.  1.
    9000005    2    1    2  501    0  0.24486352099E-01  0.28589519426E-01 -0.89376142868E+03  0.11062358536E+04  0.65188056499E+03 0.  0.
         13    1    3    3    0    0 -0.29041130899E+03 -0.14624571749E+03 -0.40894003216E+03  0.52245429291E+03  0.00000000000E+00 0.  1.
          3    1    3    3  501    0  0.29043579534E+03  0.14627430701E+03 -0.48482139652E+03  0.58378156071E+03  0.00000000000E+00 0.  1.
         21    1    1    2  502  501 -0.24486352099E-01 -0.28589519426E-01  0.25932809856E+00  0.26204580661E+00  0.00000000000E+00 0.  1.
<mgrwt>
<rscale>  1 0.65188057E+03</rscale>
<asrwt>0</asrwt>
<pdfrwt beam="1">  1        1 0.38726591E+00 0.65188057E+03</pdfrwt>
<pdfrwt beam="2">0</pdfrwt>
<totfact> 0.15234665E+00</totfact>
</mgrwt>
</event>
<event>
 6    1  0.4233639E-003  0.6466193E+03  0.7818608E-02  0.9813144E-01
          1   -1    0    0  502    0  0.00000000000E+00  0.00000000000E+00  0.10452926657E+03  0.10452926657E+03  0.00000000000E+00 0.  1.
         13   -1    0    0    0    0 -0.00000000000E+00 -0.00000000000E+00 -0.10000000000E+04  0.10000000000E+04  0.00000000000E+00 0.  1.
    9000005    2    1    2  501    0 -0.38311147904E-04  0.42290733138E-04 -0.89547086487E+03  0.11045291233E+04  0.64661929629E+03 0.  0.
         13    1    3    3    0    0  0.21118715703E+03  0.29718600334E+02 -0.32663429342E+02  0.21575474529E+03  0.00000000000E+00 0.  1.
          3    1    3    3  501    0 -0.21118719534E+03 -0.29718558043E+02 -0.86280743553E+03  0.88877437799E+03  0.00000000000E+00 0.  1.
         21    1    1    2  502  501  0.38311147914E-04 -0.42290733138E-04  0.13143753277E-03  0.14329017825E-03  0.00000000000E+00 0.  1.
<mgrwt>
<rscale>  1 0.64661930E+03</rscale>
<asrwt>0</asrwt>
<pdfrwt beam="1">  1        1 0.38010723E+00 0.64661930E+03</pdfrwt>
<pdfrwt beam="2">0</pdfrwt>
<totfact> 0.16402045E+00</totfact>
</mgrwt>
</event>
<event>
 6    1  0.4233639E-003  0.6446579E+03  0.7818608E-02  0.9816855E-01
          1   -1    0    0  502    0  0.00000000000E+00  0.00000000000E+00  0.10426488423E+03  0.10426488423E+03  0.00000000000E+00 0.  1.
         13   -1    0    0    0    0 -0.00000000000E+00 -0.00000000000E+00 -0.10000000000E+04  0.10000000000E+04  0.00000000000E+00 0.  1.
    9000005    2    1    2  501    0 -0.24666063841E+00  0.12345922244E+00 -0.89604628453E+03  0.11038490602E+04  0.64465783757E+03 0.  0.
         13    1    3    3    0    0 -0.22260472682E+03  0.12989848155E+03 -0.11641163075E+03  0.28280408004E+03  0.00000000000E+00 0.  1.
          3    1    3    3  501    0  0.22235806618E+03 -0.12977502233E+03 -0.77963465379E+03  0.82104498013E+03  0.00000000000E+00 0.  1.
         21    1    1    2  502  501  0.24666063841E+00 -0.12345922244E+00  0.31116875962E+00  0.41582405788E+00  0.00000000000E+00 0. -1.
<mgrwt>
<rscale>  1 0.64465790E+03</rscale>
<asrwt>0</asrwt>
<pdfrwt beam="1">  1        1 0.37914583E+00 0.64465790E+03</pdfrwt>
<pdfrwt beam="2">0</pdfrwt>
<totfact> 0.16568976E+00</totfact>
</mgrwt>
</event>
<event>
 6    1  0.4233639E-003  0.6449105E+03  0.7818608E-02  0.9816376E-01
          1   -1    0    0  502    0  0.00000000000E+00  0.00000000000E+00  0.10397740860E+03  0.10397740860E+03  0.00000000000E+00 0.  1.
         13   -1    0    0    0    0 -0.00000000000E+00 -0.00000000000E+00 -0.10000000000E+04  0.10000000000E+04  0.00000000000E+00 0.  1.
    9000005    2    1    2  501    0 -0.35443795809E-05  0.28972970938E-05 -0.89602262322E+03  0.11039773765E+04  0.64491046387E+03 0.  0.
         13    1    3    3    0    0  0.23371582474E+03 -0.87090579150E+02 -0.98154370858E+02  0.26803383411E+03  0.00000000000E+00 0.  1.
          3    1    3    3  501    0 -0.23371582828E+03  0.87090582048E+02 -0.79786825236E+03  0.83594354235E+03  0.00000000000E+00 0.  1.
         21    1    1    2  502  501  0.35443795975E-05 -0.28972970977E-05  0.31812445147E-04  0.32140140376E-04  0.00000000000E+00 0. -1.
<mgrwt>
<rscale>  1 0.64491046E+03</rscale>
<asrwt>0</asrwt>
<pdfrwt beam="1">  1        1 0.37810046E+00 0.64491046E+03</pdfrwt>
<pdfrwt beam="2">0</pdfrwt>
<totfact> 0.16744986E+00</totfact>
</mgrwt>
</event>
<event>
 6    1  0.4233639E-003  0.6428454E+03  0.7818608E-02  0.9820298E-01
          1   -1    0    0  502    0  0.00000000000E+00  0.00000000000E+00  0.10332570900E+03  0.10332570900E+03  0.00000000000E+00 0.  1.
         13   -1    0    0    0    0 -0.00000000000E+00 -0.00000000000E+00 -0.10000000000E+04  0.10000000000E+04  0.00000000000E+00 0.  1.
    9000005    2    1    2  501    0 -0.65653335946E-03  0.19553740260E-03 -0.89668744687E+03  0.11033125353E+04  0.64284537268E+03 0.  0.
         13    1    3    3    0    0 -0.28690001780E+03 -0.10259668655E+03 -0.62400263320E+03  0.69441845205E+03  0.00000000000E+00 0.  1.
          3    1    3    3  501    0  0.28689936127E+03  0.10259688208E+03 -0.27268481367E+03  0.40889408325E+03  0.00000000000E+00 0.  1.
         21    1    1    2  502  501  0.65653335944E-03 -0.19553740261E-03  0.13155877657E-01  0.13173700613E-01  0.00000000000E+00 0.  1.
<mgrwt>
<rscale>  1 0.64284537E+03</rscale>
<asrwt>0</asrwt>
<pdfrwt beam="1">  1        1 0.37573064E+00 0.64284537E+03</pdfrwt>
<pdfrwt beam="2">0</pdfrwt>
<totfact> 0.17158919E+00</totfact>
</mgrwt>
</event>
<event>
 6    1  0.4233639E-003  0.6515998E+03  0.7818608E-02  0.9803782E-01
          1   -1    0    0  502    0  0.00000000000E+00  0.00000000000E+00  0.10697669867E+03  0.10697669867E+03  0.00000000000E+00 0.  1.
         13   -1    0    0    0    0 -0.00000000000E+00 -0.00000000000E+00 -0.10000000000E+04  0.10000000000E+04  0.00000000000E+00 0.  1.
    9000005    2    1    2  501    0  0.35324310155E-01 -0.79970635138E-01 -0.89385186908E+03  0.11061435314E+04  0.65159983169E+03 0.  0.
         13    1    3    3    0    0  0.41585339006E+02  0.83674839134E+02  0.82908628381E+02  0.12491861264E+03  0.00000000000E+00 0.  1.
          1    1    3    3  501    0 -0.41550014696E+02 -0.83754809769E+02 -0.97676049746E+03  0.98122491880E+03  0.00000000000E+00 0.  1.
         21    1    1    2  502  501 -0.35324310155E-01  0.79970635138E-01  0.82856774697E+00  0.83316722253E+00  0.00000000000E+00 0.  1.
<mgrwt>
<rscale>  1 0.65159984E+03</rscale>
<asrwt>0</asrwt>
<pdfrwt beam="1">  1        1 0.38900700E+00 0.65159984E+03</pdfrwt>
<pdfrwt beam="2">0</pdfrwt>
<totfact> 0.14967255E+00</totfact>
</mgrwt>
</event>
<event>
 6    1  0.4233639E-003  0.6493354E+03  0.7818608E-02  0.9808027E-01
          1   -1    0    0  502    0  0.00000000000E+00  0.00000000000E+00  0.10540968961E+03  0.10540968961E+03  0.00000000000E+00 0.  1.
         13   -1    0    0    0    0 -0.00000000000E+00 -0.00000000000E+00 -0.10000000000E+04  0.10000000000E+04  0.00000000000E+00 0.  1.
    9000005    2    1    2  501    0 -0.10000364256E-04 -0.13977255577E-04 -0.89459086844E+03  0.11054091313E+04  0.64933544926E+03 0.  0.
         13    1    3    3    0    0  0.11980397831E+03 -0.20735046668E+03 -0.74084373633E+02  0.25067050817E+03  0.00000000000E+00 0.  1.
          1    1    3    3  501    0 -0.11980398831E+03  0.20735045270E+03 -0.82050649481E+03  0.85473862313E+03  0.00000000000E+00 0.  1.
         21    1    1    2  502  501  0.10000364266E-04  0.13977255567E-04  0.55805248413E-03  0.55831706583E-03  0.00000000000E+00 0. -1.
<mgrwt>
<rscale>  1 0.64933545E+03</rscale>
<asrwt>0</asrwt>
<pdfrwt beam="1">  1        1 0.38330877E+00 0.64933545E+03</pdfrwt>
<pdfrwt beam="2">0</pdfrwt>
<totfact> 0.15868759E+00</totfact>
</mgrwt>
</event>
<event>
 6    1  0.4233639E-003  0.6497414E+03  0.7818608E-02  0.9807265E-01
          1   -1    0    0  502    0  0.00000000000E+00  0.00000000000E+00  0.10554303197E+03  0.10554303197E+03  0.00000000000E+00 0.  1.
         13   -1    0    0    0    0 -0.00000000000E+00 -0.00000000000E+00 -0.10000000000E+04  0.10000000000E+04  0.00000000000E+00 0.  1.
    9000005    2    1    2  501    0  0.28248608181E-02 -0.24196162812E-02 -0.89445698702E+03  0.11055393125E+04  0.64974138683E+03 0.  0.
         13    1    3    3    0    0 -0.31317338722E+03  0.77778492116E+02 -0.51118183191E+03  0.60451131467E+03  0.00000000000E+00 0.  1.
          3    1    3    3  501    0  0.31317621208E+03 -0.77780911733E+02 -0.38327515511E+03  0.50102799779E+03  0.00000000000E+00 0.  1.
         21    1    1    2  502  501 -0.28248608181E-02  0.24196162812E-02  0.18983932752E-04  0.37195082981E-02  0.00000000000E+00 0.  1.
<mgrwt>
<rscale>  1 0.64974139E+03</rscale>
<asrwt>0</asrwt>
<pdfrwt beam="1">  1        1 0.38379365E+00 0.64974139E+03</pdfrwt>
<pdfrwt beam="2">0</pdfrwt>
<totfact> 0.15789460E+00</totfact>
</mgrwt>
</event>
<event>
 6    1  0.4233639E-003  0.6574647E+03  0.7818608E-02  0.9792872E-01
          1   -1    0    0  502    0  0.00000000000E+00  0.00000000000E+00  0.11146070765E+03  0.11146070765E+03  0.00000000000E+00 0.  1.
         13   -1    0    0    0    0 -0.00000000000E+00 -0.00000000000E+00 -0.10000000000E+04  0.10000000000E+04  0.00000000000E+00 0.  1.
    9000005    2    1    2  501    0  0.15558342867E+01  0.28673677655E+00 -0.89172965753E+03  0.11078996308E+04  0.65746277993E+03 0.  0.
         13    1    3    3    0    0 -0.29162753194E+03  0.12020674647E+03 -0.59711120966E+03  0.67530591289E+03  0.00000000000E+00 0.  1.
          1    1    3    3  501    0  0.29318336623E+03 -0.11992000970E+03 -0.29461844787E+03  0.43259371792E+03  0.00000000000E+00 0.  1.
         21    1    1    2  502  501 -0.15558342867E+01 -0.28673677655E+00  0.31903651762E+01  0.35610768406E+01  0.00000000000E+00 0. -1.
<mgrwt>
<rscale>  1 0.65746468E+03</rscale>
<asrwt>0</asrwt>
<pdfrwt beam="1">  1        1 0.40531252E+00 0.65746468E+03</pdfrwt>
<pdfrwt beam="2">0</pdfrwt>
<totfact> 0.12649712E+00</totfact>
</mgrwt>
</event>
<event>
 6    1  0.4233639E-003  0.6548089E+03  0.7818608E-02  0.9797797E-01
          1   -1    0    0  502    0  0.00000000000E+00  0.00000000000E+00  0.10891320320E+03  0.10891320320E+03  0.00000000000E+00 0.  1.
         13   -1    0    0    0    0 -0.00000000000E+00 -0.00000000000E+00 -0.10000000000E+04  0.10000000000E+04  0.00000000000E+00 0.  1.
    9000005    2    1    2  501    0  0.40115932603E-01  0.97465293864E-01 -0.89280454153E+03  0.11071922280E+04  0.65480887990E+03 0.  0.
         13    1    3    3    0    0  0.38182170493E+02 -0.96582928143E+02  0.78598282119E+02  0.13024526903E+03  0.00000000000E+00 0.  1.
          1    1    3    3  501    0 -0.38142054560E+02  0.96680393437E+02 -0.97140282365E+03  0.97694695895E+03  0.00000000000E+00 0.  1.
         21    1    1    2  502  501 -0.40115932603E-01 -0.97465293864E-01  0.17177447294E+01  0.17209752255E+01  0.00000000000E+00 0. -1.
<mgrwt>
<rscale>  1 0.65480889E+03</rscale>
<asrwt>0</asrwt>
<pdfrwt beam="1">  1        1 0.39604885E+00 0.65480889E+03</pdfrwt>
<pdfrwt beam="2">0</pdfrwt>
<totfact> 0.13919201E+00</totfact>
</mgrwt>
</event>
<event>
 6    1  0.4233639E-003  0.6485969E+03  0.7818608E-02  0.9809415E-01
          1   -1    0    0  502    0  0.00000000000E+00  0.00000000000E+00  0.10516979781E+03  0.10516979781E+03  0.00000000000E+00 0.  1.
         13   -1    0    0    0    0 -0.00000000000E+00 -0.00000000000E+00 -0.10000000000E+04  0.10000000000E+04  0.00000000000E+00 0.  1.
    9000005    2    1    2  501    0 -0.31282903535E-04 -0.18442296295E-04 -0.89483049972E+03  0.11051694981E+04  0.64859694438E+03 0.  0.
         13    1    3    3    0    0  0.14531997769E+03  0.21132407842E+03 -0.78561050718E+03  0.82641371662E+03  0.00000000000E+00 0.  1.
          1    1    3    3  501    0 -0.14532000898E+03 -0.21132409686E+03 -0.10921999254E+03  0.27875578145E+03  0.00000000000E+00 0.  1.
         21    1    1    2  502  501  0.31282903555E-04  0.18442296312E-04  0.29752864433E-03  0.29973660528E-03  0.00000000000E+00 0. -1.
<mgrwt>
<rscale>  1 0.64859694E+03</rscale>
<asrwt>0</asrwt>
<pdfrwt beam="1">  1        1 0.38243643E+00 0.64859694E+03</pdfrwt>
<pdfrwt beam="2">0</pdfrwt>
<totfact> 0.16012403E+00</totfact>
</mgrwt>
</event>
<event>
 6    1  0.4233639E-003  0.6488424E+03  0.7818608E-02  0.9808954E-01
          3   -1    0    0  502    0  0.00000000000E+00  0.00000000000E+00  0.10525012884E+03  0.10525012884E+03  0.00000000000E+00 0.  1.
         13   -1    0    0    0    0 -0.00000000000E+00 -0.00000000000E+00 -0.10000000000E+04  0.10000000000E+04  0.00000000000E+00 0.  1.
    9000005    2    1    2  501    0 -0.53706840859E-04  0.21701788128E-02 -0.89474935118E+03  0.11052478966E+04  0.64884243963E+03 0.  0.
         13    1    3    3    0    0  0.10830410054E+03  0.18340445787E+03 -0.86421665346E+03  0.89007718624E+03  0.00000000000E+00 0.  1.
          3    1    3    3  501    0 -0.10830415425E+03 -0.18340228769E+03 -0.30532697725E+02  0.21517071034E+03  0.00000000000E+00 0.  1.
         21    1    1    2  502  501  0.53706840855E-04 -0.21701788128E-02 -0.51998351881E-03  0.22322507395E-02  0.00000000000E+00 0. -1.
<mgrwt>
<rscale>  1 0.64884244E+03</rscale>
<asrwt>0</asrwt>
<pdfrwt beam="1">  1        3 0.38272855E+00 0.64884244E+03</pdfrwt>
<pdfrwt beam="2">0</pdfrwt>
<totfact> 0.73030590E-02</totfact>
</mgrwt>
</event>
<event>
 6    1  0.4233639E-003  0.6560183E+03  0.7818608E-02  0.9795551E-01
          1   -1    0    0  502    0  0.00000000000E+00  0.00000000000E+00  0.10759001830E+03  0.10759001830E+03  0.00000000000E+00 0.  1.
         13   -1    0    0    0    0 -0.00000000000E+00 -0.00000000000E+00 -0.10000000000E+04  0.10000000000E+04  0.00000000000E+00 0.  1.
    9000005    2    1    2  501    0 -0.74620106716E-06 -0.28017446994E-05 -0.89240998480E+03  0.11075900141E+04  0.65601833682E+03 0.  0.
         13    1    3    3    0    0  0.14594774742E+03 -0.27586260396E+03 -0.61662902618E+03  0.69110945382E+03  0.00000000000E+00 0.  1.
          3    1    3    3  501    0 -0.14594774816E+03  0.27586260115E+03 -0.27578095862E+03  0.41648056023E+03  0.00000000000E+00 0.  1.
         21    1    1    2  502  501  0.74620105704E-06  0.28017446859E-05  0.31057630740E-05  0.42488061352E-05  0.00000000000E+00 0.  1.
<mgrwt>
<rscale>  1 0.65601834E+03</rscale>
<asrwt>0</asrwt>
<pdfrwt beam="1">  1        1 0.39123726E+00 0.65601834E+03</pdfrwt>
<pdfrwt beam="2">0</pdfrwt>
<totfact> 0.14618232E+00</totfact>
</mgrwt>
</event>
<event>
 6    1  0.4233639E-003  0.6336385E+03  0.7818608E-02  0.9837974E-01
          1   -1    0    0  502    0  0.00000000000E+00  0.00000000000E+00  0.10037442959E+03  0.10037442959E+03  0.00000000000E+00 0.  1.
         13   -1    0    0    0    0 -0.00000000000E+00 -0.00000000000E+00 -0.10000000000E+04  0.10000000000E+04  0.00000000000E+00 0.  1.
    9000005    2    1    2  501    0 -0.16476011751E-04 -0.49400285604E-05 -0.89962556149E+03  0.11003744102E+04  0.63363845509E+03 0.  0.
         13    1    3    3    0    0 -0.20924872548E+03  0.22959516010E+03 -0.34170412039E+03  0.46180155105E+03  0.00000000000E+00 0.  1.
          3    1    3    3  501    0  0.20924870900E+03 -0.22959516504E+03 -0.55792144110E+03  0.63857285917E+03  0.00000000000E+00 0.  1.
         21    1    1    2  502  501  0.16476011755E-04  0.49400285595E-05 -0.89149338481E-05  0.19373664884E-04  0.00000000000E+00 0.  1.
<mgrwt>
<rscale>  1 0.63363846E+03</rscale>
<asrwt>0</asrwt>
<pdfrwt beam="1">  1        1 0.36499870E+00 0.63363846E+03</pdfrwt>
<pdfrwt beam="2">0</pdfrwt>
<totfact> 0.19158440E+00</totfact>
</mgrwt>
</event>
<event>
 6    1  0.4233639E-003  0.6543564E+03  0.7818608E-02  0.9798639E-01
          1   -1    0    0  502    0  0.00000000000E+00  0.00000000000E+00  0.10705124036E+03  0.10705124036E+03  0.00000000000E+00 0.  1.
         13   -1    0    0    0    0 -0.00000000000E+00 -0.00000000000E+00 -0.10000000000E+04  0.10000000000E+04  0.00000000000E+00 0.  1.
    9000005    2    1    2  501    0 -0.40491001542E-04  0.65507157359E-04 -0.89295443709E+03  0.11070455624E+04  0.65435636353E+03 0.  0.
         13    1    3    3    0    0  0.10768220059E+03  0.23948212322E+03 -0.77669825597E+03  0.81988250651E+03  0.00000000000E+00 0.  1.
          1    1    3    3  501    0 -0.10768224108E+03 -0.23948205771E+03 -0.11625618112E+03  0.28716305587E+03  0.00000000000E+00 0.  1.
         21    1    1    2  502  501  0.40491001537E-04 -0.65507157349E-04  0.56774475734E-02  0.56779698535E-02  0.00000000000E+00 0.  1.
<mgrwt>
<rscale>  1 0.65435636E+03</rscale>
<asrwt>0</asrwt>
<pdfrwt beam="1">  1        1 0.38927806E+00 0.65435636E+03</pdfrwt>
<pdfrwt beam="2">0</pdfrwt>
<totfact> 0.14918272E+00</totfact>
</mgrwt>
</event>
<event>
 6    1  0.4233639E-003  0.6488557E+03  0.7818608E-02  0.9808929E-01
          1   -1    0    0  502    0  0.00000000000E+00  0.00000000000E+00  0.10525399525E+03  0.10525399525E+03  0.00000000000E+00 0.  1.
         13   -1    0    0    0    0 -0.00000000000E+00 -0.00000000000E+00 -0.10000000000E+04  0.10000000000E+04  0.00000000000E+00 0.  1.
    9000005    2    1    2  501    0  0.62849796109E-04  0.32076367461E-04 -0.89474656273E+03  0.11052534328E+04  0.64885571530E+03 0.  0.
         13    1    3    3    0    0 -0.81713423354E+02  0.31343517165E+03 -0.41620782674E+03  0.52739704723E+03  0.00000000000E+00 0.  1.
          1    1    3    3  501    0  0.81713486204E+02 -0.31343513957E+03 -0.47853873598E+03  0.57785638560E+03  0.00000000000E+00 0.  1.
         21    1    1    2  502  501 -0.62849796097E-04 -0.32076367481E-04  0.55797272451E-03  0.56241670630E-03  0.00000000000E+00 0.  1.
<mgrwt>
<rscale>  1 0.64885572E+03</rscale>
<asrwt>0</asrwt>
<pdfrwt beam="1">  1        1 0.38274261E+00 0.64885572E+03</pdfrwt>
<pdfrwt beam="2">0</pdfrwt>
<totfact> 0.15961848E+00</totfact>
</mgrwt>
</event>
<event>
 6    1  0.4233639E-003  0.6572213E+03  0.7818608E-02  0.9793323E-01
          3   -1    0    0  502    0  0.00000000000E+00  0.00000000000E+00  0.10798812065E+03  0.10798812065E+03  0.00000000000E+00 0.  1.
         13   -1    0    0    0    0 -0.00000000000E+00 -0.00000000000E+00 -0.10000000000E+04  0.10000000000E+04  0.00000000000E+00 0.  1.
    9000005    2    1    2  501    0 -0.34885429031E-04  0.47953411429E-03 -0.89201503381E+03  0.11079849298E+04  0.65722125957E+03 0.  0.
         13    1    3    3    0    0 -0.10132053182E+03 -0.68768872546E+02 -0.96009864481E+03  0.96787623990E+03  0.00000000000E+00 0.  1.
          1    1    3    3  501    0  0.10132049694E+03  0.68769352080E+02  0.68083611003E+02  0.14010868985E+03  0.00000000000E+00 0.  1.
         21    1    1    2  502  501  0.34885429030E-04 -0.47953411430E-03  0.31544615362E-02  0.31908929069E-02  0.00000000000E+00 0.  1.
<mgrwt>
<rscale>  1 0.65722126E+03</rscale>
<asrwt>0</asrwt>
<pdfrwt beam="1">  1        3 0.39268490E+00 0.65722126E+03</pdfrwt>
<pdfrwt beam="2">0</pdfrwt>
<totfact> 0.64634297E-02</totfact>
</mgrwt>
</event>
<event>
 6    1  0.4233639E-003  0.6531388E+03  0.7818608E-02  0.9800907E-01
          1   -1    0    0  502    0  0.00000000000E+00  0.00000000000E+00  0.10666099713E+03  0.10666099713E+03  0.00000000000E+00 0.  1.
         13   -1    0    0    0    0 -0.00000000000E+00 -0.00000000000E+00 -0.10000000000E+04  0.10000000000E+04  0.00000000000E+00 0.  1.
    9000005    2    1    2  501    0 -0.17460372454E-02 -0.38093516916E-02 -0.89335207925E+03  0.11066472657E+04  0.65313875495E+03 0.  0.
         13    1    3    3    0    0  0.20191897824E+03 -0.17619608698E+03 -0.13045614032E+03  0.29805224272E+03  0.00000000000E+00 0.  1.
          1    1    3    3  501    0 -0.20192072428E+03  0.17619227763E+03 -0.76289593893E+03  0.80859502301E+03  0.00000000000E+00 0.  1.
         21    1    1    2  502  501  0.17460372454E-02  0.38093516916E-02  0.13076377863E-01  0.13731404312E-01  0.00000000000E+00 0. -1.
<mgrwt>
<rscale>  1 0.65313875E+03</rscale>
<asrwt>0</asrwt>
<pdfrwt beam="1">  1        1 0.38785899E+00 0.65313875E+03</pdfrwt>
<pdfrwt beam="2">0</pdfrwt>
<totfact> 0.15139272E+00</totfact>
</mgrwt>
</event>
<event>
 6    1  0.4233639E-003  0.6496127E+03  0.7818608E-02  0.9807506E-01
          1   -1    0    0  502    0  0.00000000000E+00  0.00000000000E+00  0.10556197433E+03  0.10556197433E+03  0.00000000000E+00 0.  1.
         13   -1    0    0    0    0 -0.00000000000E+00 -0.00000000000E+00 -0.10000000000E+04  0.10000000000E+04  0.00000000000E+00 0.  1.
    9000005    2    1    2  501    0  0.18225014057E+00  0.64152334877E-01 -0.89418506239E+03  0.11052436647E+04  0.64961265006E+03 0.  0.
         13    1    3    3    0    0 -0.18519145807E+03 -0.24310932307E+03 -0.63376738971E+03  0.70360437987E+03  0.00000000000E+00 0.  1.
          1    1    3    3  501    0  0.18537370821E+03  0.24317347541E+03 -0.26041767268E+03  0.40163928478E+03  0.00000000000E+00 0.  1.
         21    1    1    2  502  501 -0.18225014057E+00 -0.64152334877E-01 -0.25296327526E+00  0.31830968323E+00  0.00000000000E+00 0. -1.
<mgrwt>
<rscale>  1 0.64961268E+03</rscale>
<asrwt>0</asrwt>
<pdfrwt beam="1">  1        1 0.38386253E+00 0.64961268E+03</pdfrwt>
<pdfrwt beam="2">0</pdfrwt>
<totfact> 0.15778768E+00</totfact>
</mgrwt>
</event>
<event>
 6    1  0.4233639E-003  0.6567164E+03  0.7818608E-02  0.9794257E-01
          1   -1    0    0  502    0  0.00000000000E+00  0.00000000000E+00  0.10986918561E+03  0.10986918561E+03  0.00000000000E+00 0.  1.
         13   -1    0    0    0    0 -0.00000000000E+00 -0.00000000000E+00 -0.10000000000E+04  0.10000000000E+04  0.00000000000E+00 0.  1.
    9000005    2    1    2  501    0  0.77301686985E+00 -0.31546627587E+01 -0.89064312510E+03  0.11065810380E+04  0.65670835840E+03 0.  0.
         13    1    3    3    0    0  0.28890740280E+03 -0.86511229649E+02 -0.66834271251E+03  0.73323506572E+03  0.00000000000E+00 0.  1.
          1    1    3    3  501    0 -0.28813438593E+03  0.83356566891E+02 -0.22230041259E+03  0.37334597231E+03  0.00000000000E+00 0.  1.
         21    1    1    2  502  501 -0.77301686985E+00  0.31546627587E+01  0.51231070566E+00  0.32881475729E+01  0.00000000000E+00 0.  1.
<mgrwt>
<rscale>  1 0.65671639E+03</rscale>
<asrwt>0</asrwt>
<pdfrwt beam="1">  1        1 0.39952515E+00 0.65671639E+03</pdfrwt>
<pdfrwt beam="2">0</pdfrwt>
<totfact> 0.13427000E+00</totfact>
</mgrwt>
</event>
<event>
 6    1  0.4233639E-003  0.6461756E+03  0.7818608E-02  0.9813982E-01
          1   -1    0    0  502    0  0.00000000000E+00  0.00000000000E+00  0.10439022089E+03  0.10439022089E+03  0.00000000000E+00 0.  1.
         13   -1    0    0    0    0 -0.00000000000E+00 -0.00000000000E+00 -0.10000000000E+04  0.10000000000E+04  0.00000000000E+00 0.  1.
    9000005    2    1    2  501    0  0.62403025538E-04 -0.15494512041E-04 -0.89561426577E+03  0.11043857338E+04  0.64617562310E+03 0.  0.
         13    1    3    3    0    0  0.19964839349E+03 -0.17841377630E+03 -0.13877085453E+03  0.30157636954E+03  0.00000000000E+00 0.  1.
          3    1    3    3  501    0 -0.19964833108E+03  0.17841376081E+03 -0.75684341125E+03  0.80280936423E+03  0.00000000000E+00 0.  1.
         21    1    1    2  502  501 -0.62403025543E-04  0.15494512037E-04  0.44866590152E-02  0.44871197149E-02  0.00000000000E+00 0.  1.
<mgrwt>
<rscale>  1 0.64617562E+03</rscale>
<asrwt>0</asrwt>
<pdfrwt beam="1">  1        1 0.37960160E+00 0.64617562E+03</pdfrwt>
<pdfrwt beam="2">0</pdfrwt>
<totfact> 0.16487856E+00</totfact>
</mgrwt>
</event>
<event>
 6    1  0.4233639E-003  0.6415100E+03  0.7818608E-02  0.9822842E-01
          1   -1    0    0  502    0  0.00000000000E+00  0.00000000000E+00  0.10288629996E+03  0.10288629996E+03  0.00000000000E+00 0.  1.
         13   -1    0    0    0    0 -0.00000000000E+00 -0.00000000000E+00 -0.10000000000E+04  0.10000000000E+04  0.00000000000E+00 0.  1.
    9000005    2    1    2  501    0 -0.40264049037E-04 -0.27839605778E-04 -0.89711621644E+03  0.11028837831E+04  0.64151004138E+03 0.  0.
         13    1    3    3    0    0 -0.30731648049E+02 -0.68551187142E+02 -0.98466200884E+03  0.98752365598E+03  0.00000000000E+00 0.  1.
          1    1    3    3  501    0  0.30731607785E+02  0.68551159302E+02  0.87545792404E+02  0.11536012711E+03  0.00000000000E+00 0.  1.
         21    1    1    2  502  501  0.40264049036E-04  0.27839605773E-04  0.25164033747E-02  0.25168794532E-02  0.00000000000E+00 0. -1.
<mgrwt>
<rscale>  1 0.64151004E+03</rscale>
<asrwt>0</asrwt>
<pdfrwt beam="1">  1        1 0.37413279E+00 0.64151004E+03</pdfrwt>
<pdfrwt beam="2">0</pdfrwt>
<totfact> 0.17443325E+00</totfact>
</mgrwt>
</event>
<event>
 6    1  0.4233639E-003  0.6453364E+03  0.7818608E-02  0.9815570E-01
          1   -1    0    0  502    0  0.00000000000E+00  0.00000000000E+00  0.10411526166E+03  0.10411526166E+03  0.00000000000E+00 0.  1.
         13   -1    0    0    0    0 -0.00000000000E+00 -0.00000000000E+00 -0.10000000000E+04  0.10000000000E+04  0.00000000000E+00 0.  1.
    9000005    2    1    2  501    0  0.55598821405E-05  0.17132652346E-04 -0.89588523585E+03  0.11041147638E+04  0.64533638971E+03 0.  0.
         13    1    3    3    0    0  0.21872648130E+03 -0.20006716374E+03 -0.66601945464E+03  0.72900621231E+03  0.00000000000E+00 0.  1.
          1    1    3    3  501    0 -0.21872647574E+03  0.20006718087E+03 -0.22986578121E+03  0.37510855152E+03  0.00000000000E+00 0.  1.
         21    1    1    2  502  501 -0.55598821335E-05 -0.17132652334E-04  0.49751463411E-03  0.49784058816E-03  0.00000000000E+00 0. -1.
<mgrwt>
<rscale>  1 0.64533639E+03</rscale>
<asrwt>0</asrwt>
<pdfrwt beam="1">  1        1 0.37860175E+00 0.64533639E+03</pdfrwt>
<pdfrwt beam="2">0</pdfrwt>
<totfact> 0.16658688E+00</totfact>
</mgrwt>
</event>
<event>
 6    1  0.4233639E-003  0.6119354E+03  0.7818608E-02  0.9880949E-01
          1   -1    0    0  502    0  0.00000000000E+00  0.00000000000E+00  0.93616273239E+02  0.93616273239E+02  0.00000000000E+00 0.  1.
         13   -1    0    0    0    0 -0.00000000000E+00 -0.00000000000E+00 -0.10000000000E+04  0.10000000000E+04  0.00000000000E+00 0.  1.
    9000005    2    1    2  501    0  0.17325472371E-04  0.17322977655E-04 -0.90638375691E+03  0.10936162344E+04  0.61193541597E+03 0.  0.
         13    1    3    3    0    0 -0.33551439931E+02 -0.44562732273E+02 -0.99083602936E+03  0.99240494422E+03  0.00000000000E+00 0.  1.
          3    1    3    3  501    0  0.33551457256E+02  0.44562749595E+02  0.84452272450E+02  0.10121129017E+03  0.00000000000E+00 0.  1.
         21    1    1    2  502  501 -0.17325472367E-04 -0.17322977657E-04  0.30151055902E-04  0.38850273096E-04  0.00000000000E+00 0. -1.
<mgrwt>
<rscale>  1 0.61193542E+03</rscale>
<asrwt>0</asrwt>
<pdfrwt beam="1">  1        1 0.34042353E+00 0.61193542E+03</pdfrwt>
<pdfrwt beam="2">0</pdfrwt>
<totfact> 0.24617716E+00</totfact>
</mgrwt>
</event>
<event>
 6    1  0.4233639E-003  0.6525893E+03  0.7818608E-02  0.9801933E-01
          1   -1    0    0  502    0  0.00000000000E+00  0.00000000000E+00  0.10646827616E+03  0.10646827616E+03  0.00000000000E+00 0.  1.
         13   -1    0    0    0    0 -0.00000000000E+00 -0.00000000000E+00 -0.10000000000E+04  0.10000000000E+04  0.00000000000E+00 0.  1.
    9000005    2    1    2  501    0  0.22151096667E-03 -0.59695048691E-04 -0.89353160605E+03  0.11064680183E+04  0.65258926167E+03 0.  0.
         13    1    3    3    0    0  0.17446106160E+03 -0.95479061979E+02 -0.88535891285E+03  0.90742124609E+03  0.00000000000E+00 0.  1.
          1    1    3    3  501    0 -0.17446084009E+03  0.95479002284E+02 -0.81726932032E+01  0.19904677218E+03  0.00000000000E+00 0.  1.
         21    1    1    2  502  501 -0.22151096667E-03  0.59695048687E-04 -0.11779227207E-03  0.25788684835E-03  0.00000000000E+00 0.  1.
<mgrwt>
<rscale>  1 0.65258926E+03</rscale>
<asrwt>0</asrwt>
<pdfrwt beam="1">  1        1 0.38715818E+00 0.65258926E+03</pdfrwt>
<pdfrwt beam="2">0</pdfrwt>
<totfact> 0.15249408E+00</totfact>
</mgrwt>
</event>
<event>
 6    1  0.4233639E-003  0.6066216E+03  0.7818608E-02  0.9891763E-01
          1   -1    0    0  502    0  0.00000000000E+00  0.00000000000E+00  0.96421592297E+02  0.96421592297E+02  0.00000000000E+00 0.  1.
         13   -1    0    0    0    0 -0.00000000000E+00 -0.00000000000E+00 -0.10000000000E+04  0.10000000000E+04  0.00000000000E+00 0.  1.
    9000005    2    1    2  501    0  0.15957073097E+00  0.58456294254E+00 -0.90797989454E+03  0.10919785907E+04  0.60662128756E+03 0.  0.
         13    1    3    3    0    0  0.13746005227E+03 -0.24697178582E+02  0.30681798959E+02  0.14299157104E+03  0.00000000000E+00 0.  1.
          1    1    3    3  501    0 -0.13730048154E+03  0.25281741525E+02 -0.93866169350E+03  0.94898701968E+03  0.00000000000E+00 0.  1.
         21    1    1    2  502  501 -0.15957073097E+00 -0.58456294254E+00  0.44014868363E+01  0.44430015780E+01  0.00000000000E+00 0. -1.
<mgrwt>
<rscale>  1 0.60662159E+03</rscale>
<asrwt>0</asrwt>
<pdfrwt beam="1">  1        1 0.35062471E+00 0.60662159E+03</pdfrwt>
<pdfrwt beam="2">0</pdfrwt>
<totfact> 0.22248007E+00</totfact>
</mgrwt>
</event>
<event>
 6    1  0.4233639E-003  0.6217698E+03  0.7818608E-02  0.9861242E-01
          1   -1    0    0  502    0  0.00000000000E+00  0.00000000000E+00  0.96649494106E+02  0.96649494106E+02  0.00000000000E+00 0.  1.
         13   -1    0    0    0    0 -0.00000000000E+00 -0.00000000000E+00 -0.10000000000E+04  0.10000000000E+04  0.00000000000E+00 0.  1.
    9000005    2    1    2  501    0 -0.30053503082E-05 -0.88720893032E-05 -0.90335059119E+03  0.10966494083E+04  0.62176975973E+03 0.  0.
         13    1    3    3    0    0  0.11990075984E+03  0.62843642122E+01 -0.95745708352E+03  0.96495582915E+03  0.00000000000E+00 0.  1.
          3    1    3    3  501    0 -0.11990076284E+03 -0.62843730843E+01  0.54106492326E+02  0.13169357914E+03  0.00000000000E+00 0.  1.
         21    1    1    2  502  501  0.30053503193E-05  0.88720893027E-05  0.85297087092E-04  0.85809901326E-04  0.00000000000E+00 0. -1.
<mgrwt>
<rscale>  1 0.62176976E+03</rscale>
<asrwt>0</asrwt>
<pdfrwt beam="1">  1        1 0.35145345E+00 0.62176976E+03</pdfrwt>
<pdfrwt beam="2">0</pdfrwt>
<totfact> 0.22003418E+00</totfact>
</mgrwt>
</event>
<event>
 6    1  0.4233639E-003  0.6671634E+03  0.7818608E-02  0.9775096E-01
          1   -1    0    0  502    0  0.00000000000E+00  0.00000000000E+00  0.11127765117E+03  0.11127765117E+03  0.00000000000E+00 0.  1.
         13   -1    0    0    0    0 -0.00000000000E+00 -0.00000000000E+00 -0.10000000000E+04  0.10000000000E+04  0.00000000000E+00 0.  1.
    9000005    2    1    2  501    0 -0.63482877977E-05  0.17263513428E-04 -0.88872323405E+03  0.11112767658E+04  0.66716344577E+03 0.  0.
         13    1    3    3    0    0 -0.49311340609E+02 -0.21139525804E+03 -0.22458536959E+02  0.21822912115E+03  0.00000000000E+00 0.  1.
          3    1    3    3  501    0  0.49311334261E+02  0.21139527531E+03 -0.86626469709E+03  0.89304764461E+03  0.00000000000E+00 0.  1.
         21    1    1    2  502  501  0.63482877989E-05 -0.17263513430E-04  0.88521842156E-03  0.88540950047E-03  0.00000000000E+00 0.  1.
<mgrwt>
<rscale>  1 0.66716345E+03</rscale>
<asrwt>0</asrwt>
<pdfrwt beam="1">  1        1 0.40464686E+00 0.66716345E+03</pdfrwt>
<pdfrwt beam="2">0</pdfrwt>
<totfact> 0.12713378E+00</totfact>
</mgrwt>
</event>
<event>
 6    1  0.4233639E-003  0.6503352E+03  0.7818608E-02  0.9806150E-01
          1   -1    0    0  502    0  0.00000000000E+00  0.00000000000E+00  0.10573397960E+03  0.10573397960E+03  0.00000000000E+00 0.  1.
         13   -1    0    0    0    0 -0.00000000000E+00 -0.00000000000E+00 -0.10000000000E+04  0.10000000000E+04  0.00000000000E+00 0.  1.
    9000005    2    1    2  501    0 -0.27529369504E-05 -0.19223573240E-05 -0.89426603567E+03  0.11057339640E+04  0.65033518781E+03 0.  0.
         13    1    3    3    0    0  0.26658863466E+03  0.23188262476E+01 -0.13059786076E+03  0.29686811604E+03  0.00000000000E+00 0.  1.
          1    1    3    3  501    0 -0.26658863741E+03 -0.23188281699E+01 -0.76366817491E+03  0.80886584792E+03  0.00000000000E+00 0.  1.
         21    1    1    2  502  501  0.27529369212E-05  0.19223573243E-05  0.15270762216E-04  0.15635545978E-04  0.00000000000E+00 0.  1.
<mgrwt>
<rscale>  1 0.65033519E+03</rscale>
<asrwt>0</asrwt>
<pdfrwt beam="1">  1        1 0.38448801E+00 0.65033519E+03</pdfrwt>
<pdfrwt beam="2">0</pdfrwt>
<totfact> 0.15676522E+00</totfact>
</mgrwt>
</event>
<event>
 6    1  0.4233639E-003  0.6475595E+03  0.7818608E-02  0.9811369E-01
          1   -1    0    0  502    0  0.00000000000E+00  0.00000000000E+00  0.10484350978E+03  0.10484350978E+03  0.00000000000E+00 0.  1.
         13   -1    0    0    0    0 -0.00000000000E+00 -0.00000000000E+00 -0.10000000000E+04  0.10000000000E+04  0.00000000000E+00 0.  1.
    9000005    2    1    2  501    0 -0.17716281425E-02 -0.97162963084E-03 -0.89516656926E+03  0.11048332302E+04  0.64755947975E+03 0.  0.
         13    1    3    3    0    0  0.30555971927E+03  0.10653255241E+03 -0.46601687764E+03  0.56735144047E+03  0.00000000000E+00 0.  1.
          1    1    3    3  501    0 -0.30556149090E+03 -0.10653352404E+03 -0.42914969163E+03  0.53748178973E+03  0.00000000000E+00 0.  1.
         21    1    1    2  502  501  0.17716281425E-02  0.97162963084E-03  0.10079043969E-01  0.10279584512E-01  0.00000000000E+00 0.  1.
<mgrwt>
<rscale>  1 0.64755948E+03</rscale>
<asrwt>0</asrwt>
<pdfrwt beam="1">  1        1 0.38124993E+00 0.64755948E+03</pdfrwt>
<pdfrwt beam="2">0</pdfrwt>
<totfact> 0.16209863E+00</totfact>
</mgrwt>
</event>
<event>
 6    1  0.4233639E-003  0.5263657E+03  0.7818608E-02  0.1007117E+00
          1   -1    0    0  502    0  0.00000000000E+00  0.00000000000E+00  0.69266135196E+02  0.69266135196E+02  0.00000000000E+00 0.  1.
         13   -1    0    0    0    0 -0.00000000000E+00 -0.00000000000E+00 -0.10000000000E+04  0.10000000000E+04  0.00000000000E+00 0.  1.
    9000005    2    1    2  501    0 -0.31757767504E-02 -0.40416539159E-03 -0.93073051326E+03  0.10692615004E+04  0.52636571679E+03 0.  0.
         13    1    3    3    0    0  0.78907686434E+02 -0.18883714008E+03 -0.12923538829E+03  0.24204890836E+03  0.00000000000E+00 0.  1.
          3    1    3    3  501    0 -0.78910862211E+02  0.18883673591E+03 -0.80149512497E+03  0.82721259200E+03  0.00000000000E+00 0.  1.
         21    1    1    2  502  501  0.31757767504E-02  0.40416539158E-03 -0.33515414351E-02  0.46348395466E-02  0.00000000000E+00 0. -1.
<mgrwt>
<rscale>  1 0.52636572E+03</rscale>
<asrwt>0</asrwt>
<pdfrwt beam="1">  1        1 0.25187739E+00 0.52636572E+03</pdfrwt>
<pdfrwt beam="2">0</pdfrwt>
<totfact> 0.60340664E+00</totfact>
</mgrwt>
</event>
<event>
 6    1  0.4233639E-003  0.6503378E+03  0.7818608E-02  0.9806146E-01
          1   -1    0    0  502    0  0.00000000000E+00  0.00000000000E+00  0.10573482142E+03  0.10573482142E+03  0.00000000000E+00 0.  1.
         13   -1    0    0    0    0 -0.00000000000E+00 -0.00000000000E+00 -0.10000000000E+04  0.10000000000E+04  0.00000000000E+00 0.  1.
    9000005    2    1    2  501    0 -0.17515905313E-05  0.17523689166E-07 -0.89426519707E+03  0.11057348028E+04  0.65033776727E+03 0.  0.
         13    1    3    3    0    0  0.86740822878E+02 -0.31306320090E+03 -0.47131347009E+03  0.57242372872E+03  0.00000000000E+00 0.  1.
          1    1    3    3  501    0 -0.86740824630E+02  0.31306320092E+03 -0.42295172698E+03  0.53331107412E+03  0.00000000000E+00 0.  1.
         21    1    1    2  502  501  0.17515905410E-05 -0.17523741310E-07  0.18490341279E-04  0.18573128361E-04  0.00000000000E+00 0. -1.
<mgrwt>
<rscale>  1 0.65033777E+03</rscale>
<asrwt>0</asrwt>
<pdfrwt beam="1">  1        1 0.38449107E+00 0.65033777E+03</pdfrwt>
<pdfrwt beam="2">0</pdfrwt>
<totfact> 0.15676026E+00</totfact>
</mgrwt>
</event>
<event>
 6    1  0.4233639E-003  0.6389359E+03  0.7818608E-02  0.9827765E-01
          1   -1    0    0  502    0  0.00000000000E+00  0.00000000000E+00  0.10206085366E+03  0.10206085366E+03  0.00000000000E+00 0.  1.
         13   -1    0    0    0    0 -0.00000000000E+00 -0.00000000000E+00 -0.10000000000E+04  0.10000000000E+04  0.00000000000E+00 0.  1.
    9000005    2    1    2  501    0  0.54662916341E-04 -0.32627335571E-04 -0.89794024081E+03  0.11020597573E+04  0.63893585961E+03 0.  0.
         13    1    3    3    0    0  0.27119651412E+03 -0.14400556842E+03 -0.60105558897E+03  0.67494664533E+03  0.00000000000E+00 0.  1.
          3    1    3    3  501    0 -0.27119645946E+03  0.14400553579E+03 -0.29688465183E+03  0.42711311201E+03  0.00000000000E+00 0.  1.
         21    1    1    2  502  501 -0.54662916377E-04  0.32627335579E-04  0.10944663742E-02  0.10963162051E-02  0.00000000000E+00 0.  1.
<mgrwt>
<rscale>  1 0.63893586E+03</rscale>
<asrwt>0</asrwt>
<pdfrwt beam="1">  1        1 0.37113116E+00 0.63893586E+03</pdfrwt>
<pdfrwt beam="2">0</pdfrwt>
<totfact> 0.17990021E+00</totfact>
</mgrwt>
</event>
<event>
 6    1  0.4233639E-003  0.6501915E+03  0.7818608E-02  0.9806420E-01
          1   -1    0    0  502    0  0.00000000000E+00  0.00000000000E+00  0.10568740743E+03  0.10568740743E+03  0.00000000000E+00 0.  1.
         13   -1    0    0    0    0 -0.00000000000E+00 -0.00000000000E+00 -0.10000000000E+04  0.10000000000E+04  0.00000000000E+00 0.  1.
    9000005    2    1    2  501    0  0.54931762321E-05 -0.50636338642E-05 -0.89431274125E+03  0.11056872586E+04  0.65019153686E+03 0.  0.
         13    1    3    3    0    0 -0.41523870512E+02  0.26543183160E+03 -0.75845091874E+03  0.80462791723E+03  0.00000000000E+00 0.  1.
          3    1    3    3  501    0  0.41523876006E+02 -0.26543183666E+03 -0.13586182251E+03  0.30105934134E+03  0.00000000000E+00 0.  1.
         21    1    1    2  502  501 -0.54931762323E-05  0.50636338853E-05  0.14867931041E-03  0.14886689598E-03  0.00000000000E+00 0.  1.
<mgrwt>
<rscale>  1 0.65019154E+03</rscale>
<asrwt>0</asrwt>
<pdfrwt beam="1">  1        1 0.38431866E+00 0.65019154E+03</pdfrwt>
<pdfrwt beam="2">0</pdfrwt>
<totfact> 0.15703993E+00</totfact>
</mgrwt>
</event>
<event>
 6    1  0.4233639E-003  0.6476458E+03  0.7818608E-02  0.9811207E-01
          1   -1    0    0  502    0  0.00000000000E+00  0.00000000000E+00  0.10486141035E+03  0.10486141035E+03  0.00000000000E+00 0.  1.
         13   -1    0    0    0    0 -0.00000000000E+00 -0.00000000000E+00 -0.10000000000E+04  0.10000000000E+04  0.00000000000E+00 0.  1.
    9000005    2    1    2  501    0 -0.12155729465E-04 -0.21657161324E-03 -0.89513861371E+03  0.11048611921E+04  0.64764582610E+03 0.  0.
         13    1    3    3    0    0  0.88948600282E+02  0.16414236953E+03  0.38082256401E+01  0.18673262583E+03  0.00000000000E+00 0.  1.
          1    1    3    3  501    0 -0.88948612438E+02 -0.16414258610E+03 -0.89894683935E+03  0.91812856627E+03  0.00000000000E+00 0.  1.
         21    1    1    2  502  501  0.12155729463E-04  0.21657161324E-03  0.24060986186E-04  0.21824288413E-03  0.00000000000E+00 0.  1.
<mgrwt>
<rscale>  1 0.64764583E+03</rscale>
<asrwt>0</asrwt>
<pdfrwt beam="1">  1        1 0.38131502E+00 0.64764583E+03</pdfrwt>
<pdfrwt beam="2">0</pdfrwt>
<totfact> 0.16198883E+00</totfact>
</mgrwt>
</event>
<event>
 6    1  0.4233639E-003  0.6310121E+03  0.7818608E-02  0.9843076E-01
          1   -1    0    0  502    0  0.00000000000E+00  0.00000000000E+00  0.10381312062E+03  0.10381312062E+03  0.00000000000E+00 0.  1.
         13   -1    0    0    0    0 -0.00000000000E+00 -0.00000000000E+00 -0.10000000000E+04  0.10000000000E+04  0.00000000000E+00 0.  1.
    9000005    2    1    2  501    0 -0.30489523616E+00  0.17706493501E+01 -0.90024713068E+03  0.10993730980E+04  0.63100957533E+03 0.  0.
         13    1    3    3    0    0 -0.14228150237E+03  0.10780368312E+03  0.33736977239E+01  0.17854142894E+03  0.00000000000E+00 0.  1.
          1    1    3    3  501    0  0.14197660714E+03 -0.10603303377E+03 -0.90362082840E+03  0.92083166906E+03  0.00000000000E+00 0.  1.
         21    1    1    2  502  501  0.30489523616E+00 -0.17706493501E+01  0.40602513034E+01  0.44400226208E+01  0.00000000000E+00 0.  1.
<mgrwt>
<rscale>  1 0.63101213E+03</rscale>
<asrwt>0</asrwt>
<pdfrwt beam="1">  1        1 0.37750305E+00 0.63101213E+03</pdfrwt>
<pdfrwt beam="2">0</pdfrwt>
<totfact> 0.16890187E+00</totfact>
</mgrwt>
</event>
<event>
 6    1  0.4233639E-003  0.7431688E+03  0.7818608E-02  0.9646129E-01
          1   -1    0    0  502    0  0.00000000000E+00  0.00000000000E+00  0.13810130338E+03  0.13810130338E+03  0.00000000000E+00 0.  1.
         13   -1    0    0    0    0 -0.00000000000E+00 -0.00000000000E+00 -0.10000000000E+04  0.10000000000E+04  0.00000000000E+00 0.  1.
    9000005    2    1    2  501    0  0.54306269334E-02  0.86080713912E-02 -0.86192390263E+03  0.11380741200E+04  0.74316881574E+03 0.  0.
         13    1    3    3    0    0  0.21051959560E+02  0.35997054461E+03 -0.29351581407E+03  0.46494463229E+03  0.00000000000E+00 0.  1.
          3    1    3    3  501    0 -0.21046528933E+02 -0.35996193654E+03 -0.56840808856E+03  0.67312948775E+03  0.00000000000E+00 0.  1.
         21    1    1    2  502  501 -0.54306269334E-02 -0.86080713912E-02  0.25206014341E-01  0.27183336089E-01  0.00000000000E+00 0.  1.
<mgrwt>
<rscale>  1 0.74316882E+03</rscale>
<asrwt>0</asrwt>
<pdfrwt beam="1">  1        1 0.50218762E+00 0.74316882E+03</pdfrwt>
<pdfrwt beam="2">0</pdfrwt>
<totfact> 0.44243913E-01</totfact>
</mgrwt>
</event>
<event>
 6    1  0.4233639E-003  0.6482372E+03  0.7818608E-02  0.9810093E-01
          1   -1    0    0  502    0  0.00000000000E+00  0.00000000000E+00  0.10505288905E+03  0.10505288905E+03  0.00000000000E+00 0.  1.
         13   -1    0    0    0    0 -0.00000000000E+00 -0.00000000000E+00 -0.10000000000E+04  0.10000000000E+04  0.00000000000E+00 0.  1.
    9000005    2    1    2  501    0 -0.15223096739E-05 -0.40826248835E-05 -0.89494713187E+03  0.11050528677E+04  0.64823720315E+03 0.  0.
         13    1    3    3    0    0 -0.53865971381E+02  0.22372735763E+03 -0.58377263171E+02  0.23740972659E+03  0.00000000000E+00 0.  1.
          3    1    3    3  501    0  0.53865969859E+02 -0.22372736171E+03 -0.83656986869E+03  0.86764314110E+03  0.00000000000E+00 0.  1.
         21    1    1    2  502  501  0.15223096788E-05  0.40826248870E-05  0.20916918442E-04  0.21365924502E-04  0.00000000000E+00 0. -1.
<mgrwt>
<rscale>  1 0.64823720E+03</rscale>
<asrwt>0</asrwt>
<pdfrwt beam="1">  1        1 0.38201131E+00 0.64823720E+03</pdfrwt>
<pdfrwt beam="2">0</pdfrwt>
<totfact> 0.16082853E+00</totfact>
</mgrwt>
</event>
<event>
 6    1  0.5791892E-003  0.6405297E+03  0.7818608E-02  0.9824714E-01
          1   -1    0    0  502    0  0.00000000000E+00  0.00000000000E+00  0.10256957869E+03  0.10256957869E+03  0.00000000000E+00 0.  1.
         13   -1    0    0    0    0 -0.00000000000E+00 -0.00000000000E+00 -0.10000000000E+04  0.10000000000E+04  0.00000000000E+00 0.  1.
    9000005    2    1    2  501    0  0.65205849182E-05  0.39964472762E-05 -0.89743040823E+03  0.11025695635E+04  0.64052970643E+03 0.  0.
         13    1    3    3    0    0 -0.15674528236E+03 -0.24502525666E+03 -0.67942048267E+03  0.73906606756E+03  0.00000000000E+00 0.  1.
          3    1    3    3  501    0  0.15674528888E+03  0.24502526066E+03 -0.21800992556E+03  0.36350349598E+03  0.00000000000E+00 0.  1.
         21    1    1    2  502  501 -0.65205849311E-05 -0.39964472846E-05 -0.13078493368E-04  0.15150465587E-04  0.00000000000E+00 0. -1.
<mgrwt>
<rscale>  1 0.64052971E+03</rscale>
<asrwt>0</asrwt>
<pdfrwt beam="1">  1        1 0.37298107E+00 0.64052971E+03</pdfrwt>
<pdfrwt beam="2">0</pdfrwt>
<totfact> 0.17651164E+00</totfact>
</mgrwt>
</event>
<event>
 6    1  0.4233639E-003  0.6335056E+03  0.7818608E-02  0.9838232E-01
          1   -1    0    0  502    0  0.00000000000E+00  0.00000000000E+00  0.10036523756E+03  0.10036523756E+03  0.00000000000E+00 0.  1.
         13   -1    0    0    0    0 -0.00000000000E+00 -0.00000000000E+00 -0.10000000000E+04  0.10000000000E+04  0.00000000000E+00 0.  1.
    9000005    2    1    2  501    0  0.24016395002E-02 -0.11582993292E-02 -0.89966761540E+03  0.11003322766E+04  0.63350556483E+03 0.  0.
         13    1    3    3    0    0  0.17189985997E+03  0.26460104886E+03 -0.40166364750E+03  0.51078073832E+03  0.00000000000E+00 0.  1.
          1    1    3    3  501    0 -0.17189745833E+03 -0.26460220716E+03 -0.49800396790E+03  0.58955153825E+03  0.00000000000E+00 0.  1.
         21    1    1    2  502  501 -0.24016395002E-02  0.11582993292E-02  0.32852962973E-01  0.32960987633E-01  0.00000000000E+00 0.  1.
<mgrwt>
<rscale>  1 0.63350556E+03</rscale>
<asrwt>0</asrwt>
<pdfrwt beam="1">  1        1 0.36496527E+00 0.63350556E+03</pdfrwt>
<pdfrwt beam="2">0</pdfrwt>
<totfact> 0.19165365E+00</totfact>
</mgrwt>
</event>
<event>
 6    1  0.4233639E-003  0.5672464E+03  0.7818608E-02  0.9975791E-01
          1   -1    0    0  502    0  0.00000000000E+00  0.00000000000E+00  0.10232841083E+03  0.10232841083E+03  0.00000000000E+00 0.  1.
         13   -1    0    0    0    0 -0.00000000000E+00 -0.00000000000E+00 -0.10000000000E+04  0.10000000000E+04  0.00000000000E+00 0.  1.
    9000005    2    1    2  501    0  0.34397275732E+01  0.16262711566E+02 -0.91610637666E+03  0.10775060640E+04  0.56700274871E+03 0.  0.
         13    1    3    3    0    0  0.24753360189E+03 -0.11874702110E+03 -0.57252745871E+03  0.63494994295E+03  0.00000000000E+00 0.  1.
          3    1    3    3  501    0 -0.24409387432E+03  0.13500973266E+03 -0.34357891795E+03  0.44255612103E+03  0.00000000000E+00 0.  1.
         21    1    1    2  502  501 -0.34397275732E+01 -0.16262711566E+02  0.18434787486E+02  0.24822346845E+02  0.00000000000E+00 0. -1.
<mgrwt>
<rscale>  1 0.56724635E+03</rscale>
<asrwt>0</asrwt>
<pdfrwt beam="1">  1        1 0.37210410E+00 0.56724635E+03</pdfrwt>
<pdfrwt beam="2">0</pdfrwt>
<totfact> 0.18065486E+00</totfact>
</mgrwt>
</event>
<event>
 6    1  0.4233639E-003  0.6471038E+03  0.7818608E-02  0.9812229E-01
          1   -1    0    0  502    0  0.00000000000E+00  0.00000000000E+00  0.10468618995E+03  0.10468618995E+03  0.00000000000E+00 0.  1.
         13   -1    0    0    0    0 -0.00000000000E+00 -0.00000000000E+00 -0.10000000000E+04  0.10000000000E+04  0.00000000000E+00 0.  1.
    9000005    2    1    2  501    0 -0.28601611064E-04 -0.67801047408E-04 -0.89531417596E+03  0.11046858167E+04  0.64710376291E+03 0.  0.
         13    1    3    3    0    0 -0.12593940830E+03  0.29773417890E+03 -0.47052406488E+03  0.57087588098E+03  0.00000000000E+00 0.  1.
          3    1    3    3  501    0  0.12593937970E+03 -0.29773424670E+03 -0.42479011108E+03  0.53380993573E+03  0.00000000000E+00 0.  1.
         21    1    1    2  502  501  0.28601611057E-04  0.67801047402E-04  0.36591241175E-03  0.37323843218E-03  0.00000000000E+00 0.  1.
<mgrwt>
<rscale>  1 0.64710376E+03</rscale>
<asrwt>0</asrwt>
<pdfrwt beam="1">  1        1 0.38067786E+00 0.64710376E+03</pdfrwt>
<pdfrwt beam="2">0</pdfrwt>
<totfact> 0.16305761E+00</totfact>
</mgrwt>
</event>
<event>
 6    1  0.4233639E-003  0.6635194E+03  0.7818608E-02  0.9781737E-01
          3   -1    0    0  502    0  0.00000000000E+00  0.00000000000E+00  0.11202043103E+03  0.11202043103E+03  0.00000000000E+00 0.  1.
         13   -1    0    0    0    0 -0.00000000000E+00 -0.00000000000E+00 -0.10000000000E+04  0.10000000000E+04  0.00000000000E+00 0.  1.
    9000005    2    1    2  501    0  0.55410642177E-01  0.78052755508E+00 -0.88984823548E+03  0.11099945465E+04  0.66351895133E+03 0.  0.
         13    1    3    3    0    0 -0.19358513730E+03  0.71932000284E+02 -0.87951654619E+03  0.90343719930E+03  0.00000000000E+00 0.  1.
          1    1    3    3  501    0  0.19364054794E+03 -0.71151472729E+02 -0.10331689289E+02  0.20655734720E+03  0.00000000000E+00 0.  1.
         21    1    1    2  502  501 -0.55410642177E-01 -0.78052755508E+00  0.18686665080E+01  0.20258845282E+01  0.00000000000E+00 0.  1.
<mgrwt>
<rscale>  1 0.66351941E+03</rscale>
<asrwt>0</asrwt>
<pdfrwt beam="1">  1        3 0.40734788E+00 0.66351941E+03</pdfrwt>
<pdfrwt beam="2">0</pdfrwt>
<totfact> 0.54096917E-02</totfact>
</mgrwt>
</event>
<event>
 6    1  0.4233639E-003  0.6197484E+03  0.7818608E-02  0.9865261E-01
          3   -1    0    0  502    0  0.00000000000E+00  0.00000000000E+00  0.10130539022E+03  0.10130539022E+03  0.00000000000E+00 0.  1.
         13   -1    0    0    0    0 -0.00000000000E+00 -0.00000000000E+00 -0.10000000000E+04  0.10000000000E+04  0.00000000000E+00 0.  1.
    9000005    2    1    2  501    0 -0.95182073145E+00 -0.23712157670E+01 -0.90363744804E+03  0.10957411942E+04  0.61974317148E+03 0.  0.
         13    1    3    3    0    0  0.28426313556E+03 -0.11934687554E+03 -0.50724493168E+03  0.59358792748E+03  0.00000000000E+00 0.  1.
          3    1    3    3  501    0 -0.28521495630E+03  0.11697565977E+03 -0.39639251636E+03  0.50215326675E+03  0.00000000000E+00 0.  1.
         21    1    1    2  502  501  0.95182073145E+00  0.23712157670E+01  0.49428382671E+01  0.55641959934E+01  0.00000000000E+00 0.  1.
<mgrwt>
<rscale>  1 0.61974844E+03</rscale>
<asrwt>0</asrwt>
<pdfrwt beam="1">  1        3 0.36838401E+00 0.61974844E+03</pdfrwt>
<pdfrwt beam="2">0</pdfrwt>
<totfact> 0.87387892E-02</totfact>
</mgrwt>
</event>
<event>
 6    1  0.4233639E-003  0.6460989E+03  0.7818608E-02  0.9814127E-01
          1   -1    0    0  502    0  0.00000000000E+00  0.00000000000E+00  0.10665701075E+03  0.10665701075E+03  0.00000000000E+00 0.  1.
         13   -1    0    0    0    0 -0.00000000000E+00 -0.00000000000E+00 -0.10000000000E+04  0.10000000000E+04  0.00000000000E+00 0.  1.
    9000005    2    1    2  501    0  0.36752215776E-01 -0.39677969645E+00 -0.89561994800E+03  0.11043454472E+04  0.64609876700E+03 0.  0.
         13    1    3    3    0    0  0.22821827238E+03  0.35698095075E+02 -0.61804861768E+02  0.23911874619E+03  0.00000000000E+00 0.  1.
          3    1    3    3  501    0 -0.22818152016E+03 -0.36094874771E+02 -0.83381508623E+03  0.86522670102E+03  0.00000000000E+00 0.  1.
         21    1    1    2  502  501 -0.36752215776E-01  0.39677969645E+00  0.22769587507E+01  0.23115635413E+01  0.00000000000E+00 0.  1.
<mgrwt>
<rscale>  1 0.64609889E+03</rscale>
<asrwt>0</asrwt>
<pdfrwt beam="1">  1        1 0.38784449E+00 0.64609889E+03</pdfrwt>
<pdfrwt beam="2">0</pdfrwt>
<totfact> 0.15161339E+00</totfact>
</mgrwt>
</event>
<event>
 6    1  0.4233639E-003  0.6176857E+03  0.7818608E-02  0.9869378E-01
          1   -1    0    0  502    0  0.00000000000E+00  0.00000000000E+00  0.95521209182E+02  0.95521209182E+02  0.00000000000E+00 0.  1.
         13   -1    0    0    0    0 -0.00000000000E+00 -0.00000000000E+00 -0.10000000000E+04  0.10000000000E+04  0.00000000000E+00 0.  1.
    9000005    2    1    2  501    0  0.70004890864E-02 -0.19655768099E-02 -0.90461597984E+03  0.10953838276E+04  0.61768572813E+03 0.  0.
         13    1    3    3    0    0  0.14691231692E+03  0.24944819362E+03 -0.26150264162E+03  0.39011698468E+03  0.00000000000E+00 0.  1.
          1    1    3    3  501    0 -0.14690531643E+03 -0.24945015920E+03 -0.64311333823E+03  0.70526684292E+03  0.00000000000E+00 0.  1.
         21    1    1    2  502  501 -0.70004890864E-02  0.19655768099E-02  0.13718902424E+00  0.13738158069E+00  0.00000000000E+00 0.  1.
<mgrwt>
<rscale>  1 0.61768573E+03</rscale>
<asrwt>0</asrwt>
<pdfrwt beam="1">  1        1 0.34735058E+00 0.61768573E+03</pdfrwt>
<pdfrwt beam="2">0</pdfrwt>
<totfact> 0.22944630E+00</totfact>
</mgrwt>
</event>
<event>
 6    1  0.4233639E-003  0.6461318E+03  0.7818608E-02  0.9814065E-01
          1   -1    0    0  502    0  0.00000000000E+00  0.00000000000E+00  0.11689957031E+03  0.11689957031E+03  0.00000000000E+00 0.  1.
         13   -1    0    0    0    0 -0.00000000000E+00 -0.00000000000E+00 -0.10000000000E+04  0.10000000000E+04  0.00000000000E+00 0.  1.
    9000005    2    1    2  501    0  0.22743641916E+02  0.15957973330E+02 -0.87546970352E+03  0.10880871053E+04  0.64553421032E+03 0.  0.
         13    1    3    3    0    0  0.28292077864E+02 -0.30731235469E+03 -0.31458128775E+03  0.44068436734E+03  0.00000000000E+00 0.  1.
          3    1    3    3  501    0 -0.55484359487E+01  0.32327032802E+03 -0.56088841577E+03  0.64740273792E+03  0.00000000000E+00 0.  1.
         21    1    1    2  502  501 -0.22743641916E+02 -0.15957973330E+02 -0.76307261713E+01  0.28812465050E+02  0.00000000000E+00 0.  1.
<mgrwt>
<rscale>  1 0.64613183E+03</rscale>
<asrwt>0</asrwt>
<pdfrwt beam="1">  1        1 0.42509024E+00 0.64613183E+03</pdfrwt>
<pdfrwt beam="2">0</pdfrwt>
<totfact> 0.10329951E+00</totfact>
</mgrwt>
</event>
<event>
 6    1  0.4233639E-003  0.6306535E+03  0.7818608E-02  0.9843774E-01
          1   -1    0    0  502    0  0.00000000000E+00  0.00000000000E+00  0.99431052494E+02  0.99431052494E+02  0.00000000000E+00 0.  1.
         13   -1    0    0    0    0 -0.00000000000E+00 -0.00000000000E+00 -0.10000000000E+04  0.10000000000E+04  0.00000000000E+00 0.  1.
    9000005    2    1    2  501    0  0.15075224732E-03 -0.18667607409E-03 -0.90056883566E+03  0.10994307878E+04  0.63065349386E+03 0.  0.
         13    1    3    3    0    0 -0.22867349835E+03  0.21560381237E+03 -0.40569103012E+03  0.51318786490E+03  0.00000000000E+00 0.  1.
          1    1    3    3  501    0  0.22867364910E+03 -0.21560399905E+03 -0.49487780553E+03  0.58624292286E+03  0.00000000000E+00 0.  1.
         21    1    1    2  502  501 -0.15075224731E-03  0.18667607409E-03 -0.11185005435E-03  0.26473502104E-03  0.00000000000E+00 0.  1.
<mgrwt>
<rscale>  1 0.63065349E+03</rscale>
<asrwt>0</asrwt>
<pdfrwt beam="1">  1        1 0.36156823E+00 0.63065349E+03</pdfrwt>
<pdfrwt beam="2">0</pdfrwt>
<totfact> 0.19843474E+00</totfact>
</mgrwt>
</event>
<event>
 6    1  0.4233639E-003  0.6477174E+03  0.7818608E-02  0.9811072E-01
          1   -1    0    0  502    0  0.00000000000E+00  0.00000000000E+00  0.10496093439E+03  0.10496093439E+03  0.00000000000E+00 0.  1.
         13   -1    0    0    0    0 -0.00000000000E+00 -0.00000000000E+00 -0.10000000000E+04  0.10000000000E+04  0.00000000000E+00 0.  1.
    9000005    2    1    2  501    0 -0.16521456448E-01 -0.92091089399E-01 -0.89508259510E+03  0.11048577426E+04  0.64771735393E+03 0.  0.
         13    1    3    3    0    0 -0.10807160858E+03  0.29031612557E+03 -0.60837916532E+03  0.68270647729E+03  0.00000000000E+00 0.  1.
          3    1    3    3  501    0  0.10805508712E+03 -0.29040821666E+03 -0.28670342979E+03  0.42215126531E+03  0.00000000000E+00 0.  1.
         21    1    1    2  502  501  0.16521456448E-01  0.92091089399E-01  0.43529488226E-01  0.10319178075E+00  0.00000000000E+00 0. -1.
<mgrwt>
<rscale>  1 0.64771736E+03</rscale>
<asrwt>0</asrwt>
<pdfrwt beam="1">  1        1 0.38167693E+00 0.64771736E+03</pdfrwt>
<pdfrwt beam="2">0</pdfrwt>
<totfact> 0.16139176E+00</totfact>
</mgrwt>
</event>
<event>
 6    1  0.4233639E-003  0.6520030E+03  0.7818608E-02  0.9803028E-01
          1   -1    0    0  502    0  0.00000000000E+00  0.00000000000E+00  0.10627698646E+03  0.10627698646E+03  0.00000000000E+00 0.  1.
         13   -1    0    0    0    0 -0.00000000000E+00 -0.00000000000E+00 -0.10000000000E+04  0.10000000000E+04  0.00000000000E+00 0.  1.
    9000005    2    1    2  501    0  0.36738190374E-05  0.56659304448E-05 -0.89372301072E+03  0.11062769791E+04  0.65200301739E+03 0.  0.
         13    1    3    3    0    0 -0.31532890437E+03  0.81133573093E+02 -0.41939699470E+03  0.53095085816E+03  0.00000000000E+00 0.  1.
          3    1    3    3  501    0  0.31532890804E+03 -0.81133567427E+02 -0.47432601602E+03  0.57532612098E+03  0.00000000000E+00 0.  1.
         21    1    1    2  502  501 -0.36738190739E-05 -0.56659304511E-05 -0.28168720061E-05  0.73167262053E-05  0.00000000000E+00 0. -1.
<mgrwt>
<rscale>  1 0.65200302E+03</rscale>
<asrwt>0</asrwt>
<pdfrwt beam="1">  1        1 0.38646258E+00 0.65200302E+03</pdfrwt>
<pdfrwt beam="2">0</pdfrwt>
<totfact> 0.15359595E+00</totfact>
</mgrwt>
</event>
<event>
 6    1  0.4233639E-003  0.6510859E+03  0.7818608E-02  0.9804744E-01
          1   -1    0    0  502    0  0.00000000000E+00  0.00000000000E+00  0.10602003139E+03  0.10602003139E+03  0.00000000000E+00 0.  1.
         13   -1    0    0    0    0 -0.00000000000E+00 -0.00000000000E+00 -0.10000000000E+04  0.10000000000E+04  0.00000000000E+00 0.  1.
    9000005    2    1    2  501    0  0.42446832363E-01  0.29721166143E-01 -0.89400323251E+03  0.11059632309E+04  0.65108592810E+03 0.  0.
         13    1    3    3    0    0 -0.11808513672E+03 -0.27993434434E+03 -0.24846056030E+03  0.39247928185E+03  0.00000000000E+00 0.  1.
          3    1    3    3  501    0  0.11812758355E+03  0.27996406550E+03 -0.64554267222E+03  0.71348394910E+03  0.00000000000E+00 0.  1.
         21    1    1    2  502  501 -0.42446832363E-01 -0.29721166143E-01  0.23263905775E-01  0.56800445478E-01  0.00000000000E+00 0. -1.
<mgrwt>
<rscale>  1 0.65108593E+03</rscale>
<asrwt>0</asrwt>
<pdfrwt beam="1">  1        1 0.38552820E+00 0.65108593E+03</pdfrwt>
<pdfrwt beam="2">0</pdfrwt>
<totfact> 0.15509167E+00</totfact>
</mgrwt>
</event>
<event>
 6    1  0.4233639E-003  0.6264755E+03  0.7818608E-02  0.9851951E-01
          1   -1    0    0  502    0  0.00000000000E+00  0.00000000000E+00  0.10790356525E+03  0.10790356525E+03  0.00000000000E+00 0.  1.
         13   -1    0    0    0    0 -0.00000000000E+00 -0.00000000000E+00 -0.10000000000E+04  0.10000000000E+04  0.00000000000E+00 0.  1.
    9000005    2    1    2  501    0 -0.12478785182E-01  0.17592905365E+00 -0.90188124516E+03  0.10981171654E+04  0.62647545644E+03 0.  0.
         13    1    3    3    0    0  0.13535440713E+03 -0.13295764111E+03 -0.14095401180E+02  0.19025569688E+03  0.00000000000E+00 0.  1.
          1    1    3    3  501    0 -0.13536688591E+03  0.13313357017E+03 -0.88778584398E+03  0.90786146855E+03  0.00000000000E+00 0.  1.
         21    1    1    2  502  501  0.12478785182E-01 -0.17592905365E+00  0.97848104124E+01  0.97863998263E+01  0.00000000000E+00 0. -1.
<mgrwt>
<rscale>  1 0.62647548E+03</rscale>
<asrwt>0</asrwt>
<pdfrwt beam="1">  1        1 0.39237743E+00 0.62647548E+03</pdfrwt>
<pdfrwt beam="2">0</pdfrwt>
<totfact> 0.14530090E+00</totfact>
</mgrwt>
</event>
<event>
 6    1  0.4233639E-003  0.6503802E+03  0.7818608E-02  0.9806066E-01
          1   -1    0    0  502    0  0.00000000000E+00  0.00000000000E+00  0.10648352762E+03  0.10648352762E+03  0.00000000000E+00 0.  1.
         13   -1    0    0    0    0 -0.00000000000E+00 -0.00000000000E+00 -0.10000000000E+04  0.10000000000E+04  0.00000000000E+00 0.  1.
    9000005    2    1    2  501    0 -0.51327290495E-01 -0.88295394267E-01 -0.89424748800E+03  0.11057454122E+04  0.65038014756E+03 0.  0.
         13    1    3    3    0    0 -0.43627303001E+01  0.32477094606E+03 -0.42156522314E+03  0.53217707408E+03  0.00000000000E+00 0.  1.
          3    1    3    3  501    0  0.43114030097E+01 -0.32485924145E+03 -0.47268226486E+03  0.57356833810E+03  0.00000000000E+00 0.  1.
         21    1    1    2  502  501  0.51327290495E-01  0.88295394267E-01  0.73101562300E+00  0.73811544386E+00  0.00000000000E+00 0.  1.
<mgrwt>
<rscale>  1 0.65038016E+03</rscale>
<asrwt>0</asrwt>
<pdfrwt beam="1">  1        1 0.38721364E+00 0.65038016E+03</pdfrwt>
<pdfrwt beam="2">0</pdfrwt>
<totfact> 0.15247024E+00</totfact>
</mgrwt>
</event>
<event>
 6    1  0.4233639E-003  0.6672235E+03  0.7818608E-02  0.9774987E-01
          3   -1    0    0  502    0  0.00000000000E+00  0.00000000000E+00  0.12309316841E+03  0.12309316841E+03  0.00000000000E+00 0.  1.
         13   -1    0    0    0    0 -0.00000000000E+00 -0.00000000000E+00 -0.10000000000E+04  0.10000000000E+04  0.00000000000E+00 0.  1.
    9000005    2    1    2  501    0 -0.11095012638E+02 -0.22521620607E+02 -0.87119422212E+03  0.10973452247E+04  0.66675096305E+03 0.  0.
         13    1    3    3    0    0 -0.36810648739E+02 -0.21661545228E+03 -0.16308112926E+02  0.22032528810E+03  0.00000000000E+00 0.  1.
          1    1    3    3  501    0  0.25715636102E+02  0.19409383168E+03 -0.85488610919E+03  0.87701993656E+03  0.00000000000E+00 0.  1.
         21    1    1    2  502  501  0.11095012638E+02  0.22521620607E+02 -0.57126094730E+01  0.25747943747E+02  0.00000000000E+00 0. -1.
<mgrwt>
<rscale>  1 0.66722348E+03</rscale>
<asrwt>0</asrwt>
<pdfrwt beam="1">  1        3 0.44761247E+00 0.66722348E+03</pdfrwt>
<pdfrwt beam="2">0</pdfrwt>
<totfact> 0.33515493E-02</totfact>
</mgrwt>
</event>
<event>
 6    1  0.4233639E-003  0.6420183E+03  0.7818608E-02  0.9821873E-01
          1   -1    0    0  502    0  0.00000000000E+00  0.00000000000E+00  0.10307305551E+03  0.10307305551E+03  0.00000000000E+00 0.  1.
         13   -1    0    0    0    0 -0.00000000000E+00 -0.00000000000E+00 -0.10000000000E+04  0.10000000000E+04  0.00000000000E+00 0.  1.
    9000005    2    1    2  501    0 -0.80660265514E-01  0.86000487459E-02 -0.89682806467E+03  0.11029451600E+04  0.64201825663E+03 0.  0.
         13    1    3    3    0    0  0.10339149367E+03  0.27048536547E+03 -0.21042697687E+03  0.35795481068E+03  0.00000000000E+00 0.  1.
          1    1    3    3  501    0 -0.10347215394E+03 -0.27047676542E+03 -0.68640108779E+03  0.74499034933E+03  0.00000000000E+00 0.  1.
         21    1    1    2  502  501  0.80660265514E-01 -0.86000487459E-02 -0.98879822668E-01  0.12789549876E+00  0.00000000000E+00 0. -1.
<mgrwt>
<rscale>  1 0.64201826E+03</rscale>
<asrwt>0</asrwt>
<pdfrwt beam="1">  1        1 0.37481190E+00 0.64201826E+03</pdfrwt>
<pdfrwt beam="2">0</pdfrwt>
<totfact> 0.17322090E+00</totfact>
</mgrwt>
</event>
<event>
 6    1  0.4233639E-003  0.6523191E+03  0.7818608E-02  0.9802437E-01
          1   -1    0    0  502    0  0.00000000000E+00  0.00000000000E+00  0.10968502010E+03  0.10968502010E+03  0.00000000000E+00 0.  1.
         13   -1    0    0    0    0 -0.00000000000E+00 -0.00000000000E+00 -0.10000000000E+04  0.10000000000E+04  0.00000000000E+00 0.  1.
    9000005    2    1    2  501    0  0.70079384253E+01  0.45379971339E+01 -0.88614849549E+03  0.11003541996E+04  0.65226566973E+03 0.  0.
         13    1    3    3    0    0  0.15914977487E+03 -0.17807436333E+03 -0.67914658923E+02  0.24829726260E+03  0.00000000000E+00 0.  1.
          3    1    3    3  501    0 -0.15214183645E+03  0.18261236047E+03 -0.81823383656E+03  0.85205693700E+03  0.00000000000E+00 0.  1.
         21    1    1    2  502  501 -0.70079384253E+01 -0.45379971339E+01 -0.41664844076E+01  0.93308205041E+01  0.00000000000E+00 0.  1.
<mgrwt>
<rscale>  1 0.65231910E+03</rscale>
<asrwt>0</asrwt>
<pdfrwt beam="1">  1        1 0.39885546E+00 0.65231910E+03</pdfrwt>
<pdfrwt beam="2">0</pdfrwt>
<totfact> 0.13530811E+00</totfact>
</mgrwt>
</event>
<event>
 6    1  0.4233639E-003  0.5699750E+03  0.7818608E-02  0.9969734E-01
          1   -1    0    0  502    0  0.00000000000E+00  0.00000000000E+00  0.81255291911E+02  0.81255291911E+02  0.00000000000E+00 0.  1.
         13   -1    0    0    0    0 -0.00000000000E+00 -0.00000000000E+00 -0.10000000000E+04  0.10000000000E+04  0.00000000000E+00 0.  1.
    9000005    2    1    2  501    0  0.43056247698E-01  0.25727202294E-01 -0.91876321985E+03  0.10812018278E+04  0.56997503077E+03 0.  0.
         13    1    3    3    0    0  0.11012536917E+03  0.25919625478E+03 -0.37631632300E+03  0.47002581884E+03  0.00000000000E+00 0.  1.
          3    1    3    3  501    0 -0.11008231292E+03 -0.25917052757E+03 -0.54244689685E+03  0.61117600893E+03  0.00000000000E+00 0.  1.
         21    1    1    2  502  501 -0.43056247698E-01 -0.25727202294E-01  0.18511759660E-01  0.53464143586E-01  0.00000000000E+00 0. -1.
<mgrwt>
<rscale>  1 0.56997503E+03</rscale>
<asrwt>0</asrwt>
<pdfrwt beam="1">  1        1 0.29547441E+00 0.56997503E+03</pdfrwt>
<pdfrwt beam="2">0</pdfrwt>
<totfact> 0.38800328E+00</totfact>
</mgrwt>
</event>
<event>
 6    1  0.4233639E-003  0.6531251E+03  0.7818608E-02  0.9800933E-01
          1   -1    0    0  502    0  0.00000000000E+00  0.00000000000E+00  0.10664315830E+03  0.10664315830E+03  0.00000000000E+00 0.  1.
         13   -1    0    0    0    0 -0.00000000000E+00 -0.00000000000E+00 -0.10000000000E+04  0.10000000000E+04  0.00000000000E+00 0.  1.
    9000005    2    1    2  501    0 -0.80754801601E-05 -0.22952030463E-05 -0.89335691635E+03  0.11066430832E+04  0.65312505201E+03 0.  0.
         13    1    3    3    0    0  0.61821772370E+02  0.32026791882E+03 -0.41990879205E+03  0.53171126093E+03  0.00000000000E+00 0.  1.
          3    1    3    3  501    0 -0.61821780445E+02 -0.32026792111E+03 -0.47344812430E+03  0.57493182225E+03  0.00000000000E+00 0.  1.
         21    1    1    2  502  501  0.80754801651E-05  0.22952030634E-05  0.74646683200E-04  0.75117299271E-04  0.00000000000E+00 0.  1.
<mgrwt>
<rscale>  1 0.65312505E+03</rscale>
<asrwt>0</asrwt>
<pdfrwt beam="1">  1        1 0.38779412E+00 0.65312505E+03</pdfrwt>
<pdfrwt beam="2">0</pdfrwt>
<totfact> 0.15149330E+00</totfact>
</mgrwt>
</event>
<event>
 6    1  0.4233639E-003  0.6984772E+03  0.7818608E-02  0.9719840E-01
          1   -1    0    0  502    0  0.00000000000E+00  0.00000000000E+00  0.12196822856E+03  0.12196822856E+03  0.00000000000E+00 0.  1.
         13   -1    0    0    0    0 -0.00000000000E+00 -0.00000000000E+00 -0.10000000000E+04  0.10000000000E+04  0.00000000000E+00 0.  1.
    9000005    2    1    2  501    0 -0.15583100321E-06 -0.29295896340E-04 -0.87803238559E+03  0.11219676137E+04  0.69847724090E+03 0.  0.
         13    1    3    3    0    0 -0.33025792620E+03  0.10373489791E+03 -0.51326127716E+03  0.61908671888E+03  0.00000000000E+00 0.  1.
          1    1    3    3  501    0  0.33025792604E+03 -0.10373492721E+03 -0.36477110843E+03  0.50288089483E+03  0.00000000000E+00 0.  1.
         21    1    1    2  502  501  0.15583102942E-06  0.29295896347E-04  0.61415470259E-03  0.61485304955E-03  0.00000000000E+00 0. -1.
<mgrwt>
<rscale>  1 0.69847724E+03</rscale>
<asrwt>0</asrwt>
<pdfrwt beam="1">  1        1 0.44352177E+00 0.69847724E+03</pdfrwt>
<pdfrwt beam="2">0</pdfrwt>
<totfact> 0.84262063E-01</totfact>
</mgrwt>
</event>
<event>
 6    1  0.4233639E-003  0.6554376E+03  0.7818608E-02  0.9796629E-01
          1   -1    0    0  502    0  0.00000000000E+00  0.00000000000E+00  0.10743163667E+03  0.10743163667E+03  0.00000000000E+00 0.  1.
         13   -1    0    0    0    0 -0.00000000000E+00 -0.00000000000E+00 -0.10000000000E+04  0.10000000000E+04  0.00000000000E+00 0.  1.
    9000005    2    1    2  501    0  0.43159542882E-01  0.87703332453E-01 -0.89243271085E+03  0.11072644355E+04  0.65543754642E+03 0.  0.
         13    1    3    3    0    0  0.43686042786E+02 -0.11436545322E+03  0.67328762822E+02  0.13971789265E+03  0.00000000000E+00 0.  1.
          1    1    3    3  501    0 -0.43642883244E+02  0.11445315655E+03 -0.95976147367E+03  0.96754654288E+03  0.00000000000E+00 0.  1.
         21    1    1    2  502  501 -0.43159542882E-01 -0.87703332453E-01 -0.13565248469E+00  0.16720112819E+00  0.00000000000E+00 0.  1.
<mgrwt>
<rscale>  1 0.65543755E+03</rscale>
<asrwt>0</asrwt>
<pdfrwt beam="1">  1        1 0.39066132E+00 0.65543755E+03</pdfrwt>
<pdfrwt beam="2">0</pdfrwt>
<totfact> 0.14706086E+00</totfact>
</mgrwt>
</event>
<event>
 6    1  0.4233639E-003  0.6493649E+03  0.7818608E-02  0.9807972E-01
          1   -1    0    0  502    0  0.00000000000E+00  0.00000000000E+00  0.10541872081E+03  0.10541872081E+03  0.00000000000E+00 0.  1.
         13   -1    0    0    0    0 -0.00000000000E+00 -0.00000000000E+00 -0.10000000000E+04  0.10000000000E+04  0.00000000000E+00 0.  1.
    9000005    2    1    2  501    0  0.64290384216E-06  0.30886153581E-05 -0.89458129896E+03  0.11054187008E+04  0.64936492330E+03 0.  0.
         13    1    3    3    0    0  0.15817881215E+03 -0.28176292011E+03 -0.50133241582E+03  0.59644368629E+03  0.00000000000E+00 0.  1.
          3    1    3    3  501    0 -0.15817881150E+03  0.28176292320E+03 -0.39324888314E+03  0.50897501450E+03  0.00000000000E+00 0.  1.
         21    1    1    2  502  501 -0.64290382820E-06 -0.30886153415E-05  0.19767198739E-04  0.20017367861E-04  0.00000000000E+00 0. -1.
<mgrwt>
<rscale>  1 0.64936492E+03</rscale>
<asrwt>0</asrwt>
<pdfrwt beam="1">  1        1 0.38334161E+00 0.64936492E+03</pdfrwt>
<pdfrwt beam="2">0</pdfrwt>
<totfact> 0.15863371E+00</totfact>
</mgrwt>
</event>
<event>
 6    1  0.4233639E-003  0.5954788E+03  0.7818608E-02  0.9914831E-01
          1   -1    0    0  502    0  0.00000000000E+00  0.00000000000E+00  0.89023492287E+02  0.89023492287E+02  0.00000000000E+00 0.  1.
         13   -1    0    0    0    0 -0.00000000000E+00 -0.00000000000E+00 -0.10000000000E+04  0.10000000000E+04  0.00000000000E+00 0.  1.
    9000005    2    1    2  501    0 -0.11299526711E-01 -0.10679171571E-02 -0.91135116855E+03  0.10886486596E+04  0.59547875817E+03 0.  0.
         13    1    3    3    0    0 -0.22846942252E+03  0.15633141204E+03 -0.25530205150E+03  0.37658587986E+03  0.00000000000E+00 0.  1.
          3    1    3    3  501    0  0.22845812299E+03 -0.15633247995E+03 -0.65604911706E+03  0.71206277971E+03  0.00000000000E+00 0.  1.
         21    1    1    2  502  501  0.11299526711E-01  0.10679171571E-02  0.37466084115E+00  0.37483271688E+00  0.00000000000E+00 0.  1.
<mgrwt>
<rscale>  1 0.59547876E+03</rscale>
<asrwt>0</asrwt>
<pdfrwt beam="1">  1        1 0.32372247E+00 0.59547876E+03</pdfrwt>
<pdfrwt beam="2">0</pdfrwt>
<totfact> 0.29167293E+00</totfact>
</mgrwt>
</event>
<event>
 6    1  0.4233639E-003  0.6327010E+03  0.7818608E-02  0.9839792E-01
          1   -1    0    0  502    0  0.00000000000E+00  0.00000000000E+00  0.10008039441E+03  0.10008039441E+03  0.00000000000E+00 0.  1.
         13   -1    0    0    0    0 -0.00000000000E+00 -0.00000000000E+00 -0.10000000000E+04  0.10000000000E+04  0.00000000000E+00 0.  1.
    9000005    2    1    2  501    0 -0.11158219953E-02  0.11073729900E-02 -0.89992211892E+03  0.11000774299E+04  0.63270098126E+03 0.  0.
         13    1    3    3    0    0  0.96425752203E+02  0.28617811429E+03 -0.61382427097E+03  0.68408776806E+03  0.00000000000E+00 0.  1.
          1    1    3    3  501    0 -0.96426868025E+02 -0.28617700692E+03 -0.28609784796E+03  0.41598966186E+03  0.00000000000E+00 0.  1.
         21    1    1    2  502  501  0.11158219953E-02 -0.11073729900E-02  0.25133351257E-02  0.29644876654E-02  0.00000000000E+00 0. -1.
<mgrwt>
<rscale>  1 0.63270098E+03</rscale>
<asrwt>0</asrwt>
<pdfrwt beam="1">  1        1 0.36392947E+00 0.63270098E+03</pdfrwt>
<pdfrwt beam="2">0</pdfrwt>
<totfact> 0.19369508E+00</totfact>
</mgrwt>
</event>
