<event>
 6    1  0.8983908E-003  0.6443818E+03  0.7818608E-02  0.9817379E-01
          1   -1    0    0  502    0  0.00000000000E+00  0.00000000000E+00  0.10380759441E+03  0.10380759441E+03  0.00000000000E+00 0.  1.
         13   -1    0    0    0    0 -0.00000000000E+00 -0.00000000000E+00 -0.10000000000E+04  0.10000000000E+04  0.00000000000E+00 0.  1.
    9000005    2    1    2  501    0 -0.62677193364E-03  0.93557576710E-03 -0.89619238452E+03  0.11038064681E+04  0.64438181922E+03 0.  0.
         13    1    3    3    0    0 -0.28708568836E+03 -0.14218081315E+03 -0.38941731879E+03  0.50426126588E+03  0.00000000000E+00 0.  1.
          3    1    3    3  501    0  0.28708506159E+03  0.14218174873E+03 -0.50677506572E+03  0.59954520221E+03  0.00000000000E+00 0.  1.
         21    1    1    2  502  501  0.62677193364E-03 -0.93557576709E-03 -0.21070456789E-04  0.11263165793E-02  0.00000000000E+00 0. -1.
<mgrwt>
<rscale>  1 0.64438182E+03</rscale>
<asrwt>0</asrwt>
<pdfrwt beam="1">  1        1 0.37748296E+00 0.64438182E+03</pdfrwt>
<pdfrwt beam="2">0</pdfrwt>
<totfact> 0.16851889E+00</totfact>
</mgrwt>
</event>
<event>
 6    1  0.8983908E-003  0.6474931E+03  0.7818608E-02  0.9811495E-01
          1   -1    0    0  502    0  0.00000000000E+00  0.00000000000E+00  0.11428211658E+03  0.11428211658E+03  0.00000000000E+00 0.  1.
         13   -1    0    0    0    0 -0.00000000000E+00 -0.00000000000E+00 -0.10000000000E+04  0.10000000000E+04  0.00000000000E+00 0.  1.
    9000005    2    1    2  501    0 -0.32503094701E+00  0.11825579548E+00 -0.89518467789E+03  0.11048090058E+04  0.64749302098E+03 0.  0.
         13    1    3    3    0    0  0.26797690449E+03  0.15499518550E+03 -0.28640330558E+03  0.42173686383E+03  0.00000000000E+00 0.  1.
          3    1    3    3  501    0 -0.26830193544E+03 -0.15487692970E+03 -0.60878137231E+03  0.68307214201E+03  0.00000000000E+00 0.  1.
         21    1    1    2  502  501  0.32503094701E+00 -0.11825579548E+00  0.94667944733E+01  0.94731107430E+01  0.00000000000E+00 0. -1.
<mgrwt>
<rscale>  1 0.64749311E+03</rscale>
<asrwt>0</asrwt>
<pdfrwt beam="1">  1        1 0.41557221E+00 0.64749311E+03</pdfrwt>
<pdfrwt beam="2">0</pdfrwt>
<totfact> 0.11400184E+00</totfact>
</mgrwt>
</event>
<event>
 6    1  0.8983908E-003  0.6583071E+03  0.7818608E-02  0.9791315E-01
          1   -1    0    0  502    0  0.00000000000E+00  0.00000000000E+00  0.10834368321E+03  0.10834368321E+03  0.00000000000E+00 0.  1.
         13   -1    0    0    0    0 -0.00000000000E+00 -0.00000000000E+00 -0.10000000000E+04  0.10000000000E+04  0.00000000000E+00 0.  1.
    9000005    2    1    2  501    0  0.40100684174E-04 -0.38115784605E-04 -0.89165793246E+03  0.11083420666E+04  0.65830712291E+03 0.  0.
         13    1    3    3    0    0 -0.51767657530E+02 -0.26492113092E+03 -0.76295423076E+03  0.80929738305E+03  0.00000000000E+00 0.  1.
          1    1    3    3  501    0  0.51767697631E+02  0.26492109280E+03 -0.12870370170E+03  0.29904468355E+03  0.00000000000E+00 0.  1.
         21    1    1    2  502  501 -0.40100684175E-04  0.38115784612E-04  0.16156672914E-02  0.16166142627E-02  0.00000000000E+00 0.  1.
<mgrwt>
<rscale>  1 0.65830712E+03</rscale>
<asrwt>0</asrwt>
<pdfrwt beam="1">  1        1 0.39397786E+00 0.65830712E+03</pdfrwt>
<pdfrwt beam="2">0</pdfrwt>
<totfact> 0.14208200E+00</totfact>
</mgrwt>
</event>
<event>
 6    1  0.8983908E-003  0.6381526E+03  0.7818608E-02  0.9829267E-01
          1   -1    0    0  502    0  0.00000000000E+00  0.00000000000E+00  0.10180970781E+03  0.10180970781E+03  0.00000000000E+00 0.  1.
         13   -1    0    0    0    0 -0.00000000000E+00 -0.00000000000E+00 -0.10000000000E+04  0.10000000000E+04  0.00000000000E+00 0.  1.
    9000005    2    1    2  501    0 -0.28118434443E-05  0.26675116658E-05 -0.89819031455E+03  0.11018096851E+04  0.63815260014E+03 0.  0.
         13    1    3    3    0    0  0.30690231906E+03 -0.34818449467E+02 -0.31088041682E+03  0.43823280505E+03  0.00000000000E+00 0.  1.
          1    1    3    3  501    0 -0.30690232187E+03  0.34818452135E+02 -0.58730989773E+03  0.66357688006E+03  0.00000000000E+00 0.  1.
         21    1    1    2  502  501  0.28118434185E-05 -0.26675116621E-05  0.22361858789E-04  0.22695259645E-04  0.00000000000E+00 0.  1.
<mgrwt>
<rscale>  1 0.63815260E+03</rscale>
<asrwt>0</asrwt>
<pdfrwt beam="1">  1        1 0.37021790E+00 0.63815260E+03</pdfrwt>
<pdfrwt beam="2">0</pdfrwt>
<totfact> 0.18159579E+00</totfact>
</mgrwt>
</event>
<event>
 6    1  0.8983908E-003  0.6432904E+03  0.7818608E-02  0.9819451E-01
          1   -1    0    0  502    0  0.00000000000E+00  0.00000000000E+00  0.10345565896E+03  0.10345565896E+03  0.00000000000E+00 0.  1.
         13   -1    0    0    0    0 -0.00000000000E+00 -0.00000000000E+00 -0.10000000000E+04  0.10000000000E+04  0.00000000000E+00 0.  1.
    9000005    2    1    2  501    0  0.11265924172E-04 -0.16321733824E-04 -0.89654436638E+03  0.11034556268E+04  0.64329038496E+03 0.  0.
         13    1    3    3    0    0 -0.28368531404E+03 -0.12897694488E+03 -0.58488852759E+03  0.66272694182E+03  0.00000000000E+00 0.  1.
          1    1    3    3  501    0  0.28368532530E+03  0.12897692856E+03 -0.31165583879E+03  0.44072868496E+03  0.00000000000E+00 0.  1.
         21    1    1    2  502  501 -0.11265924177E-04  0.16321733829E-04  0.25336821665E-04  0.32175682974E-04  0.00000000000E+00 0. -1.
<mgrwt>
<rscale>  1 0.64329038E+03</rscale>
<asrwt>0</asrwt>
<pdfrwt beam="1">  1        1 0.37620319E+00 0.64329038E+03</pdfrwt>
<pdfrwt beam="2">0</pdfrwt>
<totfact> 0.17075505E+00</totfact>
</mgrwt>
</event>
<event>
 6    1  0.8983908E-003  0.6493718E+03  0.7818608E-02  0.9807959E-01
          1   -1    0    0  502    0  0.00000000000E+00  0.00000000000E+00  0.10546446053E+03  0.10546446053E+03  0.00000000000E+00 0.  1.
         13   -1    0    0    0    0 -0.00000000000E+00 -0.00000000000E+00 -0.10000000000E+04  0.10000000000E+04  0.00000000000E+00 0.  1.
    9000005    2    1    2  501    0 -0.13466443044E-03 -0.50521888145E-02 -0.89457889386E+03  0.11054208126E+04  0.64937183144E+03 0.  0.
         13    1    3    3    0    0  0.39100296479E+01  0.28674041598E+03 -0.70648320405E+03  0.76246565306E+03  0.00000000000E+00 0.  1.
          1    1    3    3  501    0 -0.39101643123E+01 -0.28674546817E+03 -0.18809568981E+03  0.34295515950E+03  0.00000000000E+00 0.  1.
         21    1    1    2  502  501  0.13466443044E-03  0.50521888146E-02  0.43354384153E-01  0.43647970991E-01  0.00000000000E+00 0. -1.
<mgrwt>
<rscale>  1 0.64937183E+03</rscale>
<asrwt>0</asrwt>
<pdfrwt beam="1">  1        1 0.38350794E+00 0.64937183E+03</pdfrwt>
<pdfrwt beam="2">0</pdfrwt>
<totfact> 0.15836522E+00</totfact>
</mgrwt>
</event>
<event>
 6    1  0.8983908E-003  0.6761675E+03  0.7818608E-02  0.9758880E-01
          1   -1    0    0  502    0  0.00000000000E+00  0.00000000000E+00  0.11431316496E+03  0.11431316496E+03  0.00000000000E+00 0.  1.
         13   -1    0    0    0    0 -0.00000000000E+00 -0.00000000000E+00 -0.10000000000E+04  0.10000000000E+04  0.00000000000E+00 0.  1.
    9000005    2    1    2  501    0 -0.43361625980E-02 -0.12096222184E-01 -0.88569558183E+03  0.11142976206E+04  0.67616752615E+03 0.  0.
         13    1    3    3    0    0 -0.44132082783E+02 -0.18166310792E+03 -0.90708008067E+03  0.92614437225E+03  0.00000000000E+00 0.  1.
          1    1    3    3  501    0  0.44127746620E+02  0.18165101169E+03  0.21384498839E+02  0.18815324834E+03  0.00000000000E+00 0.  1.
         21    1    1    2  502  501  0.43361625980E-02  0.12096222184E-01  0.87467969367E-02  0.15544367271E-01  0.00000000000E+00 0. -1.
<mgrwt>
<rscale>  1 0.67616753E+03</rscale>
<asrwt>0</asrwt>
<pdfrwt beam="1">  1        1 0.41568511E+00 0.67616753E+03</pdfrwt>
<pdfrwt beam="2">0</pdfrwt>
<totfact> 0.11324003E+00</totfact>
</mgrwt>
</event>
<event>
 6    1  0.8983908E-003  0.6625716E+03  0.7818608E-02  0.9783471E-01
          1   -1    0    0  502    0  0.00000000000E+00  0.00000000000E+00  0.10975099239E+03  0.10975099239E+03  0.00000000000E+00 0.  1.
         13   -1    0    0    0    0 -0.00000000000E+00 -0.00000000000E+00 -0.10000000000E+04  0.10000000000E+04  0.00000000000E+00 0.  1.
    9000005    2    1    2  501    0  0.60281305252E-04 -0.75795463744E-04 -0.89024970474E+03  0.11097502886E+04  0.66257163099E+03 0.  0.
         13    1    3    3    0    0  0.17968449994E+03  0.19396498425E+03 -0.77944262059E+03  0.82306727151E+03  0.00000000000E+00 0.  1.
          3    1    3    3  501    0 -0.17968443966E+03 -0.19396506005E+03 -0.11080708415E+03  0.28668301706E+03  0.00000000000E+00 0.  1.
         21    1    1    2  502  501 -0.60281305251E-04  0.75795463745E-04  0.69713061592E-03  0.70382517982E-03  0.00000000000E+00 0. -1.
<mgrwt>
<rscale>  1 0.66257163E+03</rscale>
<asrwt>0</asrwt>
<pdfrwt beam="1">  1        1 0.39909536E+00 0.66257163E+03</pdfrwt>
<pdfrwt beam="2">0</pdfrwt>
<totfact> 0.13471549E+00</totfact>
</mgrwt>
</event>
<event>
 6    1  0.8983908E-003  0.6516924E+03  0.7818608E-02  0.9803609E-01
          1   -1    0    0  502    0  0.00000000000E+00  0.00000000000E+00  0.10860396091E+03  0.10860396091E+03  0.00000000000E+00 0.  1.
         13   -1    0    0    0    0 -0.00000000000E+00 -0.00000000000E+00 -0.10000000000E+04  0.10000000000E+04  0.00000000000E+00 0.  1.
    9000005    2    1    2  501    0 -0.60673999818E+00  0.14084507695E+01 -0.89355350104E+03  0.11059569798E+04  0.65169059381E+03 0.  0.
         13    1    3    3    0    0 -0.27511561909E+02 -0.13879151292E+03  0.51205941514E+02  0.15047265048E+03  0.00000000000E+00 0.  1.
          1    1    3    3  501    0  0.26904821911E+02  0.14019996369E+03 -0.94475944255E+03  0.95548432931E+03  0.00000000000E+00 0.  1.
         21    1    1    2  502  501  0.60673999818E+00 -0.14084507695E+01  0.21574619500E+01  0.26469811222E+01  0.00000000000E+00 0.  1.
<mgrwt>
<rscale>  1 0.65169240E+03</rscale>
<asrwt>0</asrwt>
<pdfrwt beam="1">  1        1 0.39492433E+00 0.65169240E+03</pdfrwt>
<pdfrwt beam="2">0</pdfrwt>
<totfact> 0.14088647E+00</totfact>
</mgrwt>
</event>
<event>
 6    1  0.8983908E-003  0.6333080E+03  0.7818608E-02  0.9838615E-01
          1   -1    0    0  502    0  0.00000000000E+00  0.00000000000E+00  0.10727379657E+03  0.10727379657E+03  0.00000000000E+00 0.  1.
         13   -1    0    0    0    0 -0.00000000000E+00 -0.00000000000E+00 -0.10000000000E+04  0.10000000000E+04  0.00000000000E+00 0.  1.
    9000005    2    1    2  501    0  0.33404290926E+00  0.15092058050E+00 -0.89972497066E+03  0.11002654370E+04  0.63330788294E+03 0.  0.
         13    1    3    3    0    0 -0.25209921140E+03 -0.18259854919E+03 -0.35039033896E+03  0.46868927041E+03  0.00000000000E+00 0.  1.
          1    1    3    3  501    0  0.25243325431E+03  0.18274946977E+03 -0.54933463169E+03  0.63157616656E+03  0.00000000000E+00 0.  1.
         21    1    1    2  502  501 -0.33404290926E+00 -0.15092058050E+00  0.69987672271E+01  0.70083596073E+01  0.00000000000E+00 0. -1.
<mgrwt>
<rscale>  1 0.63330799E+03</rscale>
<asrwt>0</asrwt>
<pdfrwt beam="1">  1        1 0.39008736E+00 0.63330799E+03</pdfrwt>
<pdfrwt beam="2">0</pdfrwt>
<totfact> 0.14854249E+00</totfact>
</mgrwt>
</event>
<event>
 6    1  0.8983908E-003  0.6525786E+03  0.7818608E-02  0.9801953E-01
          1   -1    0    0  502    0  0.00000000000E+00  0.00000000000E+00  0.10664187901E+03  0.10664187901E+03  0.00000000000E+00 0.  1.
         13   -1    0    0    0    0 -0.00000000000E+00 -0.00000000000E+00 -0.10000000000E+04  0.10000000000E+04  0.00000000000E+00 0.  1.
    9000005    2    1    2  501    0  0.72416151970E-02  0.27928874257E-02 -0.89353518782E+03  0.11064646422E+04  0.65257863312E+03 0.  0.
         13    1    3    3    0    0  0.30652965432E+02 -0.18261116477E+03  0.87526194822E+01  0.18537273299E+03  0.00000000000E+00 0.  1.
          1    1    3    3  501    0 -0.30645723817E+02  0.18261395766E+03 -0.90228780730E+03  0.92109190916E+03  0.00000000000E+00 0.  1.
         21    1    1    2  502  501 -0.72416151970E-02 -0.27928874257E-02  0.17706683127E+00  0.17723685832E+00  0.00000000000E+00 0. -1.
<mgrwt>
<rscale>  1 0.65257863E+03</rscale>
<asrwt>0</asrwt>
<pdfrwt beam="1">  1        1 0.38778947E+00 0.65257863E+03</pdfrwt>
<pdfrwt beam="2">0</pdfrwt>
<totfact> 0.15151581E+00</totfact>
</mgrwt>
</event>
<event>
 6    1  0.8983908E-003  0.6495775E+03  0.7818608E-02  0.9807572E-01
          1   -1    0    0  502    0  0.00000000000E+00  0.00000000000E+00  0.10549191905E+03  0.10549191905E+03  0.00000000000E+00 0.  1.
         13   -1    0    0    0    0 -0.00000000000E+00 -0.00000000000E+00 -0.10000000000E+04  0.10000000000E+04  0.00000000000E+00 0.  1.
    9000005    2    1    2  501    0  0.69867825943E-04 -0.17936634457E-04 -0.89451227566E+03  0.11054877237E+04  0.64957747496E+03 0.  0.
         13    1    3    3    0    0  0.14062460844E+03  0.56042139655E+02  0.41777401275E+02  0.15703933639E+03  0.00000000000E+00 0.  1.
          3    1    3    3  501    0 -0.14062453858E+03 -0.56042157591E+02 -0.93628967694E+03  0.94844838732E+03  0.00000000000E+00 0.  1.
         21    1    1    2  502  501 -0.69867825965E-04  0.17936634452E-04  0.41947171564E-02  0.41953373236E-02  0.00000000000E+00 0.  1.
<mgrwt>
<rscale>  1 0.64957747E+03</rscale>
<asrwt>0</asrwt>
<pdfrwt beam="1">  1        1 0.38360779E+00 0.64957747E+03</pdfrwt>
<pdfrwt beam="2">0</pdfrwt>
<totfact> 0.15819837E+00</totfact>
</mgrwt>
</event>
<event>
 6    1  0.8983908E-003  0.6549183E+03  0.7818608E-02  0.9797594E-01
          1   -1    0    0  502    0  0.00000000000E+00  0.00000000000E+00  0.10727148724E+03  0.10727148724E+03  0.00000000000E+00 0.  1.
         13   -1    0    0    0    0 -0.00000000000E+00 -0.00000000000E+00 -0.10000000000E+04  0.10000000000E+04  0.00000000000E+00 0.  1.
    9000005    2    1    2  501    0  0.14793615031E-01  0.60886346232E-02 -0.89276881051E+03  0.11072281302E+04  0.65491830261E+03 0.  0.
         13    1    3    3    0    0 -0.29961570193E+03  0.37324738413E+02 -0.66064384748E+03  0.72636973929E+03  0.00000000000E+00 0.  1.
          3    1    3    3  501    0  0.29963049555E+03 -0.37318649779E+02 -0.23212496302E+03  0.38085839093E+03  0.00000000000E+00 0.  1.
         21    1    1    2  502  501 -0.14793615031E-01 -0.60886346232E-02  0.40297746699E-01  0.43357016806E-01  0.00000000000E+00 0. -1.
<mgrwt>
<rscale>  1 0.65491830E+03</rscale>
<asrwt>0</asrwt>
<pdfrwt beam="1">  1        1 0.39007896E+00 0.65491830E+03</pdfrwt>
<pdfrwt beam="2">0</pdfrwt>
<totfact> 0.14795242E+00</totfact>
</mgrwt>
</event>
<event>
 6    1  0.8983908E-003  0.6501803E+03  0.7818608E-02  0.9806441E-01
          1   -1    0    0  502    0  0.00000000000E+00  0.00000000000E+00  0.10568361685E+03  0.10568361685E+03  0.00000000000E+00 0.  1.
         13   -1    0    0    0    0 -0.00000000000E+00 -0.00000000000E+00 -0.10000000000E+04  0.10000000000E+04  0.00000000000E+00 0.  1.
    9000005    2    1    2  501    0 -0.93023248411E-05 -0.17280727889E-05 -0.89431640392E+03  0.11056835940E+04  0.65018026715E+03 0.  0.
         13    1    3    3    0    0  0.10104237244E+03 -0.30890491957E+03 -0.45939578354E+03  0.56273998996E+03  0.00000000000E+00 0.  1.
          3    1    3    3  501    0 -0.10104238175E+03  0.30890491784E+03 -0.43492062038E+03  0.54294360407E+03  0.00000000000E+00 0.  1.
         21    1    1    2  502  501  0.93023248417E-05  0.17280727509E-05  0.20769905852E-04  0.22823419376E-04  0.00000000000E+00 0.  1.
<mgrwt>
<rscale>  1 0.65018027E+03</rscale>
<asrwt>0</asrwt>
<pdfrwt beam="1">  1        1 0.38430487E+00 0.65018027E+03</pdfrwt>
<pdfrwt beam="2">0</pdfrwt>
<totfact> 0.15706230E+00</totfact>
</mgrwt>
</event>
<event>
 6    1  0.8983908E-003  0.6742345E+03  0.7818608E-02  0.9762338E-01
          1   -1    0    0  502    0  0.00000000000E+00  0.00000000000E+00  0.11381722170E+03  0.11381722170E+03  0.00000000000E+00 0.  1.
         13   -1    0    0    0    0 -0.00000000000E+00 -0.00000000000E+00 -0.10000000000E+04  0.10000000000E+04  0.00000000000E+00 0.  1.
    9000005    2    1    2  501    0 -0.18734637858E-02 -0.13728383036E+00 -0.88632033102E+03  0.11136228738E+04  0.67423449703E+03 0.  0.
         13    1    3    3    0    0 -0.30797153295E+03  0.85784688122E+02 -0.61973235814E+03  0.69733325860E+03  0.00000000000E+00 0.  1.
          1    1    3    3  501    0  0.30796965948E+03 -0.85921971953E+02 -0.26658797289E+03  0.41628961519E+03  0.00000000000E+00 0.  1.
         21    1    1    2  502  501  0.18734637858E-02  0.13728383036E+00  0.13755272350E+00  0.19434791403E+00  0.00000000000E+00 0. -1.
<mgrwt>
<rscale>  1 0.67423451E+03</rscale>
<asrwt>0</asrwt>
<pdfrwt beam="1">  1        1 0.41388168E+00 0.67423451E+03</pdfrwt>
<pdfrwt beam="2">0</pdfrwt>
<totfact> 0.11541796E+00</totfact>
</mgrwt>
</event>
<event>
 6    1  0.8983908E-003  0.6519163E+03  0.7818608E-02  0.9803190E-01
          1   -1    0    0  502    0  0.00000000000E+00  0.00000000000E+00  0.10628445156E+03  0.10628445156E+03  0.00000000000E+00 0.  1.
         13   -1    0    0    0    0 -0.00000000000E+00 -0.00000000000E+00 -0.10000000000E+04  0.10000000000E+04  0.00000000000E+00 0.  1.
    9000005    2    1    2  501    0 -0.91021737373E-03 -0.30880348932E-02 -0.89375121061E+03  0.11062486444E+04  0.65191628044E+03 0.  0.
         13    1    3    3    0    0  0.16031070423E+03 -0.26857957442E+03 -0.29121419732E+03  0.42736426899E+03  0.00000000000E+00 0.  1.
          1    1    3    3  501    0 -0.16031161445E+03  0.26857648638E+03 -0.60253701329E+03  0.67888437539E+03  0.00000000000E+00 0.  1.
         21    1    1    2  502  501  0.91021737373E-03  0.30880348932E-02  0.35662171047E-01  0.35807190604E-01  0.00000000000E+00 0. -1.
<mgrwt>
<rscale>  1 0.65191628E+03</rscale>
<asrwt>0</asrwt>
<pdfrwt beam="1">  1        1 0.38648973E+00 0.65191628E+03</pdfrwt>
<pdfrwt beam="2">0</pdfrwt>
<totfact> 0.15355592E+00</totfact>
</mgrwt>
</event>
<event>
 6    1  0.8983908E-003  0.6493373E+03  0.7818608E-02  0.9808023E-01
          1   -1    0    0  502    0  0.00000000000E+00  0.00000000000E+00  0.10540978220E+03  0.10540978220E+03  0.00000000000E+00 0.  1.
         13   -1    0    0    0    0 -0.00000000000E+00 -0.00000000000E+00 -0.10000000000E+04  0.10000000000E+04  0.00000000000E+00 0.  1.
    9000005    2    1    2  501    0  0.42005868124E-04 -0.97567770467E-05 -0.89459025775E+03  0.11054097234E+04  0.64933729860E+03 0.  0.
         13    1    3    3    0    0  0.10661024730E+03 -0.28769988708E+03 -0.62804095476E+03  0.69897954957E+03  0.00000000000E+00 0.  1.
          3    1    3    3  501    0 -0.10661020529E+03  0.28769987733E+03 -0.26654930299E+03  0.40643017384E+03  0.00000000000E+00 0.  1.
         21    1    1    2  502  501 -0.42005868131E-04  0.97567770264E-05  0.39957030150E-04  0.58789896358E-04  0.00000000000E+00 0.  1.
<mgrwt>
<rscale>  1 0.64933730E+03</rscale>
<asrwt>0</asrwt>
<pdfrwt beam="1">  1        1 0.38330911E+00 0.64933730E+03</pdfrwt>
<pdfrwt beam="2">0</pdfrwt>
<totfact> 0.15868700E+00</totfact>
</mgrwt>
</event>
<event>
 6    1  0.8983908E-003  0.6408732E+03  0.7818608E-02  0.9824057E-01
          1   -1    0    0  502    0  0.00000000000E+00  0.00000000000E+00  0.10267968556E+03  0.10267968556E+03  0.00000000000E+00 0.  1.
         13   -1    0    0    0    0 -0.00000000000E+00 -0.00000000000E+00 -0.10000000000E+04  0.10000000000E+04  0.00000000000E+00 0.  1.
    9000005    2    1    2  501    0  0.51564344403E-05  0.10006896559E-04 -0.89732039485E+03  0.11026796044E+04  0.64087316909E+03 0.  0.
         13    1    3    3    0    0  0.17374547105E+03 -0.26816160398E+03 -0.49014989400E+03  0.58510260053E+03  0.00000000000E+00 0.  1.
          1    1    3    3  501    0 -0.17374546589E+03  0.26816161399E+03 -0.40717050085E+03  0.51757700384E+03  0.00000000000E+00 0.  1.
         21    1    1    2  502  501 -0.51564344437E-05 -0.10006896581E-04  0.80407371926E-04  0.81191577491E-04  0.00000000000E+00 0.  1.
<mgrwt>
<rscale>  1 0.64087317E+03</rscale>
<asrwt>0</asrwt>
<pdfrwt beam="1">  1        1 0.37338146E+00 0.64087317E+03</pdfrwt>
<pdfrwt beam="2">0</pdfrwt>
<totfact> 0.17578634E+00</totfact>
</mgrwt>
</event>
<event>
 6    1  0.8983908E-003  0.6548162E+03  0.7818608E-02  0.9797784E-01
          3   -1    0    0  502    0  0.00000000000E+00  0.00000000000E+00  0.10719727406E+03  0.10719727406E+03  0.00000000000E+00 0.  1.
         13   -1    0    0    0    0 -0.00000000000E+00 -0.00000000000E+00 -0.10000000000E+04  0.10000000000E+04  0.00000000000E+00 0.  1.
    9000005    2    1    2  501    0  0.41746862333E-03 -0.11816488526E-02 -0.89280354499E+03  0.11071957769E+04  0.65481624789E+03 0.  0.
         13    1    3    3    0    0 -0.33120703412E+02 -0.76383925971E+02  0.88998774958E+02  0.12186987768E+03  0.00000000000E+00 0.  1.
          3    1    3    3  501    0  0.33121120881E+02  0.76382744323E+02 -0.98180231995E+03  0.98532589925E+03  0.00000000000E+00 0.  1.
         21    1    1    2  502  501 -0.41746862332E-03  0.11816488526E-02  0.81904960706E-03  0.14971360397E-02  0.00000000000E+00 0. -1.
<mgrwt>
<rscale>  1 0.65481625E+03</rscale>
<asrwt>0</asrwt>
<pdfrwt beam="1">  1        3 0.38980909E+00 0.65481625E+03</pdfrwt>
<pdfrwt beam="2">0</pdfrwt>
<totfact> 0.66951684E-02</totfact>
</mgrwt>
</event>
<event>
 6    1  0.8983908E-003  0.6537720E+03  0.7818608E-02  0.9799727E-01
          1   -1    0    0  502    0  0.00000000000E+00  0.00000000000E+00  0.10685450844E+03  0.10685450844E+03  0.00000000000E+00 0.  1.
         13   -1    0    0    0    0 -0.00000000000E+00 -0.00000000000E+00 -0.10000000000E+04  0.10000000000E+04  0.00000000000E+00 0.  1.
    9000005    2    1    2  501    0  0.15944906949E-04  0.21188190715E-04 -0.89314553751E+03  0.11068544554E+04  0.65377200480E+03 0.  0.
         13    1    3    3    0    0 -0.73606054413E+02  0.30194603212E+03 -0.27503963981E+03  0.41501332632E+03  0.00000000000E+00 0.  1.
          3    1    3    3  501    0  0.73606070358E+02 -0.30194601093E+03 -0.61810589770E+03  0.69184112907E+03  0.00000000000E+00 0.  1.
         21    1    1    2  502  501 -0.15944906944E-04 -0.21188190684E-04  0.45946970434E-04  0.53050010122E-04  0.00000000000E+00 0.  1.
<mgrwt>
<rscale>  1 0.65377200E+03</rscale>
<asrwt>0</asrwt>
<pdfrwt beam="1">  1        1 0.38856267E+00 0.65377200E+03</pdfrwt>
<pdfrwt beam="2">0</pdfrwt>
<totfact> 0.15029217E+00</totfact>
</mgrwt>
</event>
<event>
 6    1  0.8983908E-003  0.6761407E+03  0.7818608E-02  0.9758928E-01
          1   -1    0    0  502    0  0.00000000000E+00  0.00000000000E+00  0.11483129139E+03  0.11483129139E+03  0.00000000000E+00 0.  1.
         13   -1    0    0    0    0 -0.00000000000E+00 -0.00000000000E+00 -0.10000000000E+04  0.10000000000E+04  0.00000000000E+00 0.  1.
    9000005    2    1    2  501    0 -0.12444536198E+01  0.96203888096E+00 -0.88351684740E+03  0.11125503203E+04  0.67613883294E+03 0.  0.
         13    1    3    3    0    0  0.21662579050E+03 -0.20093787770E+03 -0.70884698946E+03  0.76796277141E+03  0.00000000000E+00 0.  1.
          3    1    3    3  501    0 -0.21787024412E+03  0.20189991658E+03 -0.17466985794E+03  0.34458754891E+03  0.00000000000E+00 0.  1.
         21    1    1    2  502  501  0.12444536198E+01 -0.96203888096E+00 -0.16518612020E+01  0.22809710763E+01  0.00000000000E+00 0.  1.
<mgrwt>
<rscale>  1 0.67614066E+03</rscale>
<asrwt>0</asrwt>
<pdfrwt beam="1">  1        1 0.41756921E+00 0.67614066E+03</pdfrwt>
<pdfrwt beam="2">0</pdfrwt>
<totfact> 0.11104908E+00</totfact>
</mgrwt>
</event>
<event>
 6    1  0.8983908E-003  0.6306614E+03  0.7818608E-02  0.9843759E-01
          1   -1    0    0  502    0  0.00000000000E+00  0.00000000000E+00  0.99433491194E+02  0.99433491194E+02  0.00000000000E+00 0.  1.
         13   -1    0    0    0    0 -0.00000000000E+00 -0.00000000000E+00 -0.10000000000E+04  0.10000000000E+04  0.00000000000E+00 0.  1.
    9000005    2    1    2  501    0  0.18085763742E-04  0.15296868241E-04 -0.90056655561E+03  0.10994334387E+04  0.63066137119E+03 0.  0.
         13    1    3    3    0    0  0.14823602794E+03  0.19579070448E+03 -0.79511151928E+03  0.83217200628E+03  0.00000000000E+00 0.  1.
          3    1    3    3  501    0 -0.14823600986E+03 -0.19579068919E+03 -0.10545503634E+03  0.26726143246E+03  0.00000000000E+00 0.  1.
         21    1    1    2  502  501 -0.18085763754E-04 -0.15296868234E-04  0.46809106157E-04  0.52461237572E-04  0.00000000000E+00 0. -1.
<mgrwt>
<rscale>  1 0.63066137E+03</rscale>
<asrwt>0</asrwt>
<pdfrwt beam="1">  1        1 0.36157709E+00 0.63066137E+03</pdfrwt>
<pdfrwt beam="2">0</pdfrwt>
<totfact> 0.19841673E+00</totfact>
</mgrwt>
</event>
<event>
 6    1  0.8983908E-003  0.6571681E+03  0.7818608E-02  0.9793421E-01
          1   -1    0    0  502    0  0.00000000000E+00  0.00000000000E+00  0.10916769641E+03  0.10916769641E+03  0.00000000000E+00 0.  1.
         13   -1    0    0    0    0 -0.00000000000E+00 -0.00000000000E+00 -0.10000000000E+04  0.10000000000E+04  0.00000000000E+00 0.  1.
    9000005    2    1    2  501    0  0.10017656957E-02  0.23738673672E-01 -0.89203239786E+03  0.11079673670E+04  0.65716808112E+03 0.  0.
         13    1    3    3    0    0  0.24231593868E+03  0.15749684747E+03 -0.70964704372E+03  0.76623834265E+03  0.00000000000E+00 0.  1.
          3    1    3    3  501    0 -0.24231493691E+03 -0.15747310879E+03 -0.18238535415E+03  0.34172902430E+03  0.00000000000E+00 0.  1.
         21    1    1    2  502  501 -0.10017656957E-02 -0.23738673672E-01  0.12000942704E+01  0.12003294490E+01  0.00000000000E+00 0.  1.
<mgrwt>
<rscale>  1 0.65716808E+03</rscale>
<asrwt>0</asrwt>
<pdfrwt beam="1">  1        1 0.39697428E+00 0.65716808E+03</pdfrwt>
<pdfrwt beam="2">0</pdfrwt>
<totfact> 0.13781742E+00</totfact>
</mgrwt>
</event>
<event>
 6    1  0.8983908E-003  0.6224733E+03  0.7818608E-02  0.9859848E-01
          1   -1    0    0  502    0  0.00000000000E+00  0.00000000000E+00  0.96885578470E+02  0.96885578470E+02  0.00000000000E+00 0.  1.
         13   -1    0    0    0    0 -0.00000000000E+00 -0.00000000000E+00 -0.10000000000E+04  0.10000000000E+04  0.00000000000E+00 0.  1.
    9000005    2    1    2  501    0  0.45392562981E-04 -0.37711335402E-03 -0.90313176055E+03  0.10968682353E+04  0.62247325137E+03 0.  0.
         13    1    3    3    0    0 -0.15790317980E+03  0.22555638109E+02  0.19370365960E+02  0.16067788298E+03  0.00000000000E+00 0.  1.
          3    1    3    3  501    0  0.15790322519E+03 -0.22556015222E+02 -0.92250212651E+03  0.93619035231E+03  0.00000000000E+00 0.  1.
         21    1    1    2  502  501 -0.45392562979E-04  0.37711335401E-03  0.17339019415E-01  0.17343179329E-01  0.00000000000E+00 0. -1.
<mgrwt>
<rscale>  1 0.62247325E+03</rscale>
<asrwt>0</asrwt>
<pdfrwt beam="1">  1        1 0.35231194E+00 0.62247325E+03</pdfrwt>
<pdfrwt beam="2">0</pdfrwt>
<totfact> 0.21811835E+00</totfact>
</mgrwt>
</event>
<event>
 6    1  0.8983908E-003  0.6467604E+03  0.7818608E-02  0.9812877E-01
          1   -1    0    0  502    0  0.00000000000E+00  0.00000000000E+00  0.10794915841E+03  0.10794915841E+03  0.00000000000E+00 0.  1.
         13   -1    0    0    0    0 -0.00000000000E+00 -0.00000000000E+00 -0.10000000000E+04  0.10000000000E+04  0.00000000000E+00 0.  1.
    9000005    2    1    2  501    0 -0.18743025579E-02 -0.67180940866E-01 -0.89542487839E+03  0.11045744523E+04  0.64676039102E+03 0.  0.
         13    1    3    3    0    0  0.51816713736E+02  0.21268930426E+03 -0.85413248674E+03  0.88173920003E+03  0.00000000000E+00 0.  1.
          1    1    3    3  501    0 -0.51818588038E+02 -0.21275648520E+03 -0.41292391652E+02  0.22283525230E+03  0.00000000000E+00 0.  1.
         21    1    1    2  502  501  0.18743025579E-02  0.67180940866E-01  0.33740368015E+01  0.33747060805E+01  0.00000000000E+00 0.  1.
<mgrwt>
<rscale>  1 0.64676039E+03</rscale>
<asrwt>0</asrwt>
<pdfrwt beam="1">  1        1 0.39254322E+00 0.64676039E+03</pdfrwt>
<pdfrwt beam="2">0</pdfrwt>
<totfact> 0.14449408E+00</totfact>
</mgrwt>
</event>
<event>
 6    1  0.8983908E-003  0.6430584E+03  0.7818608E-02  0.9819892E-01
          1   -1    0    0  502    0  0.00000000000E+00  0.00000000000E+00  0.10359369869E+03  0.10359369869E+03  0.00000000000E+00 0.  1.
         13   -1    0    0    0    0 -0.00000000000E+00 -0.00000000000E+00 -0.10000000000E+04  0.10000000000E+04  0.00000000000E+00 0.  1.
    9000005    2    1    2  501    0 -0.57190785753E-01 -0.23940368380E-01 -0.89661397394E+03  0.11033769688E+04  0.64305840570E+03 0.  0.
         13    1    3    3    0    0 -0.18922120575E+03 -0.83406034999E+02 -0.25834845536E+02  0.20839546689E+03  0.00000000000E+00 0.  1.
          3    1    3    3  501    0  0.18916401496E+03  0.83382094631E+02 -0.87077912841E+03  0.89498150189E+03  0.00000000000E+00 0.  1.
         21    1    1    2  502  501  0.57190785753E-01  0.23940368380E-01  0.20767263232E+00  0.21672989971E+00  0.00000000000E+00 0. -1.
<mgrwt>
<rscale>  1 0.64305841E+03</rscale>
<asrwt>0</asrwt>
<pdfrwt beam="1">  1        1 0.37670515E+00 0.64305841E+03</pdfrwt>
<pdfrwt beam="2">0</pdfrwt>
<totfact> 0.16989516E+00</totfact>
</mgrwt>
</event>
<event>
 6    1  0.8983908E-003  0.6572448E+03  0.7818608E-02  0.9793279E-01
          1   -1    0    0  502    0  0.00000000000E+00  0.00000000000E+00  0.10799279268E+03  0.10799279268E+03  0.00000000000E+00 0.  1.
         13   -1    0    0    0    0 -0.00000000000E+00 -0.00000000000E+00 -0.10000000000E+04  0.10000000000E+04  0.00000000000E+00 0.  1.
    9000005    2    1    2  501    0  0.64366483443E-04 -0.56100079803E-04 -0.89200730787E+03  0.11079926608E+04  0.65724477861E+03 0.  0.
         13    1    3    3    0    0 -0.43187751931E+02 -0.29999775837E+03 -0.23190624728E+03  0.38163378319E+03  0.00000000000E+00 0.  1.
          3    1    3    3  501    0  0.43187816297E+02  0.29999770227E+03 -0.66010106059E+03  0.72635887758E+03  0.00000000000E+00 0.  1.
         21    1    1    2  502  501 -0.64366483448E-04  0.56100079840E-04  0.10055439118E-03  0.13191455088E-03  0.00000000000E+00 0. -1.
<mgrwt>
<rscale>  1 0.65724478E+03</rscale>
<asrwt>0</asrwt>
<pdfrwt beam="1">  1        1 0.39270189E+00 0.65724478E+03</pdfrwt>
<pdfrwt beam="2">0</pdfrwt>
<totfact> 0.14397719E+00</totfact>
</mgrwt>
</event>
<event>
 6    1  0.8983908E-003  0.6497961E+03  0.7818608E-02  0.9807162E-01
          1   -1    0    0  502    0  0.00000000000E+00  0.00000000000E+00  0.10749735743E+03  0.10749735743E+03  0.00000000000E+00 0.  1.
         13   -1    0    0    0    0 -0.00000000000E+00 -0.00000000000E+00 -0.10000000000E+04  0.10000000000E+04  0.00000000000E+00 0.  1.
    9000005    2    1    2  501    0 -0.78144010110E-01 -0.76977519958E-01 -0.89443955424E+03  0.11055573423E+04  0.64979605171E+03 0.  0.
         13    1    3    3    0    0  0.26209540649E+02 -0.45897643296E+02 -0.99264202270E+03  0.99404814718E+03  0.00000000000E+00 0.  1.
          1    1    3    3  501    0 -0.26287684659E+02  0.45820665776E+02  0.98202468460E+02  0.11150919509E+03  0.00000000000E+00 0.  1.
         21    1    1    2  502  501  0.78144010110E-01  0.76977519958E-01  0.19369116673E+01  0.19400151628E+01  0.00000000000E+00 0.  1.
<mgrwt>
<rscale>  1 0.64979606E+03</rscale>
<asrwt>0</asrwt>
<pdfrwt beam="1">  1        1 0.39090031E+00 0.64979606E+03</pdfrwt>
<pdfrwt beam="2">0</pdfrwt>
<totfact> 0.14685651E+00</totfact>
</mgrwt>
</event>
<event>
 6    1  0.8983908E-003  0.6562188E+03  0.7818608E-02  0.9795180E-01
          1   -1    0    0  502    0  0.00000000000E+00  0.00000000000E+00  0.10766124623E+03  0.10766124623E+03  0.00000000000E+00 0.  1.
         13   -1    0    0    0    0 -0.00000000000E+00 -0.00000000000E+00 -0.10000000000E+04  0.10000000000E+04  0.00000000000E+00 0.  1.
    9000005    2    1    2  501    0  0.43304714690E-02  0.15903000102E-01 -0.89231200153E+03  0.11076298243E+04  0.65621880439E+03 0.  0.
         13    1    3    3    0    0  0.94337877731E+02 -0.30989940588E+03 -0.35821411171E+03  0.48296441563E+03  0.00000000000E+00 0.  1.
          1    1    3    3  501    0 -0.94333547260E+02  0.30991530888E+03 -0.53409788983E+03  0.62466540863E+03  0.00000000000E+00 0.  1.
         21    1    1    2  502  501 -0.43304714690E-02 -0.15903000102E-01 -0.26752236486E-01  0.31421975628E-01  0.00000000000E+00 0.  1.
<mgrwt>
<rscale>  1 0.65621880E+03</rscale>
<asrwt>0</asrwt>
<pdfrwt beam="1">  1        1 0.39149627E+00 0.65621880E+03</pdfrwt>
<pdfrwt beam="2">0</pdfrwt>
<totfact> 0.14579048E+00</totfact>
</mgrwt>
</event>
<event>
 6    1  0.8983908E-003  0.6521210E+03  0.7818608E-02  0.9802807E-01
          1   -1    0    0  502    0  0.00000000000E+00  0.00000000000E+00  0.10631546446E+03  0.10631546446E+03  0.00000000000E+00 0.  1.
         13   -1    0    0    0    0 -0.00000000000E+00 -0.00000000000E+00 -0.10000000000E+04  0.10000000000E+04  0.00000000000E+00 0.  1.
    9000005    2    1    2  501    0  0.13391687332E-04  0.42812159649E-05 -0.89368451963E+03  0.11063154432E+04  0.65212103117E+03 0.  0.
         13    1    3    3    0    0  0.26197628939E+03 -0.77089316613E+02 -0.14459532175E+03  0.30900185438E+03  0.00000000000E+00 0.  1.
          3    1    3    3  501    0 -0.26197627600E+03  0.77089320894E+02 -0.74908919788E+03  0.79731358885E+03  0.00000000000E+00 0.  1.
         21    1    1    2  502  501 -0.13391687309E-04 -0.42812159600E-05 -0.15910950749E-04  0.21232627082E-04  0.00000000000E+00 0.  1.
<mgrwt>
<rscale>  1 0.65212103E+03</rscale>
<asrwt>0</asrwt>
<pdfrwt beam="1">  1        1 0.38660250E+00 0.65212103E+03</pdfrwt>
<pdfrwt beam="2">0</pdfrwt>
<totfact> 0.15337370E+00</totfact>
</mgrwt>
</event>
<event>
 6    1  0.8983908E-003  0.7045521E+03  0.7818608E-02  0.9709479E-01
          1   -1    0    0  502    0  0.00000000000E+00  0.00000000000E+00  0.12409928412E+03  0.12409928412E+03  0.00000000000E+00 0.  1.
         13   -1    0    0    0    0 -0.00000000000E+00 -0.00000000000E+00 -0.10000000000E+04  0.10000000000E+04  0.00000000000E+00 0.  1.
    9000005    2    1    2  501    0  0.17943196701E-03 -0.21267737378E-03 -0.87590156699E+03  0.11240983887E+04  0.70455207924E+03 0.  0.
         13    1    3    3    0    0 -0.16335772572E+03 -0.24072401443E+03 -0.75490410526E+03  0.80902039889E+03  0.00000000000E+00 0.  1.
          1    1    3    3  501    0  0.16335790515E+03  0.24072380175E+03 -0.12099746173E+03  0.31507798979E+03  0.00000000000E+00 0.  1.
         21    1    1    2  502  501 -0.17943196703E-03  0.21267737379E-03  0.85110651830E-03  0.89543832932E-03  0.00000000000E+00 0.  1.
<mgrwt>
<rscale>  1 0.70455208E+03</rscale>
<asrwt>0</asrwt>
<pdfrwt beam="1">  1        1 0.45127108E+00 0.70455208E+03</pdfrwt>
<pdfrwt beam="2">0</pdfrwt>
<totfact> 0.77525124E-01</totfact>
</mgrwt>
</event>
<event>
 6    1  0.8983908E-003  0.5278561E+03  0.7818608E-02  0.1006753E+00
          1   -1    0    0  502    0  0.00000000000E+00  0.00000000000E+00  0.70962218965E+02  0.70962218965E+02  0.00000000000E+00 0.  1.
         13   -1    0    0    0    0 -0.00000000000E+00 -0.00000000000E+00 -0.10000000000E+04  0.10000000000E+04  0.00000000000E+00 0.  1.
    9000005    2    1    2  501    0 -0.22280589283E+01  0.31949590614E+01 -0.92648510588E+03  0.10663051641E+04  0.52784171819E+03 0.  0.
         13    1    3    3    0    0 -0.22237339764E+03 -0.35623801248E+02 -0.18375074591E+03  0.29066014487E+03  0.00000000000E+00 0.  1.
          3    1    3    3  501    0  0.22014533871E+03  0.38818760309E+02 -0.74273435997E+03  0.77564501919E+03  0.00000000000E+00 0.  1.
         21    1    1    2  502  501  0.22280589283E+01 -0.31949590614E+01 -0.25526751514E+01  0.46570549085E+01  0.00000000000E+00 0.  1.
<mgrwt>
<rscale>  1 0.52785609E+03</rscale>
<asrwt>0</asrwt>
<pdfrwt beam="1">  1        1 0.25804498E+00 0.52785609E+03</pdfrwt>
<pdfrwt beam="2">0</pdfrwt>
<totfact> 0.56716864E+00</totfact>
</mgrwt>
</event>
<event>
 6    1  0.8983908E-003  0.6543209E+03  0.7818608E-02  0.9798705E-01
          1   -1    0    0  502    0  0.00000000000E+00  0.00000000000E+00  0.10736894688E+03  0.10736894688E+03  0.00000000000E+00 0.  1.
         13   -1    0    0    0    0 -0.00000000000E+00 -0.00000000000E+00 -0.10000000000E+04  0.10000000000E+04  0.00000000000E+00 0.  1.
    9000005    2    1    2  501    0  0.72824465004E-01  0.33129038811E-01 -0.89296074475E+03  0.11070296866E+04  0.65432089151E+03 0.  0.
         13    1    3    3    0    0  0.28535663650E+03 -0.14649325189E+03 -0.55565204920E+03  0.64159012042E+03  0.00000000000E+00 0.  1.
          3    1    3    3  501    0 -0.28528381203E+03  0.14652638093E+03 -0.33730869555E+03  0.46543956623E+03  0.00000000000E+00 0.  1.
         21    1    1    2  502  501 -0.72824465004E-01 -0.33129038811E-01  0.32969162983E+00  0.33926023448E+00  0.00000000000E+00 0. -1.
<mgrwt>
<rscale>  1 0.65432090E+03</rscale>
<asrwt>0</asrwt>
<pdfrwt beam="1">  1        1 0.39043336E+00 0.65432090E+03</pdfrwt>
<pdfrwt beam="2">0</pdfrwt>
<totfact> 0.14743423E+00</totfact>
</mgrwt>
</event>
<event>
 6    1  0.8983908E-003  0.6542330E+03  0.7818608E-02  0.9798869E-01
          1   -1    0    0  502    0  0.00000000000E+00  0.00000000000E+00  0.10702336256E+03  0.10702336256E+03  0.00000000000E+00 0.  1.
         13   -1    0    0    0    0 -0.00000000000E+00 -0.00000000000E+00 -0.10000000000E+04  0.10000000000E+04  0.00000000000E+00 0.  1.
    9000005    2    1    2  501    0  0.37531832658E-03 -0.32925229866E-03 -0.89299480326E+03  0.11070051899E+04  0.65423296445E+03 0.  0.
         13    1    3    3    0    0  0.21074721780E+03 -0.14867702837E+03 -0.78696077559E+03  0.82814643083E+03  0.00000000000E+00 0.  1.
          1    1    3    3  501    0 -0.21074684248E+03  0.14867669912E+03 -0.10603402767E+03  0.27885875905E+03  0.00000000000E+00 0.  1.
         21    1    1    2  502  501 -0.37531832659E-03  0.32925229863E-03  0.18165817437E-01  0.18172677130E-01  0.00000000000E+00 0. -1.
<mgrwt>
<rscale>  1 0.65423296E+03</rscale>
<asrwt>0</asrwt>
<pdfrwt beam="1">  1        1 0.38917668E+00 0.65423296E+03</pdfrwt>
<pdfrwt beam="2">0</pdfrwt>
<totfact> 0.14934059E+00</totfact>
</mgrwt>
</event>
<event>
 6    1  0.8983908E-003  0.6080630E+03  0.7818608E-02  0.9888818E-01
          3   -1    0    0  502    0  0.00000000000E+00  0.00000000000E+00  0.92435331590E+02  0.92435331590E+02  0.00000000000E+00 0.  1.
         13   -1    0    0    0    0 -0.00000000000E+00 -0.00000000000E+00 -0.10000000000E+04  0.10000000000E+04  0.00000000000E+00 0.  1.
    9000005    2    1    2  501    0  0.42345204463E-04 -0.26163642104E-04 -0.90756483565E+03  0.10924351571E+04  0.60806302435E+03 0.  0.
         13    1    3    3    0    0  0.29657022125E+03  0.63862015654E+02 -0.41771997492E+03  0.51625791095E+03  0.00000000000E+00 0.  1.
          1    1    3    3  501    0 -0.29657017890E+03 -0.63862041818E+02 -0.48984486073E+03  0.57617724615E+03  0.00000000000E+00 0.  1.
         21    1    1    2  502  501 -0.42345204436E-04  0.26163642102E-04  0.16723623025E-03  0.17448670211E-03  0.00000000000E+00 0.  1.
<mgrwt>
<rscale>  1 0.60806302E+03</rscale>
<asrwt>0</asrwt>
<pdfrwt beam="1">  1        3 0.33612919E+00 0.60806302E+03</pdfrwt>
<pdfrwt beam="2">0</pdfrwt>
<totfact> 0.12998658E-01</totfact>
</mgrwt>
</event>
<event>
 6    1  0.8983908E-003  0.6509217E+03  0.7818608E-02  0.9805051E-01
          1   -1    0    0  502    0  0.00000000000E+00  0.00000000000E+00  0.10592476441E+03  0.10592476441E+03  0.00000000000E+00 0.  1.
         13   -1    0    0    0    0 -0.00000000000E+00 -0.00000000000E+00 -0.10000000000E+04  0.10000000000E+04  0.00000000000E+00 0.  1.
    9000005    2    1    2  501    0 -0.29055079303E-05  0.46886883069E-05 -0.89407524399E+03  0.11059247544E+04  0.65092166993E+03 0.  0.
         13    1    3    3    0    0  0.88257057271E+01 -0.30525669345E+03 -0.25583093250E+03  0.39838299160E+03  0.00000000000E+00 0.  1.
          1    1    3    3  501    0 -0.88257086326E+01  0.30525669814E+03 -0.63824431149E+03  0.70754176276E+03  0.00000000000E+00 0.  1.
         21    1    1    2  502  501  0.29055079315E-05 -0.46886882933E-05  0.83974605222E-05  0.10047045211E-04  0.00000000000E+00 0. -1.
<mgrwt>
<rscale>  1 0.65092167E+03</rscale>
<asrwt>0</asrwt>
<pdfrwt beam="1">  1        1 0.38518177E+00 0.65092167E+03</pdfrwt>
<pdfrwt beam="2">0</pdfrwt>
<totfact> 0.15564467E+00</totfact>
</mgrwt>
</event>
<event>
 6    1  0.8983908E-003  0.6916763E+03  0.7818608E-02  0.9731574E-01
          1   -1    0    0  502    0  0.00000000000E+00  0.00000000000E+00  0.11960614502E+03  0.11960614502E+03  0.00000000000E+00 0.  1.
         13   -1    0    0    0    0 -0.00000000000E+00 -0.00000000000E+00 -0.10000000000E+04  0.10000000000E+04  0.00000000000E+00 0.  1.
    9000005    2    1    2  501    0 -0.13945900776E-03  0.28929173266E-03 -0.88039596588E+03  0.11196040098E+04  0.69167628419E+03 0.  0.
         13    1    3    3    0    0  0.71318779512E+01 -0.11114453603E+03  0.89781472787E+02  0.14305483014E+03  0.00000000000E+00 0.  1.
          3    1    3    3  501    0 -0.71320174102E+01  0.11114482532E+03 -0.97017743866E+03  0.97654917969E+03  0.00000000000E+00 0.  1.
         21    1    1    2  502  501  0.13945900776E-03 -0.28929173265E-03  0.21108922929E-02  0.21351826137E-02  0.00000000000E+00 0.  1.
<mgrwt>
<rscale>  1 0.69167628E+03</rscale>
<asrwt>0</asrwt>
<pdfrwt beam="1">  1        1 0.43493235E+00 0.69167628E+03</pdfrwt>
<pdfrwt beam="2">0</pdfrwt>
<totfact> 0.92364383E-01</totfact>
</mgrwt>
</event>
<event>
 6    1  0.8983908E-003  0.6530544E+03  0.7818608E-02  0.9801065E-01
          1   -1    0    0  502    0  0.00000000000E+00  0.00000000000E+00  0.10662002360E+03  0.10662002360E+03  0.00000000000E+00 0.  1.
         13   -1    0    0    0    0 -0.00000000000E+00 -0.00000000000E+00 -0.10000000000E+04  0.10000000000E+04  0.00000000000E+00 0.  1.
    9000005    2    1    2  501    0  0.44518671274E-05  0.61581247337E-05 -0.89337998505E+03  0.11066200121E+04  0.65305440315E+03 0.  0.
         13    1    3    3    0    0 -0.76336205857E+02 -0.25469249545E+03 -0.12551279971E+03  0.29402201695E+03  0.00000000000E+00 0.  1.
          1    1    3    3  501    0  0.76336210308E+02  0.25469250161E+03 -0.76786718534E+03  0.81259799514E+03  0.00000000000E+00 0.  1.
         21    1    1    2  502  501 -0.44518671188E-05 -0.61581247333E-05  0.86511328710E-05  0.11514500468E-04  0.00000000000E+00 0.  1.
<mgrwt>
<rscale>  1 0.65305440E+03</rscale>
<asrwt>0</asrwt>
<pdfrwt beam="1">  1        1 0.38770999E+00 0.65305440E+03</pdfrwt>
<pdfrwt beam="2">0</pdfrwt>
<totfact> 0.15162533E+00</totfact>
</mgrwt>
</event>
<event>
 6    1  0.8983908E-003  0.6243261E+03  0.7818608E-02  0.9856184E-01
          1   -1    0    0  502    0  0.00000000000E+00  0.00000000000E+00  0.97446775556E+02  0.97446775556E+02  0.00000000000E+00 0.  1.
         13   -1    0    0    0    0 -0.00000000000E+00 -0.00000000000E+00 -0.10000000000E+04  0.10000000000E+04  0.00000000000E+00 0.  1.
    9000005    2    1    2  501    0 -0.11065602897E-03 -0.14776978054E-03 -0.90255420769E+03  0.10974457751E+04  0.62432614195E+03 0.  0.
         13    1    3    3    0    0 -0.62735532292E+01  0.22840230774E+03 -0.77401546858E+02  0.24124255658E+03  0.00000000000E+00 0.  1.
          1    1    3    3  501    0  0.62734425731E+01 -0.22840245551E+03 -0.82515266083E+03  0.85620321854E+03  0.00000000000E+00 0.  1.
         21    1    1    2  502  501  0.11065602897E-03  0.14776978053E-03  0.98324714498E-03  0.10004277150E-02  0.00000000000E+00 0.  1.
<mgrwt>
<rscale>  1 0.62432614E+03</rscale>
<asrwt>0</asrwt>
<pdfrwt beam="1">  1        1 0.35435266E+00 0.62432614E+03</pdfrwt>
<pdfrwt beam="2">0</pdfrwt>
<totfact> 0.21362160E+00</totfact>
</mgrwt>
</event>
<event>
 6    1  0.8983908E-003  0.6403056E+03  0.7818608E-02  0.9825142E-01
          1   -1    0    0  502    0  0.00000000000E+00  0.00000000000E+00  0.10250293808E+03  0.10250293808E+03  0.00000000000E+00 0.  1.
         13   -1    0    0    0    0 -0.00000000000E+00 -0.00000000000E+00 -0.10000000000E+04  0.10000000000E+04  0.00000000000E+00 0.  1.
    9000005    2    1    2  501    0 -0.33697422742E-02  0.58187481681E-02 -0.89749961437E+03  0.11024957459E+04  0.64030563937E+03 0.  0.
         13    1    3    3    0    0 -0.20191631781E+03  0.23188105672E+03 -0.29512678224E+03  0.42619108562E+03  0.00000000000E+00 0.  1.
          1    1    3    3  501    0  0.20191294807E+03 -0.23187523797E+03 -0.60237283213E+03  0.67630466024E+03  0.00000000000E+00 0.  1.
         21    1    1    2  502  501  0.33697422742E-02 -0.58187481680E-02  0.25524478558E-02  0.71922168553E-02  0.00000000000E+00 0.  1.
<mgrwt>
<rscale>  1 0.64030564E+03</rscale>
<asrwt>0</asrwt>
<pdfrwt beam="1">  1        1 0.37273874E+00 0.64030564E+03</pdfrwt>
<pdfrwt beam="2">0</pdfrwt>
<totfact> 0.17695252E+00</totfact>
</mgrwt>
</event>
<event>
 6    1  0.8983908E-003  0.6488962E+03  0.7818608E-02  0.9808853E-01
          1   -1    0    0  502    0  0.00000000000E+00  0.00000000000E+00  0.10526670972E+03  0.10526670972E+03  0.00000000000E+00 0.  1.
         13   -1    0    0    0    0 -0.00000000000E+00 -0.00000000000E+00 -0.10000000000E+04  0.10000000000E+04  0.00000000000E+00 0.  1.
    9000005    2    1    2  501    0 -0.15789931012E-04 -0.10768140163E-03 -0.89473341131E+03  0.11052665470E+04  0.64889618777E+03 0.  0.
         13    1    3    3    0    0  0.14213120357E+03  0.39407896179E+02 -0.93959549077E+03  0.95110143916E+03  0.00000000000E+00 0.  1.
          3    1    3    3  501    0 -0.14213121936E+03 -0.39408003861E+02  0.44862079457E+02  0.15416510779E+03  0.00000000000E+00 0.  1.
         21    1    1    2  502  501  0.15789931019E-04  0.10768140163E-03  0.12102516595E-03  0.16276270141E-03  0.00000000000E+00 0.  1.
<mgrwt>
<rscale>  1 0.64889619E+03</rscale>
<asrwt>0</asrwt>
<pdfrwt beam="1">  1        1 0.38278884E+00 0.64889619E+03</pdfrwt>
<pdfrwt beam="2">0</pdfrwt>
<totfact> 0.15954222E+00</totfact>
</mgrwt>
</event>
<event>
 6    1  0.8983908E-003  0.6515411E+03  0.7818608E-02  0.9803892E-01
          1   -1    0    0  502    0  0.00000000000E+00  0.00000000000E+00  0.10612680446E+03  0.10612680446E+03  0.00000000000E+00 0.  1.
         13   -1    0    0    0    0 -0.00000000000E+00 -0.00000000000E+00 -0.10000000000E+04  0.10000000000E+04  0.00000000000E+00 0.  1.
    9000005    2    1    2  501    0 -0.24519527230E-04  0.18892965485E-04 -0.89387356171E+03  0.11061264370E+04  0.65154105800E+03 0.  0.
         13    1    3    3    0    0  0.12276879665E+03 -0.81462401123E+02 -0.94020240014E+03  0.95167686399E+03  0.00000000000E+00 0.  1.
          1    1    3    3  501    0 -0.12276882117E+03  0.81462420016E+02  0.46328838429E+02  0.15444957299E+03  0.00000000000E+00 0.  1.
         21    1    1    2  502  501  0.24519527233E-04 -0.18892965483E-04  0.36616988711E-03  0.36747590069E-03  0.00000000000E+00 0.  1.
<mgrwt>
<rscale>  1 0.65154106E+03</rscale>
<asrwt>0</asrwt>
<pdfrwt beam="1">  1        1 0.38591647E+00 0.65154106E+03</pdfrwt>
<pdfrwt beam="2">0</pdfrwt>
<totfact> 0.15446637E+00</totfact>
</mgrwt>
</event>
<event>
 6    1  0.8983908E-003  0.6492341E+03  0.7818608E-02  0.9808217E-01
          1   -1    0    0  502    0  0.00000000000E+00  0.00000000000E+00  0.10545357862E+03  0.10545357862E+03  0.00000000000E+00 0.  1.
         13   -1    0    0    0    0 -0.00000000000E+00 -0.00000000000E+00 -0.10000000000E+04  0.10000000000E+04  0.00000000000E+00 0.  1.
    9000005    2    1    2  501    0  0.22840070045E-01 -0.20340695454E-02 -0.89462188199E+03  0.11053747109E+04  0.64923411752E+03 0.  0.
         13    1    3    3    0    0 -0.34096393280E+02 -0.31846644759E+03 -0.53728472598E+03  0.62550645005E+03  0.00000000000E+00 0.  1.
          1    1    3    3  501    0  0.34119233351E+02  0.31846441352E+03 -0.35733715600E+03  0.47986826090E+03  0.00000000000E+00 0.  1.
         21    1    1    2  502  501 -0.22840070045E-01  0.20340695454E-02  0.75460609863E-01  0.78867673222E-01  0.00000000000E+00 0.  1.
<mgrwt>
<rscale>  1 0.64923412E+03</rscale>
<asrwt>0</asrwt>
<pdfrwt beam="1">  1        1 0.38346837E+00 0.64923412E+03</pdfrwt>
<pdfrwt beam="2">0</pdfrwt>
<totfact> 0.15843303E+00</totfact>
</mgrwt>
</event>
<event>
 6    1  0.8983908E-003  0.6349733E+03  0.7818608E-02  0.9835391E-01
          1   -1    0    0  502    0  0.00000000000E+00  0.00000000000E+00  0.10138907297E+03  0.10138907297E+03  0.00000000000E+00 0.  1.
         13   -1    0    0    0    0 -0.00000000000E+00 -0.00000000000E+00 -0.10000000000E+04  0.10000000000E+04  0.00000000000E+00 0.  1.
    9000005    2    1    2  501    0  0.73813434894E+00 -0.13989520917E+01 -0.89767682555E+03  0.10995521040E+04  0.63497137295E+03 0.  0.
         13    1    3    3    0    0 -0.14819945129E+03  0.45952179560E+01  0.37200620378E+02  0.15286621453E+03  0.00000000000E+00 0.  1.
          3    1    3    3  501    0  0.14893758564E+03 -0.59941700477E+01 -0.93487744593E+03  0.94668588951E+03  0.00000000000E+00 0.  1.
         21    1    1    2  502  501 -0.73813434894E+00  0.13989520917E+01 -0.93410147264E+00  0.18369689255E+01  0.00000000000E+00 0. -1.
<mgrwt>
<rscale>  1 0.63497334E+03</rscale>
<asrwt>0</asrwt>
<pdfrwt beam="1">  1        1 0.36868832E+00 0.63497334E+03</pdfrwt>
<pdfrwt beam="2">0</pdfrwt>
<totfact> 0.18453267E+00</totfact>
</mgrwt>
</event>
<event>
 6    1  0.8983908E-003  0.6430802E+03  0.7818608E-02  0.9819851E-01
          1   -1    0    0  502    0  0.00000000000E+00  0.00000000000E+00  0.10366527427E+03  0.10366527427E+03  0.00000000000E+00 0.  1.
         13   -1    0    0    0    0 -0.00000000000E+00 -0.00000000000E+00 -0.10000000000E+04  0.10000000000E+04  0.00000000000E+00 0.  1.
    9000005    2    1    2  501    0 -0.18358819111E+00  0.38425464934E+00 -0.89641890052E+03  0.11032311756E+04  0.64308008853E+03 0.  0.
         13    1    3    3    0    0 -0.31322574371E+03  0.32564818918E+02 -0.33603362027E+03  0.46053167959E+03  0.00000000000E+00 0.  1.
          1    1    3    3  501    0  0.31304215552E+03 -0.32180564269E+02 -0.56038528025E+03  0.64269949601E+03  0.00000000000E+00 0.  1.
         21    1    1    2  502  501  0.18358819111E+00 -0.38425464934E+00  0.84174792256E-01  0.43409866978E+00  0.00000000000E+00 0.  1.
<mgrwt>
<rscale>  1 0.64308023E+03</rscale>
<asrwt>0</asrwt>
<pdfrwt beam="1">  1        1 0.37696543E+00 0.64308023E+03</pdfrwt>
<pdfrwt beam="2">0</pdfrwt>
<totfact> 0.16944652E+00</totfact>
</mgrwt>
</event>
<event>
 6    1  0.8983908E-003  0.5875518E+03  0.7818608E-02  0.9931574E-01
          1   -1    0    0  502    0  0.00000000000E+00  0.00000000000E+00  0.86304634508E+02  0.86304634508E+02  0.00000000000E+00 0.  1.
         13   -1    0    0    0    0 -0.00000000000E+00 -0.00000000000E+00 -0.10000000000E+04  0.10000000000E+04  0.00000000000E+00 0.  1.
    9000005    2    1    2  501    0  0.39596865292E-04  0.89338041732E-04 -0.91369572608E+03  0.10863042609E+04  0.58755175723E+03 0.  0.
         13    1    3    3    0    0 -0.14023721209E+03  0.59815850993E+02 -0.92112985255E+03  0.93366193933E+03  0.00000000000E+00 0.  1.
          3    1    3    3  501    0  0.14023725169E+03 -0.59815761655E+02  0.74341264747E+01  0.15264232159E+03  0.00000000000E+00 0.  1.
         21    1    1    2  502  501 -0.39596865277E-04 -0.89338041738E-04  0.36058734339E-03  0.37359393686E-03  0.00000000000E+00 0.  1.
<mgrwt>
<rscale>  1 0.58755176E+03</rscale>
<asrwt>0</asrwt>
<pdfrwt beam="1">  1        1 0.31383570E+00 0.58755176E+03</pdfrwt>
<pdfrwt beam="2">0</pdfrwt>
<totfact> 0.32229190E+00</totfact>
</mgrwt>
</event>
<event>
 6    1  0.8983908E-003  0.6794850E+03  0.7818608E-02  0.9752973E-01
          1   -1    0    0  502    0  0.00000000000E+00  0.00000000000E+00  0.11543659904E+03  0.11543659904E+03  0.00000000000E+00 0.  1.
         13   -1    0    0    0    0 -0.00000000000E+00 -0.00000000000E+00 -0.10000000000E+04  0.10000000000E+04  0.00000000000E+00 0.  1.
    9000005    2    1    2  501    0 -0.12551662769E-02  0.30870940112E-02 -0.88457476065E+03  0.11154247606E+04  0.67948501780E+03 0.  0.
         13    1    3    3    0    0  0.14983263523E+03 -0.56742145171E+02  0.49514998326E+02  0.16769384210E+03  0.00000000000E+00 0.  1.
          1    1    3    3  501    0 -0.14983389040E+03  0.56745232265E+02 -0.93408975898E+03  0.94773091852E+03  0.00000000000E+00 0.  1.
         21    1    1    2  502  501  0.12551662769E-02 -0.30870940112E-02  0.11359692434E-01  0.11838420673E-01  0.00000000000E+00 0. -1.
<mgrwt>
<rscale>  1 0.67948502E+03</rscale>
<asrwt>0</asrwt>
<pdfrwt beam="1">  1        1 0.41977034E+00 0.67948502E+03</pdfrwt>
<pdfrwt beam="2">0</pdfrwt>
<totfact> 0.10847020E+00</totfact>
</mgrwt>
</event>
<event>
 6    1  0.8983908E-003  0.5920512E+03  0.7818608E-02  0.9922036E-01
          1   -1    0    0  502    0  0.00000000000E+00  0.00000000000E+00  0.87631150237E+02  0.87631150237E+02  0.00000000000E+00 0.  1.
         13   -1    0    0    0    0 -0.00000000000E+00 -0.00000000000E+00 -0.10000000000E+04  0.10000000000E+04  0.00000000000E+00 0.  1.
    9000005    2    1    2  501    0 -0.43863911401E-05  0.17562969532E-05 -0.91236885002E+03  0.10876311455E+04  0.59205117193E+03 0.  0.
         13    1    3    3    0    0 -0.28653777592E+03  0.69668235119E+02 -0.40850622814E+03  0.50382030372E+03  0.00000000000E+00 0.  1.
          3    1    3    3  501    0  0.28653777153E+03 -0.69668233363E+02 -0.50386262188E+03  0.58381084178E+03  0.00000000000E+00 0.  1.
         21    1    1    2  502  501  0.43863911418E-05 -0.17562969471E-05  0.25836722757E-06  0.47319932205E-05  0.00000000000E+00 0.  1.
<mgrwt>
<rscale>  1 0.59205117E+03</rscale>
<asrwt>0</asrwt>
<pdfrwt beam="1">  1        1 0.31865940E+00 0.59205117E+03</pdfrwt>
<pdfrwt beam="2">0</pdfrwt>
<totfact> 0.30694283E+00</totfact>
</mgrwt>
</event>
<event>
 6    1  0.8983908E-003  0.6464745E+03  0.7818608E-02  0.9813417E-01
          3   -1    0    0  502    0  0.00000000000E+00  0.00000000000E+00  0.12411208691E+03  0.12411208691E+03  0.00000000000E+00 0.  1.
         13   -1    0    0    0    0 -0.00000000000E+00 -0.00000000000E+00 -0.10000000000E+04  0.10000000000E+04  0.00000000000E+00 0.  1.
    9000005    2    1    2  501    0 -0.11947444626E+02 -0.13546932992E+01 -0.89346325596E+03  0.11028172682E+04  0.64636271603E+03 0.  0.
         13    1    3    3    0    0  0.24022888957E+03 -0.17510767980E+03 -0.24331454897E+03  0.38415438127E+03  0.00000000000E+00 0.  1.
          1    1    3    3  501    0 -0.25217633420E+03  0.17375298651E+03 -0.65014870699E+03  0.71866288693E+03  0.00000000000E+00 0.  1.
         21    1    1    2  502  501  0.11947444626E+02  0.13546932992E+01  0.17575342863E+02  0.21294818707E+02  0.00000000000E+00 0.  1.
<mgrwt>
<rscale>  1 0.64647454E+03</rscale>
<asrwt>0</asrwt>
<pdfrwt beam="1">  1        3 0.45131763E+00 0.64647454E+03</pdfrwt>
<pdfrwt beam="2">0</pdfrwt>
<totfact> 0.32219631E-02</totfact>
</mgrwt>
</event>
<event>
 6    1  0.8983908E-003  0.6566531E+03  0.7818608E-02  0.9794375E-01
          1   -1    0    0  502    0  0.00000000000E+00  0.00000000000E+00  0.10779831614E+03  0.10779831614E+03  0.00000000000E+00 0.  1.
         13   -1    0    0    0    0 -0.00000000000E+00 -0.00000000000E+00 -0.10000000000E+04  0.10000000000E+04  0.00000000000E+00 0.  1.
    9000005    2    1    2  501    0  0.13805932042E-06 -0.10685223231E-05 -0.89220168496E+03  0.11077983146E+04  0.65665307370E+03 0.  0.
         13    1    3    3    0    0  0.10238364916E+03  0.22703398662E+03 -0.85171526615E+02  0.26321290174E+03  0.00000000000E+00 0.  1.
          3    1    3    3  501    0 -0.10238364902E+03 -0.22703398769E+03 -0.80703015834E+03  0.84458541286E+03  0.00000000000E+00 0.  1.
         21    1    1    2  502  501 -0.13805931971E-06  0.10685223076E-05  0.10977841386E-05  0.15381580909E-05  0.00000000000E+00 0. -1.
<mgrwt>
<rscale>  1 0.65665307E+03</rscale>
<asrwt>0</asrwt>
<pdfrwt beam="1">  1        1 0.39199470E+00 0.65665307E+03</pdfrwt>
<pdfrwt beam="2">0</pdfrwt>
<totfact> 0.14503794E+00</totfact>
</mgrwt>
</event>
<event>
 6    1  0.8983908E-003  0.6850858E+03  0.7818608E-02  0.9743083E-01
          1   -1    0    0  502    0  0.00000000000E+00  0.00000000000E+00  0.11781214525E+03  0.11781214525E+03  0.00000000000E+00 0.  1.
         13   -1    0    0    0    0 -0.00000000000E+00 -0.00000000000E+00 -0.10000000000E+04  0.10000000000E+04  0.00000000000E+00 0.  1.
    9000005    2    1    2  501    0 -0.34913643931E-01 -0.14801237452E-02 -0.88266365496E+03  0.11173350635E+04  0.68508577209E+03 0.  0.
         13    1    3    3    0    0  0.12425931509E+03  0.26311367213E+03 -0.14657009575E+03  0.32580972180E+03  0.00000000000E+00 0.  1.
          3    1    3    3  501    0 -0.12429422874E+03 -0.26311515226E+03 -0.73609355921E+03  0.79152534170E+03  0.00000000000E+00 0.  1.
         21    1    1    2  502  501  0.34913643931E-01  0.14801237452E-02  0.47580021174E+00  0.47708174854E+00  0.00000000000E+00 0.  1.
<mgrwt>
<rscale>  1 0.68508577E+03</rscale>
<asrwt>0</asrwt>
<pdfrwt beam="1">  1        1 0.42840870E+00 0.68508577E+03</pdfrwt>
<pdfrwt beam="2">0</pdfrwt>
<totfact> 0.99024184E-01</totfact>
</mgrwt>
</event>
<event>
 6    1  0.8983908E-003  0.6464070E+03  0.7818608E-02  0.9813545E-01
          1   -1    0    0  502    0  0.00000000000E+00  0.00000000000E+00  0.10446050858E+03  0.10446050858E+03  0.00000000000E+00 0.  1.
         13   -1    0    0    0    0 -0.00000000000E+00 -0.00000000000E+00 -0.10000000000E+04  0.10000000000E+04  0.00000000000E+00 0.  1.
    9000005    2    1    2  501    0  0.31561939267E-05  0.19155374105E-05 -0.89553950004E+03  0.11044604992E+04  0.64640699112E+03 0.  0.
         13    1    3    3    0    0  0.12450786315E+03 -0.24706179466E+03 -0.16227888622E+03  0.32074316092E+03  0.00000000000E+00 0.  1.
          1    1    3    3  501    0 -0.12450786000E+03  0.24706179658E+03 -0.73326061382E+03  0.78371733828E+03  0.00000000000E+00 0.  1.
         21    1    1    2  502  501 -0.31561939225E-05 -0.19155373869E-05  0.86167184975E-05  0.93743629768E-05  0.00000000000E+00 0.  1.
<mgrwt>
<rscale>  1 0.64640699E+03</rscale>
<asrwt>0</asrwt>
<pdfrwt beam="1">  1        1 0.37985720E+00 0.64640699E+03</pdfrwt>
<pdfrwt beam="2">0</pdfrwt>
<totfact> 0.16444404E+00</totfact>
</mgrwt>
</event>
<event>
 6    1  0.8983908E-003  0.6296021E+03  0.7818608E-02  0.9845826E-01
          1   -1    0    0  502    0  0.00000000000E+00  0.00000000000E+00  0.99118342368E+02  0.99118342368E+02  0.00000000000E+00 0.  1.
         13   -1    0    0    0    0 -0.00000000000E+00 -0.00000000000E+00 -0.10000000000E+04  0.10000000000E+04  0.00000000000E+00 0.  1.
    9000005    2    1    2  501    0  0.22753765327E-03 -0.43570607140E-02 -0.90090000664E+03  0.10990994818E+04  0.62960213538E+03 0.  0.
         13    1    3    3    0    0  0.25143970416E+03  0.33224417749E+02 -0.77598438061E+03  0.81638076025E+03  0.00000000000E+00 0.  1.
          3    1    3    3  501    0 -0.25143947662E+03 -0.33228774810E+02 -0.12491562603E+03  0.28271872153E+03  0.00000000000E+00 0.  1.
         21    1    1    2  502  501 -0.22753765328E-03  0.43570607139E-02  0.18349004386E-01  0.18860586242E-01  0.00000000000E+00 0. -1.
<mgrwt>
<rscale>  1 0.62960214E+03</rscale>
<asrwt>0</asrwt>
<pdfrwt beam="1">  1        1 0.36043110E+00 0.62960214E+03</pdfrwt>
<pdfrwt beam="2">0</pdfrwt>
<totfact> 0.20075915E+00</totfact>
</mgrwt>
</event>
<event>
 6    1  0.8983908E-003  0.6354138E+03  0.7818608E-02  0.9834541E-01
          1   -1    0    0  502    0  0.00000000000E+00  0.00000000000E+00  0.10095585835E+03  0.10095585835E+03  0.00000000000E+00 0.  1.
         13   -1    0    0    0    0 -0.00000000000E+00 -0.00000000000E+00 -0.10000000000E+04  0.10000000000E+04  0.00000000000E+00 0.  1.
    9000005    2    1    2  501    0 -0.16137697742E-04 -0.34053710857E-03 -0.89906231373E+03  0.11009376831E+04  0.63541383210E+03 0.  0.
         13    1    3    3    0    0 -0.15515281799E+03  0.26212748177E+03 -0.29307156559E+03  0.42269865884E+03  0.00000000000E+00 0.  1.
          1    1    3    3  501    0  0.15515280185E+03 -0.26212782231E+03 -0.60599074814E+03  0.67823902423E+03  0.00000000000E+00 0.  1.
         21    1    1    2  502  501  0.16137697730E-04  0.34053710856E-03  0.18172083564E-01  0.18175281208E-01  0.00000000000E+00 0.  1.
<mgrwt>
<rscale>  1 0.63541383E+03</rscale>
<asrwt>0</asrwt>
<pdfrwt beam="1">  1        1 0.36711299E+00 0.63541383E+03</pdfrwt>
<pdfrwt beam="2">0</pdfrwt>
<totfact> 0.18747806E+00</totfact>
</mgrwt>
</event>
<event>
 6    1  0.8983908E-003  0.6456878E+03  0.7818608E-02  0.9814904E-01
          1   -1    0    0  502    0  0.00000000000E+00  0.00000000000E+00  0.10422823733E+03  0.10422823733E+03  0.00000000000E+00 0.  1.
         13   -1    0    0    0    0 -0.00000000000E+00 -0.00000000000E+00 -0.10000000000E+04  0.10000000000E+04  0.00000000000E+00 0.  1.
    9000005    2    1    2  501    0 -0.28058364705E-04  0.29087665382E-04 -0.89577179308E+03  0.11042281868E+04  0.64568783723E+03 0.  0.
         13    1    3    3    0    0  0.26329043909E+03 -0.15160110585E+03 -0.63462567055E+03  0.70360108892E+03  0.00000000000E+00 0.  1.
          3    1    3    3  501    0 -0.26329046715E+03  0.15160113494E+03 -0.26114612253E+03  0.40062709783E+03  0.00000000000E+00 0.  1.
         21    1    1    2  502  501  0.28058364685E-04 -0.29087665385E-04  0.30407147091E-04  0.50576266179E-04  0.00000000000E+00 0.  1.
<mgrwt>
<rscale>  1 0.64568784E+03</rscale>
<asrwt>0</asrwt>
<pdfrwt beam="1">  1        1 0.37901257E+00 0.64568784E+03</pdfrwt>
<pdfrwt beam="2">0</pdfrwt>
<totfact> 0.16588273E+00</totfact>
</mgrwt>
</event>
<event>
 6    1  0.8983908E-003  0.6491150E+03  0.7818608E-02  0.9808441E-01
          1   -1    0    0  502    0  0.00000000000E+00  0.00000000000E+00  0.10586638276E+03  0.10586638276E+03  0.00000000000E+00 0.  1.
         13   -1    0    0    0    0 -0.00000000000E+00 -0.00000000000E+00 -0.10000000000E+04  0.10000000000E+04  0.00000000000E+00 0.  1.
    9000005    2    1    2  501    0 -0.31574117911E+00  0.35059421857E+00 -0.89454354588E+03  0.11052413625E+04  0.64911485220E+03 0.  0.
         13    1    3    3    0    0  0.31305396051E+03  0.84306549533E+02 -0.42573446304E+03  0.53512634911E+03  0.00000000000E+00 0.  1.
          1    1    3    3  501    0 -0.31336970169E+03 -0.83955955314E+02 -0.46880908284E+03  0.57011501342E+03  0.00000000000E+00 0.  1.
         21    1    1    2  502  501  0.31574117911E+00 -0.35059421857E+00  0.40992864573E+00  0.62502023397E+00  0.00000000000E+00 0. -1.
<mgrwt>
<rscale>  1 0.64911502E+03</rscale>
<asrwt>0</asrwt>
<pdfrwt beam="1">  1        1 0.38496948E+00 0.64911502E+03</pdfrwt>
<pdfrwt beam="2">0</pdfrwt>
<totfact> 0.15603366E+00</totfact>
</mgrwt>
</event>
<event>
 6    1  0.8983908E-003  0.6369412E+03  0.7818608E-02  0.9831596E-01
          1   -1    0    0  502    0  0.00000000000E+00  0.00000000000E+00  0.10142360939E+03  0.10142360939E+03  0.00000000000E+00 0.  1.
         13   -1    0    0    0    0 -0.00000000000E+00 -0.00000000000E+00 -0.10000000000E+04  0.10000000000E+04  0.00000000000E+00 0.  1.
    9000005    2    1    2  501    0  0.62833724144E-04 -0.20606093487E-03 -0.89857634497E+03  0.11014233892E+04  0.63694115466E+03 0.  0.
         13    1    3    3    0    0 -0.28315736578E+03 -0.10059643611E+03 -0.26689016027E+03  0.40190557897E+03  0.00000000000E+00 0.  1.
          3    1    3    3  501    0  0.28315742861E+03  0.10059623005E+03 -0.63168618470E+03  0.69951781022E+03  0.00000000000E+00 0.  1.
         21    1    1    2  502  501 -0.62833724110E-04  0.20606093488E-03 -0.45638305919E-04  0.22020908414E-03  0.00000000000E+00 0. -1.
<mgrwt>
<rscale>  1 0.63694115E+03</rscale>
<asrwt>0</asrwt>
<pdfrwt beam="1">  1        1 0.36881390E+00 0.63694115E+03</pdfrwt>
<pdfrwt beam="2">0</pdfrwt>
<totfact> 0.18423256E+00</totfact>
</mgrwt>
</event>
<event>
 6    1  0.8983908E-003  0.6652894E+03  0.7818608E-02  0.9778505E-01
          1   -1    0    0  502    0  0.00000000000E+00  0.00000000000E+00  0.11066763143E+03  0.11066763143E+03  0.00000000000E+00 0.  1.
         13   -1    0    0    0    0 -0.00000000000E+00 -0.00000000000E+00 -0.10000000000E+04  0.10000000000E+04  0.00000000000E+00 0.  1.
    9000005    2    1    2  501    0  0.22523551303E-03 -0.23944855542E-04 -0.88934748926E+03  0.11106525090E+04  0.66528944016E+03 0.  0.
         13    1    3    3    0    0  0.24015210349E+03 -0.20803600056E+03 -0.28024958588E+03  0.42366477400E+03  0.00000000000E+00 0.  1.
          1    1    3    3  501    0 -0.24015187826E+03  0.20803597662E+03 -0.60909790338E+03  0.68698773504E+03  0.00000000000E+00 0.  1.
         21    1    1    2  502  501 -0.22523551304E-03  0.23944855560E-04  0.15120689758E-01  0.15122386159E-01  0.00000000000E+00 0.  1.
<mgrwt>
<rscale>  1 0.66528944E+03</rscale>
<asrwt>0</asrwt>
<pdfrwt beam="1">  1        1 0.40242860E+00 0.66528944E+03</pdfrwt>
<pdfrwt beam="2">0</pdfrwt>
<totfact> 0.13011459E+00</totfact>
</mgrwt>
</event>
<event>
 6    1  0.8983908E-003  0.6520421E+03  0.7818608E-02  0.9802955E-01
          1   -1    0    0  502    0  0.00000000000E+00  0.00000000000E+00  0.10650077640E+03  0.10650077640E+03  0.00000000000E+00 0.  1.
         13   -1    0    0    0    0 -0.00000000000E+00 -0.00000000000E+00 -0.10000000000E+04  0.10000000000E+04  0.00000000000E+00 0.  1.
    9000005    2    1    2  501    0 -0.11532217227E-01  0.89431072265E-02 -0.89371000511E+03  0.11062894903E+04  0.65204207142E+03 0.  0.
         13    1    3    3    0    0  0.16437815020E+03 -0.13003972790E+03 -0.23173595894E+02  0.21087323833E+03  0.00000000000E+00 0.  1.
          1    1    3    3  501    0 -0.16438968242E+03  0.13004867101E+03 -0.87053640922E+03  0.89541625197E+03  0.00000000000E+00 0.  1.
         21    1    1    2  502  501  0.11532217227E-01 -0.89431072265E-02  0.21078150703E+00  0.21128609729E+00  0.00000000000E+00 0. -1.
<mgrwt>
<rscale>  1 0.65204207E+03</rscale>
<asrwt>0</asrwt>
<pdfrwt beam="1">  1        1 0.38727637E+00 0.65204207E+03</pdfrwt>
<pdfrwt beam="2">0</pdfrwt>
<totfact> 0.15232585E+00</totfact>
</mgrwt>
</event>
<event>
 6    1  0.8983908E-003  0.6565787E+03  0.7818608E-02  0.9794513E-01
          1   -1    0    0  502    0  0.00000000000E+00  0.00000000000E+00  0.10777551218E+03  0.10777551218E+03  0.00000000000E+00 0.  1.
         13   -1    0    0    0    0 -0.00000000000E+00 -0.00000000000E+00 -0.10000000000E+04  0.10000000000E+04  0.00000000000E+00 0.  1.
    9000005    2    1    2  501    0  0.56872617321E-04 -0.45718409638E-04 -0.89222611534E+03  0.11077738830E+04  0.65657865867E+03 0.  0.
         13    1    3    3    0    0  0.11386271296E+03  0.28438455548E+03 -0.64527728730E+03  0.71429830625E+03  0.00000000000E+00 0.  1.
          3    1    3    3  501    0 -0.11386265609E+03 -0.28438460120E+03 -0.24694882804E+03  0.39347557678E+03  0.00000000000E+00 0.  1.
         21    1    1    2  502  501 -0.56872617316E-04  0.45718409615E-04  0.16275219437E-02  0.16291569430E-02  0.00000000000E+00 0.  1.
<mgrwt>
<rscale>  1 0.65657866E+03</rscale>
<asrwt>0</asrwt>
<pdfrwt beam="1">  1        1 0.39191178E+00 0.65657866E+03</pdfrwt>
<pdfrwt beam="2">0</pdfrwt>
<totfact> 0.14516294E+00</totfact>
</mgrwt>
</event>
<event>
 6    1  0.8983908E-003  0.6433808E+03  0.7818608E-02  0.9819279E-01
          1   -1    0    0  502    0  0.00000000000E+00  0.00000000000E+00  0.10385056157E+03  0.10385056157E+03  0.00000000000E+00 0.  1.
         13   -1    0    0    0    0 -0.00000000000E+00 -0.00000000000E+00 -0.10000000000E+04  0.10000000000E+04  0.00000000000E+00 0.  1.
    9000005    2    1    2  501    0 -0.26010962548E-01  0.97873613001E-02 -0.89651469286E+03  0.11034842514E+04  0.64338083413E+03 0.  0.
         13    1    3    3    0    0 -0.23797755977E+02  0.31583205238E+03 -0.54486588483E+03  0.63023412391E+03  0.00000000000E+00 0.  1.
          1    1    3    3  501    0  0.23771745014E+02 -0.31582226502E+03 -0.35164880804E+03  0.47325012745E+03  0.00000000000E+00 0.  1.
         21    1    1    2  502  501  0.26010962548E-01 -0.97873613001E-02  0.36525443215E+00  0.36631020027E+00  0.00000000000E+00 0. -1.
<mgrwt>
<rscale>  1 0.64338083E+03</rscale>
<asrwt>0</asrwt>
<pdfrwt beam="1">  1        1 0.37763920E+00 0.64338083E+03</pdfrwt>
<pdfrwt beam="2">0</pdfrwt>
<totfact> 0.16828282E+00</totfact>
</mgrwt>
</event>
<event>
 6    1  0.8983908E-003  0.6494553E+03  0.7818608E-02  0.9807802E-01
          1   -1    0    0  502    0  0.00000000000E+00  0.00000000000E+00  0.10546081795E+03  0.10546081795E+03  0.00000000000E+00 0.  1.
         13   -1    0    0    0    0 -0.00000000000E+00 -0.00000000000E+00 -0.10000000000E+04  0.10000000000E+04  0.00000000000E+00 0.  1.
    9000005    2    1    2  501    0 -0.92937630935E-02  0.31919247654E-02 -0.89454981566E+03  0.11054463391E+04  0.64945533789E+03 0.  0.
         13    1    3    3    0    0  0.55862213552E+02 -0.14469765253E+03 -0.93286474052E+03  0.94567151890E+03  0.00000000000E+00 0.  1.
          3    1    3    3  501    0 -0.55871507315E+02  0.14470084445E+03  0.38314924858E+02  0.15977482024E+03  0.00000000000E+00 0.  1.
         21    1    1    2  502  501  0.92937630935E-02 -0.31919247654E-02  0.10633605201E-01  0.14478811267E-01  0.00000000000E+00 0. -1.
<mgrwt>
<rscale>  1 0.64945534E+03</rscale>
<asrwt>0</asrwt>
<pdfrwt beam="1">  1        1 0.38349469E+00 0.64945534E+03</pdfrwt>
<pdfrwt beam="2">0</pdfrwt>
<totfact> 0.15838413E+00</totfact>
</mgrwt>
</event>
