<event>
 6    1  0.4625859E-003  0.6369379E+03  0.7818608E-02  0.9831603E-01
          1   -1    0    0  502    0  0.00000000000E+00  0.00000000000E+00  0.10366742178E+03  0.10366742178E+03  0.00000000000E+00 0.  1.
         13   -1    0    0    0    0 -0.00000000000E+00 -0.00000000000E+00 -0.10000000000E+04  0.10000000000E+04  0.00000000000E+00 0.  1.
    9000005    2    1    2  501    0 -0.29050433345E-01 -0.98666938344E-02 -0.89857742691E+03  0.11014223635E+04  0.63693785382E+03 0.  0.
         13    1    3    3    0    0 -0.73473691776E+02 -0.14113523171E+03  0.27763757069E+02  0.16151892526E+03  0.00000000000E+00 0.  1.
          1    1    3    3  501    0  0.73444641342E+02  0.14112536501E+03 -0.92634118397E+03  0.93990343819E+03  0.00000000000E+00 0.  1.
         21    1    1    2  502  501  0.29050433345E-01  0.98666938344E-02  0.22448486808E+01  0.22450583242E+01  0.00000000000E+00 0.  1.
<mgrwt>
<rscale>  1 0.63693785E+03</rscale>
<asrwt>0</asrwt>
<pdfrwt beam="1">  1        1 0.37697324E+00 0.63693785E+03</pdfrwt>
<pdfrwt beam="2">0</pdfrwt>
<totfact> 0.16962495E+00</totfact>
</mgrwt>
</event>
<event>
 6    1  0.4625859E-003  0.6555821E+03  0.7818608E-02  0.9796361E-01
          1   -1    0    0  502    0  0.00000000000E+00  0.00000000000E+00  0.12388039801E+03  0.12388039801E+03  0.00000000000E+00 0.  1.
         13   -1    0    0    0    0 -0.00000000000E+00 -0.00000000000E+00 -0.10000000000E+04  0.10000000000E+04  0.00000000000E+00 0.  1.
    9000005    2    1    2  501    0  0.24599186772E+00  0.16797631245E-01 -0.89255199696E+03  0.11074461533E+04  0.65558207300E+03 0.  0.
         13    1    3    3    0    0  0.31294833504E+03  0.27078712902E+02 -0.60539282320E+03  0.68203400757E+03  0.00000000000E+00 0.  1.
          3    1    3    3  501    0 -0.31270234317E+03 -0.27061915270E+02 -0.28715917376E+03  0.42541214575E+03  0.00000000000E+00 0.  1.
         21    1    1    2  502  501 -0.24599186772E+00 -0.16797631245E-01  0.16432394964E+02  0.16434244686E+02  0.00000000000E+00 0.  1.
<mgrwt>
<rscale>  1 0.65558212E+03</rscale>
<asrwt>0</asrwt>
<pdfrwt beam="1">  1        1 0.45047512E+00 0.65558212E+03</pdfrwt>
<pdfrwt beam="2">0</pdfrwt>
<totfact> 0.78956738E-01</totfact>
</mgrwt>
</event>
<event>
 6    1  0.4625859E-003  0.6493982E+03  0.7818608E-02  0.9807909E-01
          1   -1    0    0  502    0  0.00000000000E+00  0.00000000000E+00  0.10543063037E+03  0.10543063037E+03  0.00000000000E+00 0.  1.
         13   -1    0    0    0    0 -0.00000000000E+00 -0.00000000000E+00 -0.10000000000E+04  0.10000000000E+04  0.00000000000E+00 0.  1.
    9000005    2    1    2  501    0  0.48881022380E-04  0.43301447903E-04 -0.89457049491E+03  0.11054295032E+04  0.64939819539E+03 0.  0.
         13    1    3    3    0    0 -0.12187663598E+03  0.68765037083E+02  0.51464203444E+02  0.14910100254E+03  0.00000000000E+00 0.  1.
          1    1    3    3  501    0  0.12187668486E+03 -0.68764993781E+02 -0.94603469835E+03  0.95632850066E+03  0.00000000000E+00 0.  1.
         21    1    1    2  502  501 -0.48881022372E-04 -0.43301447906E-04  0.11252828216E-02  0.11271760281E-02  0.00000000000E+00 0.  1.
<mgrwt>
<rscale>  1 0.64939820E+03</rscale>
<asrwt>0</asrwt>
<pdfrwt beam="1">  1        1 0.38338492E+00 0.64939820E+03</pdfrwt>
<pdfrwt beam="2">0</pdfrwt>
<totfact> 0.15856284E+00</totfact>
</mgrwt>
</event>
<event>
 6    1  0.4625859E-003  0.6417961E+03  0.7818608E-02  0.9822296E-01
          1   -1    0    0  502    0  0.00000000000E+00  0.00000000000E+00  0.10297574936E+03  0.10297574936E+03  0.00000000000E+00 0.  1.
         13   -1    0    0    0    0 -0.00000000000E+00 -0.00000000000E+00 -0.10000000000E+04  0.10000000000E+04  0.00000000000E+00 0.  1.
    9000005    2    1    2  501    0 -0.30868772285E-05  0.12353366625E-03 -0.89702443402E+03  0.11029755282E+04  0.64179605846E+03 0.  0.
         13    1    3    3    0    0 -0.20020347863E+03 -0.24136236986E+03 -0.33146852992E+03  0.45629881960E+03  0.00000000000E+00 0.  1.
          1    1    3    3  501    0  0.20020347554E+03  0.24136249339E+03 -0.56555590410E+03  0.64667670864E+03  0.00000000000E+00 0.  1.
         21    1    1    2  502  501  0.30868772403E-05 -0.12353366624E-03  0.18337685357E-03  0.22112703573E-03  0.00000000000E+00 0. -1.
<mgrwt>
<rscale>  1 0.64179606E+03</rscale>
<asrwt>0</asrwt>
<pdfrwt beam="1">  1        1 0.37445806E+00 0.64179606E+03</pdfrwt>
<pdfrwt beam="2">0</pdfrwt>
<totfact> 0.17385022E+00</totfact>
</mgrwt>
</event>
<event>
 6    1  0.4625859E-003  0.6472615E+03  0.7818608E-02  0.9811931E-01
          1   -1    0    0  502    0  0.00000000000E+00  0.00000000000E+00  0.10473688923E+03  0.10473688923E+03  0.00000000000E+00 0.  1.
         13   -1    0    0    0    0 -0.00000000000E+00 -0.00000000000E+00 -0.10000000000E+04  0.10000000000E+04  0.00000000000E+00 0.  1.
    9000005    2    1    2  501    0 -0.13653950930E-05  0.11409325013E-06 -0.89526312947E+03  0.11047368705E+04  0.64726152519E+03 0.  0.
         13    1    3    3    0    0  0.12555145936E+03 -0.33401574502E+00 -0.95673920299E+03  0.96494206202E+03  0.00000000000E+00 0.  1.
          1    1    3    3  501    0 -0.12555146073E+03  0.33401585911E+00  0.61476073512E+02  0.13979480846E+03  0.00000000000E+00 0.  1.
         21    1    1    2  502  501  0.13653950886E-05 -0.11409325016E-06  0.18703063805E-04  0.18753184175E-04  0.00000000000E+00 0. -1.
<mgrwt>
<rscale>  1 0.64726153E+03</rscale>
<asrwt>0</asrwt>
<pdfrwt beam="1">  1        1 0.38086222E+00 0.64726153E+03</pdfrwt>
<pdfrwt beam="2">0</pdfrwt>
<totfact> 0.16274765E+00</totfact>
</mgrwt>
</event>
<event>
 6    1  0.4625859E-003  0.5048205E+03  0.7818608E-02  0.1012528E+00
          1   -1    0    0  502    0  0.00000000000E+00  0.00000000000E+00  0.63832644340E+02  0.63832644340E+02  0.00000000000E+00 0.  1.
         13   -1    0    0    0    0 -0.00000000000E+00 -0.00000000000E+00 -0.10000000000E+04  0.10000000000E+04  0.00000000000E+00 0.  1.
    9000005    2    1    2  501    0  0.41954478537E-02  0.48186440993E-01 -0.93628395082E+03  0.10637064145E+04  0.50482046057E+03 0.  0.
         13    1    3    3    0    0 -0.12156201493E+03  0.82302642182E+02 -0.35489148634E+02  0.15103154655E+03  0.00000000000E+00 0.  1.
          1    1    3    3  501    0  0.12156621037E+03 -0.82254455741E+02 -0.90079480218E+03  0.91267486798E+03  0.00000000000E+00 0.  1.
         21    1    1    2  502  501 -0.41954478537E-02 -0.48186440993E-01  0.11659515671E+00  0.12622981203E+00  0.00000000000E+00 0.  1.
<mgrwt>
<rscale>  1 0.50482046E+03</rscale>
<asrwt>0</asrwt>
<pdfrwt beam="1">  1        1 0.23211920E+00 0.50482046E+03</pdfrwt>
<pdfrwt beam="2">0</pdfrwt>
<totfact> 0.73874597E+00</totfact>
</mgrwt>
</event>
<event>
 6    1  0.4625859E-003  0.6308437E+03  0.7818608E-02  0.9843404E-01
          1   -1    0    0  502    0  0.00000000000E+00  0.00000000000E+00  0.99644746972E+02  0.99644746972E+02  0.00000000000E+00 0.  1.
         13   -1    0    0    0    0 -0.00000000000E+00 -0.00000000000E+00 -0.10000000000E+04  0.10000000000E+04  0.00000000000E+00 0.  1.
    9000005    2    1    2  501    0  0.41297391331E-02  0.51333620868E-02 -0.90050898291E+03  0.10994908760E+04  0.63084368748E+03 0.  0.
         13    1    3    3    0    0  0.18436387375E+03  0.54615703490E+02 -0.88604570080E+03  0.90666967354E+03  0.00000000000E+00 0.  1.
          3    1    3    3  501    0 -0.18435974401E+03 -0.54610570128E+02 -0.14463282104E+02  0.19282120244E+03  0.00000000000E+00 0.  1.
         21    1    1    2  502  501 -0.41297391331E-02 -0.51333620868E-02  0.15372987750E+00  0.15387098943E+00  0.00000000000E+00 0. -1.
<mgrwt>
<rscale>  1 0.63084369E+03</rscale>
<asrwt>0</asrwt>
<pdfrwt beam="1">  1        1 0.36234530E+00 0.63084369E+03</pdfrwt>
<pdfrwt beam="2">0</pdfrwt>
<totfact> 0.19688003E+00</totfact>
</mgrwt>
</event>
<event>
 6    1  0.4625859E-003  0.6520737E+03  0.7818608E-02  0.9802896E-01
          1   -1    0    0  502    0  0.00000000000E+00  0.00000000000E+00  0.10630021489E+03  0.10630021489E+03  0.00000000000E+00 0.  1.
         13   -1    0    0    0    0 -0.00000000000E+00 -0.00000000000E+00 -0.10000000000E+04  0.10000000000E+04  0.00000000000E+00 0.  1.
    9000005    2    1    2  501    0 -0.18049723016E-03  0.10638811293E-03 -0.89369991478E+03  0.11062999685E+04  0.65207367882E+03 0.  0.
         13    1    3    3    0    0 -0.40842073450E+02  0.15466014209E+03 -0.92884868793E+03  0.94252199953E+03  0.00000000000E+00 0.  1.
          1    1    3    3  501    0  0.40841892953E+02 -0.15466003570E+03  0.35148773155E+02  0.16377796896E+03  0.00000000000E+00 0.  1.
         21    1    1    2  502  501  0.18049723016E-03 -0.10638811292E-03  0.12966618543E-03  0.24639602332E-03  0.00000000000E+00 0. -1.
<mgrwt>
<rscale>  1 0.65207368E+03</rscale>
<asrwt>0</asrwt>
<pdfrwt beam="1">  1        1 0.38654705E+00 0.65207368E+03</pdfrwt>
<pdfrwt beam="2">0</pdfrwt>
<totfact> 0.15346176E+00</totfact>
</mgrwt>
</event>
<event>
 6    1  0.4625859E-003  0.6558761E+03  0.7818608E-02  0.9795815E-01
          1   -1    0    0  502    0  0.00000000000E+00  0.00000000000E+00  0.10754585687E+03  0.10754585687E+03  0.00000000000E+00 0.  1.
         13   -1    0    0    0    0 -0.00000000000E+00 -0.00000000000E+00 -0.10000000000E+04  0.10000000000E+04  0.00000000000E+00 0.  1.
    9000005    2    1    2  501    0  0.13981658054E-03  0.35291750279E-03 -0.89245661575E+03  0.11075433553E+04  0.65587611090E+03 0.  0.
         13    1    3    3    0    0  0.30291328404E+03 -0.10308340598E+03 -0.56753770658E+03  0.65152259717E+03  0.00000000000E+00 0.  1.
          3    1    3    3  501    0 -0.30291314423E+03  0.10308375889E+03 -0.32491890917E+03  0.45602075811E+03  0.00000000000E+00 0.  1.
         21    1    1    2  502  501 -0.13981658053E-03 -0.35291750278E-03  0.24726158774E-02  0.25015852409E-02  0.00000000000E+00 0. -1.
<mgrwt>
<rscale>  1 0.65587611E+03</rscale>
<asrwt>0</asrwt>
<pdfrwt beam="1">  1        1 0.39107667E+00 0.65587611E+03</pdfrwt>
<pdfrwt beam="2">0</pdfrwt>
<totfact> 0.14642624E+00</totfact>
</mgrwt>
</event>
<event>
 6    1  0.4625859E-003  0.6446038E+03  0.7818608E-02  0.9816958E-01
          1   -1    0    0  502    0  0.00000000000E+00  0.00000000000E+00  0.10391647844E+03  0.10391647844E+03  0.00000000000E+00 0.  1.
         13   -1    0    0    0    0 -0.00000000000E+00 -0.00000000000E+00 -0.10000000000E+04  0.10000000000E+04  0.00000000000E+00 0.  1.
    9000005    2    1    2  501    0  0.18944101646E-01  0.20620256504E-01 -0.89611570831E+03  0.11038738163E+04  0.64460378434E+03 0.  0.
         13    1    3    3    0    0  0.91099939521E+02 -0.19523554737E+03 -0.37556129172E+02  0.21869289146E+03  0.00000000000E+00 0.  1.
          1    1    3    3  501    0 -0.91080995420E+02  0.19525616763E+03 -0.85855957914E+03  0.88518092481E+03  0.00000000000E+00 0.  1.
         21    1    1    2  502  501 -0.18944101646E-01 -0.20620256504E-01  0.32186749907E-01  0.42662171008E-01  0.00000000000E+00 0.  1.
<mgrwt>
<rscale>  1 0.64460378E+03</rscale>
<asrwt>0</asrwt>
<pdfrwt beam="1">  1        1 0.37787890E+00 0.64460378E+03</pdfrwt>
<pdfrwt beam="2">0</pdfrwt>
<totfact> 0.16783629E+00</totfact>
</mgrwt>
</event>
<event>
 6    1  0.4625859E-003  0.6556362E+03  0.7818608E-02  0.9796260E-01
          1   -1    0    0  502    0  0.00000000000E+00  0.00000000000E+00  0.10747313265E+03  0.10747313265E+03  0.00000000000E+00 0.  1.
         13   -1    0    0    0    0 -0.00000000000E+00 -0.00000000000E+00 -0.10000000000E+04  0.10000000000E+04  0.00000000000E+00 0.  1.
    9000005    2    1    2  501    0 -0.10319612301E-01  0.18437306543E-02 -0.89253152756E+03  0.11074616605E+04  0.65563618081E+03 0.  0.
         13    1    3    3    0    0 -0.82552247477E+02  0.19802062715E+03 -0.86495330399E+03  0.89116286975E+03  0.00000000000E+00 0.  1.
          1    1    3    3  501    0  0.82541927865E+02 -0.19801878342E+03 -0.27578223562E+02  0.21629879070E+03  0.00000000000E+00 0.  1.
         21    1    1    2  502  501  0.10319612301E-01 -0.18437306543E-02  0.46602042639E-02  0.11472194409E-01  0.00000000000E+00 0. -1.
<mgrwt>
<rscale>  1 0.65563618E+03</rscale>
<asrwt>0</asrwt>
<pdfrwt beam="1">  1        1 0.39081222E+00 0.65563618E+03</pdfrwt>
<pdfrwt beam="2">0</pdfrwt>
<totfact> 0.14682893E+00</totfact>
</mgrwt>
</event>
<event>
 6    1  0.4625859E-003  0.6465898E+03  0.7818608E-02  0.9813199E-01
          1   -1    0    0  502    0  0.00000000000E+00  0.00000000000E+00  0.10451977074E+03  0.10451977074E+03  0.00000000000E+00 0.  1.
         13   -1    0    0    0    0 -0.00000000000E+00 -0.00000000000E+00 -0.10000000000E+04  0.10000000000E+04  0.00000000000E+00 0.  1.
    9000005    2    1    2  501    0 -0.23582607469E-04  0.64043244095E-05 -0.89548040429E+03  0.11045195940E+04  0.64658980743E+03 0.  0.
         13    1    3    3    0    0 -0.28608458625E+03 -0.89057628548E+02 -0.65516062328E+03  0.72042424584E+03  0.00000000000E+00 0.  1.
          3    1    3    3  501    0  0.28608456267E+03  0.89057634953E+02 -0.24031978101E+03  0.38409534817E+03  0.00000000000E+00 0.  1.
         21    1    1    2  502  501  0.23582607500E-04 -0.64043244074E-05  0.17503686563E-03  0.17673443093E-03  0.00000000000E+00 0. -1.
<mgrwt>
<rscale>  1 0.64658981E+03</rscale>
<asrwt>0</asrwt>
<pdfrwt beam="1">  1        1 0.38007270E+00 0.64658981E+03</pdfrwt>
<pdfrwt beam="2">0</pdfrwt>
<totfact> 0.16407890E+00</totfact>
</mgrwt>
</event>
<event>
 6    1  0.4625859E-003  0.6508563E+03  0.7818608E-02  0.9805174E-01
          1   -1    0    0  502    0  0.00000000000E+00  0.00000000000E+00  0.10590350191E+03  0.10590350191E+03  0.00000000000E+00 0.  1.
         13   -1    0    0    0    0 -0.00000000000E+00 -0.00000000000E+00 -0.10000000000E+04  0.10000000000E+04  0.00000000000E+00 0.  1.
    9000005    2    1    2  501    0  0.25208269392E-05 -0.22153925542E-04 -0.89409650555E+03  0.11059034784E+04  0.65085631464E+03 0.  0.
         13    1    3    3    0    0  0.15487343191E+02 -0.70000343589E+02  0.92318156400E+02  0.11688690219E+03  0.00000000000E+00 0.  1.
          3    1    3    3  501    0 -0.15487340671E+02  0.70000321435E+02 -0.98641466195E+03  0.98901657621E+03  0.00000000000E+00 0.  1.
         21    1    1    2  502  501 -0.25208269384E-05  0.22153925548E-04  0.74555087358E-05  0.23510329563E-04  0.00000000000E+00 0. -1.
<mgrwt>
<rscale>  1 0.65085631E+03</rscale>
<asrwt>0</asrwt>
<pdfrwt beam="1">  1        1 0.38510446E+00 0.65085631E+03</pdfrwt>
<pdfrwt beam="2">0</pdfrwt>
<totfact> 0.15576918E+00</totfact>
</mgrwt>
</event>
<event>
 6    1  0.4625859E-003  0.6536724E+03  0.7818608E-02  0.9799912E-01
          1   -1    0    0  502    0  0.00000000000E+00  0.00000000000E+00  0.10682192844E+03  0.10682192844E+03  0.00000000000E+00 0.  1.
         13   -1    0    0    0    0 -0.00000000000E+00 -0.00000000000E+00 -0.10000000000E+04  0.10000000000E+04  0.00000000000E+00 0.  1.
    9000005    2    1    2  501    0  0.50029918697E-04  0.10585351646E-04 -0.89317806321E+03  0.11068218766E+04  0.65367240571E+03 0.  0.
         13    1    3    3    0    0  0.79612416576E+02  0.20534102449E+03 -0.37684433553E+02  0.22343497879E+03  0.00000000000E+00 0.  1.
          3    1    3    3  501    0 -0.79612366546E+02 -0.20534101391E+03 -0.85549362966E+03  0.88338689785E+03  0.00000000000E+00 0.  1.
         21    1    1    2  502  501 -0.50029918696E-04 -0.10585351641E-04 -0.83448666454E-05  0.51813890352E-04  0.00000000000E+00 0.  1.
<mgrwt>
<rscale>  1 0.65367241E+03</rscale>
<asrwt>0</asrwt>
<pdfrwt beam="1">  1        1 0.38844420E+00 0.65367241E+03</pdfrwt>
<pdfrwt beam="2">0</pdfrwt>
<totfact> 0.15047673E+00</totfact>
</mgrwt>
</event>
<event>
 6    1  0.4625859E-003  0.6447832E+03  0.7818608E-02  0.9816618E-01
          1   -1    0    0  502    0  0.00000000000E+00  0.00000000000E+00  0.10400577601E+03  0.10400577601E+03  0.00000000000E+00 0.  1.
         13   -1    0    0    0    0 -0.00000000000E+00 -0.00000000000E+00 -0.10000000000E+04  0.10000000000E+04  0.00000000000E+00 0.  1.
    9000005    2    1    2  501    0  0.29656381977E-02 -0.65087063451E-02 -0.89606345156E+03  0.11039361799E+04  0.64478320395E+03 0.  0.
         13    1    3    3    0    0 -0.19783136334E+03 -0.75144262311E+02 -0.31626250613E+02  0.21397226037E+03  0.00000000000E+00 0.  1.
          1    1    3    3  501    0  0.19783432898E+03  0.75137753605E+02 -0.86443720094E+03  0.88996391956E+03  0.00000000000E+00 0.  1.
         21    1    1    2  502  501 -0.29656381977E-02  0.65087063451E-02  0.69227563574E-01  0.69596076230E-01  0.00000000000E+00 0.  1.
<mgrwt>
<rscale>  1 0.64478320E+03</rscale>
<asrwt>0</asrwt>
<pdfrwt beam="1">  1        1 0.37820362E+00 0.64478320E+03</pdfrwt>
<pdfrwt beam="2">0</pdfrwt>
<totfact> 0.16727852E+00</totfact>
</mgrwt>
</event>
<event>
 6    1  0.4625859E-003  0.6408883E+03  0.7818608E-02  0.9824028E-01
          1   -1    0    0  502    0  0.00000000000E+00  0.00000000000E+00  0.10280013753E+03  0.10280013753E+03  0.00000000000E+00 0.  1.
         13   -1    0    0    0    0 -0.00000000000E+00 -0.00000000000E+00 -0.10000000000E+04  0.10000000000E+04  0.00000000000E+00 0.  1.
    9000005    2    1    2  501    0 -0.79474450761E-01 -0.78501893915E-01 -0.89728504387E+03  0.11026596576E+04  0.64088833513E+03 0.  0.
         13    1    3    3    0    0 -0.56630251908E+02 -0.16449601246E+02 -0.99058454539E+03  0.99233830742E+03  0.00000000000E+00 0.  1.
          3    1    3    3  501    0  0.56550777457E+02  0.16371099352E+02  0.93299501522E+02  0.11032135020E+03  0.00000000000E+00 0.  1.
         21    1    1    2  502  501  0.79474450761E-01  0.78501893915E-01  0.85181395385E-01  0.14047991241E+00  0.00000000000E+00 0. -1.
<mgrwt>
<rscale>  1 0.64088834E+03</rscale>
<asrwt>0</asrwt>
<pdfrwt beam="1">  1        1 0.37381947E+00 0.64088834E+03</pdfrwt>
<pdfrwt beam="2">0</pdfrwt>
<totfact> 0.17500769E+00</totfact>
</mgrwt>
</event>
<event>
 6    1  0.4625859E-003  0.6414221E+03  0.7818608E-02  0.9823010E-01
          1   -1    0    0  502    0  0.00000000000E+00  0.00000000000E+00  0.10285557543E+03  0.10285557543E+03  0.00000000000E+00 0.  1.
         13   -1    0    0    0    0 -0.00000000000E+00 -0.00000000000E+00 -0.10000000000E+04  0.10000000000E+04  0.00000000000E+00 0.  1.
    9000005    2    1    2  501    0 -0.10609447159E-04 -0.55169932835E-05 -0.89714443366E+03  0.11028555604E+04  0.64142205472E+03 0.  0.
         13    1    3    3    0    0  0.41659386403E+02  0.11934406607E+03  0.58216908008E+02  0.13916795235E+03  0.00000000000E+00 0.  1.
          1    1    3    3  501    0 -0.41659397012E+02 -0.11934407159E+03 -0.95536134167E+03  0.96368760806E+03  0.00000000000E+00 0.  1.
         21    1    1    2  502  501  0.10609447157E-04  0.55169932872E-05  0.90908913674E-05  0.15021381087E-04  0.00000000000E+00 0. -1.
<mgrwt>
<rscale>  1 0.64142205E+03</rscale>
<asrwt>0</asrwt>
<pdfrwt beam="1">  1        1 0.37402106E+00 0.64142205E+03</pdfrwt>
<pdfrwt beam="2">0</pdfrwt>
<totfact> 0.17463361E+00</totfact>
</mgrwt>
</event>
<event>
 6    1  0.4625859E-003  0.6522633E+03  0.7818608E-02  0.9802541E-01
          1   -1    0    0  502    0  0.00000000000E+00  0.00000000000E+00  0.10759916950E+03  0.10759916950E+03  0.00000000000E+00 0.  1.
         13   -1    0    0    0    0 -0.00000000000E+00 -0.00000000000E+00 -0.10000000000E+04  0.10000000000E+04  0.00000000000E+00 0.  1.
    9000005    2    1    2  501    0  0.19189961410E+01 -0.20103616003E+00 -0.89274363047E+03  0.11056394569E+04  0.65226045098E+03 0.  0.
         13    1    3    3    0    0  0.30839736542E+03  0.76281334966E+02 -0.31617354172E+03  0.44821142952E+03  0.00000000000E+00 0.  1.
          1    1    3    3  501    0 -0.30647836928E+03 -0.76482371126E+02 -0.57657008875E+03  0.65742802737E+03  0.00000000000E+00 0.  1.
         21    1    1    2  502  501 -0.19189961410E+01  0.20103616003E+00  0.34279996830E+00  0.19597126179E+01  0.00000000000E+00 0. -1.
<mgrwt>
<rscale>  1 0.65226330E+03</rscale>
<asrwt>0</asrwt>
<pdfrwt beam="1">  1        1 0.39127053E+00 0.65226330E+03</pdfrwt>
<pdfrwt beam="2">0</pdfrwt>
<totfact> 0.14623474E+00</totfact>
</mgrwt>
</event>
<event>
 6    1  0.4625859E-003  0.6471816E+03  0.7818608E-02  0.9812082E-01
          1   -1    0    0  502    0  0.00000000000E+00  0.00000000000E+00  0.10471290826E+03  0.10471290826E+03  0.00000000000E+00 0.  1.
         13   -1    0    0    0    0 -0.00000000000E+00 -0.00000000000E+00 -0.10000000000E+04  0.10000000000E+04  0.00000000000E+00 0.  1.
    9000005    2    1    2  501    0 -0.55133452463E-04 -0.69057648489E-04 -0.89528898447E+03  0.11047110135E+04  0.64718162641E+03 0.  0.
         13    1    3    3    0    0 -0.14457494471E+03  0.15688484507E+03 -0.32337177293E+02  0.21577873455E+03  0.00000000000E+00 0.  1.
          1    1    3    3  501    0  0.14457488958E+03 -0.15688491413E+03 -0.86295180718E+03  0.88893227891E+03  0.00000000000E+00 0.  1.
         21    1    1    2  502  501  0.55133452450E-04  0.69057648493E-04  0.18927346005E-02  0.18947962751E-02  0.00000000000E+00 0.  1.
<mgrwt>
<rscale>  1 0.64718163E+03</rscale>
<asrwt>0</asrwt>
<pdfrwt beam="1">  1        1 0.38077501E+00 0.64718163E+03</pdfrwt>
<pdfrwt beam="2">0</pdfrwt>
<totfact> 0.16289435E+00</totfact>
</mgrwt>
</event>
<event>
 6    1  0.4625859E-003  0.6474236E+03  0.7818608E-02  0.9811626E-01
          1   -1    0    0  502    0  0.00000000000E+00  0.00000000000E+00  0.10484248932E+03  0.10484248932E+03  0.00000000000E+00 0.  1.
         13   -1    0    0    0    0 -0.00000000000E+00 -0.00000000000E+00 -0.10000000000E+04  0.10000000000E+04  0.00000000000E+00 0.  1.
    9000005    2    1    2  501    0  0.12754491959E-01 -0.11808925467E-01 -0.89520908490E+03  0.11047880648E+04  0.64742363422E+03 0.  0.
         13    1    3    3    0    0  0.89082305155E+02  0.12030667179E+02  0.83065101446E+02  0.12239364821E+03  0.00000000000E+00 0.  1.
          1    1    3    3  501    0 -0.89069550663E+02 -0.12042476104E+02 -0.97827418634E+03  0.98239441659E+03  0.00000000000E+00 0.  1.
         21    1    1    2  502  501 -0.12754491959E-01  0.11808925467E-01  0.51574213524E-01  0.54424509979E-01  0.00000000000E+00 0. -1.
<mgrwt>
<rscale>  1 0.64742363E+03</rscale>
<asrwt>0</asrwt>
<pdfrwt beam="1">  1        1 0.38124622E+00 0.64742363E+03</pdfrwt>
<pdfrwt beam="2">0</pdfrwt>
<totfact> 0.16210880E+00</totfact>
</mgrwt>
</event>
<event>
 6    1  0.4625859E-003  0.6467366E+03  0.7818608E-02  0.9812922E-01
          1   -1    0    0  502    0  0.00000000000E+00  0.00000000000E+00  0.10480334319E+03  0.10480334319E+03  0.00000000000E+00 0.  1.
         13   -1    0    0    0    0 -0.00000000000E+00 -0.00000000000E+00 -0.10000000000E+04  0.10000000000E+04  0.00000000000E+00 0.  1.
    9000005    2    1    2  501    0  0.41863455930E+00 -0.56608325197E+00 -0.89385611405E+03  0.11032891569E+04  0.64673620239E+03 0.  0.
         13    1    3    3    0    0 -0.16464872679E+03  0.23692667265E+03 -0.19857276529E+03  0.35024933199E+03  0.00000000000E+00 0.  1.
          3    1    3    3  501    0  0.16506736135E+03 -0.23749275590E+03 -0.69528334876E+03  0.75303982495E+03  0.00000000000E+00 0.  1.
         21    1    1    2  502  501 -0.41863455930E+00  0.56608325197E+00 -0.13405427532E+01  0.15141862552E+01  0.00000000000E+00 0. -1.
<mgrwt>
<rscale>  1 0.64673659E+03</rscale>
<asrwt>0</asrwt>
<pdfrwt beam="1">  1        1 0.38110387E+00 0.64673659E+03</pdfrwt>
<pdfrwt beam="2">0</pdfrwt>
<totfact> 0.16236407E+00</totfact>
</mgrwt>
</event>
<event>
 6    1  0.4866232E-003  0.6617262E+03  0.7818608E-02  0.9785021E-01
          1   -1    0    0  502    0  0.00000000000E+00  0.00000000000E+00  0.10947042905E+03  0.10947042905E+03  0.00000000000E+00 0.  1.
         13   -1    0    0    0    0 -0.00000000000E+00 -0.00000000000E+00 -0.10000000000E+04  0.10000000000E+04  0.00000000000E+00 0.  1.
    9000005    2    1    2  501    0 -0.39710311569E-04 -0.58374601224E-05 -0.89052958747E+03  0.11094703856E+04  0.66172622018E+03 0.  0.
         13    1    3    3    0    0 -0.22719684323E+03  0.16814310671E+03 -0.15690436280E+03  0.32327927396E+03  0.00000000000E+00 0.  1.
          3    1    3    3  501    0  0.22719680352E+03 -0.16814311254E+03 -0.73362522467E+03  0.78619111169E+03  0.00000000000E+00 0.  1.
         21    1    1    2  502  501  0.39710311577E-04  0.58374601348E-05  0.16512731749E-04  0.43401095564E-04  0.00000000000E+00 0. -1.
<mgrwt>
<rscale>  1 0.66172622E+03</rscale>
<asrwt>0</asrwt>
<pdfrwt beam="1">  1        1 0.39807513E+00 0.66172622E+03</pdfrwt>
<pdfrwt beam="2">0</pdfrwt>
<totfact> 0.13615451E+00</totfact>
</mgrwt>
</event>
<event>
 6    1  0.4625859E-003  0.6450646E+03  0.7818608E-02  0.9816084E-01
          1   -1    0    0  502    0  0.00000000000E+00  0.00000000000E+00  0.10423571116E+03  0.10423571116E+03  0.00000000000E+00 0.  1.
         13   -1    0    0    0    0 -0.00000000000E+00 -0.00000000000E+00 -0.10000000000E+04  0.10000000000E+04  0.00000000000E+00 0.  1.
    9000005    2    1    2  501    0 -0.94437889954E-02  0.16932472444E-01 -0.89597242099E+03  0.11040266779E+04  0.64506459061E+03 0.  0.
         13    1    3    3    0    0  0.69606713188E+02 -0.27919909838E+03 -0.69731621778E+03  0.75435213173E+03  0.00000000000E+00 0.  1.
          1    1    3    3  501    0 -0.69616156977E+02  0.27921603085E+03 -0.19865620321E+03  0.34967454622E+03  0.00000000000E+00 0.  1.
         21    1    1    2  502  501  0.94437889954E-02 -0.16932472444E-01  0.20813215161E+00  0.20903321819E+00  0.00000000000E+00 0.  1.
<mgrwt>
<rscale>  1 0.64506459E+03</rscale>
<asrwt>0</asrwt>
<pdfrwt beam="1">  1        1 0.37903975E+00 0.64506459E+03</pdfrwt>
<pdfrwt beam="2">0</pdfrwt>
<totfact> 0.16585594E+00</totfact>
</mgrwt>
</event>
<event>
 6    1  0.4625859E-003  0.6424304E+03  0.7818608E-02  0.9821088E-01
          1   -1    0    0  502    0  0.00000000000E+00  0.00000000000E+00  0.10317934381E+03  0.10317934381E+03  0.00000000000E+00 0.  1.
         13   -1    0    0    0    0 -0.00000000000E+00 -0.00000000000E+00 -0.10000000000E+04  0.10000000000E+04  0.00000000000E+00 0.  1.
    9000005    2    1    2  501    0 -0.53737500849E-04 -0.73852732214E-04 -0.89682079605E+03  0.11031791768E+04  0.64243035096E+03 0.  0.
         13    1    3    3    0    0  0.20979718597E+03 -0.16098414498E+03 -0.13529414604E+03  0.29704420568E+03  0.00000000000E+00 0.  1.
          3    1    3    3  501    0 -0.20979723970E+03  0.16098407113E+03 -0.76152665001E+03  0.80613497109E+03  0.00000000000E+00 0.  1.
         21    1    1    2  502  501  0.53737500851E-04  0.73852732204E-04  0.13985899585E-03  0.16704036569E-03  0.00000000000E+00 0. -1.
<mgrwt>
<rscale>  1 0.64243035E+03</rscale>
<asrwt>0</asrwt>
<pdfrwt beam="1">  1        1 0.37519841E+00 0.64243035E+03</pdfrwt>
<pdfrwt beam="2">0</pdfrwt>
<totfact> 0.17253064E+00</totfact>
</mgrwt>
</event>
<event>
 6    1  0.4625859E-003  0.6350665E+03  0.7818608E-02  0.9835211E-01
          1   -1    0    0  502    0  0.00000000000E+00  0.00000000000E+00  0.10082760099E+03  0.10082760099E+03  0.00000000000E+00 0.  1.
         13   -1    0    0    0    0 -0.00000000000E+00 -0.00000000000E+00 -0.10000000000E+04  0.10000000000E+04  0.00000000000E+00 0.  1.
    9000005    2    1    2  501    0 -0.30467850536E-04 -0.10001071992E-04 -0.89917262399E+03  0.11008273737E+04  0.63506653119E+03 0.  0.
         13    1    3    3    0    0  0.25894396449E+03 -0.41553295452E+02 -0.13926948694E+03  0.29694215447E+03  0.00000000000E+00 0.  1.
          1    1    3    3  501    0 -0.25894399496E+03  0.41553285451E+02 -0.75990313705E+03  0.80388521927E+03  0.00000000000E+00 0.  1.
         21    1    1    2  502  501  0.30467850557E-04  0.10001071986E-04  0.22498498857E-03  0.22725878738E-03  0.00000000000E+00 0.  1.
<mgrwt>
<rscale>  1 0.63506653E+03</rscale>
<asrwt>0</asrwt>
<pdfrwt beam="1">  1        1 0.36664659E+00 0.63506653E+03</pdfrwt>
<pdfrwt beam="2">0</pdfrwt>
<totfact> 0.18837505E+00</totfact>
</mgrwt>
</event>
<event>
 6    1  0.4625859E-003  0.6453049E+03  0.7818608E-02  0.9815629E-01
          1   -1    0    0  502    0  0.00000000000E+00  0.00000000000E+00  0.10489281318E+03  0.10489281318E+03  0.00000000000E+00 0.  1.
         13   -1    0    0    0    0 -0.00000000000E+00 -0.00000000000E+00 -0.10000000000E+04  0.10000000000E+04  0.00000000000E+00 0.  1.
    9000005    2    1    2  501    0 -0.13684110204E-01  0.43808589211E-02 -0.89589530999E+03  0.11041045590E+04  0.64530494392E+03 0.  0.
         13    1    3    3    0    0  0.36082845759E+02 -0.32040373556E+03 -0.42754090707E+03  0.53549206599E+03  0.00000000000E+00 0.  1.
          1    1    3    3  501    0 -0.36096529869E+02  0.32040811641E+03 -0.46835440292E+03  0.56861249306E+03  0.00000000000E+00 0.  1.
         21    1    1    2  502  501  0.13684110204E-01 -0.43808589211E-02  0.78812316424E+00  0.78825412705E+00  0.00000000000E+00 0.  1.
<mgrwt>
<rscale>  1 0.64530494E+03</rscale>
<asrwt>0</asrwt>
<pdfrwt beam="1">  1        1 0.38142922E+00 0.64530494E+03</pdfrwt>
<pdfrwt beam="2">0</pdfrwt>
<totfact> 0.16187070E+00</totfact>
</mgrwt>
</event>
<event>
 6    1  0.4625859E-003  0.6546764E+03  0.7818608E-02  0.9798044E-01
          1   -1    0    0  502    0  0.00000000000E+00  0.00000000000E+00  0.11500555051E+03  0.11500555051E+03  0.00000000000E+00 0.  1.
         13   -1    0    0    0    0 -0.00000000000E+00 -0.00000000000E+00 -0.10000000000E+04  0.10000000000E+04  0.00000000000E+00 0.  1.
    9000005    2    1    2  501    0  0.28497259586E+01  0.58503509601E+00 -0.89255038083E+03  0.11069089276E+04  0.65466993857E+03 0.  0.
         13    1    3    3    0    0 -0.24253601772E+03 -0.18288858631E+03 -0.64521179658E+03  0.71314109217E+03  0.00000000000E+00 0.  1.
          1    1    3    3  501    0  0.24538574368E+03  0.18347362141E+03 -0.24733858425E+03  0.39376783542E+03  0.00000000000E+00 0.  1.
         21    1    1    2  502  501 -0.28497259586E+01 -0.58503509601E+00  0.75559313431E+01  0.80966229111E+01  0.00000000000E+00 0. -1.
<mgrwt>
<rscale>  1 0.65467640E+03</rscale>
<asrwt>0</asrwt>
<pdfrwt beam="1">  1        1 0.41820288E+00 0.65467640E+03</pdfrwt>
<pdfrwt beam="2">0</pdfrwt>
<totfact> 0.11077910E+00</totfact>
</mgrwt>
</event>
<event>
 6    1  0.4625859E-003  0.6415467E+03  0.7818608E-02  0.9822772E-01
          1   -1    0    0  502    0  0.00000000000E+00  0.00000000000E+00  0.10289572507E+03  0.10289572507E+03  0.00000000000E+00 0.  1.
         13   -1    0    0    0    0 -0.00000000000E+00 -0.00000000000E+00 -0.10000000000E+04  0.10000000000E+04  0.00000000000E+00 0.  1.
    9000005    2    1    2  501    0  0.17255343607E-05 -0.30674467553E-05 -0.89710445514E+03  0.11028955448E+04  0.64154670864E+03 0.  0.
         13    1    3    3    0    0  0.12909963990E+03  0.26096000381E+03 -0.68001943585E+03  0.73972513391E+03  0.00000000000E+00 0.  1.
          1    1    3    3  501    0 -0.12909963817E+03 -0.26096000687E+03 -0.21708501929E+03  0.36317041092E+03  0.00000000000E+00 0.  1.
         21    1    1    2  502  501 -0.17255343768E-05  0.30674467271E-05  0.18020945379E-03  0.18024381801E-03  0.00000000000E+00 0. -1.
<mgrwt>
<rscale>  1 0.64154671E+03</rscale>
<asrwt>0</asrwt>
<pdfrwt beam="1">  1        1 0.37416706E+00 0.64154671E+03</pdfrwt>
<pdfrwt beam="2">0</pdfrwt>
<totfact> 0.17437152E+00</totfact>
</mgrwt>
</event>
<event>
 6    1  0.4625859E-003  0.6450672E+03  0.7818608E-02  0.9816080E-01
          1   -1    0    0  502    0  0.00000000000E+00  0.00000000000E+00  0.10403170246E+03  0.10403170246E+03  0.00000000000E+00 0.  1.
         13   -1    0    0    0    0 -0.00000000000E+00 -0.00000000000E+00 -0.10000000000E+04  0.10000000000E+04  0.00000000000E+00 0.  1.
    9000005    2    1    2  501    0 -0.12218197261E-02 -0.62195365300E-03 -0.89597194201E+03  0.11040278086E+04  0.64506719137E+03 0.  0.
         13    1    3    3    0    0 -0.38379268679E+02 -0.16431746580E+03 -0.91842851638E+03  0.93380090893E+03  0.00000000000E+00 0.  1.
          3    1    3    3  501    0  0.38378046859E+02  0.16431684384E+03  0.22456574367E+02  0.17022689971E+03  0.00000000000E+00 0.  1.
         21    1    1    2  502  501  0.12218197261E-02  0.62195365300E-03  0.36444660772E-02  0.38938159660E-02  0.00000000000E+00 0.  1.
<mgrwt>
<rscale>  1 0.64506719E+03</rscale>
<asrwt>0</asrwt>
<pdfrwt beam="1">  1        1 0.37829790E+00 0.64506719E+03</pdfrwt>
<pdfrwt beam="2">0</pdfrwt>
<totfact> 0.16710980E+00</totfact>
</mgrwt>
</event>
<event>
 6    1  0.4625859E-003  0.6655013E+03  0.7818608E-02  0.9778119E-01
          1   -1    0    0  502    0  0.00000000000E+00  0.00000000000E+00  0.11072425659E+03  0.11072425659E+03  0.00000000000E+00 0.  1.
         13   -1    0    0    0    0 -0.00000000000E+00 -0.00000000000E+00 -0.10000000000E+04  0.10000000000E+04  0.00000000000E+00 0.  1.
    9000005    2    1    2  501    0  0.17750862128E-04 -0.89835501797E-04 -0.88927700916E+03  0.11107229875E+04  0.66550128174E+03 0.  0.
         13    1    3    3    0    0 -0.27347094529E+03  0.17144513871E+03 -0.57964386386E+03  0.66345067821E+03  0.00000000000E+00 0.  1.
          3    1    3    3  501    0  0.27347096304E+03 -0.17144522855E+03 -0.30963314530E+03  0.44727230932E+03  0.00000000000E+00 0.  1.
         21    1    1    2  502  501 -0.17750862139E-04  0.89835501811E-04  0.12657524086E-02  0.12690605464E-02  0.00000000000E+00 0.  1.
<mgrwt>
<rscale>  1 0.66550128E+03</rscale>
<asrwt>0</asrwt>
<pdfrwt beam="1">  1        1 0.40263451E+00 0.66550128E+03</pdfrwt>
<pdfrwt beam="2">0</pdfrwt>
<totfact> 0.12983422E+00</totfact>
</mgrwt>
</event>
<event>
 6    1  0.4625859E-003  0.5636917E+03  0.7818608E-02  0.9983736E-01
          1   -1    0    0  502    0  0.00000000000E+00  0.00000000000E+00  0.79966363240E+02  0.79966363240E+02  0.00000000000E+00 0.  1.
         13   -1    0    0    0    0 -0.00000000000E+00 -0.00000000000E+00 -0.10000000000E+04  0.10000000000E+04  0.00000000000E+00 0.  1.
    9000005    2    1    2  501    0 -0.49925532572E-02 -0.18673384014E+00 -0.92054507540E+03  0.10794218782E+04  0.56369168917E+03 0.  0.
         13    1    3    3    0    0 -0.67733740881E+02  0.19994139770E+03 -0.81757106915E+03  0.84438550158E+03  0.00000000000E+00 0.  1.
          1    1    3    3  501    0  0.67728748327E+02 -0.20012813154E+03 -0.10297400626E+03  0.23503637664E+03  0.00000000000E+00 0.  1.
         21    1    1    2  502  501  0.49925532572E-02  0.18673384014E+00  0.51143864205E+00  0.54448502020E+00  0.00000000000E+00 0.  1.
<mgrwt>
<rscale>  1 0.56369172E+03</rscale>
<asrwt>0</asrwt>
<pdfrwt beam="1">  1        1 0.29078739E+00 0.56369172E+03</pdfrwt>
<pdfrwt beam="2">0</pdfrwt>
<totfact> 0.40693868E+00</totfact>
</mgrwt>
</event>
<event>
 6    1  0.4625859E-003  0.5599109E+03  0.7818608E-02  0.9992256E-01
          3   -1    0    0  502    0  0.00000000000E+00  0.00000000000E+00  0.78390054612E+02  0.78390054612E+02  0.00000000000E+00 0.  1.
         13   -1    0    0    0    0 -0.00000000000E+00 -0.00000000000E+00 -0.10000000000E+04  0.10000000000E+04  0.00000000000E+00 0.  1.
    9000005    2    1    2  501    0 -0.37144714781E-03 -0.18204228190E-02 -0.92162487528E+03  0.10783750096E+04  0.55991093088E+03 0.  0.
         13    1    3    3    0    0  0.23433722599E+03 -0.76353925654E+01 -0.75544723883E+03  0.79099479477E+03  0.00000000000E+00 0.  1.
          1    1    3    3  501    0 -0.23433759744E+03  0.76335721425E+01 -0.16617763645E+03  0.28738021479E+03  0.00000000000E+00 0.  1.
         21    1    1    2  502  501  0.37144714782E-03  0.18204228190E-02  0.14929888734E-01  0.15045048682E-01  0.00000000000E+00 0. -1.
<mgrwt>
<rscale>  1 0.55991093E+03</rscale>
<asrwt>0</asrwt>
<pdfrwt beam="1">  1        3 0.28505535E+00 0.55991093E+03</pdfrwt>
<pdfrwt beam="2">0</pdfrwt>
<totfact> 0.24680933E-01</totfact>
</mgrwt>
</event>
<event>
 6    1  0.4625859E-003  0.5924662E+03  0.7818608E-02  0.9921161E-01
          1   -1    0    0  502    0  0.00000000000E+00  0.00000000000E+00  0.88627493053E+02  0.88627493053E+02  0.00000000000E+00 0.  1.
         13   -1    0    0    0    0 -0.00000000000E+00 -0.00000000000E+00 -0.10000000000E+04  0.10000000000E+04  0.00000000000E+00 0.  1.
    9000005    2    1    2  501    0 -0.83453280927E-01 -0.98227520245E-01 -0.91224077314E+03  0.10877497122E+04  0.59246619443E+03 0.  0.
         13    1    3    3    0    0  0.25187788951E+03 -0.14615234247E+03 -0.35647906103E+03  0.46030457242E+03  0.00000000000E+00 0.  1.
          1    1    3    3  501    0 -0.25196134279E+03  0.14605411495E+03 -0.55576171211E+03  0.62744513975E+03  0.00000000000E+00 0.  1.
         21    1    1    2  502  501  0.83453280927E-01  0.98227520245E-01  0.86826619210E+00  0.87778088165E+00  0.00000000000E+00 0.  1.
<mgrwt>
<rscale>  1 0.59246621E+03</rscale>
<asrwt>0</asrwt>
<pdfrwt beam="1">  1        1 0.32228247E+00 0.59246621E+03</pdfrwt>
<pdfrwt beam="2">0</pdfrwt>
<totfact> 0.29604752E+00</totfact>
</mgrwt>
</event>
<event>
 6    1  0.4625859E-003  0.6399393E+03  0.7818608E-02  0.9825843E-01
          1   -1    0    0  502    0  0.00000000000E+00  0.00000000000E+00  0.10257726923E+03  0.10257726923E+03  0.00000000000E+00 0.  1.
         13   -1    0    0    0    0 -0.00000000000E+00 -0.00000000000E+00 -0.10000000000E+04  0.10000000000E+04  0.00000000000E+00 0.  1.
    9000005    2    1    2  501    0  0.35315675205E-02 -0.31201017755E-02 -0.89761938075E+03  0.11023805628E+04  0.63993933502E+03 0.  0.
         13    1    3    3    0    0  0.24407541447E+03  0.19954054923E+03 -0.35459008741E+03  0.47447167336E+03  0.00000000000E+00 0.  1.
          1    1    3    3  501    0 -0.24407188290E+03 -0.19954366933E+03 -0.54302929335E+03  0.62790888943E+03  0.00000000000E+00 0.  1.
         21    1    1    2  502  501 -0.35315675205E-02  0.31201017755E-02  0.19664998615E+00  0.19670644132E+00  0.00000000000E+00 0.  1.
<mgrwt>
<rscale>  1 0.63993934E+03</rscale>
<asrwt>0</asrwt>
<pdfrwt beam="1">  1        1 0.37300904E+00 0.63993934E+03</pdfrwt>
<pdfrwt beam="2">0</pdfrwt>
<totfact> 0.17648069E+00</totfact>
</mgrwt>
</event>
<event>
 6    1  0.4625859E-003  0.5898296E+03  0.7818608E-02  0.9926734E-01
          1   -1    0    0  502    0  0.00000000000E+00  0.00000000000E+00  0.86975165890E+02  0.86975165890E+02  0.00000000000E+00 0.  1.
         13   -1    0    0    0    0 -0.00000000000E+00 -0.00000000000E+00 -0.10000000000E+04  0.10000000000E+04  0.00000000000E+00 0.  1.
    9000005    2    1    2  501    0 -0.17981938072E-06  0.21483672640E-04 -0.91302524699E+03  0.10869747525E+04  0.58982964560E+03 0.  0.
         13    1    3    3    0    0  0.11055893373E+03 -0.20426393209E+03 -0.79142571097E+03  0.82480402991E+03  0.00000000000E+00 0.  1.
          3    1    3    3  501    0 -0.11055893391E+03  0.20426395357E+03 -0.12159953602E+03  0.26217072254E+03  0.00000000000E+00 0.  1.
         21    1    1    2  502  501  0.17981937983E-06 -0.21483672629E-04  0.41287855497E-03  0.41343715565E-03  0.00000000000E+00 0.  1.
<mgrwt>
<rscale>  1 0.58982965E+03</rscale>
<asrwt>0</asrwt>
<pdfrwt beam="1">  1        1 0.31627400E+00 0.58982965E+03</pdfrwt>
<pdfrwt beam="2">0</pdfrwt>
<totfact> 0.31444099E+00</totfact>
</mgrwt>
</event>
<event>
 6    1  0.4625859E-003  0.6474129E+03  0.7818608E-02  0.9811646E-01
          1   -1    0    0  502    0  0.00000000000E+00  0.00000000000E+00  0.10478724050E+03  0.10478724050E+03  0.00000000000E+00 0.  1.
         13   -1    0    0    0    0 -0.00000000000E+00 -0.00000000000E+00 -0.10000000000E+04  0.10000000000E+04  0.00000000000E+00 0.  1.
    9000005    2    1    2  501    0 -0.14787180591E-02  0.11918606344E-02 -0.89521337053E+03  0.11047852454E+04  0.64741289734E+03 0.  0.
         13    1    3    3    0    0 -0.62887459708E+02  0.30684609203E+03 -0.30816806501E+03  0.43940518098E+03  0.00000000000E+00 0.  1.
          1    1    3    3  501    0  0.62885980990E+02 -0.30684490017E+03 -0.58704530552E+03  0.66538006440E+03  0.00000000000E+00 0.  1.
         21    1    1    2  502  501  0.14787180591E-02 -0.11918606344E-02  0.61103034713E-03  0.19951182811E-02  0.00000000000E+00 0. -1.
<mgrwt>
<rscale>  1 0.64741290E+03</rscale>
<asrwt>0</asrwt>
<pdfrwt beam="1">  1        1 0.38104531E+00 0.64741290E+03</pdfrwt>
<pdfrwt beam="2">0</pdfrwt>
<totfact> 0.16244053E+00</totfact>
</mgrwt>
</event>
<event>
 6    1  0.4625859E-003  0.6473813E+03  0.7818608E-02  0.9811705E-01
          1   -1    0    0  502    0  0.00000000000E+00  0.00000000000E+00  0.10502761678E+03  0.10502761678E+03  0.00000000000E+00 0.  1.
         13   -1    0    0    0    0 -0.00000000000E+00 -0.00000000000E+00 -0.10000000000E+04  0.10000000000E+04  0.00000000000E+00 0.  1.
    9000005    2    1    2  501    0 -0.31407667976E-01  0.12395413013E+00 -0.89520632424E+03  0.11047610095E+04  0.64738126996E+03 0.  0.
         13    1    3    3    0    0  0.17860535119E+02 -0.28412235439E+03 -0.71021435838E+03  0.76514635582E+03  0.00000000000E+00 0.  1.
          1    1    3    3  501    0 -0.17891942787E+02  0.28424630852E+03 -0.18499196586E+03  0.33961465363E+03  0.00000000000E+00 0.  1.
         21    1    1    2  502  501  0.31407667976E-01 -0.12395413013E+00  0.23394101547E+00  0.26660732680E+00  0.00000000000E+00 0.  1.
<mgrwt>
<rscale>  1 0.64738128E+03</rscale>
<asrwt>0</asrwt>
<pdfrwt beam="1">  1        1 0.38191941E+00 0.64738128E+03</pdfrwt>
<pdfrwt beam="2">0</pdfrwt>
<totfact> 0.16100428E+00</totfact>
</mgrwt>
</event>
<event>
 6    1  0.4625859E-003  0.4829281E+03  0.7818608E-02  0.1018334E+00
          1   -1    0    0  502    0  0.00000000000E+00  0.00000000000E+00  0.58324907159E+02  0.58324907159E+02  0.00000000000E+00 0.  1.
         13   -1    0    0    0    0 -0.00000000000E+00 -0.00000000000E+00 -0.10000000000E+04  0.10000000000E+04  0.00000000000E+00 0.  1.
    9000005    2    1    2  501    0 -0.25056011377E-02  0.14056737269E-02 -0.94169499907E+03  0.10583047947E+04  0.48292811802E+03 0.  0.
         13    1    3    3    0    0 -0.20497159760E+03 -0.12180023437E+03 -0.55448533905E+03  0.60357488693E+03  0.00000000000E+00 0.  1.
          3    1    3    3  501    0  0.20496909200E+03  0.12180164004E+03 -0.38720966002E+03  0.45472990775E+03  0.00000000000E+00 0.  1.
         21    1    1    2  502  501  0.25056011377E-02 -0.14056737269E-02  0.19906224106E-01  0.20112476572E-01  0.00000000000E+00 0.  1.
<mgrwt>
<rscale>  1 0.48292812E+03</rscale>
<asrwt>0</asrwt>
<pdfrwt beam="1">  1        1 0.21209102E+00 0.48292812E+03</pdfrwt>
<pdfrwt beam="2">0</pdfrwt>
<totfact> 0.90941196E+00</totfact>
</mgrwt>
</event>
<event>
 6    1  0.4625859E-003  0.6491570E+03  0.7818608E-02  0.9808362E-01
          1   -1    0    0  502    0  0.00000000000E+00  0.00000000000E+00  0.10535373173E+03  0.10535373173E+03  0.00000000000E+00 0.  1.
         13   -1    0    0    0    0 -0.00000000000E+00 -0.00000000000E+00 -0.10000000000E+04  0.10000000000E+04  0.00000000000E+00 0.  1.
    9000005    2    1    2  501    0  0.15531126888E-03 -0.23726096217E-04 -0.89464878298E+03  0.11053512121E+04  0.64915703587E+03 0.  0.
         13    1    3    3    0    0 -0.29784994987E+03  0.10127095068E+03 -0.31130923197E+03  0.44258765911E+03  0.00000000000E+00 0.  1.
          1    1    3    3  501    0  0.29785010518E+03 -0.10127097440E+03 -0.58333955102E+03  0.66276355301E+03  0.00000000000E+00 0.  1.
         21    1    1    2  502  501 -0.15531126890E-03  0.23726096222E-04  0.25147150292E-02  0.25196182639E-02  0.00000000000E+00 0.  1.
<mgrwt>
<rscale>  1 0.64915704E+03</rscale>
<asrwt>0</asrwt>
<pdfrwt beam="1">  1        1 0.38310529E+00 0.64915704E+03</pdfrwt>
<pdfrwt beam="2">0</pdfrwt>
<totfact> 0.15902174E+00</totfact>
</mgrwt>
</event>
<event>
 6    1  0.4625859E-003  0.5766464E+03  0.7818608E-02  0.9955078E-01
          1   -1    0    0  502    0  0.00000000000E+00  0.00000000000E+00  0.84166284862E+02  0.84166284862E+02  0.00000000000E+00 0.  1.
         13   -1    0    0    0    0 -0.00000000000E+00 -0.00000000000E+00 -0.10000000000E+04  0.10000000000E+04  0.00000000000E+00 0.  1.
    9000005    2    1    2  501    0 -0.78096124652E-01 -0.96337316959E-01 -0.91686570224E+03  0.10831268729E+04  0.57664641804E+03 0.  0.
         13    1    3    3    0    0 -0.21402878471E+02  0.28748098833E+03 -0.45663390902E+03  0.54001660042E+03  0.00000000000E+00 0.  1.
          3    1    3    3  501    0  0.21324782346E+02 -0.28757732565E+03 -0.46023179322E+03  0.54311027246E+03  0.00000000000E+00 0.  1.
         21    1    1    2  502  501  0.78096124652E-01  0.96337316959E-01  0.10319871020E+01  0.10394119790E+01  0.00000000000E+00 0.  1.
<mgrwt>
<rscale>  1 0.57664643E+03</rscale>
<asrwt>0</asrwt>
<pdfrwt beam="1">  1        1 0.30605986E+00 0.57664643E+03</pdfrwt>
<pdfrwt beam="2">0</pdfrwt>
<totfact> 0.34886769E+00</totfact>
</mgrwt>
</event>
<event>
 6    1  0.4625859E-003  0.6636481E+03  0.7818608E-02  0.9781501E-01
          1   -1    0    0  502    0  0.00000000000E+00  0.00000000000E+00  0.11010730846E+03  0.11010730846E+03  0.00000000000E+00 0.  1.
         13   -1    0    0    0    0 -0.00000000000E+00 -0.00000000000E+00 -0.10000000000E+04  0.10000000000E+04  0.00000000000E+00 0.  1.
    9000005    2    1    2  501    0  0.55910295202E-05 -0.11274660721E-04 -0.88989278470E+03  0.11101072145E+04  0.66364814420E+03 0.  0.
         13    1    3    3    0    0 -0.15660316396E+03 -0.29205875949E+03 -0.47315305217E+03  0.57766485157E+03  0.00000000000E+00 0.  1.
          3    1    3    3  501    0  0.15660316955E+03  0.29205874822E+03 -0.41673973253E+03  0.53244236288E+03  0.00000000000E+00 0.  1.
         21    1    1    2  502  501 -0.55910295213E-05  0.11274660722E-04  0.93164984030E-04  0.94011126122E-04  0.00000000000E+00 0.  1.
<mgrwt>
<rscale>  1 0.66364814E+03</rscale>
<asrwt>0</asrwt>
<pdfrwt beam="1">  1        1 0.40039106E+00 0.66364814E+03</pdfrwt>
<pdfrwt beam="2">0</pdfrwt>
<totfact> 0.13290857E+00</totfact>
</mgrwt>
</event>
<event>
 6    1  0.4625859E-003  0.5552518E+03  0.7818608E-02  0.1000286E+00
          1   -1    0    0  502    0  0.00000000000E+00  0.00000000000E+00  0.80394272379E+02  0.80394272379E+02  0.00000000000E+00 0.  1.
         13   -1    0    0    0    0 -0.00000000000E+00 -0.00000000000E+00 -0.10000000000E+04  0.10000000000E+04  0.00000000000E+00 0.  1.
    9000005    2    1    2  501    0 -0.11255036932E+01  0.13436778624E+01 -0.92267318472E+03  0.10768613526E+04  0.55524903854E+03 0.  0.
         13    1    3    3    0    0  0.36519223350E+02 -0.27045764413E+03 -0.55087337574E+03  0.61477025550E+03  0.00000000000E+00 0.  1.
          3    1    3    3  501    0 -0.37644727044E+02  0.27180132199E+03 -0.37179980898E+03  0.46209109715E+03  0.00000000000E+00 0.  1.
         21    1    1    2  502  501  0.11255036932E+01 -0.13436778624E+01  0.30674571002E+01  0.35329197306E+01  0.00000000000E+00 0.  1.
<mgrwt>
<rscale>  1 0.55525181E+03</rscale>
<asrwt>0</asrwt>
<pdfrwt beam="1">  1        1 0.29234343E+00 0.55525181E+03</pdfrwt>
<pdfrwt beam="2">0</pdfrwt>
<totfact> 0.40129605E+00</totfact>
</mgrwt>
</event>
<event>
 6    1  0.4625859E-003  0.6590577E+03  0.7818608E-02  0.9789930E-01
          1   -1    0    0  502    0  0.00000000000E+00  0.00000000000E+00  0.10858970481E+03  0.10858970481E+03  0.00000000000E+00 0.  1.
         13   -1    0    0    0    0 -0.00000000000E+00 -0.00000000000E+00 -0.10000000000E+04  0.10000000000E+04  0.00000000000E+00 0.  1.
    9000005    2    1    2  501    0  0.29909514478E-03  0.88869167314E-05 -0.89141067433E+03  0.11085892218E+04  0.65905771554E+03 0.  0.
         13    1    3    3    0    0 -0.20471866844E+03 -0.26044285892E+02 -0.87784376645E+03  0.90177475920E+03  0.00000000000E+00 0.  1.
          1    1    3    3  501    0  0.20471896753E+03  0.26044294779E+02 -0.13566907884E+02  0.20681446262E+03  0.00000000000E+00 0.  1.
         21    1    1    2  502  501 -0.29909514479E-03 -0.88869167324E-05  0.37913989273E-03  0.48299476310E-03  0.00000000000E+00 0. -1.
<mgrwt>
<rscale>  1 0.65905772E+03</rscale>
<asrwt>0</asrwt>
<pdfrwt beam="1">  1        1 0.39487249E+00 0.65905772E+03</pdfrwt>
<pdfrwt beam="2">0</pdfrwt>
<totfact> 0.14076718E+00</totfact>
</mgrwt>
</event>
<event>
 6    1  0.4625859E-003  0.6554276E+03  0.7818608E-02  0.9796648E-01
          1   -1    0    0  502    0  0.00000000000E+00  0.00000000000E+00  0.10740043984E+03  0.10740043984E+03  0.00000000000E+00 0.  1.
         13   -1    0    0    0    0 -0.00000000000E+00 -0.00000000000E+00 -0.10000000000E+04  0.10000000000E+04  0.00000000000E+00 0.  1.
    9000005    2    1    2  501    0  0.26247070041E-02  0.21412085955E-02 -0.89260286040E+03  0.11073957106E+04  0.65542764172E+03 0.  0.
         13    1    3    3    0    0  0.22891124038E+03  0.18777383567E+03 -0.20893153130E+03  0.36236963740E+03  0.00000000000E+00 0.  1.
          3    1    3    3  501    0 -0.22890861567E+03 -0.18777169446E+03 -0.68367132910E+03  0.74502607323E+03  0.00000000000E+00 0.  1.
         21    1    1    2  502  501 -0.26247070041E-02 -0.21412085955E-02  0.33002417257E-02  0.47292131010E-02  0.00000000000E+00 0.  1.
<mgrwt>
<rscale>  1 0.65542764E+03</rscale>
<asrwt>0</asrwt>
<pdfrwt beam="1">  1        1 0.39054788E+00 0.65542764E+03</pdfrwt>
<pdfrwt beam="2">0</pdfrwt>
<totfact> 0.14723164E+00</totfact>
</mgrwt>
</event>
<event>
 6    1  0.4625859E-003  0.6537298E+03  0.7818608E-02  0.9799806E-01
          1   -1    0    0  502    0  0.00000000000E+00  0.00000000000E+00  0.10684130127E+03  0.10684130127E+03  0.00000000000E+00 0.  1.
         13   -1    0    0    0    0 -0.00000000000E+00 -0.00000000000E+00 -0.10000000000E+04  0.10000000000E+04  0.00000000000E+00 0.  1.
    9000005    2    1    2  501    0  0.25584589733E-03  0.11541516631E-03 -0.89315930654E+03  0.11068406318E+04  0.65372978921E+03 0.  0.
         13    1    3    3    0    0 -0.10814963983E+03 -0.30583518548E+03 -0.51449630877E+03  0.60822525186E+03  0.00000000000E+00 0.  1.
          3    1    3    3  501    0  0.10814989567E+03  0.30583530089E+03 -0.37866299777E+03  0.49861537992E+03  0.00000000000E+00 0.  1.
         21    1    1    2  502  501 -0.25584589733E-03 -0.11541516631E-03  0.60780803685E-03  0.66948367677E-03  0.00000000000E+00 0. -1.
<mgrwt>
<rscale>  1 0.65372979E+03</rscale>
<asrwt>0</asrwt>
<pdfrwt beam="1">  1        1 0.38851464E+00 0.65372979E+03</pdfrwt>
<pdfrwt beam="2">0</pdfrwt>
<totfact> 0.15036701E+00</totfact>
</mgrwt>
</event>
<event>
 6    1  0.4625859E-003  0.6618210E+03  0.7818608E-02  0.9784847E-01
          1   -1    0    0  502    0  0.00000000000E+00  0.00000000000E+00  0.11079199048E+03  0.11079199048E+03  0.00000000000E+00 0.  1.
         13   -1    0    0    0    0 -0.00000000000E+00 -0.00000000000E+00 -0.10000000000E+04  0.10000000000E+04  0.00000000000E+00 0.  1.
    9000005    2    1    2  501    0  0.23058662829E+00  0.23019909365E+00 -0.89047538312E+03  0.11094834044E+04  0.66182090510E+03 0.  0.
         13    1    3    3    0    0  0.15091246121E+03 -0.25180817560E+03 -0.18931621858E+03  0.34931727536E+03  0.00000000000E+00 0.  1.
          1    1    3    3  501    0 -0.15068187458E+03  0.25203837470E+03 -0.70115916454E+03  0.76016612899E+03  0.00000000000E+00 0.  1.
         21    1    1    2  502  501 -0.23058662829E+00 -0.23019909365E+00  0.12673736015E+01  0.13085861308E+01  0.00000000000E+00 0.  1.
<mgrwt>
<rscale>  1 0.66182099E+03</rscale>
<asrwt>0</asrwt>
<pdfrwt beam="1">  1        1 0.40288081E+00 0.66182099E+03</pdfrwt>
<pdfrwt beam="2">0</pdfrwt>
<totfact> 0.12959535E+00</totfact>
</mgrwt>
</event>
<event>
 6    1  0.4625859E-003  0.6038047E+03  0.7818608E-02  0.9897544E-01
          1   -1    0    0  502    0  0.00000000000E+00  0.00000000000E+00  0.91512714314E+02  0.91512714314E+02  0.00000000000E+00 0.  1.
         13   -1    0    0    0    0 -0.00000000000E+00 -0.00000000000E+00 -0.10000000000E+04  0.10000000000E+04  0.00000000000E+00 0.  1.
    9000005    2    1    2  501    0  0.65569831221E-02  0.31282620856E-02 -0.90885492952E+03  0.10911449987E+04  0.60380470787E+03 0.  0.
         13    1    3    3    0    0 -0.97082161702E+02  0.26548390260E+03 -0.26285171663E+03  0.38600216787E+03  0.00000000000E+00 0.  1.
          1    1    3    3  501    0  0.97088718685E+02 -0.26548077434E+03 -0.64600321288E+03  0.70514283084E+03  0.00000000000E+00 0.  1.
         21    1    1    2  502  501 -0.65569831221E-02 -0.31282620857E-02  0.36764383024E+00  0.36771560474E+00  0.00000000000E+00 0. -1.
<mgrwt>
<rscale>  1 0.60380471E+03</rscale>
<asrwt>0</asrwt>
<pdfrwt beam="1">  1        1 0.33277421E+00 0.60380471E+03</pdfrwt>
<pdfrwt beam="2">0</pdfrwt>
<totfact> 0.26611186E+00</totfact>
</mgrwt>
</event>
<event>
 6    1  0.4625859E-003  0.6524781E+03  0.7818608E-02  0.9802140E-01
          1   -1    0    0  502    0  0.00000000000E+00  0.00000000000E+00  0.10643256435E+03  0.10643256435E+03  0.00000000000E+00 0.  1.
         13   -1    0    0    0    0 -0.00000000000E+00 -0.00000000000E+00 -0.10000000000E+04  0.10000000000E+04  0.00000000000E+00 0.  1.
    9000005    2    1    2  501    0 -0.10838220419E-04 -0.16941687244E-03 -0.89356807061E+03  0.11064319071E+04  0.65247809787E+03 0.  0.
         13    1    3    3    0    0 -0.39728397590E+02 -0.23690443499E+03 -0.72452497942E+02  0.25090121831E+03  0.00000000000E+00 0.  1.
          3    1    3    3  501    0  0.39728386752E+02  0.23690426557E+03 -0.82111557267E+03  0.85553068878E+03  0.00000000000E+00 0.  1.
         21    1    1    2  502  501  0.10838220421E-04  0.16941687244E-03  0.63495854912E-03  0.65726090922E-03  0.00000000000E+00 0.  1.
<mgrwt>
<rscale>  1 0.65247810E+03</rscale>
<asrwt>0</asrwt>
<pdfrwt beam="1">  1        1 0.38702832E+00 0.65247810E+03</pdfrwt>
<pdfrwt beam="2">0</pdfrwt>
<totfact> 0.15269927E+00</totfact>
</mgrwt>
</event>
<event>
 6    1  0.4625859E-003  0.6614234E+03  0.7818608E-02  0.9785577E-01
          3   -1    0    0  502    0  0.00000000000E+00  0.00000000000E+00  0.10995226349E+03  0.10995226349E+03  0.00000000000E+00 0.  1.
         13   -1    0    0    0    0 -0.00000000000E+00 -0.00000000000E+00 -0.10000000000E+04  0.10000000000E+04  0.00000000000E+00 0.  1.
    9000005    2    1    2  501    0  0.21638228487E-01 -0.43500294810E-02 -0.89062952740E+03  0.11093700541E+04  0.66142343574E+03 0.  0.
         13    1    3    3    0    0  0.18004796524E+03 -0.23612786662E+03 -0.68954432127E+03  0.75076295206E+03  0.00000000000E+00 0.  1.
          3    1    3    3  501    0 -0.18002632701E+03  0.23612351659E+03 -0.20108520613E+03  0.35860710204E+03  0.00000000000E+00 0.  1.
         21    1    1    2  502  501 -0.21638228487E-01  0.43500294810E-02  0.58179089059E+00  0.58220939194E+00  0.00000000000E+00 0. -1.
<mgrwt>
<rscale>  1 0.66142344E+03</rscale>
<asrwt>0</asrwt>
<pdfrwt beam="1">  1        3 0.39982726E+00 0.66142344E+03</pdfrwt>
<pdfrwt beam="2">0</pdfrwt>
<totfact> 0.59246847E-02</totfact>
</mgrwt>
</event>
<event>
 6    1  0.4625859E-003  0.6638081E+03  0.7818608E-02  0.9781209E-01
          1   -1    0    0  502    0  0.00000000000E+00  0.00000000000E+00  0.11016042224E+03  0.11016042224E+03  0.00000000000E+00 0.  1.
         13   -1    0    0    0    0 -0.00000000000E+00 -0.00000000000E+00 -0.10000000000E+04  0.10000000000E+04  0.00000000000E+00 0.  1.
    9000005    2    1    2  501    0  0.28111451485E-04 -0.28801736391E-04 -0.88983968109E+03  0.11101603114E+04  0.66380814913E+03 0.  0.
         13    1    3    3    0    0  0.81622468318E+02  0.30365117478E+03 -0.26718690836E+03  0.41261980960E+03  0.00000000000E+00 0.  1.
          1    1    3    3  501    0 -0.81622440206E+02 -0.30365120358E+03 -0.62265277273E+03  0.69754050175E+03  0.00000000000E+00 0.  1.
         21    1    1    2  502  501 -0.28111451485E-04  0.28801736377E-04  0.10333345140E-03  0.11089452602E-03  0.00000000000E+00 0.  1.
<mgrwt>
<rscale>  1 0.66380815E+03</rscale>
<asrwt>0</asrwt>
<pdfrwt beam="1">  1        1 0.40058420E+00 0.66380815E+03</pdfrwt>
<pdfrwt beam="2">0</pdfrwt>
<totfact> 0.13264120E+00</totfact>
</mgrwt>
</event>
<event>
 6    1  0.4625859E-003  0.6145910E+03  0.7818608E-02  0.9875588E-01
          1   -1    0    0  502    0  0.00000000000E+00  0.00000000000E+00  0.98630796808E+02  0.98630796808E+02  0.00000000000E+00 0.  1.
         13   -1    0    0    0    0 -0.00000000000E+00 -0.00000000000E+00 -0.10000000000E+04  0.10000000000E+04  0.00000000000E+00 0.  1.
    9000005    2    1    2  501    0 -0.10684491687E+01 -0.48357066982E+00 -0.90547972881E+03  0.10943562389E+04  0.61458983311E+03 0.  0.
         13    1    3    3    0    0  0.77072044701E+02 -0.20015590342E+03 -0.60866219432E+02  0.22295107629E+03  0.00000000000E+00 0.  1.
          3    1    3    3  501    0 -0.78140493869E+02  0.19967233275E+03 -0.84461350938E+03  0.87140516264E+03  0.00000000000E+00 0.  1.
         21    1    1    2  502  501  0.10684491687E+01  0.48357066982E+00  0.41105256186E+01  0.42745578812E+01  0.00000000000E+00 0.  1.
<mgrwt>
<rscale>  1 0.61459095E+03</rscale>
<asrwt>0</asrwt>
<pdfrwt beam="1">  1        1 0.35865820E+00 0.61459095E+03</pdfrwt>
<pdfrwt beam="2">0</pdfrwt>
<totfact> 0.20493349E+00</totfact>
</mgrwt>
</event>
<event>
 6    1  0.4625859E-003  0.6546695E+03  0.7818608E-02  0.9798056E-01
          1   -1    0    0  502    0  0.00000000000E+00  0.00000000000E+00  0.10718646938E+03  0.10718646938E+03  0.00000000000E+00 0.  1.
         13   -1    0    0    0    0 -0.00000000000E+00 -0.00000000000E+00 -0.10000000000E+04  0.10000000000E+04  0.00000000000E+00 0.  1.
    9000005    2    1    2  501    0  0.60433725513E-02 -0.11673226788E-02 -0.89285169742E+03  0.11071478095E+04  0.65466947262E+03 0.  0.
         13    1    3    3    0    0 -0.16098268866E+03 -0.26111790175E+03 -0.63961168078E+03  0.70936668012E+03  0.00000000000E+00 0.  1.
          3    1    3    3  501    0  0.16098873203E+03  0.26111673443E+03 -0.25324001663E+03  0.39778112935E+03  0.00000000000E+00 0.  1.
         21    1    1    2  502  501 -0.60433725513E-02  0.11673226788E-02  0.38166797756E-01  0.38659920396E-01  0.00000000000E+00 0.  1.
<mgrwt>
<rscale>  1 0.65466947E+03</rscale>
<asrwt>0</asrwt>
<pdfrwt beam="1">  1        1 0.38976980E+00 0.65466947E+03</pdfrwt>
<pdfrwt beam="2">0</pdfrwt>
<totfact> 0.14842707E+00</totfact>
</mgrwt>
</event>
<event>
 6    1  0.4625859E-003  0.6400366E+03  0.7818608E-02  0.9825656E-01
          1   -1    0    0  502    0  0.00000000000E+00  0.00000000000E+00  0.10241173089E+03  0.10241173089E+03  0.00000000000E+00 0.  1.
         13   -1    0    0    0    0 -0.00000000000E+00 -0.00000000000E+00 -0.10000000000E+04  0.10000000000E+04  0.00000000000E+00 0.  1.
    9000005    2    1    2  501    0  0.58418373499E-05  0.64153212804E-05 -0.89758826412E+03  0.11024117209E+04  0.64003664774E+03 0.  0.
         13    1    3    3    0    0 -0.15849748762E+03 -0.19616678421E+03 -0.78811021328E+03  0.82747844026E+03  0.00000000000E+00 0.  1.
          1    1    3    3  501    0  0.15849749347E+03  0.19616679063E+03 -0.10947805084E+03  0.27493328063E+03  0.00000000000E+00 0.  1.
         21    1    1    2  502  501 -0.58418373639E-05 -0.64153213018E-05 -0.49848352090E-05  0.10006597486E-04  0.00000000000E+00 0.  1.
<mgrwt>
<rscale>  1 0.64003665E+03</rscale>
<asrwt>0</asrwt>
<pdfrwt beam="1">  1        1 0.37240708E+00 0.64003665E+03</pdfrwt>
<pdfrwt beam="2">0</pdfrwt>
<totfact> 0.17755642E+00</totfact>
</mgrwt>
</event>
<event>
 6    1  0.4625859E-003  0.6561211E+03  0.7818608E-02  0.9795361E-01
          1   -1    0    0  502    0  0.00000000000E+00  0.00000000000E+00  0.10762416779E+03  0.10762416779E+03  0.00000000000E+00 0.  1.
         13   -1    0    0    0    0 -0.00000000000E+00 -0.00000000000E+00 -0.10000000000E+04  0.10000000000E+04  0.00000000000E+00 0.  1.
    9000005    2    1    2  501    0 -0.36524557336E-03 -0.11650800150E-02 -0.89237492883E+03  0.11076226489E+04  0.65612111599E+03 0.  0.
         13    1    3    3    0    0 -0.11484824394E+03 -0.28842238609E+03 -0.62521453759E+03  0.69804785649E+03  0.00000000000E+00 0.  1.
          3    1    3    3  501    0  0.11484787869E+03  0.28842122101E+03 -0.26716039124E+03  0.40957479245E+03  0.00000000000E+00 0.  1.
         21    1    1    2  502  501  0.36524557336E-03  0.11650800150E-02 -0.90338196540E-03  0.15188531020E-02  0.00000000000E+00 0. -1.
<mgrwt>
<rscale>  1 0.65612112E+03</rscale>
<asrwt>0</asrwt>
<pdfrwt beam="1">  1        1 0.39136144E+00 0.65612112E+03</pdfrwt>
<pdfrwt beam="2">0</pdfrwt>
<totfact> 0.14599415E+00</totfact>
</mgrwt>
</event>
<event>
 6    1  0.4625859E-003  0.6527056E+03  0.7818608E-02  0.9801715E-01
          1   -1    0    0  502    0  0.00000000000E+00  0.00000000000E+00  0.10650869074E+03  0.10650869074E+03  0.00000000000E+00 0.  1.
         13   -1    0    0    0    0 -0.00000000000E+00 -0.00000000000E+00 -0.10000000000E+04  0.10000000000E+04  0.00000000000E+00 0.  1.
    9000005    2    1    2  501    0  0.16677224927E-03  0.25279615579E-03 -0.89349383063E+03  0.11065061512E+04  0.65270562841E+03 0.  0.
         13    1    3    3    0    0 -0.12423680812E+03 -0.29382022857E+03 -0.33002025843E+03  0.45899725727E+03  0.00000000000E+00 0.  1.
          3    1    3    3  501    0  0.12423697489E+03  0.29382048137E+03 -0.56347357220E+03  0.64750889397E+03  0.00000000000E+00 0.  1.
         21    1    1    2  502  501 -0.16677224927E-03 -0.25279615582E-03  0.25213749172E-02  0.25394980513E-02  0.00000000000E+00 0.  1.
<mgrwt>
<rscale>  1 0.65270563E+03</rscale>
<asrwt>0</asrwt>
<pdfrwt beam="1">  1        1 0.38730515E+00 0.65270563E+03</pdfrwt>
<pdfrwt beam="2">0</pdfrwt>
<totfact> 0.15226246E+00</totfact>
</mgrwt>
</event>
<event>
 6    1  0.4625859E-003  0.6506484E+03  0.7818608E-02  0.9805563E-01
          1   -1    0    0  502    0  0.00000000000E+00  0.00000000000E+00  0.10583595149E+03  0.10583595149E+03  0.00000000000E+00 0.  1.
         13   -1    0    0    0    0 -0.00000000000E+00 -0.00000000000E+00 -0.10000000000E+04  0.10000000000E+04  0.00000000000E+00 0.  1.
    9000005    2    1    2  501    0  0.91589537305E-05  0.10572703673E-05 -0.89416417214E+03  0.11058358275E+04  0.65064837716E+03 0.  0.
         13    1    3    3    0    0  0.86002496065E+02  0.30224920986E+03 -0.59013890287E+03  0.66859175800E+03  0.00000000000E+00 0.  1.
          1    1    3    3  501    0 -0.86002486906E+02 -0.30224920880E+03 -0.30402526927E+03  0.43724406952E+03  0.00000000000E+00 0.  1.
         21    1    1    2  502  501 -0.91589537365E-05 -0.10572703693E-05  0.12362422264E-03  0.12396754687E-03  0.00000000000E+00 0. -1.
<mgrwt>
<rscale>  1 0.65064838E+03</rscale>
<asrwt>0</asrwt>
<pdfrwt beam="1">  1        1 0.38485882E+00 0.65064838E+03</pdfrwt>
<pdfrwt beam="2">0</pdfrwt>
<totfact> 0.15616536E+00</totfact>
</mgrwt>
</event>
<event>
 6    1  0.4625859E-003  0.6264357E+03  0.7818608E-02  0.9852029E-01
          1   -1    0    0  502    0  0.00000000000E+00  0.00000000000E+00  0.98108117311E+02  0.98108117311E+02  0.00000000000E+00 0.  1.
         13   -1    0    0    0    0 -0.00000000000E+00 -0.00000000000E+00 -0.10000000000E+04  0.10000000000E+04  0.00000000000E+00 0.  1.
    9000005    2    1    2  501    0 -0.12921702604E-02  0.49777092682E-02 -0.90189157480E+03  0.10981029654E+04  0.62643571890E+03 0.  0.
         13    1    3    3    0    0  0.30289160841E+02 -0.27805335605E+03 -0.69805643020E+03  0.75200657032E+03  0.00000000000E+00 0.  1.
          1    1    3    3  501    0 -0.30290453011E+02  0.27805833375E+03 -0.20383514461E+03  0.34609639508E+03  0.00000000000E+00 0.  1.
         21    1    1    2  502  501  0.12921702604E-02 -0.49777092682E-02 -0.30788657962E-03  0.51519013661E-02  0.00000000000E+00 0. -1.
<mgrwt>
<rscale>  1 0.62643572E+03</rscale>
<asrwt>0</asrwt>
<pdfrwt beam="1">  1        1 0.35675754E+00 0.62643572E+03</pdfrwt>
<pdfrwt beam="2">0</pdfrwt>
<totfact> 0.20843973E+00</totfact>
</mgrwt>
</event>
<event>
 6    1  0.4625859E-003  0.6478777E+03  0.7818608E-02  0.9810770E-01
          1   -1    0    0  502    0  0.00000000000E+00  0.00000000000E+00  0.12518353090E+03  0.12518353090E+03  0.00000000000E+00 0.  1.
         13   -1    0    0    0    0 -0.00000000000E+00 -0.00000000000E+00 -0.10000000000E+04  0.10000000000E+04  0.00000000000E+00 0.  1.
    9000005    2    1    2  501    0  0.18027169160E+01 -0.62142088725E+01 -0.89449087081E+03  0.11044724647E+04  0.64784538368E+03 0.  0.
         13    1    3    3    0    0 -0.23576736057E+03  0.10371252428E+03 -0.11476994609E+03  0.28198346854E+03  0.00000000000E+00 0.  1.
          1    1    3    3  501    0  0.23757007748E+03 -0.10992673316E+03 -0.77972092472E+03  0.82248899617E+03  0.00000000000E+00 0.  1.
         21    1    1    2  502  501 -0.18027169160E+01  0.62142088725E+01  0.19674401709E+02  0.20711066191E+02  0.00000000000E+00 0. -1.
<mgrwt>
<rscale>  1 0.64787769E+03</rscale>
<asrwt>0</asrwt>
<pdfrwt beam="1">  1        1 0.45521380E+00 0.64787769E+03</pdfrwt>
<pdfrwt beam="2">0</pdfrwt>
<totfact> 0.75200143E-01</totfact>
</mgrwt>
</event>
<event>
 6    1  0.4625859E-003  0.6491339E+03  0.7818608E-02  0.9808406E-01
          1   -1    0    0  502    0  0.00000000000E+00  0.00000000000E+00  0.10539015810E+03  0.10539015810E+03  0.00000000000E+00 0.  1.
         13   -1    0    0    0    0 -0.00000000000E+00 -0.00000000000E+00 -0.10000000000E+04  0.10000000000E+04  0.00000000000E+00 0.  1.
    9000005    2    1    2  501    0 -0.94535487645E-02 -0.17813744512E-01 -0.89465386813E+03  0.11053417328E+04  0.64913388616E+03 0.  0.
         13    1    3    3    0    0  0.62052490275E+02  0.92012690173E+02  0.72029133063E+02  0.13230662384E+03  0.00000000000E+00 0.  1.
          1    1    3    3  501    0 -0.62061943824E+02 -0.92030503917E+02 -0.96668300119E+03  0.97303510898E+03  0.00000000000E+00 0.  1.
         21    1    1    2  502  501  0.94535487645E-02  0.17813744512E-01  0.44026225018E-01  0.48425278183E-01  0.00000000000E+00 0.  1.
<mgrwt>
<rscale>  1 0.64913389E+03</rscale>
<asrwt>0</asrwt>
<pdfrwt beam="1">  1        1 0.38323775E+00 0.64913389E+03</pdfrwt>
<pdfrwt beam="2">0</pdfrwt>
<totfact> 0.15880822E+00</totfact>
</mgrwt>
</event>
<event>
 6    1  0.4625859E-003  0.6520309E+03  0.7818608E-02  0.9802976E-01
          1   -1    0    0  502    0  0.00000000000E+00  0.00000000000E+00  0.10628822565E+03  0.10628822565E+03  0.00000000000E+00 0.  1.
         13   -1    0    0    0    0 -0.00000000000E+00 -0.00000000000E+00 -0.10000000000E+04  0.10000000000E+04  0.00000000000E+00 0.  1.
    9000005    2    1    2  501    0 -0.87666196418E-03  0.14696701785E-02 -0.89371355247E+03  0.11062857578E+04  0.65203087665E+03 0.  0.
         13    1    3    3    0    0 -0.10405626731E+03  0.18062933141E+03 -0.87215105410E+03  0.89671741552E+03  0.00000000000E+00 0.  1.
          3    1    3    3  501    0  0.10405539064E+03 -0.18062786174E+03 -0.21562498365E+02  0.20956834230E+03  0.00000000000E+00 0.  1.
         21    1    1    2  502  501  0.87666196418E-03 -0.14696701785E-02  0.17781164922E-02  0.24678259446E-02  0.00000000000E+00 0.  1.
<mgrwt>
<rscale>  1 0.65203088E+03</rscale>
<asrwt>0</asrwt>
<pdfrwt beam="1">  1        1 0.38650345E+00 0.65203088E+03</pdfrwt>
<pdfrwt beam="2">0</pdfrwt>
<totfact> 0.15353119E+00</totfact>
</mgrwt>
</event>
<event>
 6    1  0.4625859E-003  0.5605584E+03  0.7818608E-02  0.9990792E-01
          1   -1    0    0  502    0  0.00000000000E+00  0.00000000000E+00  0.96330487326E+02  0.96330487326E+02  0.00000000000E+00 0.  1.
         13   -1    0    0    0    0 -0.00000000000E+00 -0.00000000000E+00 -0.10000000000E+04  0.10000000000E+04  0.00000000000E+00 0.  1.
    9000005    2    1    2  501    0  0.37252795053E+00 -0.11250432598E+01 -0.92142224794E+03  0.10785382388E+04  0.56055719509E+03 0.  0.
         13    1    3    3    0    0  0.12887814050E+03 -0.16822617902E+03 -0.81557275271E+03  0.84265564578E+03  0.00000000000E+00 0.  1.
          3    1    3    3  501    0 -0.12850561255E+03  0.16710113576E+03 -0.10584949523E+03  0.23588259298E+03  0.00000000000E+00 0.  1.
         21    1    1    2  502  501 -0.37252795053E+00  0.11250432598E+01  0.17752735270E+02  0.17792248564E+02  0.00000000000E+00 0. -1.
<mgrwt>
<rscale>  1 0.56055845E+03</rscale>
<asrwt>0</asrwt>
<pdfrwt beam="1">  1        1 0.35029342E+00 0.56055845E+03</pdfrwt>
<pdfrwt beam="2">0</pdfrwt>
<totfact> 0.22523336E+00</totfact>
</mgrwt>
</event>
<event>
 6    1  0.4625859E-003  0.6472391E+03  0.7818608E-02  0.9811974E-01
          1   -1    0    0  502    0  0.00000000000E+00  0.00000000000E+00  0.10472961607E+03  0.10472961607E+03  0.00000000000E+00 0.  1.
         13   -1    0    0    0    0 -0.00000000000E+00 -0.00000000000E+00 -0.10000000000E+04  0.10000000000E+04  0.00000000000E+00 0.  1.
    9000005    2    1    2  501    0  0.62418871494E-06 -0.47731347763E-06 -0.89527039992E+03  0.11047296001E+04  0.64723905959E+03 0.  0.
         13    1    3    3    0    0  0.24161417751E+03 -0.30269705600E+02 -0.81145891541E+03  0.84720672639E+03  0.00000000000E+00 0.  1.
          1    1    3    3  501    0 -0.24161417689E+03  0.30269705122E+02 -0.83811484519E+02  0.25752287366E+03  0.00000000000E+00 0.  1.
         21    1    1    2  502  501 -0.62418872498E-06  0.47731347941E-06  0.15998039862E-04  0.16017325593E-04  0.00000000000E+00 0. -1.
<mgrwt>
<rscale>  1 0.64723906E+03</rscale>
<asrwt>0</asrwt>
<pdfrwt beam="1">  1        1 0.38083577E+00 0.64723906E+03</pdfrwt>
<pdfrwt beam="2">0</pdfrwt>
<totfact> 0.16279207E+00</totfact>
</mgrwt>
</event>
<event>
 6    1  0.4625859E-003  0.6429526E+03  0.7818608E-02  0.9820094E-01
          1   -1    0    0  502    0  0.00000000000E+00  0.00000000000E+00  0.10334754803E+03  0.10334754803E+03  0.00000000000E+00 0.  1.
         13   -1    0    0    0    0 -0.00000000000E+00 -0.00000000000E+00 -0.10000000000E+04  0.10000000000E+04  0.00000000000E+00 0.  1.
    9000005    2    1    2  501    0  0.15678480238E-02 -0.15936905527E-04 -0.89665117903E+03  0.11033455284E+04  0.64295257855E+03 0.  0.
         13    1    3    3    0    0  0.22024602642E+03 -0.20000785270E+03 -0.23930552784E+03  0.38180962396E+03  0.00000000000E+00 0.  1.
          3    1    3    3  501    0 -0.22024445857E+03  0.20000783677E+03 -0.65734565119E+03  0.72153590447E+03  0.00000000000E+00 0.  1.
         21    1    1    2  502  501 -0.15678480238E-02  0.15936905533E-04 -0.12729343348E-02  0.20195948186E-02  0.00000000000E+00 0. -1.
<mgrwt>
<rscale>  1 0.64295258E+03</rscale>
<asrwt>0</asrwt>
<pdfrwt beam="1">  1        1 0.37581006E+00 0.64295258E+03</pdfrwt>
<pdfrwt beam="2">0</pdfrwt>
<totfact> 0.17144772E+00</totfact>
</mgrwt>
</event>
<event>
 6    1  0.5353683E-003  0.6293258E+03  0.7818608E-02  0.9846365E-01
          1   -1    0    0  502    0  0.00000000000E+00  0.00000000000E+00  0.99012783265E+02  0.99012783265E+02  0.00000000000E+00 0.  1.
         13   -1    0    0    0    0 -0.00000000000E+00 -0.00000000000E+00 -0.10000000000E+04  0.10000000000E+04  0.00000000000E+00 0.  1.
    9000005    2    1    2  501    0 -0.82914813788E-05  0.32409221831E-04 -0.90098723704E+03  0.10990127441E+04  0.62932583806E+03 0.  0.
         13    1    3    3    0    0 -0.17995711227E+03  0.18760379034E+03 -0.14087992037E+03  0.29568039565E+03  0.00000000000E+00 0.  1.
          1    1    3    3  501    0  0.17995710398E+03 -0.18760375793E+03 -0.76010731667E+03  0.80333234848E+03  0.00000000000E+00 0.  1.
         21    1    1    2  502  501  0.82914813960E-05 -0.32409221829E-04  0.20306962794E-04  0.39134116334E-04  0.00000000000E+00 0.  1.
<mgrwt>
<rscale>  1 0.62932584E+03</rscale>
<asrwt>0</asrwt>
<pdfrwt beam="1">  1        1 0.36004724E+00 0.62932584E+03</pdfrwt>
<pdfrwt beam="2">0</pdfrwt>
<totfact> 0.20154681E+00</totfact>
</mgrwt>
</event>
<event>
 6    1  0.4625859E-003  0.6511199E+03  0.7818608E-02  0.9804680E-01
          1   -1    0    0  502    0  0.00000000000E+00  0.00000000000E+00  0.10648439792E+03  0.10648439792E+03  0.00000000000E+00 0.  1.
         13   -1    0    0    0    0 -0.00000000000E+00 -0.00000000000E+00 -0.10000000000E+04  0.10000000000E+04  0.00000000000E+00 0.  1.
    9000005    2    1    2  501    0  0.33623488369E-01 -0.13668097224E-01 -0.89400999121E+03  0.11059886783E+04  0.65111987435E+03 0.  0.
         13    1    3    3    0    0  0.16363851371E+03  0.97844547928E+01  0.30773130508E+02  0.16679413744E+03  0.00000000000E+00 0.  1.
          1    1    3    3  501    0 -0.16360489022E+03 -0.97981228900E+01 -0.92478312172E+03  0.93919454083E+03  0.00000000000E+00 0.  1.
         21    1    1    2  502  501 -0.33623488369E-01  0.13668097224E-01  0.49438912667E+00  0.49571964297E+00  0.00000000000E+00 0.  1.
<mgrwt>
<rscale>  1 0.65111988E+03</rscale>
<asrwt>0</asrwt>
<pdfrwt beam="1">  1        1 0.38721681E+00 0.65111988E+03</pdfrwt>
<pdfrwt beam="2">0</pdfrwt>
<totfact> 0.15244441E+00</totfact>
</mgrwt>
</event>
<event>
 6    1  0.4625859E-003  0.6479380E+03  0.7818608E-02  0.9810656E-01
          1   -1    0    0  502    0  0.00000000000E+00  0.00000000000E+00  0.10552325079E+03  0.10552325079E+03  0.00000000000E+00 0.  1.
         13   -1    0    0    0    0 -0.00000000000E+00 -0.00000000000E+00 -0.10000000000E+04  0.10000000000E+04  0.00000000000E+00 0.  1.
    9000005    2    1    2  501    0  0.11815354791E-01 -0.47039647706E-01 -0.89504293638E+03  0.11049549901E+04  0.64793801384E+03 0.  0.
         13    1    3    3    0    0  0.30004118144E+03 -0.96963693828E+02 -0.32063854962E+03  0.44970629080E+03  0.00000000000E+00 0.  1.
          1    1    3    3  501    0 -0.30002936609E+03  0.96916654180E+02 -0.57440438676E+03  0.65524869928E+03  0.00000000000E+00 0.  1.
         21    1    1    2  502  501 -0.11815354791E-01  0.47039647706E-01  0.56618716584E+00  0.56826071290E+00  0.00000000000E+00 0.  1.
<mgrwt>
<rscale>  1 0.64793802E+03</rscale>
<asrwt>0</asrwt>
<pdfrwt beam="1">  1        1 0.38372172E+00 0.64793802E+03</pdfrwt>
<pdfrwt beam="2">0</pdfrwt>
<totfact> 0.15806285E+00</totfact>
</mgrwt>
</event>
<event>
 6    1  0.4625859E-003  0.6680362E+03  0.7818608E-02  0.9773512E-01
          1   -1    0    0  502    0  0.00000000000E+00  0.00000000000E+00  0.11175091775E+03  0.11175091775E+03  0.00000000000E+00 0.  1.
         13   -1    0    0    0    0 -0.00000000000E+00 -0.00000000000E+00 -0.10000000000E+04  0.10000000000E+04  0.00000000000E+00 0.  1.
    9000005    2    1    2  501    0 -0.10927073819E-02 -0.34419527263E-02 -0.88843189249E+03  0.11115680718E+04  0.66803618969E+03 0.  0.
         13    1    3    3    0    0  0.19082501157E+03 -0.25089600414E+03 -0.26038641585E+03  0.40885703552E+03  0.00000000000E+00 0.  1.
          3    1    3    3  501    0 -0.19082610428E+03  0.25089256219E+03 -0.62804547664E+03  0.70271103632E+03  0.00000000000E+00 0.  1.
         21    1    1    2  502  501  0.10927073819E-02  0.34419527263E-02  0.18281024466E+00  0.18284590945E+00  0.00000000000E+00 0. -1.
<mgrwt>
<rscale>  1 0.66803619E+03</rscale>
<asrwt>0</asrwt>
<pdfrwt beam="1">  1        1 0.40636783E+00 0.66803619E+03</pdfrwt>
<pdfrwt beam="2">0</pdfrwt>
<totfact> 0.12487934E+00</totfact>
</mgrwt>
</event>
<event>
 6    1  0.4625859E-003  0.6522095E+03  0.7818608E-02  0.9802642E-01
          1   -1    0    0  502    0  0.00000000000E+00  0.00000000000E+00  0.10634580584E+03  0.10634580584E+03  0.00000000000E+00 0.  1.
         13   -1    0    0    0    0 -0.00000000000E+00 -0.00000000000E+00 -0.10000000000E+04  0.10000000000E+04  0.00000000000E+00 0.  1.
    9000005    2    1    2  501    0 -0.10767598813E-03 -0.36200278988E-03 -0.89365566974E+03  0.11063442827E+04  0.65220948767E+03 0.  0.
         13    1    3    3    0    0 -0.43069162309E+02 -0.95490796547E+02  0.77027114895E+02  0.13002546441E+03  0.00000000000E+00 0.  1.
          3    1    3    3  501    0  0.43069054633E+02  0.95490434544E+02 -0.97068278463E+03  0.97631881828E+03  0.00000000000E+00 0.  1.
         21    1    1    2  502  501  0.10767598813E-03  0.36200278989E-03  0.14755752490E-02  0.15231422960E-02  0.00000000000E+00 0.  1.
<mgrwt>
<rscale>  1 0.65220949E+03</rscale>
<asrwt>0</asrwt>
<pdfrwt beam="1">  1        1 0.38671284E+00 0.65220949E+03</pdfrwt>
<pdfrwt beam="2">0</pdfrwt>
<totfact> 0.15319879E+00</totfact>
</mgrwt>
</event>
<event>
 6    1  0.4625859E-003  0.6348009E+03  0.7818608E-02  0.9835725E-01
          1   -1    0    0  502    0  0.00000000000E+00  0.00000000000E+00  0.10074327585E+03  0.10074327585E+03  0.00000000000E+00 0.  1.
         13   -1    0    0    0    0 -0.00000000000E+00 -0.00000000000E+00 -0.10000000000E+04  0.10000000000E+04  0.00000000000E+00 0.  1.
    9000005    2    1    2  501    0 -0.45800022832E-05 -0.41162892046E-05 -0.89925694602E+03  0.11007430539E+04  0.63480092605E+03 0.  0.
         13    1    3    3    0    0  0.29280078218E+02 -0.61411364264E+02  0.87950874403E+02  0.11119368215E+03  0.00000000000E+00 0.  1.
          3    1    3    3  501    0 -0.29280082798E+02  0.61411360147E+02 -0.98720782043E+03  0.98954937174E+03  0.00000000000E+00 0.  1.
         21    1    1    2  502  501  0.45800022832E-05  0.41162892024E-05  0.22187862425E-03  0.22196406050E-03  0.00000000000E+00 0.  1.
<mgrwt>
<rscale>  1 0.63480093E+03</rscale>
<asrwt>0</asrwt>
<pdfrwt beam="1">  1        1 0.36633996E+00 0.63480093E+03</pdfrwt>
<pdfrwt beam="2">0</pdfrwt>
<totfact> 0.18896831E+00</totfact>
</mgrwt>
</event>
<event>
 6    1  0.4625859E-003  0.6473140E+03  0.7818608E-02  0.9811832E-01
          1   -1    0    0  502    0  0.00000000000E+00  0.00000000000E+00  0.10494714614E+03  0.10494714614E+03  0.00000000000E+00 0.  1.
         13   -1    0    0    0    0 -0.00000000000E+00 -0.00000000000E+00 -0.10000000000E+04  0.10000000000E+04  0.00000000000E+00 0.  1.
    9000005    2    1    2  501    0 -0.35661256352E-02  0.23196038211E-02 -0.89524613286E+03  0.11047538203E+04  0.64731396178E+03 0.  0.
         13    1    3    3    0    0  0.29143320601E+01  0.23638602874E+03 -0.70346861696E+02  0.24664859389E+03  0.00000000000E+00 0.  1.
          1    1    3    3  501    0 -0.29178981857E+01 -0.23638370914E+03 -0.82489927116E+03  0.85810522644E+03  0.00000000000E+00 0.  1.
         21    1    1    2  502  501  0.35661256352E-02 -0.23196038211E-02  0.19327900156E+00  0.19332581374E+00  0.00000000000E+00 0.  1.
<mgrwt>
<rscale>  1 0.64731396E+03</rscale>
<asrwt>0</asrwt>
<pdfrwt beam="1">  1        1 0.38162679E+00 0.64731396E+03</pdfrwt>
<pdfrwt beam="2">0</pdfrwt>
<totfact> 0.16148605E+00</totfact>
</mgrwt>
</event>
<event>
 6    1  0.4625859E-003  0.6456388E+03  0.7818608E-02  0.9814997E-01
          1   -1    0    0  502    0  0.00000000000E+00  0.00000000000E+00  0.10452927162E+03  0.10452927162E+03  0.00000000000E+00 0.  1.
         13   -1    0    0    0    0 -0.00000000000E+00 -0.00000000000E+00 -0.10000000000E+04  0.10000000000E+04  0.00000000000E+00 0.  1.
    9000005    2    1    2  501    0 -0.68924971844E-01 -0.33326657282E+00 -0.89568350789E+03  0.11041279085E+04  0.64563873499E+03 0.  0.
         13    1    3    3    0    0 -0.31816135942E+03  0.25159786641E+02 -0.36468382902E+03  0.48461733423E+03  0.00000000000E+00 0.  1.
          3    1    3    3  501    0  0.31809243445E+03 -0.25493053214E+02 -0.53099967888E+03  0.61951057423E+03  0.00000000000E+00 0.  1.
         21    1    1    2  502  501  0.68924971844E-01  0.33326657282E+00  0.21277951493E+00  0.40136315511E+00  0.00000000000E+00 0. -1.
<mgrwt>
<rscale>  1 0.64563882E+03</rscale>
<asrwt>0</asrwt>
<pdfrwt beam="1">  1        1 0.38010724E+00 0.64563882E+03</pdfrwt>
<pdfrwt beam="2">0</pdfrwt>
<totfact> 0.16405000E+00</totfact>
</mgrwt>
</event>
<event>
 6    1  0.4625859E-003  0.6558010E+03  0.7818608E-02  0.9795954E-01
          1   -1    0    0  502    0  0.00000000000E+00  0.00000000000E+00  0.11231903050E+03  0.11231903050E+03  0.00000000000E+00 0.  1.
         13   -1    0    0    0    0 -0.00000000000E+00 -0.00000000000E+00 -0.10000000000E+04  0.10000000000E+04  0.00000000000E+00 0.  1.
    9000005    2    1    2  501    0  0.85022688671E+00 -0.29281646832E+00 -0.89243457162E+03  0.11074811218E+04  0.65580039795E+03 0.  0.
         13    1    3    3    0    0 -0.24313197410E+03 -0.21213303813E+03 -0.54234070934E+03  0.63106816407E+03  0.00000000000E+00 0.  1.
          1    1    3    3  501    0  0.24398220099E+03  0.21184022166E+03 -0.35009386228E+03  0.47641295776E+03  0.00000000000E+00 0.  1.
         21    1    1    2  502  501 -0.85022688671E+00  0.29281646832E+00  0.47536021136E+01  0.48379086699E+01  0.00000000000E+00 0. -1.
<mgrwt>
<rscale>  1 0.65580101E+03</rscale>
<asrwt>0</asrwt>
<pdfrwt beam="1">  1        1 0.40843370E+00 0.65580101E+03</pdfrwt>
<pdfrwt beam="2">0</pdfrwt>
<totfact> 0.12253211E+00</totfact>
</mgrwt>
</event>
<event>
 6    1  0.4625859E-003  0.6477706E+03  0.7818608E-02  0.9810972E-01
          1   -1    0    0  502    0  0.00000000000E+00  0.00000000000E+00  0.10547353347E+03  0.10547353347E+03  0.00000000000E+00 0.  1.
         13   -1    0    0    0    0 -0.00000000000E+00 -0.00000000000E+00 -0.10000000000E+04  0.10000000000E+04  0.00000000000E+00 0.  1.
    9000005    2    1    2  501    0 -0.13823060210E+00 -0.16618732392E+00 -0.89507567114E+03  0.11048833203E+04  0.64777052078E+03 0.  0.
         13    1    3    3    0    0  0.17490191069E+03 -0.76002735130E+02 -0.10214151040E+01  0.19070431930E+03  0.00000000000E+00 0.  1.
          1    1    3    3  501    0 -0.17504014130E+03  0.75836547806E+02 -0.89405425604E+03  0.91417900096E+03  0.00000000000E+00 0.  1.
         21    1    1    2  502  501  0.13823060210E+00  0.16618732392E+00  0.54920461660E+00  0.59021321307E+00  0.00000000000E+00 0. -1.
<mgrwt>
<rscale>  1 0.64777056E+03</rscale>
<asrwt>0</asrwt>
<pdfrwt beam="1">  1        1 0.38354093E+00 0.64777056E+03</pdfrwt>
<pdfrwt beam="2">0</pdfrwt>
<totfact> 0.15835884E+00</totfact>
</mgrwt>
</event>
<event>
 6    1  0.4625859E-003  0.6663816E+03  0.7818608E-02  0.9776517E-01
          1   -1    0    0  502    0  0.00000000000E+00  0.00000000000E+00  0.11102265504E+03  0.11102265504E+03  0.00000000000E+00 0.  1.
         13   -1    0    0    0    0 -0.00000000000E+00 -0.00000000000E+00 -0.10000000000E+04  0.10000000000E+04  0.00000000000E+00 0.  1.
    9000005    2    1    2  501    0  0.78058595916E-02 -0.96412285995E-02 -0.88897653849E+03  0.11110102238E+04  0.66638159587E+03 0.  0.
         13    1    3    3    0    0 -0.29877864735E+03 -0.11637154524E+03 -0.29347618474E+03  0.43467147095E+03  0.00000000000E+00 0.  1.
          3    1    3    3  501    0  0.29878645321E+03  0.11636190401E+03 -0.59550035375E+03  0.67633875288E+03  0.00000000000E+00 0.  1.
         21    1    1    2  502  501 -0.78058595916E-02  0.96412285996E-02 -0.80646846944E-03  0.12431215720E-01  0.00000000000E+00 0. -1.
<mgrwt>
<rscale>  1 0.66638160E+03</rscale>
<asrwt>0</asrwt>
<pdfrwt beam="1">  1        1 0.40371960E+00 0.66638160E+03</pdfrwt>
<pdfrwt beam="2">0</pdfrwt>
<totfact> 0.12837184E+00</totfact>
</mgrwt>
</event>
<event>
 6    1  0.4625859E-003  0.6566338E+03  0.7818608E-02  0.9794410E-01
          1   -1    0    0  502    0  0.00000000000E+00  0.00000000000E+00  0.11065431892E+03  0.11065431892E+03  0.00000000000E+00 0.  1.
         13   -1    0    0    0    0 -0.00000000000E+00 -0.00000000000E+00 -0.10000000000E+04  0.10000000000E+04  0.00000000000E+00 0.  1.
    9000005    2    1    2  501    0  0.58274100034E+00  0.58217445494E-01 -0.89217479815E+03  0.11077652222E+04  0.65663351585E+03 0.  0.
         13    1    3    3    0    0 -0.13947736229E+03 -0.26471234973E+03 -0.67328409383E+03  0.73677542962E+03  0.00000000000E+00 0.  1.
          1    1    3    3  501    0  0.14006010329E+03  0.26477056718E+03 -0.21889070432E+03  0.37098979260E+03  0.00000000000E+00 0.  1.
         21    1    1    2  502  501 -0.58274100034E+00 -0.58217445494E-01  0.28291170634E+01  0.28890966933E+01  0.00000000000E+00 0.  1.
<mgrwt>
<rscale>  1 0.65663378E+03</rscale>
<asrwt>0</asrwt>
<pdfrwt beam="1">  1        1 0.40238019E+00 0.65663378E+03</pdfrwt>
<pdfrwt beam="2">0</pdfrwt>
<totfact> 0.13039185E+00</totfact>
</mgrwt>
</event>
<event>
 6    1  0.4625859E-003  0.6520974E+03  0.7818608E-02  0.9802852E-01
          1   -1    0    0  502    0  0.00000000000E+00  0.00000000000E+00  0.10630779262E+03  0.10630779262E+03  0.00000000000E+00 0.  1.
         13   -1    0    0    0    0 -0.00000000000E+00 -0.00000000000E+00 -0.10000000000E+04  0.10000000000E+04  0.00000000000E+00 0.  1.
    9000005    2    1    2  501    0 -0.24842342441E-05  0.81293890553E-06 -0.89369224917E+03  0.11063077507E+04  0.65209738777E+03 0.  0.
         13    1    3    3    0    0 -0.32143795773E+03 -0.40643876797E+01 -0.53928597083E+03  0.62782819167E+03  0.00000000000E+00 0.  1.
          3    1    3    3  501    0  0.32143795525E+03  0.40643884927E+01 -0.35440627834E+03  0.47847955908E+03  0.00000000000E+00 0.  1.
         21    1    1    2  502  501  0.24842342270E-05 -0.81293890537E-06  0.41794343803E-04  0.41876001042E-04  0.00000000000E+00 0.  1.
<mgrwt>
<rscale>  1 0.65209739E+03</rscale>
<asrwt>0</asrwt>
<pdfrwt beam="1">  1        1 0.38657461E+00 0.65209739E+03</pdfrwt>
<pdfrwt beam="2">0</pdfrwt>
<totfact> 0.15341799E+00</totfact>
</mgrwt>
</event>
<event>
 6    1  0.4625859E-003  0.6516075E+03  0.7818608E-02  0.9803768E-01
          1   -1    0    0  502    0  0.00000000000E+00  0.00000000000E+00  0.10616771047E+03  0.10616771047E+03  0.00000000000E+00 0.  1.
         13   -1    0    0    0    0 -0.00000000000E+00 -0.00000000000E+00 -0.10000000000E+04  0.10000000000E+04  0.00000000000E+00 0.  1.
    9000005    2    1    2  501    0 -0.25731808285E-03 -0.10791013884E-03 -0.89385192940E+03  0.11061480686E+04  0.65160745700E+03 0.  0.
         13    1    3    3    0    0 -0.56291535847E+02 -0.10417071965E+03  0.68329456547E+02  0.13670841405E+03  0.00000000000E+00 0.  1.
          1    1    3    3  501    0  0.56291278529E+02  0.10417061174E+03 -0.96218138595E+03  0.96943965457E+03  0.00000000000E+00 0.  1.
         21    1    1    2  502  501  0.25731808285E-03  0.10791013883E-03  0.19639865522E-01  0.19641847544E-01  0.00000000000E+00 0.  1.
<mgrwt>
<rscale>  1 0.65160746E+03</rscale>
<asrwt>0</asrwt>
<pdfrwt beam="1">  1        1 0.38606522E+00 0.65160746E+03</pdfrwt>
<pdfrwt beam="2">0</pdfrwt>
<totfact> 0.15423051E+00</totfact>
</mgrwt>
</event>
<event>
 6    1  0.4625859E-003  0.6628415E+03  0.7818608E-02  0.9782977E-01
          1   -1    0    0  502    0  0.00000000000E+00  0.00000000000E+00  0.12538789927E+03  0.12538789927E+03  0.00000000000E+00 0.  1.
         13   -1    0    0    0    0 -0.00000000000E+00 -0.00000000000E+00 -0.10000000000E+04  0.10000000000E+04  0.00000000000E+00 0.  1.
    9000005    2    1    2  501    0 -0.10549089084E+00 -0.39787670731E+00 -0.89015726824E+03  0.11098372830E+04  0.66284135587E+03 0.  0.
         13    1    3    3    0    0  0.18055744330E+03 -0.13613471063E+03 -0.85095765010E+03  0.88048996135E+03  0.00000000000E+00 0.  1.
          3    1    3    3  501    0 -0.18066293419E+03  0.13573683393E+03 -0.39199618138E+02  0.22934732163E+03  0.00000000000E+00 0.  1.
         21    1    1    2  502  501  0.10549089084E+00  0.39787670731E+00  0.15545167510E+02  0.15550616294E+02  0.00000000000E+00 0.  1.
<mgrwt>
<rscale>  1 0.66284148E+03</rscale>
<asrwt>0</asrwt>
<pdfrwt beam="1">  1        1 0.45595696E+00 0.66284148E+03</pdfrwt>
<pdfrwt beam="2">0</pdfrwt>
<totfact> 0.74374076E-01</totfact>
</mgrwt>
</event>
<event>
 6    1  0.4625859E-003  0.6383750E+03  0.7818608E-02  0.9828841E-01
          1   -1    0    0  502    0  0.00000000000E+00  0.00000000000E+00  0.10211664816E+03  0.10211664816E+03  0.00000000000E+00 0.  1.
         13   -1    0    0    0    0 -0.00000000000E+00 -0.00000000000E+00 -0.10000000000E+04  0.10000000000E+04  0.00000000000E+00 0.  1.
    9000005    2    1    2  501    0  0.75406469599E-02 -0.55795079259E-02 -0.89811924402E+03  0.11018805695E+04  0.63837497835E+03 0.  0.
         13    1    3    3    0    0 -0.29205972599E+03  0.37784634676E+02 -0.66152010420E+03  0.72411008170E+03  0.00000000000E+00 0.  1.
          1    1    3    3  501    0  0.29206726663E+03 -0.37790214184E+02 -0.23659913982E+03  0.37777048785E+03  0.00000000000E+00 0.  1.
         21    1    1    2  502  501 -0.75406469599E-02  0.55795079259E-02  0.23589217986E+00  0.23607861569E+00  0.00000000000E+00 0.  1.
<mgrwt>
<rscale>  1 0.63837498E+03</rscale>
<asrwt>0</asrwt>
<pdfrwt beam="1">  1        1 0.37133405E+00 0.63837498E+03</pdfrwt>
<pdfrwt beam="2">0</pdfrwt>
<totfact> 0.17954965E+00</totfact>
</mgrwt>
</event>
<event>
 6    1  0.4625859E-003  0.6444675E+03  0.7818608E-02  0.9817216E-01
          1   -1    0    0  502    0  0.00000000000E+00  0.00000000000E+00  0.10383514865E+03  0.10383514865E+03  0.00000000000E+00 0.  1.
         13   -1    0    0    0    0 -0.00000000000E+00 -0.00000000000E+00 -0.10000000000E+04  0.10000000000E+04  0.00000000000E+00 0.  1.
    9000005    2    1    2  501    0 -0.16917467387E-02 -0.48541248319E-04 -0.89616302532E+03  0.11038326589E+04  0.64446750963E+03 0.  0.
         13    1    3    3    0    0 -0.21336536392E+03 -0.99437052086E+02 -0.71182765338E+02  0.24592578541E+03  0.00000000000E+00 0.  1.
          3    1    3    3  501    0  0.21336367217E+03  0.99437003545E+02 -0.82498025998E+03  0.85790687352E+03  0.00000000000E+00 0.  1.
         21    1    1    2  502  501  0.16917467387E-02  0.48541248314E-04 -0.18260230809E-02  0.24897235936E-02  0.00000000000E+00 0. -1.
<mgrwt>
<rscale>  1 0.64446751E+03</rscale>
<asrwt>0</asrwt>
<pdfrwt beam="1">  1        1 0.37758315E+00 0.64446751E+03</pdfrwt>
<pdfrwt beam="2">0</pdfrwt>
<totfact> 0.16834499E+00</totfact>
</mgrwt>
</event>
<event>
 6    1  0.4625859E-003  0.6604406E+03  0.7818608E-02  0.9787383E-01
          1   -1    0    0  502    0  0.00000000000E+00  0.00000000000E+00  0.10904549323E+03  0.10904549323E+03  0.00000000000E+00 0.  1.
         13   -1    0    0    0    0 -0.00000000000E+00 -0.00000000000E+00 -0.10000000000E+04  0.10000000000E+04  0.00000000000E+00 0.  1.
    9000005    2    1    2  501    0 -0.36489259742E-04 -0.10001097905E-04 -0.89095456176E+03  0.11090454265E+04  0.66044055513E+03 0.  0.
         13    1    3    3    0    0  0.27136358619E+03  0.17656918696E+03 -0.55470018901E+03  0.64226721337E+03  0.00000000000E+00 0.  1.
          3    1    3    3  501    0 -0.27136362268E+03 -0.17656919696E+03 -0.33625437276E+03  0.46677821310E+03  0.00000000000E+00 0.  1.
         21    1    1    2  502  501  0.36489259748E-04  0.10001097893E-04  0.54992558552E-04  0.66750801734E-04  0.00000000000E+00 0. -1.
<mgrwt>
<rscale>  1 0.66044056E+03</rscale>
<asrwt>0</asrwt>
<pdfrwt beam="1">  1        1 0.39652990E+00 0.66044056E+03</pdfrwt>
<pdfrwt beam="2">0</pdfrwt>
<totfact> 0.13836186E+00</totfact>
</mgrwt>
</event>
<event>
 6    1  0.4625859E-003  0.4762637E+03  0.7818608E-02  0.1020167E+00
          1   -1    0    0  502    0  0.00000000000E+00  0.00000000000E+00  0.56843708267E+02  0.56843708267E+02  0.00000000000E+00 0.  1.
         13   -1    0    0    0    0 -0.00000000000E+00 -0.00000000000E+00 -0.10000000000E+04  0.10000000000E+04  0.00000000000E+00 0.  1.
    9000005    2    1    2  501    0 -0.47353483264E-02  0.38142225633E-02 -0.94329314966E+03  0.10567067153E+04  0.47626370426E+03 0.  0.
         13    1    3    3    0    0  0.32642894737E+02  0.69487012911E+02  0.28495640771E+02  0.81890201387E+02  0.00000000000E+00 0.  1.
          3    1    3    3  501    0 -0.32647630085E+02 -0.69483198689E+02 -0.97178879043E+03  0.97481651395E+03  0.00000000000E+00 0.  1.
         21    1    1    2  502  501  0.47353483264E-02 -0.38142225633E-02  0.13685792841E+00  0.13699293554E+00  0.00000000000E+00 0. -1.
<mgrwt>
<rscale>  1 0.47626370E+03</rscale>
<asrwt>0</asrwt>
<pdfrwt beam="1">  1        1 0.20670483E+00 0.47626370E+03</pdfrwt>
<pdfrwt beam="2">0</pdfrwt>
<totfact> 0.96242896E+00</totfact>
</mgrwt>
</event>
<event>
 6    1  0.4625859E-003  0.6521819E+03  0.7818608E-02  0.9802694E-01
          1   -1    0    0  502    0  0.00000000000E+00  0.00000000000E+00  0.10641906268E+03  0.10641906268E+03  0.00000000000E+00 0.  1.
         13   -1    0    0    0    0 -0.00000000000E+00 -0.00000000000E+00 -0.10000000000E+04  0.10000000000E+04  0.00000000000E+00 0.  1.
    9000005    2    1    2  501    0 -0.26986926417E-03 -0.12843818262E-02 -0.89366469572E+03  0.11063352940E+04  0.65218187216E+03 0.  0.
         13    1    3    3    0    0 -0.31913102961E+03 -0.51744249313E+02 -0.37459541407E+03  0.49481694154E+03  0.00000000000E+00 0.  1.
          3    1    3    3  501    0  0.31913075974E+03  0.51742964931E+02 -0.51906928165E+03  0.61151835246E+03  0.00000000000E+00 0.  1.
         21    1    1    2  502  501  0.26986926417E-03  0.12843818262E-02  0.83758397929E-01  0.83768679647E-01  0.00000000000E+00 0. -1.
<mgrwt>
<rscale>  1 0.65218187E+03</rscale>
<asrwt>0</asrwt>
<pdfrwt beam="1">  1        1 0.38697923E+00 0.65218187E+03</pdfrwt>
<pdfrwt beam="2">0</pdfrwt>
<totfact> 0.15278409E+00</totfact>
</mgrwt>
</event>
<event>
 6    1  0.4625859E-003  0.6382495E+03  0.7818608E-02  0.9829081E-01
          1   -1    0    0  502    0  0.00000000000E+00  0.00000000000E+00  0.10184068234E+03  0.10184068234E+03  0.00000000000E+00 0.  1.
         13   -1    0    0    0    0 -0.00000000000E+00 -0.00000000000E+00 -0.10000000000E+04  0.10000000000E+04  0.00000000000E+00 0.  1.
    9000005    2    1    2  501    0  0.33811408969E-04 -0.29192181302E-04 -0.89815939656E+03  0.11018405917E+04  0.63824947146E+03 0.  0.
         13    1    3    3    0    0 -0.53804904017E+02 -0.21602636126E+03 -0.54360006728E+02  0.22916667905E+03  0.00000000000E+00 0.  1.
          3    1    3    3  501    0  0.53804937828E+02  0.21602633207E+03 -0.84379938983E+03  0.87267391262E+03  0.00000000000E+00 0.  1.
         21    1    1    2  502  501 -0.33811408971E-04  0.29192181286E-04  0.78899992766E-04  0.90667544818E-04  0.00000000000E+00 0.  1.
<mgrwt>
<rscale>  1 0.63824947E+03</rscale>
<asrwt>0</asrwt>
<pdfrwt beam="1">  1        1 0.37033053E+00 0.63824947E+03</pdfrwt>
<pdfrwt beam="2">0</pdfrwt>
<totfact> 0.18138584E+00</totfact>
</mgrwt>
</event>
<event>
 6    1  0.4625859E-003  0.6491656E+03  0.7818608E-02  0.9808346E-01
          1   -1    0    0  502    0  0.00000000000E+00  0.00000000000E+00  0.10599347782E+03  0.10599347782E+03  0.00000000000E+00 0.  1.
         13   -1    0    0    0    0 -0.00000000000E+00 -0.00000000000E+00 -0.10000000000E+04  0.10000000000E+04  0.00000000000E+00 0.  1.
    9000005    2    1    2  501    0  0.14095381341E+00  0.92039142154E+00 -0.89424771550E+03  0.11050316241E+04  0.64916488400E+03 0.  0.
         13    1    3    3    0    0 -0.81622375991E+02  0.26295270763E+03 -0.74135397977E+03  0.79082998302E+03  0.00000000000E+00 0.  1.
          1    1    3    3  501    0  0.81763329804E+02 -0.26203231621E+03 -0.15289373573E+03  0.31420164109E+03  0.00000000000E+00 0.  1.
         21    1    1    2  502  501 -0.14095381341E+00 -0.92039142154E+00  0.24119332435E+00  0.96185371344E+00  0.00000000000E+00 0.  1.
<mgrwt>
<rscale>  1 0.64916555E+03</rscale>
<asrwt>0</asrwt>
<pdfrwt beam="1">  1        1 0.38543164E+00 0.64916555E+03</pdfrwt>
<pdfrwt beam="2">0</pdfrwt>
<totfact> 0.15529943E+00</totfact>
</mgrwt>
</event>
<event>
 6    1  0.4625859E-003  0.6429756E+03  0.7818608E-02  0.9820050E-01
          1   -1    0    0  502    0  0.00000000000E+00  0.00000000000E+00  0.10335477760E+03  0.10335477760E+03  0.00000000000E+00 0.  1.
         13   -1    0    0    0    0 -0.00000000000E+00 -0.00000000000E+00 -0.10000000000E+04  0.10000000000E+04  0.00000000000E+00 0.  1.
    9000005    2    1    2  501    0  0.13443508124E-04 -0.35757357146E-05 -0.89664558193E+03  0.11033544178E+04  0.64297563848E+03 0.  0.
         13    1    3    3    0    0 -0.15564048652E+03 -0.27025286744E+02 -0.92880663916E+03  0.94214441574E+03  0.00000000000E+00 0.  1.
          3    1    3    3  501    0  0.15564049997E+03  0.27025283168E+02  0.32161057228E+02  0.16121000206E+03  0.00000000000E+00 0.  1.
         21    1    1    2  502  501 -0.13443508147E-04  0.35757357140E-05  0.35953308378E-03  0.35980210134E-03  0.00000000000E+00 0. -1.
<mgrwt>
<rscale>  1 0.64297564E+03</rscale>
<asrwt>0</asrwt>
<pdfrwt beam="1">  1        1 0.37583635E+00 0.64297564E+03</pdfrwt>
<pdfrwt beam="2">0</pdfrwt>
<totfact> 0.17140130E+00</totfact>
</mgrwt>
</event>
<event>
 6    1  0.4625859E-003  0.6399437E+03  0.7818608E-02  0.9825834E-01
          1   -1    0    0  502    0  0.00000000000E+00  0.00000000000E+00  0.10238371082E+03  0.10238371082E+03  0.00000000000E+00 0.  1.
         13   -1    0    0    0    0 -0.00000000000E+00 -0.00000000000E+00 -0.10000000000E+04  0.10000000000E+04  0.00000000000E+00 0.  1.
    9000005    2    1    2  501    0 -0.79095930869E-03 -0.86145238939E-03 -0.89761780431E+03  0.11023817968E+04  0.63994367205E+03 0.  0.
         13    1    3    3    0    0 -0.14839709399E+02  0.73320660166E+01 -0.99926183421E+03  0.99939891408E+03  0.00000000000E+00 0.  1.
          3    1    3    3  501    0  0.14838918440E+02 -0.73329274690E+01  0.10164402990E+03  0.10298288276E+03  0.00000000000E+00 0.  1.
         21    1    1    2  502  501  0.79095930869E-03  0.86145238939E-03  0.15151281155E-02  0.19139827726E-02  0.00000000000E+00 0. -1.
<mgrwt>
<rscale>  1 0.63994367E+03</rscale>
<asrwt>0</asrwt>
<pdfrwt beam="1">  1        1 0.37230519E+00 0.63994367E+03</pdfrwt>
<pdfrwt beam="2">0</pdfrwt>
<totfact> 0.17774268E+00</totfact>
</mgrwt>
</event>
<event>
 6    1  0.4625859E-003  0.6176371E+03  0.7818608E-02  0.9869476E-01
          1   -1    0    0  502    0  0.00000000000E+00  0.00000000000E+00  0.95369391913E+02  0.95369391913E+02  0.00000000000E+00 0.  1.
         13   -1    0    0    0    0 -0.00000000000E+00 -0.00000000000E+00 -0.10000000000E+04  0.10000000000E+04  0.00000000000E+00 0.  1.
    9000005    2    1    2  501    0 -0.72316739974E-05  0.94809978695E-05 -0.90463111611E+03  0.10953688838E+04  0.61763705788E+03 0.  0.
         13    1    3    3    0    0  0.16125427912E+02 -0.13642491879E+02  0.94086315375E+02  0.96428117014E+02  0.00000000000E+00 0.  1.
          1    1    3    3  501    0 -0.16125435144E+02  0.13642501360E+02 -0.99871743148E+03  0.99894076674E+03  0.00000000000E+00 0.  1.
         21    1    1    2  502  501  0.72316739969E-05 -0.94809978688E-05  0.50802078160E-03  0.50816070388E-03  0.00000000000E+00 0.  1.
<mgrwt>
<rscale>  1 0.61763706E+03</rscale>
<asrwt>0</asrwt>
<pdfrwt beam="1">  1        1 0.34679852E+00 0.61763706E+03</pdfrwt>
<pdfrwt beam="2">0</pdfrwt>
<totfact> 0.23072144E+00</totfact>
</mgrwt>
</event>
<event>
 6    1  0.4625859E-003  0.6538489E+03  0.7818608E-02  0.9799584E-01
          1   -1    0    0  502    0  0.00000000000E+00  0.00000000000E+00  0.10734597095E+03  0.10734597095E+03  0.00000000000E+00 0.  1.
         13   -1    0    0    0    0 -0.00000000000E+00 -0.00000000000E+00 -0.10000000000E+04  0.10000000000E+04  0.00000000000E+00 0.  1.
    9000005    2    1    2  501    0 -0.20447544173E-01 -0.24471978559E+00 -0.89308434114E+03  0.11068505172E+04  0.65384888684E+03 0.  0.
         13    1    3    3    0    0  0.30336460039E+02 -0.22930474960E+03 -0.83796794321E+03  0.86930503440E+03  0.00000000000E+00 0.  1.
          3    1    3    3  501    0 -0.30356907583E+02  0.22906002981E+03 -0.55116397937E+02  0.23754548284E+03  0.00000000000E+00 0.  1.
         21    1    1    2  502  501  0.20447544173E-01  0.24471978559E+00  0.43031209048E+00  0.49545370191E+00  0.00000000000E+00 0. -1.
<mgrwt>
<rscale>  1 0.65384893E+03</rscale>
<asrwt>0</asrwt>
<pdfrwt beam="1">  1        1 0.39034981E+00 0.65384893E+03</pdfrwt>
<pdfrwt beam="2">0</pdfrwt>
<totfact> 0.14757303E+00</totfact>
</mgrwt>
</event>
<event>
 6    1  0.4625859E-003  0.6570886E+03  0.7818608E-02  0.9793568E-01
          1   -1    0    0  502    0  0.00000000000E+00  0.00000000000E+00  0.10801358582E+03  0.10801358582E+03  0.00000000000E+00 0.  1.
         13   -1    0    0    0    0 -0.00000000000E+00 -0.00000000000E+00 -0.10000000000E+04  0.10000000000E+04  0.00000000000E+00 0.  1.
    9000005    2    1    2  501    0  0.75480187077E-01  0.42686704532E-03 -0.89203611871E+03  0.11079232089E+04  0.65708857403E+03 0.  0.
         13    1    3    3    0    0  0.21935520879E+03  0.17864930334E+03 -0.16428694523E+03  0.32714290697E+03  0.00000000000E+00 0.  1.
          3    1    3    3  501    0 -0.21927972861E+03 -0.17864887647E+03 -0.72774917348E+03  0.78078030197E+03  0.00000000000E+00 0.  1.
         21    1    1    2  502  501 -0.75480187077E-01 -0.42686704530E-03  0.49704525175E-01  0.90376881333E-01  0.00000000000E+00 0. -1.
<mgrwt>
<rscale>  1 0.65708858E+03</rscale>
<asrwt>0</asrwt>
<pdfrwt beam="1">  1        1 0.39277750E+00 0.65708858E+03</pdfrwt>
<pdfrwt beam="2">0</pdfrwt>
<totfact> 0.14387008E+00</totfact>
</mgrwt>
</event>
<event>
 6    1  0.4625859E-003  0.6555940E+03  0.7818608E-02  0.9796339E-01
          1   -1    0    0  502    0  0.00000000000E+00  0.00000000000E+00  0.10842845952E+03  0.10842845952E+03  0.00000000000E+00 0.  1.
         13   -1    0    0    0    0 -0.00000000000E+00 -0.00000000000E+00 -0.10000000000E+04  0.10000000000E+04  0.00000000000E+00 0.  1.
    9000005    2    1    2  501    0  0.32470351900E-01 -0.14321551822E-02 -0.89254882058E+03  0.11074506391E+04  0.65559402063E+03 0.  0.
         13    1    3    3    0    0 -0.16895312961E+02  0.22936008619E+03 -0.84083945354E+03  0.87172385958E+03  0.00000000000E+00 0.  1.
          1    1    3    3  501    0  0.16927783313E+02 -0.22936151834E+03 -0.51709367037E+02  0.23572677952E+03  0.00000000000E+00 0.  1.
         21    1    1    2  502  501 -0.32470351900E-01  0.14321551822E-02  0.97728009529E+00  0.97782041269E+00  0.00000000000E+00 0.  1.
<mgrwt>
<rscale>  1 0.65559402E+03</rscale>
<asrwt>0</asrwt>
<pdfrwt beam="1">  1        1 0.39428614E+00 0.65559402E+03</pdfrwt>
<pdfrwt beam="2">0</pdfrwt>
<totfact> 0.14170610E+00</totfact>
</mgrwt>
</event>
<event>
 6    1  0.4625859E-003  0.6518948E+03  0.7818608E-02  0.9803230E-01
          1   -1    0    0  502    0  0.00000000000E+00  0.00000000000E+00  0.11373415795E+03  0.11373415795E+03  0.00000000000E+00 0.  1.
         13   -1    0    0    0    0 -0.00000000000E+00 -0.00000000000E+00 -0.10000000000E+04  0.10000000000E+04  0.00000000000E+00 0.  1.
    9000005    2    1    2  501    0  0.61659439493E+00 -0.69732067693E+00 -0.89372629409E+03  0.11062158610E+04  0.65189414468E+03 0.  0.
         13    1    3    3    0    0  0.21044757648E+03  0.16558049185E+03 -0.13147211491E+03  0.29831191515E+03  0.00000000000E+00 0.  1.
          1    1    3    3  501    0 -0.20983098208E+03 -0.16627781252E+03 -0.76225417919E+03  0.80790394582E+03  0.00000000000E+00 0.  1.
         21    1    1    2  502  501 -0.61659439493E+00  0.69732067693E+00  0.74604520472E+01  0.75182969829E+01  0.00000000000E+00 0. -1.
<mgrwt>
<rscale>  1 0.65189481E+03</rscale>
<asrwt>0</asrwt>
<pdfrwt beam="1">  1        1 0.41357963E+00 0.65189481E+03</pdfrwt>
<pdfrwt beam="2">0</pdfrwt>
<totfact> 0.11627705E+00</totfact>
</mgrwt>
</event>
<event>
 6    1  0.4625859E-003  0.6565620E+03  0.7818608E-02  0.9794543E-01
          1   -1    0    0  502    0  0.00000000000E+00  0.00000000000E+00  0.10777125711E+03  0.10777125711E+03  0.00000000000E+00 0.  1.
         13   -1    0    0    0    0 -0.00000000000E+00 -0.00000000000E+00 -0.10000000000E+04  0.10000000000E+04  0.00000000000E+00 0.  1.
    9000005    2    1    2  501    0 -0.74509332634E-03 -0.36774760281E-03 -0.89223152619E+03  0.11077683524E+04  0.65656197446E+03 0.  0.
         13    1    3    3    0    0 -0.26159801546E+02 -0.16014301860E+03 -0.92760645091E+03  0.94169201409E+03  0.00000000000E+00 0.  1.
          1    1    3    3  501    0  0.26159056452E+02  0.16014265086E+03  0.35374924717E+02  0.16607633834E+03  0.00000000000E+00 0.  1.
         21    1    1    2  502  501  0.74509332634E-03  0.36774760280E-03  0.27833026424E-02  0.29046817319E-02  0.00000000000E+00 0.  1.
<mgrwt>
<rscale>  1 0.65656197E+03</rscale>
<asrwt>0</asrwt>
<pdfrwt beam="1">  1        1 0.39189631E+00 0.65656197E+03</pdfrwt>
<pdfrwt beam="2">0</pdfrwt>
<totfact> 0.14518635E+00</totfact>
</mgrwt>
</event>
<event>
 6    1  0.4625859E-003  0.6527400E+03  0.7818608E-02  0.9801651E-01
          1   -1    0    0  502    0  0.00000000000E+00  0.00000000000E+00  0.10667491945E+03  0.10667491945E+03  0.00000000000E+00 0.  1.
         13   -1    0    0    0    0 -0.00000000000E+00 -0.00000000000E+00 -0.10000000000E+04  0.10000000000E+04  0.00000000000E+00 0.  1.
    9000005    2    1    2  501    0  0.19389518832E-01 -0.40289479693E-02 -0.89348192540E+03  0.11065168293E+04  0.65274002645E+03 0.  0.
         13    1    3    3    0    0 -0.27427083438E+03  0.13709321088E+03 -0.25725795934E+03  0.40025079226E+03  0.00000000000E+00 0.  1.
          1    1    3    3  501    0  0.27429022390E+03 -0.13709723983E+03 -0.63622396607E+03  0.70626603705E+03  0.00000000000E+00 0.  1.
         21    1    1    2  502  501 -0.19389518832E-01  0.40289479693E-02  0.15684485150E+00  0.15809014297E+00  0.00000000000E+00 0.  1.
<mgrwt>
<rscale>  1 0.65274003E+03</rscale>
<asrwt>0</asrwt>
<pdfrwt beam="1">  1        1 0.38790962E+00 0.65274003E+03</pdfrwt>
<pdfrwt beam="2">0</pdfrwt>
<totfact> 0.15132573E+00</totfact>
</mgrwt>
</event>
<event>
 6    1  0.4625859E-003  0.6631465E+03  0.7818608E-02  0.9782419E-01
          1   -1    0    0  502    0  0.00000000000E+00  0.00000000000E+00  0.10994092391E+03  0.10994092391E+03  0.00000000000E+00 0.  1.
         13   -1    0    0    0    0 -0.00000000000E+00 -0.00000000000E+00 -0.10000000000E+04  0.10000000000E+04  0.00000000000E+00 0.  1.
    9000005    2    1    2  501    0 -0.47088098825E-05 -0.34853613897E-05 -0.89005918806E+03  0.11099408118E+04  0.66314647510E+03 0.  0.
         13    1    3    3    0    0  0.10782376309E+03 -0.30364719363E+03 -0.57589526552E+03  0.65991131142E+03  0.00000000000E+00 0.  1.
          1    1    3    3  501    0 -0.10782376779E+03  0.30364719014E+03 -0.31416392254E+03  0.45002950038E+03  0.00000000000E+00 0.  1.
         21    1    1    2  502  501  0.47088098872E-05  0.34853614059E-05  0.11196214208E-03  0.11211530625E-03  0.00000000000E+00 0. -1.
<mgrwt>
<rscale>  1 0.66314648E+03</rscale>
<asrwt>0</asrwt>
<pdfrwt beam="1">  1        1 0.39978602E+00 0.66314648E+03</pdfrwt>
<pdfrwt beam="2">0</pdfrwt>
<totfact> 0.13374943E+00</totfact>
</mgrwt>
</event>
<event>
 6    1  0.4625859E-003  0.6568255E+03  0.7818608E-02  0.9794055E-01
          1   -1    0    0  502    0  0.00000000000E+00  0.00000000000E+00  0.10790181782E+03  0.10790181782E+03  0.00000000000E+00 0.  1.
         13   -1    0    0    0    0 -0.00000000000E+00 -0.00000000000E+00 -0.10000000000E+04  0.10000000000E+04  0.00000000000E+00 0.  1.
    9000005    2    1    2  501    0 -0.38353139382E-03 -0.64063960536E-03 -0.89214507202E+03  0.11078549220E+04  0.65682547054E+03 0.  0.
         13    1    3    3    0    0 -0.88560516197E+02 -0.31110522259E+03 -0.54186896692E+03  0.63107162974E+03  0.00000000000E+00 0.  1.
          1    1    3    3  501    0  0.88560132666E+02  0.31110458195E+03 -0.35027610510E+03  0.47678329230E+03  0.00000000000E+00 0.  1.
         21    1    1    2  502  501  0.38353139383E-03  0.64063960532E-03  0.46889841815E-01  0.46895786387E-01  0.00000000000E+00 0.  1.
<mgrwt>
<rscale>  1 0.65682547E+03</rscale>
<asrwt>0</asrwt>
<pdfrwt beam="1">  1        1 0.39237107E+00 0.65682547E+03</pdfrwt>
<pdfrwt beam="2">0</pdfrwt>
<totfact> 0.14447631E+00</totfact>
</mgrwt>
</event>
<event>
 6    1  0.4625859E-003  0.6212741E+03  0.7818608E-02  0.9862226E-01
          1   -1    0    0  502    0  0.00000000000E+00  0.00000000000E+00  0.96718837754E+02  0.96718837754E+02  0.00000000000E+00 0.  1.
         13   -1    0    0    0    0 -0.00000000000E+00 -0.00000000000E+00 -0.10000000000E+04  0.10000000000E+04  0.00000000000E+00 0.  1.
    9000005    2    1    2  501    0 -0.32360385783E-01 -0.23311879255E-01 -0.90350265510E+03  0.10964937828E+04  0.62127414755E+03 0.  0.
         13    1    3    3    0    0 -0.17667668024E+03  0.31993661050E+02 -0.89916752870E+03  0.91691901952E+03  0.00000000000E+00 0.  1.
          1    1    3    3  501    0  0.17664431986E+03 -0.32016972929E+02 -0.43351263944E+01  0.17957476330E+03  0.00000000000E+00 0.  1.
         21    1    1    2  502  501  0.32360385783E-01  0.23311879255E-01  0.22149285251E+00  0.22505493106E+00  0.00000000000E+00 0.  1.
<mgrwt>
<rscale>  1 0.62127415E+03</rscale>
<asrwt>0</asrwt>
<pdfrwt beam="1">  1        1 0.35170561E+00 0.62127415E+03</pdfrwt>
<pdfrwt beam="2">0</pdfrwt>
<totfact> 0.21949739E+00</totfact>
</mgrwt>
</event>
<event>
 6    1  0.4625859E-003  0.6455903E+03  0.7818608E-02  0.9815089E-01
          1   -1    0    0  502    0  0.00000000000E+00  0.00000000000E+00  0.10436570165E+03  0.10436570165E+03  0.00000000000E+00 0.  1.
         13   -1    0    0    0    0 -0.00000000000E+00 -0.00000000000E+00 -0.10000000000E+04  0.10000000000E+04  0.00000000000E+00 0.  1.
    9000005    2    1    2  501    0  0.18396773543E+00 -0.73370785758E-01 -0.89573671942E+03  0.11041427275E+04  0.64559031354E+03 0.  0.
         13    1    3    3    0    0  0.23140483567E+02  0.16198100795E+03 -0.92371591820E+03  0.93809617122E+03  0.00000000000E+00 0.  1.
          3    1    3    3  501    0 -0.22956515831E+02 -0.16205437873E+03  0.27979198785E+02  0.16604655627E+03  0.00000000000E+00 0.  1.
         21    1    1    2  502  501 -0.18396773543E+00  0.73370785758E-01  0.10242106597E+00  0.22297415688E+00  0.00000000000E+00 0.  1.
<mgrwt>
<rscale>  1 0.64559034E+03</rscale>
<asrwt>0</asrwt>
<pdfrwt beam="1">  1        1 0.37951244E+00 0.64559034E+03</pdfrwt>
<pdfrwt beam="2">0</pdfrwt>
<totfact> 0.16504570E+00</totfact>
</mgrwt>
</event>
<event>
 6    1  0.4625859E-003  0.6579563E+03  0.7818608E-02  0.9791963E-01
          1   -1    0    0  502    0  0.00000000000E+00  0.00000000000E+00  0.10822948366E+03  0.10822948366E+03  0.00000000000E+00 0.  1.
         13   -1    0    0    0    0 -0.00000000000E+00 -0.00000000000E+00 -0.10000000000E+04  0.10000000000E+04  0.00000000000E+00 0.  1.
    9000005    2    1    2  501    0 -0.13431897546E-03 -0.51645808483E-03 -0.89177335558E+03  0.11082265947E+04  0.65795628084E+03 0.  0.
         13    1    3    3    0    0 -0.12081383240E+03 -0.16639104592E+03 -0.13351479209E+02  0.20605878835E+03  0.00000000000E+00 0.  1.
          3    1    3    3  501    0  0.12081369808E+03  0.16639052946E+03 -0.87842187637E+03  0.90216780635E+03  0.00000000000E+00 0.  1.
         21    1    1    2  502  501  0.13431897546E-03  0.51645808484E-03  0.28392377321E-02  0.28889516161E-02  0.00000000000E+00 0. -1.
<mgrwt>
<rscale>  1 0.65795628E+03</rscale>
<asrwt>0</asrwt>
<pdfrwt beam="1">  1        1 0.39356259E+00 0.65795628E+03</pdfrwt>
<pdfrwt beam="2">0</pdfrwt>
<totfact> 0.14269633E+00</totfact>
</mgrwt>
</event>
<event>
 6    1  0.4625859E-003  0.6388159E+03  0.7818608E-02  0.9827995E-01
          1   -1    0    0  502    0  0.00000000000E+00  0.00000000000E+00  0.10202193175E+03  0.10202193175E+03  0.00000000000E+00 0.  1.
         13   -1    0    0    0    0 -0.00000000000E+00 -0.00000000000E+00 -0.10000000000E+04  0.10000000000E+04  0.00000000000E+00 0.  1.
    9000005    2    1    2  501    0 -0.28829997910E-03  0.12853420776E-03 -0.89797851764E+03  0.11020213826E+04  0.63881586512E+03 0.  0.
         13    1    3    3    0    0  0.12729234260E+03 -0.26916001066E+03 -0.64846696975E+03  0.71355438663E+03  0.00000000000E+00 0.  1.
          3    1    3    3  501    0 -0.12729263090E+03  0.26916013920E+03 -0.24951154789E+03  0.38846699595E+03  0.00000000000E+00 0.  1.
         21    1    1    2  502  501  0.28829997911E-03 -0.12853420772E-03  0.44938344665E-03  0.54916609749E-03  0.00000000000E+00 0. -1.
<mgrwt>
<rscale>  1 0.63881587E+03</rscale>
<asrwt>0</asrwt>
<pdfrwt beam="1">  1        1 0.37098963E+00 0.63881587E+03</pdfrwt>
<pdfrwt beam="2">0</pdfrwt>
<totfact> 0.18016195E+00</totfact>
</mgrwt>
</event>
<event>
 6    1  0.4625859E-003  0.6486798E+03  0.7818608E-02  0.9809260E-01
          3   -1    0    0  502    0  0.00000000000E+00  0.00000000000E+00  0.10754806812E+03  0.10754806812E+03  0.00000000000E+00 0.  1.
         13   -1    0    0    0    0 -0.00000000000E+00 -0.00000000000E+00 -0.10000000000E+04  0.10000000000E+04  0.00000000000E+00 0.  1.
    9000005    2    1    2  501    0  0.85270683380E+00 -0.16874446842E+01 -0.89437624111E+03  0.11048503757E+04  0.64867705170E+03 0.  0.
         13    1    3    3    0    0 -0.21792886079E+03 -0.23552045582E+03 -0.53182624562E+03  0.62112963945E+03  0.00000000000E+00 0.  1.
          1    1    3    3  501    0  0.21878156762E+03  0.23383301114E+03 -0.36254999548E+03  0.48372073623E+03  0.00000000000E+00 0.  1.
         21    1    1    2  502  501 -0.85270683380E+00  0.16874446842E+01  0.19243092220E+01  0.26976924377E+01  0.00000000000E+00 0. -1.
<mgrwt>
<rscale>  1 0.64867981E+03</rscale>
<asrwt>0</asrwt>
<pdfrwt beam="1">  1        3 0.39108471E+00 0.64867981E+03</pdfrwt>
<pdfrwt beam="2">0</pdfrwt>
<totfact> 0.65993259E-02</totfact>
</mgrwt>
</event>
<event>
 6    1  0.4625859E-003  0.6476263E+03  0.7818608E-02  0.9811243E-01
          1   -1    0    0  502    0  0.00000000000E+00  0.00000000000E+00  0.10485498601E+03  0.10485498601E+03  0.00000000000E+00 0.  1.
         13   -1    0    0    0    0 -0.00000000000E+00 -0.00000000000E+00 -0.10000000000E+04  0.10000000000E+04  0.00000000000E+00 0.  1.
    9000005    2    1    2  501    0  0.72669262181E-05 -0.63698432200E-05 -0.89514503191E+03  0.11048549656E+04  0.64762633282E+03 0.  0.
         13    1    3    3    0    0  0.99363008592E+02  0.29652860895E+03 -0.59084400314E+03  0.66850494348E+03  0.00000000000E+00 0.  1.
          1    1    3    3  501    0 -0.99363001325E+02 -0.29652861532E+03 -0.30430102877E+03  0.43635002217E+03  0.00000000000E+00 0.  1.
         21    1    1    2  502  501 -0.72669262188E-05  0.63698432721E-05  0.17926507197E-04  0.20365234599E-04  0.00000000000E+00 0. -1.
<mgrwt>
<rscale>  1 0.64762633E+03</rscale>
<asrwt>0</asrwt>
<pdfrwt beam="1">  1        1 0.38129166E+00 0.64762633E+03</pdfrwt>
<pdfrwt beam="2">0</pdfrwt>
<totfact> 0.16202788E+00</totfact>
</mgrwt>
</event>
<event>
 6    1  0.4625859E-003  0.6749167E+03  0.7818608E-02  0.9761116E-01
          1   -1    0    0  502    0  0.00000000000E+00  0.00000000000E+00  0.11391415514E+03  0.11391415514E+03  0.00000000000E+00 0.  1.
         13   -1    0    0    0    0 -0.00000000000E+00 -0.00000000000E+00 -0.10000000000E+04  0.10000000000E+04  0.00000000000E+00 0.  1.
    9000005    2    1    2  501    0  0.67853002844E-03  0.10565445990E-03 -0.88612186823E+03  0.11138781252E+04  0.67491667079E+03 0.  0.
         13    1    3    3    0    0  0.12067978583E+03  0.27160691085E+03 -0.17928553594E+03  0.34709829750E+03  0.00000000000E+00 0.  1.
          3    1    3    3  501    0 -0.12067910730E+03 -0.27160680520E+03 -0.70683633229E+03  0.76677982773E+03  0.00000000000E+00 0.  1.
         21    1    1    2  502  501 -0.67853002844E-03 -0.10565445989E-03  0.36023370669E-01  0.36029915351E-01  0.00000000000E+00 0. -1.
<mgrwt>
<rscale>  1 0.67491667E+03</rscale>
<asrwt>0</asrwt>
<pdfrwt beam="1">  1        1 0.41423416E+00 0.67491667E+03</pdfrwt>
<pdfrwt beam="2">0</pdfrwt>
<totfact> 0.11498258E+00</totfact>
</mgrwt>
</event>
<event>
 6    1  0.4625859E-003  0.6540963E+03  0.7818608E-02  0.9799123E-01
          1   -1    0    0  502    0  0.00000000000E+00  0.00000000000E+00  0.10890740089E+03  0.10890740089E+03  0.00000000000E+00 0.  1.
         13   -1    0    0    0    0 -0.00000000000E+00 -0.00000000000E+00 -0.10000000000E+04  0.10000000000E+04  0.00000000000E+00 0.  1.
    9000005    2    1    2  501    0 -0.51094158589E+00  0.99825182706E+00 -0.89285913877E+03  0.11068149788E+04  0.65409532786E+03 0.  0.
         13    1    3    3    0    0  0.44006369642E+02 -0.20007599132E+03 -0.15315985490E+02  0.20543013967E+03  0.00000000000E+00 0.  1.
          3    1    3    3  501    0 -0.44517311228E+02  0.20107424315E+03 -0.87754315328E+03  0.90138483908E+03  0.00000000000E+00 0.  1.
         21    1    1    2  502  501  0.51094158589E+00 -0.99825182706E+00  0.17665396625E+01  0.20924221356E+01  0.00000000000E+00 0. -1.
<mgrwt>
<rscale>  1 0.65409629E+03</rscale>
<asrwt>0</asrwt>
<pdfrwt beam="1">  1        1 0.39602775E+00 0.65409629E+03</pdfrwt>
<pdfrwt beam="2">0</pdfrwt>
<totfact> 0.13924072E+00</totfact>
</mgrwt>
</event>
<event>
 6    1  0.4625859E-003  0.6467306E+03  0.7818608E-02  0.9812933E-01
          1   -1    0    0  502    0  0.00000000000E+00  0.00000000000E+00  0.10463936020E+03  0.10463936020E+03  0.00000000000E+00 0.  1.
         13   -1    0    0    0    0 -0.00000000000E+00 -0.00000000000E+00 -0.10000000000E+04  0.10000000000E+04  0.00000000000E+00 0.  1.
    9000005    2    1    2  501    0  0.20728625199E-02  0.37151256447E-02 -0.89543480763E+03  0.11045650705E+04  0.64673062408E+03 0.  0.
         13    1    3    3    0    0 -0.36929616097E+02  0.28750692466E+03 -0.20293149765E+03  0.35384349791E+03  0.00000000000E+00 0.  1.
          1    1    3    3  501    0  0.36931688960E+02 -0.28750320954E+03 -0.69250330998E+03  0.75072157254E+03  0.00000000000E+00 0.  1.
         21    1    1    2  502  501 -0.20728625199E-02 -0.37151256447E-02  0.74167836182E-01  0.74289749236E-01  0.00000000000E+00 0.  1.
<mgrwt>
<rscale>  1 0.64673062E+03</rscale>
<asrwt>0</asrwt>
<pdfrwt beam="1">  1        1 0.38050757E+00 0.64673062E+03</pdfrwt>
<pdfrwt beam="2">0</pdfrwt>
<totfact> 0.16335125E+00</totfact>
</mgrwt>
</event>
<event>
 6    1  0.4625859E-003  0.6458851E+03  0.7818608E-02  0.9814531E-01
          1   -1    0    0  502    0  0.00000000000E+00  0.00000000000E+00  0.10429207413E+03  0.10429207413E+03  0.00000000000E+00 0.  1.
         13   -1    0    0    0    0 -0.00000000000E+00 -0.00000000000E+00 -0.10000000000E+04  0.10000000000E+04  0.00000000000E+00 0.  1.
    9000005    2    1    2  501    0 -0.20788013444E-06  0.38681529304E-05 -0.89570811602E+03  0.11042918839E+04  0.64588507944E+03 0.  0.
         13    1    3    3    0    0 -0.98871596393E+02 -0.44163247069E+02 -0.96803464369E+03  0.97407240817E+03  0.00000000000E+00 0.  1.
          3    1    3    3  501    0  0.98871596185E+02  0.44163250937E+02  0.72326527674E+02  0.13021947577E+03  0.00000000000E+00 0.  1.
         21    1    1    2  502  501  0.20788012465E-06 -0.38681529306E-05  0.19014641436E-03  0.19018586886E-03  0.00000000000E+00 0.  1.
<mgrwt>
<rscale>  1 0.64588508E+03</rscale>
<asrwt>0</asrwt>
<pdfrwt beam="1">  1        1 0.37924471E+00 0.64588508E+03</pdfrwt>
<pdfrwt beam="2">0</pdfrwt>
<totfact> 0.16548615E+00</totfact>
</mgrwt>
</event>
<event>
 6    1  0.4625859E-003  0.6586148E+03  0.7818608E-02  0.9790747E-01
          1   -1    0    0  502    0  0.00000000000E+00  0.00000000000E+00  0.10851832053E+03  0.10851832053E+03  0.00000000000E+00 0.  1.
         13   -1    0    0    0    0 -0.00000000000E+00 -0.00000000000E+00 -0.10000000000E+04  0.10000000000E+04  0.00000000000E+00 0.  1.
    9000005    2    1    2  501    0 -0.15452131311E-02 -0.34299322397E-02 -0.89155659606E+03  0.11084433095E+04  0.65861476335E+03 0.  0.
         13    1    3    3    0    0 -0.10871045600E+03 -0.26099391978E+03 -0.72994520690E+03  0.78278719617E+03  0.00000000000E+00 0.  1.
          3    1    3    3  501    0  0.10870891079E+03  0.26099048985E+03 -0.16161138916E+03  0.32565611338E+03  0.00000000000E+00 0.  1.
         21    1    1    2  502  501  0.15452131311E-02  0.34299322397E-02  0.74916584850E-01  0.75010977892E-01  0.00000000000E+00 0.  1.
<mgrwt>
<rscale>  1 0.65861476E+03</rscale>
<asrwt>0</asrwt>
<pdfrwt beam="1">  1        1 0.39461291E+00 0.65861476E+03</pdfrwt>
<pdfrwt beam="2">0</pdfrwt>
<totfact> 0.14115340E+00</totfact>
</mgrwt>
</event>
<event>
 6    1  0.4625859E-003  0.6493110E+03  0.7818608E-02  0.9808073E-01
          1   -1    0    0  502    0  0.00000000000E+00  0.00000000000E+00  0.10557762074E+03  0.10557762074E+03  0.00000000000E+00 0.  1.
         13   -1    0    0    0    0 -0.00000000000E+00 -0.00000000000E+00 -0.10000000000E+04  0.10000000000E+04  0.00000000000E+00 0.  1.
    9000005    2    1    2  501    0 -0.16631628535E-01 -0.44253697394E-01 -0.89459529003E+03  0.11053983636E+04  0.64931102486E+03 0.  0.
         13    1    3    3    0    0 -0.16661374070E+03  0.23923569054E+03 -0.69043209819E+03  0.74946002991E+03  0.00000000000E+00 0.  1.
          3    1    3    3  501    0  0.16659710908E+03 -0.23927994424E+03 -0.20416319183E+03  0.35593833366E+03  0.00000000000E+00 0.  1.
         21    1    1    2  502  501  0.16631628535E-01  0.44253697394E-01  0.17291076960E+00  0.17925717571E+00  0.00000000000E+00 0. -1.
<mgrwt>
<rscale>  1 0.64931103E+03</rscale>
<asrwt>0</asrwt>
<pdfrwt beam="1">  1        1 0.38391943E+00 0.64931103E+03</pdfrwt>
<pdfrwt beam="2">0</pdfrwt>
<totfact> 0.15770510E+00</totfact>
</mgrwt>
</event>
<event>
 6    1  0.4625859E-003  0.6218882E+03  0.7818608E-02  0.9861007E-01
          1   -1    0    0  502    0  0.00000000000E+00  0.00000000000E+00  0.96774252619E+02  0.96774252619E+02  0.00000000000E+00 0.  1.
         13   -1    0    0    0    0 -0.00000000000E+00 -0.00000000000E+00 -0.10000000000E+04  0.10000000000E+04  0.00000000000E+00 0.  1.
    9000005    2    1    2  501    0 -0.65175626456E-01  0.10395259268E+00 -0.90326443878E+03  0.10966456018E+04  0.62188818493E+03 0.  0.
         13    1    3    3    0    0 -0.21852471681E+03  0.80159116941E+02 -0.88018647617E+02  0.24884898677E+03  0.00000000000E+00 0.  1.
          3    1    3    3  501    0  0.21845954119E+03 -0.80055164348E+02 -0.81524579117E+03  0.84779661505E+03  0.00000000000E+00 0.  1.
         21    1    1    2  502  501  0.65175626456E-01 -0.10395259268E+00  0.38691403278E-01  0.12865080061E+00  0.00000000000E+00 0.  1.
<mgrwt>
<rscale>  1 0.62188820E+03</rscale>
<asrwt>0</asrwt>
<pdfrwt beam="1">  1        1 0.35190712E+00 0.62188820E+03</pdfrwt>
<pdfrwt beam="2">0</pdfrwt>
<totfact> 0.21902969E+00</totfact>
</mgrwt>
</event>
<event>
 6    1  0.4625859E-003  0.6467737E+03  0.7818608E-02  0.9812852E-01
          1   -1    0    0  502    0  0.00000000000E+00  0.00000000000E+00  0.10457923654E+03  0.10457923654E+03  0.00000000000E+00 0.  1.
         13   -1    0    0    0    0 -0.00000000000E+00 -0.00000000000E+00 -0.10000000000E+04  0.10000000000E+04  0.00000000000E+00 0.  1.
    9000005    2    1    2  501    0  0.68266892441E-05 -0.91442994474E-05 -0.89542094067E+03  0.11045790590E+04  0.64677371351E+03 0.  0.
         13    1    3    3    0    0  0.10598122992E+03  0.55498999836E+02 -0.96081837737E+03  0.96823763322E+03  0.00000000000E+00 0.  1.
          3    1    3    3  501    0 -0.10598122309E+03 -0.55499008980E+02  0.65397436700E+02  0.13634142574E+03  0.00000000000E+00 0.  1.
         21    1    1    2  502  501 -0.68266892455E-05  0.91442994488E-05  0.17721921121E-03  0.17758623461E-03  0.00000000000E+00 0.  1.
<mgrwt>
<rscale>  1 0.64677371E+03</rscale>
<asrwt>0</asrwt>
<pdfrwt beam="1">  1        1 0.38028893E+00 0.64677371E+03</pdfrwt>
<pdfrwt beam="2">0</pdfrwt>
<totfact> 0.16371326E+00</totfact>
</mgrwt>
</event>
<event>
 6    1  0.4625859E-003  0.6471340E+03  0.7818608E-02  0.9812172E-01
          1   -1    0    0  502    0  0.00000000000E+00  0.00000000000E+00  0.10517163400E+03  0.10517163400E+03  0.00000000000E+00 0.  1.
         13   -1    0    0    0    0 -0.00000000000E+00 -0.00000000000E+00 -0.10000000000E+04  0.10000000000E+04  0.00000000000E+00 0.  1.
    9000005    2    1    2  501    0 -0.62885343561E+00 -0.60075545105E+00 -0.89481856098E+03  0.11043018870E+04  0.64713340520E+03 0.  0.
         13    1    3    3    0    0  0.26394055056E+03  0.10415157630E+03 -0.18280799024E+03  0.33753655561E+03  0.00000000000E+00 0.  1.
          1    1    3    3  501    0 -0.26456940400E+03 -0.10475233175E+03 -0.71201057073E+03  0.76676533136E+03  0.00000000000E+00 0.  1.
         21    1    1    2  502  501  0.62885343561E+00  0.60075545105E+00 -0.98050273225E-02  0.86974702875E+00  0.00000000000E+00 0. -1.
<mgrwt>
<rscale>  1 0.64713399E+03</rscale>
<asrwt>0</asrwt>
<pdfrwt beam="1">  1        1 0.38244311E+00 0.64713399E+03</pdfrwt>
<pdfrwt beam="2">0</pdfrwt>
<totfact> 0.16015633E+00</totfact>
</mgrwt>
</event>
<event>
 6    1  0.4625859E-003  0.6540760E+03  0.7818608E-02  0.9799161E-01
          1   -1    0    0  502    0  0.00000000000E+00  0.00000000000E+00  0.10697819854E+03  0.10697819854E+03  0.00000000000E+00 0.  1.
         13   -1    0    0    0    0 -0.00000000000E+00 -0.00000000000E+00 -0.10000000000E+04  0.10000000000E+04  0.00000000000E+00 0.  1.
    9000005    2    1    2  501    0 -0.21864267508E-01 -0.17235321120E-01 -0.89303699834E+03  0.11069464803E+04  0.65407601167E+03 0.  0.
         13    1    3    3    0    0 -0.75572965186E+02 -0.29178127584E+03 -0.23170687913E+03  0.38017846314E+03  0.00000000000E+00 0.  1.
          1    1    3    3  501    0  0.75551100918E+02  0.29176404051E+03 -0.66133011920E+03  0.72676801715E+03  0.00000000000E+00 0.  1.
         21    1    1    2  502  501  0.21864267508E-01  0.17235321120E-01  0.15196875720E-01  0.31718252149E-01  0.00000000000E+00 0.  1.
<mgrwt>
<rscale>  1 0.65407601E+03</rscale>
<asrwt>0</asrwt>
<pdfrwt beam="1">  1        1 0.38901245E+00 0.65407601E+03</pdfrwt>
<pdfrwt beam="2">0</pdfrwt>
<totfact> 0.14959548E+00</totfact>
</mgrwt>
</event>
<event>
 6    1  0.4625859E-003  0.6461319E+03  0.7818608E-02  0.9814065E-01
          1   -1    0    0  502    0  0.00000000000E+00  0.00000000000E+00  0.10598665945E+03  0.10598665945E+03  0.00000000000E+00 0.  1.
         13   -1    0    0    0    0 -0.00000000000E+00 -0.00000000000E+00 -0.10000000000E+04  0.10000000000E+04  0.00000000000E+00 0.  1.
    9000005    2    1    2  501    0 -0.11496283220E+00 -0.13902194988E+01 -0.89528896772E+03  0.11040963813E+04  0.64613043389E+03 0.  0.
         13    1    3    3    0    0  0.21635982717E+03 -0.19642288977E+03 -0.68510691694E+03  0.74482549237E+03  0.00000000000E+00 0.  1.
          1    1    3    3  501    0 -0.21647479000E+03  0.19503267028E+03 -0.21018205078E+03  0.35927088896E+03  0.00000000000E+00 0.  1.
         21    1    1    2  502  501  0.11496283220E+00  0.13902194988E+01  0.12756271767E+01  0.18902781281E+01  0.00000000000E+00 0.  1.
<mgrwt>
<rscale>  1 0.64613194E+03</rscale>
<asrwt>0</asrwt>
<pdfrwt beam="1">  1        1 0.38540685E+00 0.64613194E+03</pdfrwt>
<pdfrwt beam="2">0</pdfrwt>
<totfact> 0.15542610E+00</totfact>
</mgrwt>
</event>
<event>
 6    1  0.4625859E-003  0.6530179E+03  0.7818608E-02  0.9801133E-01
          1   -1    0    0  502    0  0.00000000000E+00  0.00000000000E+00  0.10661003210E+03  0.10661003210E+03  0.00000000000E+00 0.  1.
         13   -1    0    0    0    0 -0.00000000000E+00 -0.00000000000E+00 -0.10000000000E+04  0.10000000000E+04  0.00000000000E+00 0.  1.
    9000005    2    1    2  501    0  0.23733737119E-03  0.55793602949E-02 -0.89337836746E+03  0.11065971575E+04  0.65301788756E+03 0.  0.
         13    1    3    3    0    0 -0.89077382974E+02 -0.90031218730E+02 -0.95666423313E+03  0.96501132400E+03  0.00000000000E+00 0.  1.
          3    1    3    3  501    0  0.89077620312E+02  0.90036798091E+02  0.63285865663E+02  0.14158583348E+03  0.00000000000E+00 0.  1.
         21    1    1    2  502  501 -0.23733737119E-03 -0.55793602949E-02 -0.11600435710E-01  0.12874614518E-01  0.00000000000E+00 0.  1.
<mgrwt>
<rscale>  1 0.65301789E+03</rscale>
<asrwt>0</asrwt>
<pdfrwt beam="1">  1        1 0.38767366E+00 0.65301789E+03</pdfrwt>
<pdfrwt beam="2">0</pdfrwt>
<totfact> 0.15168255E+00</totfact>
</mgrwt>
</event>
<event>
 6    1  0.4625859E-003  0.6275366E+03  0.7818608E-02  0.9849868E-01
          1   -1    0    0  502    0  0.00000000000E+00  0.00000000000E+00  0.10017930028E+03  0.10017930028E+03  0.00000000000E+00 0.  1.
         13   -1    0    0    0    0 -0.00000000000E+00 -0.00000000000E+00 -0.10000000000E+04  0.10000000000E+04  0.00000000000E+00 0.  1.
    9000005    2    1    2  501    0  0.36017120510E+00 -0.24323936048E+01 -0.90053556442E+03  0.10976185790E+04  0.62753182860E+03 0.  0.
         13    1    3    3    0    0  0.23800994314E+03  0.19970629160E+03 -0.38123084884E+03  0.49180107365E+03  0.00000000000E+00 0.  1.
          3    1    3    3  501    0 -0.23764977194E+03 -0.20213868520E+03 -0.51930471558E+03  0.60581750534E+03  0.00000000000E+00 0.  1.
         21    1    1    2  502  501 -0.36017120510E+00  0.24323936048E+01  0.71486469332E+00  0.25607212803E+01  0.00000000000E+00 0.  1.
<mgrwt>
<rscale>  1 0.62753665E+03</rscale>
<asrwt>0</asrwt>
<pdfrwt beam="1">  1        1 0.36428913E+00 0.62753665E+03</pdfrwt>
<pdfrwt beam="2">0</pdfrwt>
<totfact> 0.19317505E+00</totfact>
</mgrwt>
</event>
<event>
 6    1  0.4625859E-003  0.6181025E+03  0.7818608E-02  0.9868545E-01
          1   -1    0    0  502    0  0.00000000000E+00  0.00000000000E+00  0.10070182822E+03  0.10070182822E+03  0.00000000000E+00 0.  1.
         13   -1    0    0    0    0 -0.00000000000E+00 -0.00000000000E+00 -0.10000000000E+04  0.10000000000E+04  0.00000000000E+00 0.  1.
    9000005    2    1    2  501    0  0.10949704429E+00 -0.88844248791E-02 -0.90448667689E+03  0.10955121602E+04  0.61810252585E+03 0.  0.
         13    1    3    3    0    0 -0.19812215990E+03 -0.19128925866E+03 -0.70063727349E+03  0.75281907502E+03  0.00000000000E+00 0.  1.
          3    1    3    3  501    0  0.19823165694E+03  0.19128037423E+03 -0.20384940341E+03  0.34269308521E+03  0.00000000000E+00 0.  1.
         21    1    1    2  502  501 -0.10949704429E+00  0.88844248791E-02  0.51885051125E+01  0.51896679892E+01  0.00000000000E+00 0.  1.
<mgrwt>
<rscale>  1 0.61810254E+03</rscale>
<asrwt>0</asrwt>
<pdfrwt beam="1">  1        1 0.36618924E+00 0.61810254E+03</pdfrwt>
<pdfrwt beam="2">0</pdfrwt>
<totfact> 0.18983719E+00</totfact>
</mgrwt>
</event>
<event>
 6    1  0.4625859E-003  0.6210361E+03  0.7818608E-02  0.9862699E-01
          1   -1    0    0  502    0  0.00000000000E+00  0.00000000000E+00  0.96489353831E+02  0.96489353831E+02  0.00000000000E+00 0.  1.
         13   -1    0    0    0    0 -0.00000000000E+00 -0.00000000000E+00 -0.10000000000E+04  0.10000000000E+04  0.00000000000E+00 0.  1.
    9000005    2    1    2  501    0 -0.58667546357E-01  0.43638407251E-01 -0.90355633380E+03  0.10964031358E+04  0.62103605570E+03 0.  0.
         13    1    3    3    0    0 -0.21827796054E+03  0.31099608946E+02 -0.65735559516E+02  0.23007306996E+03  0.00000000000E+00 0.  1.
          1    1    3    3  501    0  0.21821929300E+03 -0.31055970539E+02 -0.83782077428E+03  0.86633006583E+03  0.00000000000E+00 0.  1.
         21    1    1    2  502  501  0.58667546357E-01 -0.43638407251E-01  0.45687628391E-01  0.86218043187E-01  0.00000000000E+00 0. -1.
<mgrwt>
<rscale>  1 0.62103606E+03</rscale>
<asrwt>0</asrwt>
<pdfrwt beam="1">  1        1 0.35087112E+00 0.62103606E+03</pdfrwt>
<pdfrwt beam="2">0</pdfrwt>
<totfact> 0.22135311E+00</totfact>
</mgrwt>
</event>
<event>
 6    1  0.4625859E-003  0.6472854E+03  0.7818608E-02  0.9811886E-01
          1   -1    0    0  502    0  0.00000000000E+00  0.00000000000E+00  0.10475962657E+03  0.10475962657E+03  0.00000000000E+00 0.  1.
         13   -1    0    0    0    0 -0.00000000000E+00 -0.00000000000E+00 -0.10000000000E+04  0.10000000000E+04  0.00000000000E+00 0.  1.
    9000005    2    1    2  501    0 -0.27692889835E-02  0.64807292426E-03 -0.89525525500E+03  0.11047444757E+04  0.64728539678E+03 0.  0.
         13    1    3    3    0    0 -0.30900948783E+03  0.75503642819E+02 -0.34582691419E+03  0.46987649252E+03  0.00000000000E+00 0.  1.
          1    1    3    3  501    0  0.30900671854E+03 -0.75502994746E+02 -0.54942834081E+03  0.63486798313E+03  0.00000000000E+00 0.  1.
         21    1    1    2  502  501  0.27692889835E-02 -0.64807292427E-03  0.14881566516E-01  0.15150906968E-01  0.00000000000E+00 0.  1.
<mgrwt>
<rscale>  1 0.64728540E+03</rscale>
<asrwt>0</asrwt>
<pdfrwt beam="1">  1        1 0.38094490E+00 0.64728540E+03</pdfrwt>
<pdfrwt beam="2">0</pdfrwt>
<totfact> 0.16261022E+00</totfact>
</mgrwt>
</event>
<event>
 6    1  0.4625859E-003  0.6590565E+03  0.7818608E-02  0.9789932E-01
          1   -1    0    0  502    0  0.00000000000E+00  0.00000000000E+00  0.10858887838E+03  0.10858887838E+03  0.00000000000E+00 0.  1.
         13   -1    0    0    0    0 -0.00000000000E+00 -0.00000000000E+00 -0.10000000000E+04  0.10000000000E+04  0.00000000000E+00 0.  1.
    9000005    2    1    2  501    0 -0.15448642472E-05 -0.10589295698E-05 -0.89141112287E+03  0.11085888761E+04  0.65905652739E+03 0.  0.
         13    1    3    3    0    0  0.39002008088E+02  0.28543132786E+03 -0.17658948455E+03  0.33789946081E+03  0.00000000000E+00 0.  1.
          3    1    3    3  501    0 -0.39002009633E+02 -0.28543132892E+03 -0.71482163832E+03  0.77068941532E+03  0.00000000000E+00 0.  1.
         21    1    1    2  502  501  0.15448642436E-05  0.10589295681E-05  0.12480219464E-05  0.22506657104E-05  0.00000000000E+00 0. -1.
<mgrwt>
<rscale>  1 0.65905653E+03</rscale>
<asrwt>0</asrwt>
<pdfrwt beam="1">  1        1 0.39486948E+00 0.65905653E+03</pdfrwt>
<pdfrwt beam="2">0</pdfrwt>
<totfact> 0.14077154E+00</totfact>
</mgrwt>
</event>
<event>
 6    1  0.4625859E-003  0.6542656E+03  0.7818608E-02  0.9798808E-01
          1   -1    0    0  502    0  0.00000000000E+00  0.00000000000E+00  0.10701599814E+03  0.10701599814E+03  0.00000000000E+00 0.  1.
         13   -1    0    0    0    0 -0.00000000000E+00 -0.00000000000E+00 -0.10000000000E+04  0.10000000000E+04  0.00000000000E+00 0.  1.
    9000005    2    1    2  501    0  0.11060876091E-04 -0.20016383075E-04 -0.89298412398E+03  0.11070158739E+04  0.65426561837E+03 0.  0.
         13    1    3    3    0    0  0.52397370788E+02 -0.28351972050E+03 -0.70799721759E+03  0.76445338412E+03  0.00000000000E+00 0.  1.
          3    1    3    3  501    0 -0.52397359727E+02  0.28351970048E+03 -0.18498690639E+03  0.34256248978E+03  0.00000000000E+00 0.  1.
         21    1    1    2  502  501 -0.11060876094E-04  0.20016383039E-04  0.12211665718E-03  0.12423959325E-03  0.00000000000E+00 0. -1.
<mgrwt>
<rscale>  1 0.65426562E+03</rscale>
<asrwt>0</asrwt>
<pdfrwt beam="1">  1        1 0.38914990E+00 0.65426562E+03</pdfrwt>
<pdfrwt beam="2">0</pdfrwt>
<totfact> 0.14938051E+00</totfact>
</mgrwt>
</event>
<event>
 6    1  0.4625859E-003  0.5951227E+03  0.7818608E-02  0.9915577E-01
          1   -1    0    0  502    0  0.00000000000E+00  0.00000000000E+00  0.88544993821E+02  0.88544993821E+02  0.00000000000E+00 0.  1.
         13   -1    0    0    0    0 -0.00000000000E+00 -0.00000000000E+00 -0.10000000000E+04  0.10000000000E+04  0.00000000000E+00 0.  1.
    9000005    2    1    2  501    0  0.21402399784E-03  0.33281547917E-03 -0.91145721177E+03  0.10885427530E+04  0.59512274049E+03 0.  0.
         13    1    3    3    0    0 -0.15783964593E+03 -0.20146332495E+03 -0.17807842631E+03  0.31178959418E+03  0.00000000000E+00 0.  1.
          1    1    3    3  501    0  0.15783985995E+03  0.20146365776E+03 -0.73337878546E+03  0.77675315883E+03  0.00000000000E+00 0.  1.
         21    1    1    2  502  501 -0.21402399782E-03 -0.33281547918E-03  0.22055927445E-02  0.22408060535E-02  0.00000000000E+00 0.  1.
<mgrwt>
<rscale>  1 0.59512274E+03</rscale>
<asrwt>0</asrwt>
<pdfrwt beam="1">  1        1 0.32198247E+00 0.59512274E+03</pdfrwt>
<pdfrwt beam="2">0</pdfrwt>
<totfact> 0.29679051E+00</totfact>
</mgrwt>
</event>
<event>
 6    1  0.4625859E-003  0.6830822E+03  0.7818608E-02  0.9746609E-01
          1   -1    0    0  502    0  0.00000000000E+00  0.00000000000E+00  0.11869213885E+03  0.11869213885E+03  0.00000000000E+00 0.  1.
         13   -1    0    0    0    0 -0.00000000000E+00 -0.00000000000E+00 -0.10000000000E+04  0.10000000000E+04  0.00000000000E+00 0.  1.
    9000005    2    1    2  501    0  0.15447625359E+01 -0.15751229264E+01 -0.88265980284E+03  0.11161046594E+04  0.68307863084E+03 0.  0.
         13    1    3    3    0    0 -0.12534998529E+03  0.20547178997E+03 -0.46168102421E+02  0.24507706741E+03  0.00000000000E+00 0.  1.
          3    1    3    3  501    0  0.12689474783E+03 -0.20704691290E+03 -0.83649170042E+03  0.87102759200E+03  0.00000000000E+00 0.  1.
         21    1    1    2  502  501 -0.15447625359E+01  0.15751229264E+01  0.13519416868E+01  0.25874794395E+01  0.00000000000E+00 0. -1.
<mgrwt>
<rscale>  1 0.68308219E+03</rscale>
<asrwt>0</asrwt>
<pdfrwt beam="1">  1        1 0.43160869E+00 0.68308219E+03</pdfrwt>
<pdfrwt beam="2">0</pdfrwt>
<totfact> 0.95800014E-01</totfact>
</mgrwt>
</event>
<event>
 6    1  0.4625859E-003  0.6654359E+03  0.7818608E-02  0.9778238E-01
          1   -1    0    0  502    0  0.00000000000E+00  0.00000000000E+00  0.11071388014E+03  0.11071388014E+03  0.00000000000E+00 0.  1.
         13   -1    0    0    0    0 -0.00000000000E+00 -0.00000000000E+00 -0.10000000000E+04  0.10000000000E+04  0.00000000000E+00 0.  1.
    9000005    2    1    2  501    0 -0.16523949836E-01 -0.97427397391E-02 -0.88929006797E+03  0.11106942957E+04  0.66543594221E+03 0.  0.
         13    1    3    3    0    0 -0.24998558669E+02 -0.30452562260E+03 -0.22483496964E+03  0.37935675337E+03  0.00000000000E+00 0.  1.
          1    1    3    3  501    0  0.24982034719E+02  0.30451587986E+03 -0.66445509834E+03  0.73133754235E+03  0.00000000000E+00 0.  1.
         21    1    1    2  502  501  0.16523949836E-01  0.97427397390E-02  0.39481069247E-02  0.19584418401E-01  0.00000000000E+00 0. -1.
<mgrwt>
<rscale>  1 0.66543594E+03</rscale>
<asrwt>0</asrwt>
<pdfrwt beam="1">  1        1 0.40259678E+00 0.66543594E+03</pdfrwt>
<pdfrwt beam="2">0</pdfrwt>
<totfact> 0.12988620E+00</totfact>
</mgrwt>
</event>
<event>
 6    1  0.4625859E-003  0.6459519E+03  0.7818608E-02  0.9814405E-01
          1   -1    0    0  502    0  0.00000000000E+00  0.00000000000E+00  0.10431362458E+03  0.10431362458E+03  0.00000000000E+00 0.  1.
         13   -1    0    0    0    0 -0.00000000000E+00 -0.00000000000E+00 -0.10000000000E+04  0.10000000000E+04  0.00000000000E+00 0.  1.
    9000005    2    1    2  501    0  0.37791553780E-05 -0.13257281211E-04 -0.89568654500E+03  0.11043134544E+04  0.64595187031E+03 0.  0.
         13    1    3    3    0    0  0.23404105736E+03  0.15519802310E+03 -0.72058497107E+03  0.77337206016E+03  0.00000000000E+00 0.  1.
          1    1    3    3  501    0 -0.23404105358E+03 -0.15519803636E+03 -0.17510157393E+03  0.33094139428E+03  0.00000000000E+00 0.  1.
         21    1    1    2  502  501 -0.37791553861E-05  0.13257281212E-04  0.16958169328E-03  0.17014108327E-03  0.00000000000E+00 0. -1.
<mgrwt>
<rscale>  1 0.64595187E+03</rscale>
<asrwt>0</asrwt>
<pdfrwt beam="1">  1        1 0.37932307E+00 0.64595187E+03</pdfrwt>
<pdfrwt beam="2">0</pdfrwt>
<totfact> 0.16535247E+00</totfact>
</mgrwt>
</event>
<event>
 6    1  0.4625859E-003  0.6335819E+03  0.7818608E-02  0.9838084E-01
          1   -1    0    0  502    0  0.00000000000E+00  0.00000000000E+00  0.10201614976E+03  0.10201614976E+03  0.00000000000E+00 0.  1.
         13   -1    0    0    0    0 -0.00000000000E+00 -0.00000000000E+00 -0.10000000000E+04  0.10000000000E+04  0.00000000000E+00 0.  1.
    9000005    2    1    2  501    0  0.32710168945E+01 -0.78754206462E+00 -0.89751826247E+03  0.10986196006E+04  0.63357294421E+03 0.  0.
         13    1    3    3    0    0 -0.72883711582E+02 -0.84915881897E+02  0.65014756535E+02  0.12942048130E+03  0.00000000000E+00 0.  1.
          1    1    3    3  501    0  0.76154728477E+02  0.84128339833E+02 -0.96253301900E+03  0.96919911932E+03  0.00000000000E+00 0.  1.
         21    1    1    2  502  501 -0.32710168945E+01  0.78754206462E+00 -0.46558777934E+00  0.33965491323E+01  0.00000000000E+00 0. -1.
<mgrwt>
<rscale>  1 0.63358188E+03</rscale>
<asrwt>0</asrwt>
<pdfrwt beam="1">  1        1 0.37096860E+00 0.63358188E+03</pdfrwt>
<pdfrwt beam="2">0</pdfrwt>
<totfact> 0.18037289E+00</totfact>
</mgrwt>
</event>
<event>
 6    1  0.4625859E-003  0.6504732E+03  0.7818608E-02  0.9805892E-01
          1   -1    0    0  502    0  0.00000000000E+00  0.00000000000E+00  0.10578120204E+03  0.10578120204E+03  0.00000000000E+00 0.  1.
         13   -1    0    0    0    0 -0.00000000000E+00 -0.00000000000E+00 -0.10000000000E+04  0.10000000000E+04  0.00000000000E+00 0.  1.
    9000005    2    1    2  501    0  0.53484454270E-05 -0.59587952549E-04 -0.89422113769E+03  0.11057788615E+04  0.65047324891E+03 0.  0.
         13    1    3    3    0    0 -0.30856603135E+03 -0.40066724241E+02 -0.60802891617E+03  0.68302086424E+03  0.00000000000E+00 0.  1.
          1    1    3    3  501    0  0.30856603670E+03  0.40066664653E+02 -0.28619222152E+03  0.42275799730E+03  0.00000000000E+00 0.  1.
         21    1    1    2  502  501 -0.53484454137E-05  0.59587952546E-04  0.23397281357E-02  0.23404929137E-02  0.00000000000E+00 0. -1.
<mgrwt>
<rscale>  1 0.65047325E+03</rscale>
<asrwt>0</asrwt>
<pdfrwt beam="1">  1        1 0.38465973E+00 0.65047325E+03</pdfrwt>
<pdfrwt beam="2">0</pdfrwt>
<totfact> 0.15648736E+00</totfact>
</mgrwt>
</event>
<event>
 6    1  0.4625859E-003  0.6451163E+03  0.7818608E-02  0.9815986E-01
          1   -1    0    0  502    0  0.00000000000E+00  0.00000000000E+00  0.10404400979E+03  0.10404400979E+03  0.00000000000E+00 0.  1.
         13   -1    0    0    0    0 -0.00000000000E+00 -0.00000000000E+00 -0.10000000000E+04  0.10000000000E+04  0.00000000000E+00 0.  1.
    9000005    2    1    2  501    0  0.29184821497E-03  0.57599735983E-03 -0.89595557526E+03  0.11040432422E+04  0.64511633672E+03 0.  0.
         13    1    3    3    0    0 -0.65619215291E+02  0.92294841162E+02 -0.96486067714E+03  0.97148357959E+03  0.00000000000E+00 0.  1.
          1    1    3    3  501    0  0.65619507139E+02 -0.92294265165E+02  0.68905101876E+02  0.13255966266E+03  0.00000000000E+00 0.  1.
         21    1    1    2  502  501 -0.29184821498E-03 -0.57599735983E-03 -0.41494667502E-03  0.76754744624E-03  0.00000000000E+00 0.  1.
<mgrwt>
<rscale>  1 0.64511634E+03</rscale>
<asrwt>0</asrwt>
<pdfrwt beam="1">  1        1 0.37834265E+00 0.64511634E+03</pdfrwt>
<pdfrwt beam="2">0</pdfrwt>
<totfact> 0.16703239E+00</totfact>
</mgrwt>
</event>
<event>
 6    1  0.4625859E-003  0.6444275E+03  0.7818608E-02  0.9817292E-01
          1   -1    0    0  502    0  0.00000000000E+00  0.00000000000E+00  0.10383527644E+03  0.10383527644E+03  0.00000000000E+00 0.  1.
         13   -1    0    0    0    0 -0.00000000000E+00 -0.00000000000E+00 -0.10000000000E+04  0.10000000000E+04  0.00000000000E+00 0.  1.
    9000005    2    1    2  501    0 -0.45768215394E-02 -0.39558116480E-02 -0.89617753981E+03  0.11038211042E+04  0.64442753449E+03 0.  0.
         13    1    3    3    0    0 -0.27719049963E+03 -0.33508305174E+02 -0.72356984571E+03  0.77557120964E+03  0.00000000000E+00 0.  1.
          1    1    3    3  501    0  0.27718592280E+03  0.33504349363E+02 -0.17260769410E+03  0.32824989458E+03  0.00000000000E+00 0.  1.
         21    1    1    2  502  501  0.45768215394E-02  0.39558116480E-02  0.12816246566E-01  0.14172223440E-01  0.00000000000E+00 0. -1.
<mgrwt>
<rscale>  1 0.64442753E+03</rscale>
<asrwt>0</asrwt>
<pdfrwt beam="1">  1        1 0.37758362E+00 0.64442753E+03</pdfrwt>
<pdfrwt beam="2">0</pdfrwt>
<totfact> 0.16834543E+00</totfact>
</mgrwt>
</event>
<event>
 6    1  0.4625859E-003  0.6656550E+03  0.7818608E-02  0.9777839E-01
          1   -1    0    0  502    0  0.00000000000E+00  0.00000000000E+00  0.11089510988E+03  0.11089510988E+03  0.00000000000E+00 0.  1.
         13   -1    0    0    0    0 -0.00000000000E+00 -0.00000000000E+00 -0.10000000000E+04  0.10000000000E+04  0.00000000000E+00 0.  1.
    9000005    2    1    2  501    0  0.28097263061E-02  0.21779329220E-01 -0.88922475749E+03  0.11107732476E+04  0.66565496898E+03 0.  0.
         13    1    3    3    0    0 -0.27019322386E+03 -0.17206724345E+03 -0.29388326090E+03  0.43471701776E+03  0.00000000000E+00 0.  1.
          3    1    3    3  501    0  0.27019603359E+03  0.17208902278E+03 -0.59534149659E+03  0.67605622983E+03  0.00000000000E+00 0.  1.
         21    1    1    2  502  501 -0.28097263062E-02 -0.21779329220E-01  0.11986737317E+00  0.12186230301E+00  0.00000000000E+00 0. -1.
<mgrwt>
<rscale>  1 0.66565497E+03</rscale>
<asrwt>0</asrwt>
<pdfrwt beam="1">  1        1 0.40325580E+00 0.66565497E+03</pdfrwt>
<pdfrwt beam="2">0</pdfrwt>
<totfact> 0.12900347E+00</totfact>
</mgrwt>
</event>
<event>
 6    1  0.4625859E-003  0.6365582E+03  0.7818608E-02  0.9832334E-01
          1   -1    0    0  502    0  0.00000000000E+00  0.00000000000E+00  0.10130689498E+03  0.10130689498E+03  0.00000000000E+00 0.  1.
         13   -1    0    0    0    0 -0.00000000000E+00 -0.00000000000E+00 -0.10000000000E+04  0.10000000000E+04  0.00000000000E+00 0.  1.
    9000005    2    1    2  501    0 -0.35114893834E-04  0.74888431186E-04 -0.89869842354E+03  0.11013015758E+04  0.63655817049E+03 0.  0.
         13    1    3    3    0    0  0.12091652997E+03 -0.25111798119E+03 -0.71524574365E+03  0.76763111030E+03  0.00000000000E+00 0.  1.
          1    1    3    3  501    0 -0.12091656508E+03  0.25111805608E+03 -0.18345267989E+03  0.33367046552E+03  0.00000000000E+00 0.  1.
         21    1    1    2  502  501  0.35114893833E-04 -0.74888431187E-04  0.53185210815E-02  0.53191642038E-02  0.00000000000E+00 0.  1.
<mgrwt>
<rscale>  1 0.63655817E+03</rscale>
<asrwt>0</asrwt>
<pdfrwt beam="1">  1        1 0.36838949E+00 0.63655817E+03</pdfrwt>
<pdfrwt beam="2">0</pdfrwt>
<totfact> 0.18503738E+00</totfact>
</mgrwt>
</event>
<event>
 6    1  0.7474589E-003  0.6472649E+03  0.7818608E-02  0.9811925E-01
          1   -1    0    0  502    0  0.00000000000E+00  0.00000000000E+00  0.10473798049E+03  0.10473798049E+03  0.00000000000E+00 0.  1.
         13   -1    0    0    0    0 -0.00000000000E+00 -0.00000000000E+00 -0.10000000000E+04  0.10000000000E+04  0.00000000000E+00 0.  1.
    9000005    2    1    2  501    0  0.44409356121E-05 -0.13411235216E-05 -0.89526201958E+03  0.11047379759E+04  0.64726494698E+03 0.  0.
         13    1    3    3    0    0 -0.76825650758E+02 -0.82821151887E+02 -0.96525634579E+03  0.97184429663E+03  0.00000000000E+00 0.  1.
          1    1    3    3  501    0  0.76825655199E+02  0.82821150545E+02  0.69994326212E+02  0.13289367922E+03  0.00000000000E+00 0.  1.
         21    1    1    2  502  501 -0.44409356164E-05  0.13411235344E-05  0.70425699765E-07  0.46395561493E-05  0.00000000000E+00 0. -1.
<mgrwt>
<rscale>  1 0.64726495E+03</rscale>
<asrwt>0</asrwt>
<pdfrwt beam="1">  1        1 0.38086619E+00 0.64726495E+03</pdfrwt>
<pdfrwt beam="2">0</pdfrwt>
<totfact> 0.16274098E+00</totfact>
</mgrwt>
</event>
<event>
 6    1  0.4625859E-003  0.6441885E+03  0.7818608E-02  0.9817746E-01
          1   -1    0    0  502    0  0.00000000000E+00  0.00000000000E+00  0.10374508041E+03  0.10374508041E+03  0.00000000000E+00 0.  1.
         13   -1    0    0    0    0 -0.00000000000E+00 -0.00000000000E+00 -0.10000000000E+04  0.10000000000E+04  0.00000000000E+00 0.  1.
    9000005    2    1    2  501    0  0.92694633753E-03  0.55163026343E-03 -0.89625396231E+03  0.11037436382E+04  0.64418852361E+03 0.  0.
         13    1    3    3    0    0  0.55217454678E+01  0.28536993163E+03 -0.70386642260E+03  0.75953566632E+03  0.00000000000E+00 0.  1.
          1    1    3    3  501    0 -0.55208185215E+01 -0.28536938000E+03 -0.19238753971E+03  0.34420797190E+03  0.00000000000E+00 0.  1.
         21    1    1    2  502  501 -0.92694633752E-03 -0.55163026340E-03 -0.95728240959E-03  0.14421910664E-02  0.00000000000E+00 0. -1.
<mgrwt>
<rscale>  1 0.64418852E+03</rscale>
<asrwt>0</asrwt>
<pdfrwt beam="1">  1        1 0.37725563E+00 0.64418852E+03</pdfrwt>
<pdfrwt beam="2">0</pdfrwt>
<totfact> 0.16891403E+00</totfact>
</mgrwt>
</event>
<event>
 6    1  0.4625859E-003  0.6500571E+03  0.7818608E-02  0.9806672E-01
          1   -1    0    0  502    0  0.00000000000E+00  0.00000000000E+00  0.10573179564E+03  0.10573179564E+03  0.00000000000E+00 0.  1.
         13   -1    0    0    0    0 -0.00000000000E+00 -0.00000000000E+00 -0.10000000000E+04  0.10000000000E+04  0.00000000000E+00 0.  1.
    9000005    2    1    2  501    0 -0.50976509265E-01 -0.20370720893E-01 -0.89434690330E+03  0.11056358420E+04  0.65005709652E+03 0.  0.
         13    1    3    3    0    0 -0.24396041735E+03 -0.16189292640E+03 -0.20707473867E+03  0.35861672053E+03  0.00000000000E+00 0.  1.
          1    1    3    3  501    0  0.24390944084E+03  0.16187255568E+03 -0.68727216464E+03  0.74701912151E+03  0.00000000000E+00 0.  1.
         21    1    1    2  502  501  0.50976509265E-01  0.20370720893E-01  0.78698938910E-01  0.95953602080E-01  0.00000000000E+00 0. -1.
<mgrwt>
<rscale>  1 0.65005710E+03</rscale>
<asrwt>0</asrwt>
<pdfrwt beam="1">  1        1 0.38448007E+00 0.65005710E+03</pdfrwt>
<pdfrwt beam="2">0</pdfrwt>
<totfact> 0.15678594E+00</totfact>
</mgrwt>
</event>
