<event>
 6    1  0.9368453E-003  0.6843676E+03  0.7818608E-02  0.9744346E-01
          1   -1    0    0  502    0  0.00000000000E+00  0.00000000000E+00  0.11708992475E+03  0.11708992475E+03  0.00000000000E+00 0.  1.
         13   -1    0    0    0    0 -0.00000000000E+00 -0.00000000000E+00 -0.10000000000E+04  0.10000000000E+04  0.00000000000E+00 0.  1.
    9000005    2    1    2  501    0  0.51553648234E-04 -0.91888705754E-04 -0.88291022705E+03  0.11170897400E+04  0.68436760451E+03 0.  0.
         13    1    3    3    0    0 -0.32905195261E+03 -0.90582788008E+02 -0.48174722714E+03  0.59039039614E+03  0.00000000000E+00 0.  1.
          3    1    3    3  501    0  0.32905200417E+03  0.90582696119E+02 -0.40116299991E+03  0.52669934382E+03  0.00000000000E+00 0.  1.
         21    1    1    2  502  501 -0.51553648239E-04  0.91888705759E-04  0.15180414425E-03  0.18478585201E-03  0.00000000000E+00 0.  1.
<mgrwt>
<rscale>  1 0.68436760E+03</rscale>
<asrwt>0</asrwt>
<pdfrwt beam="1">  1        1 0.42578244E+00 0.68436760E+03</pdfrwt>
<pdfrwt beam="2">0</pdfrwt>
<totfact> 0.10179204E+00</totfact>
</mgrwt>
</event>
<event>
 6    1  0.9368453E-003  0.6527558E+03  0.7818608E-02  0.9801622E-01
          1   -1    0    0  502    0  0.00000000000E+00  0.00000000000E+00  0.11122324313E+03  0.11122324313E+03  0.00000000000E+00 0.  1.
         13   -1    0    0    0    0 -0.00000000000E+00 -0.00000000000E+00 -0.10000000000E+04  0.10000000000E+04  0.00000000000E+00 0.  1.
    9000005    2    1    2  501    0 -0.14688249254E+00  0.18299188465E+01 -0.89327832263E+03  0.11063617339E+04  0.65275321099E+03 0.  0.
         13    1    3    3    0    0 -0.31657452703E+03  0.78636332348E+02 -0.41727848358E+03  0.52964557657E+03  0.00000000000E+00 0.  1.
          3    1    3    3  501    0  0.31642764454E+03 -0.76806413501E+02 -0.47599983905E+03  0.57671615736E+03  0.00000000000E+00 0.  1.
         21    1    1    2  502  501  0.14688249254E+00 -0.18299188465E+01  0.45015657545E+01  0.48615091992E+01  0.00000000000E+00 0. -1.
<mgrwt>
<rscale>  1 0.65275579E+03</rscale>
<asrwt>0</asrwt>
<pdfrwt beam="1">  1        1 0.40444901E+00 0.65275579E+03</pdfrwt>
<pdfrwt beam="2">0</pdfrwt>
<totfact> 0.12774116E+00</totfact>
</mgrwt>
</event>
<event>
 6    1  0.9368453E-003  0.6519856E+03  0.7818608E-02  0.9803061E-01
          1   -1    0    0  502    0  0.00000000000E+00  0.00000000000E+00  0.10628757989E+03  0.10628757989E+03  0.00000000000E+00 0.  1.
         13   -1    0    0    0    0 -0.00000000000E+00 -0.00000000000E+00 -0.10000000000E+04  0.10000000000E+04  0.00000000000E+00 0.  1.
    9000005    2    1    2  501    0 -0.34988141404E-01  0.19336426903E-01 -0.89369475552E+03  0.11062438751E+04  0.65198557780E+03 0.  0.
         13    1    3    3    0    0 -0.56413101068E+02 -0.10282091057E+02 -0.99135337677E+03  0.99301041133E+03  0.00000000000E+00 0.  1.
          1    1    3    3  501    0  0.56378112926E+02  0.10301427484E+02  0.97658621247E+02  0.11323346382E+03  0.00000000000E+00 0.  1.
         21    1    1    2  502  501  0.34988141404E-01 -0.19336426903E-01 -0.17664582263E-01  0.43704747005E-01  0.00000000000E+00 0. -1.
<mgrwt>
<rscale>  1 0.65198558E+03</rscale>
<asrwt>0</asrwt>
<pdfrwt beam="1">  1        1 0.38650111E+00 0.65198558E+03</pdfrwt>
<pdfrwt beam="2">0</pdfrwt>
<totfact> 0.15353615E+00</totfact>
</mgrwt>
</event>
<event>
 6    1  0.9368453E-003  0.6029497E+03  0.7818608E-02  0.9899305E-01
          3   -1    0    0  502    0  0.00000000000E+00  0.00000000000E+00  0.90919506365E+02  0.90919506365E+02  0.00000000000E+00 0.  1.
         13   -1    0    0    0    0 -0.00000000000E+00 -0.00000000000E+00 -0.10000000000E+04  0.10000000000E+04  0.00000000000E+00 0.  1.
    9000005    2    1    2  501    0  0.51024625537E-03  0.26333322806E-02 -0.90911286459E+03  0.10908870245E+04  0.60294966588E+03 0.  0.
         13    1    3    3    0    0  0.19953720324E+03 -0.27636992341E+01 -0.45712331638E+02  0.20472506142E+03  0.00000000000E+00 0.  1.
          3    1    3    3  501    0 -0.19953669300E+03  0.27663325663E+01 -0.86340053295E+03  0.88616196305E+03  0.00000000000E+00 0.  1.
         21    1    1    2  502  501 -0.51024625537E-03 -0.26333322806E-02  0.32370955077E-01  0.32481895307E-01  0.00000000000E+00 0.  1.
<mgrwt>
<rscale>  1 0.60294967E+03</rscale>
<asrwt>0</asrwt>
<pdfrwt beam="1">  1        3 0.33061708E+00 0.60294967E+03</pdfrwt>
<pdfrwt beam="2">0</pdfrwt>
<totfact> 0.13922342E-01</totfact>
</mgrwt>
</event>
<event>
 6    1  0.9368453E-003  0.6487545E+03  0.7818608E-02  0.9809119E-01
          1   -1    0    0  502    0  0.00000000000E+00  0.00000000000E+00  0.10522424884E+03  0.10522424884E+03  0.00000000000E+00 0.  1.
         13   -1    0    0    0    0 -0.00000000000E+00 -0.00000000000E+00 -0.10000000000E+04  0.10000000000E+04  0.00000000000E+00 0.  1.
    9000005    2    1    2  501    0 -0.17521755691E-02  0.29045809439E-02 -0.89477851328E+03  0.11052198744E+04  0.64875448580E+03 0.  0.
         13    1    3    3    0    0 -0.10272642385E+03  0.30729524072E+03 -0.47370572717E+03  0.57391654365E+03  0.00000000000E+00 0.  1.
          1    1    3    3  501    0  0.10272467167E+03 -0.30729233614E+03 -0.42107278612E+03  0.53130333072E+03  0.00000000000E+00 0.  1.
         21    1    1    2  502  501  0.17521755691E-02 -0.29045809439E-02  0.27621280785E-02  0.43744783926E-02  0.00000000000E+00 0. -1.
<mgrwt>
<rscale>  1 0.64875449E+03</rscale>
<asrwt>0</asrwt>
<pdfrwt beam="1">  1        1 0.38263444E+00 0.64875449E+03</pdfrwt>
<pdfrwt beam="2">0</pdfrwt>
<totfact> 0.15979720E+00</totfact>
</mgrwt>
</event>
<event>
 6    1  0.9368453E-003  0.6474965E+03  0.7818608E-02  0.9811488E-01
          1   -1    0    0  502    0  0.00000000000E+00  0.00000000000E+00  0.10481296711E+03  0.10481296711E+03  0.00000000000E+00 0.  1.
         13   -1    0    0    0    0 -0.00000000000E+00 -0.00000000000E+00 -0.10000000000E+04  0.10000000000E+04  0.00000000000E+00 0.  1.
    9000005    2    1    2  501    0 -0.17359764279E-04 -0.16863670169E-04 -0.89518708173E+03  0.11048129126E+04  0.64749645602E+03 0.  0.
         13    1    3    3    0    0 -0.60927926464E+02  0.27038302171E+03 -0.16210960737E+03  0.32108988687E+03  0.00000000000E+00 0.  1.
          1    1    3    3  501    0  0.60927909104E+02 -0.27038303857E+03 -0.73307747435E+03  0.78372302573E+03  0.00000000000E+00 0.  1.
         21    1    1    2  502  501  0.17359764277E-04  0.16863670128E-04  0.48832601026E-04  0.54501079887E-04  0.00000000000E+00 0. -1.
<mgrwt>
<rscale>  1 0.64749646E+03</rscale>
<asrwt>0</asrwt>
<pdfrwt beam="1">  1        1 0.38113887E+00 0.64749646E+03</pdfrwt>
<pdfrwt beam="2">0</pdfrwt>
<totfact> 0.16228363E+00</totfact>
</mgrwt>
</event>
<event>
 6    1  0.9368453E-003  0.6536773E+03  0.7818608E-02  0.9799903E-01
          1   -1    0    0  502    0  0.00000000000E+00  0.00000000000E+00  0.10684359251E+03  0.10684359251E+03  0.00000000000E+00 0.  1.
         13   -1    0    0    0    0 -0.00000000000E+00 -0.00000000000E+00 -0.10000000000E+04  0.10000000000E+04  0.00000000000E+00 0.  1.
    9000005    2    1    2  501    0 -0.57742632136E-03 -0.22749962667E-02 -0.89317641204E+03  0.11068234507E+04  0.65367732717E+03 0.  0.
         13    1    3    3    0    0  0.89717102032E+02 -0.69460247385E+02  0.72406014674E+02  0.13459760520E+03  0.00000000000E+00 0.  1.
          1    1    3    3  501    0 -0.89717679459E+02  0.69457972389E+02 -0.96558242672E+03  0.97222584553E+03  0.00000000000E+00 0.  1.
         21    1    1    2  502  501  0.57742632136E-03  0.22749962667E-02  0.20004559410E-01  0.20141783098E-01  0.00000000000E+00 0. -1.
<mgrwt>
<rscale>  1 0.65367733E+03</rscale>
<asrwt>0</asrwt>
<pdfrwt beam="1">  1        1 0.38852297E+00 0.65367733E+03</pdfrwt>
<pdfrwt beam="2">0</pdfrwt>
<totfact> 0.15035569E+00</totfact>
</mgrwt>
</event>
<event>
 6    1  0.9368453E-003  0.6387016E+03  0.7818608E-02  0.9828214E-01
          1   -1    0    0  502    0  0.00000000000E+00  0.00000000000E+00  0.10198594929E+03  0.10198594929E+03  0.00000000000E+00 0.  1.
         13   -1    0    0    0    0 -0.00000000000E+00 -0.00000000000E+00 -0.10000000000E+04  0.10000000000E+04  0.00000000000E+00 0.  1.
    9000005    2    1    2  501    0  0.23684170533E-02  0.78481450583E-03 -0.89801303097E+03  0.11019832539E+04  0.63870156415E+03 0.  0.
         13    1    3    3    0    0  0.14663679642E+03  0.27902152016E+03 -0.36052359195E+03  0.47888685421E+03  0.00000000000E+00 0.  1.
          1    1    3    3  501    0 -0.14663442801E+03 -0.27902073535E+03 -0.53748943902E+03  0.62309639968E+03  0.00000000000E+00 0.  1.
         21    1    1    2  502  501 -0.23684170533E-02 -0.78481450581E-03 -0.10197388019E-02  0.26954035637E-02  0.00000000000E+00 0. -1.
<mgrwt>
<rscale>  1 0.63870156E+03</rscale>
<asrwt>0</asrwt>
<pdfrwt beam="1">  1        1 0.37085878E+00 0.63870156E+03</pdfrwt>
<pdfrwt beam="2">0</pdfrwt>
<totfact> 0.18040435E+00</totfact>
</mgrwt>
</event>
<event>
 6    1  0.9368453E-003  0.6029333E+03  0.7818608E-02  0.9899339E-01
          1   -1    0    0  502    0  0.00000000000E+00  0.00000000000E+00  0.90897282123E+02  0.90897282123E+02  0.00000000000E+00 0.  1.
         13   -1    0    0    0    0 -0.00000000000E+00 -0.00000000000E+00 -0.10000000000E+04  0.10000000000E+04  0.00000000000E+00 0.  1.
    9000005    2    1    2  501    0 -0.11543820249E-02 -0.29135497193E-02 -0.90911769294E+03  0.10908819827E+04  0.60293326368E+03 0.  0.
         13    1    3    3    0    0 -0.79622630153E+02  0.27917835338E+03 -0.30755734828E+03  0.42293242806E+03  0.00000000000E+00 0.  1.
          1    1    3    3  501    0  0.79621475771E+02 -0.27918126693E+03 -0.60156034466E+03  0.66794955459E+03  0.00000000000E+00 0.  1.
         21    1    1    2  502  501  0.11543820249E-02  0.29135497193E-02  0.14975061945E-01  0.15299472216E-01  0.00000000000E+00 0.  1.
<mgrwt>
<rscale>  1 0.60293326E+03</rscale>
<asrwt>0</asrwt>
<pdfrwt beam="1">  1        1 0.33053627E+00 0.60293326E+03</pdfrwt>
<pdfrwt beam="2">0</pdfrwt>
<totfact> 0.27216312E+00</totfact>
</mgrwt>
</event>
<event>
 6    1  0.9368453E-003  0.6371957E+03  0.7818608E-02  0.9831107E-01
          1   -1    0    0  502    0  0.00000000000E+00  0.00000000000E+00  0.10230477953E+03  0.10230477953E+03  0.00000000000E+00 0.  1.
         13   -1    0    0    0    0 -0.00000000000E+00 -0.00000000000E+00 -0.10000000000E+04  0.10000000000E+04  0.00000000000E+00 0.  1.
    9000005    2    1    2  501    0  0.22423754538E+00 -0.70190449638E-01 -0.89847635782E+03  0.11014890683E+04  0.63719568965E+03 0.  0.
         13    1    3    3    0    0 -0.17770421580E+03  0.34139836039E+02  0.40060481973E+01  0.18099824623E+03  0.00000000000E+00 0.  1.
          3    1    3    3  501    0  0.17792845334E+03 -0.34210026488E+02 -0.90248240602E+03  0.92049082211E+03  0.00000000000E+00 0.  1.
         21    1    1    2  502  501 -0.22423754538E+00  0.70190449638E-01  0.78113734844E+00  0.81571118241E+00  0.00000000000E+00 0. -1.
<mgrwt>
<rscale>  1 0.63719573E+03</rscale>
<asrwt>0</asrwt>
<pdfrwt beam="1">  1        1 0.37201816E+00 0.63719573E+03</pdfrwt>
<pdfrwt beam="2">0</pdfrwt>
<totfact> 0.17834937E+00</totfact>
</mgrwt>
</event>
<event>
 6    1  0.9368453E-003  0.5883430E+03  0.7818608E-02  0.9929890E-01
          1   -1    0    0  502    0  0.00000000000E+00  0.00000000000E+00  0.87186764276E+02  0.87186764276E+02  0.00000000000E+00 0.  1.
         13   -1    0    0    0    0 -0.00000000000E+00 -0.00000000000E+00 -0.10000000000E+04  0.10000000000E+04  0.00000000000E+00 0.  1.
    9000005    2    1    2  501    0 -0.76449594436E-02  0.46314101615E-02 -0.91346309538E+03  0.10865368432E+04  0.58834299931E+03 0.  0.
         13    1    3    3    0    0  0.31413505277E+01  0.28539732215E+03 -0.58831904015E+03  0.65389662224E+03  0.00000000000E+00 0.  1.
          3    1    3    3  501    0 -0.31489954871E+01 -0.28539269074E+03 -0.32514405523E+03  0.43264022092E+03  0.00000000000E+00 0.  1.
         21    1    1    2  502  501  0.76449594436E-02 -0.46314101615E-02  0.64985965331E+00  0.64992112165E+00  0.00000000000E+00 0.  1.
<mgrwt>
<rscale>  1 0.58834300E+03</rscale>
<asrwt>0</asrwt>
<pdfrwt beam="1">  1        1 0.31704345E+00 0.58834300E+03</pdfrwt>
<pdfrwt beam="2">0</pdfrwt>
<totfact> 0.31212653E+00</totfact>
</mgrwt>
</event>
<event>
 6    1  0.9368453E-003  0.6519282E+03  0.7818608E-02  0.9803168E-01
          1   -1    0    0  502    0  0.00000000000E+00  0.00000000000E+00  0.10625283217E+03  0.10625283217E+03  0.00000000000E+00 0.  1.
         13   -1    0    0    0    0 -0.00000000000E+00 -0.00000000000E+00 -0.10000000000E+04  0.10000000000E+04  0.00000000000E+00 0.  1.
    9000005    2    1    2  501    0  0.27403385744E-04  0.11831338984E-04 -0.89374740982E+03  0.11062525883E+04  0.65192818366E+03 0.  0.
         13    1    3    3    0    0  0.11252405655E+03  0.14483456232E+02 -0.96541599107E+03  0.97205939614E+03  0.00000000000E+00 0.  1.
          3    1    3    3  501    0 -0.11252402914E+03 -0.14483444400E+02  0.71668581247E+02  0.13419319221E+03  0.00000000000E+00 0.  1.
         21    1    1    2  502  501 -0.27403385740E-04 -0.11831338984E-04  0.24198836866E-03  0.24382226456E-03  0.00000000000E+00 0. -1.
<mgrwt>
<rscale>  1 0.65192818E+03</rscale>
<asrwt>0</asrwt>
<pdfrwt beam="1">  1        1 0.38637475E+00 0.65192818E+03</pdfrwt>
<pdfrwt beam="2">0</pdfrwt>
<totfact> 0.15373564E+00</totfact>
</mgrwt>
</event>
<event>
 6    1  0.9368453E-003  0.6540756E+03  0.7818608E-02  0.9799161E-01
          1   -1    0    0  502    0  0.00000000000E+00  0.00000000000E+00  0.10696131692E+03  0.10696131692E+03  0.00000000000E+00 0.  1.
         13   -1    0    0    0    0 -0.00000000000E+00 -0.00000000000E+00 -0.10000000000E+04  0.10000000000E+04  0.00000000000E+00 0.  1.
    9000005    2    1    2  501    0 -0.18566380277E-04  0.20113230503E-03 -0.89304626464E+03  0.11069537327E+04  0.65407563436E+03 0.  0.
         13    1    3    3    0    0 -0.23608594285E+03 -0.11237182089E+02 -0.82905994428E+03  0.86209236041E+03  0.00000000000E+00 0.  1.
          3    1    3    3  501    0  0.23608592428E+03  0.11237383221E+02 -0.63986320364E+02  0.24486137225E+03  0.00000000000E+00 0.  1.
         21    1    1    2  502  501  0.18566380282E-04 -0.20113230503E-03  0.75815656589E-02  0.75842558471E-02  0.00000000000E+00 0. -1.
<mgrwt>
<rscale>  1 0.65407563E+03</rscale>
<asrwt>0</asrwt>
<pdfrwt beam="1">  1        1 0.38895106E+00 0.65407563E+03</pdfrwt>
<pdfrwt beam="2">0</pdfrwt>
<totfact> 0.14968924E+00</totfact>
</mgrwt>
</event>
<event>
 6    1  0.9368453E-003  0.6463010E+03  0.7818608E-02  0.9813745E-01
          1   -1    0    0  502    0  0.00000000000E+00  0.00000000000E+00  0.10442627546E+03  0.10442627546E+03  0.00000000000E+00 0.  1.
         13   -1    0    0    0    0 -0.00000000000E+00 -0.00000000000E+00 -0.10000000000E+04  0.10000000000E+04  0.00000000000E+00 0.  1.
    9000005    2    1    2  501    0 -0.31422579980E-04  0.21039920739E-04 -0.89557375460E+03  0.11044262271E+04  0.64630096804E+03 0.  0.
         13    1    3    3    0    0 -0.17561577692E+03  0.27125972953E+03 -0.45098594157E+03  0.55480722910E+03  0.00000000000E+00 0.  1.
          3    1    3    3  501    0  0.17561574550E+03 -0.27125970849E+03 -0.44458781303E+03  0.54961899805E+03  0.00000000000E+00 0.  1.
         21    1    1    2  502  501  0.31422579982E-04 -0.21039920733E-04  0.30056090051E-04  0.48305541569E-04  0.00000000000E+00 0.  1.
<mgrwt>
<rscale>  1 0.64630097E+03</rscale>
<asrwt>0</asrwt>
<pdfrwt beam="1">  1        1 0.37973271E+00 0.64630097E+03</pdfrwt>
<pdfrwt beam="2">0</pdfrwt>
<totfact> 0.16465533E+00</totfact>
</mgrwt>
</event>
<event>
 6    1  0.9368453E-003  0.6364037E+03  0.7818608E-02  0.9832631E-01
          1   -1    0    0  502    0  0.00000000000E+00  0.00000000000E+00  0.10125496357E+03  0.10125496357E+03  0.00000000000E+00 0.  1.
         13   -1    0    0    0    0 -0.00000000000E+00 -0.00000000000E+00 -0.10000000000E+04  0.10000000000E+04  0.00000000000E+00 0.  1.
    9000005    2    1    2  501    0  0.64074943727E-02  0.11643244773E-02 -0.89874171930E+03  0.11012476550E+04  0.63640373947E+03 0.  0.
         13    1    3    3    0    0 -0.17708676445E+03 -0.24467286431E+03 -0.62263894381E+03  0.69202874725E+03  0.00000000000E+00 0.  1.
          1    1    3    3  501    0  0.17709317194E+03  0.24467402863E+03 -0.27610277549E+03  0.40921890776E+03  0.00000000000E+00 0.  1.
         21    1    1    2  502  501 -0.64074943727E-02 -0.11643244773E-02 -0.33171284408E-02  0.73085550362E-02  0.00000000000E+00 0.  1.
<mgrwt>
<rscale>  1 0.63640374E+03</rscale>
<asrwt>0</asrwt>
<pdfrwt beam="1">  1        1 0.36820064E+00 0.63640374E+03</pdfrwt>
<pdfrwt beam="2">0</pdfrwt>
<totfact> 0.18539602E+00</totfact>
</mgrwt>
</event>
<event>
 6    1  0.9368453E-003  0.6522103E+03  0.7818608E-02  0.9802641E-01
          1   -1    0    0  502    0  0.00000000000E+00  0.00000000000E+00  0.10634531315E+03  0.10634531315E+03  0.00000000000E+00 0.  1.
         13   -1    0    0    0    0 -0.00000000000E+00 -0.00000000000E+00 -0.10000000000E+04  0.10000000000E+04  0.00000000000E+00 0.  1.
    9000005    2    1    2  501    0  0.55835802777E-03 -0.31670065232E-03 -0.89365528255E+03  0.11063444374E+04  0.65221028064E+03 0.  0.
         13    1    3    3    0    0  0.11616240908E+03 -0.30425857456E+03 -0.47509764049E+03  0.57600759845E+03  0.00000000000E+00 0.  1.
          1    1    3    3  501    0 -0.11616185072E+03  0.30425825786E+03 -0.41855764206E+03  0.53033683896E+03  0.00000000000E+00 0.  1.
         21    1    1    2  502  501 -0.55835802778E-03  0.31670065233E-03  0.59569174750E-03  0.87573491903E-03  0.00000000000E+00 0. -1.
<mgrwt>
<rscale>  1 0.65221028E+03</rscale>
<asrwt>0</asrwt>
<pdfrwt beam="1">  1        1 0.38671105E+00 0.65221028E+03</pdfrwt>
<pdfrwt beam="2">0</pdfrwt>
<totfact> 0.15320157E+00</totfact>
</mgrwt>
</event>
<event>
 6    1  0.9368453E-003  0.6595478E+03  0.7818608E-02  0.9789027E-01
          1   -1    0    0  502    0  0.00000000000E+00  0.00000000000E+00  0.10875090780E+03  0.10875090780E+03  0.00000000000E+00 0.  1.
         13   -1    0    0    0    0 -0.00000000000E+00 -0.00000000000E+00 -0.10000000000E+04  0.10000000000E+04  0.00000000000E+00 0.  1.
    9000005    2    1    2  501    0 -0.13155214708E-03  0.93025958677E-04 -0.89124908761E+03  0.11087507466E+04  0.65954778596E+03 0.  0.
         13    1    3    3    0    0  0.26649169327E+03 -0.14844045355E+03 -0.65625195105E+03  0.72368433318E+03  0.00000000000E+00 0.  1.
          3    1    3    3  501    0 -0.26649182482E+03  0.14844054658E+03 -0.23499713655E+03  0.38506641343E+03  0.00000000000E+00 0.  1.
         21    1    1    2  502  501  0.13155214706E-03 -0.93025958681E-04 -0.45898690863E-05  0.16118580360E-03  0.00000000000E+00 0.  1.
<mgrwt>
<rscale>  1 0.65954779E+03</rscale>
<asrwt>0</asrwt>
<pdfrwt beam="1">  1        1 0.39545868E+00 0.65954779E+03</pdfrwt>
<pdfrwt beam="2">0</pdfrwt>
<totfact> 0.13991195E+00</totfact>
</mgrwt>
</event>
<event>
 6    1  0.9368453E-003  0.6360205E+03  0.7818608E-02  0.9833370E-01
          1   -1    0    0  502    0  0.00000000000E+00  0.00000000000E+00  0.10156374090E+03  0.10156374090E+03  0.00000000000E+00 0.  1.
         13   -1    0    0    0    0 -0.00000000000E+00 -0.00000000000E+00 -0.10000000000E+04  0.10000000000E+04  0.00000000000E+00 0.  1.
    9000005    2    1    2  501    0 -0.70401602367E-01 -0.13727725096E+00 -0.89885430256E+03  0.11011181382E+04  0.63602049751E+03 0.  0.
         13    1    3    3    0    0  0.21590938265E+03 -0.22012668797E+03 -0.31454518435E+03  0.44046713074E+03  0.00000000000E+00 0.  1.
          1    1    3    3  501    0 -0.21597978425E+03  0.21998941072E+03 -0.58430911821E+03  0.66065100746E+03  0.00000000000E+00 0.  1.
         21    1    1    2  502  501  0.70401602367E-01  0.13727725096E+00  0.41804346175E+00  0.44560269878E+00  0.00000000000E+00 0. -1.
<mgrwt>
<rscale>  1 0.63602052E+03</rscale>
<asrwt>0</asrwt>
<pdfrwt beam="1">  1        1 0.36932347E+00 0.63602052E+03</pdfrwt>
<pdfrwt beam="2">0</pdfrwt>
<totfact> 0.18331678E+00</totfact>
</mgrwt>
</event>
<event>
 6    1  0.9368453E-003  0.6581373E+03  0.7818608E-02  0.9791629E-01
          1   -1    0    0  502    0  0.00000000000E+00  0.00000000000E+00  0.10828683309E+03  0.10828683309E+03  0.00000000000E+00 0.  1.
         13   -1    0    0    0    0 -0.00000000000E+00 -0.00000000000E+00 -0.10000000000E+04  0.10000000000E+04  0.00000000000E+00 0.  1.
    9000005    2    1    2  501    0 -0.44795567760E-04  0.39536258669E-04 -0.89171382788E+03  0.11082861694E+04  0.65813728243E+03 0.  0.
         13    1    3    3    0    0  0.17339961614E+03 -0.23412056546E+03 -0.70348999605E+03  0.76143157315E+03  0.00000000000E+00 0.  1.
          1    1    3    3  501    0 -0.17339966093E+03  0.23412060499E+03 -0.18822383183E+03  0.34685459628E+03  0.00000000000E+00 0.  1.
         21    1    1    2  502  501  0.44795567778E-04 -0.39536258661E-04  0.66097027252E-03  0.66366517145E-03  0.00000000000E+00 0. -1.
<mgrwt>
<rscale>  1 0.65813728E+03</rscale>
<asrwt>0</asrwt>
<pdfrwt beam="1">  1        1 0.39377113E+00 0.65813728E+03</pdfrwt>
<pdfrwt beam="2">0</pdfrwt>
<totfact> 0.14238738E+00</totfact>
</mgrwt>
</event>
<event>
 6    1  0.9368453E-003  0.6556722E+03  0.7818608E-02  0.9796194E-01
          1   -1    0    0  502    0  0.00000000000E+00  0.00000000000E+00  0.10760151681E+03  0.10760151681E+03  0.00000000000E+00 0.  1.
         13   -1    0    0    0    0 -0.00000000000E+00 -0.00000000000E+00 -0.10000000000E+04  0.10000000000E+04  0.00000000000E+00 0.  1.
    9000005    2    1    2  501    0  0.13805380408E+00  0.22413146665E+00 -0.89234541430E+03  0.11073329836E+04  0.65567211997E+03 0.  0.
         13    1    3    3    0    0  0.13451561053E+03  0.19522951409E+03 -0.63674469655E+02  0.24548615182E+03  0.00000000000E+00 0.  1.
          1    1    3    3  501    0 -0.13437755672E+03 -0.19500538262E+03 -0.82867094464E+03  0.86184683181E+03  0.00000000000E+00 0.  1.
         21    1    1    2  502  501 -0.13805380408E+00 -0.22413146665E+00 -0.53068886598E-01  0.26853318954E+00  0.00000000000E+00 0.  1.
<mgrwt>
<rscale>  1 0.65567217E+03</rscale>
<asrwt>0</asrwt>
<pdfrwt beam="1">  1        1 0.39127907E+00 0.65567217E+03</pdfrwt>
<pdfrwt beam="2">0</pdfrwt>
<totfact> 0.14612926E+00</totfact>
</mgrwt>
</event>
<event>
 6    1  0.9368453E-003  0.6228203E+03  0.7818608E-02  0.9859160E-01
          1   -1    0    0  502    0  0.00000000000E+00  0.00000000000E+00  0.96976315058E+02  0.96976315058E+02  0.00000000000E+00 0.  1.
         13   -1    0    0    0    0 -0.00000000000E+00 -0.00000000000E+00 -0.10000000000E+04  0.10000000000E+04  0.00000000000E+00 0.  1.
    9000005    2    1    2  501    0  0.67131054777E-05 -0.48069655350E-05 -0.90302370465E+03  0.10969762937E+04  0.62282034149E+03 0.  0.
         13    1    3    3    0    0  0.90545859142E+02 -0.29778384607E+03 -0.43367784234E+03  0.53380730842E+03  0.00000000000E+00 0.  1.
          3    1    3    3  501    0 -0.90545852429E+02  0.29778384126E+03 -0.46934586231E+03  0.56316898527E+03  0.00000000000E+00 0.  1.
         21    1    1    2  502  501 -0.67131054783E-05  0.48069655137E-05  0.19705758702E-04  0.21365617909E-04  0.00000000000E+00 0. -1.
<mgrwt>
<rscale>  1 0.62282034E+03</rscale>
<asrwt>0</asrwt>
<pdfrwt beam="1">  1        1 0.35264189E+00 0.62282034E+03</pdfrwt>
<pdfrwt beam="2">0</pdfrwt>
<totfact> 0.21738331E+00</totfact>
</mgrwt>
</event>
<event>
 6    1  0.9368453E-003  0.6472861E+03  0.7818608E-02  0.9811885E-01
          1   -1    0    0  502    0  0.00000000000E+00  0.00000000000E+00  0.11770669457E+03  0.11770669457E+03  0.00000000000E+00 0.  1.
         13   -1    0    0    0    0 -0.00000000000E+00 -0.00000000000E+00 -0.10000000000E+04  0.10000000000E+04  0.00000000000E+00 0.  1.
    9000005    2    1    2  501    0  0.10912660889E+02  0.16664633495E+02 -0.88618789180E+03  0.10974097987E+04  0.64697951329E+03 0.  0.
         13    1    3    3    0    0  0.18626820942E+03 -0.16207627144E+03 -0.79248075829E+03  0.83005440536E+03  0.00000000000E+00 0.  1.
          3    1    3    3  501    0 -0.17535554853E+03  0.17874090494E+03 -0.93707133515E+02  0.26735539338E+03  0.00000000000E+00 0.  1.
         21    1    1    2  502  501 -0.10912660889E+02 -0.16664633495E+02  0.38945863682E+01  0.20296895826E+02  0.00000000000E+00 0.  1.
<mgrwt>
<rscale>  1 0.64728609E+03</rscale>
<asrwt>0</asrwt>
<pdfrwt beam="1">  1        1 0.42802525E+00 0.64728609E+03</pdfrwt>
<pdfrwt beam="2">0</pdfrwt>
<totfact> 0.10016276E+00</totfact>
</mgrwt>
</event>
<event>
 6    1  0.9368453E-003  0.6474584E+03  0.7818608E-02  0.9811560E-01
          1   -1    0    0  502    0  0.00000000000E+00  0.00000000000E+00  0.10558751767E+03  0.10558751767E+03  0.00000000000E+00 0.  1.
         13   -1    0    0    0    0 -0.00000000000E+00 -0.00000000000E+00 -0.10000000000E+04  0.10000000000E+04  0.00000000000E+00 0.  1.
    9000005    2    1    2  501    0 -0.19760492179E+00 -0.84330721269E+00 -0.89492714245E+03  0.11045800010E+04  0.64745782730E+03 0.  0.
         13    1    3    3    0    0  0.97292596671E+02  0.15458474448E+03  0.83632236144E+01  0.18284484161E+03  0.00000000000E+00 0.  1.
          3    1    3    3  501    0 -0.97490201593E+02 -0.15542805170E+03 -0.90329036607E+03  0.92173515941E+03  0.00000000000E+00 0.  1.
         21    1    1    2  502  501  0.19760492179E+00  0.84330721269E+00  0.51466012400E+00  0.10075166516E+01  0.00000000000E+00 0. -1.
<mgrwt>
<rscale>  1 0.64745841E+03</rscale>
<asrwt>0</asrwt>
<pdfrwt beam="1">  1        1 0.38395542E+00 0.64745841E+03</pdfrwt>
<pdfrwt beam="2">0</pdfrwt>
<totfact> 0.15770130E+00</totfact>
</mgrwt>
</event>
<event>
 6    1  0.9368453E-003  0.5296591E+03  0.7818608E-02  0.1006315E+00
          1   -1    0    0  502    0  0.00000000000E+00  0.00000000000E+00  0.70148872951E+02  0.70148872951E+02  0.00000000000E+00 0.  1.
         13   -1    0    0    0    0 -0.00000000000E+00 -0.00000000000E+00 -0.10000000000E+04  0.10000000000E+04  0.00000000000E+00 0.  1.
    9000005    2    1    2  501    0  0.72453467789E-03 -0.97530136608E-03 -0.92986527914E+03  0.10701346688E+04  0.52965910926E+03 0.  0.
         13    1    3    3    0    0 -0.14207726492E+03  0.11662678600E+01 -0.13390549103E+02  0.14271165403E+03  0.00000000000E+00 0.  1.
          1    1    3    3  501    0  0.14207798946E+03 -0.11672431614E+01 -0.91647473004E+03  0.92742301478E+03  0.00000000000E+00 0.  1.
         21    1    1    2  502  501 -0.72453467789E-03  0.97530136608E-03  0.14152089464E-01  0.14204147262E-01  0.00000000000E+00 0. -1.
<mgrwt>
<rscale>  1 0.52965911E+03</rscale>
<asrwt>0</asrwt>
<pdfrwt beam="1">  1        1 0.25508735E+00 0.52965911E+03</pdfrwt>
<pdfrwt beam="2">0</pdfrwt>
<totfact> 0.58401051E+00</totfact>
</mgrwt>
</event>
<event>
 6    1  0.9368453E-003  0.6563030E+03  0.7818608E-02  0.9795023E-01
          3   -1    0    0  502    0  0.00000000000E+00  0.00000000000E+00  0.10775249572E+03  0.10775249572E+03  0.00000000000E+00 0.  1.
         13   -1    0    0    0    0 -0.00000000000E+00 -0.00000000000E+00 -0.10000000000E+04  0.10000000000E+04  0.00000000000E+00 0.  1.
    9000005    2    1    2  501    0  0.68030518101E-02 -0.56138739192E-01 -0.89230353190E+03  0.11076728909E+04  0.65630300693E+03 0.  0.
         13    1    3    3    0    0  0.26917684221E+03 -0.16879096118E+03 -0.30753164351E+03  0.44217900529E+03  0.00000000000E+00 0.  1.
          1    1    3    3  501    0 -0.26917003916E+03  0.16873482244E+03 -0.58477188839E+03  0.66549388557E+03  0.00000000000E+00 0.  1.
         21    1    1    2  502  501 -0.68030518101E-02  0.56138739192E-01  0.56027618237E-01  0.79604858880E-01  0.00000000000E+00 0. -1.
<mgrwt>
<rscale>  1 0.65630301E+03</rscale>
<asrwt>0</asrwt>
<pdfrwt beam="1">  1        3 0.39182808E+00 0.65630301E+03</pdfrwt>
<pdfrwt beam="2">0</pdfrwt>
<totfact> 0.65318150E-02</totfact>
</mgrwt>
</event>
<event>
 6    1  0.9368453E-003  0.6577701E+03  0.7818608E-02  0.9792307E-01
          1   -1    0    0  502    0  0.00000000000E+00  0.00000000000E+00  0.10855022136E+03  0.10855022136E+03  0.00000000000E+00 0.  1.
         13   -1    0    0    0    0 -0.00000000000E+00 -0.00000000000E+00 -0.10000000000E+04  0.10000000000E+04  0.00000000000E+00 0.  1.
    9000005    2    1    2  501    0 -0.50770090020E-01  0.21627565846E+00 -0.89179875552E+03  0.11081365335E+04  0.65777010211E+03 0.  0.
         13    1    3    3    0    0  0.87119958920E+02  0.83611610315E+02 -0.96133761486E+03  0.96889153075E+03  0.00000000000E+00 0.  1.
          3    1    3    3  501    0 -0.87170729010E+02 -0.83395334656E+02  0.69538859341E+02  0.13924500277E+03  0.00000000000E+00 0.  1.
         21    1    1    2  502  501  0.50770090020E-01 -0.21627565846E+00  0.34897687892E+00  0.41368783461E+00  0.00000000000E+00 0. -1.
<mgrwt>
<rscale>  1 0.65777014E+03</rscale>
<asrwt>0</asrwt>
<pdfrwt beam="1">  1        1 0.39472891E+00 0.65777014E+03</pdfrwt>
<pdfrwt beam="2">0</pdfrwt>
<totfact> 0.14100806E+00</totfact>
</mgrwt>
</event>
<event>
 6    1  0.9368453E-003  0.6298968E+03  0.7818608E-02  0.9845250E-01
          1   -1    0    0  502    0  0.00000000000E+00  0.00000000000E+00  0.99192508389E+02  0.99192508389E+02  0.00000000000E+00 0.  1.
         13   -1    0    0    0    0 -0.00000000000E+00 -0.00000000000E+00 -0.10000000000E+04  0.10000000000E+04  0.00000000000E+00 0.  1.
    9000005    2    1    2  501    0  0.40194295110E-05  0.11578420640E-05 -0.90080749239E+03  0.10991925041E+04  0.62989683504E+03 0.  0.
         13    1    3    3    0    0 -0.11967312293E+03 -0.15266985342E+03 -0.17428178412E+02  0.19476519684E+03  0.00000000000E+00 0.  1.
          3    1    3    3  501    0  0.11967312695E+03  0.15266985458E+03 -0.88337931398E+03  0.90442730729E+03  0.00000000000E+00 0.  1.
         21    1    1    2  502  501 -0.40194295161E-05 -0.11578420674E-05  0.78034884274E-06  0.42550389192E-05  0.00000000000E+00 0. -1.
<mgrwt>
<rscale>  1 0.62989684E+03</rscale>
<asrwt>0</asrwt>
<pdfrwt beam="1">  1        1 0.36070079E+00 0.62989684E+03</pdfrwt>
<pdfrwt beam="2">0</pdfrwt>
<totfact> 0.20020387E+00</totfact>
</mgrwt>
</event>
<event>
 6    1  0.9368453E-003  0.6517765E+03  0.7818608E-02  0.9803451E-01
          1   -1    0    0  502    0  0.00000000000E+00  0.00000000000E+00  0.10623743791E+03  0.10623743791E+03  0.00000000000E+00 0.  1.
         13   -1    0    0    0    0 -0.00000000000E+00 -0.00000000000E+00 -0.10000000000E+04  0.10000000000E+04  0.00000000000E+00 0.  1.
    9000005    2    1    2  501    0 -0.52278140713E-01  0.29413526594E-01 -0.89376495043E+03  0.11061774057E+04  0.65177654353E+03 0.  0.
         13    1    3    3    0    0 -0.22936989591E+03 -0.92777661369E+02 -0.80690340174E+03  0.84398539285E+03  0.00000000000E+00 0.  1.
          1    1    3    3  501    0  0.22931761777E+03  0.92807074895E+02 -0.86861548693E+02  0.26219201287E+03  0.00000000000E+00 0.  1.
         21    1    1    2  502  501  0.52278140713E-01 -0.29413526594E-01  0.23883404958E-02  0.60032188978E-01  0.00000000000E+00 0.  1.
<mgrwt>
<rscale>  1 0.65177655E+03</rscale>
<asrwt>0</asrwt>
<pdfrwt beam="1">  1        1 0.38631877E+00 0.65177655E+03</pdfrwt>
<pdfrwt beam="2">0</pdfrwt>
<totfact> 0.15382769E+00</totfact>
</mgrwt>
</event>
<event>
 6    1  0.9368453E-003  0.6588859E+03  0.7818608E-02  0.9790247E-01
          1   -1    0    0  502    0  0.00000000000E+00  0.00000000000E+00  0.10853322324E+03  0.10853322324E+03  0.00000000000E+00 0.  1.
         13   -1    0    0    0    0 -0.00000000000E+00 -0.00000000000E+00 -0.10000000000E+04  0.10000000000E+04  0.00000000000E+00 0.  1.
    9000005    2    1    2  501    0  0.12020936171E-03  0.99303119953E-04 -0.89146733475E+03  0.11085326439E+04  0.65888588816E+03 0.  0.
         13    1    3    3    0    0 -0.98485200356E+02  0.28916106566E+03 -0.23817813416E+03  0.38735291424E+03  0.00000000000E+00 0.  1.
          1    1    3    3  501    0  0.98485320566E+02 -0.28916096635E+03 -0.65328920059E+03  0.72117972963E+03  0.00000000000E+00 0.  1.
         21    1    1    2  502  501 -0.12020936172E-03 -0.99303119928E-04  0.55798257311E-03  0.57935822439E-03  0.00000000000E+00 0.  1.
<mgrwt>
<rscale>  1 0.65888589E+03</rscale>
<asrwt>0</asrwt>
<pdfrwt beam="1">  1        1 0.39466710E+00 0.65888589E+03</pdfrwt>
<pdfrwt beam="2">0</pdfrwt>
<totfact> 0.14106800E+00</totfact>
</mgrwt>
</event>
<event>
 6    1  0.9368453E-003  0.6484455E+03  0.7818608E-02  0.9809700E-01
          1   -1    0    0  502    0  0.00000000000E+00  0.00000000000E+00  0.10512579761E+03  0.10512579761E+03  0.00000000000E+00 0.  1.
         13   -1    0    0    0    0 -0.00000000000E+00 -0.00000000000E+00 -0.10000000000E+04  0.10000000000E+04  0.00000000000E+00 0.  1.
    9000005    2    1    2  501    0  0.44977921567E-03  0.20113516106E-02 -0.89487939073E+03  0.11051202149E+04  0.64844549918E+03 0.  0.
         13    1    3    3    0    0  0.56629754354E+02 -0.28348910656E+03 -0.19727277098E+03  0.34998506938E+03  0.00000000000E+00 0.  1.
          3    1    3    3  501    0 -0.56629304575E+02  0.28349111791E+03 -0.69760661975E+03  0.75513514551E+03  0.00000000000E+00 0.  1.
         21    1    1    2  502  501 -0.44977921567E-03 -0.20113516106E-02  0.51883430168E-02  0.55827179675E-02  0.00000000000E+00 0.  1.
<mgrwt>
<rscale>  1 0.64844550E+03</rscale>
<asrwt>0</asrwt>
<pdfrwt beam="1">  1        1 0.38227643E+00 0.64844550E+03</pdfrwt>
<pdfrwt beam="2">0</pdfrwt>
<totfact> 0.16038930E+00</totfact>
</mgrwt>
</event>
<event>
 6    1  0.9368453E-003  0.6531833E+03  0.7818608E-02  0.9800824E-01
          1   -1    0    0  502    0  0.00000000000E+00  0.00000000000E+00  0.10695571464E+03  0.10695571464E+03  0.00000000000E+00 0.  1.
         13   -1    0    0    0    0 -0.00000000000E+00 -0.00000000000E+00 -0.10000000000E+04  0.10000000000E+04  0.00000000000E+00 0.  1.
    9000005    2    1    2  501    0  0.23834475027E+00  0.47151445753E+00 -0.89304706264E+03  0.11064273759E+04  0.65318313123E+03 0.  0.
         13    1    3    3    0    0  0.23762645331E+03 -0.29892195729E+02 -0.70335125763E+02  0.24961351044E+03  0.00000000000E+00 0.  1.
          3    1    3    3  501    0 -0.23738810855E+03  0.30363710186E+02 -0.82271193688E+03  0.85681386547E+03  0.00000000000E+00 0.  1.
         21    1    1    2  502  501 -0.23834475027E+00 -0.47151445753E+00  0.27772846648E-02  0.52833873315E+00  0.00000000000E+00 0.  1.
<mgrwt>
<rscale>  1 0.65318334E+03</rscale>
<asrwt>0</asrwt>
<pdfrwt beam="1">  1        1 0.38893069E+00 0.65318334E+03</pdfrwt>
<pdfrwt beam="2">0</pdfrwt>
<totfact> 0.14974513E+00</totfact>
</mgrwt>
</event>
<event>
 6    1  0.9368453E-003  0.6523832E+03  0.7818608E-02  0.9802318E-01
          1   -1    0    0  502    0  0.00000000000E+00  0.00000000000E+00  0.10644176982E+03  0.10644176982E+03  0.00000000000E+00 0.  1.
         13   -1    0    0    0    0 -0.00000000000E+00 -0.00000000000E+00 -0.10000000000E+04  0.10000000000E+04  0.00000000000E+00 0.  1.
    9000005    2    1    2  501    0  0.14967320908E-02 -0.32942681926E-02 -0.89359895761E+03  0.11064008820E+04  0.65238318078E+03 0.  0.
         13    1    3    3    0    0  0.13704768231E+03  0.29804531480E+02 -0.94625444584E+03  0.95659179047E+03  0.00000000000E+00 0.  1.
          1    1    3    3  501    0 -0.13704618558E+03 -0.29807825748E+02  0.52655488224E+02  0.14980909150E+03  0.00000000000E+00 0.  1.
         21    1    1    2  502  501 -0.14967320908E-02  0.32942681926E-02  0.40727431728E-01  0.40887847889E-01  0.00000000000E+00 0. -1.
<mgrwt>
<rscale>  1 0.65238318E+03</rscale>
<asrwt>0</asrwt>
<pdfrwt beam="1">  1        1 0.38706180E+00 0.65238318E+03</pdfrwt>
<pdfrwt beam="2">0</pdfrwt>
<totfact> 0.15264984E+00</totfact>
</mgrwt>
</event>
<event>
 6    1  0.9368453E-003  0.6642603E+03  0.7818608E-02  0.9780383E-01
          1   -1    0    0  502    0  0.00000000000E+00  0.00000000000E+00  0.11031058089E+03  0.11031058089E+03  0.00000000000E+00 0.  1.
         13   -1    0    0    0    0 -0.00000000000E+00 -0.00000000000E+00 -0.10000000000E+04  0.10000000000E+04  0.00000000000E+00 0.  1.
    9000005    2    1    2  501    0  0.12081318289E-04 -0.96831300027E-05 -0.88968955861E+03  0.11103104405E+04  0.66426031317E+03 0.  0.
         13    1    3    3    0    0  0.22773267932E+03  0.15044385756E+03 -0.76117310443E+03  0.80862848231E+03  0.00000000000E+00 0.  1.
          1    1    3    3  501    0 -0.22773266724E+03 -0.15044386724E+03 -0.12851645419E+03  0.30168195822E+03  0.00000000000E+00 0.  1.
         21    1    1    2  502  501 -0.12081318279E-04  0.96831300114E-05  0.13950401250E-03  0.14036057410E-03  0.00000000000E+00 0. -1.
<mgrwt>
<rscale>  1 0.66426031E+03</rscale>
<asrwt>0</asrwt>
<pdfrwt beam="1">  1        1 0.40113023E+00 0.66426031E+03</pdfrwt>
<pdfrwt beam="2">0</pdfrwt>
<totfact> 0.13188808E+00</totfact>
</mgrwt>
</event>
<event>
 6    1  0.9368453E-003  0.6439303E+03  0.7818608E-02  0.9818236E-01
          1   -1    0    0  502    0  0.00000000000E+00  0.00000000000E+00  0.10366169259E+03  0.10366169259E+03  0.00000000000E+00 0.  1.
         13   -1    0    0    0    0 -0.00000000000E+00 -0.00000000000E+00 -0.10000000000E+04  0.10000000000E+04  0.00000000000E+00 0.  1.
    9000005    2    1    2  501    0  0.17459146790E-03 -0.61171451492E-04 -0.89633834444E+03  0.11036615039E+04  0.64393034369E+03 0.  0.
         13    1    3    3    0    0 -0.30042445270E+03  0.93237845323E+02 -0.56583819015E+03  0.64739555529E+03  0.00000000000E+00 0.  1.
          1    1    3    3  501    0  0.30042462729E+03 -0.93237906495E+02 -0.33050015429E+03  0.45626594863E+03  0.00000000000E+00 0.  1.
         21    1    1    2  502  501 -0.17459146789E-03  0.61171451496E-04  0.37023425259E-04  0.18866600424E-03  0.00000000000E+00 0.  1.
<mgrwt>
<rscale>  1 0.64393034E+03</rscale>
<asrwt>0</asrwt>
<pdfrwt beam="1">  1        1 0.37695240E+00 0.64393034E+03</pdfrwt>
<pdfrwt beam="2">0</pdfrwt>
<totfact> 0.16944249E+00</totfact>
</mgrwt>
</event>
<event>
 6    1  0.9368453E-003  0.6544293E+03  0.7818608E-02  0.9798503E-01
          1   -1    0    0  502    0  0.00000000000E+00  0.00000000000E+00  0.11548001345E+03  0.11548001345E+03  0.00000000000E+00 0.  1.
         13   -1    0    0    0    0 -0.00000000000E+00 -0.00000000000E+00 -0.10000000000E+04  0.10000000000E+04  0.00000000000E+00 0.  1.
    9000005    2    1    2  501    0  0.69290839819E+01  0.11881705224E+02 -0.88617332265E+03  0.11016264708E+04  0.65428475166E+03 0.  0.
         13    1    3    3    0    0 -0.53133761229E+02 -0.89245935491E+02 -0.95812919351E+03  0.96374248897E+03  0.00000000000E+00 0.  1.
          1    1    3    3  501    0  0.60062845211E+02  0.10112764072E+03  0.71955870863E+02  0.13788398182E+03  0.00000000000E+00 0.  1.
         21    1    1    2  502  501 -0.69290839819E+01 -0.11881705224E+02  0.16533361001E+01  0.13853542656E+02  0.00000000000E+00 0.  1.
<mgrwt>
<rscale>  1 0.65442931E+03</rscale>
<asrwt>0</asrwt>
<pdfrwt beam="1">  1        1 0.41992821E+00 0.65442931E+03</pdfrwt>
<pdfrwt beam="2">0</pdfrwt>
<totfact> 0.10881806E+00</totfact>
</mgrwt>
</event>
<event>
 6    1  0.9368453E-003  0.6553805E+03  0.7818608E-02  0.9796735E-01
          1   -1    0    0  502    0  0.00000000000E+00  0.00000000000E+00  0.10738093208E+03  0.10738093208E+03  0.00000000000E+00 0.  1.
         13   -1    0    0    0    0 -0.00000000000E+00 -0.00000000000E+00 -0.10000000000E+04  0.10000000000E+04  0.00000000000E+00 0.  1.
    9000005    2    1    2  501    0  0.26438124451E-04 -0.84773821243E-05 -0.89261910715E+03  0.11073808840E+04  0.65538046342E+03 0.  0.
         13    1    3    3    0    0 -0.13147733627E+03  0.14877573125E+03 -0.58242487258E+01  0.19863139237E+03  0.00000000000E+00 0.  1.
          3    1    3    3  501    0  0.13147736271E+03 -0.14877573973E+03 -0.88679485843E+03  0.90874949165E+03  0.00000000000E+00 0.  1.
         21    1    1    2  502  501 -0.26438124448E-04  0.84773821189E-05  0.39228320383E-04  0.48059354469E-04  0.00000000000E+00 0.  1.
<mgrwt>
<rscale>  1 0.65538046E+03</rscale>
<asrwt>0</asrwt>
<pdfrwt beam="1">  1        1 0.39047694E+00 0.65538046E+03</pdfrwt>
<pdfrwt beam="2">0</pdfrwt>
<totfact> 0.14733965E+00</totfact>
</mgrwt>
</event>
<event>
 6    1  0.9368453E-003  0.6426885E+03  0.7818608E-02  0.9820596E-01
          1   -1    0    0  502    0  0.00000000000E+00  0.00000000000E+00  0.10326219723E+03  0.10326219723E+03  0.00000000000E+00 0.  1.
         13   -1    0    0    0    0 -0.00000000000E+00 -0.00000000000E+00 -0.10000000000E+04  0.10000000000E+04  0.00000000000E+00 0.  1.
    9000005    2    1    2  501    0 -0.10828106377E-03 -0.16646486560E-03 -0.89673742558E+03  0.11032617710E+04  0.64268851306E+03 0.  0.
         13    1    3    3    0    0  0.76537477272E+02  0.15335295860E+03 -0.91498718529E+03  0.93090099613E+03  0.00000000000E+00 0.  1.
          1    1    3    3  501    0 -0.76537585553E+02 -0.15335312507E+03  0.18249759712E+02  0.17236077483E+03  0.00000000000E+00 0.  1.
         21    1    1    2  502  501  0.10828106378E-03  0.16646486558E-03 -0.37719177424E-03  0.42627335690E-03  0.00000000000E+00 0. -1.
<mgrwt>
<rscale>  1 0.64268851E+03</rscale>
<asrwt>0</asrwt>
<pdfrwt beam="1">  1        1 0.37549969E+00 0.64268851E+03</pdfrwt>
<pdfrwt beam="2">0</pdfrwt>
<totfact> 0.17199637E+00</totfact>
</mgrwt>
</event>
<event>
 6    1  0.9368453E-003  0.6982332E+03  0.7818608E-02  0.9720258E-01
          1   -1    0    0  502    0  0.00000000000E+00  0.00000000000E+00  0.12188378479E+03  0.12188378479E+03  0.00000000000E+00 0.  1.
         13   -1    0    0    0    0 -0.00000000000E+00 -0.00000000000E+00 -0.10000000000E+04  0.10000000000E+04  0.00000000000E+00 0.  1.
    9000005    2    1    2  501    0  0.10828297604E-04  0.21177984308E-04 -0.87811759691E+03  0.11218824029E+04  0.69823320738E+03 0.  0.
         13    1    3    3    0    0 -0.86547524396E+02  0.26792808695E+03 -0.77071234410E+03  0.82053241929E+03  0.00000000000E+00 0.  1.
          3    1    3    3  501    0  0.86547535224E+02 -0.26792806577E+03 -0.10740525281E+03  0.30134998359E+03  0.00000000000E+00 0.  1.
         21    1    1    2  502  501 -0.10828297599E-04 -0.21177984339E-04  0.13817032804E-02  0.13819079977E-02  0.00000000000E+00 0. -1.
<mgrwt>
<rscale>  1 0.69823321E+03</rscale>
<asrwt>0</asrwt>
<pdfrwt beam="1">  1        1 0.44321470E+00 0.69823321E+03</pdfrwt>
<pdfrwt beam="2">0</pdfrwt>
<totfact> 0.84539946E-01</totfact>
</mgrwt>
</event>
<event>
 6    1  0.9368453E-003  0.6357003E+03  0.7818608E-02  0.9833988E-01
          1   -1    0    0  502    0  0.00000000000E+00  0.00000000000E+00  0.10102911768E+03  0.10102911768E+03  0.00000000000E+00 0.  1.
         13   -1    0    0    0    0 -0.00000000000E+00 -0.00000000000E+00 -0.10000000000E+04  0.10000000000E+04  0.00000000000E+00 0.  1.
    9000005    2    1    2  501    0  0.82034452106E-04 -0.25096269013E-03 -0.89897124051E+03  0.11010286727E+04  0.63570028066E+03 0.  0.
         13    1    3    3    0    0 -0.58057623613E+02 -0.27607922643E+03 -0.19589005690E+03  0.34345791783E+03  0.00000000000E+00 0.  1.
          3    1    3    3  501    0  0.58057705647E+02  0.27607897547E+03 -0.70308118361E+03  0.75757075487E+03  0.00000000000E+00 0.  1.
         21    1    1    2  502  501 -0.82034452102E-04  0.25096269013E-03  0.35819409265E-03  0.44498868657E-03  0.00000000000E+00 0. -1.
<mgrwt>
<rscale>  1 0.63570028E+03</rscale>
<asrwt>0</asrwt>
<pdfrwt beam="1">  1        1 0.36737938E+00 0.63570028E+03</pdfrwt>
<pdfrwt beam="2">0</pdfrwt>
<totfact> 0.18696456E+00</totfact>
</mgrwt>
</event>
<event>
 6    1  0.9368453E-003  0.6604296E+03  0.7818608E-02  0.9787403E-01
          1   -1    0    0  502    0  0.00000000000E+00  0.00000000000E+00  0.10904204995E+03  0.10904204995E+03  0.00000000000E+00 0.  1.
         13   -1    0    0    0    0 -0.00000000000E+00 -0.00000000000E+00 -0.10000000000E+04  0.10000000000E+04  0.00000000000E+00 0.  1.
    9000005    2    1    2  501    0  0.83443442236E-05 -0.65858261422E-06 -0.89095816973E+03  0.11090418301E+04  0.66042964859E+03 0.  0.
         13    1    3    3    0    0  0.25925584701E+03  0.37702343101E+02 -0.78303711689E+03  0.82570102780E+03  0.00000000000E+00 0.  1.
          1    1    3    3  501    0 -0.25925583867E+03 -0.37702343759E+02 -0.10792105284E+03  0.28334080231E+03  0.00000000000E+00 0.  1.
         21    1    1    2  502  501 -0.83443442157E-05  0.65858261368E-06  0.21967660323E-03  0.21983601120E-03  0.00000000000E+00 0. -1.
<mgrwt>
<rscale>  1 0.66042965E+03</rscale>
<asrwt>0</asrwt>
<pdfrwt beam="1">  1        1 0.39651738E+00 0.66042965E+03</pdfrwt>
<pdfrwt beam="2">0</pdfrwt>
<totfact> 0.13837989E+00</totfact>
</mgrwt>
</event>
<event>
 6    1  0.9368453E-003  0.6593543E+03  0.7818608E-02  0.9789383E-01
          1   -1    0    0  502    0  0.00000000000E+00  0.00000000000E+00  0.10868844296E+03  0.10868844296E+03  0.00000000000E+00 0.  1.
         13   -1    0    0    0    0 -0.00000000000E+00 -0.00000000000E+00 -0.10000000000E+04  0.10000000000E+04  0.00000000000E+00 0.  1.
    9000005    2    1    2  501    0 -0.20795160666E-02  0.28885565630E-02 -0.89130974826E+03  0.11086844505E+04  0.65935433827E+03 0.  0.
         13    1    3    3    0    0 -0.13498404779E+03  0.86322892053E+02  0.38815254811E+02  0.16486042234E+03  0.00000000000E+00 0.  1.
          3    1    3    3  501    0  0.13498196827E+03 -0.86320003496E+02 -0.93012500307E+03  0.94382402814E+03  0.00000000000E+00 0.  1.
         21    1    1    2  502  501  0.20795160666E-02 -0.28885565630E-02 -0.18087834156E-02  0.39924733604E-02  0.00000000000E+00 0.  1.
<mgrwt>
<rscale>  1 0.65935434E+03</rscale>
<asrwt>0</asrwt>
<pdfrwt beam="1">  1        1 0.39523154E+00 0.65935434E+03</pdfrwt>
<pdfrwt beam="2">0</pdfrwt>
<totfact> 0.14024285E+00</totfact>
</mgrwt>
</event>
<event>
 6    1  0.9368453E-003  0.6333774E+03  0.7818608E-02  0.9838480E-01
          1   -1    0    0  502    0  0.00000000000E+00  0.00000000000E+00  0.10061806377E+03  0.10061806377E+03  0.00000000000E+00 0.  1.
         13   -1    0    0    0    0 -0.00000000000E+00 -0.00000000000E+00 -0.10000000000E+04  0.10000000000E+04  0.00000000000E+00 0.  1.
    9000005    2    1    2  501    0  0.88538834804E-01  0.35694039606E-01 -0.89970055859E+03  0.11002854478E+04  0.63337742488E+03 0.  0.
         13    1    3    3    0    0  0.63432338118E+02  0.26127862085E+03 -0.74065387576E+03  0.78794564718E+03  0.00000000000E+00 0.  1.
          3    1    3    3  501    0 -0.63343799283E+02 -0.26124292681E+03 -0.15904668283E+03  0.31233980060E+03  0.00000000000E+00 0.  1.
         21    1    1    2  502  501 -0.88538834804E-01 -0.35694039606E-01  0.31862235961E+00  0.33261599146E+00  0.00000000000E+00 0.  1.
<mgrwt>
<rscale>  1 0.63337743E+03</rscale>
<asrwt>0</asrwt>
<pdfrwt beam="1">  1        1 0.36588464E+00 0.63337743E+03</pdfrwt>
<pdfrwt beam="2">0</pdfrwt>
<totfact> 0.18988800E+00</totfact>
</mgrwt>
</event>
<event>
 6    1  0.9368453E-003  0.6519448E+03  0.7818608E-02  0.9803137E-01
          1   -1    0    0  502    0  0.00000000000E+00  0.00000000000E+00  0.10625814457E+03  0.10625814457E+03  0.00000000000E+00 0.  1.
         13   -1    0    0    0    0 -0.00000000000E+00 -0.00000000000E+00 -0.10000000000E+04  0.10000000000E+04  0.00000000000E+00 0.  1.
    9000005    2    1    2  501    0 -0.21191087014E-03 -0.26746287335E-03 -0.89374089786E+03  0.11062571280E+04  0.65194481420E+03 0.  0.
         13    1    3    3    0    0  0.51276071086E+02  0.23615012877E+03 -0.75643050630E+02  0.25321530343E+03  0.00000000000E+00 0.  1.
          3    1    3    3  501    0 -0.51276282997E+02 -0.23615039623E+03 -0.81809784723E+03  0.85304182458E+03  0.00000000000E+00 0.  1.
         21    1    1    2  502  501  0.21191087014E-03  0.26746287335E-03 -0.95757101182E-03  0.10165553837E-02  0.00000000000E+00 0.  1.
<mgrwt>
<rscale>  1 0.65194481E+03</rscale>
<asrwt>0</asrwt>
<pdfrwt beam="1">  1        1 0.38639407E+00 0.65194481E+03</pdfrwt>
<pdfrwt beam="2">0</pdfrwt>
<totfact> 0.15370490E+00</totfact>
</mgrwt>
</event>
<event>
 6    1  0.9368453E-003  0.6576683E+03  0.7818608E-02  0.9792496E-01
          1   -1    0    0  502    0  0.00000000000E+00  0.00000000000E+00  0.10813583164E+03  0.10813583164E+03  0.00000000000E+00 0.  1.
         13   -1    0    0    0    0 -0.00000000000E+00 -0.00000000000E+00 -0.10000000000E+04  0.10000000000E+04  0.00000000000E+00 0.  1.
    9000005    2    1    2  501    0 -0.12037423433E-02 -0.16558461772E-02 -0.89186780661E+03  0.11081316570E+04  0.65766829388E+03 0.  0.
         13    1    3    3    0    0  0.21684471876E+02 -0.15970200010E+03  0.37021246848E+02  0.16536480241E+03  0.00000000000E+00 0.  1.
          1    1    3    3  501    0 -0.21685675618E+02  0.15970034426E+03 -0.92888905345E+03  0.94276685459E+03  0.00000000000E+00 0.  1.
         21    1    1    2  502  501  0.12037423433E-02  0.16558461772E-02  0.36382492799E-02  0.41746472922E-02  0.00000000000E+00 0.  1.
<mgrwt>
<rscale>  1 0.65766829E+03</rscale>
<asrwt>0</asrwt>
<pdfrwt beam="1">  1        1 0.39322204E+00 0.65766829E+03</pdfrwt>
<pdfrwt beam="2">0</pdfrwt>
<totfact> 0.14320200E+00</totfact>
</mgrwt>
</event>
<event>
 6    1  0.9368453E-003  0.6397311E+03  0.7818608E-02  0.9826241E-01
          3   -1    0    0  502    0  0.00000000000E+00  0.00000000000E+00  0.10231399474E+03  0.10231399474E+03  0.00000000000E+00 0.  1.
         13   -1    0    0    0    0 -0.00000000000E+00 -0.00000000000E+00 -0.10000000000E+04  0.10000000000E+04  0.00000000000E+00 0.  1.
    9000005    2    1    2  501    0 -0.10508200351E-04 -0.60337015384E-07 -0.89768601533E+03  0.11023139802E+04  0.63973113788E+03 0.  0.
         13    1    3    3    0    0  0.19751430032E+02 -0.35737085397E+02  0.97804845774E+02  0.10598606568E+03  0.00000000000E+00 0.  1.
          1    1    3    3  501    0 -0.19751440540E+02  0.35737085337E+02 -0.99549086111E+03  0.99632791450E+03  0.00000000000E+00 0.  1.
         21    1    1    2  502  501  0.10508200350E-04  0.60337010933E-07  0.10074229332E-04  0.14557335326E-04  0.00000000000E+00 0.  1.
<mgrwt>
<rscale>  1 0.63973114E+03</rscale>
<asrwt>0</asrwt>
<pdfrwt beam="1">  1        3 0.37205167E+00 0.63973114E+03</pdfrwt>
<pdfrwt beam="2">0</pdfrwt>
<totfact> 0.83290495E-02</totfact>
</mgrwt>
</event>
<event>
 6    1  0.9368453E-003  0.6236091E+03  0.7818608E-02  0.9857600E-01
          1   -1    0    0  502    0  0.00000000000E+00  0.00000000000E+00  0.97223685205E+02  0.97223685205E+02  0.00000000000E+00 0.  1.
         13   -1    0    0    0    0 -0.00000000000E+00 -0.00000000000E+00 -0.10000000000E+04  0.10000000000E+04  0.00000000000E+00 0.  1.
    9000005    2    1    2  501    0  0.10274276752E-02 -0.63540321531E-03 -0.90277767708E+03  0.10972218644E+04  0.62360908075E+03 0.  0.
         13    1    3    3    0    0  0.91525898353E+02  0.26732237184E+03 -0.21940691312E+03  0.35773961771E+03  0.00000000000E+00 0.  1.
          3    1    3    3  501    0 -0.91524870926E+02 -0.26732300725E+03 -0.68337076396E+03  0.73948224673E+03  0.00000000000E+00 0.  1.
         21    1    1    2  502  501 -0.10274276752E-02  0.63540321533E-03  0.13622807802E-02  0.18207563807E-02  0.00000000000E+00 0.  1.
<mgrwt>
<rscale>  1 0.62360908E+03</rscale>
<asrwt>0</asrwt>
<pdfrwt beam="1">  1        1 0.35354142E+00 0.62360908E+03</pdfrwt>
<pdfrwt beam="2">0</pdfrwt>
<totfact> 0.21539762E+00</totfact>
</mgrwt>
</event>
<event>
 6    1  0.9368453E-003  0.6537619E+03  0.7818608E-02  0.9799746E-01
          1   -1    0    0  502    0  0.00000000000E+00  0.00000000000E+00  0.10973719307E+03  0.10973719307E+03  0.00000000000E+00 0.  1.
         13   -1    0    0    0    0 -0.00000000000E+00 -0.00000000000E+00 -0.10000000000E+04  0.10000000000E+04  0.00000000000E+00 0.  1.
    9000005    2    1    2  501    0  0.15911007911E+01 -0.36575055267E+00 -0.89289104834E+03  0.11066431620E+04  0.65375989359E+03 0.  0.
         13    1    3    3    0    0 -0.18703463781E+03 -0.16850954564E+03 -0.79792629441E+03  0.83669814988E+03  0.00000000000E+00 0.  1.
          1    1    3    3  501    0  0.18862573860E+03  0.16814379509E+03 -0.94964753938E+02  0.26994501214E+03  0.00000000000E+00 0.  1.
         21    1    1    2  502  501 -0.15911007911E+01  0.36575055267E+00  0.26282414120E+01  0.30940310460E+01  0.00000000000E+00 0. -1.
<mgrwt>
<rscale>  1 0.65376193E+03</rscale>
<asrwt>0</asrwt>
<pdfrwt beam="1">  1        1 0.39904518E+00 0.65376193E+03</pdfrwt>
<pdfrwt beam="2">0</pdfrwt>
<totfact> 0.13500818E+00</totfact>
</mgrwt>
</event>
<event>
 6    1  0.9368453E-003  0.6414212E+03  0.7818608E-02  0.9823011E-01
          1   -1    0    0  502    0  0.00000000000E+00  0.00000000000E+00  0.10525198276E+03  0.10525198276E+03  0.00000000000E+00 0.  1.
         13   -1    0    0    0    0 -0.00000000000E+00 -0.00000000000E+00 -0.10000000000E+04  0.10000000000E+04  0.00000000000E+00 0.  1.
    9000005    2    1    2  501    0  0.39082213606E+00 -0.19246441053E+00 -0.89712286742E+03  0.11028375060E+04  0.64142102839E+03 0.  0.
         13    1    3    3    0    0 -0.61833621209E+02 -0.11220015399E+03 -0.95406180779E+03  0.96262464354E+03  0.00000000000E+00 0.  1.
          3    1    3    3  501    0  0.62224443345E+02  0.11200768958E+03  0.56938940368E+02  0.14021286248E+03  0.00000000000E+00 0.  1.
         21    1    1    2  502  501 -0.39082213606E+00  0.19246441053E+00  0.23748501851E+01  0.24144767328E+01  0.00000000000E+00 0. -1.
<mgrwt>
<rscale>  1 0.64142118E+03</rscale>
<asrwt>0</asrwt>
<pdfrwt beam="1">  1        1 0.38273529E+00 0.64142118E+03</pdfrwt>
<pdfrwt beam="2">0</pdfrwt>
<totfact> 0.15985021E+00</totfact>
</mgrwt>
</event>
<event>
 6    1  0.9368453E-003  0.6516854E+03  0.7818608E-02  0.9803622E-01
          1   -1    0    0  502    0  0.00000000000E+00  0.00000000000E+00  0.10617348654E+03  0.10617348654E+03  0.00000000000E+00 0.  1.
         13   -1    0    0    0    0 -0.00000000000E+00 -0.00000000000E+00 -0.10000000000E+04  0.10000000000E+04  0.00000000000E+00 0.  1.
    9000005    2    1    2  501    0 -0.23755548227E-04 -0.30748494083E-04 -0.89382649494E+03  0.11061734435E+04  0.65168541799E+03 0.  0.
         13    1    3    3    0    0 -0.16490428544E+03  0.14208404612E+03 -0.85848444306E+03  0.88565051713E+03  0.00000000000E+00 0.  1.
          1    1    3    3  501    0  0.16490426168E+03 -0.14208407687E+03 -0.35342051881E+02  0.22052292636E+03  0.00000000000E+00 0.  1.
         21    1    1    2  502  501  0.23755548224E-04  0.30748494096E-04 -0.18522065260E-04  0.43044893565E-04  0.00000000000E+00 0.  1.
<mgrwt>
<rscale>  1 0.65168542E+03</rscale>
<asrwt>0</asrwt>
<pdfrwt beam="1">  1        1 0.38608622E+00 0.65168542E+03</pdfrwt>
<pdfrwt beam="2">0</pdfrwt>
<totfact> 0.15419529E+00</totfact>
</mgrwt>
</event>
<event>
 6    1  0.9368453E-003  0.6401097E+03  0.7818608E-02  0.9825517E-01
          1   -1    0    0  502    0  0.00000000000E+00  0.00000000000E+00  0.10244023525E+03  0.10244023525E+03  0.00000000000E+00 0.  1.
         13   -1    0    0    0    0 -0.00000000000E+00 -0.00000000000E+00 -0.10000000000E+04  0.10000000000E+04  0.00000000000E+00 0.  1.
    9000005    2    1    2  501    0 -0.96994667672E-04 -0.86988771301E-04 -0.89756488470E+03  0.11024351136E+04  0.64010972306E+03 0.  0.
         13    1    3    3    0    0 -0.20420700035E+03 -0.13410106455E+03 -0.80488462613E+03  0.84114377837E+03  0.00000000000E+00 0.  1.
          1    1    3    3  501    0  0.20420690336E+03  0.13410097756E+03 -0.92680258569E+02  0.26129133528E+03  0.00000000000E+00 0.  1.
         21    1    1    2  502  501  0.96994667666E-04  0.86988771305E-04  0.51199443227E-02  0.51216017884E-02  0.00000000000E+00 0. -1.
<mgrwt>
<rscale>  1 0.64010972E+03</rscale>
<asrwt>0</asrwt>
<pdfrwt beam="1">  1        1 0.37251073E+00 0.64010972E+03</pdfrwt>
<pdfrwt beam="2">0</pdfrwt>
<totfact> 0.17736784E+00</totfact>
</mgrwt>
</event>
<event>
 6    1  0.9368453E-003  0.6483662E+03  0.7818608E-02  0.9809850E-01
          1   -1    0    0  502    0  0.00000000000E+00  0.00000000000E+00  0.10538872300E+03  0.10538872300E+03  0.00000000000E+00 0.  1.
         13   -1    0    0    0    0 -0.00000000000E+00 -0.00000000000E+00 -0.10000000000E+04  0.10000000000E+04  0.00000000000E+00 0.  1.
    9000005    2    1    2  501    0 -0.64609227749E-02 -0.33881927563E-02 -0.89490525277E+03  0.11050946567E+04  0.64836624589E+03 0.  0.
         13    1    3    3    0    0 -0.36011430640E+02 -0.71007081316E+02  0.88172278031E+02  0.11879890297E+03  0.00000000000E+00 0.  1.
          1    1    3    3  501    0  0.36004969718E+02  0.71003693123E+02 -0.98307753081E+03  0.98629575375E+03  0.00000000000E+00 0.  1.
         21    1    1    2  502  501  0.64609227749E-02  0.33881927563E-02  0.29397577643E+00  0.29406628589E+00  0.00000000000E+00 0. -1.
<mgrwt>
<rscale>  1 0.64836625E+03</rscale>
<asrwt>0</asrwt>
<pdfrwt beam="1">  1        1 0.38323253E+00 0.64836625E+03</pdfrwt>
<pdfrwt beam="2">0</pdfrwt>
<totfact> 0.15883914E+00</totfact>
</mgrwt>
</event>
<event>
 6    1  0.1102628E-002  0.6500608E+03  0.7818608E-02  0.9806665E-01
          1   -1    0    0  502    0  0.00000000000E+00  0.00000000000E+00  0.10564475564E+03  0.10564475564E+03  0.00000000000E+00 0.  1.
         13   -1    0    0    0    0 -0.00000000000E+00 -0.00000000000E+00 -0.10000000000E+04  0.10000000000E+04  0.00000000000E+00 0.  1.
    9000005    2    1    2  501    0  0.34309397279E-06 -0.17274578568E-06 -0.89435524525E+03  0.11056447547E+04  0.65006078086E+03 0.  0.
         13    1    3    3    0    0  0.18106568705E+03  0.26174565778E+03 -0.33501053287E+03  0.46209049929E+03  0.00000000000E+00 0.  1.
          3    1    3    3  501    0 -0.18106568670E+03 -0.26174565795E+03 -0.55934471238E+03  0.64355425538E+03  0.00000000000E+00 0.  1.
         21    1    1    2  502  501 -0.34309396473E-06  0.17274582335E-06  0.89019059516E-06  0.96953281730E-06  0.00000000000E+00 0. -1.
<mgrwt>
<rscale>  1 0.65006078E+03</rscale>
<asrwt>0</asrwt>
<pdfrwt beam="1">  1        1 0.38416356E+00 0.65006078E+03</pdfrwt>
<pdfrwt beam="2">0</pdfrwt>
<totfact> 0.15729190E+00</totfact>
</mgrwt>
</event>
<event>
 6    1  0.9368453E-003  0.6551241E+03  0.7818608E-02  0.9797211E-01
          1   -1    0    0  502    0  0.00000000000E+00  0.00000000000E+00  0.10729691465E+03  0.10729691465E+03  0.00000000000E+00 0.  1.
         13   -1    0    0    0    0 -0.00000000000E+00 -0.00000000000E+00 -0.10000000000E+04  0.10000000000E+04  0.00000000000E+00 0.  1.
    9000005    2    1    2  501    0 -0.41620873503E-05 -0.47301316641E-05 -0.89270311435E+03  0.11072968850E+04  0.65512406543E+03 0.  0.
         13    1    3    3    0    0  0.26155177323E+03 -0.10320520001E+03 -0.73036831491E+03  0.78262284583E+03  0.00000000000E+00 0.  1.
          1    1    3    3  501    0 -0.26155177739E+03  0.10320519528E+03 -0.16233479944E+03  0.32467403915E+03  0.00000000000E+00 0.  1.
         21    1    1    2  502  501  0.41620873336E-05  0.47301316618E-05  0.29001531855E-04  0.29678038453E-04  0.00000000000E+00 0. -1.
<mgrwt>
<rscale>  1 0.65512407E+03</rscale>
<asrwt>0</asrwt>
<pdfrwt beam="1">  1        1 0.39017142E+00 0.65512407E+03</pdfrwt>
<pdfrwt beam="2">0</pdfrwt>
<totfact> 0.14780714E+00</totfact>
</mgrwt>
</event>
<event>
 6    1  0.9368453E-003  0.6478007E+03  0.7818608E-02  0.9810915E-01
          1   -1    0    0  502    0  0.00000000000E+00  0.00000000000E+00  0.10491142360E+03  0.10491142360E+03  0.00000000000E+00 0.  1.
         13   -1    0    0    0    0 -0.00000000000E+00 -0.00000000000E+00 -0.10000000000E+04  0.10000000000E+04  0.00000000000E+00 0.  1.
    9000005    2    1    2  501    0 -0.41065800360E-06  0.63596820610E-06 -0.89508857704E+03  0.11049114226E+04  0.64780065689E+03 0.  0.
         13    1    3    3    0    0  0.81380155710E+02  0.11234615057E+03  0.51676829399E+02  0.14803675891E+03  0.00000000000E+00 0.  1.
          3    1    3    3  501    0 -0.81380156120E+02 -0.11234614993E+03 -0.94676540644E+03  0.95687466370E+03  0.00000000000E+00 0.  1.
         21    1    1    2  502  501  0.41065800760E-06 -0.63596819702E-06  0.63468947801E-06  0.98788981183E-06  0.00000000000E+00 0.  1.
<mgrwt>
<rscale>  1 0.64780066E+03</rscale>
<asrwt>0</asrwt>
<pdfrwt beam="1">  1        1 0.38149689E+00 0.64780066E+03</pdfrwt>
<pdfrwt beam="2">0</pdfrwt>
<totfact> 0.16168499E+00</totfact>
</mgrwt>
</event>
<event>
 6    1  0.9368453E-003  0.6509961E+03  0.7818608E-02  0.9804912E-01
          1   -1    0    0  502    0  0.00000000000E+00  0.00000000000E+00  0.10595112433E+03  0.10595112433E+03  0.00000000000E+00 0.  1.
         13   -1    0    0    0    0 -0.00000000000E+00 -0.00000000000E+00 -0.10000000000E+04  0.10000000000E+04  0.00000000000E+00 0.  1.
    9000005    2    1    2  501    0 -0.54140377224E-02 -0.55905304401E-03 -0.89404612746E+03  0.11059450270E+04  0.65099610195E+03 0.  0.
         13    1    3    3    0    0 -0.10598716864E+03  0.30115457185E+03 -0.55476413362E+03  0.64007077735E+03  0.00000000000E+00 0.  1.
          3    1    3    3  501    0  0.10598175460E+03 -0.30115513090E+03 -0.33928199384E+03  0.46587424968E+03  0.00000000000E+00 0.  1.
         21    1    1    2  502  501  0.54140377224E-02  0.55905304401E-03 -0.27482121275E-02  0.60972956844E-02  0.00000000000E+00 0.  1.
<mgrwt>
<rscale>  1 0.65099610E+03</rscale>
<asrwt>0</asrwt>
<pdfrwt beam="1">  1        1 0.38527763E+00 0.65099610E+03</pdfrwt>
<pdfrwt beam="2">0</pdfrwt>
<totfact> 0.15549064E+00</totfact>
</mgrwt>
</event>
<event>
 6    1  0.9368453E-003  0.6514009E+03  0.7818608E-02  0.9804154E-01
          3   -1    0    0  502    0  0.00000000000E+00  0.00000000000E+00  0.10612679445E+03  0.10612679445E+03  0.00000000000E+00 0.  1.
         13   -1    0    0    0    0 -0.00000000000E+00 -0.00000000000E+00 -0.10000000000E+04  0.10000000000E+04  0.00000000000E+00 0.  1.
    9000005    2    1    2  501    0 -0.12649494304E-02  0.19243996250E-02 -0.89391919587E+03  0.11060807465E+04  0.65140086663E+03 0.  0.
         13    1    3    3    0    0 -0.30768086790E+03  0.10076552252E+03 -0.50723750900E+03  0.60175667635E+03  0.00000000000E+00 0.  1.
          3    1    3    3  501    0  0.30767960295E+03 -0.10076359812E+03 -0.38668168687E+03  0.50432407015E+03  0.00000000000E+00 0.  1.
         21    1    1    2  502  501  0.12649494304E-02 -0.19243996250E-02  0.45990317629E-01  0.46047939439E-01  0.00000000000E+00 0.  1.
<mgrwt>
<rscale>  1 0.65140087E+03</rscale>
<asrwt>0</asrwt>
<pdfrwt beam="1">  1        3 0.38591643E+00 0.65140087E+03</pdfrwt>
<pdfrwt beam="2">0</pdfrwt>
<totfact> 0.70227723E-02</totfact>
</mgrwt>
</event>
<event>
 6    1  0.9368453E-003  0.6702167E+03  0.7818608E-02  0.9769566E-01
          1   -1    0    0  502    0  0.00000000000E+00  0.00000000000E+00  0.11229763026E+03  0.11229763026E+03  0.00000000000E+00 0.  1.
         13   -1    0    0    0    0 -0.00000000000E+00 -0.00000000000E+00 -0.10000000000E+04  0.10000000000E+04  0.00000000000E+00 0.  1.
    9000005    2    1    2  501    0  0.11820419559E-05  0.26389483168E-05 -0.88770237938E+03  0.11122976202E+04  0.67021674221E+03 0.  0.
         13    1    3    3    0    0  0.32163182635E+03 -0.84164148495E+02 -0.37408867031E+03  0.50047274538E+03  0.00000000000E+00 0.  1.
          1    1    3    3  501    0 -0.32163182517E+03  0.84164151134E+02 -0.51361370907E+03  0.61182487482E+03  0.00000000000E+00 0.  1.
         21    1    1    2  502  501 -0.11820419393E-05 -0.26389483134E-05  0.96404097712E-05  0.10064729102E-04  0.00000000000E+00 0.  1.
<mgrwt>
<rscale>  1 0.67021674E+03</rscale>
<asrwt>0</asrwt>
<pdfrwt beam="1">  1        1 0.40835588E+00 0.67021674E+03</pdfrwt>
<pdfrwt beam="2">0</pdfrwt>
<totfact> 0.12229494E+00</totfact>
</mgrwt>
</event>
<event>
 6    1  0.9368453E-003  0.6673011E+03  0.7818608E-02  0.9774846E-01
          1   -1    0    0  502    0  0.00000000000E+00  0.00000000000E+00  0.11132899282E+03  0.11132899282E+03  0.00000000000E+00 0.  1.
         13   -1    0    0    0    0 -0.00000000000E+00 -0.00000000000E+00 -0.10000000000E+04  0.10000000000E+04  0.00000000000E+00 0.  1.
    9000005    2    1    2  501    0 -0.69126906709E-03 -0.70436241488E-03 -0.88867727173E+03  0.11113226510E+04  0.66730108748E+03 0.  0.
         13    1    3    3    0    0 -0.26394665620E+03  0.93296634254E+02 -0.14203014870E+03  0.31391824162E+03  0.00000000000E+00 0.  1.
          1    1    3    3  501    0  0.26394596493E+03 -0.93297338616E+02 -0.74664712303E+03  0.79740440939E+03  0.00000000000E+00 0.  1.
         21    1    1    2  502  501  0.69126906707E-03  0.70436241487E-03  0.62645460085E-02  0.63418070001E-02  0.00000000000E+00 0.  1.
<mgrwt>
<rscale>  1 0.66730109E+03</rscale>
<asrwt>0</asrwt>
<pdfrwt beam="1">  1        1 0.40483355E+00 0.66730109E+03</pdfrwt>
<pdfrwt beam="2">0</pdfrwt>
<totfact> 0.12688635E+00</totfact>
</mgrwt>
</event>
<event>
 6    1  0.9368453E-003  0.6355026E+03  0.7818608E-02  0.9834369E-01
          1   -1    0    0  502    0  0.00000000000E+00  0.00000000000E+00  0.12692395816E+03  0.12692395816E+03  0.00000000000E+00 0.  1.
         13   -1    0    0    0    0 -0.00000000000E+00 -0.00000000000E+00 -0.10000000000E+04  0.10000000000E+04  0.00000000000E+00 0.  1.
    9000005    2    1    2  501    0  0.51119683523E-01  0.41530860275E+00 -0.89903225774E+03  0.11009643696E+04  0.63550245284E+03 0.  0.
         13    1    3    3    0    0  0.18725991187E+03  0.13737409982E+03 -0.82562378772E+03  0.85766692646E+03  0.00000000000E+00 0.  1.
          3    1    3    3  501    0 -0.18720879219E+03 -0.13695879122E+03 -0.73408470019E+02  0.24329744313E+03  0.00000000000E+00 0.  1.
         21    1    1    2  502  501 -0.51119683523E-01 -0.41530860275E+00  0.25956215904E+02  0.25959588566E+02  0.00000000000E+00 0. -1.
<mgrwt>
<rscale>  1 0.63550259E+03</rscale>
<asrwt>0</asrwt>
<pdfrwt beam="1">  1        1 0.46154264E+00 0.63550259E+03</pdfrwt>
<pdfrwt beam="2">0</pdfrwt>
<totfact> 0.70476374E-01</totfact>
</mgrwt>
</event>
<event>
 6    1  0.9368453E-003  0.6335521E+03  0.7818608E-02  0.9838141E-01
          1   -1    0    0  502    0  0.00000000000E+00  0.00000000000E+00  0.10034707964E+03  0.10034707964E+03  0.00000000000E+00 0.  1.
         13   -1    0    0    0    0 -0.00000000000E+00 -0.00000000000E+00 -0.10000000000E+04  0.10000000000E+04  0.00000000000E+00 0.  1.
    9000005    2    1    2  501    0  0.11354508160E-05 -0.15740073422E-06 -0.89965292409E+03  0.11003470757E+04  0.63355213145E+03 0.  0.
         13    1    3    3    0    0  0.19970654358E+03  0.24502202690E+03 -0.41387118239E+03  0.52077620224E+03  0.00000000000E+00 0.  1.
          1    1    3    3  501    0 -0.19970654244E+03 -0.24502202705E+03 -0.48578174170E+03  0.57957087350E+03  0.00000000000E+00 0.  1.
         21    1    1    2  502  501 -0.11354508007E-05  0.15740072795E-06  0.37288574410E-05  0.39010769442E-05  0.00000000000E+00 0.  1.
<mgrwt>
<rscale>  1 0.63355213E+03</rscale>
<asrwt>0</asrwt>
<pdfrwt beam="1">  1        1 0.36489924E+00 0.63355213E+03</pdfrwt>
<pdfrwt beam="2">0</pdfrwt>
<totfact> 0.19177976E+00</totfact>
</mgrwt>
</event>
<event>
 6    1  0.9368453E-003  0.6537084E+03  0.7818608E-02  0.9799845E-01
          1   -1    0    0  502    0  0.00000000000E+00  0.00000000000E+00  0.10693394878E+03  0.10693394878E+03  0.00000000000E+00 0.  1.
         13   -1    0    0    0    0 -0.00000000000E+00 -0.00000000000E+00 -0.10000000000E+04  0.10000000000E+04  0.00000000000E+00 0.  1.
    9000005    2    1    2  501    0 -0.24697775452E+00 -0.46476369262E-02 -0.89295497361E+03  0.11066631022E+04  0.65370832635E+03 0.  0.
         13    1    3    3    0    0 -0.25535263740E+03  0.13331916236E+03 -0.18479817765E+03  0.34224163239E+03  0.00000000000E+00 0.  1.
          1    1    3    3  501    0  0.25510565965E+03 -0.13332380999E+03 -0.70815679597E+03  0.76442146985E+03  0.00000000000E+00 0.  1.
         21    1    1    2  502  501  0.24697775452E+00  0.46476369262E-02 -0.11107760894E+00  0.27084653767E+00  0.00000000000E+00 0. -1.
<mgrwt>
<rscale>  1 0.65370837E+03</rscale>
<asrwt>0</asrwt>
<pdfrwt beam="1">  1        1 0.38885154E+00 0.65370837E+03</pdfrwt>
<pdfrwt beam="2">0</pdfrwt>
<totfact> 0.14985155E+00</totfact>
</mgrwt>
</event>
<event>
 6    1  0.9368453E-003  0.6468180E+03  0.7818608E-02  0.9812768E-01
          1   -1    0    0  502    0  0.00000000000E+00  0.00000000000E+00  0.10467974689E+03  0.10467974689E+03  0.00000000000E+00 0.  1.
         13   -1    0    0    0    0 -0.00000000000E+00 -0.00000000000E+00 -0.10000000000E+04  0.10000000000E+04  0.00000000000E+00 0.  1.
    9000005    2    1    2  501    0  0.15289811505E-01 -0.41560089977E-02 -0.89540580791E+03  0.11045927373E+04  0.64681802243E+03 0.  0.
         13    1    3    3    0    0  0.14894294645E+03 -0.21043457156E+03 -0.11424292268E+03  0.28198963738E+03  0.00000000000E+00 0.  1.
          3    1    3    3  501    0 -0.14892765664E+03  0.21043041555E+03 -0.78116288522E+03  0.82260309989E+03  0.00000000000E+00 0.  1.
         21    1    1    2  502  501 -0.15289811505E-01  0.41560089977E-02  0.85554798451E-01  0.87009621793E-01  0.00000000000E+00 0.  1.
<mgrwt>
<rscale>  1 0.64681802E+03</rscale>
<asrwt>0</asrwt>
<pdfrwt beam="1">  1        1 0.38065443E+00 0.64681802E+03</pdfrwt>
<pdfrwt beam="2">0</pdfrwt>
<totfact> 0.16310501E+00</totfact>
</mgrwt>
</event>
<event>
 6    1  0.9368453E-003  0.6441957E+03  0.7818608E-02  0.9817732E-01
          1   -1    0    0  502    0  0.00000000000E+00  0.00000000000E+00  0.10374710845E+03  0.10374710845E+03  0.00000000000E+00 0.  1.
         13   -1    0    0    0    0 -0.00000000000E+00 -0.00000000000E+00 -0.10000000000E+04  0.10000000000E+04  0.00000000000E+00 0.  1.
    9000005    2    1    2  501    0  0.35541252601E-04 -0.68146690808E-04 -0.89625296388E+03  0.11037470029E+04  0.64419567769E+03 0.  0.
         13    1    3    3    0    0  0.20235861460E+03 -0.21213223875E+03 -0.67670569611E+03  0.73748199624E+03  0.00000000000E+00 0.  1.
          3    1    3    3  501    0 -0.20235857906E+03  0.21213217061E+03 -0.21954726777E+03  0.36626500667E+03  0.00000000000E+00 0.  1.
         21    1    1    2  502  501 -0.35541252598E-04  0.68146690789E-04  0.72330608588E-04  0.10554084063E-03  0.00000000000E+00 0.  1.
<mgrwt>
<rscale>  1 0.64419568E+03</rscale>
<asrwt>0</asrwt>
<pdfrwt beam="1">  1        1 0.37726301E+00 0.64419568E+03</pdfrwt>
<pdfrwt beam="2">0</pdfrwt>
<totfact> 0.16890117E+00</totfact>
</mgrwt>
</event>
