<event>
 6    1  0.1939311E-004  0.3000000E+03  0.7818608E-02  0.1093470E+00
          1   -1    0    0  502    0  0.00000000000E+00  0.00000000000E+00  0.32762691435E+02  0.32762691435E+02  0.00000000000E+00 0.  1.
         13   -1    0    0    0    0 -0.00000000000E+00 -0.00000000000E+00 -0.10000000000E+04  0.10000000000E+04  0.00000000000E+00 0.  1.
    9000005    2    1    2  501    0  0.17721388772E+02  0.44558013522E+01 -0.95524733278E+03  0.10109072275E+04  0.33030600052E+03 0.  0.
         13    1    3    3    0    0  0.96525454565E+02 -0.13711115498E+03 -0.52710121949E+03  0.55312957595E+03  0.00000000000E+00 0.  1.
          1    1    3    3  501    0 -0.78804065793E+02  0.14156695633E+03 -0.42814611329E+03  0.45777765153E+03  0.00000000000E+00 0.  1.
         21    1    1    2  502  501 -0.17721388772E+02 -0.44558013522E+01 -0.11989975780E+02  0.21855463960E+02  0.00000000000E+00 0.  1.
<mgrwt>
<rscale>  1 0.30000000E+03</rscale>
<asrwt>0</asrwt>
<pdfrwt beam="1">  1        1 0.11913731E+00 0.30000000E+03</pdfrwt>
<pdfrwt beam="2">0</pdfrwt>
<totfact> 0.26290214E+01</totfact>
</mgrwt>
</event>
<event>
 6    1  0.1939311E-004  0.3000000E+03  0.7818608E-02  0.1093470E+00
          1   -1    0    0  502    0  0.00000000000E+00  0.00000000000E+00  0.27442353822E+02  0.27442353822E+02  0.00000000000E+00 0.  1.
         13   -1    0    0    0    0 -0.00000000000E+00 -0.00000000000E+00 -0.10000000000E+04  0.10000000000E+04  0.00000000000E+00 0.  1.
    9000005    2    1    2  501    0  0.91463737912E+01 -0.76676516524E+01 -0.96319565213E+03  0.10122734393E+04  0.31114177248E+03 0.  0.
         13    1    3    3    0    0  0.13811027629E+03  0.75980967794E+02 -0.48150468629E+03  0.50665009504E+03  0.00000000000E+00 0.  1.
          1    1    3    3  501    0 -0.12896390250E+03 -0.83648619446E+02 -0.48169096585E+03  0.50562334426E+03  0.00000000000E+00 0.  1.
         21    1    1    2  502  501 -0.91463737912E+01  0.76676516524E+01 -0.93619940461E+01  0.15168914526E+02  0.00000000000E+00 0. -1.
<mgrwt>
<rscale>  1 0.30000000E+03</rscale>
<asrwt>0</asrwt>
<pdfrwt beam="1">  1        1 0.99790588E-01 0.30000000E+03</pdfrwt>
<pdfrwt beam="2">0</pdfrwt>
<totfact> 0.34331984E+01</totfact>
</mgrwt>
</event>
<event>
 6    1  0.1939311E-004  0.3000000E+03  0.7818608E-02  0.1093470E+00
          1   -1    0    0  502    0  0.00000000000E+00  0.00000000000E+00  0.31164563387E+02  0.31164563387E+02  0.00000000000E+00 0.  1.
         13   -1    0    0    0    0 -0.00000000000E+00 -0.00000000000E+00 -0.10000000000E+04  0.10000000000E+04  0.00000000000E+00 0.  1.
    9000005    2    1    2  501    0 -0.22257940653E+02  0.39502010693E+01 -0.92775142231E+03  0.98427196011E+03  0.32795970767E+03 0.  0.
         13    1    3    3    0    0  0.32064724121E+01  0.37752054979E+02 -0.93956909217E+03  0.94033269543E+03  0.00000000000E+00 0.  1.
          3    1    3    3  501    0 -0.25464413065E+02 -0.33801853909E+02  0.11817669860E+02  0.43939264688E+02  0.00000000000E+00 0.  1.
         21    1    1    2  502  501  0.22257940653E+02 -0.39502010693E+01 -0.41084014302E+02  0.46892603273E+02  0.00000000000E+00 0.  1.
<mgrwt>
<rscale>  1 0.30000000E+03</rscale>
<asrwt>0</asrwt>
<pdfrwt beam="1">  1        1 0.11332592E+00 0.30000000E+03</pdfrwt>
<pdfrwt beam="2">0</pdfrwt>
<totfact> 0.28396189E+01</totfact>
</mgrwt>
</event>
<event>
 6    1  0.1939311E-004  0.3000000E+03  0.7818608E-02  0.1093470E+00
          1   -1    0    0  502    0  0.00000000000E+00  0.00000000000E+00  0.28549696732E+02  0.28549696732E+02  0.00000000000E+00 0.  1.
         13   -1    0    0    0    0 -0.00000000000E+00 -0.00000000000E+00 -0.10000000000E+04  0.10000000000E+04  0.00000000000E+00 0.  1.
    9000005    2    1    2  501    0 -0.76311552613E+01 -0.29105721319E+01 -0.94878289652E+03  0.10044557703E+04  0.32965998220E+03 0.  0.
         13    1    3    3    0    0  0.11700438590E+03 -0.58232392359E+02 -0.17320503015E+03  0.21698161284E+03  0.00000000000E+00 0.  1.
          3    1    3    3  501    0 -0.12463554117E+03  0.55321820227E+02 -0.77557786637E+03  0.78747415749E+03  0.00000000000E+00 0.  1.
         21    1    1    2  502  501  0.76311552613E+01  0.29105721319E+01 -0.22667406750E+02  0.24093926403E+02  0.00000000000E+00 0. -1.
<mgrwt>
<rscale>  1 0.30000000E+03</rscale>
<asrwt>0</asrwt>
<pdfrwt beam="1">  1        1 0.10381730E+00 0.30000000E+03</pdfrwt>
<pdfrwt beam="2">0</pdfrwt>
<totfact> 0.32392126E+01</totfact>
</mgrwt>
</event>
<event>
 6    1  0.1939311E-004  0.3000000E+03  0.7818608E-02  0.1093470E+00
          1   -1    0    0  502    0  0.00000000000E+00  0.00000000000E+00  0.61286140635E+02  0.61286140635E+02  0.00000000000E+00 0.  1.
         13   -1    0    0    0    0 -0.00000000000E+00 -0.00000000000E+00 -0.10000000000E+04  0.10000000000E+04  0.00000000000E+00 0.  1.
    9000005    2    1    2  501    0  0.85900114559E+01 -0.11361154495E+02 -0.97306334329E+03  0.10241007783E+04  0.31894712705E+03 0.  0.
         13    1    3    3    0    0  0.31878212012E+02 -0.13482976887E+03 -0.21553920624E+03  0.25622731392E+03  0.00000000000E+00 0.  1.
          3    1    3    3  501    0 -0.23288200556E+02  0.12346861437E+03 -0.75752413705E+03  0.76787346434E+03  0.00000000000E+00 0.  1.
         21    1    1    2  502  501 -0.85900114559E+01  0.11361154495E+02  0.34349483930E+02  0.37185362369E+02  0.00000000000E+00 0.  1.
<mgrwt>
<rscale>  1 0.30000000E+03</rscale>
<asrwt>0</asrwt>
<pdfrwt beam="1">  1        1 0.22285916E+00 0.30000000E+03</pdfrwt>
<pdfrwt beam="2">0</pdfrwt>
<totfact> 0.79928419E+00</totfact>
</mgrwt>
</event>
<event>
 6    1  0.1939311E-004  0.3000000E+03  0.7818608E-02  0.1093470E+00
          1   -1    0    0  502    0  0.00000000000E+00  0.00000000000E+00  0.73898430899E+02  0.73898430899E+02  0.00000000000E+00 0.  1.
         13   -1    0    0    0    0 -0.00000000000E+00 -0.00000000000E+00 -0.10000000000E+04  0.10000000000E+04  0.00000000000E+00 0.  1.
    9000005    2    1    2  501    0 -0.15478897604E+03  0.43015891465E+02 -0.76808565952E+03  0.84855642039E+03  0.32292789319E+03 0.  0.
         13    1    3    3    0    0 -0.45037392865E+02 -0.48477124121E+02 -0.67452821724E+03  0.67776597301E+03  0.00000000000E+00 0.  1.
          1    1    3    3  501    0 -0.10975158317E+03  0.91493015585E+02 -0.93557442279E+02  0.17079044738E+03  0.00000000000E+00 0.  1.
         21    1    1    2  502  501  0.15478897604E+03 -0.43015891465E+02 -0.15801590958E+03  0.22534201051E+03  0.00000000000E+00 0. -1.
<mgrwt>
<rscale>  1 0.30000000E+03</rscale>
<asrwt>0</asrwt>
<pdfrwt beam="1">  1        1 0.26872213E+00 0.30000000E+03</pdfrwt>
<pdfrwt beam="2">0</pdfrwt>
<totfact> 0.48749832E+00</totfact>
</mgrwt>
</event>
<event>
 6    1  0.1939311E-004  0.3000000E+03  0.7818608E-02  0.1093470E+00
          1   -1    0    0  502    0  0.00000000000E+00  0.00000000000E+00  0.31122869604E+02  0.31122869604E+02  0.00000000000E+00 0.  1.
         13   -1    0    0    0    0 -0.00000000000E+00 -0.00000000000E+00 -0.10000000000E+04  0.10000000000E+04  0.00000000000E+00 0.  1.
    9000005    2    1    2  501    0  0.51063371658E+01 -0.97250685571E+01 -0.96257087501E+03  0.10184571484E+04  0.33255318670E+03 0.  0.
         13    1    3    3    0    0  0.79684150171E+02 -0.87384333579E+02 -0.86533657757E+03  0.87338020245E+03  0.00000000000E+00 0.  1.
          3    1    3    3  501    0 -0.74577813005E+02  0.77659265022E+02 -0.97234297435E+02  0.14507694591E+03  0.00000000000E+00 0.  1.
         21    1    1    2  502  501 -0.51063371658E+01  0.97250685571E+01 -0.63062553874E+01  0.12665721247E+02  0.00000000000E+00 0.  1.
<mgrwt>
<rscale>  1 0.30000000E+03</rscale>
<asrwt>0</asrwt>
<pdfrwt beam="1">  1        1 0.11317431E+00 0.30000000E+03</pdfrwt>
<pdfrwt beam="2">0</pdfrwt>
<totfact> 0.28454249E+01</totfact>
</mgrwt>
</event>
<event>
 6    1  0.1939311E-004  0.3000000E+03  0.7818608E-02  0.1093470E+00
          3   -1    0    0  502    0  0.00000000000E+00  0.00000000000E+00  0.82825996134E+01  0.82825996134E+01  0.00000000000E+00 0.  1.
         13   -1    0    0    0    0 -0.00000000000E+00 -0.00000000000E+00 -0.10000000000E+04  0.10000000000E+04  0.00000000000E+00 0.  1.
    9000005    2    1    2  501    0  0.13008439331E+02 -0.33110928513E+01 -0.96426596840E+03  0.97772504821E+03  0.16111247392E+03 0.  0.
         13    1    3    3    0    0  0.47459307198E+02  0.35482729231E+02 -0.85191076973E+03  0.85396918533E+03  0.00000000000E+00 0.  1.
          3    1    3    3  501    0 -0.34450867867E+02 -0.38793822083E+02 -0.11235519867E+03  0.12375586288E+03  0.00000000000E+00 0.  1.
         21    1    1    2  502  501 -0.13008439331E+02  0.33110928513E+01 -0.27451431987E+02  0.30557551404E+02  0.00000000000E+00 0.  1.
<mgrwt>
<rscale>  1 0.30000000E+03</rscale>
<asrwt>0</asrwt>
<pdfrwt beam="1">  1        3 0.30118608E-01 0.30000000E+03</pdfrwt>
<pdfrwt beam="2">0</pdfrwt>
<totfact> 0.46414433E+01</totfact>
</mgrwt>
</event>
<event>
 6    1  0.1939311E-004  0.3000000E+03  0.7818608E-02  0.1093470E+00
          1   -1    0    0  502    0  0.00000000000E+00  0.00000000000E+00  0.37110814229E+02  0.37110814229E+02  0.00000000000E+00 0.  1.
         13   -1    0    0    0    0 -0.00000000000E+00 -0.00000000000E+00 -0.10000000000E+04  0.10000000000E+04  0.00000000000E+00 0.  1.
    9000005    2    1    2  501    0 -0.69442348488E+01 -0.10000117212E+02 -0.97033697646E+03  0.10228386620E+04  0.32325973451E+03 0.  0.
         13    1    3    3    0    0 -0.68008487922E+02  0.10020757594E+03 -0.80959097169E+03  0.81859895807E+03  0.00000000000E+00 0.  1.
          3    1    3    3  501    0  0.61064253073E+02 -0.11020769315E+03 -0.16074600476E+03  0.20423970398E+03  0.00000000000E+00 0.  1.
         21    1    1    2  502  501  0.69442348488E+01  0.10000117212E+02  0.74477906848E+01  0.14272152184E+02  0.00000000000E+00 0. -1.
<mgrwt>
<rscale>  1 0.30000000E+03</rscale>
<asrwt>0</asrwt>
<pdfrwt beam="1">  1        1 0.13494870E+00 0.30000000E+03</pdfrwt>
<pdfrwt beam="2">0</pdfrwt>
<totfact> 0.21516077E+01</totfact>
</mgrwt>
</event>
<event>
 6    1  0.1939311E-004  0.3000000E+03  0.7818608E-02  0.1093470E+00
          1   -1    0    0  502    0  0.00000000000E+00  0.00000000000E+00  0.29509974433E+02  0.29509974433E+02  0.00000000000E+00 0.  1.
         13   -1    0    0    0    0 -0.00000000000E+00 -0.00000000000E+00 -0.10000000000E+04  0.10000000000E+04  0.00000000000E+00 0.  1.
    9000005    2    1    2  501    0 -0.13431882879E+02 -0.42590066031E+01 -0.93355432279E+03  0.98997769958E+03  0.32914072592E+03 0.  0.
         13    1    3    3    0    0  0.10795548145E+03 -0.69808206717E+02 -0.74685672238E+03  0.75784070586E+03  0.00000000000E+00 0.  1.
          3    1    3    3  501    0 -0.12138736433E+03  0.65549200114E+02 -0.18669760041E+03  0.23213699372E+03  0.00000000000E+00 0.  1.
         21    1    1    2  502  501  0.13431882879E+02  0.42590066031E+01 -0.36935702780E+02  0.39532274849E+02  0.00000000000E+00 0.  1.
<mgrwt>
<rscale>  1 0.30000000E+03</rscale>
<asrwt>0</asrwt>
<pdfrwt beam="1">  1        1 0.10730922E+00 0.30000000E+03</pdfrwt>
<pdfrwt beam="2">0</pdfrwt>
<totfact> 0.30836319E+01</totfact>
</mgrwt>
</event>
<event>
 6    1  0.1939311E-004  0.3000000E+03  0.7818608E-02  0.1093470E+00
          1   -1    0    0  502    0  0.00000000000E+00  0.00000000000E+00  0.31823094627E+02  0.31823094627E+02  0.00000000000E+00 0.  1.
         13   -1    0    0    0    0 -0.00000000000E+00 -0.00000000000E+00 -0.10000000000E+04  0.10000000000E+04  0.00000000000E+00 0.  1.
    9000005    2    1    2  501    0 -0.80416058573E+01  0.19215248590E+02 -0.88163105809E+03  0.94280581043E+03  0.33343002324E+03 0.  0.
         13    1    3    3    0    0 -0.35896732785E+01 -0.15736853015E+03 -0.40906506583E+03  0.43830579293E+03  0.00000000000E+00 0.  1.
          1    1    3    3  501    0 -0.44519325788E+01  0.17658377874E+03 -0.47256599226E+03  0.50450001750E+03  0.00000000000E+00 0.  1.
         21    1    1    2  502  501  0.80416058573E+01 -0.19215248590E+02 -0.86545847287E+02  0.89017284197E+02  0.00000000000E+00 0. -1.
<mgrwt>
<rscale>  1 0.30000000E+03</rscale>
<asrwt>0</asrwt>
<pdfrwt beam="1">  1        1 0.11572059E+00 0.30000000E+03</pdfrwt>
<pdfrwt beam="2">0</pdfrwt>
<totfact> 0.27500973E+01</totfact>
</mgrwt>
</event>
<event>
 6    1  0.1939311E-004  0.3000000E+03  0.7818608E-02  0.1093470E+00
          1   -1    0    0  502    0  0.00000000000E+00  0.00000000000E+00  0.39223172764E+02  0.39223172764E+02  0.00000000000E+00 0.  1.
         13   -1    0    0    0    0 -0.00000000000E+00 -0.00000000000E+00 -0.10000000000E+04  0.10000000000E+04  0.00000000000E+00 0.  1.
    9000005    2    1    2  501    0 -0.10125985137E+02 -0.75188959543E+00 -0.96991853503E+03  0.10255603863E+04  0.33306011531E+03 0.  0.
         13    1    3    3    0    0  0.91603761306E+02  0.19190848954E+02 -0.63194602429E+02  0.11292960438E+03  0.00000000000E+00 0.  1.
          1    1    3    3  501    0 -0.10172974644E+03 -0.19942738549E+02 -0.90672393260E+03  0.91263078191E+03  0.00000000000E+00 0.  1.
         21    1    1    2  502  501  0.10125985137E+02  0.75188959543E+00  0.91417077938E+01  0.13662786478E+02  0.00000000000E+00 0. -1.
<mgrwt>
<rscale>  1 0.30000000E+03</rscale>
<asrwt>0</asrwt>
<pdfrwt beam="1">  1        1 0.14263002E+00 0.30000000E+03</pdfrwt>
<pdfrwt beam="2">0</pdfrwt>
<totfact> 0.19602522E+01</totfact>
</mgrwt>
</event>
<event>
 6    1  0.1939311E-004  0.3000000E+03  0.7818608E-02  0.1093470E+00
          1   -1    0    0  502    0  0.00000000000E+00  0.00000000000E+00  0.40128861709E+02  0.40128861709E+02  0.00000000000E+00 0.  1.
         13   -1    0    0    0    0 -0.00000000000E+00 -0.00000000000E+00 -0.10000000000E+04  0.10000000000E+04  0.00000000000E+00 0.  1.
    9000005    2    1    2  501    0 -0.45042318085E+02 -0.40753276272E+02 -0.88688656229E+03  0.94517419737E+03  0.32108698053E+03 0.  0.
         13    1    3    3    0    0 -0.13208646629E+03 -0.12519055359E+01 -0.14107846346E+03  0.19326545138E+03  0.00000000000E+00 0.  1.
          1    1    3    3  501    0  0.87044148201E+02 -0.39501370736E+02 -0.74580809883E+03  0.75190874599E+03  0.00000000000E+00 0.  1.
         21    1    1    2  502  501  0.45042318085E+02  0.40753276272E+02 -0.72984576005E+02  0.94954664340E+02  0.00000000000E+00 0.  1.
<mgrwt>
<rscale>  1 0.30000000E+03</rscale>
<asrwt>0</asrwt>
<pdfrwt beam="1">  1        1 0.14592344E+00 0.30000000E+03</pdfrwt>
<pdfrwt beam="2">0</pdfrwt>
<totfact> 0.18848527E+01</totfact>
</mgrwt>
</event>
<event>
 6    1  0.1939311E-004  0.3000000E+03  0.7818608E-02  0.1093470E+00
          1   -1    0    0  502    0  0.00000000000E+00  0.00000000000E+00  0.27604900712E+02  0.27604900712E+02  0.00000000000E+00 0.  1.
         13   -1    0    0    0    0 -0.00000000000E+00 -0.00000000000E+00 -0.10000000000E+04  0.10000000000E+04  0.00000000000E+00 0.  1.
    9000005    2    1    2  501    0  0.22102565390E+02  0.51127126706E+01 -0.93168616620E+03  0.98100146242E+03  0.30628433481E+03 0.  0.
         13    1    3    3    0    0  0.72341664696E+02 -0.42871789860E+02 -0.52627072859E+02  0.99201389176E+02  0.00000000000E+00 0.  1.
          3    1    3    3  501    0 -0.50239099306E+02  0.47984502531E+02 -0.87905909334E+03  0.88180007324E+03  0.00000000000E+00 0.  1.
         21    1    1    2  502  501 -0.22102565390E+02 -0.51127126706E+01 -0.40708933084E+02  0.46603438291E+02  0.00000000000E+00 0. -1.
<mgrwt>
<rscale>  1 0.30000000E+03</rscale>
<asrwt>0</asrwt>
<pdfrwt beam="1">  1        1 0.10038167E+00 0.30000000E+03</pdfrwt>
<pdfrwt beam="2">0</pdfrwt>
<totfact> 0.34036730E+01</totfact>
</mgrwt>
</event>
<event>
 6    1  0.1939311E-004  0.3000000E+03  0.7818608E-02  0.1093470E+00
          1   -1    0    0  502    0  0.00000000000E+00  0.00000000000E+00  0.26363620616E+02  0.26363620616E+02  0.00000000000E+00 0.  1.
         13   -1    0    0    0    0 -0.00000000000E+00 -0.00000000000E+00 -0.10000000000E+04  0.10000000000E+04  0.00000000000E+00 0.  1.
    9000005    2    1    2  501    0 -0.99412786127E+01  0.70937439142E+01 -0.94984137061E+03  0.99961754304E+03  0.31126749398E+03 0.  0.
         13    1    3    3    0    0  0.14971649904E+03 -0.14373148377E+02 -0.45512170351E+03  0.47933013934E+03  0.00000000000E+00 0.  1.
          1    1    3    3  501    0 -0.15965777765E+03  0.21466892291E+02 -0.49471966711E+03  0.52028740370E+03  0.00000000000E+00 0.  1.
         21    1    1    2  502  501  0.99412786127E+01 -0.70937439142E+01 -0.23795008773E+02  0.26746077575E+02  0.00000000000E+00 0.  1.
<mgrwt>
<rscale>  1 0.30000000E+03</rscale>
<asrwt>0</asrwt>
<pdfrwt beam="1">  1        1 0.95867913E-01 0.30000000E+03</pdfrwt>
<pdfrwt beam="2">0</pdfrwt>
<totfact> 0.36390842E+01</totfact>
</mgrwt>
</event>
<event>
 6    1  0.1939311E-004  0.3000000E+03  0.7818608E-02  0.1093470E+00
          1   -1    0    0  502    0  0.00000000000E+00  0.00000000000E+00  0.32240189449E+02  0.32240189449E+02  0.00000000000E+00 0.  1.
         13   -1    0    0    0    0 -0.00000000000E+00 -0.00000000000E+00 -0.10000000000E+04  0.10000000000E+04  0.00000000000E+00 0.  1.
    9000005    2    1    2  501    0  0.23917669839E+02  0.14811267174E+02 -0.92851432902E+03  0.98395316856E+03  0.32439721046E+03 0.  0.
         13    1    3    3    0    0 -0.10951136681E+03 -0.68810274607E+02 -0.66100031107E+03  0.67353470927E+03  0.00000000000E+00 0.  1.
          3    1    3    3  501    0  0.13342903664E+03  0.83621541781E+02 -0.26751401795E+03  0.31041845929E+03  0.00000000000E+00 0.  1.
         21    1    1    2  502  501 -0.23917669839E+02 -0.14811267174E+02 -0.39245481530E+02  0.48287020890E+02  0.00000000000E+00 0.  1.
<mgrwt>
<rscale>  1 0.30000000E+03</rscale>
<asrwt>0</asrwt>
<pdfrwt beam="1">  1        1 0.11723730E+00 0.30000000E+03</pdfrwt>
<pdfrwt beam="2">0</pdfrwt>
<totfact> 0.26954255E+01</totfact>
</mgrwt>
</event>
<event>
 6    1  0.1939311E-004  0.3000000E+03  0.7818608E-02  0.1093470E+00
          1   -1    0    0  502    0  0.00000000000E+00  0.00000000000E+00  0.28439300299E+02  0.28439300299E+02  0.00000000000E+00 0.  1.
         13   -1    0    0    0    0 -0.00000000000E+00 -0.00000000000E+00 -0.10000000000E+04  0.10000000000E+04  0.00000000000E+00 0.  1.
    9000005    2    1    2  501    0 -0.10138734344E+02 -0.14416095764E+02 -0.96412552875E+03  0.10093108001E+04  0.29809333832E+03 0.  0.
         13    1    3    3    0    0  0.28669303784E+02  0.57056588897E+02 -0.90858603094E+03  0.91082707411E+03  0.00000000000E+00 0.  1.
          3    1    3    3  501    0 -0.38808038127E+02 -0.71472684662E+02 -0.55539497805E+02  0.98483726029E+02  0.00000000000E+00 0.  1.
         21    1    1    2  502  501  0.10138734344E+02  0.14416095764E+02 -0.74351709548E+01  0.19128500158E+02  0.00000000000E+00 0.  1.
<mgrwt>
<rscale>  1 0.30000000E+03</rscale>
<asrwt>0</asrwt>
<pdfrwt beam="1">  1        1 0.10341586E+00 0.30000000E+03</pdfrwt>
<pdfrwt beam="2">0</pdfrwt>
<totfact> 0.32578230E+01</totfact>
</mgrwt>
</event>
<event>
 6    1  0.1939311E-004  0.3000000E+03  0.7818608E-02  0.1093470E+00
          1   -1    0    0  502    0  0.00000000000E+00  0.00000000000E+00  0.34848355567E+02  0.34848355567E+02  0.00000000000E+00 0.  1.
         13   -1    0    0    0    0 -0.00000000000E+00 -0.00000000000E+00 -0.10000000000E+04  0.10000000000E+04  0.00000000000E+00 0.  1.
    9000005    2    1    2  501    0  0.31577527101E+01 -0.27241111367E+02 -0.94786934778E+03  0.10024334311E+04  0.32506066168E+03 0.  0.
         13    1    3    3    0    0 -0.14877714210E+03  0.32033848410E+02 -0.58727298425E+03  0.60667154498E+03  0.00000000000E+00 0.  1.
          3    1    3    3  501    0  0.15193489481E+03 -0.59274959777E+02 -0.36059636352E+03  0.39576188612E+03  0.00000000000E+00 0.  1.
         21    1    1    2  502  501 -0.31577527101E+01  0.27241111367E+02 -0.17282296655E+02  0.32414924469E+02  0.00000000000E+00 0.  1.
<mgrwt>
<rscale>  1 0.30000000E+03</rscale>
<asrwt>0</asrwt>
<pdfrwt beam="1">  1        1 0.12672156E+00 0.30000000E+03</pdfrwt>
<pdfrwt beam="2">0</pdfrwt>
<totfact> 0.23845738E+01</totfact>
</mgrwt>
</event>
<event>
 6    1  0.1939311E-004  0.3000000E+03  0.7818608E-02  0.1093470E+00
          1   -1    0    0  502    0  0.00000000000E+00  0.00000000000E+00  0.37657531563E+02  0.37657531563E+02  0.00000000000E+00 0.  1.
         13   -1    0    0    0    0 -0.00000000000E+00 -0.00000000000E+00 -0.10000000000E+04  0.10000000000E+04  0.00000000000E+00 0.  1.
    9000005    2    1    2  501    0 -0.51734611837E+02  0.19719525738E+02 -0.91438733560E+03  0.96441120385E+03  0.30152850754E+03 0.  0.
         13    1    3    3    0    0  0.12697240617E+03  0.12443186055E+02 -0.39479452075E+03  0.41489702147E+03  0.00000000000E+00 0.  1.
          3    1    3    3  501    0 -0.17870701800E+03  0.72763396825E+01 -0.51959281485E+03  0.54951418239E+03  0.00000000000E+00 0.  1.
         21    1    1    2  502  501  0.51734611837E+02 -0.19719525738E+02 -0.47955132838E+02  0.73246327708E+02  0.00000000000E+00 0. -1.
<mgrwt>
<rscale>  1 0.30000000E+03</rscale>
<asrwt>0</asrwt>
<pdfrwt beam="1">  1        1 0.13693677E+00 0.30000000E+03</pdfrwt>
<pdfrwt beam="2">0</pdfrwt>
<totfact> 0.20998546E+01</totfact>
</mgrwt>
</event>
<event>
 6    1  0.1939311E-004  0.3000000E+03  0.7818608E-02  0.1093470E+00
          1   -1    0    0  502    0  0.00000000000E+00  0.00000000000E+00  0.39140511405E+02  0.39140511405E+02  0.00000000000E+00 0.  1.
         13   -1    0    0    0    0 -0.00000000000E+00 -0.00000000000E+00 -0.10000000000E+04  0.10000000000E+04  0.00000000000E+00 0.  1.
    9000005    2    1    2  501    0  0.27078074920E+02 -0.24698030605E+02 -0.94291106367E+03  0.99833167885E+03  0.32594731499E+03 0.  0.
         13    1    3    3    0    0 -0.14515978038E+03  0.69523978550E+01 -0.32354816895E+03  0.35468734867E+03  0.00000000000E+00 0.  1.
          1    1    3    3  501    0  0.17223785530E+03 -0.31650428460E+02 -0.61936289471E+03  0.64364433018E+03  0.00000000000E+00 0.  1.
         21    1    1    2  502  501 -0.27078074920E+02  0.24698030605E+02 -0.17948424928E+02  0.40808832556E+02  0.00000000000E+00 0.  1.
<mgrwt>
<rscale>  1 0.30000000E+03</rscale>
<asrwt>0</asrwt>
<pdfrwt beam="1">  1        1 0.14232943E+00 0.30000000E+03</pdfrwt>
<pdfrwt beam="2">0</pdfrwt>
<totfact> 0.19673221E+01</totfact>
</mgrwt>
</event>
<event>
 6    1  0.1939311E-004  0.3000000E+03  0.7818608E-02  0.1093470E+00
          1   -1    0    0  502    0  0.00000000000E+00  0.00000000000E+00  0.34797186202E+02  0.34797186202E+02  0.00000000000E+00 0.  1.
         13   -1    0    0    0    0 -0.00000000000E+00 -0.00000000000E+00 -0.10000000000E+04  0.10000000000E+04  0.00000000000E+00 0.  1.
    9000005    2    1    2  501    0  0.67624141459E+00  0.22861738682E+02 -0.93618826334E+03  0.99785181387E+03  0.34458186494E+03 0.  0.
         13    1    3    3    0    0 -0.36754182284E+02 -0.10069881547E+03 -0.81087706873E+03  0.81793199102E+03  0.00000000000E+00 0.  1.
          3    1    3    3  501    0  0.37430423698E+02  0.12356055415E+03 -0.12531119461E+03  0.17991982285E+03  0.00000000000E+00 0.  1.
         21    1    1    2  502  501 -0.67624141459E+00 -0.22861738682E+02 -0.29014550462E+02  0.36945372329E+02  0.00000000000E+00 0. -1.
<mgrwt>
<rscale>  1 0.30000000E+03</rscale>
<asrwt>0</asrwt>
<pdfrwt beam="1">  1        1 0.12653549E+00 0.30000000E+03</pdfrwt>
<pdfrwt beam="2">0</pdfrwt>
<totfact> 0.23902120E+01</totfact>
</mgrwt>
</event>
<event>
 6    1  0.1939311E-004  0.3000000E+03  0.7818608E-02  0.1093470E+00
          1   -1    0    0  502    0  0.00000000000E+00  0.00000000000E+00  0.39567817057E+02  0.39567817057E+02  0.00000000000E+00 0.  1.
         13   -1    0    0    0    0 -0.00000000000E+00 -0.00000000000E+00 -0.10000000000E+04  0.10000000000E+04  0.00000000000E+00 0.  1.
    9000005    2    1    2  501    0 -0.17995146739E+02  0.75982096962E+01 -0.96525017826E+03  0.10194488912E+04  0.32739361194E+03 0.  0.
         13    1    3    3    0    0  0.13460611677E+03  0.78685639478E+02 -0.38812701737E+03  0.41827361636E+03  0.00000000000E+00 0.  1.
          1    1    3    3  501    0 -0.15260126351E+03 -0.71087429782E+02 -0.57712316089E+03  0.60117527489E+03  0.00000000000E+00 0.  1.
         21    1    1    2  502  501  0.17995146739E+02 -0.75982096962E+01  0.48179953180E+01  0.20118925807E+02  0.00000000000E+00 0.  1.
<mgrwt>
<rscale>  1 0.30000000E+03</rscale>
<asrwt>0</asrwt>
<pdfrwt beam="1">  1        1 0.14388327E+00 0.30000000E+03</pdfrwt>
<pdfrwt beam="2">0</pdfrwt>
<totfact> 0.19311193E+01</totfact>
</mgrwt>
</event>
<event>
 6    1  0.1939311E-004  0.3000000E+03  0.7818608E-02  0.1093470E+00
          1   -1    0    0  502    0  0.00000000000E+00  0.00000000000E+00  0.25511978789E+02  0.25511978789E+02  0.00000000000E+00 0.  1.
         13   -1    0    0    0    0 -0.00000000000E+00 -0.00000000000E+00 -0.10000000000E+04  0.10000000000E+04  0.00000000000E+00 0.  1.
    9000005    2    1    2  501    0  0.78861592583E+01  0.15517646027E+02 -0.94078970035E+03  0.98758355047E+03  0.29988834593E+03 0.  0.
         13    1    3    3    0    0 -0.84981683559E+02 -0.11104683387E+03 -0.36798793678E+03  0.39366026910E+03  0.00000000000E+00 0.  1.
          1    1    3    3  501    0  0.92867842817E+02  0.12656447990E+03 -0.57280176357E+03  0.59392328137E+03  0.00000000000E+00 0.  1.
         21    1    1    2  502  501 -0.78861592583E+01 -0.15517646027E+02 -0.33698320861E+02  0.37928428321E+02  0.00000000000E+00 0. -1.
<mgrwt>
<rscale>  1 0.30000000E+03</rscale>
<asrwt>0</asrwt>
<pdfrwt beam="1">  1        1 0.92771028E-01 0.30000000E+03</pdfrwt>
<pdfrwt beam="2">0</pdfrwt>
<totfact> 0.38148718E+01</totfact>
</mgrwt>
</event>
<event>
 6    1  0.1939311E-004  0.3000000E+03  0.7818608E-02  0.1093470E+00
          1   -1    0    0  502    0  0.00000000000E+00  0.00000000000E+00  0.29952985394E+02  0.29952985394E+02  0.00000000000E+00 0.  1.
         13   -1    0    0    0    0 -0.00000000000E+00 -0.00000000000E+00 -0.10000000000E+04  0.10000000000E+04  0.00000000000E+00 0.  1.
    9000005    2    1    2  501    0  0.19483090010E+02 -0.53282483154E+01 -0.92652022799E+03  0.98196796503E+03  0.32467425281E+03 0.  0.
         13    1    3    3    0    0 -0.40981869945E+02 -0.49249375983E+02 -0.12974953277E+02  0.65370973004E+02  0.00000000000E+00 0.  1.
          1    1    3    3  501    0  0.60464959955E+02  0.43921127667E+02 -0.91354527471E+03  0.91659699203E+03  0.00000000000E+00 0.  1.
         21    1    1    2  502  501 -0.19483090010E+02  0.53282483154E+01 -0.43526786614E+02  0.47985020364E+02  0.00000000000E+00 0. -1.
<mgrwt>
<rscale>  1 0.30000000E+03</rscale>
<asrwt>0</asrwt>
<pdfrwt beam="1">  1        1 0.10892018E+00 0.30000000E+03</pdfrwt>
<pdfrwt beam="2">0</pdfrwt>
<totfact> 0.30154613E+01</totfact>
</mgrwt>
</event>
<event>
 6    1  0.1939311E-004  0.3000000E+03  0.7818608E-02  0.1093470E+00
          3   -1    0    0  502    0  0.00000000000E+00  0.00000000000E+00  0.32614054536E+02  0.32614054536E+02  0.00000000000E+00 0.  1.
         13   -1    0    0    0    0 -0.00000000000E+00 -0.00000000000E+00 -0.10000000000E+04  0.10000000000E+04  0.00000000000E+00 0.  1.
    9000005    2    1    2  501    0  0.14632625716E+02  0.35488609024E+02 -0.89682107116E+03  0.95228375769E+03  0.31793516065E+03 0.  0.
         13    1    3    3    0    0 -0.58556936944E+02  0.16298677532E+03 -0.49306861604E+03  0.52259952537E+03  0.00000000000E+00 0.  1.
          3    1    3    3  501    0  0.73189562660E+02 -0.12749816629E+03 -0.40375245512E+03  0.42968423232E+03  0.00000000000E+00 0.  1.
         21    1    1    2  502  501 -0.14632625716E+02 -0.35488609024E+02 -0.70564874301E+02  0.80330296843E+02  0.00000000000E+00 0. -1.
<mgrwt>
<rscale>  1 0.30000000E+03</rscale>
<asrwt>0</asrwt>
<pdfrwt beam="1">  1        3 0.11859681E+00 0.30000000E+03</pdfrwt>
<pdfrwt beam="2">0</pdfrwt>
<totfact> 0.24011826E+00</totfact>
</mgrwt>
</event>
<event>
 6    1  0.1939311E-004  0.3000000E+03  0.7818608E-02  0.1093470E+00
          1   -1    0    0  502    0  0.00000000000E+00  0.00000000000E+00  0.15826765778E+02  0.15826765778E+02  0.00000000000E+00 0.  1.
         13   -1    0    0    0    0 -0.00000000000E+00 -0.00000000000E+00 -0.10000000000E+04  0.10000000000E+04  0.00000000000E+00 0.  1.
    9000005    2    1    2  501    0  0.26246893754E+02 -0.97343976783E+00 -0.96216257354E+03  0.98155846847E+03  0.19238077369E+03 0.  0.
         13    1    3    3    0    0  0.88653111940E+02  0.36112601179E+02 -0.28785640742E+03  0.30335590569E+03  0.00000000000E+00 0.  1.
          1    1    3    3  501    0 -0.62406218186E+02 -0.37086040947E+02 -0.67430616612E+03  0.67820256279E+03  0.00000000000E+00 0.  1.
         21    1    1    2  502  501 -0.26246893754E+02  0.97343976783E+00 -0.22010660678E+02  0.34268297305E+02  0.00000000000E+00 0.  1.
<mgrwt>
<rscale>  1 0.30000000E+03</rscale>
<asrwt>0</asrwt>
<pdfrwt beam="1">  1        1 0.57551997E-01 0.30000000E+03</pdfrwt>
<pdfrwt beam="2">0</pdfrwt>
<totfact> 0.73286581E+01</totfact>
</mgrwt>
</event>
<event>
 6    1  0.1939311E-004  0.3000000E+03  0.7818608E-02  0.1093470E+00
          1   -1    0    0  502    0  0.00000000000E+00  0.00000000000E+00  0.30667048031E+02  0.30667048031E+02  0.00000000000E+00 0.  1.
         13   -1    0    0    0    0 -0.00000000000E+00 -0.00000000000E+00 -0.10000000000E+04  0.10000000000E+04  0.00000000000E+00 0.  1.
    9000005    2    1    2  501    0 -0.44787542637E+01 -0.95423080218E+01 -0.96773352297E+03  0.10200052914E+04  0.32216689470E+03 0.  0.
         13    1    3    3    0    0 -0.27257603775E+02 -0.13262132787E+03 -0.79636245766E+03  0.80778992166E+03  0.00000000000E+00 0.  1.
          3    1    3    3  501    0  0.22778849511E+02  0.12307901984E+03 -0.17137106531E+03  0.21221536970E+03  0.00000000000E+00 0.  1.
         21    1    1    2  502  501  0.44787542637E+01  0.95423080218E+01 -0.15994289965E+01  0.10661756668E+02  0.00000000000E+00 0. -1.
<mgrwt>
<rscale>  1 0.30000000E+03</rscale>
<asrwt>0</asrwt>
<pdfrwt beam="1">  1        1 0.11151677E+00 0.30000000E+03</pdfrwt>
<pdfrwt beam="2">0</pdfrwt>
<totfact> 0.29100195E+01</totfact>
</mgrwt>
</event>
<event>
 6    1  0.1939311E-004  0.3000000E+03  0.7818608E-02  0.1093470E+00
          1   -1    0    0  502    0  0.00000000000E+00  0.00000000000E+00  0.11560248827E+03  0.11560248827E+03  0.00000000000E+00 0.  1.
         13   -1    0    0    0    0 -0.00000000000E+00 -0.00000000000E+00 -0.10000000000E+04  0.10000000000E+04  0.00000000000E+00 0.  1.
    9000005    2    1    2  501    0 -0.14039948427E+02  0.36195136153E+02 -0.96880997564E+03  0.10226903142E+04  0.32526220464E+03 0.  0.
         13    1    3    3    0    0 -0.82321373165E+02 -0.39924701263E+02 -0.62901483901E+02  0.11102876622E+03  0.00000000000E+00 0.  1.
          3    1    3    3  501    0  0.68281424738E+02  0.76119837416E+02 -0.90590849174E+03  0.91166154795E+03  0.00000000000E+00 0.  1.
         21    1    1    2  502  501  0.14039948427E+02 -0.36195136153E+02  0.84412463912E+02  0.92912174103E+02  0.00000000000E+00 0.  1.
<mgrwt>
<rscale>  1 0.30000000E+03</rscale>
<asrwt>0</asrwt>
<pdfrwt beam="1">  1        1 0.42037357E+00 0.30000000E+03</pdfrwt>
<pdfrwt beam="2">0</pdfrwt>
<totfact> 0.79779264E-01</totfact>
</mgrwt>
</event>
<event>
 6    1  0.1939311E-004  0.3000000E+03  0.7818608E-02  0.1093470E+00
          1   -1    0    0  502    0  0.00000000000E+00  0.00000000000E+00  0.29070017663E+02  0.29070017663E+02  0.00000000000E+00 0.  1.
         13   -1    0    0    0    0 -0.00000000000E+00 -0.00000000000E+00 -0.10000000000E+04  0.10000000000E+04  0.00000000000E+00 0.  1.
    9000005    2    1    2  501    0  0.23376391241E+01  0.22176800792E+02 -0.91498059705E+03  0.96884038406E+03  0.31774977853E+03 0.  0.
         13    1    3    3    0    0 -0.72383175603E+02  0.11483817675E+03 -0.76702846021E+03  0.77894787356E+03  0.00000000000E+00 0.  1.
          1    1    3    3  501    0  0.74720814727E+02 -0.92661375960E+02 -0.14795213684E+03  0.18989251050E+03  0.00000000000E+00 0.  1.
         21    1    1    2  502  501 -0.23376391241E+01 -0.22176800792E+02 -0.55949385290E+02  0.60229633607E+02  0.00000000000E+00 0.  1.
<mgrwt>
<rscale>  1 0.30000000E+03</rscale>
<asrwt>0</asrwt>
<pdfrwt beam="1">  1        1 0.10570938E+00 0.30000000E+03</pdfrwt>
<pdfrwt beam="2">0</pdfrwt>
<totfact> 0.31535417E+01</totfact>
</mgrwt>
</event>
<event>
 6    1  0.1939311E-004  0.3000000E+03  0.7818608E-02  0.1093470E+00
          1   -1    0    0  502    0  0.00000000000E+00  0.00000000000E+00  0.16538304728E+02  0.16538304728E+02  0.00000000000E+00 0.  1.
         13   -1    0    0    0    0 -0.00000000000E+00 -0.00000000000E+00 -0.10000000000E+04  0.10000000000E+04  0.00000000000E+00 0.  1.
    9000005    2    1    2  501    0  0.20600194125E+02  0.97469299287E+01 -0.92790460615E+03  0.95648865199E+03  0.23096366088E+03 0.  0.
         13    1    3    3    0    0  0.47281068034E+01 -0.61893351563E+02 -0.83864822388E+03  0.84094231989E+03  0.00000000000E+00 0.  1.
          1    1    3    3  501    0  0.15872087321E+02  0.71640281491E+02 -0.89256382261E+02  0.11554633210E+03  0.00000000000E+00 0.  1.
         21    1    1    2  502  501 -0.20600194125E+02 -0.97469299287E+01 -0.55557089127E+02  0.60049652733E+02  0.00000000000E+00 0.  1.
<mgrwt>
<rscale>  1 0.30000000E+03</rscale>
<asrwt>0</asrwt>
<pdfrwt beam="1">  1        1 0.60139417E-01 0.30000000E+03</pdfrwt>
<pdfrwt beam="2">0</pdfrwt>
<totfact> 0.69129898E+01</totfact>
</mgrwt>
</event>
<event>
 6    1  0.1939311E-004  0.3000000E+03  0.7818608E-02  0.1093470E+00
          1   -1    0    0  502    0  0.00000000000E+00  0.00000000000E+00  0.49619159162E+02  0.49619159162E+02  0.00000000000E+00 0.  1.
         13   -1    0    0    0    0 -0.00000000000E+00 -0.00000000000E+00 -0.10000000000E+04  0.10000000000E+04  0.00000000000E+00 0.  1.
    9000005    2    1    2  501    0 -0.34935053254E+01 -0.13293730614E+02 -0.97935446961E+03  0.10175504982E+04  0.27583493497E+03 0.  0.
         13    1    3    3    0    0 -0.74209356329E+01 -0.85629044454E+02 -0.87126121055E+02  0.12238612875E+03  0.00000000000E+00 0.  1.
          1    1    3    3  501    0  0.39274303075E+01  0.72335313840E+02 -0.89222834855E+03  0.89516436943E+03  0.00000000000E+00 0.  1.
         21    1    1    2  502  501  0.34935053254E+01  0.13293730614E+02  0.28973628770E+02  0.32068660982E+02  0.00000000000E+00 0.  1.
<mgrwt>
<rscale>  1 0.30000000E+03</rscale>
<asrwt>0</asrwt>
<pdfrwt beam="1">  1        1 0.18043369E+00 0.30000000E+03</pdfrwt>
<pdfrwt beam="2">0</pdfrwt>
<totfact> 0.12712911E+01</totfact>
</mgrwt>
</event>
<event>
 6    1  0.1939311E-004  0.3000000E+03  0.7818608E-02  0.1093470E+00
          1   -1    0    0  502    0  0.00000000000E+00  0.00000000000E+00  0.30065998878E+02  0.30065998878E+02  0.00000000000E+00 0.  1.
         13   -1    0    0    0    0 -0.00000000000E+00 -0.00000000000E+00 -0.10000000000E+04  0.10000000000E+04  0.00000000000E+00 0.  1.
    9000005    2    1    2  501    0  0.50262483156E+01 -0.91049945778E+01 -0.95732386369E+03  0.10137203675E+04  0.33324441396E+03 0.  0.
         13    1    3    3    0    0  0.96249145005E+02  0.10453160366E+02 -0.89790549940E+03  0.90310987833E+03  0.00000000000E+00 0.  1.
          3    1    3    3  501    0 -0.91222896689E+02 -0.19558154944E+02 -0.59418364290E+02  0.11061048920E+03  0.00000000000E+00 0.  1.
         21    1    1    2  502  501 -0.50262483156E+01  0.91049945778E+01 -0.12610137427E+02  0.16345631353E+02  0.00000000000E+00 0.  1.
<mgrwt>
<rscale>  1 0.30000000E+03</rscale>
<asrwt>0</asrwt>
<pdfrwt beam="1">  1        1 0.10933114E+00 0.30000000E+03</pdfrwt>
<pdfrwt beam="2">0</pdfrwt>
<totfact> 0.29984155E+01</totfact>
</mgrwt>
</event>
<event>
 6    1  0.1939311E-004  0.3000000E+03  0.7818608E-02  0.1093470E+00
          1   -1    0    0  502    0  0.00000000000E+00  0.00000000000E+00  0.30465328778E+02  0.30465328778E+02  0.00000000000E+00 0.  1.
         13   -1    0    0    0    0 -0.00000000000E+00 -0.00000000000E+00 -0.10000000000E+04  0.10000000000E+04  0.00000000000E+00 0.  1.
    9000005    2    1    2  501    0  0.10738080417E+01 -0.18154341595E+02 -0.94416683967E+03  0.99925218955E+03  0.32668514508E+03 0.  0.
         13    1    3    3    0    0  0.39777140854E+02 -0.15519366299E+03 -0.30613584050E+03  0.34552343887E+03  0.00000000000E+00 0.  1.
          1    1    3    3  501    0 -0.38703332812E+02  0.13703932139E+03 -0.63803099916E+03  0.65372875068E+03  0.00000000000E+00 0.  1.
         21    1    1    2  502  501 -0.10738080417E+01  0.18154341595E+02 -0.25367831556E+02  0.31213139225E+02  0.00000000000E+00 0. -1.
<mgrwt>
<rscale>  1 0.30000000E+03</rscale>
<asrwt>0</asrwt>
<pdfrwt beam="1">  1        1 0.11078325E+00 0.30000000E+03</pdfrwt>
<pdfrwt beam="2">0</pdfrwt>
<totfact> 0.29392697E+01</totfact>
</mgrwt>
</event>
<event>
 6    1  0.1939311E-004  0.3000000E+03  0.7818608E-02  0.1093470E+00
          1   -1    0    0  502    0  0.00000000000E+00  0.00000000000E+00  0.47245007193E+02  0.47245007193E+02  0.00000000000E+00 0.  1.
         13   -1    0    0    0    0 -0.00000000000E+00 -0.00000000000E+00 -0.10000000000E+04  0.10000000000E+04  0.00000000000E+00 0.  1.
    9000005    2    1    2  501    0 -0.32759780124E+01 -0.14161653949E+02 -0.97233680196E+03  0.10228578851E+04  0.31715628985E+03 0.  0.
         13    1    3    3    0    0 -0.12967716228E+03  0.84159882742E+02 -0.41050340056E+03  0.43864802992E+03  0.00000000000E+00 0.  1.
          1    1    3    3  501    0  0.12640118427E+03 -0.98321536691E+02 -0.56183340139E+03  0.58420985518E+03  0.00000000000E+00 0.  1.
         21    1    1    2  502  501  0.32759780124E+01  0.14161653949E+02  0.19581809149E+02  0.24387122095E+02  0.00000000000E+00 0. -1.
<mgrwt>
<rscale>  1 0.30000000E+03</rscale>
<asrwt>0</asrwt>
<pdfrwt beam="1">  1        1 0.17180039E+00 0.30000000E+03</pdfrwt>
<pdfrwt beam="2">0</pdfrwt>
<totfact> 0.14000981E+01</totfact>
</mgrwt>
</event>
<event>
 6    1  0.1939311E-004  0.3000000E+03  0.7818608E-02  0.1093470E+00
          3   -1    0    0  502    0  0.00000000000E+00  0.00000000000E+00  0.24048675662E+02  0.24048675662E+02  0.00000000000E+00 0.  1.
         13   -1    0    0    0    0 -0.00000000000E+00 -0.00000000000E+00 -0.10000000000E+04  0.10000000000E+04  0.00000000000E+00 0.  1.
    9000005    2    1    2  501    0 -0.14776034991E+02 -0.43984168157E+02 -0.93788526231E+03  0.96403231675E+03  0.21812061852E+03 0.  0.
         13    1    3    3    0    0  0.81121936982E+02 -0.59359014999E+02 -0.25205900825E+03  0.27136323436E+03  0.00000000000E+00 0.  1.
          1    1    3    3  501    0 -0.95897971973E+02  0.15374846843E+02 -0.68582625406E+03  0.69266908239E+03  0.00000000000E+00 0.  1.
         21    1    1    2  502  501  0.14776034991E+02  0.43984168157E+02 -0.38066062024E+02  0.60016358907E+02  0.00000000000E+00 0.  1.
<mgrwt>
<rscale>  1 0.30000000E+03</rscale>
<asrwt>0</asrwt>
<pdfrwt beam="1">  1        3 0.87449914E-01 0.30000000E+03</pdfrwt>
<pdfrwt beam="2">0</pdfrwt>
<totfact> 0.54645789E+00</totfact>
</mgrwt>
</event>
<event>
 6    1  0.1939311E-004  0.3000000E+03  0.7818608E-02  0.1093470E+00
          1   -1    0    0  502    0  0.00000000000E+00  0.00000000000E+00  0.44865896143E+02  0.44865896143E+02  0.00000000000E+00 0.  1.
         13   -1    0    0    0    0 -0.00000000000E+00 -0.00000000000E+00 -0.10000000000E+04  0.10000000000E+04  0.00000000000E+00 0.  1.
    9000005    2    1    2  501    0  0.66763299842E+02  0.23761908429E+02 -0.91085869273E+03  0.96130586665E+03  0.29903753049E+03 0.  0.
         13    1    3    3    0    0  0.80396605561E+02 -0.66415922650E+02 -0.97217319942E+02  0.14256891759E+03  0.00000000000E+00 0.  1.
          1    1    3    3  501    0 -0.13633305719E+02  0.90177831079E+02 -0.81364137279E+03  0.81873694906E+03  0.00000000000E+00 0.  1.
         21    1    1    2  502  501 -0.66763299842E+02 -0.23761908429E+02 -0.44275411127E+02  0.83560029491E+02  0.00000000000E+00 0.  1.
<mgrwt>
<rscale>  1 0.30000000E+03</rscale>
<asrwt>0</asrwt>
<pdfrwt beam="1">  1        1 0.16314906E+00 0.30000000E+03</pdfrwt>
<pdfrwt beam="2">0</pdfrwt>
<totfact> 0.15438446E+01</totfact>
</mgrwt>
</event>
<event>
 6    1  0.1939311E-004  0.3000000E+03  0.7818608E-02  0.1093470E+00
          1   -1    0    0  502    0  0.00000000000E+00  0.00000000000E+00  0.27661021881E+02  0.27661021881E+02  0.00000000000E+00 0.  1.
         13   -1    0    0    0    0 -0.00000000000E+00 -0.00000000000E+00 -0.10000000000E+04  0.10000000000E+04  0.00000000000E+00 0.  1.
    9000005    2    1    2  501    0 -0.90322326311E+01  0.55399701825E+01 -0.93828007353E+03  0.99199196697E+03  0.32181717429E+03 0.  0.
         13    1    3    3    0    0  0.77521166181E+02 -0.19168491617E+02 -0.40183793526E+02  0.89396306070E+02  0.00000000000E+00 0.  1.
          1    1    3    3  501    0 -0.86553398812E+02  0.24708461800E+02 -0.89809628000E+03  0.90259566090E+03  0.00000000000E+00 0.  1.
         21    1    1    2  502  501  0.90322326311E+01 -0.55399701825E+01 -0.34058904593E+02  0.35669054907E+02  0.00000000000E+00 0.  1.
<mgrwt>
<rscale>  1 0.30000000E+03</rscale>
<asrwt>0</asrwt>
<pdfrwt beam="1">  1        1 0.10058575E+00 0.30000000E+03</pdfrwt>
<pdfrwt beam="2">0</pdfrwt>
<totfact> 0.33935658E+01</totfact>
</mgrwt>
</event>
<event>
 6    1  0.1939311E-004  0.3000000E+03  0.7818608E-02  0.1093470E+00
          1   -1    0    0  502    0  0.00000000000E+00  0.00000000000E+00  0.30355705066E+02  0.30355705066E+02  0.00000000000E+00 0.  1.
         13   -1    0    0    0    0 -0.00000000000E+00 -0.00000000000E+00 -0.10000000000E+04  0.10000000000E+04  0.00000000000E+00 0.  1.
    9000005    2    1    2  501    0  0.41820935054E+01  0.10257425245E+02 -0.96662133958E+03  0.10188734171E+04  0.32190607509E+03 0.  0.
         13    1    3    3    0    0 -0.11157799021E+03 -0.39084204112E+01 -0.83738733019E+03  0.84479729191E+03  0.00000000000E+00 0.  1.
          1    1    3    3  501    0  0.11576008372E+03  0.14165845656E+02 -0.12923400939E+03  0.17407612515E+03  0.00000000000E+00 0.  1.
         21    1    1    2  502  501 -0.41820935054E+01 -0.10257425245E+02 -0.30229553493E+01  0.11482288003E+02  0.00000000000E+00 0.  1.
<mgrwt>
<rscale>  1 0.30000000E+03</rscale>
<asrwt>0</asrwt>
<pdfrwt beam="1">  1        1 0.11038461E+00 0.30000000E+03</pdfrwt>
<pdfrwt beam="2">0</pdfrwt>
<totfact> 0.29553403E+01</totfact>
</mgrwt>
</event>
<event>
 6    1  0.1939311E-004  0.3000000E+03  0.7818608E-02  0.1093470E+00
          3   -1    0    0  502    0  0.00000000000E+00  0.00000000000E+00  0.32111651865E+02  0.32111651865E+02  0.00000000000E+00 0.  1.
         13   -1    0    0    0    0 -0.00000000000E+00 -0.00000000000E+00 -0.10000000000E+04  0.10000000000E+04  0.00000000000E+00 0.  1.
    9000005    2    1    2  501    0 -0.12690904471E+02 -0.60130947175E+01 -0.96137699490E+03  0.10166321788E+04  0.33029993090E+03 0.  0.
         13    1    3    3    0    0  0.12511630235E+03  0.97033064888E+02 -0.47799130522E+03  0.50353271260E+03  0.00000000000E+00 0.  1.
          3    1    3    3  501    0 -0.13780720682E+03 -0.10304615961E+03 -0.48338568968E+03  0.51309946623E+03  0.00000000000E+00 0.  1.
         21    1    1    2  502  501  0.12690904471E+02  0.60130947175E+01 -0.65113532348E+01  0.15479473031E+02  0.00000000000E+00 0. -1.
<mgrwt>
<rscale>  1 0.30000000E+03</rscale>
<asrwt>0</asrwt>
<pdfrwt beam="1">  1        3 0.11676989E+00 0.30000000E+03</pdfrwt>
<pdfrwt beam="2">0</pdfrwt>
<totfact> 0.25207709E+00</totfact>
</mgrwt>
</event>
<event>
 6    1  0.1939311E-004  0.3000000E+03  0.7818608E-02  0.1093470E+00
          1   -1    0    0  502    0  0.00000000000E+00  0.00000000000E+00  0.30815619392E+02  0.30815619392E+02  0.00000000000E+00 0.  1.
         13   -1    0    0    0    0 -0.00000000000E+00 -0.00000000000E+00 -0.10000000000E+04  0.10000000000E+04  0.00000000000E+00 0.  1.
    9000005    2    1    2  501    0 -0.14996987398E+02  0.93692906846E+01 -0.95866862361E+03  0.10102419862E+04  0.31816764052E+03 0.  0.
         13    1    3    3    0    0 -0.10792356584E+03  0.19814974046E+02 -0.88343414523E+03  0.89022245435E+03  0.00000000000E+00 0.  1.
          1    1    3    3  501    0  0.92926578439E+02 -0.10445683361E+02 -0.75234478378E+02  0.12001953182E+03  0.00000000000E+00 0.  1.
         21    1    1    2  502  501  0.14996987398E+02 -0.93692906846E+01 -0.10515756998E+02  0.20573633228E+02  0.00000000000E+00 0.  1.
<mgrwt>
<rscale>  1 0.30000000E+03</rscale>
<asrwt>0</asrwt>
<pdfrwt beam="1">  1        1 0.11205703E+00 0.30000000E+03</pdfrwt>
<pdfrwt beam="2">0</pdfrwt>
<totfact> 0.28887382E+01</totfact>
</mgrwt>
</event>
<event>
 6    1  0.1939311E-004  0.3000000E+03  0.7818608E-02  0.1093470E+00
          1   -1    0    0  502    0  0.00000000000E+00  0.00000000000E+00  0.26750179242E+02  0.26750179242E+02  0.00000000000E+00 0.  1.
         13   -1    0    0    0    0 -0.00000000000E+00 -0.00000000000E+00 -0.10000000000E+04  0.10000000000E+04  0.00000000000E+00 0.  1.
    9000005    2    1    2  501    0  0.24420055800E+01 -0.13246705157E+02 -0.96496035736E+03  0.10109339284E+04  0.30109380205E+03 0.  0.
         13    1    3    3    0    0 -0.63280150509E+01 -0.26192788943E+02 -0.98508212262E+03  0.98545060469E+03  0.00000000000E+00 0.  1.
          3    1    3    3  501    0  0.87700206309E+01  0.12946083786E+02  0.20121765269E+02  0.25483323661E+02  0.00000000000E+00 0.  1.
         21    1    1    2  502  501 -0.24420055800E+01  0.13246705157E+02 -0.82894634025E+01  0.15816250892E+02  0.00000000000E+00 0.  1.
<mgrwt>
<rscale>  1 0.30000000E+03</rscale>
<asrwt>0</asrwt>
<pdfrwt beam="1">  1        1 0.97273584E-01 0.30000000E+03</pdfrwt>
<pdfrwt beam="2">0</pdfrwt>
<totfact> 0.35632538E+01</totfact>
</mgrwt>
</event>
<event>
 6    1  0.1939311E-004  0.3000000E+03  0.7818608E-02  0.1093470E+00
          1   -1    0    0  502    0  0.00000000000E+00  0.00000000000E+00  0.36698799190E+02  0.36698799190E+02  0.00000000000E+00 0.  1.
         13   -1    0    0    0    0 -0.00000000000E+00 -0.00000000000E+00 -0.10000000000E+04  0.10000000000E+04  0.00000000000E+00 0.  1.
    9000005    2    1    2  501    0  0.26994631705E+02 -0.65041642383E+01 -0.95043014591E+03  0.10060935979E+04  0.32884016047E+03 0.  0.
         13    1    3    3    0    0  0.42166828382E+02  0.26307074249E+02 -0.96560873892E+03  0.96688693251E+03  0.00000000000E+00 0.  1.
          1    1    3    3  501    0 -0.15172196677E+02 -0.32811238488E+02  0.15178593016E+02  0.39206665365E+02  0.00000000000E+00 0.  1.
         21    1    1    2  502  501 -0.26994631705E+02  0.65041642383E+01 -0.12871054903E+02  0.30605201317E+02  0.00000000000E+00 0.  1.
<mgrwt>
<rscale>  1 0.30000000E+03</rscale>
<asrwt>0</asrwt>
<pdfrwt beam="1">  1        1 0.13345046E+00 0.30000000E+03</pdfrwt>
<pdfrwt beam="2">0</pdfrwt>
<totfact> 0.21917365E+01</totfact>
</mgrwt>
</event>
<event>
 6    1  0.1939311E-004  0.3000000E+03  0.7818608E-02  0.1093470E+00
          1   -1    0    0  502    0  0.00000000000E+00  0.00000000000E+00  0.39486433802E+02  0.39486433802E+02  0.00000000000E+00 0.  1.
         13   -1    0    0    0    0 -0.00000000000E+00 -0.00000000000E+00 -0.10000000000E+04  0.10000000000E+04  0.00000000000E+00 0.  1.
    9000005    2    1    2  501    0  0.28443914429E+02 -0.18627611775E-01 -0.95569058190E+03  0.10106365154E+04  0.32746392365E+03 0.  0.
         13    1    3    3    0    0  0.28294003232E+02 -0.18289628798E+02  0.17025921496E+02  0.37748419082E+02  0.00000000000E+00 0.  1.
          1    1    3    3  501    0  0.14991119716E+00  0.18271001186E+02 -0.97271650339E+03  0.97288809630E+03  0.00000000000E+00 0.  1.
         21    1    1    2  502  501 -0.28443914429E+02  0.18627611775E-01 -0.48229843017E+01  0.28849918416E+02  0.00000000000E+00 0.  1.
<mgrwt>
<rscale>  1 0.30000000E+03</rscale>
<asrwt>0</asrwt>
<pdfrwt beam="1">  1        1 0.14358733E+00 0.30000000E+03</pdfrwt>
<pdfrwt beam="2">0</pdfrwt>
<totfact> 0.19379490E+01</totfact>
</mgrwt>
</event>
<event>
 6    1  0.1939311E-004  0.3000000E+03  0.7818608E-02  0.1093470E+00
          1   -1    0    0  502    0  0.00000000000E+00  0.00000000000E+00  0.28327899594E+02  0.28327899594E+02  0.00000000000E+00 0.  1.
         13   -1    0    0    0    0 -0.00000000000E+00 -0.00000000000E+00 -0.10000000000E+04  0.10000000000E+04  0.00000000000E+00 0.  1.
    9000005    2    1    2  501    0  0.13224141982E+02 -0.64609719935E+00 -0.94272866191E+03  0.99649995582E+03  0.32264459797E+03 0.  0.
         13    1    3    3    0    0 -0.13829159087E+03 -0.96847502189E+01 -0.23642847195E+03  0.27407440748E+03  0.00000000000E+00 0.  1.
          3    1    3    3  501    0  0.15151573285E+03  0.90386530195E+01 -0.70630018996E+03  0.72242554834E+03  0.00000000000E+00 0.  1.
         21    1    1    2  502  501 -0.13224141982E+02  0.64609719935E+00 -0.28943438495E+02  0.31827943770E+02  0.00000000000E+00 0.  1.
<mgrwt>
<rscale>  1 0.30000000E+03</rscale>
<asrwt>0</asrwt>
<pdfrwt beam="1">  1        1 0.10301076E+00 0.30000000E+03</pdfrwt>
<pdfrwt beam="2">0</pdfrwt>
<totfact> 0.32767608E+01</totfact>
</mgrwt>
</event>
<event>
 6    1  0.1939311E-004  0.3000000E+03  0.7818608E-02  0.1093470E+00
          1   -1    0    0  502    0  0.00000000000E+00  0.00000000000E+00  0.28822628889E+02  0.28822628889E+02  0.00000000000E+00 0.  1.
         13   -1    0    0    0    0 -0.00000000000E+00 -0.00000000000E+00 -0.10000000000E+04  0.10000000000E+04  0.00000000000E+00 0.  1.
    9000005    2    1    2  501    0  0.26204003805E+01 -0.75259602922E+01 -0.94664292859E+03  0.10030263996E+04  0.33145982779E+03 0.  0.
         13    1    3    3    0    0 -0.13140222926E+03  0.94135834376E+02 -0.51463403778E+03  0.53942218531E+03  0.00000000000E+00 0.  1.
          3    1    3    3  501    0  0.13402262964E+03 -0.10166179467E+03 -0.43200889081E+03  0.46360421427E+03  0.00000000000E+00 0.  1.
         21    1    1    2  502  501 -0.26204003805E+01  0.75259602922E+01 -0.24534442519E+02  0.25796229302E+02  0.00000000000E+00 0. -1.
<mgrwt>
<rscale>  1 0.30000000E+03</rscale>
<asrwt>0</asrwt>
<pdfrwt beam="1">  1        1 0.10480978E+00 0.30000000E+03</pdfrwt>
<pdfrwt beam="2">0</pdfrwt>
<totfact> 0.31938598E+01</totfact>
</mgrwt>
</event>
<event>
 6    1  0.1939311E-004  0.3000000E+03  0.7818608E-02  0.1093470E+00
          1   -1    0    0  502    0  0.00000000000E+00  0.00000000000E+00  0.38426093680E+02  0.38426093680E+02  0.00000000000E+00 0.  1.
         13   -1    0    0    0    0 -0.00000000000E+00 -0.00000000000E+00 -0.10000000000E+04  0.10000000000E+04  0.00000000000E+00 0.  1.
    9000005    2    1    2  501    0  0.44611462539E+01  0.14453255767E+02 -0.96752606205E+03  0.10221710457E+04  0.32939060010E+03 0.  0.
         13    1    3    3    0    0  0.13646537281E+03  0.54194654677E+02 -0.23735947492E+03  0.27910460209E+03  0.00000000000E+00 0.  1.
          1    1    3    3  501    0 -0.13200422656E+03 -0.39741398910E+02 -0.73016658712E+03  0.74306644357E+03  0.00000000000E+00 0.  1.
         21    1    1    2  502  501 -0.44611462539E+01 -0.14453255767E+02  0.59521557254E+01  0.16255048014E+02  0.00000000000E+00 0. -1.
<mgrwt>
<rscale>  1 0.30000000E+03</rscale>
<asrwt>0</asrwt>
<pdfrwt beam="1">  1        1 0.13973154E+00 0.30000000E+03</pdfrwt>
<pdfrwt beam="2">0</pdfrwt>
<totfact> 0.20297947E+01</totfact>
</mgrwt>
</event>
<event>
 6    1  0.1939311E-004  0.3000000E+03  0.7818608E-02  0.1093470E+00
          1   -1    0    0  502    0  0.00000000000E+00  0.00000000000E+00  0.36450007539E+02  0.36450007539E+02  0.00000000000E+00 0.  1.
         13   -1    0    0    0    0 -0.00000000000E+00 -0.00000000000E+00 -0.10000000000E+04  0.10000000000E+04  0.00000000000E+00 0.  1.
    9000005    2    1    2  501    0  0.59836150446E+01 -0.12894654015E+02 -0.96960483071E+03  0.10209988970E+04  0.31953582610E+03 0.  0.
         13    1    3    3    0    0  0.66384205730E+02  0.12310790479E+03 -0.25282073047E+03  0.28893033892E+03  0.00000000000E+00 0.  1.
          3    1    3    3  501    0 -0.60400590686E+02 -0.13600255880E+03 -0.71678410023E+03  0.73206855806E+03  0.00000000000E+00 0.  1.
         21    1    1    2  502  501 -0.59836150446E+01  0.12894654015E+02  0.60548382479E+01  0.15451110555E+02  0.00000000000E+00 0.  1.
<mgrwt>
<rscale>  1 0.30000000E+03</rscale>
<asrwt>0</asrwt>
<pdfrwt beam="1">  1        1 0.13254576E+00 0.30000000E+03</pdfrwt>
<pdfrwt beam="2">0</pdfrwt>
<totfact> 0.22164485E+01</totfact>
</mgrwt>
</event>
<event>
 6    1  0.1939311E-004  0.3000000E+03  0.7818608E-02  0.1093470E+00
          1   -1    0    0  502    0  0.00000000000E+00  0.00000000000E+00  0.47009293397E+02  0.47009293397E+02  0.00000000000E+00 0.  1.
         13   -1    0    0    0    0 -0.00000000000E+00 -0.00000000000E+00 -0.10000000000E+04  0.10000000000E+04  0.00000000000E+00 0.  1.
    9000005    2    1    2  501    0 -0.38003774059E+02  0.14207462018E+02 -0.94271866733E+03  0.10051565323E+04  0.34637411840E+03 0.  0.
         13    1    3    3    0    0 -0.12476711407E+03 -0.12399880523E+03 -0.60543261001E+03  0.63046901725E+03  0.00000000000E+00 0.  1.
          1    1    3    3  501    0  0.86763340016E+02  0.13820626725E+03 -0.33728605732E+03  0.37468751506E+03  0.00000000000E+00 0.  1.
         21    1    1    2  502  501  0.38003774059E+02 -0.14207462018E+02 -0.10272039276E+02  0.41852761087E+02  0.00000000000E+00 0.  1.
<mgrwt>
<rscale>  1 0.30000000E+03</rscale>
<asrwt>0</asrwt>
<pdfrwt beam="1">  1        1 0.17094325E+00 0.30000000E+03</pdfrwt>
<pdfrwt beam="2">0</pdfrwt>
<totfact> 0.14136434E+01</totfact>
</mgrwt>
</event>
<event>
 6    1  0.1939311E-004  0.3000000E+03  0.7818608E-02  0.1093470E+00
          1   -1    0    0  502    0  0.00000000000E+00  0.00000000000E+00  0.36292660862E+02  0.36292660862E+02  0.00000000000E+00 0.  1.
         13   -1    0    0    0    0 -0.00000000000E+00 -0.00000000000E+00 -0.10000000000E+04  0.10000000000E+04  0.00000000000E+00 0.  1.
    9000005    2    1    2  501    0 -0.12377239197E+02  0.11928293058E+02 -0.90939191685E+03  0.97932209545E+03  0.36301877083E+03 0.  0.
         13    1    3    3    0    0  0.17370551896E+02 -0.14492532794E+03 -0.17549992930E+03  0.22826587992E+03  0.00000000000E+00 0.  1.
          3    1    3    3  501    0 -0.29747791093E+02  0.15685362099E+03 -0.73389198755E+03  0.75105621553E+03  0.00000000000E+00 0.  1.
         21    1    1    2  502  501  0.12377239197E+02 -0.11928293058E+02 -0.54315422287E+02  0.56970565415E+02  0.00000000000E+00 0.  1.
<mgrwt>
<rscale>  1 0.30000000E+03</rscale>
<asrwt>0</asrwt>
<pdfrwt beam="1">  1        1 0.13197359E+00 0.30000000E+03</pdfrwt>
<pdfrwt beam="2">0</pdfrwt>
<totfact> 0.22322671E+01</totfact>
</mgrwt>
</event>
<event>
 6    1  0.1939311E-004  0.3000000E+03  0.7818608E-02  0.1093470E+00
          1   -1    0    0  502    0  0.00000000000E+00  0.00000000000E+00  0.29736809232E+02  0.29736809232E+02  0.00000000000E+00 0.  1.
         13   -1    0    0    0    0 -0.00000000000E+00 -0.00000000000E+00 -0.10000000000E+04  0.10000000000E+04  0.00000000000E+00 0.  1.
    9000005    2    1    2  501    0 -0.86569696143E+01 -0.72483544048E+01 -0.96493447413E+03  0.10172517387E+04  0.32183082328E+03 0.  0.
         13    1    3    3    0    0  0.26272747296E+02 -0.15711403362E+03 -0.60876516511E+03  0.62926155378E+03  0.00000000000E+00 0.  1.
          1    1    3    3  501    0 -0.34929716910E+02  0.14986567921E+03 -0.35616930902E+03  0.38799018495E+03  0.00000000000E+00 0.  1.
         21    1    1    2  502  501  0.86569696143E+01  0.72483544048E+01 -0.53287166342E+01  0.12485070502E+02  0.00000000000E+00 0. -1.
<mgrwt>
<rscale>  1 0.30000000E+03</rscale>
<asrwt>0</asrwt>
<pdfrwt beam="1">  1        1 0.10813408E+00 0.30000000E+03</pdfrwt>
<pdfrwt beam="2">0</pdfrwt>
<totfact> 0.30484543E+01</totfact>
</mgrwt>
</event>
<event>
 6    1  0.1939311E-004  0.3000000E+03  0.7818608E-02  0.1093470E+00
          1   -1    0    0  502    0  0.00000000000E+00  0.00000000000E+00  0.37185592014E+02  0.37185592014E+02  0.00000000000E+00 0.  1.
         13   -1    0    0    0    0 -0.00000000000E+00 -0.00000000000E+00 -0.10000000000E+04  0.10000000000E+04  0.00000000000E+00 0.  1.
    9000005    2    1    2  501    0 -0.85278215388E+01 -0.30170829855E+02 -0.93528627509E+03  0.99546268685E+03  0.33941499942E+03 0.  0.
         13    1    3    3    0    0  0.50190677395E+02  0.14559229939E+03 -0.37770981723E+03  0.40789818309E+03  0.00000000000E+00 0.  1.
          3    1    3    3  501    0 -0.58718498934E+02 -0.17576312925E+03 -0.55757645786E+03  0.58756450376E+03  0.00000000000E+00 0.  1.
         21    1    1    2  502  501  0.85278215388E+01  0.30170829855E+02 -0.27528132898E+02  0.41722905162E+02  0.00000000000E+00 0.  1.
<mgrwt>
<rscale>  1 0.30000000E+03</rscale>
<asrwt>0</asrwt>
<pdfrwt beam="1">  1        1 0.13522062E+00 0.30000000E+03</pdfrwt>
<pdfrwt beam="2">0</pdfrwt>
<totfact> 0.21444295E+01</totfact>
</mgrwt>
</event>
<event>
 6    1  0.1939311E-004  0.3000000E+03  0.7818608E-02  0.1093470E+00
          1   -1    0    0  502    0  0.00000000000E+00  0.00000000000E+00  0.36676972441E+02  0.36676972441E+02  0.00000000000E+00 0.  1.
         13   -1    0    0    0    0 -0.00000000000E+00 -0.00000000000E+00 -0.10000000000E+04  0.10000000000E+04  0.00000000000E+00 0.  1.
    9000005    2    1    2  501    0  0.12478919416E+02  0.17900002437E+02 -0.96140354765E+03  0.10147722259E+04  0.32402122700E+03 0.  0.
         13    1    3    3    0    0 -0.10011203251E+03  0.12950683100E+03 -0.42505106601E+03  0.45548089647E+03  0.00000000000E+00 0.  1.
          3    1    3    3  501    0  0.11259095193E+03 -0.11160682857E+03 -0.53635248164E+03  0.55929132945E+03  0.00000000000E+00 0.  1.
         21    1    1    2  502  501 -0.12478919416E+02 -0.17900002437E+02 -0.19194799070E+01  0.21904746521E+02  0.00000000000E+00 0.  1.
<mgrwt>
<rscale>  1 0.30000000E+03</rscale>
<asrwt>0</asrwt>
<pdfrwt beam="1">  1        1 0.13337109E+00 0.30000000E+03</pdfrwt>
<pdfrwt beam="2">0</pdfrwt>
<totfact> 0.21938899E+01</totfact>
</mgrwt>
</event>
<event>
 6    1  0.1939311E-004  0.3000000E+03  0.7818608E-02  0.1093470E+00
          1   -1    0    0  502    0  0.00000000000E+00  0.00000000000E+00  0.43908947428E+02  0.43908947428E+02  0.00000000000E+00 0.  1.
         13   -1    0    0    0    0 -0.00000000000E+00 -0.00000000000E+00 -0.10000000000E+04  0.10000000000E+04  0.00000000000E+00 0.  1.
    9000005    2    1    2  501    0 -0.10049232190E+02 -0.23019394083E+01 -0.97097945965E+03  0.10257995394E+04  0.33069214994E+03 0.  0.
         13    1    3    3    0    0 -0.11075629243E+03 -0.94159467399E+02 -0.76575969211E+03  0.77943624991E+03  0.00000000000E+00 0.  1.
          3    1    3    3  501    0  0.10070706024E+03  0.91857527991E+02 -0.20521976754E+03  0.24636328952E+03  0.00000000000E+00 0.  1.
         21    1    1    2  502  501  0.10049232190E+02  0.23019394083E+01  0.14888407082E+02  0.18109407999E+02  0.00000000000E+00 0.  1.
<mgrwt>
<rscale>  1 0.30000000E+03</rscale>
<asrwt>0</asrwt>
<pdfrwt beam="1">  1        1 0.15966924E+00 0.30000000E+03</pdfrwt>
<pdfrwt beam="2">0</pdfrwt>
<totfact> 0.16063727E+01</totfact>
</mgrwt>
</event>
<event>
 6    1  0.1939311E-004  0.3000000E+03  0.7818608E-02  0.1093470E+00
          1   -1    0    0  502    0  0.00000000000E+00  0.00000000000E+00  0.28530807091E+02  0.28530807091E+02  0.00000000000E+00 0.  1.
         13   -1    0    0    0    0 -0.00000000000E+00 -0.00000000000E+00 -0.10000000000E+04  0.10000000000E+04  0.00000000000E+00 0.  1.
    9000005    2    1    2  501    0 -0.81993425038E+01 -0.86758916041E+01 -0.94690759007E+03  0.10012219688E+04  0.32506760288E+03 0.  0.
         13    1    3    3    0    0  0.77931122571E+02 -0.81574409709E+01 -0.89949739054E+03  0.90290384831E+03  0.00000000000E+00 0.  1.
          3    1    3    3  501    0 -0.86130465074E+02 -0.51845063323E+00 -0.47410199535E+02  0.98318120532E+02  0.00000000000E+00 0.  1.
         21    1    1    2  502  501  0.81993425038E+01  0.86758916041E+01 -0.24561602838E+02  0.27308838250E+02  0.00000000000E+00 0.  1.
<mgrwt>
<rscale>  1 0.30000000E+03</rscale>
<asrwt>0</asrwt>
<pdfrwt beam="1">  1        1 0.10374861E+00 0.30000000E+03</pdfrwt>
<pdfrwt beam="2">0</pdfrwt>
<totfact> 0.32423860E+01</totfact>
</mgrwt>
</event>
<event>
 6    1  0.1939311E-004  0.3000000E+03  0.7818608E-02  0.1093470E+00
          1   -1    0    0  502    0  0.00000000000E+00  0.00000000000E+00  0.28179248766E+02  0.28179248766E+02  0.00000000000E+00 0.  1.
         13   -1    0    0    0    0 -0.00000000000E+00 -0.00000000000E+00 -0.10000000000E+04  0.10000000000E+04  0.00000000000E+00 0.  1.
    9000005    2    1    2  501    0  0.13254950907E+02 -0.86348327193E+00 -0.95487706833E+03  0.10066495549E+04  0.31839703432E+03 0.  0.
         13    1    3    3    0    0  0.53688380781E+02 -0.14465634109E+03 -0.33185801460E+03  0.36597491868E+03  0.00000000000E+00 0.  1.
          1    1    3    3  501    0 -0.40433429874E+02  0.14379285781E+03 -0.62301905372E+03  0.64067463623E+03  0.00000000000E+00 0.  1.
         21    1    1    2  502  501 -0.13254950907E+02  0.86348327193E+00 -0.16943682907E+02  0.21529693852E+02  0.00000000000E+00 0. -1.
<mgrwt>
<rscale>  1 0.30000000E+03</rscale>
<asrwt>0</asrwt>
<pdfrwt beam="1">  1        1 0.10247021E+00 0.30000000E+03</pdfrwt>
<pdfrwt beam="2">0</pdfrwt>
<totfact> 0.33022821E+01</totfact>
</mgrwt>
</event>
<event>
 6    1  0.1939311E-004  0.3000000E+03  0.7818608E-02  0.1093470E+00
          1   -1    0    0  502    0  0.00000000000E+00  0.00000000000E+00  0.44154211500E+02  0.44154211500E+02  0.00000000000E+00 0.  1.
         13   -1    0    0    0    0 -0.00000000000E+00 -0.00000000000E+00 -0.10000000000E+04  0.10000000000E+04  0.00000000000E+00 0.  1.
    9000005    2    1    2  501    0  0.27603543042E+02 -0.16498462475E+02 -0.95586885086E+03  0.10119959251E+04  0.33078140443E+03 0.  0.
         13    1    3    3    0    0  0.12254524162E+03  0.60966718946E+02 -0.81003194625E+03  0.82151447401E+03  0.00000000000E+00 0.  1.
          1    1    3    3  501    0 -0.94941698579E+02 -0.77465181421E+02 -0.14583690461E+03  0.19048145109E+03  0.00000000000E+00 0.  1.
         21    1    1    2  502  501 -0.27603543042E+02  0.16498462475E+02  0.23062360580E-01  0.32158286404E+02  0.00000000000E+00 0. -1.
<mgrwt>
<rscale>  1 0.30000000E+03</rscale>
<asrwt>0</asrwt>
<pdfrwt beam="1">  1        1 0.16056111E+00 0.30000000E+03</pdfrwt>
<pdfrwt beam="2">0</pdfrwt>
<totfact> 0.15900715E+01</totfact>
</mgrwt>
</event>
<event>
 6    1  0.1939311E-004  0.3000000E+03  0.7818608E-02  0.1093470E+00
          1   -1    0    0  502    0  0.00000000000E+00  0.00000000000E+00  0.28471234948E+02  0.28471234948E+02  0.00000000000E+00 0.  1.
         13   -1    0    0    0    0 -0.00000000000E+00 -0.00000000000E+00 -0.10000000000E+04  0.10000000000E+04  0.00000000000E+00 0.  1.
    9000005    2    1    2  501    0  0.67425251220E+01  0.62787726763E+01 -0.94605927511E+03  0.10013865612E+04  0.32811889370E+03 0.  0.
         13    1    3    3    0    0 -0.14555488857E+03  0.28795050844E+02 -0.66060701318E+03  0.67706499422E+03  0.00000000000E+00 0.  1.
          1    1    3    3  501    0  0.15229741369E+03 -0.22516278168E+02 -0.28545226193E+03  0.32432156703E+03  0.00000000000E+00 0.  1.
         21    1    1    2  502  501 -0.67425251220E+01 -0.62787726763E+01 -0.25469489947E+02  0.27084673701E+02  0.00000000000E+00 0. -1.
<mgrwt>
<rscale>  1 0.30000000E+03</rscale>
<asrwt>0</asrwt>
<pdfrwt beam="1">  1        1 0.10353198E+00 0.30000000E+03</pdfrwt>
<pdfrwt beam="2">0</pdfrwt>
<totfact> 0.32524236E+01</totfact>
</mgrwt>
</event>
<event>
 6    1  0.1939311E-004  0.3000000E+03  0.7818608E-02  0.1093470E+00
          1   -1    0    0  502    0  0.00000000000E+00  0.00000000000E+00  0.29868487894E+02  0.29868487894E+02  0.00000000000E+00 0.  1.
         13   -1    0    0    0    0 -0.00000000000E+00 -0.00000000000E+00 -0.10000000000E+04  0.10000000000E+04  0.00000000000E+00 0.  1.
    9000005    2    1    2  501    0 -0.62495771229E+01 -0.13226063985E+02 -0.94006639853E+03  0.99643352061E+03  0.33006202656E+03 0.  0.
         13    1    3    3    0    0  0.13358202655E+03  0.15781199035E+02 -0.73084187685E+03  0.74311711931E+03  0.00000000000E+00 0.  1.
          1    1    3    3  501    0 -0.13983160368E+03 -0.29007263020E+02 -0.20922452168E+03  0.25331640130E+03  0.00000000000E+00 0.  1.
         21    1    1    2  502  501  0.62495771229E+01  0.13226063985E+02 -0.30065113577E+02  0.33434967282E+02  0.00000000000E+00 0.  1.
<mgrwt>
<rscale>  1 0.30000000E+03</rscale>
<asrwt>0</asrwt>
<pdfrwt beam="1">  1        1 0.10861291E+00 0.30000000E+03</pdfrwt>
<pdfrwt beam="2">0</pdfrwt>
<totfact> 0.30282964E+01</totfact>
</mgrwt>
</event>
<event>
 6    1  0.1939311E-004  0.3000000E+03  0.7818608E-02  0.1093470E+00
          1   -1    0    0  502    0  0.00000000000E+00  0.00000000000E+00  0.46595987704E+02  0.46595987704E+02  0.00000000000E+00 0.  1.
         13   -1    0    0    0    0 -0.00000000000E+00 -0.00000000000E+00 -0.10000000000E+04  0.10000000000E+04  0.00000000000E+00 0.  1.
    9000005    2    1    2  501    0  0.40896132823E+02  0.73296683016E+02 -0.73730782154E+03  0.81477178474E+03  0.33643029008E+03 0.  0.
         13    1    3    3    0    0 -0.39618796620E+02  0.89184936097E+01  0.23561703754E+02  0.46950425532E+02  0.00000000000E+00 0.  1.
          1    1    3    3  501    0  0.80514929443E+02  0.64378189406E+02 -0.76086952529E+03  0.76782135921E+03  0.00000000000E+00 0.  1.
         21    1    1    2  502  501 -0.40896132823E+02 -0.73296683016E+02 -0.21609619075E+03  0.23182420296E+03  0.00000000000E+00 0.  1.
<mgrwt>
<rscale>  1 0.30000000E+03</rscale>
<asrwt>0</asrwt>
<pdfrwt beam="1">  1        1 0.16944031E+00 0.30000000E+03</pdfrwt>
<pdfrwt beam="2">0</pdfrwt>
<totfact> 0.14377502E+01</totfact>
</mgrwt>
</event>
<event>
 6    1  0.1939311E-004  0.3000000E+03  0.7818608E-02  0.1093470E+00
          1   -1    0    0  502    0  0.00000000000E+00  0.00000000000E+00  0.46707293954E+02  0.46707293954E+02  0.00000000000E+00 0.  1.
         13   -1    0    0    0    0 -0.00000000000E+00 -0.00000000000E+00 -0.10000000000E+04  0.10000000000E+04  0.00000000000E+00 0.  1.
    9000005    2    1    2  501    0  0.10834990036E+02  0.46696082081E+01 -0.97018308496E+03  0.10261042080E+04  0.33390930676E+03 0.  0.
         13    1    3    3    0    0 -0.15505769430E+03 -0.33652321760E+02 -0.55853318159E+03  0.58063300136E+03  0.00000000000E+00 0.  1.
          3    1    3    3  501    0  0.16589268434E+03  0.38321929968E+02 -0.41164990336E+03  0.44547120667E+03  0.00000000000E+00 0.  1.
         21    1    1    2  502  501 -0.10834990036E+02 -0.46696082081E+01  0.16890378912E+02  0.20603085926E+02  0.00000000000E+00 0.  1.
<mgrwt>
<rscale>  1 0.30000000E+03</rscale>
<asrwt>0</asrwt>
<pdfrwt beam="1">  1        1 0.16984506E+00 0.30000000E+03</pdfrwt>
<pdfrwt beam="2">0</pdfrwt>
<totfact> 0.14312129E+01</totfact>
</mgrwt>
</event>
<event>
 6    1  0.1939311E-004  0.3000000E+03  0.7818608E-02  0.1093470E+00
          1   -1    0    0  502    0  0.00000000000E+00  0.00000000000E+00  0.34542578347E+02  0.34542578347E+02  0.00000000000E+00 0.  1.
         13   -1    0    0    0    0 -0.00000000000E+00 -0.00000000000E+00 -0.10000000000E+04  0.10000000000E+04  0.00000000000E+00 0.  1.
    9000005    2    1    2  501    0 -0.46131394888E-01  0.10276581836E+02 -0.96591826106E+03  0.10242555654E+04  0.34058151148E+03 0.  0.
         13    1    3    3    0    0 -0.13062288085E+03 -0.76634323219E+02 -0.25796621947E+03  0.29913496433E+03  0.00000000000E+00 0.  1.
          3    1    3    3  501    0  0.13057674946E+03  0.86910905055E+02 -0.70795204158E+03  0.72512060107E+03  0.00000000000E+00 0.  1.
         21    1    1    2  502  501  0.46131394888E-01 -0.10276581836E+02  0.46083940267E+00  0.10287012943E+02  0.00000000000E+00 0. -1.
<mgrwt>
<rscale>  1 0.30000000E+03</rscale>
<asrwt>0</asrwt>
<pdfrwt beam="1">  1        1 0.12560964E+00 0.30000000E+03</pdfrwt>
<pdfrwt beam="2">0</pdfrwt>
<totfact> 0.24185208E+01</totfact>
</mgrwt>
</event>
<event>
 6    1  0.1939311E-004  0.3000000E+03  0.7818608E-02  0.1093470E+00
          1   -1    0    0  502    0  0.00000000000E+00  0.00000000000E+00  0.56036615420E+02  0.56036615420E+02  0.00000000000E+00 0.  1.
         13   -1    0    0    0    0 -0.00000000000E+00 -0.00000000000E+00 -0.10000000000E+04  0.10000000000E+04  0.00000000000E+00 0.  1.
    9000005    2    1    2  501    0  0.34878410247E+01 -0.14945703920E+02 -0.96849758300E+03  0.10270976107E+04  0.34162317631E+03 0.  0.
         13    1    3    3    0    0 -0.10478158174E+03 -0.87439160704E+02 -0.81231868022E+03  0.82370287418E+03  0.00000000000E+00 0.  1.
          1    1    3    3  501    0  0.10826942277E+03  0.72493456784E+02 -0.15617890278E+03  0.20339473655E+03  0.00000000000E+00 0.  1.
         21    1    1    2  502  501 -0.34878410247E+01  0.14945703920E+02  0.24534198416E+02  0.28939004693E+02  0.00000000000E+00 0.  1.
<mgrwt>
<rscale>  1 0.30000000E+03</rscale>
<asrwt>0</asrwt>
<pdfrwt beam="1">  1        1 0.20376994E+00 0.30000000E+03</pdfrwt>
<pdfrwt beam="2">0</pdfrwt>
<totfact> 0.98298195E+00</totfact>
</mgrwt>
</event>
<event>
 6    1  0.1939311E-004  0.3000000E+03  0.7818608E-02  0.1093470E+00
          1   -1    0    0  502    0  0.00000000000E+00  0.00000000000E+00  0.32053458345E+02  0.32053458345E+02  0.00000000000E+00 0.  1.
         13   -1    0    0    0    0 -0.00000000000E+00 -0.00000000000E+00 -0.10000000000E+04  0.10000000000E+04  0.00000000000E+00 0.  1.
    9000005    2    1    2  501    0  0.77520390143E+01  0.63300949463E+01 -0.96593878105E+03  0.10218458478E+04  0.33321321052E+03 0.  0.
         13    1    3    3    0    0 -0.15255698169E+03 -0.46192424869E+02 -0.56019026051E+03  0.58242639085E+03  0.00000000000E+00 0.  1.
          3    1    3    3  501    0  0.16030902071E+03  0.52522519815E+02 -0.40574852054E+03  0.43941945693E+03  0.00000000000E+00 0.  1.
         21    1    1    2  502  501 -0.77520390143E+01 -0.63300949463E+01 -0.20077606010E+01  0.10207610570E+02  0.00000000000E+00 0.  1.
<mgrwt>
<rscale>  1 0.30000000E+03</rscale>
<asrwt>0</asrwt>
<pdfrwt beam="1">  1        1 0.11655828E+00 0.30000000E+03</pdfrwt>
<pdfrwt beam="2">0</pdfrwt>
<totfact> 0.27197140E+01</totfact>
</mgrwt>
</event>
<event>
 6    1  0.1939311E-004  0.3000000E+03  0.7818608E-02  0.1093470E+00
          1   -1    0    0  502    0  0.00000000000E+00  0.00000000000E+00  0.29746825680E+02  0.29746825680E+02  0.00000000000E+00 0.  1.
         13   -1    0    0    0    0 -0.00000000000E+00 -0.00000000000E+00 -0.10000000000E+04  0.10000000000E+04  0.00000000000E+00 0.  1.
    9000005    2    1    2  501    0 -0.69331621374E+01 -0.17515133147E+02 -0.95196447259E+03  0.10034918216E+04  0.31686689696E+03 0.  0.
         13    1    3    3    0    0  0.75281576641E+02 -0.75609269435E+02 -0.10207047787E+03  0.14765656050E+03  0.00000000000E+00 0.  1.
          1    1    3    3  501    0 -0.82214738778E+02  0.58094136288E+02 -0.84989399472E+03  0.85583526114E+03  0.00000000000E+00 0.  1.
         21    1    1    2  502  501  0.69331621374E+01  0.17515133147E+02 -0.18288701729E+02  0.26255004043E+02  0.00000000000E+00 0. -1.
<mgrwt>
<rscale>  1 0.30000000E+03</rscale>
<asrwt>0</asrwt>
<pdfrwt beam="1">  1        1 0.10817050E+00 0.30000000E+03</pdfrwt>
<pdfrwt beam="2">0</pdfrwt>
<totfact> 0.30469142E+01</totfact>
</mgrwt>
</event>
<event>
 6    1  0.1939311E-004  0.3000000E+03  0.7818608E-02  0.1093470E+00
          3   -1    0    0  502    0  0.00000000000E+00  0.00000000000E+00  0.27334099368E+02  0.27334099368E+02  0.00000000000E+00 0.  1.
         13   -1    0    0    0    0 -0.00000000000E+00 -0.00000000000E+00 -0.10000000000E+04  0.10000000000E+04  0.00000000000E+00 0.  1.
    9000005    2    1    2  501    0 -0.89453999724E+01 -0.33443414072E+01 -0.95379377133E+03  0.10061831641E+04  0.32029798096E+03 0.  0.
         13    1    3    3    0    0  0.55510954821E+01  0.14897315465E+03 -0.30355885220E+03  0.33818898890E+03  0.00000000000E+00 0.  1.
          1    1    3    3  501    0 -0.14496495455E+02 -0.15231749605E+03 -0.65023491913E+03  0.66799417516E+03  0.00000000000E+00 0.  1.
         21    1    1    2  502  501  0.89453999724E+01  0.33443414072E+01 -0.18872129299E+02  0.21150935308E+02  0.00000000000E+00 0.  1.
<mgrwt>
<rscale>  1 0.30000000E+03</rscale>
<asrwt>0</asrwt>
<pdfrwt beam="1">  1        3 0.99396935E-01 0.30000000E+03</pdfrwt>
<pdfrwt beam="2">0</pdfrwt>
<totfact> 0.39795433E+00</totfact>
</mgrwt>
</event>
<event>
 6    1  0.1939311E-004  0.3000000E+03  0.7818608E-02  0.1093470E+00
          1   -1    0    0  502    0  0.00000000000E+00  0.00000000000E+00  0.32284983601E+02  0.32284983601E+02  0.00000000000E+00 0.  1.
         13   -1    0    0    0    0 -0.00000000000E+00 -0.00000000000E+00 -0.10000000000E+04  0.10000000000E+04  0.00000000000E+00 0.  1.
    9000005    2    1    2  501    0  0.20721512146E+02 -0.12389926222E+02 -0.95016151966E+03  0.10024350827E+04  0.31856912939E+03 0.  0.
         13    1    3    3    0    0 -0.10220888516E+03  0.70959586644E+02 -0.70420968322E+03  0.71511761066E+03  0.00000000000E+00 0.  1.
          3    1    3    3  501    0  0.12293039730E+03 -0.83349512866E+02 -0.24595183644E+03  0.28731747201E+03  0.00000000000E+00 0.  1.
         21    1    1    2  502  501 -0.20721512146E+02  0.12389926222E+02 -0.17553496740E+02  0.29849900924E+02  0.00000000000E+00 0.  1.
<mgrwt>
<rscale>  1 0.30000000E+03</rscale>
<asrwt>0</asrwt>
<pdfrwt beam="1">  1        1 0.11740019E+00 0.30000000E+03</pdfrwt>
<pdfrwt beam="2">0</pdfrwt>
<totfact> 0.26896434E+01</totfact>
</mgrwt>
</event>
<event>
 6    1  0.1939311E-004  0.3000000E+03  0.7818608E-02  0.1093470E+00
          1   -1    0    0  502    0  0.00000000000E+00  0.00000000000E+00  0.34975446984E+02  0.34975446984E+02  0.00000000000E+00 0.  1.
         13   -1    0    0    0    0 -0.00000000000E+00 -0.00000000000E+00 -0.10000000000E+04  0.10000000000E+04  0.00000000000E+00 0.  1.
    9000005    2    1    2  501    0  0.17297216874E+02 -0.23297357169E+02 -0.94243634847E+03  0.99820334414E+03  0.32769144753E+03 0.  0.
         13    1    3    3    0    0 -0.82767850682E+01  0.15047716242E+03 -0.49849330056E+03  0.52077581769E+03  0.00000000000E+00 0.  1.
          3    1    3    3  501    0  0.25574001942E+02 -0.17377451959E+03 -0.44394304790E+03  0.47742752645E+03  0.00000000000E+00 0.  1.
         21    1    1    2  502  501 -0.17297216874E+02  0.23297357169E+02 -0.22588204549E+02  0.36772102842E+02  0.00000000000E+00 0.  1.
<mgrwt>
<rscale>  1 0.30000000E+03</rscale>
<asrwt>0</asrwt>
<pdfrwt beam="1">  1        1 0.12718371E+00 0.30000000E+03</pdfrwt>
<pdfrwt beam="2">0</pdfrwt>
<totfact> 0.23706433E+01</totfact>
</mgrwt>
</event>
<event>
 6    1  0.1939311E-004  0.3000000E+03  0.7818608E-02  0.1093470E+00
          1   -1    0    0  502    0  0.00000000000E+00  0.00000000000E+00  0.49950949613E+02  0.49950949613E+02  0.00000000000E+00 0.  1.
         13   -1    0    0    0    0 -0.00000000000E+00 -0.00000000000E+00 -0.10000000000E+04  0.10000000000E+04  0.00000000000E+00 0.  1.
    9000005    2    1    2  501    0  0.11875370009E+02 -0.20748659332E+02 -0.96635606348E+03  0.10210122221E+04  0.32871018373E+03 0.  0.
         13    1    3    3    0    0  0.21214484030E+02  0.14776021390E+03 -0.32195427638E+03  0.35487700858E+03  0.00000000000E+00 0.  1.
          1    1    3    3  501    0 -0.93391140209E+01 -0.16850887323E+03 -0.64440178710E+03  0.66613521347E+03  0.00000000000E+00 0.  1.
         21    1    1    2  502  501 -0.11875370009E+02  0.20748659332E+02  0.16307013089E+02  0.28938727560E+02  0.00000000000E+00 0. -1.
<mgrwt>
<rscale>  1 0.30000000E+03</rscale>
<asrwt>0</asrwt>
<pdfrwt beam="1">  1        1 0.18164020E+00 0.30000000E+03</pdfrwt>
<pdfrwt beam="2">0</pdfrwt>
<totfact> 0.12543412E+01</totfact>
</mgrwt>
</event>
<event>
 6    1  0.1939311E-004  0.3000000E+03  0.7818608E-02  0.1093470E+00
          3   -1    0    0  502    0  0.00000000000E+00  0.00000000000E+00  0.39609440180E+02  0.39609440180E+02  0.00000000000E+00 0.  1.
         13   -1    0    0    0    0 -0.00000000000E+00 -0.00000000000E+00 -0.10000000000E+04  0.10000000000E+04  0.00000000000E+00 0.  1.
    9000005    2    1    2  501    0 -0.27180101780E+02 -0.18498907765E+02 -0.95132956077E+03  0.10055056394E+04  0.32393315703E+03 0.  0.
         13    1    3    3    0    0 -0.11935963994E+03  0.77138417002E+02 -0.75631681955E+03  0.76955324088E+03  0.00000000000E+00 0.  1.
          1    1    3    3  501    0  0.92179538163E+02 -0.95637324767E+02 -0.19501274122E+03  0.23595239856E+03  0.00000000000E+00 0.  1.
         21    1    1    2  502  501  0.27180101780E+02  0.18498907765E+02 -0.90609990507E+01  0.34103800742E+02  0.00000000000E+00 0.  1.
<mgrwt>
<rscale>  1 0.30000000E+03</rscale>
<asrwt>0</asrwt>
<pdfrwt beam="1">  1        3 0.14403463E+00 0.30000000E+03</pdfrwt>
<pdfrwt beam="2">0</pdfrwt>
<totfact> 0.11891804E+00</totfact>
</mgrwt>
</event>
<event>
 6    1  0.1939311E-004  0.3000000E+03  0.7818608E-02  0.1093470E+00
          1   -1    0    0  502    0  0.00000000000E+00  0.00000000000E+00  0.51247194572E+02  0.51247194572E+02  0.00000000000E+00 0.  1.
         13   -1    0    0    0    0 -0.00000000000E+00 -0.00000000000E+00 -0.10000000000E+04  0.10000000000E+04  0.00000000000E+00 0.  1.
    9000005    2    1    2  501    0 -0.43252293081E+00 -0.15307417884E+02 -0.96884928581E+03  0.10259811572E+04  0.33724455859E+03 0.  0.
         13    1    3    3    0    0 -0.45950562450E+02 -0.16559458043E+03 -0.38947298976E+03  0.42570204252E+03  0.00000000000E+00 0.  1.
          3    1    3    3  501    0  0.45518039519E+02  0.15028716255E+03 -0.57937629605E+03  0.60027911472E+03  0.00000000000E+00 0.  1.
         21    1    1    2  502  501  0.43252293081E+00  0.15307417884E+02  0.20096480381E+02  0.25266037324E+02  0.00000000000E+00 0.  1.
<mgrwt>
<rscale>  1 0.30000000E+03</rscale>
<asrwt>0</asrwt>
<pdfrwt beam="1">  1        1 0.18635383E+00 0.30000000E+03</pdfrwt>
<pdfrwt beam="2">0</pdfrwt>
<totfact> 0.11904587E+01</totfact>
</mgrwt>
</event>
<event>
 6    1  0.1939311E-004  0.3000000E+03  0.7818608E-02  0.1093470E+00
          1   -1    0    0  502    0  0.00000000000E+00  0.00000000000E+00  0.47777014571E+02  0.47777014571E+02  0.00000000000E+00 0.  1.
         13   -1    0    0    0    0 -0.00000000000E+00 -0.00000000000E+00 -0.10000000000E+04  0.10000000000E+04  0.00000000000E+00 0.  1.
    9000005    2    1    2  501    0 -0.10550479568E+02  0.45772269701E+01 -0.96945422655E+03  0.10270603716E+04  0.33893841017E+03 0.  0.
         13    1    3    3    0    0 -0.89405590948E+02 -0.10778715254E+03 -0.19237044415E+03  0.23794498887E+03  0.00000000000E+00 0.  1.
          3    1    3    3  501    0  0.78855111380E+02  0.11236437951E+03 -0.77708378240E+03  0.78911538272E+03  0.00000000000E+00 0.  1.
         21    1    1    2  502  501  0.10550479568E+02 -0.45772269701E+01  0.17231241121E+02  0.20716642981E+02  0.00000000000E+00 0.  1.
<mgrwt>
<rscale>  1 0.30000000E+03</rscale>
<asrwt>0</asrwt>
<pdfrwt beam="1">  1        1 0.17373496E+00 0.30000000E+03</pdfrwt>
<pdfrwt beam="2">0</pdfrwt>
<totfact> 0.13700535E+01</totfact>
</mgrwt>
</event>
<event>
 6    1  0.1939311E-004  0.3000000E+03  0.7818608E-02  0.1093470E+00
          1   -1    0    0  502    0  0.00000000000E+00  0.00000000000E+00  0.29721913284E+02  0.29721913284E+02  0.00000000000E+00 0.  1.
         13   -1    0    0    0    0 -0.00000000000E+00 -0.00000000000E+00 -0.10000000000E+04  0.10000000000E+04  0.00000000000E+00 0.  1.
    9000005    2    1    2  501    0 -0.55823525996E+01  0.11211051392E+02 -0.95970134427E+03  0.10133292986E+04  0.32504268485E+03 0.  0.
         13    1    3    3    0    0 -0.56849120624E+02  0.10926478599E+03 -0.84510545875E+03  0.85403387075E+03  0.00000000000E+00 0.  1.
          3    1    3    3  501    0  0.51266768024E+02 -0.98053734597E+02 -0.11459588551E+03  0.15929542790E+03  0.00000000000E+00 0.  1.
         21    1    1    2  502  501  0.55823525996E+01 -0.11211051392E+02 -0.10576742449E+02  0.16392614639E+02  0.00000000000E+00 0.  1.
<mgrwt>
<rscale>  1 0.30000000E+03</rscale>
<asrwt>0</asrwt>
<pdfrwt beam="1">  1        1 0.10807991E+00 0.30000000E+03</pdfrwt>
<pdfrwt beam="2">0</pdfrwt>
<totfact> 0.30507467E+01</totfact>
</mgrwt>
</event>
<event>
 6    1  0.1939311E-004  0.3000000E+03  0.7818608E-02  0.1093470E+00
          1   -1    0    0  502    0  0.00000000000E+00  0.00000000000E+00  0.33923299150E+02  0.33923299150E+02  0.00000000000E+00 0.  1.
         13   -1    0    0    0    0 -0.00000000000E+00 -0.00000000000E+00 -0.10000000000E+04  0.10000000000E+04  0.00000000000E+00 0.  1.
    9000005    2    1    2  501    0  0.66983821871E+01  0.39759152946E+02 -0.88418610848E+03  0.94264500115E+03  0.32429749490E+03 0.  0.
         13    1    3    3    0    0 -0.13220511926E+03  0.10076791246E+03 -0.35234432881E+03  0.38958810529E+03  0.00000000000E+00 0.  1.
          1    1    3    3  501    0  0.13890350145E+03 -0.61008759518E+02 -0.53184177967E+03  0.55305689586E+03  0.00000000000E+00 0.  1.
         21    1    1    2  502  501 -0.66983821871E+01 -0.39759152946E+02 -0.81890592372E+02  0.91278298001E+02  0.00000000000E+00 0.  1.
<mgrwt>
<rscale>  1 0.30000000E+03</rscale>
<asrwt>0</asrwt>
<pdfrwt beam="1">  1        1 0.12335771E+00 0.30000000E+03</pdfrwt>
<pdfrwt beam="2">0</pdfrwt>
<totfact> 0.24891779E+01</totfact>
</mgrwt>
</event>
<event>
 6    1  0.1939311E-004  0.3000000E+03  0.7818608E-02  0.1093470E+00
          1   -1    0    0  502    0  0.00000000000E+00  0.00000000000E+00  0.26864421862E+02  0.26864421862E+02  0.00000000000E+00 0.  1.
         13   -1    0    0    0    0 -0.00000000000E+00 -0.00000000000E+00 -0.10000000000E+04  0.10000000000E+04  0.00000000000E+00 0.  1.
    9000005    2    1    2  501    0  0.10856838534E+02 -0.11091962823E+02 -0.94606843884E+03  0.99566293773E+03  0.30993272176E+03 0.  0.
         13    1    3    3    0    0  0.13122439855E+02  0.20583708119E+02  0.18464348749E+02  0.30607509575E+02  0.00000000000E+00 0.  1.
          3    1    3    3  501    0 -0.22656013205E+01 -0.31675670942E+02 -0.96453278759E+03  0.96505542816E+03  0.00000000000E+00 0.  1.
         21    1    1    2  502  501 -0.10856838534E+02  0.11091962823E+02 -0.27067139298E+02  0.31201484132E+02  0.00000000000E+00 0.  1.
<mgrwt>
<rscale>  1 0.30000000E+03</rscale>
<asrwt>0</asrwt>
<pdfrwt beam="1">  1        1 0.97689013E-01 0.30000000E+03</pdfrwt>
<pdfrwt beam="2">0</pdfrwt>
<totfact> 0.35412916E+01</totfact>
</mgrwt>
</event>
<event>
 6    1  0.1939311E-004  0.3000000E+03  0.7818608E-02  0.1093470E+00
          1   -1    0    0  502    0  0.00000000000E+00  0.00000000000E+00  0.45054468004E+02  0.45054468004E+02  0.00000000000E+00 0.  1.
         13   -1    0    0    0    0 -0.00000000000E+00 -0.00000000000E+00 -0.10000000000E+04  0.10000000000E+04  0.00000000000E+00 0.  1.
    9000005    2    1    2  501    0  0.12301874293E+02 -0.27416957764E+01 -0.97342706089E+03  0.10226844006E+04  0.31331180523E+03 0.  0.
         13    1    3    3    0    0  0.86921301659E+02  0.84022716733E+02 -0.83209097139E+03  0.84082727970E+03  0.00000000000E+00 0.  1.
          1    1    3    3  501    0 -0.74619427366E+02 -0.86764412510E+02 -0.14133608949E+03  0.18185712087E+03  0.00000000000E+00 0.  1.
         21    1    1    2  502  501 -0.12301874293E+02  0.27416957764E+01  0.18481528891E+02  0.22370067434E+02  0.00000000000E+00 0.  1.
<mgrwt>
<rscale>  1 0.30000000E+03</rscale>
<asrwt>0</asrwt>
<pdfrwt beam="1">  1        1 0.16383477E+00 0.30000000E+03</pdfrwt>
<pdfrwt beam="2">0</pdfrwt>
<totfact> 0.15318570E+01</totfact>
</mgrwt>
</event>
<event>
 6    1  0.1939311E-004  0.3000000E+03  0.7818608E-02  0.1093470E+00
          1   -1    0    0  502    0  0.00000000000E+00  0.00000000000E+00  0.44945170100E+02  0.44945170100E+02  0.00000000000E+00 0.  1.
         13   -1    0    0    0    0 -0.00000000000E+00 -0.00000000000E+00 -0.10000000000E+04  0.10000000000E+04  0.00000000000E+00 0.  1.
    9000005    2    1    2  501    0  0.34094807307E+02  0.39429830552E+02 -0.92849388285E+03  0.98644174002E+03  0.32901253554E+03 0.  0.
         13    1    3    3    0    0 -0.36730342936E+02 -0.27656124014E+02 -0.87299720602E+03  0.87420712706E+03  0.00000000000E+00 0.  1.
          1    1    3    3  501    0  0.70825150243E+02  0.67085954566E+02 -0.55496676832E+02  0.11223461296E+03  0.00000000000E+00 0.  1.
         21    1    1    2  502  501 -0.34094807307E+02 -0.39429830552E+02 -0.26560947047E+02  0.58503430077E+02  0.00000000000E+00 0. -1.
<mgrwt>
<rscale>  1 0.30000000E+03</rscale>
<asrwt>0</asrwt>
<pdfrwt beam="1">  1        1 0.16343733E+00 0.30000000E+03</pdfrwt>
<pdfrwt beam="2">0</pdfrwt>
<totfact> 0.15387920E+01</totfact>
</mgrwt>
</event>
<event>
 6    1  0.1939311E-004  0.3000000E+03  0.7818608E-02  0.1093470E+00
          1   -1    0    0  502    0  0.00000000000E+00  0.00000000000E+00  0.62916299668E+02  0.62916299668E+02  0.00000000000E+00 0.  1.
         13   -1    0    0    0    0 -0.00000000000E+00 -0.00000000000E+00 -0.10000000000E+04  0.10000000000E+04  0.00000000000E+00 0.  1.
    9000005    2    1    2  501    0 -0.84622590146E+02 -0.38590866991E+02 -0.89732121271E+03  0.96176644450E+03  0.33340530471E+03 0.  0.
         13    1    3    3    0    0 -0.26605195946E+02 -0.10230935495E+03 -0.63112865591E+02  0.12311894397E+03  0.00000000000E+00 0.  1.
          1    1    3    3  501    0 -0.58017394200E+02  0.63718487962E+02 -0.83420834712E+03  0.83864750053E+03  0.00000000000E+00 0.  1.
         21    1    1    2  502  501  0.84622590146E+02  0.38590866991E+02 -0.39762487619E+02  0.10114985516E+03  0.00000000000E+00 0.  1.
<mgrwt>
<rscale>  1 0.30000000E+03</rscale>
<asrwt>0</asrwt>
<pdfrwt beam="1">  1        1 0.22878703E+00 0.30000000E+03</pdfrwt>
<pdfrwt beam="2">0</pdfrwt>
<totfact> 0.74978265E+00</totfact>
</mgrwt>
</event>
<event>
 6    1  0.1939311E-004  0.3000000E+03  0.7818608E-02  0.1093470E+00
          1   -1    0    0  502    0  0.00000000000E+00  0.00000000000E+00  0.27874252329E+02  0.27874252329E+02  0.00000000000E+00 0.  1.
         13   -1    0    0    0    0 -0.00000000000E+00 -0.00000000000E+00 -0.10000000000E+04  0.10000000000E+04  0.00000000000E+00 0.  1.
    9000005    2    1    2  501    0 -0.31974884088E+01  0.10868001219E+02 -0.91887823626E+03  0.97343497557E+03  0.32110761624E+03 0.  0.
         13    1    3    3    0    0  0.14410361545E+03 -0.33141193358E+02 -0.28375560422E+03  0.31997098870E+03  0.00000000000E+00 0.  1.
          3    1    3    3  501    0 -0.14730110386E+03  0.44009194577E+02 -0.63512263204E+03  0.65346398687E+03  0.00000000000E+00 0.  1.
         21    1    1    2  502  501  0.31974884088E+01 -0.10868001219E+02 -0.53247511412E+02  0.54439276761E+02  0.00000000000E+00 0. -1.
<mgrwt>
<rscale>  1 0.30000000E+03</rscale>
<asrwt>0</asrwt>
<pdfrwt beam="1">  1        1 0.10136113E+00 0.30000000E+03</pdfrwt>
<pdfrwt beam="2">0</pdfrwt>
<totfact> 0.33555635E+01</totfact>
</mgrwt>
</event>
<event>
 6    1  0.1939311E-004  0.3000000E+03  0.7818608E-02  0.1093470E+00
          1   -1    0    0  502    0  0.00000000000E+00  0.00000000000E+00  0.29815306941E+02  0.29815306941E+02  0.00000000000E+00 0.  1.
         13   -1    0    0    0    0 -0.00000000000E+00 -0.00000000000E+00 -0.10000000000E+04  0.10000000000E+04  0.00000000000E+00 0.  1.
    9000005    2    1    2  501    0 -0.39753429956E+01 -0.97885437685E+01 -0.96760150306E+03  0.10189391030E+04  0.31917488625E+03 0.  0.
         13    1    3    3    0    0 -0.14127872836E+03  0.56670042930E+02 -0.63555589439E+03  0.65353077032E+03  0.00000000000E+00 0.  1.
          3    1    3    3  501    0  0.13730338536E+03 -0.66458586699E+02 -0.33204560867E+03  0.36540833271E+03  0.00000000000E+00 0.  1.
         21    1    1    2  502  501  0.39753429956E+01  0.97885437685E+01 -0.25831899987E+01  0.10876203915E+02  0.00000000000E+00 0. -1.
<mgrwt>
<rscale>  1 0.30000000E+03</rscale>
<asrwt>0</asrwt>
<pdfrwt beam="1">  1        1 0.10841953E+00 0.30000000E+03</pdfrwt>
<pdfrwt beam="2">0</pdfrwt>
<totfact> 0.30364146E+01</totfact>
</mgrwt>
</event>
<event>
 6    1  0.1939311E-004  0.3000000E+03  0.7818608E-02  0.1093470E+00
          1   -1    0    0  502    0  0.00000000000E+00  0.00000000000E+00  0.32138306728E+02  0.32138306728E+02  0.00000000000E+00 0.  1.
         13   -1    0    0    0    0 -0.00000000000E+00 -0.00000000000E+00 -0.10000000000E+04  0.10000000000E+04  0.00000000000E+00 0.  1.
    9000005    2    1    2  501    0 -0.84299343916E+01 -0.54132999532E+01 -0.96868003756E+03  0.10220865757E+04  0.32591346299E+03 0.  0.
         13    1    3    3    0    0 -0.25582898270E+02 -0.13352943585E+03 -0.78965984364E+03  0.80127851810E+03  0.00000000000E+00 0.  1.
          3    1    3    3  501    0  0.17152963879E+02  0.12811613590E+03 -0.17902019392E+03  0.22080805755E+03  0.00000000000E+00 0.  1.
         21    1    1    2  502  501  0.84299343916E+01  0.54132999532E+01  0.81834428754E+00  0.10051731075E+02  0.00000000000E+00 0. -1.
<mgrwt>
<rscale>  1 0.30000000E+03</rscale>
<asrwt>0</asrwt>
<pdfrwt beam="1">  1        1 0.11686682E+00 0.30000000E+03</pdfrwt>
<pdfrwt beam="2">0</pdfrwt>
<totfact> 0.27086404E+01</totfact>
</mgrwt>
</event>
<event>
 6    1  0.1939311E-004  0.3000000E+03  0.7818608E-02  0.1093470E+00
          3   -1    0    0  502    0  0.00000000000E+00  0.00000000000E+00  0.25680449423E+02  0.25680449423E+02  0.00000000000E+00 0.  1.
         13   -1    0    0    0    0 -0.00000000000E+00 -0.00000000000E+00 -0.10000000000E+04  0.10000000000E+04  0.00000000000E+00 0.  1.
    9000005    2    1    2  501    0  0.35063204873E+01 -0.14124061765E+02 -0.97422657053E+03  0.10111273724E+04  0.27027646805E+03 0.  0.
         13    1    3    3    0    0  0.11054186787E+03  0.11147690008E+02 -0.78043483590E+03  0.78830343690E+03  0.00000000000E+00 0.  1.
          1    1    3    3  501    0 -0.10703554738E+03 -0.25271751773E+02 -0.19379173464E+03  0.22282393555E+03  0.00000000000E+00 0.  1.
         21    1    1    2  502  501 -0.35063204873E+01  0.14124061765E+02 -0.92980044470E-01  0.14553076973E+02  0.00000000000E+00 0.  1.
<mgrwt>
<rscale>  1 0.30000000E+03</rscale>
<asrwt>0</asrwt>
<pdfrwt beam="1">  1        3 0.93383649E-01 0.30000000E+03</pdfrwt>
<pdfrwt beam="2">0</pdfrwt>
<totfact> 0.46626272E+00</totfact>
</mgrwt>
</event>
<event>
 6    1  0.1939311E-004  0.3000000E+03  0.7818608E-02  0.1093470E+00
          1   -1    0    0  502    0  0.00000000000E+00  0.00000000000E+00  0.29363863660E+02  0.29363863660E+02  0.00000000000E+00 0.  1.
         13   -1    0    0    0    0 -0.00000000000E+00 -0.00000000000E+00 -0.10000000000E+04  0.10000000000E+04  0.00000000000E+00 0.  1.
    9000005    2    1    2  501    0 -0.13698019018E+02  0.34694005814E+01 -0.94820775077E+03  0.10028552812E+04  0.32622247611E+03 0.  0.
         13    1    3    3    0    0  0.10399138808E+00  0.97531806191E+02 -0.88111179648E+03  0.88649335132E+03  0.00000000000E+00 0.  1.
          1    1    3    3  501    0 -0.13802010406E+02 -0.94062405610E+02 -0.67095954282E+02  0.11636192986E+03  0.00000000000E+00 0.  1.
         21    1    1    2  502  501  0.13698019018E+02 -0.34694005814E+01 -0.22428385574E+02  0.26508582475E+02  0.00000000000E+00 0. -1.
<mgrwt>
<rscale>  1 0.30000000E+03</rscale>
<asrwt>0</asrwt>
<pdfrwt beam="1">  1        1 0.10677791E+00 0.30000000E+03</pdfrwt>
<pdfrwt beam="2">0</pdfrwt>
<totfact> 0.31065997E+01</totfact>
</mgrwt>
</event>
<event>
 6    1  0.1939311E-004  0.3000000E+03  0.7818608E-02  0.1093470E+00
          1   -1    0    0  502    0  0.00000000000E+00  0.00000000000E+00  0.48450031926E+02  0.48450031926E+02  0.00000000000E+00 0.  1.
         13   -1    0    0    0    0 -0.00000000000E+00 -0.00000000000E+00 -0.10000000000E+04  0.10000000000E+04  0.00000000000E+00 0.  1.
    9000005    2    1    2  501    0 -0.85300094041E-01  0.16289324141E+02 -0.97369211928E+03  0.10209614121E+04  0.30662764485E+03 0.  0.
         13    1    3    3    0    0 -0.12444595035E+03 -0.87096448368E+01 -0.77674720069E+03  0.78670125603E+03  0.00000000000E+00 0.  1.
          3    1    3    3  501    0  0.12436065026E+03  0.24998968978E+02 -0.19694491860E+03  0.23426015611E+03  0.00000000000E+00 0.  1.
         21    1    1    2  502  501  0.85300094041E-01 -0.16289324141E+02  0.22142151209E+02  0.27488619777E+02  0.00000000000E+00 0.  1.
<mgrwt>
<rscale>  1 0.30000000E+03</rscale>
<asrwt>0</asrwt>
<pdfrwt beam="1">  1        1 0.17618231E+00 0.30000000E+03</pdfrwt>
<pdfrwt beam="2">0</pdfrwt>
<totfact> 0.13330398E+01</totfact>
</mgrwt>
</event>
<event>
 6    1  0.1939311E-004  0.3000000E+03  0.7818608E-02  0.1093470E+00
          1   -1    0    0  502    0  0.00000000000E+00  0.00000000000E+00  0.29324952823E+02  0.29324952823E+02  0.00000000000E+00 0.  1.
         13   -1    0    0    0    0 -0.00000000000E+00 -0.00000000000E+00 -0.10000000000E+04  0.10000000000E+04  0.00000000000E+00 0.  1.
    9000005    2    1    2  501    0  0.38310779535E+01  0.96300214975E+01 -0.96628084573E+03  0.10180678005E+04  0.32039968647E+03 0.  0.
         13    1    3    3    0    0  0.16090279003E+03  0.14145183773E+02 -0.54515293169E+03  0.56857850205E+03  0.00000000000E+00 0.  1.
          3    1    3    3  501    0 -0.15707171208E+03 -0.45151622751E+01 -0.42112791405E+03  0.44948929844E+03  0.00000000000E+00 0.  1.
         21    1    1    2  502  501 -0.38310779535E+01 -0.96300214975E+01 -0.43942014451E+01  0.11257152334E+02  0.00000000000E+00 0. -1.
<mgrwt>
<rscale>  1 0.30000000E+03</rscale>
<asrwt>0</asrwt>
<pdfrwt beam="1">  1        1 0.10663642E+00 0.30000000E+03</pdfrwt>
<pdfrwt beam="2">0</pdfrwt>
<totfact> 0.31127577E+01</totfact>
</mgrwt>
</event>
<event>
 6    1  0.1939311E-004  0.3000000E+03  0.7818608E-02  0.1093470E+00
          1   -1    0    0  502    0  0.00000000000E+00  0.00000000000E+00  0.51173589428E+02  0.51173589428E+02  0.00000000000E+00 0.  1.
         13   -1    0    0    0    0 -0.00000000000E+00 -0.00000000000E+00 -0.10000000000E+04  0.10000000000E+04  0.00000000000E+00 0.  1.
    9000005    2    1    2  501    0 -0.39117931627E+02 -0.55560557498E+02 -0.92338662230E+03  0.97861760448E+03  0.31691067106E+03 0.  0.
         13    1    3    3    0    0 -0.67528900594E+02  0.84485635660E+01 -0.90316504663E+03  0.90572547281E+03  0.00000000000E+00 0.  1.
          3    1    3    3  501    0  0.28410968967E+02 -0.64009121064E+02 -0.20221575671E+02  0.72892131672E+02  0.00000000000E+00 0.  1.
         21    1    1    2  502  501  0.39117931627E+02  0.55560557498E+02 -0.25439788272E+02  0.72555984947E+02  0.00000000000E+00 0.  1.
<mgrwt>
<rscale>  1 0.30000000E+03</rscale>
<asrwt>0</asrwt>
<pdfrwt beam="1">  1        1 0.18608617E+00 0.30000000E+03</pdfrwt>
<pdfrwt beam="2">0</pdfrwt>
<totfact> 0.11939914E+01</totfact>
</mgrwt>
</event>
<event>
 6    1  0.1939311E-004  0.3000000E+03  0.7818608E-02  0.1093470E+00
          1   -1    0    0  502    0  0.00000000000E+00  0.00000000000E+00  0.45270656654E+02  0.45270656654E+02  0.00000000000E+00 0.  1.
         13   -1    0    0    0    0 -0.00000000000E+00 -0.00000000000E+00 -0.10000000000E+04  0.10000000000E+04  0.00000000000E+00 0.  1.
    9000005    2    1    2  501    0 -0.72326094761E+01 -0.13542097967E+02 -0.97285047707E+03  0.10215204031E+04  0.31117548765E+03 0.  0.
         13    1    3    3    0    0  0.25850495492E+02 -0.45338751425E+02 -0.97421715291E+03  0.97561412020E+03  0.00000000000E+00 0.  1.
          3    1    3    3  501    0 -0.33083104968E+02  0.31796653458E+02  0.13666758387E+01  0.45906282885E+02  0.00000000000E+00 0.  1.
         21    1    1    2  502  501  0.72326094761E+01  0.13542097967E+02  0.18121133728E+02  0.23750253573E+02  0.00000000000E+00 0.  1.
<mgrwt>
<rscale>  1 0.30000000E+03</rscale>
<asrwt>0</asrwt>
<pdfrwt beam="1">  1        1 0.16462092E+00 0.30000000E+03</pdfrwt>
<pdfrwt beam="2">0</pdfrwt>
<totfact> 0.15182451E+01</totfact>
</mgrwt>
</event>
<event>
 6    1  0.1939311E-004  0.3000000E+03  0.7818608E-02  0.1093470E+00
          1   -1    0    0  502    0  0.00000000000E+00  0.00000000000E+00  0.30206908124E+02  0.30206908124E+02  0.00000000000E+00 0.  1.
         13   -1    0    0    0    0 -0.00000000000E+00 -0.00000000000E+00 -0.10000000000E+04  0.10000000000E+04  0.00000000000E+00 0.  1.
    9000005    2    1    2  501    0 -0.80603315322E+01 -0.55885172902E+01 -0.94865612488E+03  0.10069051519E+04  0.33736232919E+03 0.  0.
         13    1    3    3    0    0  0.14465592515E+03  0.66545636644E+02 -0.34329180559E+03  0.37842161965E+03  0.00000000000E+00 0.  1.
          3    1    3    3  501    0 -0.15271625668E+03 -0.72134153934E+02 -0.60536431929E+03  0.62848353224E+03  0.00000000000E+00 0.  1.
         21    1    1    2  502  501  0.80603315322E+01  0.55885172902E+01 -0.21136966993E+02  0.23301756234E+02  0.00000000000E+00 0.  1.
<mgrwt>
<rscale>  1 0.30000000E+03</rscale>
<asrwt>0</asrwt>
<pdfrwt beam="1">  1        1 0.10984353E+00 0.30000000E+03</pdfrwt>
<pdfrwt beam="2">0</pdfrwt>
<totfact> 0.29773537E+01</totfact>
</mgrwt>
</event>
<event>
 6    1  0.1939311E-004  0.3000000E+03  0.7818608E-02  0.1093470E+00
          1   -1    0    0  502    0  0.00000000000E+00  0.00000000000E+00  0.51962812324E+02  0.51962812324E+02  0.00000000000E+00 0.  1.
         13   -1    0    0    0    0 -0.00000000000E+00 -0.00000000000E+00 -0.10000000000E+04  0.10000000000E+04  0.00000000000E+00 0.  1.
    9000005    2    1    2  501    0  0.46240235315E+02 -0.87872716758E+02 -0.83753321852E+03  0.90340002791E+03  0.32374364024E+03 0.  0.
         13    1    3    3    0    0 -0.10646800803E+03 -0.93747657326E+02 -0.62939252902E+03  0.64518138192E+03  0.00000000000E+00 0.  1.
          1    1    3    3  501    0  0.15270824335E+03  0.58749405682E+01 -0.20814068950E+03  0.25821864600E+03  0.00000000000E+00 0.  1.
         21    1    1    2  502  501 -0.46240235315E+02  0.87872716758E+02 -0.11050396916E+03  0.14856278441E+03  0.00000000000E+00 0.  1.
<mgrwt>
<rscale>  1 0.30000000E+03</rscale>
<asrwt>0</asrwt>
<pdfrwt beam="1">  1        1 0.18895608E+00 0.30000000E+03</pdfrwt>
<pdfrwt beam="2">0</pdfrwt>
<totfact> 0.11566701E+01</totfact>
</mgrwt>
</event>
<event>
 6    1  0.1939311E-004  0.3000000E+03  0.7818608E-02  0.1093470E+00
          1   -1    0    0  502    0  0.00000000000E+00  0.00000000000E+00  0.47640943803E+02  0.47640943803E+02  0.00000000000E+00 0.  1.
         13   -1    0    0    0    0 -0.00000000000E+00 -0.00000000000E+00 -0.10000000000E+04  0.10000000000E+04  0.00000000000E+00 0.  1.
    9000005    2    1    2  501    0  0.57940257039E+02 -0.21937990006E+01 -0.93486578441E+03  0.98707774790E+03  0.31142665172E+03 0.  0.
         13    1    3    3    0    0  0.15522822918E+02 -0.13899790267E+03 -0.68445575801E+03  0.69859935561E+03  0.00000000000E+00 0.  1.
          1    1    3    3  501    0  0.42417434121E+02  0.13680410367E+03 -0.25041002640E+03  0.28847839230E+03  0.00000000000E+00 0.  1.
         21    1    1    2  502  501 -0.57940257039E+02  0.21937990006E+01 -0.17493271784E+02  0.60563195899E+02  0.00000000000E+00 0.  1.
<mgrwt>
<rscale>  1 0.30000000E+03</rscale>
<asrwt>0</asrwt>
<pdfrwt beam="1">  1        1 0.17324016E+00 0.30000000E+03</pdfrwt>
<pdfrwt beam="2">0</pdfrwt>
<totfact> 0.13776704E+01</totfact>
</mgrwt>
</event>
<event>
 6    1  0.1939311E-004  0.3000000E+03  0.7818608E-02  0.1093470E+00
          1   -1    0    0  502    0  0.00000000000E+00  0.00000000000E+00  0.29299968034E+02  0.29299968034E+02  0.00000000000E+00 0.  1.
         13   -1    0    0    0    0 -0.00000000000E+00 -0.00000000000E+00 -0.10000000000E+04  0.10000000000E+04  0.00000000000E+00 0.  1.
    9000005    2    1    2  501    0  0.21631544601E+02 -0.46543559363E+01 -0.87925279962E+03  0.93521392734E+03  0.31788365401E+03 0.  0.
         13    1    3    3    0    0 -0.46366638361E+02  0.75234377476E+02 -0.79705169081E+03  0.80193607883E+03  0.00000000000E+00 0.  1.
          3    1    3    3  501    0  0.67998182962E+02 -0.79888733412E+02 -0.82201108815E+02  0.13327784851E+03  0.00000000000E+00 0.  1.
         21    1    1    2  502  501 -0.21631544601E+02  0.46543559363E+01 -0.91447232342E+02  0.94086040697E+02  0.00000000000E+00 0. -1.
<mgrwt>
<rscale>  1 0.30000000E+03</rscale>
<asrwt>0</asrwt>
<pdfrwt beam="1">  1        1 0.10654556E+00 0.30000000E+03</pdfrwt>
<pdfrwt beam="2">0</pdfrwt>
<totfact> 0.31167211E+01</totfact>
</mgrwt>
</event>
<event>
 6    1  0.1939311E-004  0.3000000E+03  0.7818608E-02  0.1093470E+00
          1   -1    0    0  502    0  0.00000000000E+00  0.00000000000E+00  0.34752827854E+02  0.34752827854E+02  0.00000000000E+00 0.  1.
         13   -1    0    0    0    0 -0.00000000000E+00 -0.00000000000E+00 -0.10000000000E+04  0.10000000000E+04  0.00000000000E+00 0.  1.
    9000005    2    1    2  501    0 -0.13319054793E+02  0.22670213330E+02 -0.91820165825E+03  0.98085833675E+03  0.34394397186E+03 0.  0.
         13    1    3    3    0    0  0.12293372105E+03  0.16408328487E+02 -0.12526489127E+03  0.17627599383E+03  0.00000000000E+00 0.  1.
          1    1    3    3  501    0 -0.13625277584E+03  0.62618848437E+01 -0.79293676698E+03  0.80458234293E+03  0.00000000000E+00 0.  1.
         21    1    1    2  502  501  0.13319054793E+02 -0.22670213330E+02 -0.47045513897E+02  0.53894491099E+02  0.00000000000E+00 0.  1.
<mgrwt>
<rscale>  1 0.30000000E+03</rscale>
<asrwt>0</asrwt>
<pdfrwt beam="1">  1        1 0.12637419E+00 0.30000000E+03</pdfrwt>
<pdfrwt beam="2">0</pdfrwt>
<totfact> 0.23951135E+01</totfact>
</mgrwt>
</event>
<event>
 6    1  0.1939311E-004  0.3000000E+03  0.7818608E-02  0.1093470E+00
          1   -1    0    0  502    0  0.00000000000E+00  0.00000000000E+00  0.42714273547E+02  0.42714273547E+02  0.00000000000E+00 0.  1.
         13   -1    0    0    0    0 -0.00000000000E+00 -0.00000000000E+00 -0.10000000000E+04  0.10000000000E+04  0.00000000000E+00 0.  1.
    9000005    2    1    2  501    0  0.21220299524E+02  0.13013160094E+02 -0.96663603169E+03  0.10161234545E+04  0.31225312435E+03 0.  0.
         13    1    3    3    0    0  0.48246503161E+02  0.87444294011E+02 -0.85598463696E+02  0.13153450730E+03  0.00000000000E+00 0.  1.
          1    1    3    3  501    0 -0.27026203636E+02 -0.74431133917E+02 -0.88103756799E+03  0.88458894724E+03  0.00000000000E+00 0.  1.
         21    1    1    2  502  501 -0.21220299524E+02 -0.13013160094E+02  0.93503052320E+01  0.26590819007E+02  0.00000000000E+00 0.  1.
<mgrwt>
<rscale>  1 0.30000000E+03</rscale>
<asrwt>0</asrwt>
<pdfrwt beam="1">  1        1 0.15532496E+00 0.30000000E+03</pdfrwt>
<pdfrwt beam="2">0</pdfrwt>
<totfact> 0.16886415E+01</totfact>
</mgrwt>
</event>
<event>
 6    1  0.1939311E-004  0.3000000E+03  0.7818608E-02  0.1093470E+00
          1   -1    0    0  502    0  0.00000000000E+00  0.00000000000E+00  0.27073296224E+02  0.27073296224E+02  0.00000000000E+00 0.  1.
         13   -1    0    0    0    0 -0.00000000000E+00 -0.00000000000E+00 -0.10000000000E+04  0.10000000000E+04  0.00000000000E+00 0.  1.
    9000005    2    1    2  501    0  0.97100982037E+01  0.36201205592E+01 -0.95791599070E+03  0.10088328799E+04  0.31628048167E+03 0.  0.
         13    1    3    3    0    0 -0.57862181557E+02  0.64936407714E+02 -0.89209447169E+03  0.89632433612E+03  0.00000000000E+00 0.  1.
          3    1    3    3  501    0  0.67572279761E+02 -0.61316287155E+02 -0.65821519009E+02  0.11250854380E+03  0.00000000000E+00 0.  1.
         21    1    1    2  502  501 -0.97100982037E+01 -0.36201205592E+01 -0.15010713081E+02  0.18240416311E+02  0.00000000000E+00 0. -1.
<mgrwt>
<rscale>  1 0.30000000E+03</rscale>
<asrwt>0</asrwt>
<pdfrwt beam="1">  1        1 0.98448558E-01 0.30000000E+03</pdfrwt>
<pdfrwt beam="2">0</pdfrwt>
<totfact> 0.35016522E+01</totfact>
</mgrwt>
</event>
<event>
 6    1  0.1939311E-004  0.3000000E+03  0.7818608E-02  0.1093470E+00
          1   -1    0    0  502    0  0.00000000000E+00  0.00000000000E+00  0.28437459922E+02  0.28437459922E+02  0.00000000000E+00 0.  1.
         13   -1    0    0    0    0 -0.00000000000E+00 -0.00000000000E+00 -0.10000000000E+04  0.10000000000E+04  0.00000000000E+00 0.  1.
    9000005    2    1    2  501    0 -0.93854311264E+01 -0.84389813228E+00 -0.96279818042E+03  0.10155684086E+04  0.32297067647E+03 0.  0.
         13    1    3    3    0    0  0.15259519343E+03 -0.12606205628E+02 -0.57722055455E+03  0.59718320311E+03  0.00000000000E+00 0.  1.
          1    1    3    3  501    0 -0.16198062456E+03  0.11762307495E+02 -0.38557762587E+03  0.41838520550E+03  0.00000000000E+00 0.  1.
         21    1    1    2  502  501  0.93854311264E+01  0.84389813228E+00 -0.87643596564E+01  0.12869051312E+02  0.00000000000E+00 0.  1.
<mgrwt>
<rscale>  1 0.30000000E+03</rscale>
<asrwt>0</asrwt>
<pdfrwt beam="1">  1        1 0.10340916E+00 0.30000000E+03</pdfrwt>
<pdfrwt beam="2">0</pdfrwt>
<totfact> 0.32581345E+01</totfact>
</mgrwt>
</event>
<event>
 6    1  0.1939311E-004  0.3000000E+03  0.7818608E-02  0.1093470E+00
          1   -1    0    0  502    0  0.00000000000E+00  0.00000000000E+00  0.41121997255E+02  0.41121997255E+02  0.00000000000E+00 0.  1.
         13   -1    0    0    0    0 -0.00000000000E+00 -0.00000000000E+00 -0.10000000000E+04  0.10000000000E+04  0.00000000000E+00 0.  1.
    9000005    2    1    2  501    0  0.41205933574E+02 -0.23302170814E+02 -0.92104750068E+03  0.98052441469E+03  0.33295451516E+03 0.  0.
         13    1    3    3    0    0  0.13076673798E+03 -0.12742269791E+03 -0.36969272224E+03  0.41232171005E+03  0.00000000000E+00 0.  1.
          1    1    3    3  501    0 -0.89560804401E+02  0.10412052710E+03 -0.55135477844E+03  0.56820270464E+03  0.00000000000E+00 0.  1.
         21    1    1    2  502  501 -0.41205933574E+02  0.23302170814E+02 -0.37830502068E+02  0.60597582568E+02  0.00000000000E+00 0. -1.
<mgrwt>
<rscale>  1 0.30000000E+03</rscale>
<asrwt>0</asrwt>
<pdfrwt beam="1">  1        1 0.14953485E+00 0.30000000E+03</pdfrwt>
<pdfrwt beam="2">0</pdfrwt>
<totfact> 0.18063124E+01</totfact>
</mgrwt>
</event>
<event>
 6    1  0.1939311E-004  0.3000000E+03  0.7818608E-02  0.1093470E+00
          1   -1    0    0  502    0  0.00000000000E+00  0.00000000000E+00  0.34295423214E+02  0.34295423214E+02  0.00000000000E+00 0.  1.
         13   -1    0    0    0    0 -0.00000000000E+00 -0.00000000000E+00 -0.10000000000E+04  0.10000000000E+04  0.00000000000E+00 0.  1.
    9000005    2    1    2  501    0  0.30303683889E+02 -0.24841719555E+02 -0.93425202500E+03  0.98404915667E+03  0.30657865588E+03 0.  0.
         13    1    3    3    0    0 -0.16778127053E+02 -0.15077938678E+03 -0.67689660912E+03  0.69368937462E+03  0.00000000000E+00 0.  1.
          3    1    3    3  501    0  0.47081810942E+02  0.12593766723E+03 -0.25735541588E+03  0.29035978205E+03  0.00000000000E+00 0.  1.
         21    1    1    2  502  501 -0.30303683889E+02  0.24841719555E+02 -0.31452551788E+02  0.50246266545E+02  0.00000000000E+00 0.  1.
<mgrwt>
<rscale>  1 0.30000000E+03</rscale>
<asrwt>0</asrwt>
<pdfrwt beam="1">  1        1 0.12471089E+00 0.30000000E+03</pdfrwt>
<pdfrwt beam="2">0</pdfrwt>
<totfact> 0.24464100E+01</totfact>
</mgrwt>
</event>
<event>
 6    1  0.1939311E-004  0.3000000E+03  0.7818608E-02  0.1093470E+00
          1   -1    0    0  502    0  0.00000000000E+00  0.00000000000E+00  0.55820842917E+02  0.55820842917E+02  0.00000000000E+00 0.  1.
         13   -1    0    0    0    0 -0.00000000000E+00 -0.00000000000E+00 -0.10000000000E+04  0.10000000000E+04  0.00000000000E+00 0.  1.
    9000005    2    1    2  501    0 -0.95073668051E+02 -0.21856122113E+02 -0.87650909683E+03  0.93709456324E+03  0.31679856566E+03 0.  0.
         13    1    3    3    0    0 -0.18627885184E+03 -0.55303537399E+02 -0.76458926794E+03  0.78889482223E+03  0.00000000000E+00 0.  1.
          3    1    3    3  501    0  0.91205183784E+02  0.33447415286E+02 -0.11191982889E+03  0.14819974102E+03  0.00000000000E+00 0.  1.
         21    1    1    2  502  501  0.95073668051E+02  0.21856122113E+02 -0.67670060256E+02  0.11872627968E+03  0.00000000000E+00 0.  1.
<mgrwt>
<rscale>  1 0.30000000E+03</rscale>
<asrwt>0</asrwt>
<pdfrwt beam="1">  1        1 0.20298531E+00 0.30000000E+03</pdfrwt>
<pdfrwt beam="2">0</pdfrwt>
<totfact> 0.99144097E+00</totfact>
</mgrwt>
</event>
<event>
 6    1  0.1939311E-004  0.3000000E+03  0.7818608E-02  0.1093470E+00
          1   -1    0    0  502    0  0.00000000000E+00  0.00000000000E+00  0.29127118309E+02  0.29127118309E+02  0.00000000000E+00 0.  1.
         13   -1    0    0    0    0 -0.00000000000E+00 -0.00000000000E+00 -0.10000000000E+04  0.10000000000E+04  0.00000000000E+00 0.  1.
    9000005    2    1    2  501    0 -0.40539557423E+01 -0.12474016645E+02 -0.95740603809E+03  0.10103284076E+04  0.32243624757E+03 0.  0.
         13    1    3    3    0    0 -0.42332140233E+02 -0.71506034559E+02 -0.93173800897E+03  0.93543617657E+03  0.00000000000E+00 0.  1.
          3    1    3    3  501    0  0.38278184491E+02  0.59032017914E+02 -0.25668029115E+02  0.74892231010E+02  0.00000000000E+00 0.  1.
         21    1    1    2  502  501  0.40539557423E+01  0.12474016645E+02 -0.13466843604E+02  0.18798710729E+02  0.00000000000E+00 0. -1.
<mgrwt>
<rscale>  1 0.30000000E+03</rscale>
<asrwt>0</asrwt>
<pdfrwt beam="1">  1        1 0.10591702E+00 0.30000000E+03</pdfrwt>
<pdfrwt beam="2">0</pdfrwt>
<totfact> 0.31443403E+01</totfact>
</mgrwt>
</event>
<event>
 6    1  0.1939311E-004  0.3000000E+03  0.7818608E-02  0.1093470E+00
          1   -1    0    0  502    0  0.00000000000E+00  0.00000000000E+00  0.44920446734E+02  0.44920446734E+02  0.00000000000E+00 0.  1.
         13   -1    0    0    0    0 -0.00000000000E+00 -0.00000000000E+00 -0.10000000000E+04  0.10000000000E+04  0.00000000000E+00 0.  1.
    9000005    2    1    2  501    0  0.24487914220E+02  0.10260823862E+02 -0.96434839843E+03  0.10167983213E+04  0.32125698463E+03 0.  0.
         13    1    3    3    0    0  0.43976750923E+02  0.11620966062E+03 -0.85250305051E+03  0.86151035454E+03  0.00000000000E+00 0.  1.
          3    1    3    3  501    0 -0.19488836703E+02 -0.10594883676E+03 -0.11184534791E+03  0.15528796675E+03  0.00000000000E+00 0.  1.
         21    1    1    2  502  501 -0.24487914220E+02 -0.10260823862E+02  0.92688451598E+01  0.28122125449E+02  0.00000000000E+00 0.  1.
<mgrwt>
<rscale>  1 0.30000000E+03</rscale>
<asrwt>0</asrwt>
<pdfrwt beam="1">  1        1 0.16334742E+00 0.30000000E+03</pdfrwt>
<pdfrwt beam="2">0</pdfrwt>
<totfact> 0.15403657E+01</totfact>
</mgrwt>
</event>
<event>
 6    1  0.1939311E-004  0.3000000E+03  0.7818608E-02  0.1093470E+00
          1   -1    0    0  502    0  0.00000000000E+00  0.00000000000E+00  0.34546578772E+02  0.34546578772E+02  0.00000000000E+00 0.  1.
         13   -1    0    0    0    0 -0.00000000000E+00 -0.00000000000E+00 -0.10000000000E+04  0.10000000000E+04  0.00000000000E+00 0.  1.
    9000005    2    1    2  501    0  0.41016080030E+02  0.22979962618E+00 -0.86928995720E+03  0.93000097416E+03  0.32795489115E+03 0.  0.
         13    1    3    3    0    0  0.33012749250E+02  0.18060603716E+02 -0.89606312867E+03  0.89685291859E+03  0.00000000000E+00 0.  1.
          1    1    3    3  501    0  0.80033307801E+01 -0.17830804090E+02  0.26773171468E+02  0.33148055577E+02  0.00000000000E+00 0.  1.
         21    1    1    2  502  501 -0.41016080030E+02 -0.22979962618E+00 -0.96163464027E+02  0.10454560461E+03  0.00000000000E+00 0.  1.
<mgrwt>
<rscale>  1 0.30000000E+03</rscale>
<asrwt>0</asrwt>
<pdfrwt beam="1">  1        1 0.12562419E+00 0.30000000E+03</pdfrwt>
<pdfrwt beam="2">0</pdfrwt>
<totfact> 0.24180728E+01</totfact>
</mgrwt>
</event>
<event>
 6    1  0.1939311E-004  0.3000000E+03  0.7818608E-02  0.1093470E+00
          1   -1    0    0  502    0  0.00000000000E+00  0.00000000000E+00  0.58006078943E+02  0.58006078943E+02  0.00000000000E+00 0.  1.
         13   -1    0    0    0    0 -0.00000000000E+00 -0.00000000000E+00 -0.10000000000E+04  0.10000000000E+04  0.00000000000E+00 0.  1.
    9000005    2    1    2  501    0 -0.35443263824E+02 -0.17874002452E+02 -0.95519535372E+03  0.10161732839E+04  0.34443326536E+03 0.  0.
         13    1    3    3    0    0 -0.85751581859E+02 -0.19456054093E+02 -0.35061050668E+02  0.94663346160E+02  0.00000000000E+00 0.  1.
          3    1    3    3  501    0  0.50308318036E+02  0.15820516412E+01 -0.92013430306E+03  0.92150993777E+03  0.00000000000E+00 0.  1.
         21    1    1    2  502  501  0.35443263824E+02  0.17874002452E+02  0.13201432665E+02  0.41832795012E+02  0.00000000000E+00 0.  1.
<mgrwt>
<rscale>  1 0.30000000E+03</rscale>
<asrwt>0</asrwt>
<pdfrwt beam="1">  1        1 0.21093164E+00 0.30000000E+03</pdfrwt>
<pdfrwt beam="2">0</pdfrwt>
<totfact> 0.90929501E+00</totfact>
</mgrwt>
</event>
<event>
 6    1  0.1939311E-004  0.3000000E+03  0.7818608E-02  0.1093470E+00
          3   -1    0    0  502    0  0.00000000000E+00  0.00000000000E+00  0.43310789727E+02  0.43310789727E+02  0.00000000000E+00 0.  1.
         13   -1    0    0    0    0 -0.00000000000E+00 -0.00000000000E+00 -0.10000000000E+04  0.10000000000E+04  0.00000000000E+00 0.  1.
    9000005    2    1    2  501    0  0.14395933959E+02  0.14143886787E+01 -0.97011731875E+03  0.10235735785E+04  0.32613803069E+03 0.  0.
         13    1    3    3    0    0  0.16760688745E+03  0.14719358299E+02 -0.59010012482E+03  0.61361786606E+03  0.00000000000E+00 0.  1.
          3    1    3    3  501    0 -0.15321095349E+03 -0.13304969621E+02 -0.38001719392E+03  0.40995571244E+03  0.00000000000E+00 0.  1.
         21    1    1    2  502  501 -0.14395933959E+02 -0.14143886787E+01  0.13428108474E+02  0.19737211228E+02  0.00000000000E+00 0.  1.
<mgrwt>
<rscale>  1 0.30000000E+03</rscale>
<asrwt>0</asrwt>
<pdfrwt beam="1">  1        3 0.15749411E+00 0.30000000E+03</pdfrwt>
<pdfrwt beam="2">0</pdfrwt>
<totfact> 0.77247629E-01</totfact>
</mgrwt>
</event>
<event>
 6    1  0.1939311E-004  0.3000000E+03  0.7818608E-02  0.1093470E+00
          1   -1    0    0  502    0  0.00000000000E+00  0.00000000000E+00  0.37451566631E+02  0.37451566631E+02  0.00000000000E+00 0.  1.
         13   -1    0    0    0    0 -0.00000000000E+00 -0.00000000000E+00 -0.10000000000E+04  0.10000000000E+04  0.00000000000E+00 0.  1.
    9000005    2    1    2  501    0 -0.60900209930E+00 -0.42786580099E+02 -0.93629364429E+03  0.98724821744E+03  0.31013253970E+03 0.  0.
         13    1    3    3    0    0  0.39774551258E+02  0.26039537490E+02 -0.89707302862E+03  0.89833183797E+03  0.00000000000E+00 0.  1.
          1    1    3    3  501    0 -0.40383553358E+02 -0.68826117589E+02 -0.39220615673E+02  0.88916379470E+02  0.00000000000E+00 0.  1.
         21    1    1    2  502  501  0.60900209930E+00  0.42786580099E+02 -0.26254789076E+02  0.50203349186E+02  0.00000000000E+00 0.  1.
<mgrwt>
<rscale>  1 0.30000000E+03</rscale>
<asrwt>0</asrwt>
<pdfrwt beam="1">  1        1 0.13618780E+00 0.30000000E+03</pdfrwt>
<pdfrwt beam="2">0</pdfrwt>
<totfact> 0.21191551E+01</totfact>
</mgrwt>
</event>
<event>
 6    1  0.1939311E-004  0.3000000E+03  0.7818608E-02  0.1093470E+00
          1   -1    0    0  502    0  0.00000000000E+00  0.00000000000E+00  0.34448916737E+02  0.34448916737E+02  0.00000000000E+00 0.  1.
         13   -1    0    0    0    0 -0.00000000000E+00 -0.00000000000E+00 -0.10000000000E+04  0.10000000000E+04  0.00000000000E+00 0.  1.
    9000005    2    1    2  501    0 -0.11507602839E+02  0.66262253668E+01 -0.96278218939E+03  0.10208843099E+04  0.33923280824E+03 0.  0.
         13    1    3    3    0    0  0.16305384044E+03  0.20503373993E+02 -0.45803895015E+03  0.48662780755E+03  0.00000000000E+00 0.  1.
          3    1    3    3  501    0 -0.17456144328E+03 -0.13877148627E+02 -0.50474323924E+03  0.53425650234E+03  0.00000000000E+00 0.  1.
         21    1    1    2  502  501  0.11507602839E+02 -0.66262253668E+01 -0.27688938739E+01  0.13564606850E+02  0.00000000000E+00 0.  1.
<mgrwt>
<rscale>  1 0.30000000E+03</rscale>
<asrwt>0</asrwt>
<pdfrwt beam="1">  1        1 0.12526905E+00 0.30000000E+03</pdfrwt>
<pdfrwt beam="2">0</pdfrwt>
<totfact> 0.24290420E+01</totfact>
</mgrwt>
</event>
<event>
 6    1  0.1939311E-004  0.3000000E+03  0.7818608E-02  0.1093470E+00
          1   -1    0    0  502    0  0.00000000000E+00  0.00000000000E+00  0.40587725237E+02  0.40587725237E+02  0.00000000000E+00 0.  1.
         13   -1    0    0    0    0 -0.00000000000E+00 -0.00000000000E+00 -0.10000000000E+04  0.10000000000E+04  0.00000000000E+00 0.  1.
    9000005    2    1    2  501    0 -0.52851718261E+02  0.51954233707E+01 -0.82938054469E+03  0.90012937777E+03  0.34574631201E+03 0.  0.
         13    1    3    3    0    0  0.59888330620E+02 -0.77426817199E+02 -0.53089636534E+02  0.11135543845E+03  0.00000000000E+00 0.  1.
          1    1    3    3  501    0 -0.11274004888E+03  0.82622240569E+02 -0.77629090816E+03  0.78877393932E+03  0.00000000000E+00 0.  1.
         21    1    1    2  502  501  0.52851718261E+02 -0.51954233707E+01 -0.13003173007E+03  0.14045834746E+03  0.00000000000E+00 0. -1.
<mgrwt>
<rscale>  1 0.30000000E+03</rscale>
<asrwt>0</asrwt>
<pdfrwt beam="1">  1        1 0.14759204E+00 0.30000000E+03</pdfrwt>
<pdfrwt beam="2">0</pdfrwt>
<totfact> 0.18480442E+01</totfact>
</mgrwt>
</event>
<event>
 6    1  0.1939311E-004  0.3000000E+03  0.7818608E-02  0.1093470E+00
          1   -1    0    0  502    0  0.00000000000E+00  0.00000000000E+00  0.71013373230E+02  0.71013373230E+02  0.00000000000E+00 0.  1.
         13   -1    0    0    0    0 -0.00000000000E+00 -0.00000000000E+00 -0.10000000000E+04  0.10000000000E+04  0.00000000000E+00 0.  1.
    9000005    2    1    2  501    0  0.30728417477E+02  0.12875556725E+02 -0.96721013735E+03  0.10203078275E+04  0.32314485537E+03 0.  0.
         13    1    3    3    0    0  0.84437648062E+02  0.36878321417E+02 -0.95598839154E+03  0.96041841494E+03  0.00000000000E+00 0.  1.
          3    1    3    3  501    0 -0.53709230585E+02 -0.24002764692E+02 -0.11221745813E+02  0.59889412603E+02  0.00000000000E+00 0.  1.
         21    1    1    2  502  501 -0.30728417477E+02 -0.12875556725E+02  0.38223510585E+02  0.50705545683E+02  0.00000000000E+00 0.  1.
<mgrwt>
<rscale>  1 0.30000000E+03</rscale>
<asrwt>0</asrwt>
<pdfrwt beam="1">  1        1 0.25823099E+00 0.30000000E+03</pdfrwt>
<pdfrwt beam="2">0</pdfrwt>
<totfact> 0.54615885E+00</totfact>
</mgrwt>
</event>
<event>
 6    1  0.1939311E-004  0.3000000E+03  0.7818608E-02  0.1093470E+00
          1   -1    0    0  502    0  0.00000000000E+00  0.00000000000E+00  0.34571832918E+02  0.34571832918E+02  0.00000000000E+00 0.  1.
         13   -1    0    0    0    0 -0.00000000000E+00 -0.00000000000E+00 -0.10000000000E+04  0.10000000000E+04  0.00000000000E+00 0.  1.
    9000005    2    1    2  501    0 -0.16035127589E+02  0.38637394941E+01 -0.93848653603E+03  0.10029821941E+04  0.35347453867E+03 0.  0.
         13    1    3    3    0    0  0.10137721046E+03 -0.12439542649E+03 -0.61650121326E+03  0.63704419539E+03  0.00000000000E+00 0.  1.
          3    1    3    3  501    0 -0.11741233805E+03  0.12825916599E+03 -0.32198532277E+03  0.36593799866E+03  0.00000000000E+00 0.  1.
         21    1    1    2  502  501  0.16035127589E+02 -0.38637394941E+01 -0.26941631056E+02  0.31589638865E+02  0.00000000000E+00 0. -1.
<mgrwt>
<rscale>  1 0.30000000E+03</rscale>
<asrwt>0</asrwt>
<pdfrwt beam="1">  1        1 0.12571602E+00 0.30000000E+03</pdfrwt>
<pdfrwt beam="2">0</pdfrwt>
<totfact> 0.24152465E+01</totfact>
</mgrwt>
</event>
<event>
 6    1  0.1939311E-004  0.3000000E+03  0.7818608E-02  0.1093470E+00
          3   -1    0    0  502    0  0.00000000000E+00  0.00000000000E+00  0.20737959406E+02  0.20737959406E+02  0.00000000000E+00 0.  1.
         13   -1    0    0    0    0 -0.00000000000E+00 -0.00000000000E+00 -0.10000000000E+04  0.10000000000E+04  0.00000000000E+00 0.  1.
    9000005    2    1    2  501    0 -0.14767699644E+02  0.59588266317E+01 -0.96429964982E+03  0.99888697075E+03  0.26009185517E+03 0.  0.
         13    1    3    3    0    0  0.94601055071E+01 -0.93652329727E+02 -0.79797260286E+03  0.80350515081E+03  0.00000000000E+00 0.  1.
          1    1    3    3  501    0 -0.24227805151E+02  0.99611156359E+02 -0.16632704696E+03  0.19538181994E+03  0.00000000000E+00 0.  1.
         21    1    1    2  502  501  0.14767699644E+02 -0.59588266317E+01 -0.14962390774E+02  0.21850988656E+02  0.00000000000E+00 0.  1.
<mgrwt>
<rscale>  1 0.30000000E+03</rscale>
<asrwt>0</asrwt>
<pdfrwt beam="1">  1        3 0.75410920E-01 0.30000000E+03</pdfrwt>
<pdfrwt beam="2">0</pdfrwt>
<totfact> 0.76178828E+00</totfact>
</mgrwt>
</event>
<event>
 6    1  0.1939311E-004  0.3000000E+03  0.7818608E-02  0.1093470E+00
          1   -1    0    0  502    0  0.00000000000E+00  0.00000000000E+00  0.40221878218E+02  0.40221878218E+02  0.00000000000E+00 0.  1.
         13   -1    0    0    0    0 -0.00000000000E+00 -0.00000000000E+00 -0.10000000000E+04  0.10000000000E+04  0.00000000000E+00 0.  1.
    9000005    2    1    2  501    0 -0.10446963830E+02  0.65093997206E+01 -0.96705627505E+03  0.10259221281E+04  0.34229645413E+03 0.  0.
         13    1    3    3    0    0  0.15327674311E+03 -0.67648665614E+01 -0.27768705127E+03  0.31725324560E+03  0.00000000000E+00 0.  1.
          1    1    3    3  501    0 -0.16372370694E+03  0.13274266282E+02 -0.68936922378E+03  0.70866888252E+03  0.00000000000E+00 0.  1.
         21    1    1    2  502  501  0.10446963830E+02 -0.65093997206E+01  0.72781532668E+01  0.14299750101E+02  0.00000000000E+00 0.  1.
<mgrwt>
<rscale>  1 0.30000000E+03</rscale>
<asrwt>0</asrwt>
<pdfrwt beam="1">  1        1 0.14626168E+00 0.30000000E+03</pdfrwt>
<pdfrwt beam="2">0</pdfrwt>
<totfact> 0.18773174E+01</totfact>
</mgrwt>
</event>
<event>
 6    1  0.1939311E-004  0.3000000E+03  0.7818608E-02  0.1093470E+00
          1   -1    0    0  502    0  0.00000000000E+00  0.00000000000E+00  0.34440961977E+02  0.34440961977E+02  0.00000000000E+00 0.  1.
         13   -1    0    0    0    0 -0.00000000000E+00 -0.00000000000E+00 -0.10000000000E+04  0.10000000000E+04  0.00000000000E+00 0.  1.
    9000005    2    1    2  501    0 -0.30525440680E+02 -0.37147359180E+01 -0.93507443747E+03  0.99114070028E+03  0.32718508884E+03 0.  0.
         13    1    3    3    0    0  0.12019044986E+03 -0.18434062486E+02 -0.15760125440E+03  0.19905706289E+03  0.00000000000E+00 0.  1.
          3    1    3    3  501    0 -0.15071589054E+03  0.14719326568E+02 -0.77747318307E+03  0.79208363739E+03  0.00000000000E+00 0.  1.
         21    1    1    2  502  501  0.30525440680E+02  0.37147359180E+01 -0.30484600554E+02  0.43300261692E+02  0.00000000000E+00 0.  1.
<mgrwt>
<rscale>  1 0.30000000E+03</rscale>
<asrwt>0</asrwt>
<pdfrwt beam="1">  1        1 0.12524013E+00 0.30000000E+03</pdfrwt>
<pdfrwt beam="2">0</pdfrwt>
<totfact> 0.24299382E+01</totfact>
</mgrwt>
</event>
<event>
 6    1  0.1939311E-004  0.3000000E+03  0.7818608E-02  0.1093470E+00
          1   -1    0    0  502    0  0.00000000000E+00  0.00000000000E+00  0.41104988637E+02  0.41104988637E+02  0.00000000000E+00 0.  1.
         13   -1    0    0    0    0 -0.00000000000E+00 -0.00000000000E+00 -0.10000000000E+04  0.10000000000E+04  0.00000000000E+00 0.  1.
    9000005    2    1    2  501    0  0.71339689707E+01  0.30285251850E+02 -0.95955683810E+03  0.10099838060E+04  0.31360783294E+03 0.  0.
         13    1    3    3    0    0 -0.19667772612E+02  0.12315674906E+03 -0.86776882852E+03  0.87668531747E+03  0.00000000000E+00 0.  1.
          1    1    3    3  501    0  0.26801741582E+02 -0.92871497211E+02 -0.91788009578E+02  0.13329848854E+03  0.00000000000E+00 0.  1.
         21    1    1    2  502  501 -0.71339689707E+01 -0.30285251850E+02  0.66182673826E+00  0.31121182618E+02  0.00000000000E+00 0.  1.
<mgrwt>
<rscale>  1 0.30000000E+03</rscale>
<asrwt>0</asrwt>
<pdfrwt beam="1">  1        1 0.14947300E+00 0.30000000E+03</pdfrwt>
<pdfrwt beam="2">0</pdfrwt>
<totfact> 0.18076228E+01</totfact>
</mgrwt>
</event>
<event>
 6    1  0.1939311E-004  0.3000000E+03  0.7818608E-02  0.1093470E+00
          1   -1    0    0  502    0  0.00000000000E+00  0.00000000000E+00  0.36014119476E+02  0.36014119476E+02  0.00000000000E+00 0.  1.
         13   -1    0    0    0    0 -0.00000000000E+00 -0.00000000000E+00 -0.10000000000E+04  0.10000000000E+04  0.00000000000E+00 0.  1.
    9000005    2    1    2  501    0  0.24037680510E+02  0.30648712025E+02 -0.94081945339E+03  0.99069484125E+03  0.30792510610E+03 0.  0.
         13    1    3    3    0    0 -0.95594668567E+02  0.92782692674E+02 -0.71812584387E+03  0.73037777646E+03  0.00000000000E+00 0.  1.
          3    1    3    3  501    0  0.11963234908E+03 -0.62133980649E+02 -0.22269360952E+03  0.26031706479E+03  0.00000000000E+00 0.  1.
         21    1    1    2  502  501 -0.24037680510E+02 -0.30648712025E+02 -0.23166427135E+02  0.45319278230E+02  0.00000000000E+00 0.  1.
<mgrwt>
<rscale>  1 0.30000000E+03</rscale>
<asrwt>0</asrwt>
<pdfrwt beam="1">  1        1 0.13096071E+00 0.30000000E+03</pdfrwt>
<pdfrwt beam="2">0</pdfrwt>
<totfact> 0.22606347E+01</totfact>
</mgrwt>
</event>
<event>
 6    1  0.1939311E-004  0.3000000E+03  0.7818608E-02  0.1093470E+00
          1   -1    0    0  502    0  0.00000000000E+00  0.00000000000E+00  0.28285927498E+02  0.28285927498E+02  0.00000000000E+00 0.  1.
         13   -1    0    0    0    0 -0.00000000000E+00 -0.00000000000E+00 -0.10000000000E+04  0.10000000000E+04  0.00000000000E+00 0.  1.
    9000005    2    1    2  501    0  0.49534296811E+00 -0.11039770374E+02 -0.95456229517E+03  0.10078823651E+04  0.32328867061E+03 0.  0.
         13    1    3    3    0    0  0.11516424533E+03  0.23531807021E+02 -0.81732251452E+03  0.82573157993E+03  0.00000000000E+00 0.  1.
          3    1    3    3  501    0 -0.11466890236E+03 -0.34571577395E+02 -0.13723978065E+03  0.18215078513E+03  0.00000000000E+00 0.  1.
         21    1    1    2  502  501 -0.49534296811E+00  0.11039770374E+02 -0.17151777333E+02  0.20403562440E+02  0.00000000000E+00 0. -1.
<mgrwt>
<rscale>  1 0.30000000E+03</rscale>
<asrwt>0</asrwt>
<pdfrwt beam="1">  1        1 0.10285814E+00 0.30000000E+03</pdfrwt>
<pdfrwt beam="2">0</pdfrwt>
<totfact> 0.32839376E+01</totfact>
</mgrwt>
</event>
<event>
 6    1  0.1939311E-004  0.3000000E+03  0.7818608E-02  0.1093470E+00
          1   -1    0    0  502    0  0.00000000000E+00  0.00000000000E+00  0.28592629304E+02  0.28592629304E+02  0.00000000000E+00 0.  1.
         13   -1    0    0    0    0 -0.00000000000E+00 -0.00000000000E+00 -0.10000000000E+04  0.10000000000E+04  0.00000000000E+00 0.  1.
    9000005    2    1    2  501    0 -0.78087571210E+01 -0.16779712620E+02 -0.95098681342E+03  0.10010329740E+04  0.31200730794E+03 0.  0.
         13    1    3    3    0    0 -0.96859810491E+01  0.13950432567E+03 -0.61164880956E+03  0.62743090563E+03  0.00000000000E+00 0.  1.
          1    1    3    3  501    0  0.18772239281E+01 -0.15628403828E+03 -0.33933800386E+03  0.37360206832E+03  0.00000000000E+00 0.  1.
         21    1    1    2  502  501  0.78087571210E+01  0.16779712620E+02 -0.20420557280E+02  0.27559655349E+02  0.00000000000E+00 0.  1.
<mgrwt>
<rscale>  1 0.30000000E+03</rscale>
<asrwt>0</asrwt>
<pdfrwt beam="1">  1        1 0.10397342E+00 0.30000000E+03</pdfrwt>
<pdfrwt beam="2">0</pdfrwt>
<totfact> 0.32320168E+01</totfact>
</mgrwt>
</event>
<event>
 6    1  0.1939311E-004  0.3000000E+03  0.7818608E-02  0.1093470E+00
          1   -1    0    0  502    0  0.00000000000E+00  0.00000000000E+00  0.80218992158E+02  0.80218992158E+02  0.00000000000E+00 0.  1.
         13   -1    0    0    0    0 -0.00000000000E+00 -0.00000000000E+00 -0.10000000000E+04  0.10000000000E+04  0.00000000000E+00 0.  1.
    9000005    2    1    2  501    0 -0.22488628513E+02 -0.16963301344E+02 -0.96848818307E+03  0.10239528307E+04  0.33123488158E+03 0.  0.
         13    1    3    3    0    0  0.14652809819E+03 -0.42303081744E+02 -0.33995348921E+03  0.37259684528E+03  0.00000000000E+00 0.  1.
          1    1    3    3  501    0 -0.16901672670E+03  0.25339780400E+02 -0.62853469386E+03  0.65135598543E+03  0.00000000000E+00 0.  1.
         21    1    1    2  502  501  0.22488628513E+02  0.16963301344E+02  0.48707175229E+02  0.56266161444E+02  0.00000000000E+00 0.  1.
<mgrwt>
<rscale>  1 0.30000000E+03</rscale>
<asrwt>0</asrwt>
<pdfrwt beam="1">  1        1 0.29170604E+00 0.30000000E+03</pdfrwt>
<pdfrwt beam="2">0</pdfrwt>
<totfact> 0.38032549E+00</totfact>
</mgrwt>
</event>
<event>
 6    1  0.1939311E-004  0.3000000E+03  0.7818608E-02  0.1093470E+00
          1   -1    0    0  502    0  0.00000000000E+00  0.00000000000E+00  0.28925983688E+02  0.28925983688E+02  0.00000000000E+00 0.  1.
         13   -1    0    0    0    0 -0.00000000000E+00 -0.00000000000E+00 -0.10000000000E+04  0.10000000000E+04  0.00000000000E+00 0.  1.
    9000005    2    1    2  501    0  0.11496389591E+02 -0.77013754229E+01 -0.93044240204E+03  0.98600272385E+03  0.32601660964E+03 0.  0.
         13    1    3    3    0    0 -0.67220349318E+02  0.54703485347E+02 -0.50420177759E+02  0.10026585160E+03  0.00000000000E+00 0.  1.
          3    1    3    3  501    0  0.78716738909E+02 -0.62404860770E+02 -0.88002222428E+03  0.88573687225E+03  0.00000000000E+00 0.  1.
         21    1    1    2  502  501 -0.11496389591E+02  0.77013754229E+01 -0.40631614270E+02  0.42923259839E+02  0.00000000000E+00 0.  1.
<mgrwt>
<rscale>  1 0.30000000E+03</rscale>
<asrwt>0</asrwt>
<pdfrwt beam="1">  1        1 0.10518562E+00 0.30000000E+03</pdfrwt>
<pdfrwt beam="2">0</pdfrwt>
<totfact> 0.31769255E+01</totfact>
</mgrwt>
</event>
<event>
 6    1  0.1939311E-004  0.3000000E+03  0.7818608E-02  0.1093470E+00
          1   -1    0    0  502    0  0.00000000000E+00  0.00000000000E+00  0.42610077842E+02  0.42610077842E+02  0.00000000000E+00 0.  1.
         13   -1    0    0    0    0 -0.00000000000E+00 -0.00000000000E+00 -0.10000000000E+04  0.10000000000E+04  0.00000000000E+00 0.  1.
    9000005    2    1    2  501    0 -0.32830875846E+02 -0.11242320386E+02 -0.95271537631E+03  0.10075942592E+04  0.32615233670E+03 0.  0.
         13    1    3    3    0    0 -0.50570183123E+01  0.10829663818E+03 -0.81881872384E+03  0.82596479210E+03  0.00000000000E+00 0.  1.
          3    1    3    3  501    0 -0.27773857533E+02 -0.11953895856E+03 -0.13389665247E+03  0.18162946710E+03  0.00000000000E+00 0.  1.
         21    1    1    2  502  501  0.32830875846E+02  0.11242320386E+02 -0.46745458491E+01  0.35015818644E+02  0.00000000000E+00 0.  1.
<mgrwt>
<rscale>  1 0.30000000E+03</rscale>
<asrwt>0</asrwt>
<pdfrwt beam="1">  1        1 0.15494606E+00 0.30000000E+03</pdfrwt>
<pdfrwt beam="2">0</pdfrwt>
<totfact> 0.16960515E+01</totfact>
</mgrwt>
</event>
<event>
 6    1  0.1939311E-004  0.3000000E+03  0.7818608E-02  0.1093470E+00
          1   -1    0    0  502    0  0.00000000000E+00  0.00000000000E+00  0.45068694408E+02  0.45068694408E+02  0.00000000000E+00 0.  1.
         13   -1    0    0    0    0 -0.00000000000E+00 -0.00000000000E+00 -0.10000000000E+04  0.10000000000E+04  0.00000000000E+00 0.  1.
    9000005    2    1    2  501    0  0.13609066091E+02 -0.94046202902E+01 -0.96478642733E+03  0.10258131241E+04  0.34814660950E+03 0.  0.
         13    1    3    3    0    0  0.13219095256E+02  0.16037485169E+03 -0.63270024371E+03  0.65284334716E+03  0.00000000000E+00 0.  1.
          1    1    3    3  501    0  0.38997083491E+00 -0.16977947198E+03 -0.33208618361E+03  0.37296977696E+03  0.00000000000E+00 0.  1.
         21    1    1    2  502  501 -0.13609066091E+02  0.94046202902E+01  0.98551217339E+01  0.19255570287E+02  0.00000000000E+00 0.  1.
<mgrwt>
<rscale>  1 0.30000000E+03</rscale>
<asrwt>0</asrwt>
<pdfrwt beam="1">  1        1 0.16388651E+00 0.30000000E+03</pdfrwt>
<pdfrwt beam="2">0</pdfrwt>
<totfact> 0.15309570E+01</totfact>
</mgrwt>
</event>
<event>
 6    1  0.1939311E-004  0.3000000E+03  0.7818608E-02  0.1093470E+00
          1   -1    0    0  502    0  0.00000000000E+00  0.00000000000E+00  0.53015465356E+02  0.53015465356E+02  0.00000000000E+00 0.  1.
         13   -1    0    0    0    0 -0.00000000000E+00 -0.00000000000E+00 -0.10000000000E+04  0.10000000000E+04  0.00000000000E+00 0.  1.
    9000005    2    1    2  501    0  0.39447898616E+02 -0.17240216842E+02 -0.95537670268E+03  0.10091544318E+04  0.32217178861E+03 0.  0.
         13    1    3    3    0    0 -0.10095393881E+03  0.71236308012E+02 -0.19477841349E+03  0.23066195981E+03  0.00000000000E+00 0.  1.
          3    1    3    3  501    0  0.14040183743E+03 -0.88476524854E+02 -0.76059828919E+03  0.77849247197E+03  0.00000000000E+00 0.  1.
         21    1    1    2  502  501 -0.39447898616E+02  0.17240216842E+02  0.83921680340E+01  0.43861033575E+02  0.00000000000E+00 0.  1.
<mgrwt>
<rscale>  1 0.30000000E+03</rscale>
<asrwt>0</asrwt>
<pdfrwt beam="1">  1        1 0.19278392E+00 0.30000000E+03</pdfrwt>
<pdfrwt beam="2">0</pdfrwt>
<totfact> 0.11087979E+01</totfact>
</mgrwt>
</event>
<event>
 6    1  0.1939311E-004  0.3000000E+03  0.7818608E-02  0.1093470E+00
          1   -1    0    0  502    0  0.00000000000E+00  0.00000000000E+00  0.27342940582E+02  0.27342940582E+02  0.00000000000E+00 0.  1.
         13   -1    0    0    0    0 -0.00000000000E+00 -0.00000000000E+00 -0.10000000000E+04  0.10000000000E+04  0.00000000000E+00 0.  1.
    9000005    2    1    2  501    0  0.38700064420E+01 -0.97515000161E+01 -0.93783465974E+03  0.99097443468E+03  0.31997876878E+03 0.  0.
         13    1    3    3    0    0 -0.65794519645E+02 -0.36208483141E+02 -0.90736334366E+03  0.91046593044E+03  0.00000000000E+00 0.  1.
          3    1    3    3  501    0  0.69664526087E+02  0.26456983124E+02 -0.30471316076E+02  0.80508504236E+02  0.00000000000E+00 0.  1.
         21    1    1    2  502  501 -0.38700064420E+01  0.97515000161E+01 -0.34822399679E+02  0.36368505906E+02  0.00000000000E+00 0. -1.
<mgrwt>
<rscale>  1 0.30000000E+03</rscale>
<asrwt>0</asrwt>
<pdfrwt beam="1">  1        1 0.99429085E-01 0.30000000E+03</pdfrwt>
<pdfrwt beam="2">0</pdfrwt>
<totfact> 0.34514423E+01</totfact>
</mgrwt>
</event>
<event>
 6    1  0.1939311E-004  0.3000000E+03  0.7818608E-02  0.1093470E+00
          1   -1    0    0  502    0  0.00000000000E+00  0.00000000000E+00  0.18174735448E+02  0.18174735448E+02  0.00000000000E+00 0.  1.
         13   -1    0    0    0    0 -0.00000000000E+00 -0.00000000000E+00 -0.10000000000E+04  0.10000000000E+04  0.00000000000E+00 0.  1.
    9000005    2    1    2  501    0  0.12144226457E+02  0.53779691899E+01 -0.98152571777E+03  0.10048896115E+04  0.21502091052E+03 0.  0.
         13    1    3    3    0    0 -0.52952904709E+02 -0.76133438540E+02 -0.66940470869E+03  0.67579802797E+03  0.00000000000E+00 0.  1.
          1    1    3    3  501    0  0.65097131166E+02  0.81511407730E+02 -0.31212100908E+03  0.32909158358E+03  0.00000000000E+00 0.  1.
         21    1    1    2  502  501 -0.12144226457E+02 -0.53779691899E+01 -0.29954678132E+00  0.13285123903E+02  0.00000000000E+00 0.  1.
<mgrwt>
<rscale>  1 0.30000000E+03</rscale>
<asrwt>0</asrwt>
<pdfrwt beam="1">  1        1 0.66090086E-01 0.30000000E+03</pdfrwt>
<pdfrwt beam="2">0</pdfrwt>
<totfact> 0.60938169E+01</totfact>
</mgrwt>
</event>
<event>
 6    1  0.1939311E-004  0.3000000E+03  0.7818608E-02  0.1093470E+00
          1   -1    0    0  502    0  0.00000000000E+00  0.00000000000E+00  0.29102356219E+02  0.29102356219E+02  0.00000000000E+00 0.  1.
         13   -1    0    0    0    0 -0.00000000000E+00 -0.00000000000E+00 -0.10000000000E+04  0.10000000000E+04  0.00000000000E+00 0.  1.
    9000005    2    1    2  501    0 -0.29818710595E+01  0.11403844241E+02 -0.97102911773E+03  0.10173143749E+04  0.30313701629E+03 0.  0.
         13    1    3    3    0    0  0.10096192953E+02  0.29068227697E+02  0.12736438185E+02  0.33303330633E+02  0.00000000000E+00 0.  1.
          1    1    3    3  501    0 -0.13078064012E+02 -0.17664383456E+02 -0.98376555592E+03  0.98401104425E+03  0.00000000000E+00 0.  1.
         21    1    1    2  502  501  0.29818710595E+01 -0.11403844241E+02  0.13147395258E+00  0.11787981332E+02  0.00000000000E+00 0. -1.
<mgrwt>
<rscale>  1 0.30000000E+03</rscale>
<asrwt>0</asrwt>
<pdfrwt beam="1">  1        1 0.10582697E+00 0.30000000E+03</pdfrwt>
<pdfrwt beam="2">0</pdfrwt>
<totfact> 0.31483258E+01</totfact>
</mgrwt>
</event>
<event>
 6    1  0.1939311E-004  0.3000000E+03  0.7818608E-02  0.1093470E+00
          1   -1    0    0  502    0  0.00000000000E+00  0.00000000000E+00  0.33449199069E+02  0.33449199069E+02  0.00000000000E+00 0.  1.
         13   -1    0    0    0    0 -0.00000000000E+00 -0.00000000000E+00 -0.10000000000E+04  0.10000000000E+04  0.00000000000E+00 0.  1.
    9000005    2    1    2  501    0 -0.13217629159E+02  0.84458407139E+00 -0.92857509246E+03  0.99323013050E+03  0.35224845032E+03 0.  0.
         13    1    3    3    0    0  0.36030899599E+02 -0.31416478454E+02  0.13218693503E+02  0.49597930424E+02  0.00000000000E+00 0.  1.
          1    1    3    3  501    0 -0.49248528758E+02  0.32261062526E+02 -0.94179378596E+03  0.94363220008E+03  0.00000000000E+00 0.  1.
         21    1    1    2  502  501  0.13217629159E+02 -0.84458407139E+00 -0.37975708470E+02  0.40219068570E+02  0.00000000000E+00 0. -1.
<mgrwt>
<rscale>  1 0.30000000E+03</rscale>
<asrwt>0</asrwt>
<pdfrwt beam="1">  1        1 0.12163371E+00 0.30000000E+03</pdfrwt>
<pdfrwt beam="2">0</pdfrwt>
<totfact> 0.25450845E+01</totfact>
</mgrwt>
</event>
<event>
 6    1  0.1939311E-004  0.3000000E+03  0.7818608E-02  0.1093470E+00
          1   -1    0    0  502    0  0.00000000000E+00  0.00000000000E+00  0.59578412470E+02  0.59578412470E+02  0.00000000000E+00 0.  1.
         13   -1    0    0    0    0 -0.00000000000E+00 -0.00000000000E+00 -0.10000000000E+04  0.10000000000E+04  0.00000000000E+00 0.  1.
    9000005    2    1    2  501    0 -0.26811962629E+02  0.75272230411E+01 -0.96654905903E+03  0.10213922213E+04  0.32901283542E+03 0.  0.
         13    1    3    3    0    0 -0.14397088071E+03 -0.90226812584E+02 -0.39856025645E+03  0.43326524235E+03  0.00000000000E+00 0.  1.
          1    1    3    3  501    0  0.11715891808E+03  0.97754035625E+02 -0.56798880257E+03  0.58812697899E+03  0.00000000000E+00 0.  1.
         21    1    1    2  502  501  0.26811962629E+02 -0.75272230411E+01  0.26127471495E+02  0.38186191136E+02  0.00000000000E+00 0. -1.
<mgrwt>
<rscale>  1 0.30000000E+03</rscale>
<asrwt>0</asrwt>
<pdfrwt beam="1">  1        1 0.21664923E+00 0.30000000E+03</pdfrwt>
<pdfrwt beam="2">0</pdfrwt>
<totfact> 0.85471207E+00</totfact>
</mgrwt>
</event>
<event>
 6    1  0.1939311E-004  0.3000000E+03  0.7818608E-02  0.1093470E+00
          1   -1    0    0  502    0  0.00000000000E+00  0.00000000000E+00  0.43867276324E+02  0.43867276324E+02  0.00000000000E+00 0.  1.
         13   -1    0    0    0    0 -0.00000000000E+00 -0.00000000000E+00 -0.10000000000E+04  0.10000000000E+04  0.00000000000E+00 0.  1.
    9000005    2    1    2  501    0 -0.37286962379E+01 -0.12477133520E+02 -0.98393180068E+03  0.10131692191E+04  0.24128923736E+03 0.  0.
         13    1    3    3    0    0  0.98505522390E+02 -0.29625768027E+02 -0.75356645781E+03  0.76055468601E+03  0.00000000000E+00 0.  1.
          3    1    3    3  501    0 -0.10223421863E+03  0.17148634507E+02 -0.23036534287E+03  0.25261453307E+03  0.00000000000E+00 0.  1.
         21    1    1    2  502  501  0.37286962379E+01  0.12477133520E+02  0.27799077001E+02  0.30698057245E+02  0.00000000000E+00 0.  1.
<mgrwt>
<rscale>  1 0.30000000E+03</rscale>
<asrwt>0</asrwt>
<pdfrwt beam="1">  1        1 0.15951770E+00 0.30000000E+03</pdfrwt>
<pdfrwt beam="2">0</pdfrwt>
<totfact> 0.16091617E+01</totfact>
</mgrwt>
</event>
<event>
 6    1  0.1939311E-004  0.3000000E+03  0.7818608E-02  0.1093470E+00
          1   -1    0    0  502    0  0.00000000000E+00  0.00000000000E+00  0.38313982159E+02  0.38313982159E+02  0.00000000000E+00 0.  1.
         13   -1    0    0    0    0 -0.00000000000E+00 -0.00000000000E+00 -0.10000000000E+04  0.10000000000E+04  0.00000000000E+00 0.  1.
    9000005    2    1    2  501    0  0.17494902196E+02 -0.15986422018E+02 -0.95955320829E+03  0.10145193154E+04  0.32855052031E+03 0.  0.
         13    1    3    3    0    0  0.15595226042E+03 -0.54715153066E+01 -0.27650181126E+03  0.31749692382E+03  0.00000000000E+00 0.  1.
          1    1    3    3  501    0 -0.13845735822E+03 -0.10514906711E+02 -0.68305139703E+03  0.69702239153E+03  0.00000000000E+00 0.  1.
         21    1    1    2  502  501 -0.17494902196E+02  0.15986422018E+02 -0.21328095513E+01  0.23794666805E+02  0.00000000000E+00 0. -1.
<mgrwt>
<rscale>  1 0.30000000E+03</rscale>
<asrwt>0</asrwt>
<pdfrwt beam="1">  1        1 0.13932387E+00 0.30000000E+03</pdfrwt>
<pdfrwt beam="2">0</pdfrwt>
<totfact> 0.20398264E+01</totfact>
</mgrwt>
</event>
<event>
 6    1  0.1939311E-004  0.3000000E+03  0.7818608E-02  0.1093470E+00
          1   -1    0    0  502    0  0.00000000000E+00  0.00000000000E+00  0.38806707379E+02  0.38806707379E+02  0.00000000000E+00 0.  1.
         13   -1    0    0    0    0 -0.00000000000E+00 -0.00000000000E+00 -0.10000000000E+04  0.10000000000E+04  0.00000000000E+00 0.  1.
    9000005    2    1    2  501    0  0.27772539985E+02 -0.14827605499E+02 -0.93388946951E+03  0.99713332716E+03  0.34804332923E+03 0.  0.
         13    1    3    3    0    0 -0.12642351088E+03 -0.89188124486E+02 -0.62616989081E+03  0.64500089752E+03  0.00000000000E+00 0.  1.
          1    1    3    3  501    0  0.15419605087E+03  0.74360518987E+02 -0.30771957870E+03  0.35213242964E+03  0.00000000000E+00 0.  1.
         21    1    1    2  502  501 -0.27772539985E+02  0.14827605499E+02 -0.27303823114E+02  0.41673380217E+02  0.00000000000E+00 0.  1.
<mgrwt>
<rscale>  1 0.30000000E+03</rscale>
<asrwt>0</asrwt>
<pdfrwt beam="1">  1        1 0.14111560E+00 0.30000000E+03</pdfrwt>
<pdfrwt beam="2">0</pdfrwt>
<totfact> 0.19962030E+01</totfact>
</mgrwt>
</event>
<event>
 6    1  0.1939311E-004  0.3000000E+03  0.7818608E-02  0.1093470E+00
          1   -1    0    0  502    0  0.00000000000E+00  0.00000000000E+00  0.36348467974E+02  0.36348467974E+02  0.00000000000E+00 0.  1.
         13   -1    0    0    0    0 -0.00000000000E+00 -0.00000000000E+00 -0.10000000000E+04  0.10000000000E+04  0.00000000000E+00 0.  1.
    9000005    2    1    2  501    0 -0.13850964933E+01 -0.11757296076E+02 -0.96709726949E+03  0.10240186014E+04  0.33644734332E+03 0.  0.
         13    1    3    3    0    0 -0.30022932036E+02  0.12552426094E+03 -0.77779517792E+03  0.78843075494E+03  0.00000000000E+00 0.  1.
          3    1    3    3  501    0  0.28637835543E+02 -0.13728155702E+03 -0.18930209157E+03  0.23558784645E+03  0.00000000000E+00 0.  1.
         21    1    1    2  502  501  0.13850964933E+01  0.11757296076E+02  0.34457374685E+01  0.12329866585E+02  0.00000000000E+00 0.  1.
<mgrwt>
<rscale>  1 0.30000000E+03</rscale>
<asrwt>0</asrwt>
<pdfrwt beam="1">  1        1 0.13217653E+00 0.30000000E+03</pdfrwt>
<pdfrwt beam="2">0</pdfrwt>
<totfact> 0.22266397E+01</totfact>
</mgrwt>
</event>
<event>
 6    1  0.1939311E-004  0.3000000E+03  0.7818608E-02  0.1093470E+00
          3   -1    0    0  502    0  0.00000000000E+00  0.00000000000E+00  0.29712374782E+02  0.29712374782E+02  0.00000000000E+00 0.  1.
         13   -1    0    0    0    0 -0.00000000000E+00 -0.00000000000E+00 -0.10000000000E+04  0.10000000000E+04  0.00000000000E+00 0.  1.
    9000005    2    1    2  501    0  0.73545365088E+01  0.14385618402E+02 -0.95105164760E+03  0.10045915058E+04  0.32317769396E+03 0.  0.
         13    1    3    3    0    0  0.11518445613E+03  0.35238879319E+02 -0.83932045272E+03  0.84791984286E+03  0.00000000000E+00 0.  1.
          1    1    3    3  501    0 -0.10782991963E+03 -0.20853260916E+02 -0.11173119488E+03  0.15667166293E+03  0.00000000000E+00 0.  1.
         21    1    1    2  502  501 -0.73545365088E+01 -0.14385618402E+02 -0.19235977616E+02  0.25120868992E+02  0.00000000000E+00 0. -1.
<mgrwt>
<rscale>  1 0.30000000E+03</rscale>
<asrwt>0</asrwt>
<pdfrwt beam="1">  1        3 0.10804523E+00 0.30000000E+03</pdfrwt>
<pdfrwt beam="2">0</pdfrwt>
<totfact> 0.31721919E+00</totfact>
</mgrwt>
</event>
<event>
 6    1  0.1939311E-004  0.3000000E+03  0.7818608E-02  0.1093470E+00
          1   -1    0    0  502    0  0.00000000000E+00  0.00000000000E+00  0.43037234100E+02  0.43037234100E+02  0.00000000000E+00 0.  1.
         13   -1    0    0    0    0 -0.00000000000E+00 -0.00000000000E+00 -0.10000000000E+04  0.10000000000E+04  0.00000000000E+00 0.  1.
    9000005    2    1    2  501    0  0.59669902996E+02 -0.28272251035E+02 -0.88739104104E+03  0.94712038260E+03  0.32436760305E+03 0.  0.
         13    1    3    3    0    0  0.25522536649E+02 -0.53754629741E+02 -0.80529567027E+00  0.59511415684E+02  0.00000000000E+00 0.  1.
          3    1    3    3  501    0  0.34147366347E+02  0.25482378706E+02 -0.88658574537E+03  0.88760896691E+03  0.00000000000E+00 0.  1.
         21    1    1    2  502  501 -0.59669902996E+02  0.28272251035E+02 -0.69571724861E+02  0.95916851503E+02  0.00000000000E+00 0.  1.
<mgrwt>
<rscale>  1 0.30000000E+03</rscale>
<asrwt>0</asrwt>
<pdfrwt beam="1">  1        1 0.15649936E+00 0.30000000E+03</pdfrwt>
<pdfrwt beam="2">0</pdfrwt>
<totfact> 0.16659185E+01</totfact>
</mgrwt>
</event>
<event>
 6    1  0.1939311E-004  0.3000000E+03  0.7818608E-02  0.1093470E+00
          1   -1    0    0  502    0  0.00000000000E+00  0.00000000000E+00  0.34609766071E+02  0.34609766071E+02  0.00000000000E+00 0.  1.
         13   -1    0    0    0    0 -0.00000000000E+00 -0.00000000000E+00 -0.10000000000E+04  0.10000000000E+04  0.00000000000E+00 0.  1.
    9000005    2    1    2  501    0  0.14366905423E+02  0.33433991475E+00 -0.96753957113E+03  0.10200791293E+04  0.32283446001E+03 0.  0.
         13    1    3    3    0    0  0.14168472065E+03  0.48255413404E+02 -0.26373583011E+03  0.30324863243E+03  0.00000000000E+00 0.  1.
          3    1    3    3  501    0 -0.12731781523E+03 -0.47921073489E+02 -0.70380374102E+03  0.71683049687E+03  0.00000000000E+00 0.  1.
         21    1    1    2  502  501 -0.14366905423E+02 -0.33433991475E+00  0.21493372036E+01  0.14530636773E+02  0.00000000000E+00 0.  1.
<mgrwt>
<rscale>  1 0.30000000E+03</rscale>
<asrwt>0</asrwt>
<pdfrwt beam="1">  1        1 0.12585396E+00 0.30000000E+03</pdfrwt>
<pdfrwt beam="2">0</pdfrwt>
<totfact> 0.24110092E+01</totfact>
</mgrwt>
</event>
<event>
 6    1  0.1939311E-004  0.3000000E+03  0.7818608E-02  0.1093470E+00
          1   -1    0    0  502    0  0.00000000000E+00  0.00000000000E+00  0.46678481554E+02  0.46678481554E+02  0.00000000000E+00 0.  1.
         13   -1    0    0    0    0 -0.00000000000E+00 -0.00000000000E+00 -0.10000000000E+04  0.10000000000E+04  0.00000000000E+00 0.  1.
    9000005    2    1    2  501    0 -0.11406136063E+02  0.32037044786E+02 -0.95485166364E+03  0.10126371314E+04  0.33546354210E+03 0.  0.
         13    1    3    3    0    0 -0.75249126434E+01  0.49093334860E+02 -0.98040933957E+03  0.98166656913E+03  0.00000000000E+00 0.  1.
          3    1    3    3  501    0 -0.38812234195E+01 -0.17056290074E+02  0.25557675926E+02  0.30970562234E+02  0.00000000000E+00 0.  1.
         21    1    1    2  502  501  0.11406136063E+02 -0.32037044786E+02  0.15301451935E+01  0.34041350191E+02  0.00000000000E+00 0.  1.
<mgrwt>
<rscale>  1 0.30000000E+03</rscale>
<asrwt>0</asrwt>
<pdfrwt beam="1">  1        1 0.16974029E+00 0.30000000E+03</pdfrwt>
<pdfrwt beam="2">0</pdfrwt>
<totfact> 0.14329019E+01</totfact>
</mgrwt>
</event>
<event>
 6    1  0.1939311E-004  0.3000000E+03  0.7818608E-02  0.1093470E+00
          1   -1    0    0  502    0  0.00000000000E+00  0.00000000000E+00  0.29507620230E+02  0.29507620230E+02  0.00000000000E+00 0.  1.
         13   -1    0    0    0    0 -0.00000000000E+00 -0.00000000000E+00 -0.10000000000E+04  0.10000000000E+04  0.00000000000E+00 0.  1.
    9000005    2    1    2  501    0 -0.17725213955E+02  0.13706899812E+02 -0.93585332700E+03  0.98825321090E+03  0.31673474216E+03 0.  0.
         13    1    3    3    0    0  0.13516514060E+03 -0.59723808172E+02 -0.42089272741E+03  0.44607985438E+03  0.00000000000E+00 0.  1.
          1    1    3    3  501    0 -0.15289035456E+03  0.73430707984E+02 -0.51496059958E+03  0.54217335651E+03  0.00000000000E+00 0.  1.
         21    1    1    2  502  501  0.17725213955E+02 -0.13706899812E+02 -0.34639052774E+02  0.41254409332E+02  0.00000000000E+00 0.  1.
<mgrwt>
<rscale>  1 0.30000000E+03</rscale>
<asrwt>0</asrwt>
<pdfrwt beam="1">  1        1 0.10730066E+00 0.30000000E+03</pdfrwt>
<pdfrwt beam="2">0</pdfrwt>
<totfact> 0.30840000E+01</totfact>
</mgrwt>
</event>
<event>
 6    1  0.1939311E-004  0.3000000E+03  0.7818608E-02  0.1093470E+00
          1   -1    0    0  502    0  0.00000000000E+00  0.00000000000E+00  0.34169232729E+02  0.34169232729E+02  0.00000000000E+00 0.  1.
         13   -1    0    0    0    0 -0.00000000000E+00 -0.00000000000E+00 -0.10000000000E+04  0.10000000000E+04  0.00000000000E+00 0.  1.
    9000005    2    1    2  501    0 -0.12263575786E+02 -0.78355939705E+01 -0.96671449638E+03  0.10195893561E+04  0.32374951094E+03 0.  0.
         13    1    3    3    0    0  0.10565539584E+03 -0.11886365327E+03 -0.54914031888E+03  0.57170509929E+03  0.00000000000E+00 0.  1.
          3    1    3    3  501    0 -0.11791897163E+03  0.11102805930E+03 -0.41757417750E+03  0.44788425686E+03  0.00000000000E+00 0.  1.
         21    1    1    2  502  501  0.12263575786E+02  0.78355939705E+01  0.88372911097E+00  0.14579876579E+02  0.00000000000E+00 0.  1.
<mgrwt>
<rscale>  1 0.30000000E+03</rscale>
<asrwt>0</asrwt>
<pdfrwt beam="1">  1        1 0.12425202E+00 0.30000000E+03</pdfrwt>
<pdfrwt beam="2">0</pdfrwt>
<totfact> 0.24608064E+01</totfact>
</mgrwt>
</event>
<event>
 6    1  0.1939311E-004  0.3000000E+03  0.7818608E-02  0.1093470E+00
          1   -1    0    0  502    0  0.00000000000E+00  0.00000000000E+00  0.40892298110E+02  0.40892298110E+02  0.00000000000E+00 0.  1.
         13   -1    0    0    0    0 -0.00000000000E+00 -0.00000000000E+00 -0.10000000000E+04  0.10000000000E+04  0.00000000000E+00 0.  1.
    9000005    2    1    2  501    0 -0.26544296696E+02 -0.69704033178E+02 -0.83239775910E+03  0.89385943943E+03  0.31707320320E+03 0.  0.
         13    1    3    3    0    0  0.35863244155E+02  0.11099585218E+02 -0.77660500310E+03  0.77751186738E+03  0.00000000000E+00 0.  1.
          3    1    3    3  501    0 -0.62407540851E+02 -0.80803618396E+02 -0.55792755994E+02  0.11634757205E+03  0.00000000000E+00 0.  1.
         21    1    1    2  502  501  0.26544296696E+02  0.69704033178E+02 -0.12670994279E+03  0.14703285868E+03  0.00000000000E+00 0.  1.
<mgrwt>
<rscale>  1 0.30000000E+03</rscale>
<asrwt>0</asrwt>
<pdfrwt beam="1">  1        1 0.14869958E+00 0.30000000E+03</pdfrwt>
<pdfrwt beam="2">0</pdfrwt>
<totfact> 0.18241085E+01</totfact>
</mgrwt>
</event>
<event>
 6    1  0.1939311E-004  0.3000000E+03  0.7818608E-02  0.1093470E+00
          1   -1    0    0  502    0  0.00000000000E+00  0.00000000000E+00  0.31670120981E+02  0.31670120981E+02  0.00000000000E+00 0.  1.
         13   -1    0    0    0    0 -0.00000000000E+00 -0.00000000000E+00 -0.10000000000E+04  0.10000000000E+04  0.00000000000E+00 0.  1.
    9000005    2    1    2  501    0  0.85589728440E+01 -0.12356246477E+02 -0.96866414835E+03  0.10166353420E+04  0.30823895512E+03 0.  0.
         13    1    3    3    0    0 -0.11525147277E+03  0.84110380067E+02 -0.58411929988E+03  0.60129261970E+03  0.00000000000E+00 0.  1.
          3    1    3    3  501    0  0.12381044562E+03 -0.96466626544E+02 -0.38454484847E+03  0.41534272229E+03  0.00000000000E+00 0.  1.
         21    1    1    2  502  501 -0.85589728440E+01  0.12356246477E+02  0.33426933014E+00  0.15034778985E+02  0.00000000000E+00 0.  1.
<mgrwt>
<rscale>  1 0.30000000E+03</rscale>
<asrwt>0</asrwt>
<pdfrwt beam="1">  1        1 0.11516432E+00 0.30000000E+03</pdfrwt>
<pdfrwt beam="2">0</pdfrwt>
<totfact> 0.27705350E+01</totfact>
</mgrwt>
</event>
<event>
 6    1  0.1939311E-004  0.3000000E+03  0.7818608E-02  0.1093470E+00
          1   -1    0    0  502    0  0.00000000000E+00  0.00000000000E+00  0.56210186276E+02  0.56210186276E+02  0.00000000000E+00 0.  1.
         13   -1    0    0    0    0 -0.00000000000E+00 -0.00000000000E+00 -0.10000000000E+04  0.10000000000E+04  0.00000000000E+00 0.  1.
    9000005    2    1    2  501    0  0.31633348370E+02  0.78235438152E+02 -0.89755448145E+03  0.95998566517E+03  0.32991965333E+03 0.  0.
         13    1    3    3    0    0  0.18614749700E+02  0.21260026876E+02  0.23699087213E+02  0.36880135356E+02  0.00000000000E+00 0.  1.
          3    1    3    3  501    0  0.13018598670E+02  0.56975411276E+02 -0.92125356866E+03  0.92310552981E+03  0.00000000000E+00 0.  1.
         21    1    1    2  502  501 -0.31633348370E+02 -0.78235438152E+02 -0.46235332278E+02  0.96224521109E+02  0.00000000000E+00 0.  1.
<mgrwt>
<rscale>  1 0.30000000E+03</rscale>
<asrwt>0</asrwt>
<pdfrwt beam="1">  1        1 0.20440111E+00 0.30000000E+03</pdfrwt>
<pdfrwt beam="2">0</pdfrwt>
<totfact> 0.97623368E+00</totfact>
</mgrwt>
</event>
<event>
 6    1  0.1939311E-004  0.3000000E+03  0.7818608E-02  0.1093470E+00
          3   -1    0    0  502    0  0.00000000000E+00  0.00000000000E+00  0.36443322829E+02  0.36443322829E+02  0.00000000000E+00 0.  1.
         13   -1    0    0    0    0 -0.00000000000E+00 -0.00000000000E+00 -0.10000000000E+04  0.10000000000E+04  0.00000000000E+00 0.  1.
    9000005    2    1    2  501    0 -0.70533866535E+01 -0.18464295667E+02 -0.96311092620E+03  0.10166726584E+04  0.32503839419E+03 0.  0.
         13    1    3    3    0    0  0.16913720973E+02  0.14774540029E+03 -0.33544446710E+03  0.36693019468E+03  0.00000000000E+00 0.  1.
          1    1    3    3  501    0 -0.23967107626E+02 -0.16620969596E+03 -0.62766645911E+03  0.64974246372E+03  0.00000000000E+00 0.  1.
         21    1    1    2  502  501  0.70533866535E+01  0.18464295667E+02 -0.44575096704E+00  0.19770664422E+02  0.00000000000E+00 0.  1.
<mgrwt>
<rscale>  1 0.30000000E+03</rscale>
<asrwt>0</asrwt>
<pdfrwt beam="1">  1        3 0.13252145E+00 0.30000000E+03</pdfrwt>
<pdfrwt beam="2">0</pdfrwt>
<totfact> 0.16524027E+00</totfact>
</mgrwt>
</event>
<event>
 6    1  0.1939311E-004  0.3000000E+03  0.7818608E-02  0.1093470E+00
          1   -1    0    0  502    0  0.00000000000E+00  0.00000000000E+00  0.28192768908E+02  0.28192768908E+02  0.00000000000E+00 0.  1.
         13   -1    0    0    0    0 -0.00000000000E+00 -0.00000000000E+00 -0.10000000000E+04  0.10000000000E+04  0.00000000000E+00 0.  1.
    9000005    2    1    2  501    0 -0.92564714951E+01  0.14807808289E+01 -0.96153860641E+03  0.10142888260E+04  0.32270335587E+03 0.  0.
         13    1    3    3    0    0 -0.11576355195E+03 -0.79837474647E+02 -0.22259940046E+03  0.26329776946E+03  0.00000000000E+00 0.  1.
          1    1    3    3  501    0  0.10650708046E+03  0.81318255476E+02 -0.73893920595E+03  0.75099105651E+03  0.00000000000E+00 0.  1.
         21    1    1    2  502  501  0.92564714951E+01 -0.14807808289E+01 -0.10268624678E+02  0.13903942936E+02  0.00000000000E+00 0. -1.
<mgrwt>
<rscale>  1 0.30000000E+03</rscale>
<asrwt>0</asrwt>
<pdfrwt beam="1">  1        1 0.10251938E+00 0.30000000E+03</pdfrwt>
<pdfrwt beam="2">0</pdfrwt>
<totfact> 0.32999489E+01</totfact>
</mgrwt>
</event>
<event>
 6    1  0.1939311E-004  0.3000000E+03  0.7818608E-02  0.1093470E+00
          1   -1    0    0  502    0  0.00000000000E+00  0.00000000000E+00  0.33627728177E+02  0.33627728177E+02  0.00000000000E+00 0.  1.
         13   -1    0    0    0    0 -0.00000000000E+00 -0.00000000000E+00 -0.10000000000E+04  0.10000000000E+04  0.00000000000E+00 0.  1.
    9000005    2    1    2  501    0 -0.11077753934E+02  0.63502213052E+01 -0.96354904776E+03  0.10205505520E+04  0.33605597716E+03 0.  0.
         13    1    3    3    0    0  0.94883318894E+02 -0.13133830591E+03 -0.49366853750E+03  0.51957792459E+03  0.00000000000E+00 0.  1.
          3    1    3    3  501    0 -0.10596107283E+03  0.13768852722E+03 -0.46988051027E+03  0.50097262741E+03  0.00000000000E+00 0.  1.
         21    1    1    2  502  501  0.11077753934E+02 -0.63502213052E+01 -0.28232240601E+01  0.13077176184E+02  0.00000000000E+00 0. -1.
<mgrwt>
<rscale>  1 0.30000000E+03</rscale>
<asrwt>0</asrwt>
<pdfrwt beam="1">  1        1 0.12228291E+00 0.30000000E+03</pdfrwt>
<pdfrwt beam="2">0</pdfrwt>
<totfact> 0.25238408E+01</totfact>
</mgrwt>
</event>
<event>
 6    1  0.1939311E-004  0.3000000E+03  0.7818608E-02  0.1093470E+00
          1   -1    0    0  502    0  0.00000000000E+00  0.00000000000E+00  0.37104422994E+02  0.37104422994E+02  0.00000000000E+00 0.  1.
         13   -1    0    0    0    0 -0.00000000000E+00 -0.00000000000E+00 -0.10000000000E+04  0.10000000000E+04  0.00000000000E+00 0.  1.
    9000005    2    1    2  501    0 -0.24724240769E+02  0.25602453806E+02 -0.93585030146E+03  0.99240296159E+03  0.32830028588E+03 0.  0.
         13    1    3    3    0    0  0.12281148092E+03 -0.60781441730E+02 -0.24504463295E+03  0.28075597170E+03  0.00000000000E+00 0.  1.
          1    1    3    3  501    0 -0.14753572169E+03  0.86383895536E+02 -0.69080566850E+03  0.71164698989E+03  0.00000000000E+00 0.  1.
         21    1    1    2  502  501  0.24724240769E+02 -0.25602453806E+02 -0.27045275549E+02  0.44701461408E+02  0.00000000000E+00 0.  1.
<mgrwt>
<rscale>  1 0.30000000E+03</rscale>
<asrwt>0</asrwt>
<pdfrwt beam="1">  1        1 0.13492546E+00 0.30000000E+03</pdfrwt>
<pdfrwt beam="2">0</pdfrwt>
<totfact> 0.21522227E+01</totfact>
</mgrwt>
</event>
<event>
 6    1  0.1939311E-004  0.3000000E+03  0.7818608E-02  0.1093470E+00
          1   -1    0    0  502    0  0.00000000000E+00  0.00000000000E+00  0.49217914569E+02  0.49217914569E+02  0.00000000000E+00 0.  1.
         13   -1    0    0    0    0 -0.00000000000E+00 -0.00000000000E+00 -0.10000000000E+04  0.10000000000E+04  0.00000000000E+00 0.  1.
    9000005    2    1    2  501    0 -0.67471625683E+01 -0.14406138477E+02 -0.97027307704E+03  0.10240592226E+04  0.32713053405E+03 0.  0.
         13    1    3    3    0    0  0.36967494733E+02 -0.96446051568E+02 -0.90403075667E+03  0.90991210869E+03  0.00000000000E+00 0.  1.
          3    1    3    3  501    0 -0.43714657301E+02  0.82039913092E+02 -0.66242320363E+02  0.11414711389E+03  0.00000000000E+00 0.  1.
         21    1    1    2  502  501  0.67471625683E+01  0.14406138477E+02  0.19490991607E+02  0.25158691985E+02  0.00000000000E+00 0.  1.
<mgrwt>
<rscale>  1 0.30000000E+03</rscale>
<asrwt>0</asrwt>
<pdfrwt beam="1">  1        1 0.17897461E+00 0.30000000E+03</pdfrwt>
<pdfrwt beam="2">0</pdfrwt>
<totfact> 0.12921249E+01</totfact>
</mgrwt>
</event>
<event>
 6    1  0.1939311E-004  0.3000000E+03  0.7818608E-02  0.1093470E+00
          1   -1    0    0  502    0  0.00000000000E+00  0.00000000000E+00  0.26526865185E+02  0.26526865185E+02  0.00000000000E+00 0.  1.
         13   -1    0    0    0    0 -0.00000000000E+00 -0.00000000000E+00 -0.10000000000E+04  0.10000000000E+04  0.00000000000E+00 0.  1.
    9000005    2    1    2  501    0 -0.79866907360E+01 -0.52190148888E+01 -0.95386197389E+03  0.10047180831E+04  0.31545956291E+03 0.  0.
         13    1    3    3    0    0 -0.10235719387E+03 -0.10581745851E+03 -0.27442807195E+03  0.31142430274E+03  0.00000000000E+00 0.  1.
          3    1    3    3  501    0  0.94370503129E+02  0.10059844362E+03 -0.67943390194E+03  0.69329378032E+03  0.00000000000E+00 0.  1.
         21    1    1    2  502  501  0.79866907360E+01  0.52190148888E+01 -0.19611160923E+02  0.21808782132E+02  0.00000000000E+00 0. -1.
<mgrwt>
<rscale>  1 0.30000000E+03</rscale>
<asrwt>0</asrwt>
<pdfrwt beam="1">  1        1 0.96461531E-01 0.30000000E+03</pdfrwt>
<pdfrwt beam="2">0</pdfrwt>
<totfact> 0.36067713E+01</totfact>
</mgrwt>
</event>
<event>
 6    1  0.1939311E-004  0.3000000E+03  0.7818608E-02  0.1093470E+00
          1   -1    0    0  502    0  0.00000000000E+00  0.00000000000E+00  0.39596455433E+02  0.39596455433E+02  0.00000000000E+00 0.  1.
         13   -1    0    0    0    0 -0.00000000000E+00 -0.00000000000E+00 -0.10000000000E+04  0.10000000000E+04  0.00000000000E+00 0.  1.
    9000005    2    1    2  501    0 -0.16158205323E+02 -0.64862889212E+01 -0.96734957559E+03  0.10208506055E+04  0.32568020787E+03 0.  0.
         13    1    3    3    0    0  0.44005814249E+02  0.42030038803E+02 -0.93514170518E+03  0.93711954660E+03  0.00000000000E+00 0.  1.
          1    1    3    3  501    0 -0.60164019572E+02 -0.48516327724E+02 -0.32207870407E+02  0.83731058891E+02  0.00000000000E+00 0.  1.
         21    1    1    2  502  501  0.16158205323E+02  0.64862889212E+01  0.69460310195E+01  0.18745849945E+02  0.00000000000E+00 0.  1.
<mgrwt>
<rscale>  1 0.30000000E+03</rscale>
<asrwt>0</asrwt>
<pdfrwt beam="1">  1        1 0.14398741E+00 0.30000000E+03</pdfrwt>
<pdfrwt beam="2">0</pdfrwt>
<totfact> 0.19287232E+01</totfact>
</mgrwt>
</event>
<event>
 6    1  0.1939311E-004  0.3000000E+03  0.7818608E-02  0.1093470E+00
          1   -1    0    0  502    0  0.00000000000E+00  0.00000000000E+00  0.83541743435E+02  0.83541743435E+02  0.00000000000E+00 0.  1.
         13   -1    0    0    0    0 -0.00000000000E+00 -0.00000000000E+00 -0.10000000000E+04  0.10000000000E+04  0.00000000000E+00 0.  1.
    9000005    2    1    2  501    0  0.40653386077E+01  0.15660609807E+02 -0.97103766814E+03  0.10266146511E+04  0.33280881471E+03 0.  0.
         13    1    3    3    0    0  0.65291127330E+02 -0.14416573161E+03 -0.54407412111E+03  0.56662451301E+03  0.00000000000E+00 0.  1.
          1    1    3    3  501    0 -0.61225788722E+02  0.15982634141E+03 -0.42696354703E+03  0.45999013806E+03  0.00000000000E+00 0.  1.
         21    1    1    2  502  501 -0.40653386077E+01 -0.15660609807E+02  0.54579411578E+02  0.56927092371E+02  0.00000000000E+00 0.  1.
<mgrwt>
<rscale>  1 0.30000000E+03</rscale>
<asrwt>0</asrwt>
<pdfrwt beam="1">  1        1 0.30378880E+00 0.30000000E+03</pdfrwt>
<pdfrwt beam="2">0</pdfrwt>
<totfact> 0.33332744E+00</totfact>
</mgrwt>
</event>
<event>
 6    1  0.1939311E-004  0.3000000E+03  0.7818608E-02  0.1093470E+00
          1   -1    0    0  502    0  0.00000000000E+00  0.00000000000E+00  0.35328574793E+02  0.35328574793E+02  0.00000000000E+00 0.  1.
         13   -1    0    0    0    0 -0.00000000000E+00 -0.00000000000E+00 -0.10000000000E+04  0.10000000000E+04  0.00000000000E+00 0.  1.
    9000005    2    1    2  501    0 -0.43899901354E+01  0.11871538600E+02 -0.96182802281E+03  0.10223558966E+04  0.34632099045E+03 0.  0.
         13    1    3    3    0    0  0.48817220768E+02 -0.10842771599E+03 -0.82132291735E+03  0.82988615195E+03  0.00000000000E+00 0.  1.
          1    1    3    3  501    0 -0.53207210904E+02  0.12029925459E+03 -0.14050510546E+03  0.19246974466E+03  0.00000000000E+00 0.  1.
         21    1    1    2  502  501  0.43899901354E+01 -0.11871538600E+02 -0.28434023983E+01  0.12972678186E+02  0.00000000000E+00 0.  1.
<mgrwt>
<rscale>  1 0.30000000E+03</rscale>
<asrwt>0</asrwt>
<pdfrwt beam="1">  1        1 0.12846782E+00 0.30000000E+03</pdfrwt>
<pdfrwt beam="2">0</pdfrwt>
<totfact> 0.23324815E+01</totfact>
</mgrwt>
</event>
<event>
 6    1  0.1939311E-004  0.3000000E+03  0.7818608E-02  0.1093470E+00
          1   -1    0    0  502    0  0.00000000000E+00  0.00000000000E+00  0.64440891733E+02  0.64440891733E+02  0.00000000000E+00 0.  1.
         13   -1    0    0    0    0 -0.00000000000E+00 -0.00000000000E+00 -0.10000000000E+04  0.10000000000E+04  0.00000000000E+00 0.  1.
    9000005    2    1    2  501    0 -0.32347366104E+02  0.66585232059E+02 -0.93054830332E+03  0.99024484475E+03  0.33043117667E+03 0.  0.
         13    1    3    3    0    0  0.25294563906E+02 -0.12704590554E+03 -0.46594766562E+03  0.48361937945E+03  0.00000000000E+00 0.  1.
          1    1    3    3  501    0 -0.57641930009E+02  0.19363113760E+03 -0.46460063769E+03  0.50662546530E+03  0.00000000000E+00 0.  1.
         21    1    1    2  502  501  0.32347366104E+02 -0.66585232059E+02 -0.50108049511E+01  0.74196046987E+02  0.00000000000E+00 0.  1.
<mgrwt>
<rscale>  1 0.30000000E+03</rscale>
<asrwt>0</asrwt>
<pdfrwt beam="1">  1        1 0.23433101E+00 0.30000000E+03</pdfrwt>
<pdfrwt beam="2">0</pdfrwt>
<totfact> 0.70629751E+00</totfact>
</mgrwt>
</event>
<event>
 6    1  0.1939311E-004  0.3000000E+03  0.7818608E-02  0.1093470E+00
          1   -1    0    0  502    0  0.00000000000E+00  0.00000000000E+00  0.43702675838E+02  0.43702675838E+02  0.00000000000E+00 0.  1.
         13   -1    0    0    0    0 -0.00000000000E+00 -0.00000000000E+00 -0.10000000000E+04  0.10000000000E+04  0.00000000000E+00 0.  1.
    9000005    2    1    2  501    0  0.11171752868E+02 -0.19623847912E+02 -0.96597399425E+03  0.10191355960E+04  0.32407052003E+03 0.  0.
         13    1    3    3    0    0  0.14939034855E+03  0.44416682982E+02 -0.64907440648E+03  0.66752370978E+03  0.00000000000E+00 0.  1.
          1    1    3    3  501    0 -0.13821859568E+03 -0.64040530894E+02 -0.31689958777E+03  0.35161188620E+03  0.00000000000E+00 0.  1.
         21    1    1    2  502  501 -0.11171752868E+02  0.19623847912E+02  0.96766700867E+01  0.24567079863E+02  0.00000000000E+00 0.  1.
<mgrwt>
<rscale>  1 0.30000000E+03</rscale>
<asrwt>0</asrwt>
<pdfrwt beam="1">  1        1 0.15891916E+00 0.30000000E+03</pdfrwt>
<pdfrwt beam="2">0</pdfrwt>
<totfact> 0.16202335E+01</totfact>
</mgrwt>
</event>
<event>
 6    1  0.1939311E-004  0.3000000E+03  0.7818608E-02  0.1093470E+00
          1   -1    0    0  502    0  0.00000000000E+00  0.00000000000E+00  0.67745685395E+02  0.67745685395E+02  0.00000000000E+00 0.  1.
         13   -1    0    0    0    0 -0.00000000000E+00 -0.00000000000E+00 -0.10000000000E+04  0.10000000000E+04  0.00000000000E+00 0.  1.
    9000005    2    1    2  501    0  0.61596875598E+01  0.21973489573E+02 -0.95899340661E+03  0.10325923778E+04  0.38217520686E+03 0.  0.
         13    1    3    3    0    0 -0.38649004469E+02 -0.16793066116E+03 -0.59686967468E+03  0.62124702097E+03  0.00000000000E+00 0.  1.
          3    1    3    3  501    0  0.44808692029E+02  0.18990415074E+03 -0.36212373193E+03  0.41134535682E+03  0.00000000000E+00 0.  1.
         21    1    1    2  502  501 -0.61596875598E+01 -0.21973489573E+02  0.26739092005E+02  0.35153307612E+02  0.00000000000E+00 0. -1.
<mgrwt>
<rscale>  1 0.30000000E+03</rscale>
<asrwt>0</asrwt>
<pdfrwt beam="1">  1        1 0.24634847E+00 0.30000000E+03</pdfrwt>
<pdfrwt beam="2">0</pdfrwt>
<totfact> 0.62045028E+00</totfact>
</mgrwt>
</event>
<event>
 6    1  0.1939311E-004  0.3000000E+03  0.7818608E-02  0.1093470E+00
          1   -1    0    0  502    0  0.00000000000E+00  0.00000000000E+00  0.25847394485E+02  0.25847394485E+02  0.00000000000E+00 0.  1.
         13   -1    0    0    0    0 -0.00000000000E+00 -0.00000000000E+00 -0.10000000000E+04  0.10000000000E+04  0.00000000000E+00 0.  1.
    9000005    2    1    2  501    0  0.50033839297E+02 -0.23927965857E+02 -0.92151509205E+03  0.94938406701E+03  0.22150419678E+03 0.  0.
         13    1    3    3    0    0  0.50537559635E+02  0.76985523655E+02 -0.69918055200E+03  0.70521929928E+03  0.00000000000E+00 0.  1.
          3    1    3    3  501    0 -0.50372033796E+00 -0.10091348951E+03 -0.22233454006E+03  0.24416476773E+03  0.00000000000E+00 0.  1.
         21    1    1    2  502  501 -0.50033839297E+02  0.23927965857E+02 -0.52637513461E+02  0.76463327472E+02  0.00000000000E+00 0.  1.
<mgrwt>
<rscale>  1 0.30000000E+03</rscale>
<asrwt>0</asrwt>
<pdfrwt beam="1">  1        1 0.93990724E-01 0.30000000E+03</pdfrwt>
<pdfrwt beam="2">0</pdfrwt>
<totfact> 0.37441545E+01</totfact>
</mgrwt>
</event>
<event>
 6    1  0.1939311E-004  0.3000000E+03  0.7818608E-02  0.1093470E+00
          1   -1    0    0  502    0  0.00000000000E+00  0.00000000000E+00  0.29224371271E+02  0.29224371271E+02  0.00000000000E+00 0.  1.
         13   -1    0    0    0    0 -0.00000000000E+00 -0.00000000000E+00 -0.10000000000E+04  0.10000000000E+04  0.00000000000E+00 0.  1.
    9000005    2    1    2  501    0  0.22983018139E+01  0.15086933220E+02 -0.94905995170E+03  0.10026825482E+04  0.32314795793E+03 0.  0.
         13    1    3    3    0    0 -0.13732677966E+03 -0.53846344249E+02 -0.63793316736E+03  0.65476468996E+03  0.00000000000E+00 0.  1.
          1    1    3    3  501    0  0.13962508148E+03  0.68933277469E+02 -0.31112678434E+03  0.34791785820E+03  0.00000000000E+00 0.  1.
         21    1    1    2  502  501 -0.22983018139E+01 -0.15086933220E+02 -0.21715677028E+02  0.26541823110E+02  0.00000000000E+00 0. -1.
<mgrwt>
<rscale>  1 0.30000000E+03</rscale>
<asrwt>0</asrwt>
<pdfrwt beam="1">  1        1 0.10627067E+00 0.30000000E+03</pdfrwt>
<pdfrwt beam="2">0</pdfrwt>
<totfact> 0.31287573E+01</totfact>
</mgrwt>
</event>
<event>
 6    1  0.1939311E-004  0.3000000E+03  0.7818608E-02  0.1093470E+00
          1   -1    0    0  502    0  0.00000000000E+00  0.00000000000E+00  0.26463640160E+02  0.26463640160E+02  0.00000000000E+00 0.  1.
         13   -1    0    0    0    0 -0.00000000000E+00 -0.00000000000E+00 -0.10000000000E+04  0.10000000000E+04  0.00000000000E+00 0.  1.
    9000005    2    1    2  501    0  0.12009736726E+02 -0.80119814981E+01 -0.95005386499E+03  0.99889820550E+03  0.30819937206E+03 0.  0.
         13    1    3    3    0    0 -0.12010517821E+03 -0.74087054044E+02 -0.64109432538E+03  0.65644198482E+03  0.00000000000E+00 0.  1.
          3    1    3    3  501    0  0.13211491493E+03  0.66075072546E+02 -0.30895953962E+03  0.34245622068E+03  0.00000000000E+00 0.  1.
         21    1    1    2  502  501 -0.12009736726E+02  0.80119814981E+01 -0.23482494846E+02  0.27565434659E+02  0.00000000000E+00 0.  1.
<mgrwt>
<rscale>  1 0.30000000E+03</rscale>
<asrwt>0</asrwt>
<pdfrwt beam="1">  1        1 0.96231622E-01 0.30000000E+03</pdfrwt>
<pdfrwt beam="2">0</pdfrwt>
<totfact> 0.36192354E+01</totfact>
</mgrwt>
</event>
<event>
 6    1  0.1939311E-004  0.3000000E+03  0.7818608E-02  0.1093470E+00
          1   -1    0    0  502    0  0.00000000000E+00  0.00000000000E+00  0.44305379795E+02  0.44305379795E+02  0.00000000000E+00 0.  1.
         13   -1    0    0    0    0 -0.00000000000E+00 -0.00000000000E+00 -0.10000000000E+04  0.10000000000E+04  0.00000000000E+00 0.  1.
    9000005    2    1    2  501    0 -0.14817614712E+02 -0.61701385252E+01 -0.95979311769E+03  0.10277394510E+04  0.36713474103E+03 0.  0.
         13    1    3    3    0    0 -0.69401884800E+02  0.16004831935E+03 -0.63849543484E+03  0.66189765557E+03  0.00000000000E+00 0.  1.
          3    1    3    3  501    0  0.54584270087E+02 -0.16621845788E+03 -0.32129768285E+03  0.36584179543E+03  0.00000000000E+00 0.  1.
         21    1    1    2  502  501  0.14817614712E+02  0.61701385252E+01  0.40984974827E+01  0.16565928794E+02  0.00000000000E+00 0.  1.
<mgrwt>
<rscale>  1 0.30000000E+03</rscale>
<asrwt>0</asrwt>
<pdfrwt beam="1">  1        1 0.16111081E+00 0.30000000E+03</pdfrwt>
<pdfrwt beam="2">0</pdfrwt>
<totfact> 0.15801201E+01</totfact>
</mgrwt>
</event>
<event>
 6    1  0.1939311E-004  0.3000000E+03  0.7818608E-02  0.1093470E+00
          1   -1    0    0  502    0  0.00000000000E+00  0.00000000000E+00  0.36599103958E+02  0.36599103958E+02  0.00000000000E+00 0.  1.
         13   -1    0    0    0    0 -0.00000000000E+00 -0.00000000000E+00 -0.10000000000E+04  0.10000000000E+04  0.00000000000E+00 0.  1.
    9000005    2    1    2  501    0  0.28108977490E+02  0.30522087054E+02 -0.93196599782E+03  0.98454273797E+03  0.31470949999E+03 0.  0.
         13    1    3    3    0    0 -0.35072011024E+02  0.81168392396E+02 -0.55612595175E+02  0.10445628092E+03  0.00000000000E+00 0.  1.
          1    1    3    3  501    0  0.63180988514E+02 -0.50646305342E+02 -0.87635340265E+03  0.88008645705E+03  0.00000000000E+00 0.  1.
         21    1    1    2  502  501 -0.28108977490E+02 -0.30522087054E+02 -0.31434898220E+02  0.52056365987E+02  0.00000000000E+00 0.  1.
<mgrwt>
<rscale>  1 0.30000000E+03</rscale>
<asrwt>0</asrwt>
<pdfrwt beam="1">  1        1 0.13308793E+00 0.30000000E+03</pdfrwt>
<pdfrwt beam="2">0</pdfrwt>
<totfact> 0.22015952E+01</totfact>
</mgrwt>
</event>
<event>
 6    1  0.1939311E-004  0.3000000E+03  0.7818608E-02  0.1093470E+00
          1   -1    0    0  502    0  0.00000000000E+00  0.00000000000E+00  0.31749553380E+02  0.31749553380E+02  0.00000000000E+00 0.  1.
         13   -1    0    0    0    0 -0.00000000000E+00 -0.00000000000E+00 -0.10000000000E+04  0.10000000000E+04  0.00000000000E+00 0.  1.
    9000005    2    1    2  501    0 -0.35320398927E+01  0.13054662914E+02 -0.96348436083E+03  0.10174102681E+04  0.32655572338E+03 0.  0.
         13    1    3    3    0    0 -0.66289712229E+02  0.14303133608E+03 -0.30544888395E+03  0.34373145006E+03  0.00000000000E+00 0.  1.
          3    1    3    3  501    0  0.62757672336E+02 -0.12997667317E+03 -0.65803547687E+03  0.67367881801E+03  0.00000000000E+00 0.  1.
         21    1    1    2  502  501  0.35320398927E+01 -0.13054662914E+02 -0.47660857920E+01  0.14339285317E+02  0.00000000000E+00 0.  1.
<mgrwt>
<rscale>  1 0.30000000E+03</rscale>
<asrwt>0</asrwt>
<pdfrwt beam="1">  1        1 0.11545316E+00 0.30000000E+03</pdfrwt>
<pdfrwt beam="2">0</pdfrwt>
<totfact> 0.27598962E+01</totfact>
</mgrwt>
</event>
<event>
 6    1  0.1939311E-004  0.3000000E+03  0.7818608E-02  0.1093470E+00
          1   -1    0    0  502    0  0.00000000000E+00  0.00000000000E+00  0.50382458808E+02  0.50382458808E+02  0.00000000000E+00 0.  1.
         13   -1    0    0    0    0 -0.00000000000E+00 -0.00000000000E+00 -0.10000000000E+04  0.10000000000E+04  0.00000000000E+00 0.  1.
    9000005    2    1    2  501    0  0.22906450195E+02  0.50570979707E+01 -0.96790483190E+03  0.10206384728E+04  0.32297499733E+03 0.  0.
         13    1    3    3    0    0  0.12207570692E+03  0.98619202226E+02 -0.29587721546E+03  0.33492021721E+03  0.00000000000E+00 0.  1.
          3    1    3    3  501    0 -0.99169256724E+02 -0.93562104255E+02 -0.67202761644E+03  0.68571825562E+03  0.00000000000E+00 0.  1.
         21    1    1    2  502  501 -0.22906450195E+02 -0.50570979707E+01  0.18287290709E+02  0.29743985979E+02  0.00000000000E+00 0. -1.
<mgrwt>
<rscale>  1 0.30000000E+03</rscale>
<asrwt>0</asrwt>
<pdfrwt beam="1">  1        1 0.18320933E+00 0.30000000E+03</pdfrwt>
<pdfrwt beam="2">0</pdfrwt>
<totfact> 0.12326675E+01</totfact>
</mgrwt>
</event>
<event>
 6    1  0.1939311E-004  0.3000000E+03  0.7818608E-02  0.1093470E+00
          1   -1    0    0  502    0  0.00000000000E+00  0.00000000000E+00  0.30319594242E+02  0.30319594242E+02  0.00000000000E+00 0.  1.
         13   -1    0    0    0    0 -0.00000000000E+00 -0.00000000000E+00 -0.10000000000E+04  0.10000000000E+04  0.00000000000E+00 0.  1.
    9000005    2    1    2  501    0 -0.94934234830E+01  0.11101845779E+02 -0.95112668462E+03  0.10067056865E+04  0.32954664774E+03 0.  0.
         13    1    3    3    0    0 -0.12708406058E+03 -0.66257752583E+02 -0.73460078613E+03  0.74845090902E+03  0.00000000000E+00 0.  1.
          3    1    3    3  501    0  0.11759063710E+03  0.77359598362E+02 -0.21652589849E+03  0.25825477752E+03  0.00000000000E+00 0.  1.
         21    1    1    2  502  501  0.94934234830E+01 -0.11101845779E+02 -0.18553721134E+02  0.23613907704E+02  0.00000000000E+00 0.  1.
<mgrwt>
<rscale>  1 0.30000000E+03</rscale>
<asrwt>0</asrwt>
<pdfrwt beam="1">  1        1 0.11025330E+00 0.30000000E+03</pdfrwt>
<pdfrwt beam="2">0</pdfrwt>
<totfact> 0.29606614E+01</totfact>
</mgrwt>
</event>
<event>
 6    1  0.1939311E-004  0.3000000E+03  0.7818608E-02  0.1093470E+00
          1   -1    0    0  502    0  0.00000000000E+00  0.00000000000E+00  0.15903321243E+02  0.15903321243E+02  0.00000000000E+00 0.  1.
         13   -1    0    0    0    0 -0.00000000000E+00 -0.00000000000E+00 -0.10000000000E+04  0.10000000000E+04  0.00000000000E+00 0.  1.
    9000005    2    1    2  501    0 -0.85647583253E+01  0.10595232960E+02 -0.95534938336E+03  0.98409104312E+03  0.23570558504E+03 0.  0.
         13    1    3    3    0    0  0.35221614535E+02  0.41149670861E+02 -0.40368148192E+02  0.67553274761E+02  0.00000000000E+00 0.  1.
          3    1    3    3  501    0 -0.43786372860E+02 -0.30554437901E+02 -0.91498123517E+03  0.91653776836E+03  0.00000000000E+00 0.  1.
         21    1    1    2  502  501  0.85647583253E+01 -0.10595232960E+02 -0.28747295394E+02  0.31812278119E+02  0.00000000000E+00 0.  1.
<mgrwt>
<rscale>  1 0.30000000E+03</rscale>
<asrwt>0</asrwt>
<pdfrwt beam="1">  1        1 0.57830381E-01 0.30000000E+03</pdfrwt>
<pdfrwt beam="2">0</pdfrwt>
<totfact> 0.72819146E+01</totfact>
</mgrwt>
</event>
<event>
 6    1  0.1939311E-004  0.3000000E+03  0.7818608E-02  0.1093470E+00
          1   -1    0    0  502    0  0.00000000000E+00  0.00000000000E+00  0.30727741579E+02  0.30727741579E+02  0.00000000000E+00 0.  1.
         13   -1    0    0    0    0 -0.00000000000E+00 -0.00000000000E+00 -0.10000000000E+04  0.10000000000E+04  0.00000000000E+00 0.  1.
    9000005    2    1    2  501    0 -0.15516544691E+02  0.10753137523E+02 -0.96900152030E+03  0.10118474231E+04  0.29071441005E+03 0.  0.
         13    1    3    3    0    0  0.13111488352E+03  0.48288812533E+01 -0.61113339276E+03  0.62505876086E+03  0.00000000000E+00 0.  1.
          3    1    3    3  501    0 -0.14663142821E+03  0.59242562701E+01 -0.35786812754E+03  0.38678866227E+03  0.00000000000E+00 0.  1.
         21    1    1    2  502  501  0.15516544691E+02 -0.10753137523E+02 -0.27073811583E+00  0.18880318453E+02  0.00000000000E+00 0.  1.
<mgrwt>
<rscale>  1 0.30000000E+03</rscale>
<asrwt>0</asrwt>
<pdfrwt beam="1">  1        1 0.11173748E+00 0.30000000E+03</pdfrwt>
<pdfrwt beam="2">0</pdfrwt>
<totfact> 0.29012992E+01</totfact>
</mgrwt>
</event>
<event>
 6    1  0.1939311E-004  0.3000000E+03  0.7818608E-02  0.1093470E+00
          1   -1    0    0  502    0  0.00000000000E+00  0.00000000000E+00  0.32236446126E+02  0.32236446126E+02  0.00000000000E+00 0.  1.
         13   -1    0    0    0    0 -0.00000000000E+00 -0.00000000000E+00 -0.10000000000E+04  0.10000000000E+04  0.00000000000E+00 0.  1.
    9000005    2    1    2  501    0  0.55777746747E+01 -0.33622069992E+02 -0.91261983801E+03  0.96741064447E+03  0.31913450322E+03 0.  0.
         13    1    3    3    0    0  0.14723487418E+03  0.45815114412E+02 -0.36553364829E+03  0.39672658207E+03  0.00000000000E+00 0.  1.
          3    1    3    3  501    0 -0.14165709950E+03 -0.79437184404E+02 -0.54708618972E+03  0.57068406241E+03  0.00000000000E+00 0.  1.
         21    1    1    2  502  501 -0.55777746747E+01  0.33622069992E+02 -0.55143715861E+02  0.64825801652E+02  0.00000000000E+00 0. -1.
<mgrwt>
<rscale>  1 0.30000000E+03</rscale>
<asrwt>0</asrwt>
<pdfrwt beam="1">  1        1 0.11722369E+00 0.30000000E+03</pdfrwt>
<pdfrwt beam="2">0</pdfrwt>
<totfact> 0.26959094E+01</totfact>
</mgrwt>
</event>
<event>
 6    1  0.1939311E-004  0.3000000E+03  0.7818608E-02  0.1093470E+00
          1   -1    0    0  502    0  0.00000000000E+00  0.00000000000E+00  0.31504534286E+02  0.31504534286E+02  0.00000000000E+00 0.  1.
         13   -1    0    0    0    0 -0.00000000000E+00 -0.00000000000E+00 -0.10000000000E+04  0.10000000000E+04  0.00000000000E+00 0.  1.
    9000005    2    1    2  501    0 -0.15419581717E+02  0.86838156182E+01 -0.94283021229E+03  0.10003295862E+04  0.33379230023E+03 0.  0.
         13    1    3    3    0    0 -0.17619011701E+02  0.16981674341E+03 -0.42521449845E+03  0.45820904138E+03  0.00000000000E+00 0.  1.
          1    1    3    3  501    0  0.21994299845E+01 -0.16113292779E+03 -0.51761571384E+03  0.54212054483E+03  0.00000000000E+00 0.  1.
         21    1    1    2  502  501  0.15419581717E+02 -0.86838156182E+01 -0.25665253424E+02  0.31174948073E+02  0.00000000000E+00 0.  1.
<mgrwt>
<rscale>  1 0.30000000E+03</rscale>
<asrwt>0</asrwt>
<pdfrwt beam="1">  1        1 0.11456218E+00 0.30000000E+03</pdfrwt>
<pdfrwt beam="2">0</pdfrwt>
<totfact> 0.27928986E+01</totfact>
</mgrwt>
</event>
<event>
 6    1  0.1939311E-004  0.3000000E+03  0.7818608E-02  0.1093470E+00
          1   -1    0    0  502    0  0.00000000000E+00  0.00000000000E+00  0.33317551449E+02  0.33317551449E+02  0.00000000000E+00 0.  1.
         13   -1    0    0    0    0 -0.00000000000E+00 -0.00000000000E+00 -0.10000000000E+04  0.10000000000E+04  0.00000000000E+00 0.  1.
    9000005    2    1    2  501    0  0.44904802611E+02  0.65694253545E+01 -0.89992566139E+03  0.95259539044E+03  0.30905045413E+03 0.  0.
         13    1    3    3    0    0 -0.14836591869E+02 -0.48290447330E+02 -0.15254051263E+01  0.50541256636E+02  0.00000000000E+00 0.  1.
          3    1    3    3  501    0  0.59741394480E+02  0.54859872684E+02 -0.89840025627E+03  0.90205413380E+03  0.00000000000E+00 0.  1.
         21    1    1    2  502  501 -0.44904802611E+02 -0.65694253545E+01 -0.66756787156E+02  0.80722161012E+02  0.00000000000E+00 0.  1.
<mgrwt>
<rscale>  1 0.30000000E+03</rscale>
<asrwt>0</asrwt>
<pdfrwt beam="1">  1        1 0.12115499E+00 0.30000000E+03</pdfrwt>
<pdfrwt beam="2">0</pdfrwt>
<totfact> 0.25609010E+01</totfact>
</mgrwt>
</event>
<event>
 6    1  0.1939311E-004  0.3000000E+03  0.7818608E-02  0.1093470E+00
          3   -1    0    0  502    0  0.00000000000E+00  0.00000000000E+00  0.30814632246E+02  0.30814632246E+02  0.00000000000E+00 0.  1.
         13   -1    0    0    0    0 -0.00000000000E+00 -0.00000000000E+00 -0.10000000000E+04  0.10000000000E+04  0.00000000000E+00 0.  1.
    9000005    2    1    2  501    0  0.34301906385E+02  0.81780830673E+01 -0.83695004401E+03  0.89395820138E+03  0.31214161501E+03 0.  0.
         13    1    3    3    0    0  0.12011537357E+03 -0.41935236603E+01 -0.78228292402E+03  0.79146185115E+03  0.00000000000E+00 0.  1.
          3    1    3    3  501    0 -0.85813467182E+02  0.12371606728E+02 -0.54667119991E+02  0.10249635023E+03  0.00000000000E+00 0.  1.
         21    1    1    2  502  501 -0.34301906385E+02 -0.81780830673E+01 -0.13223532374E+03  0.13685643087E+03  0.00000000000E+00 0. -1.
<mgrwt>
<rscale>  1 0.30000000E+03</rscale>
<asrwt>0</asrwt>
<pdfrwt beam="1">  1        3 0.11205344E+00 0.30000000E+03</pdfrwt>
<pdfrwt beam="2">0</pdfrwt>
<totfact> 0.28554013E+00</totfact>
</mgrwt>
</event>
<event>
 6    1  0.1939311E-004  0.3000000E+03  0.7818608E-02  0.1093470E+00
          1   -1    0    0  502    0  0.00000000000E+00  0.00000000000E+00  0.41153864819E+02  0.41153864819E+02  0.00000000000E+00 0.  1.
         13   -1    0    0    0    0 -0.00000000000E+00 -0.00000000000E+00 -0.10000000000E+04  0.10000000000E+04  0.00000000000E+00 0.  1.
    9000005    2    1    2  501    0  0.36508314672E+02  0.19181655139E+01 -0.95456439980E+03  0.10043453107E+04  0.31012863998E+03 0.  0.
         13    1    3    3    0    0  0.70286412423E+02  0.13999119686E+03 -0.35266222154E+03  0.38588645670E+03  0.00000000000E+00 0.  1.
          3    1    3    3  501    0 -0.33778097752E+02 -0.13807303134E+03 -0.60190217827E+03  0.61845885399E+03  0.00000000000E+00 0.  1.
         21    1    1    2  502  501 -0.36508314672E+02 -0.19181655139E+01 -0.42817353782E+01  0.36808554128E+02  0.00000000000E+00 0.  1.
<mgrwt>
<rscale>  1 0.30000000E+03</rscale>
<asrwt>0</asrwt>
<pdfrwt beam="1">  1        1 0.14965073E+00 0.30000000E+03</pdfrwt>
<pdfrwt beam="2">0</pdfrwt>
<totfact> 0.18038605E+01</totfact>
</mgrwt>
</event>
<event>
 6    1  0.1939311E-004  0.3000000E+03  0.7818608E-02  0.1093470E+00
          1   -1    0    0  502    0  0.00000000000E+00  0.00000000000E+00  0.28284114724E+02  0.28284114724E+02  0.00000000000E+00 0.  1.
         13   -1    0    0    0    0 -0.00000000000E+00 -0.00000000000E+00 -0.10000000000E+04  0.10000000000E+04  0.00000000000E+00 0.  1.
    9000005    2    1    2  501    0 -0.23716546087E+01 -0.11924453106E+02 -0.95228521876E+03  0.10053632044E+04  0.32211832861E+03 0.  0.
         13    1    3    3    0    0  0.15255041723E+02  0.12508942916E+03 -0.17358055323E+03  0.21450009334E+03  0.00000000000E+00 0.  1.
          3    1    3    3  501    0 -0.17626696331E+02 -0.13701388226E+03 -0.77870466553E+03  0.79086311109E+03  0.00000000000E+00 0.  1.
         21    1    1    2  502  501  0.23716546087E+01  0.11924453106E+02 -0.19430666514E+02  0.22920910292E+02  0.00000000000E+00 0.  1.
<mgrwt>
<rscale>  1 0.30000000E+03</rscale>
<asrwt>0</asrwt>
<pdfrwt beam="1">  1        1 0.10285154E+00 0.30000000E+03</pdfrwt>
<pdfrwt beam="2">0</pdfrwt>
<totfact> 0.32842481E+01</totfact>
</mgrwt>
</event>
<event>
 6    1  0.1939311E-004  0.3000000E+03  0.7818608E-02  0.1093470E+00
          1   -1    0    0  502    0  0.00000000000E+00  0.00000000000E+00  0.28450742556E+02  0.28450742556E+02  0.00000000000E+00 0.  1.
         13   -1    0    0    0    0 -0.00000000000E+00 -0.00000000000E+00 -0.10000000000E+04  0.10000000000E+04  0.00000000000E+00 0.  1.
    9000005    2    1    2  501    0  0.47043514268E+01 -0.13436937322E+02 -0.95104004820E+03  0.10034845680E+04  0.31984593600E+03 0.  0.
         13    1    3    3    0    0  0.45772034298E+02  0.12102152779E+03 -0.19196103480E+03  0.23149584919E+03  0.00000000000E+00 0.  1.
          1    1    3    3  501    0 -0.41067682871E+02 -0.13445846511E+03 -0.75907901340E+03  0.77198871883E+03  0.00000000000E+00 0.  1.
         21    1    1    2  502  501 -0.47043514268E+01  0.13436937322E+02 -0.20509209244E+02  0.24966174532E+02  0.00000000000E+00 0. -1.
<mgrwt>
<rscale>  1 0.30000000E+03</rscale>
<asrwt>0</asrwt>
<pdfrwt beam="1">  1        1 0.10345746E+00 0.30000000E+03</pdfrwt>
<pdfrwt beam="2">0</pdfrwt>
<totfact> 0.32558869E+01</totfact>
</mgrwt>
</event>
<event>
 6    1  0.1939311E-004  0.3000000E+03  0.7818608E-02  0.1093470E+00
          1   -1    0    0  502    0  0.00000000000E+00  0.00000000000E+00  0.43217386339E+02  0.43217386339E+02  0.00000000000E+00 0.  1.
         13   -1    0    0    0    0 -0.00000000000E+00 -0.00000000000E+00 -0.10000000000E+04  0.10000000000E+04  0.00000000000E+00 0.  1.
    9000005    2    1    2  501    0 -0.29595927731E+02 -0.67242374124E+01 -0.95811369645E+03  0.10128380169E+04  0.32701354532E+03 0.  0.
         13    1    3    3    0    0 -0.11185933834E+02  0.16013832974E+03 -0.47322997405E+03  0.49971593742E+03  0.00000000000E+00 0.  1.
          3    1    3    3  501    0 -0.18409993897E+02 -0.16686256716E+03 -0.48488372239E+03  0.51312207947E+03  0.00000000000E+00 0.  1.
         21    1    1    2  502  501  0.29595927731E+02  0.67242374124E+01  0.13310827859E+01  0.30379369454E+02  0.00000000000E+00 0. -1.
<mgrwt>
<rscale>  1 0.30000000E+03</rscale>
<asrwt>0</asrwt>
<pdfrwt beam="1">  1        1 0.15715446E+00 0.30000000E+03</pdfrwt>
<pdfrwt beam="2">0</pdfrwt>
<totfact> 0.16534016E+01</totfact>
</mgrwt>
</event>
<event>
 6    1  0.1939311E-004  0.3000000E+03  0.7818608E-02  0.1093470E+00
          1   -1    0    0  502    0  0.00000000000E+00  0.00000000000E+00  0.38410732382E+02  0.38410732382E+02  0.00000000000E+00 0.  1.
         13   -1    0    0    0    0 -0.00000000000E+00 -0.00000000000E+00 -0.10000000000E+04  0.10000000000E+04  0.00000000000E+00 0.  1.
    9000005    2    1    2  501    0  0.50113736273E+02  0.12575633594E+01 -0.90051210271E+03  0.95939561925E+03  0.32711609422E+03 0.  0.
         13    1    3    3    0    0 -0.24647711493E+02  0.14589854831E+03 -0.59593740818E+03  0.61403199472E+03  0.00000000000E+00 0.  1.
          3    1    3    3  501    0  0.74761447766E+02 -0.14464098495E+03 -0.30457469453E+03  0.34536362453E+03  0.00000000000E+00 0.  1.
         21    1    1    2  502  501 -0.50113736273E+02 -0.12575633594E+01 -0.61077164912E+02  0.79015113128E+02  0.00000000000E+00 0.  1.
<mgrwt>
<rscale>  1 0.30000000E+03</rscale>
<asrwt>0</asrwt>
<pdfrwt beam="1">  1        1 0.13967569E+00 0.30000000E+03</pdfrwt>
<pdfrwt beam="2">0</pdfrwt>
<totfact> 0.20311655E+01</totfact>
</mgrwt>
</event>
<event>
 6    1  0.1939311E-004  0.3000000E+03  0.7818608E-02  0.1093470E+00
          1   -1    0    0  502    0  0.00000000000E+00  0.00000000000E+00  0.35811736879E+02  0.35811736879E+02  0.00000000000E+00 0.  1.
         13   -1    0    0    0    0 -0.00000000000E+00 -0.00000000000E+00 -0.10000000000E+04  0.10000000000E+04  0.00000000000E+00 0.  1.
    9000005    2    1    2  501    0  0.12873661242E+02 -0.29523629582E+01 -0.96690447686E+03  0.10223274713E+04  0.33177514016E+03 0.  0.
         13    1    3    3    0    0  0.15438069450E+03 -0.74631477108E+02 -0.55716129001E+03  0.58295107796E+03  0.00000000000E+00 0.  1.
          1    1    3    3  501    0 -0.14150703325E+03  0.71679114150E+02 -0.40974318685E+03  0.43937639335E+03  0.00000000000E+00 0.  1.
         21    1    1    2  502  501 -0.12873661242E+02  0.29523629582E+01  0.27162137390E+01  0.13484265568E+02  0.00000000000E+00 0. -1.
<mgrwt>
<rscale>  1 0.30000000E+03</rscale>
<asrwt>0</asrwt>
<pdfrwt beam="1">  1        1 0.13022477E+00 0.30000000E+03</pdfrwt>
<pdfrwt beam="2">0</pdfrwt>
<totfact> 0.22815421E+01</totfact>
</mgrwt>
</event>
<event>
 6    1  0.1939311E-004  0.3000000E+03  0.7818608E-02  0.1093470E+00
          1   -1    0    0  502    0  0.00000000000E+00  0.00000000000E+00  0.41390850837E+02  0.41390850837E+02  0.00000000000E+00 0.  1.
         13   -1    0    0    0    0 -0.00000000000E+00 -0.00000000000E+00 -0.10000000000E+04  0.10000000000E+04  0.00000000000E+00 0.  1.
    9000005    2    1    2  501    0 -0.38094542206E+02  0.13814533886E+02 -0.93934175227E+03  0.99652139491E+03  0.33022708468E+03 0.  0.
         13    1    3    3    0    0  0.78004331030E+01  0.16518515427E+03 -0.59562960554E+03  0.61815985711E+03  0.00000000000E+00 0.  1.
          1    1    3    3  501    0 -0.45894975309E+02 -0.15137062038E+03 -0.34371214673E+03  0.37836153780E+03  0.00000000000E+00 0.  1.
         21    1    1    2  502  501  0.38094542206E+02 -0.13814533886E+02 -0.19267396891E+02  0.44869455929E+02  0.00000000000E+00 0.  1.
<mgrwt>
<rscale>  1 0.30000000E+03</rscale>
<asrwt>0</asrwt>
<pdfrwt beam="1">  1        1 0.15051250E+00 0.30000000E+03</pdfrwt>
<pdfrwt beam="2">0</pdfrwt>
<totfact> 0.17857555E+01</totfact>
</mgrwt>
</event>
<event>
 6    1  0.1939311E-004  0.3000000E+03  0.7818608E-02  0.1093470E+00
          1   -1    0    0  502    0  0.00000000000E+00  0.00000000000E+00  0.33695841974E+02  0.33695841974E+02  0.00000000000E+00 0.  1.
         13   -1    0    0    0    0 -0.00000000000E+00 -0.00000000000E+00 -0.10000000000E+04  0.10000000000E+04  0.00000000000E+00 0.  1.
    9000005    2    1    2  501    0 -0.11612144270E+02 -0.10359783750E+02 -0.95330576477E+03  0.10134196184E+04  0.34348984681E+03 0.  0.
         13    1    3    3    0    0 -0.40614008446E+02  0.14536510921E+02 -0.97053539147E+03  0.97149356865E+03  0.00000000000E+00 0.  1.
          3    1    3    3  501    0  0.29001864177E+02 -0.24896294671E+02  0.17229626700E+02  0.41926049782E+02  0.00000000000E+00 0.  1.
         21    1    1    2  502  501  0.11612144270E+02  0.10359783750E+02 -0.12998393257E+02  0.20276223543E+02  0.00000000000E+00 0. -1.
<mgrwt>
<rscale>  1 0.30000000E+03</rscale>
<asrwt>0</asrwt>
<pdfrwt beam="1">  1        1 0.12253059E+00 0.30000000E+03</pdfrwt>
<pdfrwt beam="2">0</pdfrwt>
<totfact> 0.25157972E+01</totfact>
</mgrwt>
</event>
<event>
 6    1  0.1939311E-004  0.3000000E+03  0.7818608E-02  0.1093470E+00
          3   -1    0    0  502    0  0.00000000000E+00  0.00000000000E+00  0.38416478538E+02  0.38416478538E+02  0.00000000000E+00 0.  1.
         13   -1    0    0    0    0 -0.00000000000E+00 -0.00000000000E+00 -0.10000000000E+04  0.10000000000E+04  0.00000000000E+00 0.  1.
    9000005    2    1    2  501    0 -0.45132478585E+02 -0.12921590505E+02 -0.90282444859E+03  0.96320652727E+03  0.33237166108E+03 0.  0.
         13    1    3    3    0    0 -0.28666997174E+02 -0.92700338400E+01  0.22578469627E+02  0.37649934197E+02  0.00000000000E+00 0.  1.
          3    1    3    3  501    0 -0.16465481411E+02 -0.36515566647E+01 -0.92540291821E+03  0.92555659307E+03  0.00000000000E+00 0.  1.
         21    1    1    2  502  501  0.45132478585E+02  0.12921590505E+02 -0.58759072876E+02  0.75209951267E+02  0.00000000000E+00 0.  1.
<mgrwt>
<rscale>  1 0.30000000E+03</rscale>
<asrwt>0</asrwt>
<pdfrwt beam="1">  1        3 0.13969658E+00 0.30000000E+03</pdfrwt>
<pdfrwt beam="2">0</pdfrwt>
<totfact> 0.13510853E+00</totfact>
</mgrwt>
</event>
<event>
 6    1  0.1939311E-004  0.3000000E+03  0.7818608E-02  0.1093470E+00
          1   -1    0    0  502    0  0.00000000000E+00  0.00000000000E+00  0.30286944003E+02  0.30286944003E+02  0.00000000000E+00 0.  1.
         13   -1    0    0    0    0 -0.00000000000E+00 -0.00000000000E+00 -0.10000000000E+04  0.10000000000E+04  0.00000000000E+00 0.  1.
    9000005    2    1    2  501    0 -0.52704129182E+01  0.70920501813E+01 -0.95357167993E+03  0.10118853558E+04  0.33843012577E+03 0.  0.
         13    1    3    3    0    0 -0.37446290288E+02  0.62782967861E+02 -0.94403894049E+03  0.94686506265E+03  0.00000000000E+00 0.  1.
          1    1    3    3  501    0  0.32175877370E+02 -0.55690917679E+02 -0.95327394439E+01  0.65020293123E+02  0.00000000000E+00 0.  1.
         21    1    1    2  502  501  0.52704129182E+01 -0.70920501813E+01 -0.16141376067E+02  0.18401588232E+02  0.00000000000E+00 0. -1.
<mgrwt>
<rscale>  1 0.30000000E+03</rscale>
<asrwt>0</asrwt>
<pdfrwt beam="1">  1        1 0.11013457E+00 0.30000000E+03</pdfrwt>
<pdfrwt beam="2">0</pdfrwt>
<totfact> 0.29654842E+01</totfact>
</mgrwt>
</event>
<event>
 6    1  0.1939311E-004  0.3000000E+03  0.7818608E-02  0.1093470E+00
          1   -1    0    0  502    0  0.00000000000E+00  0.00000000000E+00  0.39520067214E+02  0.39520067214E+02  0.00000000000E+00 0.  1.
         13   -1    0    0    0    0 -0.00000000000E+00 -0.00000000000E+00 -0.10000000000E+04  0.10000000000E+04  0.00000000000E+00 0.  1.
    9000005    2    1    2  501    0 -0.97359833724E+01 -0.13457602518E+02 -0.94199633237E+03  0.10146697167E+04  0.37672489604E+03 0.  0.
         13    1    3    3    0    0  0.46283542003E+02  0.10689083560E+03 -0.83794606376E+03  0.84600320494E+03  0.00000000000E+00 0.  1.
          3    1    3    3  501    0 -0.56019525375E+02 -0.12034843812E+03 -0.10405026861E+03  0.16866651173E+03  0.00000000000E+00 0.  1.
         21    1    1    2  502  501  0.97359833724E+01  0.13457602518E+02 -0.18483600417E+02  0.24850350543E+02  0.00000000000E+00 0. -1.
<mgrwt>
<rscale>  1 0.30000000E+03</rscale>
<asrwt>0</asrwt>
<pdfrwt beam="1">  1        1 0.14370964E+00 0.30000000E+03</pdfrwt>
<pdfrwt beam="2">0</pdfrwt>
<totfact> 0.19351228E+01</totfact>
</mgrwt>
</event>
<event>
 6    1  0.1939311E-004  0.3000000E+03  0.7818608E-02  0.1093470E+00
          1   -1    0    0  502    0  0.00000000000E+00  0.00000000000E+00  0.29585548747E+02  0.29585548747E+02  0.00000000000E+00 0.  1.
         13   -1    0    0    0    0 -0.00000000000E+00 -0.00000000000E+00 -0.10000000000E+04  0.10000000000E+04  0.00000000000E+00 0.  1.
    9000005    2    1    2  501    0 -0.97702042075E+01 -0.77358889471E+01 -0.96047710320E+03  0.10136465477E+04  0.32374026167E+03 0.  0.
         13    1    3    3    0    0  0.14314944501E+03 -0.44477399535E+02 -0.63096394271E+03  0.64852563533E+03  0.00000000000E+00 0.  1.
          3    1    3    3  501    0 -0.15291964922E+03  0.36741510588E+02 -0.32951316049E+03  0.36512091237E+03  0.00000000000E+00 0.  1.
         21    1    1    2  502  501  0.97702042075E+01  0.77358889471E+01 -0.99373480523E+01  0.15939001047E+02  0.00000000000E+00 0.  1.
<mgrwt>
<rscale>  1 0.30000000E+03</rscale>
<asrwt>0</asrwt>
<pdfrwt beam="1">  1        1 0.10758404E+00 0.30000000E+03</pdfrwt>
<pdfrwt beam="2">0</pdfrwt>
<totfact> 0.30718475E+01</totfact>
</mgrwt>
</event>
<event>
 6    1  0.1939311E-004  0.3000000E+03  0.7818608E-02  0.1093470E+00
          1   -1    0    0  502    0  0.00000000000E+00  0.00000000000E+00  0.28774932539E+02  0.28774932539E+02  0.00000000000E+00 0.  1.
         13   -1    0    0    0    0 -0.00000000000E+00 -0.00000000000E+00 -0.10000000000E+04  0.10000000000E+04  0.00000000000E+00 0.  1.
    9000005    2    1    2  501    0  0.84708413879E+01  0.45673446502E+01 -0.94549615563E+03  0.10013050819E+04  0.32947878673E+03 0.  0.
         13    1    3    3    0    0  0.16846355290E+03 -0.10978469621E+02 -0.47541925718E+03  0.50450368239E+03  0.00000000000E+00 0.  1.
          3    1    3    3  501    0 -0.15999271151E+03  0.15545814271E+02 -0.47007689845E+03  0.49680139949E+03  0.00000000000E+00 0.  1.
         21    1    1    2  502  501 -0.84708413879E+01 -0.45673446502E+01 -0.25728911833E+02  0.27469850656E+02  0.00000000000E+00 0. -1.
<mgrwt>
<rscale>  1 0.30000000E+03</rscale>
<asrwt>0</asrwt>
<pdfrwt beam="1">  1        1 0.10463634E+00 0.30000000E+03</pdfrwt>
<pdfrwt beam="2">0</pdfrwt>
<totfact> 0.32017188E+01</totfact>
</mgrwt>
</event>
<event>
 6    1  0.1939311E-004  0.3000000E+03  0.7818608E-02  0.1093470E+00
          1   -1    0    0  502    0  0.00000000000E+00  0.00000000000E+00  0.27743363302E+02  0.27743363302E+02  0.00000000000E+00 0.  1.
         13   -1    0    0    0    0 -0.00000000000E+00 -0.00000000000E+00 -0.10000000000E+04  0.10000000000E+04  0.00000000000E+00 0.  1.
    9000005    2    1    2  501    0 -0.34382547687E+01  0.75139049472E+01 -0.95174636205E+03  0.10056311104E+04  0.32466061066E+03 0.  0.
         13    1    3    3    0    0 -0.11099390716E+03  0.11621447282E+03 -0.35633636789E+03  0.39089775927E+03  0.00000000000E+00 0.  1.
          1    1    3    3  501    0  0.10755565239E+03 -0.10870056787E+03 -0.59540999415E+03  0.61473335110E+03  0.00000000000E+00 0.  1.
         21    1    1    2  502  501  0.34382547687E+01 -0.75139049472E+01 -0.20510274652E+02  0.22112252932E+02  0.00000000000E+00 0. -1.
<mgrwt>
<rscale>  1 0.30000000E+03</rscale>
<asrwt>0</asrwt>
<pdfrwt beam="1">  1        1 0.10088517E+00 0.30000000E+03</pdfrwt>
<pdfrwt beam="2">0</pdfrwt>
<totfact> 0.33788162E+01</totfact>
</mgrwt>
</event>
<event>
 6    1  0.1939311E-004  0.3000000E+03  0.7818608E-02  0.1093470E+00
          1   -1    0    0  502    0  0.00000000000E+00  0.00000000000E+00  0.36882150085E+02  0.36882150085E+02  0.00000000000E+00 0.  1.
         13   -1    0    0    0    0 -0.00000000000E+00 -0.00000000000E+00 -0.10000000000E+04  0.10000000000E+04  0.00000000000E+00 0.  1.
    9000005    2    1    2  501    0  0.91238100241E+01  0.68418254043E+01 -0.96907788384E+03  0.10240144973E+04  0.33070181616E+03 0.  0.
         13    1    3    3    0    0 -0.14516477247E+02 -0.72967493559E+01  0.24858187343E+02  0.29696803546E+02  0.00000000000E+00 0.  1.
          1    1    3    3  501    0  0.23640287272E+02  0.14138574760E+02 -0.99393607118E+03  0.99431769374E+03  0.00000000000E+00 0.  1.
         21    1    1    2  502  501 -0.91238100241E+01 -0.68418254043E+01  0.59600339260E+01  0.12867652801E+02  0.00000000000E+00 0.  1.
<mgrwt>
<rscale>  1 0.30000000E+03</rscale>
<asrwt>0</asrwt>
<pdfrwt beam="1">  1        1 0.13411719E+00 0.30000000E+03</pdfrwt>
<pdfrwt beam="2">0</pdfrwt>
<totfact> 0.21737572E+01</totfact>
</mgrwt>
</event>
<event>
 6    1  0.1939311E-004  0.3000000E+03  0.7818608E-02  0.1093470E+00
          1   -1    0    0  502    0  0.00000000000E+00  0.00000000000E+00  0.36936356067E+02  0.36936356067E+02  0.00000000000E+00 0.  1.
         13   -1    0    0    0    0 -0.00000000000E+00 -0.00000000000E+00 -0.10000000000E+04  0.10000000000E+04  0.00000000000E+00 0.  1.
    9000005    2    1    2  501    0  0.64127075999E+01 -0.40403204484E+02 -0.92881396829E+03  0.98358298661E+03  0.32103981388E+03 0.  0.
         13    1    3    3    0    0  0.20389466578E+02  0.92592518968E+02 -0.79284679636E+02  0.12359273984E+03  0.00000000000E+00 0.  1.
          3    1    3    3  501    0 -0.13976758978E+02 -0.13299572345E+03 -0.84952928866E+03  0.85999024677E+03  0.00000000000E+00 0.  1.
         21    1    1    2  502  501 -0.64127075999E+01  0.40403204484E+02 -0.34249675638E+02  0.53353369459E+02  0.00000000000E+00 0.  1.
<mgrwt>
<rscale>  1 0.30000000E+03</rscale>
<asrwt>0</asrwt>
<pdfrwt beam="1">  1        1 0.13431431E+00 0.30000000E+03</pdfrwt>
<pdfrwt beam="2">0</pdfrwt>
<totfact> 0.21684793E+01</totfact>
</mgrwt>
</event>
<event>
 6    1  0.1939311E-004  0.3000000E+03  0.7818608E-02  0.1093470E+00
          1   -1    0    0  502    0  0.00000000000E+00  0.00000000000E+00  0.31549230040E+02  0.31549230040E+02  0.00000000000E+00 0.  1.
         13   -1    0    0    0    0 -0.00000000000E+00 -0.00000000000E+00 -0.10000000000E+04  0.10000000000E+04  0.00000000000E+00 0.  1.
    9000005    2    1    2  501    0  0.69267729965E+01  0.46269030554E+01 -0.94421202432E+03  0.10059190680E+04  0.34679595741E+03 0.  0.
         13    1    3    3    0    0  0.84977613251E+01 -0.16925911665E+03 -0.53772020522E+03  0.56379418196E+03  0.00000000000E+00 0.  1.
          1    1    3    3  501    0 -0.15709883286E+01  0.17388601971E+03 -0.40649181911E+03  0.44212488604E+03  0.00000000000E+00 0.  1.
         21    1    1    2  502  501 -0.69267729965E+01 -0.46269030554E+01 -0.24238745636E+02  0.25630162037E+02  0.00000000000E+00 0.  1.
<mgrwt>
<rscale>  1 0.30000000E+03</rscale>
<asrwt>0</asrwt>
<pdfrwt beam="1">  1        1 0.11472471E+00 0.30000000E+03</pdfrwt>
<pdfrwt beam="2">0</pdfrwt>
<totfact> 0.27868372E+01</totfact>
</mgrwt>
</event>
<event>
 6    1  0.1939311E-004  0.3000000E+03  0.7818608E-02  0.1093470E+00
          1   -1    0    0  502    0  0.00000000000E+00  0.00000000000E+00  0.34233601962E+02  0.34233601962E+02  0.00000000000E+00 0.  1.
         13   -1    0    0    0    0 -0.00000000000E+00 -0.00000000000E+00 -0.10000000000E+04  0.10000000000E+04  0.00000000000E+00 0.  1.
    9000005    2    1    2  501    0  0.35208945357E+02 -0.13027365164E+02 -0.83476095387E+03  0.89795517932E+03  0.32876780846E+03 0.  0.
         13    1    3    3    0    0  0.17185337895E+03 -0.38516074255E+02 -0.32580575711E+03  0.37035991036E+03  0.00000000000E+00 0.  1.
          3    1    3    3  501    0 -0.13664443359E+03  0.25488709091E+02 -0.50895519675E+03  0.52759526896E+03  0.00000000000E+00 0.  1.
         21    1    1    2  502  501 -0.35208945357E+02  0.13027365164E+02 -0.13100544417E+03  0.13627842264E+03  0.00000000000E+00 0.  1.
<mgrwt>
<rscale>  1 0.30000000E+03</rscale>
<asrwt>0</asrwt>
<pdfrwt beam="1">  1        1 0.12448609E+00 0.30000000E+03</pdfrwt>
<pdfrwt beam="2">0</pdfrwt>
<totfact> 0.24534495E+01</totfact>
</mgrwt>
</event>
<event>
 6    1  0.1939311E-004  0.3000000E+03  0.7818608E-02  0.1093470E+00
          1   -1    0    0  502    0  0.00000000000E+00  0.00000000000E+00  0.53489513217E+02  0.53489513217E+02  0.00000000000E+00 0.  1.
         13   -1    0    0    0    0 -0.00000000000E+00 -0.00000000000E+00 -0.10000000000E+04  0.10000000000E+04  0.00000000000E+00 0.  1.
    9000005    2    1    2  501    0 -0.13477775706E+02 -0.10166136036E+03 -0.82787830950E+03  0.89667664348E+03  0.32883099763E+03 0.  0.
         13    1    3    3    0    0 -0.94576700666E+02 -0.19534191306E+03 -0.58618048299E+03  0.62506861539E+03  0.00000000000E+00 0.  1.
          3    1    3    3  501    0  0.81098924959E+02  0.93680552706E+02 -0.24169782651E+03  0.27160802809E+03  0.00000000000E+00 0.  1.
         21    1    1    2  502  501  0.13477775706E+02  0.10166136036E+03 -0.11863217728E+03  0.15681286973E+03  0.00000000000E+00 0.  1.
<mgrwt>
<rscale>  1 0.30000000E+03</rscale>
<asrwt>0</asrwt>
<pdfrwt beam="1">  1        1 0.19450773E+00 0.30000000E+03</pdfrwt>
<pdfrwt beam="2">0</pdfrwt>
<totfact> 0.10879455E+01</totfact>
</mgrwt>
</event>
<event>
 6    1  0.1939311E-004  0.3000000E+03  0.7818608E-02  0.1093470E+00
          1   -1    0    0  502    0  0.00000000000E+00  0.00000000000E+00  0.30832340616E+02  0.30832340616E+02  0.00000000000E+00 0.  1.
         13   -1    0    0    0    0 -0.00000000000E+00 -0.00000000000E+00 -0.10000000000E+04  0.10000000000E+04  0.00000000000E+00 0.  1.
    9000005    2    1    2  501    0 -0.85194260377E+01  0.89626537476E+01 -0.96387950513E+03  0.10173833868E+04  0.32534957451E+03 0.  0.
         13    1    3    3    0    0 -0.13008471111E+02 -0.10334943726E+03 -0.85354749583E+03  0.85988002311E+03  0.00000000000E+00 0.  1.
          3    1    3    3  501    0  0.44890450728E+01  0.11231209101E+03 -0.11033200929E+03  0.15750336373E+03  0.00000000000E+00 0.  1.
         21    1    1    2  502  501  0.85194260377E+01 -0.89626537476E+01 -0.52881542584E+01  0.13448953776E+02  0.00000000000E+00 0.  1.
<mgrwt>
<rscale>  1 0.30000000E+03</rscale>
<asrwt>0</asrwt>
<pdfrwt beam="1">  1        1 0.11211784E+00 0.30000000E+03</pdfrwt>
<pdfrwt beam="2">0</pdfrwt>
<totfact> 0.28863568E+01</totfact>
</mgrwt>
</event>
<event>
 6    1  0.1939311E-004  0.3000000E+03  0.7818608E-02  0.1093470E+00
          1   -1    0    0  502    0  0.00000000000E+00  0.00000000000E+00  0.29748867450E+02  0.29748867450E+02  0.00000000000E+00 0.  1.
         13   -1    0    0    0    0 -0.00000000000E+00 -0.00000000000E+00 -0.10000000000E+04  0.10000000000E+04  0.00000000000E+00 0.  1.
    9000005    2    1    2  501    0  0.36430287068E+01  0.14244101035E+02 -0.94925883892E+03  0.10041199294E+04  0.32702954504E+03 0.  0.
         13    1    3    3    0    0  0.15438652999E+03 -0.45988976685E+02 -0.55048523152E+03  0.57357142253E+03  0.00000000000E+00 0.  1.
          3    1    3    3  501    0 -0.15074350129E+03  0.60233077720E+02 -0.39877360740E+03  0.43054850690E+03  0.00000000000E+00 0.  1.
         21    1    1    2  502  501 -0.36430287068E+01 -0.14244101035E+02 -0.20992293628E+02  0.25628938024E+02  0.00000000000E+00 0.  1.
<mgrwt>
<rscale>  1 0.30000000E+03</rscale>
<asrwt>0</asrwt>
<pdfrwt beam="1">  1        1 0.10817793E+00 0.30000000E+03</pdfrwt>
<pdfrwt beam="2">0</pdfrwt>
<totfact> 0.30466004E+01</totfact>
</mgrwt>
</event>
<event>
 6    1  0.1939311E-004  0.3000000E+03  0.7818608E-02  0.1093470E+00
          1   -1    0    0  502    0  0.00000000000E+00  0.00000000000E+00  0.42771681980E+02  0.42771681980E+02  0.00000000000E+00 0.  1.
         13   -1    0    0    0    0 -0.00000000000E+00 -0.00000000000E+00 -0.10000000000E+04  0.10000000000E+04  0.00000000000E+00 0.  1.
    9000005    2    1    2  501    0 -0.18443551095E+02 -0.87325454263E+01 -0.96019053328E+03  0.10221513850E+04  0.34987307958E+03 0.  0.
         13    1    3    3    0    0  0.15038417747E+03 -0.10163069438E+01 -0.24675326037E+03  0.28896990365E+03  0.00000000000E+00 0.  1.
          1    1    3    3  501    0 -0.16882772857E+03 -0.77162384825E+01 -0.71343727291E+03  0.73318148139E+03  0.00000000000E+00 0.  1.
         21    1    1    2  502  501  0.18443551095E+02  0.87325454263E+01  0.29622152605E+01  0.20620296939E+02  0.00000000000E+00 0.  1.
<mgrwt>
<rscale>  1 0.30000000E+03</rscale>
<asrwt>0</asrwt>
<pdfrwt beam="1">  1        1 0.15553372E+00 0.30000000E+03</pdfrwt>
<pdfrwt beam="2">0</pdfrwt>
<totfact> 0.16845754E+01</totfact>
</mgrwt>
</event>
<event>
 6    1  0.1939311E-004  0.3000000E+03  0.7818608E-02  0.1093470E+00
          1   -1    0    0  502    0  0.00000000000E+00  0.00000000000E+00  0.33289365439E+02  0.33289365439E+02  0.00000000000E+00 0.  1.
         13   -1    0    0    0    0 -0.00000000000E+00 -0.00000000000E+00 -0.10000000000E+04  0.10000000000E+04  0.00000000000E+00 0.  1.
    9000005    2    1    2  501    0 -0.30948395789E+02  0.22575131879E+01 -0.90261939585E+03  0.96208131500E+03  0.33153549333E+03 0.  0.
         13    1    3    3    0    0 -0.16470239633E+03  0.30129226117E+02 -0.29418943762E+03  0.33849974126E+03  0.00000000000E+00 0.  1.
          3    1    3    3  501    0  0.13375400054E+03 -0.27871712930E+02 -0.60842995823E+03  0.62358157374E+03  0.00000000000E+00 0.  1.
         21    1    1    2  502  501  0.30948395789E+02 -0.22575131879E+01 -0.64091238713E+02  0.71208050440E+02  0.00000000000E+00 0. -1.
<mgrwt>
<rscale>  1 0.30000000E+03</rscale>
<asrwt>0</asrwt>
<pdfrwt beam="1">  1        1 0.12105249E+00 0.30000000E+03</pdfrwt>
<pdfrwt beam="2">0</pdfrwt>
<totfact> 0.25643042E+01</totfact>
</mgrwt>
</event>
<event>
 6    1  0.1939311E-004  0.3000000E+03  0.7818608E-02  0.1093470E+00
          1   -1    0    0  502    0  0.00000000000E+00  0.00000000000E+00  0.32007576131E+02  0.32007576131E+02  0.00000000000E+00 0.  1.
         13   -1    0    0    0    0 -0.00000000000E+00 -0.00000000000E+00 -0.10000000000E+04  0.10000000000E+04  0.00000000000E+00 0.  1.
    9000005    2    1    2  501    0  0.97721987920E+00 -0.10729336970E+02 -0.96318520071E+03  0.10202099906E+04  0.33613482469E+03 0.  0.
         13    1    3    3    0    0 -0.78330997056E+02 -0.97757884605E+02 -0.84191236731E+03  0.85118081706E+03  0.00000000000E+00 0.  1.
          3    1    3    3  501    0  0.79308216936E+02  0.87028547635E+02 -0.12127283340E+03  0.16902917351E+03  0.00000000000E+00 0.  1.
         21    1    1    2  502  501 -0.97721987920E+00  0.10729336970E+02 -0.48072231600E+01  0.11797585559E+02  0.00000000000E+00 0.  1.
<mgrwt>
<rscale>  1 0.30000000E+03</rscale>
<asrwt>0</asrwt>
<pdfrwt beam="1">  1        1 0.11639143E+00 0.30000000E+03</pdfrwt>
<pdfrwt beam="2">0</pdfrwt>
<totfact> 0.27257283E+01</totfact>
</mgrwt>
</event>
<event>
 6    1  0.1939311E-004  0.3000000E+03  0.7818608E-02  0.1093470E+00
          1   -1    0    0  502    0  0.00000000000E+00  0.00000000000E+00  0.30726714756E+02  0.30726714756E+02  0.00000000000E+00 0.  1.
         13   -1    0    0    0    0 -0.00000000000E+00 -0.00000000000E+00 -0.10000000000E+04  0.10000000000E+04  0.00000000000E+00 0.  1.
    9000005    2    1    2  501    0  0.51032024286E+01 -0.88576092782E+01 -0.94764736724E+03  0.10068064253E+04  0.33988107554E+03 0.  0.
         13    1    3    3    0    0  0.13411801707E+03  0.66628518408E+02 -0.23506907778E+03  0.27871934504E+03  0.00000000000E+00 0.  1.
          1    1    3    3  501    0 -0.12901481464E+03 -0.75486127686E+02 -0.71257828946E+03  0.72808708028E+03  0.00000000000E+00 0.  1.
         21    1    1    2  502  501 -0.51032024286E+01  0.88576092782E+01 -0.21625918007E+02  0.23920289438E+02  0.00000000000E+00 0. -1.
<mgrwt>
<rscale>  1 0.30000000E+03</rscale>
<asrwt>0</asrwt>
<pdfrwt beam="1">  1        1 0.11173374E+00 0.30000000E+03</pdfrwt>
<pdfrwt beam="2">0</pdfrwt>
<totfact> 0.29014464E+01</totfact>
</mgrwt>
</event>
<event>
 6    1  0.1939311E-004  0.3000000E+03  0.7818608E-02  0.1093470E+00
          1   -1    0    0  502    0  0.00000000000E+00  0.00000000000E+00  0.31174868407E+02  0.31174868407E+02  0.00000000000E+00 0.  1.
         13   -1    0    0    0    0 -0.00000000000E+00 -0.00000000000E+00 -0.10000000000E+04  0.10000000000E+04  0.00000000000E+00 0.  1.
    9000005    2    1    2  501    0  0.14413141092E+02 -0.16128403250E+02 -0.93602555386E+03  0.99188522185E+03  0.32745166331E+03 0.  0.
         13    1    3    3    0    0 -0.65829152926E+02  0.13848768534E+03 -0.46897233323E+03  0.49340385659E+03  0.00000000000E+00 0.  1.
          3    1    3    3  501    0  0.80242294019E+02 -0.15461608859E+03 -0.46705322063E+03  0.49848136525E+03  0.00000000000E+00 0.  1.
         21    1    1    2  502  501 -0.14413141092E+02  0.16128403250E+02 -0.32799577730E+02  0.39289646560E+02  0.00000000000E+00 0.  1.
<mgrwt>
<rscale>  1 0.30000000E+03</rscale>
<asrwt>0</asrwt>
<pdfrwt beam="1">  1        1 0.11336340E+00 0.30000000E+03</pdfrwt>
<pdfrwt beam="2">0</pdfrwt>
<totfact> 0.28381865E+01</totfact>
</mgrwt>
</event>
<event>
 6    1  0.1939311E-004  0.3000000E+03  0.7818608E-02  0.1093470E+00
          1   -1    0    0  502    0  0.00000000000E+00  0.00000000000E+00  0.41600579648E+02  0.41600579648E+02  0.00000000000E+00 0.  1.
         13   -1    0    0    0    0 -0.00000000000E+00 -0.00000000000E+00 -0.10000000000E+04  0.10000000000E+04  0.00000000000E+00 0.  1.
    9000005    2    1    2  501    0 -0.18818315680E+02 -0.35829196857E+02 -0.95804735263E+03  0.10011285609E+04  0.28769046761E+03 0.  0.
         13    1    3    3    0    0  0.11292659091E+03  0.47824956289E+02 -0.56658686646E+03  0.57970709727E+03  0.00000000000E+00 0.  1.
          3    1    3    3  501    0 -0.13174490659E+03 -0.83654153146E+02 -0.39146048617E+03  0.42142146360E+03  0.00000000000E+00 0.  1.
         21    1    1    2  502  501  0.18818315680E+02  0.35829196857E+02 -0.35206772300E+00  0.40472018780E+02  0.00000000000E+00 0.  1.
<mgrwt>
<rscale>  1 0.30000000E+03</rscale>
<asrwt>0</asrwt>
<pdfrwt beam="1">  1        1 0.15127515E+00 0.30000000E+03</pdfrwt>
<pdfrwt beam="2">0</pdfrwt>
<totfact> 0.17699195E+01</totfact>
</mgrwt>
</event>
<event>
 6    1  0.1939311E-004  0.3000000E+03  0.7818608E-02  0.1093470E+00
          3   -1    0    0  502    0  0.00000000000E+00  0.00000000000E+00  0.33784045422E+02  0.33784045422E+02  0.00000000000E+00 0.  1.
         13   -1    0    0    0    0 -0.00000000000E+00 -0.00000000000E+00 -0.10000000000E+04  0.10000000000E+04  0.00000000000E+00 0.  1.
    9000005    2    1    2  501    0  0.85466288487E+01  0.21041214798E+02 -0.95521597610E+03  0.10085496025E+04  0.32282961767E+03 0.  0.
         13    1    3    3    0    0 -0.12723113561E+03  0.15764477371E+02 -0.17695824312E+03  0.21851887887E+03  0.00000000000E+00 0.  1.
          1    1    3    3  501    0  0.13577776445E+03  0.52767374272E+01 -0.77825773299E+03  0.79003072360E+03  0.00000000000E+00 0.  1.
         21    1    1    2  502  501 -0.85466288487E+01 -0.21041214798E+02 -0.10999978475E+02  0.25234442956E+02  0.00000000000E+00 0.  1.
<mgrwt>
<rscale>  1 0.30000000E+03</rscale>
<asrwt>0</asrwt>
<pdfrwt beam="1">  1        3 0.12285133E+00 0.30000000E+03</pdfrwt>
<pdfrwt beam="2">0</pdfrwt>
<totfact> 0.21432415E+00</totfact>
</mgrwt>
</event>
<event>
 6    1  0.1939311E-004  0.3000000E+03  0.7818608E-02  0.1093470E+00
          1   -1    0    0  502    0  0.00000000000E+00  0.00000000000E+00  0.47373583174E+02  0.47373583174E+02  0.00000000000E+00 0.  1.
         13   -1    0    0    0    0 -0.00000000000E+00 -0.00000000000E+00 -0.10000000000E+04  0.10000000000E+04  0.00000000000E+00 0.  1.
    9000005    2    1    2  501    0 -0.13246245883E+02  0.87131047965E+02 -0.83537751766E+03  0.90069506769E+03  0.32500573133E+03 0.  0.
         13    1    3    3    0    0 -0.27532600103E+02  0.12528398355E+03 -0.96057543519E+02  0.16025346258E+03  0.00000000000E+00 0.  1.
          3    1    3    3  501    0  0.14286354220E+02 -0.38152935581E+02 -0.73931997415E+03  0.74044160511E+03  0.00000000000E+00 0.  1.
         21    1    1    2  502  501  0.13246245883E+02 -0.87131047965E+02 -0.11724889916E+03  0.14667851548E+03  0.00000000000E+00 0.  1.
<mgrwt>
<rscale>  1 0.30000000E+03</rscale>
<asrwt>0</asrwt>
<pdfrwt beam="1">  1        1 0.17226794E+00 0.30000000E+03</pdfrwt>
<pdfrwt beam="2">0</pdfrwt>
<totfact> 0.13927707E+01</totfact>
</mgrwt>
</event>
<event>
 6    1  0.1939311E-004  0.3000000E+03  0.7818608E-02  0.1093470E+00
          1   -1    0    0  502    0  0.00000000000E+00  0.00000000000E+00  0.30372263204E+02  0.30372263204E+02  0.00000000000E+00 0.  1.
         13   -1    0    0    0    0 -0.00000000000E+00 -0.00000000000E+00 -0.10000000000E+04  0.10000000000E+04  0.00000000000E+00 0.  1.
    9000005    2    1    2  501    0 -0.19135211065E+02 -0.61407637117E+01 -0.93705749741E+03  0.99210104981E+03  0.32524433014E+03 0.  0.
         13    1    3    3    0    0  0.43948186363E+02  0.14577860890E+03 -0.33504021327E+03  0.36801466058E+03  0.00000000000E+00 0.  1.
          3    1    3    3  501    0 -0.63083397428E+02 -0.15191937261E+03 -0.60201728415E+03  0.62408638923E+03  0.00000000000E+00 0.  1.
         21    1    1    2  502  501  0.19135211065E+02  0.61407637117E+01 -0.32570239383E+02  0.38271213397E+02  0.00000000000E+00 0. -1.
<mgrwt>
<rscale>  1 0.30000000E+03</rscale>
<asrwt>0</asrwt>
<pdfrwt beam="1">  1        1 0.11044483E+00 0.30000000E+03</pdfrwt>
<pdfrwt beam="2">0</pdfrwt>
<totfact> 0.29529050E+01</totfact>
</mgrwt>
</event>
<event>
 6    1  0.1939311E-004  0.3000000E+03  0.7818608E-02  0.1093470E+00
          1   -1    0    0  502    0  0.00000000000E+00  0.00000000000E+00  0.38791488543E+02  0.38791488543E+02  0.00000000000E+00 0.  1.
         13   -1    0    0    0    0 -0.00000000000E+00 -0.00000000000E+00 -0.10000000000E+04  0.10000000000E+04  0.00000000000E+00 0.  1.
    9000005    2    1    2  501    0 -0.10498314994E+02 -0.76468205021E+01 -0.96802492272E+03  0.10241234299E+04  0.33404769152E+03 0.  0.
         13    1    3    3    0    0 -0.19844056521E+02  0.15926139245E+03 -0.37302530190E+03  0.40608601744E+03  0.00000000000E+00 0.  1.
          3    1    3    3  501    0  0.93457415280E+01 -0.16690821295E+03 -0.59499962082E+03  0.61803741247E+03  0.00000000000E+00 0.  1.
         21    1    1    2  502  501  0.10498314994E+02  0.76468205021E+01  0.68164112622E+01  0.14668058631E+02  0.00000000000E+00 0. -1.
<mgrwt>
<rscale>  1 0.30000000E+03</rscale>
<asrwt>0</asrwt>
<pdfrwt beam="1">  1        1 0.14106026E+00 0.30000000E+03</pdfrwt>
<pdfrwt beam="2">0</pdfrwt>
<totfact> 0.19975325E+01</totfact>
</mgrwt>
</event>
<event>
 6    1  0.1939311E-004  0.3000000E+03  0.7818608E-02  0.1093470E+00
          1   -1    0    0  502    0  0.00000000000E+00  0.00000000000E+00  0.30992463862E+02  0.30992463862E+02  0.00000000000E+00 0.  1.
         13   -1    0    0    0    0 -0.00000000000E+00 -0.00000000000E+00 -0.10000000000E+04  0.10000000000E+04  0.00000000000E+00 0.  1.
    9000005    2    1    2  501    0 -0.22682364852E+01  0.15970799764E+02 -0.93302699049E+03  0.99156137198E+03  0.33525270779E+03 0.  0.
         13    1    3    3    0    0  0.25590893331E+02 -0.68995228757E+02 -0.88873413361E+03  0.89177552986E+03  0.00000000000E+00 0.  1.
          1    1    3    3  501    0 -0.27859129816E+02  0.84966028521E+02 -0.44292856873E+02  0.99785842115E+02  0.00000000000E+00 0.  1.
         21    1    1    2  502  501  0.22682364852E+01 -0.15970799764E+02 -0.35980545650E+02  0.39431091883E+02  0.00000000000E+00 0. -1.
<mgrwt>
<rscale>  1 0.30000000E+03</rscale>
<asrwt>0</asrwt>
<pdfrwt beam="1">  1        1 0.11270011E+00 0.30000000E+03</pdfrwt>
<pdfrwt beam="2">0</pdfrwt>
<totfact> 0.28636939E+01</totfact>
</mgrwt>
</event>
<event>
 6    1  0.1939311E-004  0.3000000E+03  0.7818608E-02  0.1093470E+00
          1   -1    0    0  502    0  0.00000000000E+00  0.00000000000E+00  0.30219179609E+02  0.30219179609E+02  0.00000000000E+00 0.  1.
         13   -1    0    0    0    0 -0.00000000000E+00 -0.00000000000E+00 -0.10000000000E+04  0.10000000000E+04  0.00000000000E+00 0.  1.
    9000005    2    1    2  501    0 -0.12882216227E+02  0.13675535064E+02 -0.95171301267E+03  0.10041535427E+04  0.31970878464E+03 0.  0.
         13    1    3    3    0    0 -0.10059116254E+03  0.11696476386E+03 -0.71450894162E+03  0.73097357382E+03  0.00000000000E+00 0.  1.
          1    1    3    3  501    0  0.87708946310E+02 -0.10328922880E+03 -0.23720407106E+03  0.27317996884E+03  0.00000000000E+00 0.  1.
         21    1    1    2  502  501  0.12882216227E+02 -0.13675535064E+02 -0.18067807719E+02  0.26065636957E+02  0.00000000000E+00 0.  1.
<mgrwt>
<rscale>  1 0.30000000E+03</rscale>
<asrwt>0</asrwt>
<pdfrwt beam="1">  1        1 0.10988816E+00 0.30000000E+03</pdfrwt>
<pdfrwt beam="2">0</pdfrwt>
<totfact> 0.29755294E+01</totfact>
</mgrwt>
</event>
<event>
 6    1  0.1939311E-004  0.3000000E+03  0.7818608E-02  0.1093470E+00
          1   -1    0    0  502    0  0.00000000000E+00  0.00000000000E+00  0.10952270965E+03  0.10952270965E+03  0.00000000000E+00 0.  1.
         13   -1    0    0    0    0 -0.00000000000E+00 -0.00000000000E+00 -0.10000000000E+04  0.10000000000E+04  0.00000000000E+00 0.  1.
    9000005    2    1    2  501    0  0.15525427937E+03 -0.48945766698E+01 -0.88534636162E+03  0.95410657609E+03  0.31992707037E+03 0.  0.
         13    1    3    3    0    0  0.85453438491E+02  0.15688045770E+03 -0.41361050383E+03  0.45054124898E+03  0.00000000000E+00 0.  1.
          1    1    3    3  501    0  0.69800840875E+02 -0.16177503437E+03 -0.47173585779E+03  0.50356532710E+03  0.00000000000E+00 0.  1.
         21    1    1    2  502  501 -0.15525427937E+03  0.48945766698E+01 -0.51309287329E+01  0.15541613356E+03  0.00000000000E+00 0.  1.
<mgrwt>
<rscale>  1 0.30000000E+03</rscale>
<asrwt>0</asrwt>
<pdfrwt beam="1">  1        1 0.39826524E+00 0.30000000E+03</pdfrwt>
<pdfrwt beam="2">0</pdfrwt>
<totfact> 0.10773684E+00</totfact>
</mgrwt>
</event>
<event>
 6    1  0.1939311E-004  0.3000000E+03  0.7818608E-02  0.1093470E+00
          1   -1    0    0  502    0  0.00000000000E+00  0.00000000000E+00  0.62404576372E+02  0.62404576372E+02  0.00000000000E+00 0.  1.
         13   -1    0    0    0    0 -0.00000000000E+00 -0.00000000000E+00 -0.10000000000E+04  0.10000000000E+04  0.00000000000E+00 0.  1.
    9000005    2    1    2  501    0  0.19114647730E+02 -0.21965622208E+02 -0.96081818125E+03  0.10251600494E+04  0.35627754793E+03 0.  0.
         13    1    3    3    0    0  0.18405775805E+02  0.56203530703E+02  0.19992508512E+01  0.59174373257E+02  0.00000000000E+00 0.  1.
          3    1    3    3  501    0  0.70887192518E+00 -0.78169152911E+02 -0.96281743211E+03  0.96598567615E+03  0.00000000000E+00 0.  1.
         21    1    1    2  502  501 -0.19114647730E+02  0.21965622208E+02  0.23222757626E+02  0.37244526961E+02  0.00000000000E+00 0.  1.
<mgrwt>
<rscale>  1 0.30000000E+03</rscale>
<asrwt>0</asrwt>
<pdfrwt beam="1">  1        1 0.22692621E+00 0.30000000E+03</pdfrwt>
<pdfrwt beam="2">0</pdfrwt>
<totfact> 0.76497900E+00</totfact>
</mgrwt>
</event>
<event>
 6    1  0.1939311E-004  0.3000000E+03  0.7818608E-02  0.1093470E+00
          1   -1    0    0  502    0  0.00000000000E+00  0.00000000000E+00  0.29535647660E+02  0.29535647660E+02  0.00000000000E+00 0.  1.
         13   -1    0    0    0    0 -0.00000000000E+00 -0.00000000000E+00 -0.10000000000E+04  0.10000000000E+04  0.00000000000E+00 0.  1.
    9000005    2    1    2  501    0 -0.12819925207E+02  0.53120571114E+01 -0.93074383506E+03  0.98746085798E+03  0.32954861723E+03 0.  0.
         13    1    3    3    0    0  0.24050770256E+01 -0.94199698049E+02 -0.61761981955E+02  0.11266725311E+03  0.00000000000E+00 0.  1.
          1    1    3    3  501    0 -0.15225002232E+02  0.99511755161E+02 -0.86898185310E+03  0.87479360487E+03  0.00000000000E+00 0.  1.
         21    1    1    2  502  501  0.12819925207E+02 -0.53120571114E+01 -0.39720517284E+02  0.42074789677E+02  0.00000000000E+00 0. -1.
<mgrwt>
<rscale>  1 0.30000000E+03</rscale>
<asrwt>0</asrwt>
<pdfrwt beam="1">  1        1 0.10740258E+00 0.30000000E+03</pdfrwt>
<pdfrwt beam="2">0</pdfrwt>
<totfact> 0.30796214E+01</totfact>
</mgrwt>
</event>
<event>
 6    1  0.1939311E-004  0.3000000E+03  0.7818608E-02  0.1093470E+00
          1   -1    0    0  502    0  0.00000000000E+00  0.00000000000E+00  0.32984403418E+02  0.32984403418E+02  0.00000000000E+00 0.  1.
         13   -1    0    0    0    0 -0.00000000000E+00 -0.00000000000E+00 -0.10000000000E+04  0.10000000000E+04  0.00000000000E+00 0.  1.
    9000005    2    1    2  501    0 -0.60009783886E+01 -0.19603428663E+02 -0.96054621829E+03  0.10114865195E+04  0.31628410571E+03 0.  0.
         13    1    3    3    0    0 -0.63424098612E+02  0.10798815459E+03 -0.18489385155E+03  0.22331545884E+03  0.00000000000E+00 0.  1.
          1    1    3    3  501    0  0.57423120224E+02 -0.12759158325E+03 -0.77565236674E+03  0.78817106067E+03  0.00000000000E+00 0.  1.
         21    1    1    2  502  501  0.60009783886E+01  0.19603428663E+02 -0.64693782949E+01  0.21497883908E+02  0.00000000000E+00 0.  1.
<mgrwt>
<rscale>  1 0.30000000E+03</rscale>
<asrwt>0</asrwt>
<pdfrwt beam="1">  1        1 0.11994354E+00 0.30000000E+03</pdfrwt>
<pdfrwt beam="2">0</pdfrwt>
<totfact> 0.26015140E+01</totfact>
</mgrwt>
</event>
<event>
 6    1  0.1939311E-004  0.3000000E+03  0.7818608E-02  0.1093470E+00
          1   -1    0    0  502    0  0.00000000000E+00  0.00000000000E+00  0.33430306909E+02  0.33430306909E+02  0.00000000000E+00 0.  1.
         13   -1    0    0    0    0 -0.00000000000E+00 -0.00000000000E+00 -0.10000000000E+04  0.10000000000E+04  0.00000000000E+00 0.  1.
    9000005    2    1    2  501    0 -0.94327915267E+01 -0.80627852538E+01 -0.96830078470E+03  0.10209010316E+04  0.32323137311E+03 0.  0.
         13    1    3    3    0    0 -0.10746523181E+03  0.95895100074E+02 -0.24996306547E+03  0.28848948051E+03  0.00000000000E+00 0.  1.
          1    1    3    3  501    0  0.98032440280E+02 -0.10395788533E+03 -0.71833771924E+03  0.73241155107E+03  0.00000000000E+00 0.  1.
         21    1    1    2  502  501  0.94327915267E+01  0.80627852538E+01  0.17310916131E+01  0.12529275327E+02  0.00000000000E+00 0.  1.
<mgrwt>
<rscale>  1 0.30000000E+03</rscale>
<asrwt>0</asrwt>
<pdfrwt beam="1">  1        1 0.12156501E+00 0.30000000E+03</pdfrwt>
<pdfrwt beam="2">0</pdfrwt>
<totfact> 0.25473463E+01</totfact>
</mgrwt>
</event>
<event>
 6    1  0.1939311E-004  0.3000000E+03  0.7818608E-02  0.1093470E+00
          1   -1    0    0  502    0  0.00000000000E+00  0.00000000000E+00  0.39805737784E+02  0.39805737784E+02  0.00000000000E+00 0.  1.
         13   -1    0    0    0    0 -0.00000000000E+00 -0.00000000000E+00 -0.10000000000E+04  0.10000000000E+04  0.00000000000E+00 0.  1.
    9000005    2    1    2  501    0 -0.23459991114E+00 -0.24993115157E+02 -0.96232940788E+03  0.10147204893E+04  0.32086612689E+03 0.  0.
         13    1    3    3    0    0  0.10873428109E+03  0.10103295538E+03 -0.35093722792E+03  0.38103509011E+03  0.00000000000E+00 0.  1.
          1    1    3    3  501    0 -0.10896888101E+03 -0.12602607054E+03 -0.61139217996E+03  0.63368539923E+03  0.00000000000E+00 0.  1.
         21    1    1    2  502  501  0.23459991114E+00  0.24993115157E+02  0.21351456603E+01  0.25085248442E+02  0.00000000000E+00 0. -1.
<mgrwt>
<rscale>  1 0.30000000E+03</rscale>
<asrwt>0</asrwt>
<pdfrwt beam="1">  1        1 0.14474844E+00 0.30000000E+03</pdfrwt>
<pdfrwt beam="2">0</pdfrwt>
<totfact> 0.19113264E+01</totfact>
</mgrwt>
</event>
<event>
 6    1  0.1939311E-004  0.3000000E+03  0.7818608E-02  0.1093470E+00
          1   -1    0    0  502    0  0.00000000000E+00  0.00000000000E+00  0.35580268635E+02  0.35580268635E+02  0.00000000000E+00 0.  1.
         13   -1    0    0    0    0 -0.00000000000E+00 -0.00000000000E+00 -0.10000000000E+04  0.10000000000E+04  0.00000000000E+00 0.  1.
    9000005    2    1    2  501    0  0.16560038155E+02 -0.48668186766E+01 -0.96544350098E+03  0.10182895517E+04  0.32331801176E+03 0.  0.
         13    1    3    3    0    0 -0.12333975162E+03  0.80171176675E+02 -0.31655193559E+03  0.34906337508E+03  0.00000000000E+00 0.  1.
          1    1    3    3  501    0  0.13989978978E+03 -0.85037995351E+02 -0.64889156540E+03  0.66922617662E+03  0.00000000000E+00 0.  1.
         21    1    1    2  502  501 -0.16560038155E+02  0.48668186766E+01  0.10237696188E+01  0.17290716930E+02  0.00000000000E+00 0. -1.
<mgrwt>
<rscale>  1 0.30000000E+03</rscale>
<asrwt>0</asrwt>
<pdfrwt beam="1">  1        1 0.12938307E+00 0.30000000E+03</pdfrwt>
<pdfrwt beam="2">0</pdfrwt>
<totfact> 0.23057638E+01</totfact>
</mgrwt>
</event>
<event>
 6    1  0.1939311E-004  0.3000000E+03  0.7818608E-02  0.1093470E+00
          1   -1    0    0  502    0  0.00000000000E+00  0.00000000000E+00  0.51080394556E+02  0.51080394556E+02  0.00000000000E+00 0.  1.
         13   -1    0    0    0    0 -0.00000000000E+00 -0.00000000000E+00 -0.10000000000E+04  0.10000000000E+04  0.00000000000E+00 0.  1.
    9000005    2    1    2  501    0 -0.81620047603E+02 -0.61189450747E+02 -0.80728437379E+03  0.87653378216E+03  0.32587947166E+03 0.  0.
         13    1    3    3    0    0  0.62795425660E+02 -0.43335820769E+02 -0.67678974311E+03  0.68107680567E+03  0.00000000000E+00 0.  1.
          3    1    3    3  501    0 -0.14441547326E+03 -0.17853629979E+02 -0.13049463068E+03  0.19545697649E+03  0.00000000000E+00 0.  1.
         21    1    1    2  502  501  0.81620047603E+02  0.61189450747E+02 -0.14163523165E+03  0.17454661239E+03  0.00000000000E+00 0.  1.
<mgrwt>
<rscale>  1 0.30000000E+03</rscale>
<asrwt>0</asrwt>
<pdfrwt beam="1">  1        1 0.18574728E+00 0.30000000E+03</pdfrwt>
<pdfrwt beam="2">0</pdfrwt>
<totfact> 0.11984797E+01</totfact>
</mgrwt>
</event>
<event>
 6    1  0.1939311E-004  0.3000000E+03  0.7818608E-02  0.1093470E+00
          1   -1    0    0  502    0  0.00000000000E+00  0.00000000000E+00  0.35018724777E+02  0.35018724777E+02  0.00000000000E+00 0.  1.
         13   -1    0    0    0    0 -0.00000000000E+00 -0.00000000000E+00 -0.10000000000E+04  0.10000000000E+04  0.00000000000E+00 0.  1.
    9000005    2    1    2  501    0 -0.26850703533E+02 -0.17952490703E+02 -0.93593063517E+03  0.99157690287E+03  0.32590696259E+03 0.  0.
         13    1    3    3    0    0  0.30438190537E+02 -0.22919186512E+02 -0.93323234901E+03  0.93400984459E+03  0.00000000000E+00 0.  1.
          3    1    3    3  501    0 -0.57288894070E+02  0.49666958090E+01 -0.26982861564E+01  0.57567058281E+02  0.00000000000E+00 0.  1.
         21    1    1    2  502  501  0.26850703533E+02  0.17952490703E+02 -0.29050640057E+02  0.43441821905E+02  0.00000000000E+00 0.  1.
<mgrwt>
<rscale>  1 0.30000000E+03</rscale>
<asrwt>0</asrwt>
<pdfrwt beam="1">  1        1 0.12734109E+00 0.30000000E+03</pdfrwt>
<pdfrwt beam="2">0</pdfrwt>
<totfact> 0.23659235E+01</totfact>
</mgrwt>
</event>
<event>
 6    1  0.1939311E-004  0.3000000E+03  0.7818608E-02  0.1093470E+00
          3   -1    0    0  502    0  0.00000000000E+00  0.00000000000E+00  0.26536384518E+02  0.26536384518E+02  0.00000000000E+00 0.  1.
         13   -1    0    0    0    0 -0.00000000000E+00 -0.00000000000E+00 -0.10000000000E+04  0.10000000000E+04  0.00000000000E+00 0.  1.
    9000005    2    1    2  501    0  0.38510003303E+01 -0.14679392457E+02 -0.92830758516E+03  0.97889835516E+03  0.31025264271E+03 0.  0.
         13    1    3    3    0    0 -0.12269357918E+03 -0.55058360768E+02 -0.71556907211E+03  0.72809630848E+03  0.00000000000E+00 0.  1.
          3    1    3    3  501    0  0.12654457951E+03  0.40378968311E+02 -0.21273851305E+03  0.25080204668E+03  0.00000000000E+00 0.  1.
         21    1    1    2  502  501 -0.38510003303E+01  0.14679392457E+02 -0.45156030326E+02  0.47638029359E+02  0.00000000000E+00 0. -1.
<mgrwt>
<rscale>  1 0.30000000E+03</rscale>
<asrwt>0</asrwt>
<pdfrwt beam="1">  1        3 0.96496147E-01 0.30000000E+03</pdfrwt>
<pdfrwt beam="2">0</pdfrwt>
<totfact> 0.42947776E+00</totfact>
</mgrwt>
</event>
<event>
 6    1  0.1939311E-004  0.3000000E+03  0.7818608E-02  0.1093470E+00
          1   -1    0    0  502    0  0.00000000000E+00  0.00000000000E+00  0.38076922582E+02  0.38076922582E+02  0.00000000000E+00 0.  1.
         13   -1    0    0    0    0 -0.00000000000E+00 -0.00000000000E+00 -0.10000000000E+04  0.10000000000E+04  0.00000000000E+00 0.  1.
    9000005    2    1    2  501    0 -0.32513807135E+02  0.10186405308E+02 -0.95024605311E+03  0.10020593796E+04  0.31621911428E+03 0.  0.
         13    1    3    3    0    0  0.94376949903E+02 -0.10344404452E+03 -0.32193745724E+03  0.35107179521E+03  0.00000000000E+00 0.  1.
          1    1    3    3  501    0 -0.12689075704E+03  0.11363044983E+03 -0.62830859587E+03  0.65098758436E+03  0.00000000000E+00 0.  1.
         21    1    1    2  502  501  0.32513807135E+02 -0.10186405308E+02 -0.11677024305E+02  0.36017543005E+02  0.00000000000E+00 0.  1.
<mgrwt>
<rscale>  1 0.30000000E+03</rscale>
<asrwt>0</asrwt>
<pdfrwt beam="1">  1        1 0.13846183E+00 0.30000000E+03</pdfrwt>
<pdfrwt beam="2">0</pdfrwt>
<totfact> 0.20612476E+01</totfact>
</mgrwt>
</event>
<event>
 6    1  0.1939311E-004  0.3000000E+03  0.7818608E-02  0.1093470E+00
          1   -1    0    0  502    0  0.00000000000E+00  0.00000000000E+00  0.29827186496E+02  0.29827186496E+02  0.00000000000E+00 0.  1.
         13   -1    0    0    0    0 -0.00000000000E+00 -0.00000000000E+00 -0.10000000000E+04  0.10000000000E+04  0.00000000000E+00 0.  1.
    9000005    2    1    2  501    0 -0.12487847620E+02 -0.19364524782E+01 -0.95672272307E+03  0.10113718047E+04  0.32771155337E+03 0.  0.
         13    1    3    3    0    0 -0.53764917803E+02  0.84969536722E+02 -0.77632977611E+02  0.12703293970E+03  0.00000000000E+00 0.  1.
          3    1    3    3  501    0  0.41277070183E+02 -0.86905989200E+02 -0.87908974546E+03  0.88433886495E+03  0.00000000000E+00 0.  1.
         21    1    1    2  502  501  0.12487847620E+02  0.19364524782E+01 -0.13450090431E+02  0.18455381844E+02  0.00000000000E+00 0. -1.
<mgrwt>
<rscale>  1 0.30000000E+03</rscale>
<asrwt>0</asrwt>
<pdfrwt beam="1">  1        1 0.10846273E+00 0.30000000E+03</pdfrwt>
<pdfrwt beam="2">0</pdfrwt>
<totfact> 0.30345985E+01</totfact>
</mgrwt>
</event>
<event>
 6    1  0.1939311E-004  0.3000000E+03  0.7818608E-02  0.1093470E+00
          1   -1    0    0  502    0  0.00000000000E+00  0.00000000000E+00  0.32200116395E+02  0.32200116395E+02  0.00000000000E+00 0.  1.
         13   -1    0    0    0    0 -0.00000000000E+00 -0.00000000000E+00 -0.10000000000E+04  0.10000000000E+04  0.00000000000E+00 0.  1.
    9000005    2    1    2  501    0 -0.30634738367E+01  0.14261796824E+02 -0.96391491247E+03  0.10171045302E+04  0.32427902064E+03 0.  0.
         13    1    3    3    0    0 -0.16101636734E+03  0.23430980748E+02 -0.56486278666E+03  0.58783096989E+03  0.00000000000E+00 0.  1.
          1    1    3    3  501    0  0.15795289350E+03 -0.91691839239E+01 -0.39905212581E+03  0.42927356035E+03  0.00000000000E+00 0.  1.
         21    1    1    2  502  501  0.30634738367E+01 -0.14261796824E+02 -0.38849711305E+01  0.15095586153E+02  0.00000000000E+00 0. -1.
<mgrwt>
<rscale>  1 0.30000000E+03</rscale>
<asrwt>0</asrwt>
<pdfrwt beam="1">  1        1 0.11709158E+00 0.30000000E+03</pdfrwt>
<pdfrwt beam="2">0</pdfrwt>
<totfact> 0.27006126E+01</totfact>
</mgrwt>
</event>
<event>
 6    1  0.1939311E-004  0.3000000E+03  0.7818608E-02  0.1093470E+00
          1   -1    0    0  502    0  0.00000000000E+00  0.00000000000E+00  0.28927716124E+02  0.28927716124E+02  0.00000000000E+00 0.  1.
         13   -1    0    0    0    0 -0.00000000000E+00 -0.00000000000E+00 -0.10000000000E+04  0.10000000000E+04  0.00000000000E+00 0.  1.
    9000005    2    1    2  501    0  0.14638890105E+00 -0.10615680428E+02 -0.95802830599E+03  0.10121092899E+04  0.32624264831E+03 0.  0.
         13    1    3    3    0    0 -0.94669630414E+02 -0.12754412015E+03 -0.32925854222E+03  0.36556945870E+03  0.00000000000E+00 0.  1.
          1    1    3    3  501    0  0.94816019315E+02  0.11692843972E+03 -0.62876976377E+03  0.64653983123E+03  0.00000000000E+00 0.  1.
         21    1    1    2  502  501 -0.14638890105E+00  0.10615680428E+02 -0.13043977883E+02  0.16818426195E+02  0.00000000000E+00 0.  1.
<mgrwt>
<rscale>  1 0.30000000E+03</rscale>
<asrwt>0</asrwt>
<pdfrwt beam="1">  1        1 0.10519192E+00 0.30000000E+03</pdfrwt>
<pdfrwt beam="2">0</pdfrwt>
<totfact> 0.31766428E+01</totfact>
</mgrwt>
</event>
<event>
 6    1  0.1939311E-004  0.3000000E+03  0.7818608E-02  0.1093470E+00
          1   -1    0    0  502    0  0.00000000000E+00  0.00000000000E+00  0.32825181806E+02  0.32825181806E+02  0.00000000000E+00 0.  1.
         13   -1    0    0    0    0 -0.00000000000E+00 -0.00000000000E+00 -0.10000000000E+04  0.10000000000E+04  0.00000000000E+00 0.  1.
    9000005    2    1    2  501    0 -0.13069394832E+02  0.77218154097E+01 -0.96218990959E+03  0.10168475466E+04  0.32854082745E+03 0.  0.
         13    1    3    3    0    0 -0.36284451792E+02 -0.15000947816E+03 -0.32159169045E+03  0.35670803236E+03  0.00000000000E+00 0.  1.
          3    1    3    3  501    0  0.23215056960E+02  0.15773129357E+03 -0.64059821914E+03  0.66013951420E+03  0.00000000000E+00 0.  1.
         21    1    1    2  502  501  0.13069394832E+02 -0.77218154097E+01 -0.49849086072E+01  0.15977635254E+02  0.00000000000E+00 0.  1.
<mgrwt>
<rscale>  1 0.30000000E+03</rscale>
<asrwt>0</asrwt>
<pdfrwt beam="1">  1        1 0.11936455E+00 0.30000000E+03</pdfrwt>
<pdfrwt beam="2">0</pdfrwt>
<totfact> 0.26212288E+01</totfact>
</mgrwt>
</event>
<event>
 6    1  0.1939311E-004  0.3000000E+03  0.7818608E-02  0.1093470E+00
          1   -1    0    0  502    0  0.00000000000E+00  0.00000000000E+00  0.61068379578E+02  0.61068379578E+02  0.00000000000E+00 0.  1.
         13   -1    0    0    0    0 -0.00000000000E+00 -0.00000000000E+00 -0.10000000000E+04  0.10000000000E+04  0.00000000000E+00 0.  1.
    9000005    2    1    2  501    0 -0.17962375836E+01  0.27688917185E+02 -0.96825141027E+03  0.10207006613E+04  0.32179052786E+03 0.  0.
         13    1    3    3    0    0  0.15152298700E+03 -0.25414275314E+02 -0.57780219900E+03  0.59787998976E+03  0.00000000000E+00 0.  1.
          1    1    3    3  501    0 -0.15331922458E+03  0.53103192499E+02 -0.39044921127E+03  0.42282067151E+03  0.00000000000E+00 0.  1.
         21    1    1    2  502  501  0.17962375836E+01 -0.27688917185E+02  0.29319789850E+02  0.40367718305E+02  0.00000000000E+00 0.  1.
<mgrwt>
<rscale>  1 0.30000000E+03</rscale>
<asrwt>0</asrwt>
<pdfrwt beam="1">  1        1 0.22206730E+00 0.30000000E+03</pdfrwt>
<pdfrwt beam="2">0</pdfrwt>
<totfact> 0.80614148E+00</totfact>
</mgrwt>
</event>
<event>
 6    1  0.1939311E-004  0.3000000E+03  0.7818608E-02  0.1093470E+00
          1   -1    0    0  502    0  0.00000000000E+00  0.00000000000E+00  0.87052141561E+02  0.87052141561E+02  0.00000000000E+00 0.  1.
         13   -1    0    0    0    0 -0.00000000000E+00 -0.00000000000E+00 -0.10000000000E+04  0.10000000000E+04  0.00000000000E+00 0.  1.
    9000005    2    1    2  501    0 -0.30452357111E+02  0.28042292667E+02 -0.96680553473E+03  0.10191230202E+04  0.31966399880E+03 0.  0.
         13    1    3    3    0    0 -0.10888650371E+02  0.97746753529E+02 -0.73231007848E+02  0.12262043485E+03  0.00000000000E+00 0.  1.
          3    1    3    3  501    0 -0.19563706740E+02 -0.69704460863E+02 -0.89357452688E+03  0.89650258537E+03  0.00000000000E+00 0.  1.
         21    1    1    2  502  501  0.30452357111E+02 -0.28042292667E+02  0.53857676287E+02  0.67929121344E+02  0.00000000000E+00 0.  1.
<mgrwt>
<rscale>  1 0.30000000E+03</rscale>
<asrwt>0</asrwt>
<pdfrwt beam="1">  1        1 0.31655391E+00 0.30000000E+03</pdfrwt>
<pdfrwt beam="2">0</pdfrwt>
<totfact> 0.28941273E+00</totfact>
</mgrwt>
</event>
<event>
 6    1  0.1939311E-004  0.3000000E+03  0.7818608E-02  0.1093470E+00
          1   -1    0    0  502    0  0.00000000000E+00  0.00000000000E+00  0.37330281387E+02  0.37330281387E+02  0.00000000000E+00 0.  1.
         13   -1    0    0    0    0 -0.00000000000E+00 -0.00000000000E+00 -0.10000000000E+04  0.10000000000E+04  0.00000000000E+00 0.  1.
    9000005    2    1    2  501    0 -0.29564077480E+01  0.13718130475E+02 -0.96779297722E+03  0.10223912309E+04  0.32933820737E+03 0.  0.
         13    1    3    3    0    0  0.10772788503E+03  0.99087947506E+02 -0.74601118951E+03  0.76023444635E+03  0.00000000000E+00 0.  1.
          3    1    3    3  501    0 -0.11068429278E+03 -0.85369817031E+02 -0.22178178771E+03  0.26215678455E+03  0.00000000000E+00 0.  1.
         21    1    1    2  502  501  0.29564077480E+01 -0.13718130475E+02  0.51232586039E+01  0.14939050479E+02  0.00000000000E+00 0. -1.
<mgrwt>
<rscale>  1 0.30000000E+03</rscale>
<asrwt>0</asrwt>
<pdfrwt beam="1">  1        1 0.13574676E+00 0.30000000E+03</pdfrwt>
<pdfrwt beam="2">0</pdfrwt>
<totfact> 0.21306306E+01</totfact>
</mgrwt>
</event>
<event>
 6    1  0.1939311E-004  0.3000000E+03  0.7818608E-02  0.1093470E+00
          1   -1    0    0  502    0  0.00000000000E+00  0.00000000000E+00  0.35360427323E+02  0.35360427323E+02  0.00000000000E+00 0.  1.
         13   -1    0    0    0    0 -0.00000000000E+00 -0.00000000000E+00 -0.10000000000E+04  0.10000000000E+04  0.00000000000E+00 0.  1.
    9000005    2    1    2  501    0 -0.37542833414E+01 -0.24420636184E+02 -0.95317472410E+03  0.10081224966E+04  0.32735065519E+03 0.  0.
         13    1    3    3    0    0  0.15093445307E+03 -0.57259703634E+02 -0.59661126384E+03  0.61806543579E+03  0.00000000000E+00 0.  1.
          1    1    3    3  501    0 -0.15468873641E+03  0.32839067450E+02 -0.35656346026E+03  0.39005706085E+03  0.00000000000E+00 0.  1.
         21    1    1    2  502  501  0.37542833414E+01  0.24420636184E+02 -0.11464848577E+02  0.27237930684E+02  0.00000000000E+00 0. -1.
<mgrwt>
<rscale>  1 0.30000000E+03</rscale>
<asrwt>0</asrwt>
<pdfrwt beam="1">  1        1 0.12858364E+00 0.30000000E+03</pdfrwt>
<pdfrwt beam="2">0</pdfrwt>
<totfact> 0.23290783E+01</totfact>
</mgrwt>
</event>
<event>
 6    1  0.1939311E-004  0.3000000E+03  0.7818608E-02  0.1093470E+00
          1   -1    0    0  502    0  0.00000000000E+00  0.00000000000E+00  0.32975977371E+02  0.32975977371E+02  0.00000000000E+00 0.  1.
         13   -1    0    0    0    0 -0.00000000000E+00 -0.00000000000E+00 -0.10000000000E+04  0.10000000000E+04  0.00000000000E+00 0.  1.
    9000005    2    1    2  501    0  0.15436895342E+02  0.17800842784E+02 -0.94671916529E+03  0.10018720391E+04  0.32697895521E+03 0.  0.
         13    1    3    3    0    0  0.13684905319E+03 -0.45545061493E+02 -0.22487839814E+03  0.26715596556E+03  0.00000000000E+00 0.  1.
          3    1    3    3  501    0 -0.12141215785E+03  0.63345904277E+02 -0.72184076715E+03  0.73471607358E+03  0.00000000000E+00 0.  1.
         21    1    1    2  502  501 -0.15436895342E+02 -0.17800842784E+02 -0.20304857337E+02  0.31103938225E+02  0.00000000000E+00 0.  1.
<mgrwt>
<rscale>  1 0.30000000E+03</rscale>
<asrwt>0</asrwt>
<pdfrwt beam="1">  1        1 0.11991290E+00 0.30000000E+03</pdfrwt>
<pdfrwt beam="2">0</pdfrwt>
<totfact> 0.26025523E+01</totfact>
</mgrwt>
</event>
<event>
 6    1  0.1939311E-004  0.3000000E+03  0.7818608E-02  0.1093470E+00
          1   -1    0    0  502    0  0.00000000000E+00  0.00000000000E+00  0.52441593564E+02  0.52441593564E+02  0.00000000000E+00 0.  1.
         13   -1    0    0    0    0 -0.00000000000E+00 -0.00000000000E+00 -0.10000000000E+04  0.10000000000E+04  0.00000000000E+00 0.  1.
    9000005    2    1    2  501    0  0.24415423403E+01 -0.15498918425E+02 -0.97457195702E+03  0.10212020430E+04  0.30465872008E+03 0.  0.
         13    1    3    3    0    0 -0.57022253332E+02  0.85092552665E+02 -0.82529952814E+03  0.83163188434E+03  0.00000000000E+00 0.  1.
          1    1    3    3  501    0  0.59463795672E+02 -0.10059147109E+03 -0.14927242888E+03  0.18957015871E+03  0.00000000000E+00 0.  1.
         21    1    1    2  502  501 -0.24415423403E+01  0.15498918425E+02  0.27013550581E+02  0.31239550515E+02  0.00000000000E+00 0.  1.
<mgrwt>
<rscale>  1 0.30000000E+03</rscale>
<asrwt>0</asrwt>
<pdfrwt beam="1">  1        1 0.19069711E+00 0.30000000E+03</pdfrwt>
<pdfrwt beam="2">0</pdfrwt>
<totfact> 0.11346271E+01</totfact>
</mgrwt>
</event>
<event>
 6    1  0.1939311E-004  0.3000000E+03  0.7818608E-02  0.1093470E+00
          1   -1    0    0  502    0  0.00000000000E+00  0.00000000000E+00  0.35503631725E+02  0.35503631725E+02  0.00000000000E+00 0.  1.
         13   -1    0    0    0    0 -0.00000000000E+00 -0.00000000000E+00 -0.10000000000E+04  0.10000000000E+04  0.00000000000E+00 0.  1.
    9000005    2    1    2  501    0 -0.47673338098E+02 -0.20564710143E+01 -0.84382338637E+03  0.90573867189E+03  0.32564959410E+03 0.  0.
         13    1    3    3    0    0  0.11710789905E+02  0.33468299612E+02 -0.83525962143E+03  0.83601190474E+03  0.00000000000E+00 0.  1.
          1    1    3    3  501    0 -0.59384128002E+02 -0.35524770626E+02 -0.85637649341E+01  0.69726767145E+02  0.00000000000E+00 0.  1.
         21    1    1    2  502  501  0.47673338098E+02  0.20564710143E+01 -0.12067298191E+03  0.12976495984E+03  0.00000000000E+00 0.  1.
<mgrwt>
<rscale>  1 0.30000000E+03</rscale>
<asrwt>0</asrwt>
<pdfrwt beam="1">  1        1 0.12910439E+00 0.30000000E+03</pdfrwt>
<pdfrwt beam="2">0</pdfrwt>
<totfact> 0.23138568E+01</totfact>
</mgrwt>
</event>
<event>
 6    1  0.1939311E-004  0.3000000E+03  0.7818608E-02  0.1093470E+00
          1   -1    0    0  502    0  0.00000000000E+00  0.00000000000E+00  0.41184706451E+02  0.41184706451E+02  0.00000000000E+00 0.  1.
         13   -1    0    0    0    0 -0.00000000000E+00 -0.00000000000E+00 -0.10000000000E+04  0.10000000000E+04  0.00000000000E+00 0.  1.
    9000005    2    1    2  501    0  0.81197280628E+01 -0.27757772011E+02 -0.94206851505E+03  0.10077649745E+04  0.35673622324E+03 0.  0.
         13    1    3    3    0    0 -0.40320625410E+02  0.14964169640E+03 -0.59660570934E+03  0.61640632910E+03  0.00000000000E+00 0.  1.
          1    1    3    3  501    0  0.48440353473E+02 -0.17739946841E+03 -0.34546280570E+03  0.39135864544E+03  0.00000000000E+00 0.  1.
         21    1    1    2  502  501 -0.81197280628E+01  0.27757772011E+02 -0.16746778502E+02  0.33419731912E+02  0.00000000000E+00 0.  1.
<mgrwt>
<rscale>  1 0.30000000E+03</rscale>
<asrwt>0</asrwt>
<pdfrwt beam="1">  1        1 0.14976288E+00 0.30000000E+03</pdfrwt>
<pdfrwt beam="2">0</pdfrwt>
<totfact> 0.18014915E+01</totfact>
</mgrwt>
</event>
<event>
 6    1  0.1939311E-004  0.3000000E+03  0.7818608E-02  0.1093470E+00
          1   -1    0    0  502    0  0.00000000000E+00  0.00000000000E+00  0.28334091956E+02  0.28334091956E+02  0.00000000000E+00 0.  1.
         13   -1    0    0    0    0 -0.00000000000E+00 -0.00000000000E+00 -0.10000000000E+04  0.10000000000E+04  0.00000000000E+00 0.  1.
    9000005    2    1    2  501    0 -0.10911745000E+02 -0.10218205696E+02 -0.95413363495E+03  0.10052937251E+04  0.31626097200E+03 0.  0.
         13    1    3    3    0    0 -0.44277861738E+02 -0.15381023708E+03 -0.37575527490E+03  0.40842397663E+03  0.00000000000E+00 0.  1.
          3    1    3    3  501    0  0.33366116737E+02  0.14359203139E+03 -0.57837836004E+03  0.59686974843E+03  0.00000000000E+00 0.  1.
         21    1    1    2  502  501  0.10911745000E+02  0.10218205696E+02 -0.17532273098E+02  0.23040366893E+02  0.00000000000E+00 0. -1.
<mgrwt>
<rscale>  1 0.30000000E+03</rscale>
<asrwt>0</asrwt>
<pdfrwt beam="1">  1        1 0.10303328E+00 0.30000000E+03</pdfrwt>
<pdfrwt beam="2">0</pdfrwt>
<totfact> 0.32757040E+01</totfact>
</mgrwt>
</event>
<event>
 6    1  0.7748470E-004  0.3000000E+03  0.7818608E-02  0.1093470E+00
          1   -1    0    0  502    0  0.00000000000E+00  0.00000000000E+00  0.57092732237E+02  0.57092732237E+02  0.00000000000E+00 0.  1.
         13   -1    0    0    0    0 -0.00000000000E+00 -0.00000000000E+00 -0.10000000000E+04  0.10000000000E+04  0.00000000000E+00 0.  1.
    9000005    2    1    2  501    0  0.14597108936E+01  0.12098814809E+02 -0.94090007225E+03  0.10447419869E+04  0.45392109581E+03 0.  0.
         13    1    3    3    0    0  0.16318448481E+03  0.71646536634E+02 -0.80714820222E+03  0.82658975474E+03  0.00000000000E+00 0.  1.
          1    1    3    3  501    0 -0.16172477392E+03 -0.59547721825E+02 -0.13375187003E+03  0.21815223220E+03  0.00000000000E+00 0.  1.
         21    1    1    2  502  501 -0.14597108936E+01 -0.12098814809E+02 -0.20071955101E+01  0.12350745301E+02  0.00000000000E+00 0.  1.
<mgrwt>
<rscale>  1 0.30000000E+03</rscale>
<asrwt>0</asrwt>
<pdfrwt beam="1">  1        1 0.20761037E+00 0.30000000E+03</pdfrwt>
<pdfrwt beam="2">0</pdfrwt>
<totfact> 0.94268902E+00</totfact>
</mgrwt>
</event>
<event>
 6    1  0.1939311E-004  0.3000000E+03  0.7818608E-02  0.1093470E+00
          1   -1    0    0  502    0  0.00000000000E+00  0.00000000000E+00  0.78629207711E+02  0.78629207711E+02  0.00000000000E+00 0.  1.
         13   -1    0    0    0    0 -0.00000000000E+00 -0.00000000000E+00 -0.10000000000E+04  0.10000000000E+04  0.00000000000E+00 0.  1.
    9000005    2    1    2  501    0 -0.49092516772E+02  0.77972612158E+01 -0.95973952887E+03  0.10158356377E+04  0.32916744539E+03 0.  0.
         13    1    3    3    0    0 -0.51576628877E+02  0.62755656629E+02 -0.95732822323E+03  0.96076831135E+03  0.00000000000E+00 0.  1.
          1    1    3    3  501    0  0.24841121054E+01 -0.54958395413E+02 -0.24113056344E+01  0.55067326376E+02  0.00000000000E+00 0.  1.
         21    1    1    2  502  501  0.49092516772E+02 -0.77972612158E+01  0.38368736579E+02  0.62793569990E+02  0.00000000000E+00 0.  1.
<mgrwt>
<rscale>  1 0.30000000E+03</rscale>
<asrwt>0</asrwt>
<pdfrwt beam="1">  1        1 0.28592499E+00 0.30000000E+03</pdfrwt>
<pdfrwt beam="2">0</pdfrwt>
<totfact> 0.40501197E+00</totfact>
</mgrwt>
</event>
<event>
 6    1  0.1939311E-004  0.3000000E+03  0.7818608E-02  0.1093470E+00
          1   -1    0    0  502    0  0.00000000000E+00  0.00000000000E+00  0.37831974769E+02  0.37831974769E+02  0.00000000000E+00 0.  1.
         13   -1    0    0    0    0 -0.00000000000E+00 -0.00000000000E+00 -0.10000000000E+04  0.10000000000E+04  0.00000000000E+00 0.  1.
    9000005    2    1    2  501    0 -0.32627276601E+02  0.85595427903E+01 -0.94487923104E+03  0.99992805207E+03  0.32545590043E+03 0.  0.
         13    1    3    3    0    0  0.63803899039E+02  0.53623277946E+02 -0.46845040155E+02  0.95607799146E+02  0.00000000000E+00 0.  1.
          1    1    3    3  501    0 -0.96431175640E+02 -0.45063735156E+02 -0.89803419088E+03  0.90432025293E+03  0.00000000000E+00 0.  1.
         21    1    1    2  502  501  0.32627276601E+02 -0.85595427903E+01 -0.17288794194E+02  0.37903922697E+02  0.00000000000E+00 0.  1.
<mgrwt>
<rscale>  1 0.30000000E+03</rscale>
<asrwt>0</asrwt>
<pdfrwt beam="1">  1        1 0.13757111E+00 0.30000000E+03</pdfrwt>
<pdfrwt beam="2">0</pdfrwt>
<totfact> 0.20836847E+01</totfact>
</mgrwt>
</event>
<event>
 6    1  0.1939311E-004  0.3000000E+03  0.7818608E-02  0.1093470E+00
          3   -1    0    0  502    0  0.00000000000E+00  0.00000000000E+00  0.39305883196E+02  0.39305883196E+02  0.00000000000E+00 0.  1.
         13   -1    0    0    0    0 -0.00000000000E+00 -0.00000000000E+00 -0.10000000000E+04  0.10000000000E+04  0.00000000000E+00 0.  1.
    9000005    2    1    2  501    0  0.38615309199E+02  0.33045582933E+02 -0.89687246807E+03  0.95771939226E+03  0.33205881659E+03 0.  0.
         13    1    3    3    0    0  0.12309844210E+03 -0.74109421615E+02 -0.19227977476E+03  0.24003529866E+03  0.00000000000E+00 0.  1.
          1    1    3    3  501    0 -0.84483132905E+02  0.10715500455E+03 -0.70459269331E+03  0.71768409360E+03  0.00000000000E+00 0.  1.
         21    1    1    2  502  501 -0.38615309199E+02 -0.33045582933E+02 -0.63821648737E+02  0.81586490937E+02  0.00000000000E+00 0.  1.
<mgrwt>
<rscale>  1 0.30000000E+03</rscale>
<asrwt>0</asrwt>
<pdfrwt beam="1">  1        3 0.14293079E+00 0.30000000E+03</pdfrwt>
<pdfrwt beam="2">0</pdfrwt>
<totfact> 0.12289743E+00</totfact>
</mgrwt>
</event>
<event>
 6    1  0.1939311E-004  0.3000000E+03  0.7818608E-02  0.1093470E+00
          1   -1    0    0  502    0  0.00000000000E+00  0.00000000000E+00  0.32160651632E+02  0.32160651632E+02  0.00000000000E+00 0.  1.
         13   -1    0    0    0    0 -0.00000000000E+00 -0.00000000000E+00 -0.10000000000E+04  0.10000000000E+04  0.00000000000E+00 0.  1.
    9000005    2    1    2  501    0  0.82283332704E+01  0.20659618419E+02 -0.94569395662E+03  0.10007768393E+04  0.32668439994E+03 0.  0.
         13    1    3    3    0    0  0.53458870898E+02 -0.12193315625E+03 -0.70441200740E+03  0.71688340868E+03  0.00000000000E+00 0.  1.
          1    1    3    3  501    0 -0.45230537628E+02  0.14259277467E+03 -0.24128194923E+03  0.28389343061E+03  0.00000000000E+00 0.  1.
         21    1    1    2  502  501 -0.82283332704E+01 -0.20659618419E+02 -0.22145391744E+02  0.31383812343E+02  0.00000000000E+00 0. -1.
<mgrwt>
<rscale>  1 0.30000000E+03</rscale>
<asrwt>0</asrwt>
<pdfrwt beam="1">  1        1 0.11694807E+00 0.30000000E+03</pdfrwt>
<pdfrwt beam="2">0</pdfrwt>
<totfact> 0.27057344E+01</totfact>
</mgrwt>
</event>
<event>
 6    1  0.1939311E-004  0.3000000E+03  0.7818608E-02  0.1093470E+00
          1   -1    0    0  502    0  0.00000000000E+00  0.00000000000E+00  0.21871612309E+02  0.21871612309E+02  0.00000000000E+00 0.  1.
         13   -1    0    0    0    0 -0.00000000000E+00 -0.00000000000E+00 -0.10000000000E+04  0.10000000000E+04  0.00000000000E+00 0.  1.
    9000005    2    1    2  501    0  0.10184799977E+02  0.88674804320E+01 -0.94645758137E+03  0.98744194004E+03  0.28120680868E+03 0.  0.
         13    1    3    3    0    0  0.13307234689E+03  0.47156484854E+02 -0.35298084020E+03  0.38016766975E+03  0.00000000000E+00 0.  1.
          1    1    3    3  501    0 -0.12288754692E+03 -0.38289004422E+02 -0.59347674117E+03  0.60727427029E+03  0.00000000000E+00 0.  1.
         21    1    1    2  502  501 -0.10184799977E+02 -0.88674804320E+01 -0.31670806320E+02  0.34429672271E+02  0.00000000000E+00 0.  1.
<mgrwt>
<rscale>  1 0.30000000E+03</rscale>
<asrwt>0</asrwt>
<pdfrwt beam="1">  1        1 0.79533303E-01 0.30000000E+03</pdfrwt>
<pdfrwt beam="2">0</pdfrwt>
<totfact> 0.47347070E+01</totfact>
</mgrwt>
</event>
<event>
 6    1  0.1939311E-004  0.3000000E+03  0.7818608E-02  0.1093470E+00
          1   -1    0    0  502    0  0.00000000000E+00  0.00000000000E+00  0.24923709672E+02  0.24923709672E+02  0.00000000000E+00 0.  1.
         13   -1    0    0    0    0 -0.00000000000E+00 -0.00000000000E+00 -0.10000000000E+04  0.10000000000E+04  0.00000000000E+00 0.  1.
    9000005    2    1    2  501    0 -0.99048373406E+01  0.22564470779E+01 -0.96684569022E+03  0.10118493021E+04  0.29823685895E+03 0.  0.
         13    1    3    3    0    0 -0.13581581453E+03 -0.68470239748E+02 -0.55270240566E+03  0.57324868811E+03  0.00000000000E+00 0.  1.
          1    1    3    3  501    0  0.12591097719E+03  0.70726686826E+02 -0.41414328457E+03  0.43860061395E+03  0.00000000000E+00 0.  1.
         21    1    1    2  502  501  0.99048373406E+01 -0.22564470779E+01 -0.82306001075E+01  0.13074407608E+02  0.00000000000E+00 0.  1.
<mgrwt>
<rscale>  1 0.30000000E+03</rscale>
<asrwt>0</asrwt>
<pdfrwt beam="1">  1        1 0.90631863E-01 0.30000000E+03</pdfrwt>
<pdfrwt beam="2">0</pdfrwt>
<totfact> 0.39438353E+01</totfact>
</mgrwt>
</event>
<event>
 6    1  0.1939311E-004  0.3000000E+03  0.7818608E-02  0.1093470E+00
          1   -1    0    0  502    0  0.00000000000E+00  0.00000000000E+00  0.29324839730E+02  0.29324839730E+02  0.00000000000E+00 0.  1.
         13   -1    0    0    0    0 -0.00000000000E+00 -0.00000000000E+00 -0.10000000000E+04  0.10000000000E+04  0.00000000000E+00 0.  1.
    9000005    2    1    2  501    0  0.28415101689E+01  0.11195266173E+02 -0.90352531394E+03  0.96118887253E+03  0.32770817441E+03 0.  0.
         13    1    3    3    0    0  0.15174027709E+03 -0.54958413912E+02 -0.52059812228E+03  0.54503939662E+03  0.00000000000E+00 0.  1.
          3    1    3    3  501    0 -0.14889876692E+03  0.66153680085E+02 -0.38292719166E+03  0.41614947590E+03  0.00000000000E+00 0.  1.
         21    1    1    2  502  501 -0.28415101689E+01 -0.11195266173E+02 -0.67149846327E+02  0.68135967202E+02  0.00000000000E+00 0.  1.
<mgrwt>
<rscale>  1 0.30000000E+03</rscale>
<asrwt>0</asrwt>
<pdfrwt beam="1">  1        1 0.10663601E+00 0.30000000E+03</pdfrwt>
<pdfrwt beam="2">0</pdfrwt>
<totfact> 0.31127757E+01</totfact>
</mgrwt>
</event>
<event>
 6    1  0.1939311E-004  0.3000000E+03  0.7818608E-02  0.1093470E+00
          1   -1    0    0  502    0  0.00000000000E+00  0.00000000000E+00  0.40062588702E+02  0.40062588702E+02  0.00000000000E+00 0.  1.
         13   -1    0    0    0    0 -0.00000000000E+00 -0.00000000000E+00 -0.10000000000E+04  0.10000000000E+04  0.00000000000E+00 0.  1.
    9000005    2    1    2  501    0  0.21238073352E+02  0.22152524116E+02 -0.95324323975E+03  0.10086523672E+04  0.32827600211E+03 0.  0.
         13    1    3    3    0    0 -0.12027874269E+03 -0.35237185566E+02 -0.17314309368E+03  0.21374556388E+03  0.00000000000E+00 0.  1.
          1    1    3    3  501    0  0.14151681604E+03  0.57389709682E+02 -0.78010014607E+03  0.79490680328E+03  0.00000000000E+00 0.  1.
         21    1    1    2  502  501 -0.21238073352E+02 -0.22152524116E+02 -0.66941715444E+01  0.31410221539E+02  0.00000000000E+00 0.  1.
<mgrwt>
<rscale>  1 0.30000000E+03</rscale>
<asrwt>0</asrwt>
<pdfrwt beam="1">  1        1 0.14568245E+00 0.30000000E+03</pdfrwt>
<pdfrwt beam="2">0</pdfrwt>
<totfact> 0.18902447E+01</totfact>
</mgrwt>
</event>
<event>
 6    1  0.1939311E-004  0.3000000E+03  0.7818608E-02  0.1093470E+00
          1   -1    0    0  502    0  0.00000000000E+00  0.00000000000E+00  0.39149163570E+02  0.39149163570E+02  0.00000000000E+00 0.  1.
         13   -1    0    0    0    0 -0.00000000000E+00 -0.00000000000E+00 -0.10000000000E+04  0.10000000000E+04  0.00000000000E+00 0.  1.
    9000005    2    1    2  501    0 -0.84246893617E+01 -0.10050125937E+02 -0.96938840035E+03  0.10235008276E+04  0.32812816528E+03 0.  0.
         13    1    3    3    0    0 -0.11210618645E+03 -0.12872422662E+03 -0.49103575345E+03  0.51985943747E+03  0.00000000000E+00 0.  1.
          3    1    3    3  501    0  0.10368149709E+03  0.11867410068E+03 -0.47835264690E+03  0.50364139009E+03  0.00000000000E+00 0.  1.
         21    1    1    2  502  501  0.84246893617E+01  0.10050125937E+02  0.85375639235E+01  0.15648336011E+02  0.00000000000E+00 0. -1.
<mgrwt>
<rscale>  1 0.30000000E+03</rscale>
<asrwt>0</asrwt>
<pdfrwt beam="1">  1        1 0.14236089E+00 0.30000000E+03</pdfrwt>
<pdfrwt beam="2">0</pdfrwt>
<totfact> 0.19665806E+01</totfact>
</mgrwt>
</event>
<event>
 6    1  0.1939311E-004  0.3000000E+03  0.7818608E-02  0.1093470E+00
          1   -1    0    0  502    0  0.00000000000E+00  0.00000000000E+00  0.43477043774E+02  0.43477043774E+02  0.00000000000E+00 0.  1.
         13   -1    0    0    0    0 -0.00000000000E+00 -0.00000000000E+00 -0.10000000000E+04  0.10000000000E+04  0.00000000000E+00 0.  1.
    9000005    2    1    2  501    0  0.35078574879E+02  0.14676396659E+02 -0.95075106997E+03  0.10050164444E+04  0.32354992413E+03 0.  0.
         13    1    3    3    0    0 -0.10025835427E+03 -0.75718316457E+02 -0.19521696661E+03  0.23215224552E+03  0.00000000000E+00 0.  1.
          1    1    3    3  501    0  0.13533692915E+03  0.90394713116E+02 -0.75553410336E+03  0.77286419886E+03  0.00000000000E+00 0.  1.
         21    1    1    2  502  501 -0.35078574879E+02 -0.14676396659E+02 -0.57718862596E+01  0.38460599390E+02  0.00000000000E+00 0.  1.
<mgrwt>
<rscale>  1 0.30000000E+03</rscale>
<asrwt>0</asrwt>
<pdfrwt beam="1">  1        1 0.15809867E+00 0.30000000E+03</pdfrwt>
<pdfrwt beam="2">0</pdfrwt>
<totfact> 0.16355562E+01</totfact>
</mgrwt>
</event>
<event>
 6    1  0.1939311E-004  0.3000000E+03  0.7818608E-02  0.1093470E+00
          1   -1    0    0  502    0  0.00000000000E+00  0.00000000000E+00  0.33254491721E+02  0.33254491721E+02  0.00000000000E+00 0.  1.
         13   -1    0    0    0    0 -0.00000000000E+00 -0.00000000000E+00 -0.10000000000E+04  0.10000000000E+04  0.00000000000E+00 0.  1.
    9000005    2    1    2  501    0  0.29615786803E+02  0.17409304976E+02 -0.82916568608E+03  0.89145045016E+03  0.32555796932E+03 0.  0.
         13    1    3    3    0    0 -0.12170932440E+03 -0.65972513538E+02 -0.51074634343E+03  0.52917611390E+03  0.00000000000E+00 0.  1.
          1    1    3    3  501    0  0.15132511121E+03  0.83381818513E+02 -0.31841934265E+03  0.36227433626E+03  0.00000000000E+00 0.  1.
         21    1    1    2  502  501 -0.29615786803E+02 -0.17409304976E+02 -0.13757982220E+03  0.14180404156E+03  0.00000000000E+00 0.  1.
<mgrwt>
<rscale>  1 0.30000000E+03</rscale>
<asrwt>0</asrwt>
<pdfrwt beam="1">  1        1 0.12092568E+00 0.30000000E+03</pdfrwt>
<pdfrwt beam="2">0</pdfrwt>
<totfact> 0.25685233E+01</totfact>
</mgrwt>
</event>
<event>
 6    1  0.1939311E-004  0.3000000E+03  0.7818608E-02  0.1093470E+00
          1   -1    0    0  502    0  0.00000000000E+00  0.00000000000E+00  0.32322795407E+02  0.32322795407E+02  0.00000000000E+00 0.  1.
         13   -1    0    0    0    0 -0.00000000000E+00 -0.00000000000E+00 -0.10000000000E+04  0.10000000000E+04  0.00000000000E+00 0.  1.
    9000005    2    1    2  501    0  0.16909004317E+02 -0.31045394390E+02 -0.89421582801E+03  0.95079792319E+03  0.32116197276E+03 0.  0.
         13    1    3    3    0    0 -0.59444505151E+02  0.54592209065E+02 -0.42169669271E+02  0.91061734497E+02  0.00000000000E+00 0.  1.
          3    1    3    3  501    0  0.76353509468E+02 -0.85637603455E+02 -0.85204615873E+03  0.85973618869E+03  0.00000000000E+00 0.  1.
         21    1    1    2  502  501 -0.16909004317E+02  0.31045394390E+02 -0.73461376587E+02  0.81524872216E+02  0.00000000000E+00 0.  1.
<mgrwt>
<rscale>  1 0.30000000E+03</rscale>
<asrwt>0</asrwt>
<pdfrwt beam="1">  1        1 0.11753769E+00 0.30000000E+03</pdfrwt>
<pdfrwt beam="2">0</pdfrwt>
<totfact> 0.26847759E+01</totfact>
</mgrwt>
</event>
<event>
 6    1  0.1939311E-004  0.3000000E+03  0.7818608E-02  0.1093470E+00
          1   -1    0    0  502    0  0.00000000000E+00  0.00000000000E+00  0.22515445629E+02  0.22515445629E+02  0.00000000000E+00 0.  1.
         13   -1    0    0    0    0 -0.00000000000E+00 -0.00000000000E+00 -0.10000000000E+04  0.10000000000E+04  0.00000000000E+00 0.  1.
    9000005    2    1    2  501    0 -0.35044769014E+01  0.83128623084E+01 -0.94729275905E+03  0.99100466108E+03  0.29093862222E+03 0.  0.
         13    1    3    3    0    0 -0.93352365757E+02  0.10601852838E+03 -0.31953240207E+03  0.34936449237E+03  0.00000000000E+00 0.  1.
          1    1    3    3  501    0  0.89847888856E+02 -0.97705666072E+02 -0.62776035698E+03  0.64164016872E+03  0.00000000000E+00 0.  1.
         21    1    1    2  502  501  0.35044769014E+01 -0.83128623084E+01 -0.30191795318E+02  0.31510784545E+02  0.00000000000E+00 0. -1.
<mgrwt>
<rscale>  1 0.30000000E+03</rscale>
<asrwt>0</asrwt>
<pdfrwt beam="1">  1        1 0.81874520E-01 0.30000000E+03</pdfrwt>
<pdfrwt beam="2">0</pdfrwt>
<totfact> 0.45482646E+01</totfact>
</mgrwt>
</event>
<event>
 6    1  0.1939311E-004  0.3000000E+03  0.7818608E-02  0.1093470E+00
          1   -1    0    0  502    0  0.00000000000E+00  0.00000000000E+00  0.90745780286E+02  0.90745780286E+02  0.00000000000E+00 0.  1.
         13   -1    0    0    0    0 -0.00000000000E+00 -0.00000000000E+00 -0.10000000000E+04  0.10000000000E+04  0.00000000000E+00 0.  1.
    9000005    2    1    2  501    0 -0.11756307222E+03  0.18108760340E+01 -0.91247797226E+03  0.97312457556E+03  0.31706629351E+03 0.  0.
         13    1    3    3    0    0  0.59733010082E+02  0.59353037621E+02 -0.62405823899E+03  0.62971382486E+03  0.00000000000E+00 0.  1.
          1    1    3    3  501    0 -0.17729608230E+03 -0.57542161587E+02 -0.28841973327E+03  0.34341075070E+03  0.00000000000E+00 0.  1.
         21    1    1    2  502  501  0.11756307222E+03 -0.18108760340E+01  0.32237525417E+01  0.11762120473E+03  0.00000000000E+00 0.  1.
<mgrwt>
<rscale>  1 0.30000000E+03</rscale>
<asrwt>0</asrwt>
<pdfrwt beam="1">  1        1 0.32998535E+00 0.30000000E+03</pdfrwt>
<pdfrwt beam="2">0</pdfrwt>
<totfact> 0.24867099E+00</totfact>
</mgrwt>
</event>
<event>
 6    1  0.1939311E-004  0.3000000E+03  0.7818608E-02  0.1093470E+00
          1   -1    0    0  502    0  0.00000000000E+00  0.00000000000E+00  0.29892871564E+02  0.29892871564E+02  0.00000000000E+00 0.  1.
         13   -1    0    0    0    0 -0.00000000000E+00 -0.00000000000E+00 -0.10000000000E+04  0.10000000000E+04  0.00000000000E+00 0.  1.
    9000005    2    1    2  501    0 -0.68778447493E+00  0.14836944183E+02 -0.95480856335E+03  0.10085702532E+04  0.32455192964E+03 0.  0.
         13    1    3    3    0    0  0.14413517029E+03 -0.49690385740E+02 -0.61465701426E+03  0.63328297539E+03  0.00000000000E+00 0.  1.
          1    1    3    3  501    0 -0.14482295476E+03  0.64527329923E+02 -0.34015154910E+03  0.37528727781E+03  0.00000000000E+00 0.  1.
         21    1    1    2  502  501  0.68778447493E+00 -0.14836944183E+02 -0.15298565082E+02  0.21322618360E+02  0.00000000000E+00 0.  1.
<mgrwt>
<rscale>  1 0.30000000E+03</rscale>
<asrwt>0</asrwt>
<pdfrwt beam="1">  1        1 0.10870158E+00 0.30000000E+03</pdfrwt>
<pdfrwt beam="2">0</pdfrwt>
<totfact> 0.30245846E+01</totfact>
</mgrwt>
</event>
<event>
 6    1  0.1939311E-004  0.3000000E+03  0.7818608E-02  0.1093470E+00
          1   -1    0    0  502    0  0.00000000000E+00  0.00000000000E+00  0.68771100490E+02  0.68771100490E+02  0.00000000000E+00 0.  1.
         13   -1    0    0    0    0 -0.00000000000E+00 -0.00000000000E+00 -0.10000000000E+04  0.10000000000E+04  0.00000000000E+00 0.  1.
    9000005    2    1    2  501    0  0.16822418562E+02 -0.70784284397E+02 -0.93818063495E+03  0.99568392440E+03  0.32543841941E+03 0.  0.
         13    1    3    3    0    0  0.16279016166E+03 -0.84779656003E+02 -0.58983805290E+03  0.61773550606E+03  0.00000000000E+00 0.  1.
          1    1    3    3  501    0 -0.14596774310E+03  0.13995371606E+02 -0.34834258205E+03  0.37794841833E+03  0.00000000000E+00 0.  1.
         21    1    1    2  502  501 -0.16822418562E+02  0.70784284397E+02  0.69517354376E+01  0.73087176095E+02  0.00000000000E+00 0.  1.
<mgrwt>
<rscale>  1 0.30000000E+03</rscale>
<asrwt>0</asrwt>
<pdfrwt beam="1">  1        1 0.25007726E+00 0.30000000E+03</pdfrwt>
<pdfrwt beam="2">0</pdfrwt>
<totfact> 0.59611350E+00</totfact>
</mgrwt>
</event>
<event>
 6    1  0.1939311E-004  0.3000000E+03  0.7818608E-02  0.1093470E+00
          1   -1    0    0  502    0  0.00000000000E+00  0.00000000000E+00  0.29710801995E+02  0.29710801995E+02  0.00000000000E+00 0.  1.
         13   -1    0    0    0    0 -0.00000000000E+00 -0.00000000000E+00 -0.10000000000E+04  0.10000000000E+04  0.00000000000E+00 0.  1.
    9000005    2    1    2  501    0  0.54274670845E+01  0.16250842775E+02 -0.95663937159E+03  0.10078049797E+04  0.31657296555E+03 0.  0.
         13    1    3    3    0    0 -0.92408602083E+02 -0.19499779854E+02 -0.86172173673E+03  0.86688173513E+03  0.00000000000E+00 0.  1.
          3    1    3    3  501    0  0.97836069167E+02  0.35750622629E+02 -0.94917634857E+02  0.14092324455E+03  0.00000000000E+00 0.  1.
         21    1    1    2  502  501 -0.54274670845E+01 -0.16250842775E+02 -0.13649826420E+02  0.21905822311E+02  0.00000000000E+00 0.  1.
<mgrwt>
<rscale>  1 0.30000000E+03</rscale>
<asrwt>0</asrwt>
<pdfrwt beam="1">  1        1 0.10803951E+00 0.30000000E+03</pdfrwt>
<pdfrwt beam="2">0</pdfrwt>
<totfact> 0.30524583E+01</totfact>
</mgrwt>
</event>
<event>
 6    1  0.1939311E-004  0.3000000E+03  0.7818608E-02  0.1093470E+00
          1   -1    0    0  502    0  0.00000000000E+00  0.00000000000E+00  0.61061746029E+02  0.61061746029E+02  0.00000000000E+00 0.  1.
         13   -1    0    0    0    0 -0.00000000000E+00 -0.00000000000E+00 -0.10000000000E+04  0.10000000000E+04  0.00000000000E+00 0.  1.
    9000005    2    1    2  501    0 -0.37313657837E+02 -0.46332322253E+02 -0.94540832670E+03  0.10012215005E+04  0.32420455838E+03 0.  0.
         13    1    3    3    0    0 -0.54202965448E+02  0.13391119221E+03 -0.34250880263E+03  0.37172899906E+03  0.00000000000E+00 0.  1.
          3    1    3    3  501    0  0.16889307610E+02 -0.18024351446E+03 -0.60289952407E+03  0.62949250142E+03  0.00000000000E+00 0.  1.
         21    1    1    2  502  501  0.37313657837E+02  0.46332322253E+02  0.64700727313E+01  0.59840245552E+02  0.00000000000E+00 0.  1.
<mgrwt>
<rscale>  1 0.30000000E+03</rscale>
<asrwt>0</asrwt>
<pdfrwt beam="1">  1        1 0.22204318E+00 0.30000000E+03</pdfrwt>
<pdfrwt beam="2">0</pdfrwt>
<totfact> 0.80635129E+00</totfact>
</mgrwt>
</event>
<event>
 6    1  0.1939311E-004  0.3000000E+03  0.7818608E-02  0.1093470E+00
          1   -1    0    0  502    0  0.00000000000E+00  0.00000000000E+00  0.38477109780E+02  0.38477109780E+02  0.00000000000E+00 0.  1.
         13   -1    0    0    0    0 -0.00000000000E+00 -0.00000000000E+00 -0.10000000000E+04  0.10000000000E+04  0.00000000000E+00 0.  1.
    9000005    2    1    2  501    0  0.28270335525E+02 -0.24877914020E+01 -0.95242777080E+03  0.10086757311E+04  0.33091187777E+03 0.  0.
         13    1    3    3    0    0  0.83405703417E+02  0.10854842033E+03 -0.17884170397E+03  0.22521906224E+03  0.00000000000E+00 0.  1.
          1    1    3    3  501    0 -0.55135367892E+02 -0.11103621174E+03 -0.77358606683E+03  0.78345666881E+03  0.00000000000E+00 0.  1.
         21    1    1    2  502  501 -0.28270335525E+02  0.24877914020E+01 -0.90951194215E+01  0.29801378727E+02  0.00000000000E+00 0. -1.
<mgrwt>
<rscale>  1 0.30000000E+03</rscale>
<asrwt>0</asrwt>
<pdfrwt beam="1">  1        1 0.13991706E+00 0.30000000E+03</pdfrwt>
<pdfrwt beam="2">0</pdfrwt>
<totfact> 0.20252507E+01</totfact>
</mgrwt>
</event>
<event>
 6    1  0.2869548E-004  0.3000000E+03  0.7818608E-02  0.1093470E+00
          1   -1    0    0  502    0  0.00000000000E+00  0.00000000000E+00  0.67402761353E+02  0.67402761353E+02  0.00000000000E+00 0.  1.
         13   -1    0    0    0    0 -0.00000000000E+00 -0.00000000000E+00 -0.10000000000E+04  0.10000000000E+04  0.00000000000E+00 0.  1.
    9000005    2    1    2  501    0 -0.15747668742E+02 -0.11346445340E+01 -0.94475640870E+03  0.10474748436E+04  0.45209468004E+03 0.  0.
         13    1    3    3    0    0  0.14139120934E+03 -0.17008439300E+03 -0.48603619382E+03  0.53399565216E+03  0.00000000000E+00 0.  1.
          1    1    3    3  501    0 -0.15713887808E+03  0.16894974847E+03 -0.45872021488E+03  0.51347919145E+03  0.00000000000E+00 0.  1.
         21    1    1    2  502  501  0.15747668742E+02  0.11346445340E+01  0.12159170057E+02  0.19927917742E+02  0.00000000000E+00 0.  1.
<mgrwt>
<rscale>  1 0.30000000E+03</rscale>
<asrwt>0</asrwt>
<pdfrwt beam="1">  1        1 0.24510147E+00 0.30000000E+03</pdfrwt>
<pdfrwt beam="2">0</pdfrwt>
<totfact> 0.62882620E+00</totfact>
</mgrwt>
</event>
<event>
 6    1  0.1939311E-004  0.3000000E+03  0.7818608E-02  0.1093470E+00
          1   -1    0    0  502    0  0.00000000000E+00  0.00000000000E+00  0.44739143283E+02  0.44739143283E+02  0.00000000000E+00 0.  1.
         13   -1    0    0    0    0 -0.00000000000E+00 -0.00000000000E+00 -0.10000000000E+04  0.10000000000E+04  0.00000000000E+00 0.  1.
    9000005    2    1    2  501    0  0.17947945004E+02  0.35384357776E+01 -0.96930988896E+03  0.10216734856E+04  0.32236687342E+03 0.  0.
         13    1    3    3    0    0  0.11837940861E+03 -0.10802523453E+03 -0.35851839464E+03  0.39270672896E+03  0.00000000000E+00 0.  1.
          3    1    3    3  501    0 -0.10043146361E+03  0.11156367030E+03 -0.61079149432E+03  0.62896675664E+03  0.00000000000E+00 0.  1.
         21    1    1    2  502  501 -0.17947945004E+02 -0.35384357776E+01  0.14049032242E+02  0.23065657687E+02  0.00000000000E+00 0.  1.
<mgrwt>
<rscale>  1 0.30000000E+03</rscale>
<asrwt>0</asrwt>
<pdfrwt beam="1">  1        1 0.16268814E+00 0.30000000E+03</pdfrwt>
<pdfrwt beam="2">0</pdfrwt>
<totfact> 0.15519629E+01</totfact>
</mgrwt>
</event>
<event>
 6    1  0.1939311E-004  0.3000000E+03  0.7818608E-02  0.1093470E+00
          1   -1    0    0  502    0  0.00000000000E+00  0.00000000000E+00  0.32936119865E+02  0.32936119865E+02  0.00000000000E+00 0.  1.
         13   -1    0    0    0    0 -0.00000000000E+00 -0.00000000000E+00 -0.10000000000E+04  0.10000000000E+04  0.00000000000E+00 0.  1.
    9000005    2    1    2  501    0  0.88084619694E+01 -0.27609126463E+02 -0.93838547310E+03  0.99216475864E+03  0.32091082763E+03 0.  0.
         13    1    3    3    0    0 -0.10506422399E+03 -0.13131210756E+03 -0.48316382425E+03  0.51159421598E+03  0.00000000000E+00 0.  1.
          1    1    3    3  501    0  0.11387268596E+03  0.10370298110E+03 -0.45522164884E+03  0.48057054266E+03  0.00000000000E+00 0.  1.
         21    1    1    2  502  501 -0.88084619694E+01  0.27609126463E+02 -0.28678407036E+02  0.40771361228E+02  0.00000000000E+00 0.  1.
<mgrwt>
<rscale>  1 0.30000000E+03</rscale>
<asrwt>0</asrwt>
<pdfrwt beam="1">  1        1 0.11976796E+00 0.30000000E+03</pdfrwt>
<pdfrwt beam="2">0</pdfrwt>
<totfact> 0.26074713E+01</totfact>
</mgrwt>
</event>
<event>
 6    1  0.1939311E-004  0.3000000E+03  0.7818608E-02  0.1093470E+00
          1   -1    0    0  502    0  0.00000000000E+00  0.00000000000E+00  0.34263926178E+02  0.34263926178E+02  0.00000000000E+00 0.  1.
         13   -1    0    0    0    0 -0.00000000000E+00 -0.00000000000E+00 -0.10000000000E+04  0.10000000000E+04  0.00000000000E+00 0.  1.
    9000005    2    1    2  501    0  0.16539369790E+02  0.13859917344E+01 -0.95944463477E+03  0.10165141675E+04  0.33539763550E+03 0.  0.
         13    1    3    3    0    0 -0.13153516884E+03  0.66000986157E+01 -0.74066896647E+03  0.75228689995E+03  0.00000000000E+00 0.  1.
          1    1    3    3  501    0  0.14807453863E+03 -0.52141068813E+01 -0.21877566830E+03  0.26422726760E+03  0.00000000000E+00 0.  1.
         21    1    1    2  502  501 -0.16539369790E+02 -0.13859917344E+01 -0.62914390480E+01  0.17749758630E+02  0.00000000000E+00 0.  1.
<mgrwt>
<rscale>  1 0.30000000E+03</rscale>
<asrwt>0</asrwt>
<pdfrwt beam="1">  1        1 0.12459636E+00 0.30000000E+03</pdfrwt>
<pdfrwt beam="2">0</pdfrwt>
<totfact> 0.24499933E+01</totfact>
</mgrwt>
</event>
<event>
 6    1  0.1939311E-004  0.3000000E+03  0.7818608E-02  0.1093470E+00
          1   -1    0    0  502    0  0.00000000000E+00  0.00000000000E+00  0.53678101525E+02  0.53678101525E+02  0.00000000000E+00 0.  1.
         13   -1    0    0    0    0 -0.00000000000E+00 -0.00000000000E+00 -0.10000000000E+04  0.10000000000E+04  0.00000000000E+00 0.  1.
    9000005    2    1    2  501    0  0.75760004394E+01 -0.81571755470E+01 -0.97392473167E+03  0.10239148407E+04  0.31582951530E+03 0.  0.
         13    1    3    3    0    0  0.48570878852E+02 -0.12847194951E+03 -0.22002129787E+03  0.25937143945E+03  0.00000000000E+00 0.  1.
          1    1    3    3  501    0 -0.40994878413E+02  0.12031477397E+03 -0.75390343380E+03  0.76454340124E+03  0.00000000000E+00 0.  1.
         21    1    1    2  502  501 -0.75760004394E+01  0.81571755470E+01  0.27602833191E+02  0.29763260838E+02  0.00000000000E+00 0.  1.
<mgrwt>
<rscale>  1 0.30000000E+03</rscale>
<asrwt>0</asrwt>
<pdfrwt beam="1">  1        1 0.19519351E+00 0.30000000E+03</pdfrwt>
<pdfrwt beam="2">0</pdfrwt>
<totfact> 0.10797708E+01</totfact>
</mgrwt>
</event>
<event>
 6    1  0.1939311E-004  0.3000000E+03  0.7818608E-02  0.1093470E+00
          1   -1    0    0  502    0  0.00000000000E+00  0.00000000000E+00  0.43001335849E+02  0.43001335849E+02  0.00000000000E+00 0.  1.
         13   -1    0    0    0    0 -0.00000000000E+00 -0.00000000000E+00 -0.10000000000E+04  0.10000000000E+04  0.00000000000E+00 0.  1.
    9000005    2    1    2  501    0 -0.12336661574E+02  0.60742851426E+02 -0.85686921832E+03  0.92523974134E+03  0.34351395087E+03 0.  0.
         13    1    3    3    0    0 -0.10207006874E+02 -0.65082391452E+02 -0.71640831405E+01  0.66266316886E+02  0.00000000000E+00 0.  1.
          1    1    3    3  501    0 -0.21296547002E+01  0.12582524288E+03 -0.84970513518E+03  0.85897342446E+03  0.00000000000E+00 0.  1.
         21    1    1    2  502  501  0.12336661574E+02 -0.60742851426E+02 -0.10012944583E+03  0.11776159451E+03  0.00000000000E+00 0. -1.
<mgrwt>
<rscale>  1 0.30000000E+03</rscale>
<asrwt>0</asrwt>
<pdfrwt beam="1">  1        1 0.15636882E+00 0.30000000E+03</pdfrwt>
<pdfrwt beam="2">0</pdfrwt>
<totfact> 0.16684261E+01</totfact>
</mgrwt>
</event>
<event>
 6    1  0.1939311E-004  0.3000000E+03  0.7818608E-02  0.1093470E+00
          1   -1    0    0  502    0  0.00000000000E+00  0.00000000000E+00  0.31887755584E+02  0.31887755584E+02  0.00000000000E+00 0.  1.
         13   -1    0    0    0    0 -0.00000000000E+00 -0.00000000000E+00 -0.10000000000E+04  0.10000000000E+04  0.00000000000E+00 0.  1.
    9000005    2    1    2  501    0  0.71981412426E+01  0.17310395677E+02 -0.95427223232E+03  0.10085852027E+04  0.32597109489E+03 0.  0.
         13    1    3    3    0    0  0.14575641593E+03  0.28004161632E+02 -0.25005148891E+03  0.29078327490E+03  0.00000000000E+00 0.  1.
          3    1    3    3  501    0 -0.13855827469E+03 -0.10693765955E+02 -0.70422074340E+03  0.71780192780E+03  0.00000000000E+00 0.  1.
         21    1    1    2  502  501 -0.71981412426E+01 -0.17310395677E+02 -0.13840012099E+02  0.23302552880E+02  0.00000000000E+00 0.  1.
<mgrwt>
<rscale>  1 0.30000000E+03</rscale>
<asrwt>0</asrwt>
<pdfrwt beam="1">  1        1 0.11595572E+00 0.30000000E+03</pdfrwt>
<pdfrwt beam="2">0</pdfrwt>
<totfact> 0.27415216E+01</totfact>
</mgrwt>
</event>
<event>
 6    1  0.1939311E-004  0.3000000E+03  0.7818608E-02  0.1093470E+00
          1   -1    0    0  502    0  0.00000000000E+00  0.00000000000E+00  0.37106905306E+02  0.37106905306E+02  0.00000000000E+00 0.  1.
         13   -1    0    0    0    0 -0.00000000000E+00 -0.00000000000E+00 -0.10000000000E+04  0.10000000000E+04  0.00000000000E+00 0.  1.
    9000005    2    1    2  501    0  0.24060151683E+02 -0.24793124450E+01 -0.93918818322E+03  0.10032400968E+04  0.35189659060E+03 0.  0.
         13    1    3    3    0    0  0.12258772323E+03  0.41377069423E+02 -0.85940433612E+03  0.86908896248E+03  0.00000000000E+00 0.  1.
          1    1    3    3  501    0 -0.98527571550E+02 -0.43856381869E+02 -0.79783847099E+02  0.13415113434E+03  0.00000000000E+00 0.  1.
         21    1    1    2  502  501 -0.24060151683E+02  0.24793124450E+01 -0.23704911476E+02  0.33866808489E+02  0.00000000000E+00 0.  1.
<mgrwt>
<rscale>  1 0.30000000E+03</rscale>
<asrwt>0</asrwt>
<pdfrwt beam="1">  1        1 0.13493449E+00 0.30000000E+03</pdfrwt>
<pdfrwt beam="2">0</pdfrwt>
<totfact> 0.21519838E+01</totfact>
</mgrwt>
</event>
<event>
 6    1  0.1939311E-004  0.3000000E+03  0.7818608E-02  0.1093470E+00
          1   -1    0    0  502    0  0.00000000000E+00  0.00000000000E+00  0.29667868782E+02  0.29667868782E+02  0.00000000000E+00 0.  1.
         13   -1    0    0    0    0 -0.00000000000E+00 -0.00000000000E+00 -0.10000000000E+04  0.10000000000E+04  0.00000000000E+00 0.  1.
    9000005    2    1    2  501    0 -0.24059195597E+02  0.60555746859E+01 -0.93631730730E+03  0.98756652529E+03  0.31302080929E+03 0.  0.
         13    1    3    3    0    0 -0.53287277513E+02  0.15034353136E+02 -0.95172054135E+03  0.95332971974E+03  0.00000000000E+00 0.  1.
          1    1    3    3  501    0  0.29228081916E+02 -0.89787784503E+01  0.15403234049E+02  0.34236805548E+02  0.00000000000E+00 0.  1.
         21    1    1    2  502  501  0.24059195597E+02 -0.60555746859E+01 -0.34014823919E+02  0.42101343492E+02  0.00000000000E+00 0.  1.
<mgrwt>
<rscale>  1 0.30000000E+03</rscale>
<asrwt>0</asrwt>
<pdfrwt beam="1">  1        1 0.10788339E+00 0.30000000E+03</pdfrwt>
<pdfrwt beam="2">0</pdfrwt>
<totfact> 0.30590846E+01</totfact>
</mgrwt>
</event>
<event>
 6    1  0.1939311E-004  0.3000000E+03  0.7818608E-02  0.1093470E+00
          1   -1    0    0  502    0  0.00000000000E+00  0.00000000000E+00  0.36644847272E+02  0.36644847272E+02  0.00000000000E+00 0.  1.
         13   -1    0    0    0    0 -0.00000000000E+00 -0.00000000000E+00 -0.10000000000E+04  0.10000000000E+04  0.00000000000E+00 0.  1.
    9000005    2    1    2  501    0  0.12333494673E+01 -0.16156393644E+02 -0.96669815642E+03  0.10201001841E+04  0.32532523685E+03 0.  0.
         13    1    3    3    0    0 -0.41930016156E+01  0.10470487207E+03 -0.99496294053E+02  0.14449984093E+03  0.00000000000E+00 0.  1.
          1    1    3    3  501    0  0.54263510829E+01 -0.12086126572E+03 -0.86720186236E+03  0.87560034315E+03  0.00000000000E+00 0.  1.
         21    1    1    2  502  501 -0.12333494673E+01  0.16156393644E+02  0.33430036894E+01  0.16544663192E+02  0.00000000000E+00 0.  1.
<mgrwt>
<rscale>  1 0.30000000E+03</rscale>
<asrwt>0</asrwt>
<pdfrwt beam="1">  1        1 0.13325427E+00 0.30000000E+03</pdfrwt>
<pdfrwt beam="2">0</pdfrwt>
<totfact> 0.21970645E+01</totfact>
</mgrwt>
</event>
<event>
 6    1  0.1939311E-004  0.3000000E+03  0.7818608E-02  0.1093470E+00
          1   -1    0    0  502    0  0.00000000000E+00  0.00000000000E+00  0.31760804761E+02  0.31760804761E+02  0.00000000000E+00 0.  1.
         13   -1    0    0    0    0 -0.00000000000E+00 -0.00000000000E+00 -0.10000000000E+04  0.10000000000E+04  0.00000000000E+00 0.  1.
    9000005    2    1    2  501    0  0.18905597235E+02 -0.21313379815E+02 -0.89145073685E+03  0.94985751357E+03  0.32670047152E+03 0.  0.
         13    1    3    3    0    0 -0.80646330498E+02  0.10695122785E+03 -0.61355026643E+03  0.62800185127E+03  0.00000000000E+00 0.  1.
          3    1    3    3  501    0  0.99551927733E+02 -0.12826460767E+03 -0.27790047042E+03  0.32185566230E+03  0.00000000000E+00 0.  1.
         21    1    1    2  502  501 -0.18905597235E+02  0.21313379815E+02 -0.76788458387E+02  0.81903291188E+02  0.00000000000E+00 0. -1.
<mgrwt>
<rscale>  1 0.30000000E+03</rscale>
<asrwt>0</asrwt>
<pdfrwt beam="1">  1        1 0.11549408E+00 0.30000000E+03</pdfrwt>
<pdfrwt beam="2">0</pdfrwt>
<totfact> 0.27583939E+01</totfact>
</mgrwt>
</event>
<event>
 6    1  0.1939311E-004  0.3000000E+03  0.7818608E-02  0.1093470E+00
          1   -1    0    0  502    0  0.00000000000E+00  0.00000000000E+00  0.60636510967E+02  0.60636510967E+02  0.00000000000E+00 0.  1.
         13   -1    0    0    0    0 -0.00000000000E+00 -0.00000000000E+00 -0.10000000000E+04  0.10000000000E+04  0.00000000000E+00 0.  1.
    9000005    2    1    2  501    0 -0.48863992179E+02 -0.24660927539E+02 -0.94891171266E+03  0.10050755566E+04  0.32672248916E+03 0.  0.
         13    1    3    3    0    0  0.71655905340E+02 -0.26581652573E+02 -0.36427573255E+02  0.84664757230E+02  0.00000000000E+00 0.  1.
          3    1    3    3  501    0 -0.12051989752E+03  0.19207250345E+01 -0.91248413940E+03  0.92041079934E+03  0.00000000000E+00 0.  1.
         21    1    1    2  502  501  0.48863992179E+02  0.24660927539E+02  0.95482236262E+01  0.55560954394E+02  0.00000000000E+00 0.  1.
<mgrwt>
<rscale>  1 0.30000000E+03</rscale>
<asrwt>0</asrwt>
<pdfrwt beam="1">  1        1 0.22049687E+00 0.30000000E+03</pdfrwt>
<pdfrwt beam="2">0</pdfrwt>
<totfact> 0.81991802E+00</totfact>
</mgrwt>
</event>
<event>
 6    1  0.1939311E-004  0.3000000E+03  0.7818608E-02  0.1093470E+00
          1   -1    0    0  502    0  0.00000000000E+00  0.00000000000E+00  0.86787713456E+02  0.86787713456E+02  0.00000000000E+00 0.  1.
         13   -1    0    0    0    0 -0.00000000000E+00 -0.00000000000E+00 -0.10000000000E+04  0.10000000000E+04  0.00000000000E+00 0.  1.
    9000005    2    1    2  501    0 -0.66875842832E+02 -0.10874276663E+02 -0.95097893415E+03  0.10092187253E+04  0.33101491523E+03 0.  0.
         13    1    3    3    0    0 -0.17572010463E+03 -0.95307109803E+02 -0.58087637952E+03  0.61431129620E+03  0.00000000000E+00 0.  1.
          3    1    3    3  501    0  0.10884426180E+03  0.84432833140E+02 -0.37010255463E+03  0.39490742913E+03  0.00000000000E+00 0.  1.
         21    1    1    2  502  501  0.66875842832E+02  0.10874276663E+02  0.37766647609E+02  0.77568988127E+02  0.00000000000E+00 0.  1.
<mgrwt>
<rscale>  1 0.30000000E+03</rscale>
<asrwt>0</asrwt>
<pdfrwt beam="1">  1        1 0.31559235E+00 0.30000000E+03</pdfrwt>
<pdfrwt beam="2">0</pdfrwt>
<totfact> 0.29253552E+00</totfact>
</mgrwt>
</event>
<event>
 6    1  0.1939311E-004  0.3000000E+03  0.7818608E-02  0.1093470E+00
          1   -1    0    0  502    0  0.00000000000E+00  0.00000000000E+00  0.91669138584E+02  0.91669138584E+02  0.00000000000E+00 0.  1.
         13   -1    0    0    0    0 -0.00000000000E+00 -0.00000000000E+00 -0.10000000000E+04  0.10000000000E+04  0.00000000000E+00 0.  1.
    9000005    2    1    2  501    0  0.29802972600E+02 -0.17907287309E+03 -0.79786955148E+03  0.87916734554E+03  0.32153396280E+03 0.  0.
         13    1    3    3    0    0  0.76781123393E+00  0.71613096737E+02 -0.41148139090E+03  0.41766728411E+03  0.00000000000E+00 0.  1.
          1    1    3    3  501    0  0.29035161366E+02 -0.25068596983E+03 -0.38638816058E+03  0.46150006144E+03  0.00000000000E+00 0.  1.
         21    1    1    2  502  501 -0.29802972600E+02  0.17907287309E+03 -0.11046130993E+03  0.21250179304E+03  0.00000000000E+00 0.  1.
<mgrwt>
<rscale>  1 0.30000000E+03</rscale>
<asrwt>0</asrwt>
<pdfrwt beam="1">  1        1 0.33334303E+00 0.30000000E+03</pdfrwt>
<pdfrwt beam="2">0</pdfrwt>
<totfact> 0.23925675E+00</totfact>
</mgrwt>
</event>
<event>
 6    1  0.1939311E-004  0.3000000E+03  0.7818608E-02  0.1093470E+00
          1   -1    0    0  502    0  0.00000000000E+00  0.00000000000E+00  0.46593410231E+02  0.46593410231E+02  0.00000000000E+00 0.  1.
         13   -1    0    0    0    0 -0.00000000000E+00 -0.00000000000E+00 -0.10000000000E+04  0.10000000000E+04  0.00000000000E+00 0.  1.
    9000005    2    1    2  501    0 -0.64465862496E+00  0.20648881757E+02 -0.95721432570E+03  0.10255864886E+04  0.36761608834E+03 0.  0.
         13    1    3    3    0    0 -0.87849281559E+01 -0.11401322855E+03 -0.83734849942E+03  0.84512052438E+03  0.00000000000E+00 0.  1.
          3    1    3    3  501    0  0.81402695309E+01  0.13466211030E+03 -0.11986582628E+03  0.18046596424E+03  0.00000000000E+00 0.  1.
         21    1    1    2  502  501  0.64465862496E+00 -0.20648881757E+02  0.38077359341E+01  0.21006921609E+02  0.00000000000E+00 0. -1.
<mgrwt>
<rscale>  1 0.30000000E+03</rscale>
<asrwt>0</asrwt>
<pdfrwt beam="1">  1        1 0.16943094E+00 0.30000000E+03</pdfrwt>
<pdfrwt beam="2">0</pdfrwt>
<totfact> 0.14379020E+01</totfact>
</mgrwt>
</event>
<event>
 6    1  0.1939311E-004  0.3000000E+03  0.7818608E-02  0.1093470E+00
          1   -1    0    0  502    0  0.00000000000E+00  0.00000000000E+00  0.13518666503E+03  0.13518666503E+03  0.00000000000E+00 0.  1.
         13   -1    0    0    0    0 -0.00000000000E+00 -0.00000000000E+00 -0.10000000000E+04  0.10000000000E+04  0.00000000000E+00 0.  1.
    9000005    2    1    2  501    0  0.21322724812E+02 -0.31512553605E+02 -0.96949705199E+03  0.10238027334E+04  0.32680239195E+03 0.  0.
         13    1    3    3    0    0  0.41524374636E+02  0.14412345077E+03 -0.38622044831E+03  0.41432122495E+03  0.00000000000E+00 0.  1.
          1    1    3    3  501    0 -0.20201649824E+02 -0.17563600438E+03 -0.58327660368E+03  0.60948150840E+03  0.00000000000E+00 0.  1.
         21    1    1    2  502  501 -0.21322724812E+02  0.31512553605E+02  0.10468371702E+03  0.11138393168E+03  0.00000000000E+00 0.  1.
<mgrwt>
<rscale>  1 0.30000000E+03</rscale>
<asrwt>0</asrwt>
<pdfrwt beam="1">  1        1 0.49158891E+00 0.30000000E+03</pdfrwt>
<pdfrwt beam="2">0</pdfrwt>
<totfact> 0.26322293E-01</totfact>
</mgrwt>
</event>
<event>
 6    1  0.1939311E-004  0.3000000E+03  0.7818608E-02  0.1093470E+00
          1   -1    0    0  502    0  0.00000000000E+00  0.00000000000E+00  0.27254761693E+02  0.27254761693E+02  0.00000000000E+00 0.  1.
         13   -1    0    0    0    0 -0.00000000000E+00 -0.00000000000E+00 -0.10000000000E+04  0.10000000000E+04  0.00000000000E+00 0.  1.
    9000005    2    1    2  501    0 -0.79432350075E+01  0.39301704897E+01 -0.95209634171E+03  0.10047843778E+04  0.32097610614E+03 0.  0.
         13    1    3    3    0    0 -0.30394775430E+02 -0.11221346680E+03 -0.81694496744E+03  0.82517560818E+03  0.00000000000E+00 0.  1.
          3    1    3    3  501    0  0.22451540423E+02  0.11614363729E+03 -0.13515137426E+03  0.17960876960E+03  0.00000000000E+00 0.  1.
         21    1    1    2  502  501  0.79432350075E+01 -0.39301704897E+01 -0.20648896600E+02  0.22470383914E+02  0.00000000000E+00 0. -1.
<mgrwt>
<rscale>  1 0.30000000E+03</rscale>
<asrwt>0</asrwt>
<pdfrwt beam="1">  1        1 0.99108433E-01 0.30000000E+03</pdfrwt>
<pdfrwt beam="2">0</pdfrwt>
<totfact> 0.34677443E+01</totfact>
</mgrwt>
</event>
<event>
 6    1  0.1939311E-004  0.3000000E+03  0.7818608E-02  0.1093470E+00
          1   -1    0    0  502    0  0.00000000000E+00  0.00000000000E+00  0.29729352980E+02  0.29729352980E+02  0.00000000000E+00 0.  1.
         13   -1    0    0    0    0 -0.00000000000E+00 -0.00000000000E+00 -0.10000000000E+04  0.10000000000E+04  0.00000000000E+00 0.  1.
    9000005    2    1    2  501    0 -0.14444748053E+02 -0.10949481671E+02 -0.92606358516E+03  0.98195063164E+03  0.32604407265E+03 0.  0.
         13    1    3    3    0    0  0.11767278141E+03 -0.42545951442E+02 -0.15592914405E+03  0.19992733538E+03  0.00000000000E+00 0.  1.
          3    1    3    3  501    0 -0.13211752946E+03  0.31596469772E+02 -0.77013444112E+03  0.78202329626E+03  0.00000000000E+00 0.  1.
         21    1    1    2  502  501  0.14444748053E+02  0.10949481671E+02 -0.44207061856E+02  0.47778721342E+02  0.00000000000E+00 0.  1.
<mgrwt>
<rscale>  1 0.30000000E+03</rscale>
<asrwt>0</asrwt>
<pdfrwt beam="1">  1        1 0.10810697E+00 0.30000000E+03</pdfrwt>
<pdfrwt beam="2">0</pdfrwt>
<totfact> 0.30496015E+01</totfact>
</mgrwt>
</event>
<event>
 6    1  0.1939311E-004  0.3000000E+03  0.7818608E-02  0.1093470E+00
          1   -1    0    0  502    0  0.00000000000E+00  0.00000000000E+00  0.33197802432E+02  0.33197802432E+02  0.00000000000E+00 0.  1.
         13   -1    0    0    0    0 -0.00000000000E+00 -0.00000000000E+00 -0.10000000000E+04  0.10000000000E+04  0.00000000000E+00 0.  1.
    9000005    2    1    2  501    0  0.40970155351E+01 -0.12683483455E+02 -0.96563123773E+03  0.10198176890E+04  0.32772972891E+03 0.  0.
         13    1    3    3    0    0  0.57737290561E+02  0.91987682508E+02 -0.84275360993E+03  0.84972288160E+03  0.00000000000E+00 0.  1.
          3    1    3    3  501    0 -0.53640275026E+02 -0.10467116596E+03 -0.12287762779E+03  0.17009480739E+03  0.00000000000E+00 0.  1.
         21    1    1    2  502  501 -0.40970155351E+01  0.12683483455E+02 -0.11709598410E+01  0.13380113445E+02  0.00000000000E+00 0.  1.
<mgrwt>
<rscale>  1 0.30000000E+03</rscale>
<asrwt>0</asrwt>
<pdfrwt beam="1">  1        1 0.12071954E+00 0.30000000E+03</pdfrwt>
<pdfrwt beam="2">0</pdfrwt>
<totfact> 0.25754013E+01</totfact>
</mgrwt>
</event>
<event>
 6    1  0.1939311E-004  0.3000000E+03  0.7818608E-02  0.1093470E+00
          1   -1    0    0  502    0  0.00000000000E+00  0.00000000000E+00  0.35670688461E+02  0.35670688461E+02  0.00000000000E+00 0.  1.
         13   -1    0    0    0    0 -0.00000000000E+00 -0.00000000000E+00 -0.10000000000E+04  0.10000000000E+04  0.00000000000E+00 0.  1.
    9000005    2    1    2  501    0 -0.39555694907E+02 -0.10282760402E+02 -0.93899793952E+03  0.98758673512E+03  0.30321616182E+03 0.  0.
         13    1    3    3    0    0  0.26331732411E+02 -0.13389450987E+03 -0.25320852088E+03  0.28763806242E+03  0.00000000000E+00 0.  1.
          1    1    3    3  501    0 -0.65887427317E+02  0.12361174947E+03 -0.68578941865E+03  0.69994867270E+03  0.00000000000E+00 0.  1.
         21    1    1    2  502  501  0.39555694907E+02  0.10282760402E+02 -0.25331372015E+02  0.48083953344E+02  0.00000000000E+00 0.  1.
<mgrwt>
<rscale>  1 0.30000000E+03</rscale>
<asrwt>0</asrwt>
<pdfrwt beam="1">  1        1 0.12971187E+00 0.30000000E+03</pdfrwt>
<pdfrwt beam="2">0</pdfrwt>
<totfact> 0.22962624E+01</totfact>
</mgrwt>
</event>
<event>
 6    1  0.1939311E-004  0.3000000E+03  0.7818608E-02  0.1093470E+00
          1   -1    0    0  502    0  0.00000000000E+00  0.00000000000E+00  0.32175545527E+02  0.32175545527E+02  0.00000000000E+00 0.  1.
         13   -1    0    0    0    0 -0.00000000000E+00 -0.00000000000E+00 -0.10000000000E+04  0.10000000000E+04  0.00000000000E+00 0.  1.
    9000005    2    1    2  501    0  0.10835493490E+02 -0.92476502268E+01 -0.96225193731E+03  0.10168791439E+04  0.32849882126E+03 0.  0.
         13    1    3    3    0    0  0.53357967966E+02  0.15097192599E+03 -0.54051395948E+03  0.56373303573E+03  0.00000000000E+00 0.  1.
          3    1    3    3  501    0 -0.42522474476E+02 -0.16021957622E+03 -0.42173797783E+03  0.45314610821E+03  0.00000000000E+00 0.  1.
         21    1    1    2  502  501 -0.10835493490E+02  0.92476502268E+01 -0.55725171597E+01  0.15296401583E+02  0.00000000000E+00 0.  1.
<mgrwt>
<rscale>  1 0.30000000E+03</rscale>
<asrwt>0</asrwt>
<pdfrwt beam="1">  1        1 0.11700223E+00 0.30000000E+03</pdfrwt>
<pdfrwt beam="2">0</pdfrwt>
<totfact> 0.27037999E+01</totfact>
</mgrwt>
</event>
<event>
 6    1  0.1939311E-004  0.3000000E+03  0.7818608E-02  0.1093470E+00
          1   -1    0    0  502    0  0.00000000000E+00  0.00000000000E+00  0.66078476239E+02  0.66078476239E+02  0.00000000000E+00 0.  1.
         13   -1    0    0    0    0 -0.00000000000E+00 -0.00000000000E+00 -0.10000000000E+04  0.10000000000E+04  0.00000000000E+00 0.  1.
    9000005    2    1    2  501    0  0.75350504735E+02 -0.72278832138E+02 -0.88530547179E+03  0.95090274682E+03  0.33098085652E+03 0.  0.
         13    1    3    3    0    0  0.50032255095E+01  0.12567896923E+03 -0.22239536508E+03  0.25549938157E+03  0.00000000000E+00 0.  1.
          3    1    3    3  501    0  0.70347279225E+02 -0.19795780137E+03 -0.66291010671E+03  0.69540336524E+03  0.00000000000E+00 0.  1.
         21    1    1    2  502  501 -0.75350504735E+02  0.72278832138E+02 -0.48616051971E+02  0.11517572942E+03  0.00000000000E+00 0.  1.
<mgrwt>
<rscale>  1 0.30000000E+03</rscale>
<asrwt>0</asrwt>
<pdfrwt beam="1">  1        1 0.24028587E+00 0.30000000E+03</pdfrwt>
<pdfrwt beam="2">0</pdfrwt>
<totfact> 0.66233708E+00</totfact>
</mgrwt>
</event>
<event>
 6    1  0.1939311E-004  0.3000000E+03  0.7818608E-02  0.1093470E+00
          1   -1    0    0  502    0  0.00000000000E+00  0.00000000000E+00  0.55643358562E+02  0.55643358562E+02  0.00000000000E+00 0.  1.
         13   -1    0    0    0    0 -0.00000000000E+00 -0.00000000000E+00 -0.10000000000E+04  0.10000000000E+04  0.00000000000E+00 0.  1.
    9000005    2    1    2  501    0 -0.10631609063E+03 -0.38695324946E+02 -0.80198614757E+03  0.87379232935E+03  0.32791891474E+03 0.  0.
         13    1    3    3    0    0 -0.41008122428E+02 -0.17731766860E+03 -0.54503179068E+03  0.57461541447E+03  0.00000000000E+00 0.  1.
          1    1    3    3  501    0 -0.65307968204E+02  0.13862234365E+03 -0.25695435690E+03  0.29917691488E+03  0.00000000000E+00 0.  1.
         21    1    1    2  502  501  0.10631609063E+03  0.38695324946E+02 -0.14237049387E+03  0.18185102921E+03  0.00000000000E+00 0. -1.
<mgrwt>
<rscale>  1 0.30000000E+03</rscale>
<asrwt>0</asrwt>
<pdfrwt beam="1">  1        1 0.20233991E+00 0.30000000E+03</pdfrwt>
<pdfrwt beam="2">0</pdfrwt>
<totfact> 0.99845739E+00</totfact>
</mgrwt>
</event>
<event>
 6    1  0.1939311E-004  0.3000000E+03  0.7818608E-02  0.1093470E+00
          3   -1    0    0  502    0  0.00000000000E+00  0.00000000000E+00  0.30529536147E+02  0.30529536147E+02  0.00000000000E+00 0.  1.
         13   -1    0    0    0    0 -0.00000000000E+00 -0.00000000000E+00 -0.10000000000E+04  0.10000000000E+04  0.00000000000E+00 0.  1.
    9000005    2    1    2  501    0 -0.72717152963E+01  0.19204126232E+02 -0.91294195622E+03  0.97038680189E+03  0.32827709875E+03 0.  0.
         13    1    3    3    0    0 -0.10302052952E+03  0.10518473671E+03 -0.74174777085E+03  0.75621876061E+03  0.00000000000E+00 0.  1.
          3    1    3    3  501    0  0.95748814225E+02 -0.85980610479E+02 -0.17119418537E+03  0.21416804128E+03  0.00000000000E+00 0.  1.
         21    1    1    2  502  501  0.72717152963E+01 -0.19204126232E+02 -0.56528507637E+02  0.60142734253E+02  0.00000000000E+00 0. -1.
<mgrwt>
<rscale>  1 0.30000000E+03</rscale>
<asrwt>0</asrwt>
<pdfrwt beam="1">  1        3 0.11101673E+00 0.30000000E+03</pdfrwt>
<pdfrwt beam="2">0</pdfrwt>
<totfact> 0.29342415E+00</totfact>
</mgrwt>
</event>
<event>
 6    1  0.1939311E-004  0.3000000E+03  0.7818608E-02  0.1093470E+00
          1   -1    0    0  502    0  0.00000000000E+00  0.00000000000E+00  0.39617553489E+02  0.39617553489E+02  0.00000000000E+00 0.  1.
         13   -1    0    0    0    0 -0.00000000000E+00 -0.00000000000E+00 -0.10000000000E+04  0.10000000000E+04  0.00000000000E+00 0.  1.
    9000005    2    1    2  501    0  0.39491314497E+02  0.25718297364E+02 -0.92571297877E+03  0.98111142788E+03  0.32158065881E+03 0.  0.
         13    1    3    3    0    0  0.12645627198E+02  0.16508115966E+03 -0.33621622408E+03  0.37477066387E+03  0.00000000000E+00 0.  1.
          3    1    3    3  501    0  0.26845687299E+02 -0.13936286230E+03 -0.58949675469E+03  0.60634076401E+03  0.00000000000E+00 0.  1.
         21    1    1    2  502  501 -0.39491314497E+02 -0.25718297364E+02 -0.34669467740E+02  0.58506125605E+02  0.00000000000E+00 0.  1.
<mgrwt>
<rscale>  1 0.30000000E+03</rscale>
<asrwt>0</asrwt>
<pdfrwt beam="1">  1        1 0.14406413E+00 0.30000000E+03</pdfrwt>
<pdfrwt beam="2">0</pdfrwt>
<totfact> 0.19269604E+01</totfact>
</mgrwt>
</event>
<event>
 6    1  0.1939311E-004  0.3000000E+03  0.7818608E-02  0.1093470E+00
          1   -1    0    0  502    0  0.00000000000E+00  0.00000000000E+00  0.55020573068E+02  0.55020573068E+02  0.00000000000E+00 0.  1.
         13   -1    0    0    0    0 -0.00000000000E+00 -0.00000000000E+00 -0.10000000000E+04  0.10000000000E+04  0.00000000000E+00 0.  1.
    9000005    2    1    2  501    0  0.21779064592E+02 -0.20572668156E+02 -0.96361291196E+03  0.10197392877E+04  0.33229626623E+03 0.  0.
         13    1    3    3    0    0 -0.48451226887E+02  0.88094596283E+02 -0.82118355550E+03  0.82731530332E+03  0.00000000000E+00 0.  1.
          1    1    3    3  501    0  0.70230291479E+02 -0.10866726444E+03 -0.14242935646E+03  0.19242398443E+03  0.00000000000E+00 0.  1.
         21    1    1    2  502  501 -0.21779064592E+02  0.20572668156E+02  0.18633485029E+02  0.35281285321E+02  0.00000000000E+00 0.  1.
<mgrwt>
<rscale>  1 0.30000000E+03</rscale>
<asrwt>0</asrwt>
<pdfrwt beam="1">  1        1 0.20007523E+00 0.30000000E+03</pdfrwt>
<pdfrwt beam="2">0</pdfrwt>
<totfact> 0.10234985E+01</totfact>
</mgrwt>
</event>
<event>
 6    1  0.1939311E-004  0.3000000E+03  0.7818608E-02  0.1093470E+00
          1   -1    0    0  502    0  0.00000000000E+00  0.00000000000E+00  0.66400915340E+01  0.66400915340E+01  0.00000000000E+00 0.  1.
         13   -1    0    0    0    0 -0.00000000000E+00 -0.00000000000E+00 -0.10000000000E+04  0.10000000000E+04  0.00000000000E+00 0.  1.
    9000005    2    1    2  501    0  0.35983972481E+01 -0.14904138467E+02 -0.96295888917E+03  0.97259154119E+03  0.13568125132E+03 0.  0.
         13    1    3    3    0    0  0.45514983994E+02 -0.68194782719E+01 -0.85868750585E+03  0.85991996822E+03  0.00000000000E+00 0.  1.
          3    1    3    3  501    0 -0.41916586746E+02 -0.80846601955E+01 -0.10427138333E+03  0.11267157297E+03  0.00000000000E+00 0.  1.
         21    1    1    2  502  501 -0.35983972481E+01  0.14904138467E+02 -0.30401019294E+02  0.34048550341E+02  0.00000000000E+00 0.  1.
<mgrwt>
<rscale>  1 0.30000000E+03</rscale>
<asrwt>0</asrwt>
<pdfrwt beam="1">  1        1 0.24145838E-01 0.30000000E+03</pdfrwt>
<pdfrwt beam="2">0</pdfrwt>
<totfact> 0.22923019E+02</totfact>
</mgrwt>
</event>
<event>
 6    1  0.1939311E-004  0.3000000E+03  0.7818608E-02  0.1093470E+00
          1   -1    0    0  502    0  0.00000000000E+00  0.00000000000E+00  0.28632120498E+02  0.28632120498E+02  0.00000000000E+00 0.  1.
         13   -1    0    0    0    0 -0.00000000000E+00 -0.00000000000E+00 -0.10000000000E+04  0.10000000000E+04  0.00000000000E+00 0.  1.
    9000005    2    1    2  501    0  0.17623548622E+01  0.11942403108E+02 -0.92690229658E+03  0.98255701929E+03  0.32576786500E+03 0.  0.
         13    1    3    3    0    0 -0.14811689639E+03  0.54443970563E+02 -0.33202232369E+03  0.36761608283E+03  0.00000000000E+00 0.  1.
          1    1    3    3  501    0  0.14987925125E+03 -0.42501567455E+02 -0.59487997289E+03  0.61494093646E+03  0.00000000000E+00 0.  1.
         21    1    1    2  502  501 -0.17623548622E+01 -0.11942403108E+02 -0.44465582919E+02  0.46075101204E+02  0.00000000000E+00 0.  1.
<mgrwt>
<rscale>  1 0.30000000E+03</rscale>
<asrwt>0</asrwt>
<pdfrwt beam="1">  1        1 0.10411702E+00 0.30000000E+03</pdfrwt>
<pdfrwt beam="2">0</pdfrwt>
<totfact> 0.32254184E+01</totfact>
</mgrwt>
</event>
<event>
 6    1  0.1939311E-004  0.3000000E+03  0.7818608E-02  0.1093470E+00
          3   -1    0    0  502    0  0.00000000000E+00  0.00000000000E+00  0.36882259974E+02  0.36882259974E+02  0.00000000000E+00 0.  1.
         13   -1    0    0    0    0 -0.00000000000E+00 -0.00000000000E+00 -0.10000000000E+04  0.10000000000E+04  0.00000000000E+00 0.  1.
    9000005    2    1    2  501    0  0.11823262448E+01  0.19720893276E+02 -0.95465337720E+03  0.10153890758E+04  0.34534271843E+03 0.  0.
         13    1    3    3    0    0  0.53331851549E+02  0.15913666297E+02  0.35420186712E+01  0.55768064884E+02  0.00000000000E+00 0.  1.
          1    1    3    3  501    0 -0.52149525304E+02  0.38072269784E+01 -0.95819539587E+03  0.95962101094E+03  0.00000000000E+00 0.  1.
         21    1    1    2  502  501 -0.11823262448E+01 -0.19720893276E+02 -0.84643628274E+01  0.21493184153E+02  0.00000000000E+00 0.  1.
<mgrwt>
<rscale>  1 0.30000000E+03</rscale>
<asrwt>0</asrwt>
<pdfrwt beam="1">  1        3 0.13411759E+00 0.30000000E+03</pdfrwt>
<pdfrwt beam="2">0</pdfrwt>
<totfact> 0.15815865E+00</totfact>
</mgrwt>
</event>
<event>
 6    1  0.1939311E-004  0.3000000E+03  0.7818608E-02  0.1093470E+00
          1   -1    0    0  502    0  0.00000000000E+00  0.00000000000E+00  0.32591274590E+02  0.32591274590E+02  0.00000000000E+00 0.  1.
         13   -1    0    0    0    0 -0.00000000000E+00 -0.00000000000E+00 -0.10000000000E+04  0.10000000000E+04  0.00000000000E+00 0.  1.
    9000005    2    1    2  501    0  0.86292393071E+01 -0.12497924166E+02 -0.95147722521E+03  0.10105804914E+04  0.34019605753E+03 0.  0.
         13    1    3    3    0    0  0.32588572819E+02 -0.83268473694E+02 -0.43327887682E+02  0.99362767880E+02  0.00000000000E+00 0.  1.
          1    1    3    3  501    0 -0.23959333512E+02  0.70770549528E+02 -0.90814933753E+03  0.91121772349E+03  0.00000000000E+00 0.  1.
         21    1    1    2  502  501 -0.86292393071E+01  0.12497924166E+02 -0.15931500198E+02  0.22010783222E+02  0.00000000000E+00 0. -1.
<mgrwt>
<rscale>  1 0.30000000E+03</rscale>
<asrwt>0</asrwt>
<pdfrwt beam="1">  1        1 0.11851398E+00 0.30000000E+03</pdfrwt>
<pdfrwt beam="2">0</pdfrwt>
<totfact> 0.26505586E+01</totfact>
</mgrwt>
</event>
<event>
 6    1  0.1939311E-004  0.3000000E+03  0.7818608E-02  0.1093470E+00
          1   -1    0    0  502    0  0.00000000000E+00  0.00000000000E+00  0.41455067628E+02  0.41455067628E+02  0.00000000000E+00 0.  1.
         13   -1    0    0    0    0 -0.00000000000E+00 -0.00000000000E+00 -0.10000000000E+04  0.10000000000E+04  0.00000000000E+00 0.  1.
    9000005    2    1    2  501    0  0.14250969917E+02 -0.45586750460E+01 -0.96904154358E+03  0.10231780189E+04  0.32806687369E+03 0.  0.
         13    1    3    3    0    0  0.28008466211E+02  0.14893968752E+02  0.17580624577E+02  0.36268207086E+02  0.00000000000E+00 0.  1.
          1    1    3    3  501    0 -0.13757496294E+02 -0.19452643798E+02 -0.98662216815E+03  0.98690981186E+03  0.00000000000E+00 0.  1.
         21    1    1    2  502  501 -0.14250969917E+02  0.45586750460E+01  0.10496611204E+02  0.18277048682E+02  0.00000000000E+00 0.  1.
<mgrwt>
<rscale>  1 0.30000000E+03</rscale>
<asrwt>0</asrwt>
<pdfrwt beam="1">  1        1 0.15074602E+00 0.30000000E+03</pdfrwt>
<pdfrwt beam="2">0</pdfrwt>
<totfact> 0.17808882E+01</totfact>
</mgrwt>
</event>
<event>
 6    1  0.1939311E-004  0.3000000E+03  0.7818608E-02  0.1093470E+00
          3   -1    0    0  502    0  0.00000000000E+00  0.00000000000E+00  0.30390241599E+02  0.30390241599E+02  0.00000000000E+00 0.  1.
         13   -1    0    0    0    0 -0.00000000000E+00 -0.00000000000E+00 -0.10000000000E+04  0.10000000000E+04  0.00000000000E+00 0.  1.
    9000005    2    1    2  501    0 -0.52002274805E+01 -0.11268799141E+02 -0.96423689417E+03  0.10168663416E+04  0.32266134025E+03 0.  0.
         13    1    3    3    0    0 -0.82871934592E+02  0.50662133064E+02 -0.88358883434E+03  0.88891149022E+03  0.00000000000E+00 0.  1.
          1    1    3    3  501    0  0.77671707112E+02 -0.61930932204E+02 -0.80648059831E+02  0.12795485143E+03  0.00000000000E+00 0.  1.
         21    1    1    2  502  501  0.52002274805E+01  0.11268799141E+02 -0.53728642313E+01  0.13523899954E+02  0.00000000000E+00 0. -1.
<mgrwt>
<rscale>  1 0.30000000E+03</rscale>
<asrwt>0</asrwt>
<pdfrwt beam="1">  1        3 0.11051020E+00 0.30000000E+03</pdfrwt>
<pdfrwt beam="2">0</pdfrwt>
<totfact> 0.29735288E+00</totfact>
</mgrwt>
</event>
<event>
 6    1  0.1939311E-004  0.3000000E+03  0.7818608E-02  0.1093470E+00
          1   -1    0    0  502    0  0.00000000000E+00  0.00000000000E+00  0.33732342995E+02  0.33732342995E+02  0.00000000000E+00 0.  1.
         13   -1    0    0    0    0 -0.00000000000E+00 -0.00000000000E+00 -0.10000000000E+04  0.10000000000E+04  0.00000000000E+00 0.  1.
    9000005    2    1    2  501    0 -0.10497694068E+02 -0.56871841564E+01 -0.96908325050E+03  0.10214655907E+04  0.32268724951E+03 0.  0.
         13    1    3    3    0    0  0.58566435482E+02  0.12972316117E+03 -0.26136044752E+03  0.29760277122E+03  0.00000000000E+00 0.  1.
          3    1    3    3  501    0 -0.69064129550E+02 -0.13541034532E+03 -0.70772280298E+03  0.72386281951E+03  0.00000000000E+00 0.  1.
         21    1    1    2  502  501  0.10497694068E+02  0.56871841564E+01  0.28155934984E+01  0.12266752264E+02  0.00000000000E+00 0.  1.
<mgrwt>
<rscale>  1 0.30000000E+03</rscale>
<asrwt>0</asrwt>
<pdfrwt beam="1">  1        1 0.12266332E+00 0.30000000E+03</pdfrwt>
<pdfrwt beam="2">0</pdfrwt>
<totfact> 0.25115005E+01</totfact>
</mgrwt>
</event>
<event>
 6    1  0.1939311E-004  0.3000000E+03  0.7818608E-02  0.1093470E+00
          1   -1    0    0  502    0  0.00000000000E+00  0.00000000000E+00  0.44214337107E+02  0.44214337107E+02  0.00000000000E+00 0.  1.
         13   -1    0    0    0    0 -0.00000000000E+00 -0.00000000000E+00 -0.10000000000E+04  0.10000000000E+04  0.00000000000E+00 0.  1.
    9000005    2    1    2  501    0 -0.46725950456E+01 -0.39702698121E+02 -0.94418117617E+03  0.10025874048E+04  0.33482125592E+03 0.  0.
         13    1    3    3    0    0  0.30996642711E+02 -0.62485280515E+02 -0.95608111746E+03  0.95862208680E+03  0.00000000000E+00 0.  1.
          3    1    3    3  501    0 -0.35669237756E+02  0.22782582394E+02  0.11899941289E+02  0.43965317983E+02  0.00000000000E+00 0.  1.
         21    1    1    2  502  501  0.46725950456E+01  0.39702698121E+02 -0.11604486722E+02  0.41626932323E+02  0.00000000000E+00 0.  1.
<mgrwt>
<rscale>  1 0.30000000E+03</rscale>
<asrwt>0</asrwt>
<pdfrwt beam="1">  1        1 0.16077975E+00 0.30000000E+03</pdfrwt>
<pdfrwt beam="2">0</pdfrwt>
<totfact> 0.15861048E+01</totfact>
</mgrwt>
</event>
<event>
 6    1  0.1939311E-004  0.3000000E+03  0.7818608E-02  0.1093470E+00
          1   -1    0    0  502    0  0.00000000000E+00  0.00000000000E+00  0.34537247361E+02  0.34537247361E+02  0.00000000000E+00 0.  1.
         13   -1    0    0    0    0 -0.00000000000E+00 -0.00000000000E+00 -0.10000000000E+04  0.10000000000E+04  0.00000000000E+00 0.  1.
    9000005    2    1    2  501    0 -0.10521888702E+02 -0.10255507687E+01 -0.96905450920E+03  0.10233720061E+04  0.32880367889E+03 0.  0.
         13    1    3    3    0    0  0.12138180124E+03 -0.62690037739E+01 -0.79850723487E+03  0.80770455380E+03  0.00000000000E+00 0.  1.
          3    1    3    3  501    0 -0.13190368994E+03  0.52434530052E+01 -0.17054727433E+03  0.21566745235E+03  0.00000000000E+00 0.  1.
         21    1    1    2  502  501  0.10521888702E+02  0.10255507687E+01  0.35917565644E+01  0.11165241218E+02  0.00000000000E+00 0.  1.
<mgrwt>
<rscale>  1 0.30000000E+03</rscale>
<asrwt>0</asrwt>
<pdfrwt beam="1">  1        1 0.12559026E+00 0.30000000E+03</pdfrwt>
<pdfrwt beam="2">0</pdfrwt>
<totfact> 0.24191181E+01</totfact>
</mgrwt>
</event>
<event>
 6    1  0.1939311E-004  0.3000000E+03  0.7818608E-02  0.1093470E+00
          1   -1    0    0  502    0  0.00000000000E+00  0.00000000000E+00  0.45523336860E+02  0.45523336860E+02  0.00000000000E+00 0.  1.
         13   -1    0    0    0    0 -0.00000000000E+00 -0.00000000000E+00 -0.10000000000E+04  0.10000000000E+04  0.00000000000E+00 0.  1.
    9000005    2    1    2  501    0 -0.82876822649E+02 -0.50739487161E+02 -0.75622168400E+03  0.82473361780E+03  0.31443797749E+03 0.  0.
         13    1    3    3    0    0 -0.18206498027E+03 -0.66646719292E+02 -0.29719985043E+03  0.35484812713E+03  0.00000000000E+00 0.  1.
          1    1    3    3  501    0  0.99188157620E+02  0.15907232130E+02 -0.45902183357E+03  0.46988549066E+03  0.00000000000E+00 0.  1.
         21    1    1    2  502  501  0.82876822649E+02  0.50739487161E+02 -0.19825497914E+03  0.22078971906E+03  0.00000000000E+00 0.  1.
<mgrwt>
<rscale>  1 0.30000000E+03</rscale>
<asrwt>0</asrwt>
<pdfrwt beam="1">  1        1 0.16553976E+00 0.30000000E+03</pdfrwt>
<pdfrwt beam="2">0</pdfrwt>
<totfact> 0.15025107E+01</totfact>
</mgrwt>
</event>
<event>
 6    1  0.1939311E-004  0.3000000E+03  0.7818608E-02  0.1093470E+00
          1   -1    0    0  502    0  0.00000000000E+00  0.00000000000E+00  0.53660935988E+02  0.53660935988E+02  0.00000000000E+00 0.  1.
         13   -1    0    0    0    0 -0.00000000000E+00 -0.00000000000E+00 -0.10000000000E+04  0.10000000000E+04  0.00000000000E+00 0.  1.
    9000005    2    1    2  501    0 -0.85389268482E+02  0.32269487948E+02 -0.87416049266E+03  0.93728914737E+03  0.32560978459E+03 0.  0.
         13    1    3    3    0    0 -0.14074675039E+02  0.10932192794E+03 -0.80282813393E+03  0.81035942213E+03  0.00000000000E+00 0.  1.
          1    1    3    3  501    0 -0.71314593443E+02 -0.77052439990E+02 -0.71332358726E+02  0.12692972523E+03  0.00000000000E+00 0.  1.
         21    1    1    2  502  501  0.85389268482E+02 -0.32269487948E+02 -0.72178571353E+02  0.11637178862E+03  0.00000000000E+00 0.  1.
<mgrwt>
<rscale>  1 0.30000000E+03</rscale>
<asrwt>0</asrwt>
<pdfrwt beam="1">  1        1 0.19513109E+00 0.30000000E+03</pdfrwt>
<pdfrwt beam="2">0</pdfrwt>
<totfact> 0.10805121E+01</totfact>
</mgrwt>
</event>
<event>
 6    1  0.1939311E-004  0.3000000E+03  0.7818608E-02  0.1093470E+00
          1   -1    0    0  502    0  0.00000000000E+00  0.00000000000E+00  0.44329501054E+02  0.44329501054E+02  0.00000000000E+00 0.  1.
         13   -1    0    0    0    0 -0.00000000000E+00 -0.00000000000E+00 -0.10000000000E+04  0.10000000000E+04  0.00000000000E+00 0.  1.
    9000005    2    1    2  501    0 -0.76847700691E+02  0.14262359734E+02 -0.85238815928E+03  0.91480643093E+03  0.32279443612E+03 0.  0.
         13    1    3    3    0    0 -0.19154787958E+03  0.20598774259E+02 -0.35067260571E+03  0.40010770558E+03  0.00000000000E+00 0.  1.
          3    1    3    3  501    0  0.11470017888E+03 -0.63364145254E+01 -0.50171555356E+03  0.51469872535E+03  0.00000000000E+00 0.  1.
         21    1    1    2  502  501  0.76847700691E+02 -0.14262359734E+02 -0.10328233967E+03  0.12952307012E+03  0.00000000000E+00 0. -1.
<mgrwt>
<rscale>  1 0.30000000E+03</rscale>
<asrwt>0</asrwt>
<pdfrwt beam="1">  1        1 0.16119853E+00 0.30000000E+03</pdfrwt>
<pdfrwt beam="2">0</pdfrwt>
<totfact> 0.15785388E+01</totfact>
</mgrwt>
</event>
<event>
 6    1  0.1939311E-004  0.3000000E+03  0.7818608E-02  0.1093470E+00
          1   -1    0    0  502    0  0.00000000000E+00  0.00000000000E+00  0.33287558213E+02  0.33287558213E+02  0.00000000000E+00 0.  1.
         13   -1    0    0    0    0 -0.00000000000E+00 -0.00000000000E+00 -0.10000000000E+04  0.10000000000E+04  0.00000000000E+00 0.  1.
    9000005    2    1    2  501    0  0.27923998864E+01 -0.16216930919E+02 -0.94852543664E+03  0.10087609706E+04  0.34296851960E+03 0.  0.
         13    1    3    3    0    0  0.13064754693E+03  0.92916834703E+02 -0.31683696695E+03  0.35508869782E+03  0.00000000000E+00 0.  1.
          1    1    3    3  501    0 -0.12785514704E+03 -0.10913376562E+03 -0.63168846969E+03  0.65367227275E+03  0.00000000000E+00 0.  1.
         21    1    1    2  502  501 -0.27923998864E+01  0.16216930919E+02 -0.18187005146E+02  0.24526587650E+02  0.00000000000E+00 0. -1.
<mgrwt>
<rscale>  1 0.30000000E+03</rscale>
<asrwt>0</asrwt>
<pdfrwt beam="1">  1        1 0.12104592E+00 0.30000000E+03</pdfrwt>
<pdfrwt beam="2">0</pdfrwt>
<totfact> 0.25645226E+01</totfact>
</mgrwt>
</event>
<event>
 6    1  0.1939311E-004  0.3000000E+03  0.7818608E-02  0.1093470E+00
          1   -1    0    0  502    0  0.00000000000E+00  0.00000000000E+00  0.75716741349E+02  0.75716741349E+02  0.00000000000E+00 0.  1.
         13   -1    0    0    0    0 -0.00000000000E+00 -0.00000000000E+00 -0.10000000000E+04  0.10000000000E+04  0.00000000000E+00 0.  1.
    9000005    2    1    2  501    0  0.15289003722E+02  0.14032763955E+03 -0.83560436213E+03  0.90901477152E+03  0.32885803135E+03 0.  0.
         13    1    3    3    0    0  0.10481890057E+03  0.57294821340E+02 -0.80376686367E+02  0.14397954778E+03  0.00000000000E+00 0.  1.
          3    1    3    3  501    0 -0.89529896844E+02  0.83032818206E+02 -0.75522767576E+03  0.76503522374E+03  0.00000000000E+00 0.  1.
         21    1    1    2  502  501 -0.15289003722E+02 -0.14032763955E+03 -0.88678896521E+02  0.16670196982E+03  0.00000000000E+00 0.  1.
<mgrwt>
<rscale>  1 0.30000000E+03</rscale>
<asrwt>0</asrwt>
<pdfrwt beam="1">  1        1 0.27533419E+00 0.30000000E+03</pdfrwt>
<pdfrwt beam="2">0</pdfrwt>
<totfact> 0.45399998E+00</totfact>
</mgrwt>
</event>
<event>
 6    1  0.1939311E-004  0.3000000E+03  0.7818608E-02  0.1093470E+00
          1   -1    0    0  502    0  0.00000000000E+00  0.00000000000E+00  0.15473186315E+02  0.15473186315E+02  0.00000000000E+00 0.  1.
         13   -1    0    0    0    0 -0.00000000000E+00 -0.00000000000E+00 -0.10000000000E+04  0.10000000000E+04  0.00000000000E+00 0.  1.
    9000005    2    1    2  501    0  0.94061815116E+01  0.84064138173E+01 -0.96995919792E+03  0.99620249683E+03  0.22680261249E+03 0.  0.
         13    1    3    3    0    0  0.62896745469E+02  0.64566859748E+02 -0.16934169766E+03  0.19183714587E+03  0.00000000000E+00 0.  1.
          1    1    3    3  501    0 -0.53490563957E+02 -0.56160445931E+02 -0.80061750025E+03  0.80436535097E+03  0.00000000000E+00 0.  1.
         21    1    1    2  502  501 -0.94061815116E+01 -0.84064138173E+01 -0.14567615769E+02  0.19270689482E+02  0.00000000000E+00 0.  1.
<mgrwt>
<rscale>  1 0.30000000E+03</rscale>
<asrwt>0</asrwt>
<pdfrwt beam="1">  1        1 0.56266251E-01 0.30000000E+03</pdfrwt>
<pdfrwt beam="2">0</pdfrwt>
<totfact> 0.75513855E+01</totfact>
</mgrwt>
</event>
<event>
 6    1  0.1939311E-004  0.3000000E+03  0.7818608E-02  0.1093470E+00
          1   -1    0    0  502    0  0.00000000000E+00  0.00000000000E+00  0.26203807051E+02  0.26203807051E+02  0.00000000000E+00 0.  1.
         13   -1    0    0    0    0 -0.00000000000E+00 -0.00000000000E+00 -0.10000000000E+04  0.10000000000E+04  0.00000000000E+00 0.  1.
    9000005    2    1    2  501    0 -0.96078572846E+01  0.59478357032E+01 -0.96520637719E+03  0.10120097024E+04  0.30399440715E+03 0.  0.
         13    1    3    3    0    0 -0.36996686398E+02  0.14772228470E+03 -0.60661352414E+03  0.62543632439E+03  0.00000000000E+00 0.  1.
          1    1    3    3  501    0  0.27388829113E+02 -0.14177444900E+03 -0.35859285305E+03  0.38657337804E+03  0.00000000000E+00 0.  1.
         21    1    1    2  502  501  0.96078572846E+01 -0.59478357032E+01 -0.85898157621E+01  0.14194104621E+02  0.00000000000E+00 0.  1.
<mgrwt>
<rscale>  1 0.30000000E+03</rscale>
<asrwt>0</asrwt>
<pdfrwt beam="1">  1        1 0.95286772E-01 0.30000000E+03</pdfrwt>
<pdfrwt beam="2">0</pdfrwt>
<totfact> 0.36711371E+01</totfact>
</mgrwt>
</event>
<event>
 6    1  0.1939311E-004  0.3000000E+03  0.7818608E-02  0.1093470E+00
          1   -1    0    0  502    0  0.00000000000E+00  0.00000000000E+00  0.34937911629E+02  0.34937911629E+02  0.00000000000E+00 0.  1.
         13   -1    0    0    0    0 -0.00000000000E+00 -0.00000000000E+00 -0.10000000000E+04  0.10000000000E+04  0.00000000000E+00 0.  1.
    9000005    2    1    2  501    0 -0.28519638774E+02 -0.28519062290E+02 -0.81999532174E+03  0.88436874649E+03  0.32876898483E+03 0.  0.
         13    1    3    3    0    0  0.14332230194E+03  0.26576158903E+02 -0.29150943094E+03  0.32592226493E+03  0.00000000000E+00 0.  1.
          1    1    3    3  501    0 -0.17184194071E+03 -0.55095221193E+02 -0.52848589080E+03  0.55844648156E+03  0.00000000000E+00 0.  1.
         21    1    1    2  502  501  0.28519638774E+02  0.28519062290E+02 -0.14506676663E+03  0.15056916514E+03  0.00000000000E+00 0.  1.
<mgrwt>
<rscale>  1 0.30000000E+03</rscale>
<asrwt>0</asrwt>
<pdfrwt beam="1">  1        1 0.12704722E+00 0.30000000E+03</pdfrwt>
<pdfrwt beam="2">0</pdfrwt>
<totfact> 0.23747467E+01</totfact>
</mgrwt>
</event>
<event>
 6    1  0.1939311E-004  0.3000000E+03  0.7818608E-02  0.1093470E+00
          1   -1    0    0  502    0  0.00000000000E+00  0.00000000000E+00  0.40701045229E+02  0.40701045229E+02  0.00000000000E+00 0.  1.
         13   -1    0    0    0    0 -0.00000000000E+00 -0.00000000000E+00 -0.10000000000E+04  0.10000000000E+04  0.00000000000E+00 0.  1.
    9000005    2    1    2  501    0  0.19988698341E+02 -0.45813686386E+02 -0.91838642719E+03  0.97610788124E+03  0.32688610285E+03 0.  0.
         13    1    3    3    0    0  0.79317251106E+02  0.69907302538E+02 -0.77641146510E+03  0.78357706731E+03  0.00000000000E+00 0.  1.
          1    1    3    3  501    0 -0.59328552765E+02 -0.11572098892E+03 -0.14197496209E+03  0.19253081393E+03  0.00000000000E+00 0.  1.
         21    1    1    2  502  501 -0.19988698341E+02  0.45813686386E+02 -0.40912527577E+02  0.64593163991E+02  0.00000000000E+00 0.  1.
<mgrwt>
<rscale>  1 0.30000000E+03</rscale>
<asrwt>0</asrwt>
<pdfrwt beam="1">  1        1 0.14800411E+00 0.30000000E+03</pdfrwt>
<pdfrwt beam="2">0</pdfrwt>
<totfact> 0.18390930E+01</totfact>
</mgrwt>
</event>
<event>
 6    1  0.1939311E-004  0.3000000E+03  0.7818608E-02  0.1093470E+00
          3   -1    0    0  502    0  0.00000000000E+00  0.00000000000E+00  0.45326745899E+02  0.45326745899E+02  0.00000000000E+00 0.  1.
         13   -1    0    0    0    0 -0.00000000000E+00 -0.00000000000E+00 -0.10000000000E+04  0.10000000000E+04  0.00000000000E+00 0.  1.
    9000005    2    1    2  501    0  0.10331145785E+01  0.16167268178E+02 -0.96961136330E+03  0.10232905259E+04  0.32667239957E+03 0.  0.
         13    1    3    3    0    0 -0.35773556300E+02  0.14166776633E+03 -0.77605312788E+03  0.78968852128E+03  0.00000000000E+00 0.  1.
          1    1    3    3  501    0  0.36806670879E+02 -0.12550049815E+03 -0.19355823541E+03  0.23360200460E+03  0.00000000000E+00 0.  1.
         21    1    1    2  502  501 -0.10331145785E+01 -0.16167268178E+02  0.14938109198E+02  0.22036220013E+02  0.00000000000E+00 0. -1.
<mgrwt>
<rscale>  1 0.30000000E+03</rscale>
<asrwt>0</asrwt>
<pdfrwt beam="1">  1        3 0.16482488E+00 0.30000000E+03</pdfrwt>
<pdfrwt beam="2">0</pdfrwt>
<totfact> 0.59560648E-01</totfact>
</mgrwt>
</event>
<event>
 6    1  0.1939311E-004  0.3000000E+03  0.7818608E-02  0.1093470E+00
          1   -1    0    0  502    0  0.00000000000E+00  0.00000000000E+00  0.60914386635E+02  0.60914386635E+02  0.00000000000E+00 0.  1.
         13   -1    0    0    0    0 -0.00000000000E+00 -0.00000000000E+00 -0.10000000000E+04  0.10000000000E+04  0.00000000000E+00 0.  1.
    9000005    2    1    2  501    0 -0.26676127279E+01  0.82199614959E+02 -0.91264915265E+03  0.97452700728E+03  0.33167833699E+03 0.  0.
         13    1    3    3    0    0 -0.30058901188E+02 -0.98604596235E+02 -0.10776117504E+03  0.14912704244E+03  0.00000000000E+00 0.  1.
          3    1    3    3  501    0  0.27391288460E+02  0.18080421119E+03 -0.80488797760E+03  0.82539996484E+03  0.00000000000E+00 0.  1.
         21    1    1    2  502  501  0.26676127279E+01 -0.82199614959E+02 -0.26436460719E+02  0.86387379358E+02  0.00000000000E+00 0.  1.
<mgrwt>
<rscale>  1 0.30000000E+03</rscale>
<asrwt>0</asrwt>
<pdfrwt beam="1">  1        1 0.22150733E+00 0.30000000E+03</pdfrwt>
<pdfrwt beam="2">0</pdfrwt>
<totfact> 0.81102636E+00</totfact>
</mgrwt>
</event>
<event>
 6    1  0.1939311E-004  0.3000000E+03  0.7818608E-02  0.1093470E+00
          1   -1    0    0  502    0  0.00000000000E+00  0.00000000000E+00  0.27281041136E+02  0.27281041136E+02  0.00000000000E+00 0.  1.
         13   -1    0    0    0    0 -0.00000000000E+00 -0.00000000000E+00 -0.10000000000E+04  0.10000000000E+04  0.00000000000E+00 0.  1.
    9000005    2    1    2  501    0  0.52101494542E+01 -0.10613702767E+02 -0.94830559091E+03  0.10001552438E+04  0.31762748889E+03 0.  0.
         13    1    3    3    0    0 -0.91917793781E+01 -0.15195617972E+03 -0.67695211197E+03  0.69385829335E+03  0.00000000000E+00 0.  1.
          1    1    3    3  501    0  0.14401928832E+02  0.14134247695E+03 -0.27135347894E+03  0.30629695049E+03  0.00000000000E+00 0.  1.
         21    1    1    2  502  501 -0.52101494542E+01  0.10613702767E+02 -0.24413367954E+02  0.27125797290E+02  0.00000000000E+00 0. -1.
<mgrwt>
<rscale>  1 0.30000000E+03</rscale>
<asrwt>0</asrwt>
<pdfrwt beam="1">  1        1 0.99203995E-01 0.30000000E+03</pdfrwt>
<pdfrwt beam="2">0</pdfrwt>
<totfact> 0.34628741E+01</totfact>
</mgrwt>
</event>
<event>
 6    1  0.1939311E-004  0.3000000E+03  0.7818608E-02  0.1093470E+00
          1   -1    0    0  502    0  0.00000000000E+00  0.00000000000E+00  0.42440821198E+02  0.42440821198E+02  0.00000000000E+00 0.  1.
         13   -1    0    0    0    0 -0.00000000000E+00 -0.00000000000E+00 -0.10000000000E+04  0.10000000000E+04  0.00000000000E+00 0.  1.
    9000005    2    1    2  501    0  0.21552729410E+02  0.68373824583E+02 -0.87567196561E+03  0.93360601189E+03  0.31572027817E+03 0.  0.
         13    1    3    3    0    0 -0.30214970762E+02  0.17641797061E+03 -0.68841826528E+03  0.71130580820E+03  0.00000000000E+00 0.  1.
          1    1    3    3  501    0  0.51767700172E+02 -0.10804414603E+03 -0.18725370032E+03  0.22230020368E+03  0.00000000000E+00 0.  1.
         21    1    1    2  502  501 -0.21552729410E+02 -0.68373824583E+02 -0.81887213196E+02  0.10883480931E+03  0.00000000000E+00 0.  1.
<mgrwt>
<rscale>  1 0.30000000E+03</rscale>
<asrwt>0</asrwt>
<pdfrwt beam="1">  1        1 0.15433058E+00 0.30000000E+03</pdfrwt>
<pdfrwt beam="2">0</pdfrwt>
<totfact> 0.17081721E+01</totfact>
</mgrwt>
</event>
<event>
 6    1  0.1939311E-004  0.3000000E+03  0.7818608E-02  0.1093470E+00
          1   -1    0    0  502    0  0.00000000000E+00  0.00000000000E+00  0.12280317702E+03  0.12280317702E+03  0.00000000000E+00 0.  1.
         13   -1    0    0    0    0 -0.00000000000E+00 -0.00000000000E+00 -0.10000000000E+04  0.10000000000E+04  0.00000000000E+00 0.  1.
    9000005    2    1    2  501    0  0.20534075219E+02 -0.44775269190E+02 -0.96623758686E+03  0.10210449803E+04  0.32633005451E+03 0.  0.
         13    1    3    3    0    0  0.77858332703E+02  0.11971723762E+03 -0.29762535098E+03  0.33011359636E+03  0.00000000000E+00 0.  1.
          3    1    3    3  501    0 -0.57324257484E+02 -0.16449250681E+03 -0.66861223588E+03  0.69093138390E+03  0.00000000000E+00 0.  1.
         21    1    1    2  502  501 -0.20534075219E+02  0.44775269190E+02  0.89040763874E+02  0.10175819676E+03  0.00000000000E+00 0.  1.
<mgrwt>
<rscale>  1 0.30000000E+03</rscale>
<asrwt>0</asrwt>
<pdfrwt beam="1">  1        1 0.44655795E+00 0.30000000E+03</pdfrwt>
<pdfrwt beam="2">0</pdfrwt>
<totfact> 0.54260509E-01</totfact>
</mgrwt>
</event>
<event>
 6    1  0.1939311E-004  0.3000000E+03  0.7818608E-02  0.1093470E+00
          1   -1    0    0  502    0  0.00000000000E+00  0.00000000000E+00  0.28269993977E+02  0.28269993977E+02  0.00000000000E+00 0.  1.
         13   -1    0    0    0    0 -0.00000000000E+00 -0.00000000000E+00 -0.10000000000E+04  0.10000000000E+04  0.00000000000E+00 0.  1.
    9000005    2    1    2  501    0  0.26434122401E+01  0.73480601851E+01 -0.95288126386E+03  0.10078676241E+04  0.32825822612E+03 0.  0.
         13    1    3    3    0    0  0.31740079854E+02  0.49388143149E+02 -0.95489772785E+03  0.95670073273E+03  0.00000000000E+00 0.  1.
          1    1    3    3  501    0 -0.29096667614E+02 -0.42040082963E+02  0.20164639939E+01  0.51166891335E+02  0.00000000000E+00 0.  1.
         21    1    1    2  502  501 -0.26434122401E+01 -0.73480601851E+01 -0.18848742167E+02  0.20402369912E+02  0.00000000000E+00 0. -1.
<mgrwt>
<rscale>  1 0.30000000E+03</rscale>
<asrwt>0</asrwt>
<pdfrwt beam="1">  1        1 0.10280019E+00 0.30000000E+03</pdfrwt>
<pdfrwt beam="2">0</pdfrwt>
<totfact> 0.32866681E+01</totfact>
</mgrwt>
</event>
<event>
 6    1  0.1939311E-004  0.3000000E+03  0.7818608E-02  0.1093470E+00
          1   -1    0    0  502    0  0.00000000000E+00  0.00000000000E+00  0.42970547378E+02  0.42970547378E+02  0.00000000000E+00 0.  1.
         13   -1    0    0    0    0 -0.00000000000E+00 -0.00000000000E+00 -0.10000000000E+04  0.10000000000E+04  0.00000000000E+00 0.  1.
    9000005    2    1    2  501    0 -0.20742831305E+02  0.67344534731E+00 -0.96399271959E+03  0.10210797807E+04  0.33599291146E+03 0.  0.
         13    1    3    3    0    0  0.15656254863E+03 -0.17372044031E+02 -0.41543921521E+03  0.44430098029E+03  0.00000000000E+00 0.  1.
          1    1    3    3  501    0 -0.17730537993E+03  0.18045489379E+02 -0.54855350437E+03  0.57677880041E+03  0.00000000000E+00 0.  1.
         21    1    1    2  502  501  0.20742831305E+02 -0.67344534731E+00  0.69632669638E+01  0.21890766684E+02  0.00000000000E+00 0.  1.
<mgrwt>
<rscale>  1 0.30000000E+03</rscale>
<asrwt>0</asrwt>
<pdfrwt beam="1">  1        1 0.15625687E+00 0.30000000E+03</pdfrwt>
<pdfrwt beam="2">0</pdfrwt>
<totfact> 0.16705804E+01</totfact>
</mgrwt>
</event>
<event>
 6    1  0.1939311E-004  0.3000000E+03  0.7818608E-02  0.1093470E+00
          1   -1    0    0  502    0  0.00000000000E+00  0.00000000000E+00  0.31433559727E+02  0.31433559727E+02  0.00000000000E+00 0.  1.
         13   -1    0    0    0    0 -0.00000000000E+00 -0.00000000000E+00 -0.10000000000E+04  0.10000000000E+04  0.00000000000E+00 0.  1.
    9000005    2    1    2  501    0 -0.10215499474E+02  0.93100011791E+01 -0.96331407637E+03  0.10166477598E+04  0.32466540519E+03 0.  0.
         13    1    3    3    0    0  0.10630444808E+03 -0.38327303849E+02 -0.12328369783E+03  0.16723781884E+03  0.00000000000E+00 0.  1.
          3    1    3    3  501    0 -0.11651994755E+03  0.47637305028E+02 -0.84003037854E+03  0.84940994100E+03  0.00000000000E+00 0.  1.
         21    1    1    2  502  501  0.10215499474E+02 -0.93100011791E+01 -0.52523639080E+01  0.14785799879E+02  0.00000000000E+00 0.  1.
<mgrwt>
<rscale>  1 0.30000000E+03</rscale>
<asrwt>0</asrwt>
<pdfrwt beam="1">  1        1 0.11430409E+00 0.30000000E+03</pdfrwt>
<pdfrwt beam="2">0</pdfrwt>
<totfact> 0.28025619E+01</totfact>
</mgrwt>
</event>
<event>
 6    1  0.1939311E-004  0.3000000E+03  0.7818608E-02  0.1093470E+00
          1   -1    0    0  502    0  0.00000000000E+00  0.00000000000E+00  0.26788889678E+02  0.26788889678E+02  0.00000000000E+00 0.  1.
         13   -1    0    0    0    0 -0.00000000000E+00 -0.00000000000E+00 -0.10000000000E+04  0.10000000000E+04  0.00000000000E+00 0.  1.
    9000005    2    1    2  501    0 -0.13365948001E+01 -0.99375179338E+01 -0.97241560759E+03  0.10167303822E+04  0.29672885843E+03 0.  0.
         13    1    3    3    0    0 -0.13017558855E+03 -0.48606720600E+02 -0.29499634585E+03  0.32608456143E+03  0.00000000000E+00 0.  1.
          1    1    3    3  501    0  0.12883899375E+03  0.38669202666E+02 -0.67741926175E+03  0.69064582076E+03  0.00000000000E+00 0.  1.
         21    1    1    2  502  501  0.13365948001E+01  0.99375179338E+01 -0.79550273051E+00  0.10058507491E+02  0.00000000000E+00 0. -1.
<mgrwt>
<rscale>  1 0.30000000E+03</rscale>
<asrwt>0</asrwt>
<pdfrwt beam="1">  1        1 0.97414350E-01 0.30000000E+03</pdfrwt>
<pdfrwt beam="2">0</pdfrwt>
<totfact> 0.35557895E+01</totfact>
</mgrwt>
</event>
<event>
 6    1  0.1939311E-004  0.3000000E+03  0.7818608E-02  0.1093470E+00
          1   -1    0    0  502    0  0.00000000000E+00  0.00000000000E+00  0.45251228692E+02  0.45251228692E+02  0.00000000000E+00 0.  1.
         13   -1    0    0    0    0 -0.00000000000E+00 -0.00000000000E+00 -0.10000000000E+04  0.10000000000E+04  0.00000000000E+00 0.  1.
    9000005    2    1    2  501    0 -0.46654637175E+02  0.37763060719E+01 -0.93625751730E+03  0.99492387895E+03  0.33332337234E+03 0.  0.
         13    1    3    3    0    0 -0.19623070891E+02  0.98689291498E+02 -0.87058940520E+03  0.87638493461E+03  0.00000000000E+00 0.  1.
          3    1    3    3  501    0 -0.27031566284E+02 -0.94912985426E+02 -0.65668112098E+02  0.11853894434E+03  0.00000000000E+00 0.  1.
         21    1    1    2  502  501  0.46654637175E+02 -0.37763060719E+01 -0.18491254012E+02  0.50327349745E+02  0.00000000000E+00 0. -1.
<mgrwt>
<rscale>  1 0.30000000E+03</rscale>
<asrwt>0</asrwt>
<pdfrwt beam="1">  1        1 0.16455027E+00 0.30000000E+03</pdfrwt>
<pdfrwt beam="2">0</pdfrwt>
<totfact> 0.15194627E+01</totfact>
</mgrwt>
</event>
<event>
 6    1  0.1939311E-004  0.3000000E+03  0.7818608E-02  0.1093470E+00
          1   -1    0    0  502    0  0.00000000000E+00  0.00000000000E+00  0.55987747402E+02  0.55987747402E+02  0.00000000000E+00 0.  1.
         13   -1    0    0    0    0 -0.00000000000E+00 -0.00000000000E+00 -0.10000000000E+04  0.10000000000E+04  0.00000000000E+00 0.  1.
    9000005    2    1    2  501    0 -0.34205307819E+02 -0.10794139435E+03 -0.89820660441E+03  0.93384232136E+03  0.22905245965E+03 0.  0.
         13    1    3    3    0    0 -0.53505126207E+02  0.60421435655E+02 -0.38540281965E+03  0.39376246877E+03  0.00000000000E+00 0.  1.
          1    1    3    3  501    0  0.19299818388E+02 -0.16836283000E+03 -0.51280378476E+03  0.54007985259E+03  0.00000000000E+00 0.  1.
         21    1    1    2  502  501  0.34205307819E+02  0.10794139435E+03 -0.45805648191E+02  0.12214542604E+03  0.00000000000E+00 0.  1.
<mgrwt>
<rscale>  1 0.30000000E+03</rscale>
<asrwt>0</asrwt>
<pdfrwt beam="1">  1        1 0.20359224E+00 0.30000000E+03</pdfrwt>
<pdfrwt beam="2">0</pdfrwt>
<totfact> 0.98489094E+00</totfact>
</mgrwt>
</event>
<event>
 6    1  0.1939311E-004  0.3000000E+03  0.7818608E-02  0.1093470E+00
          1   -1    0    0  502    0  0.00000000000E+00  0.00000000000E+00  0.61610031463E+02  0.61610031463E+02  0.00000000000E+00 0.  1.
         13   -1    0    0    0    0 -0.00000000000E+00 -0.00000000000E+00 -0.10000000000E+04  0.10000000000E+04  0.00000000000E+00 0.  1.
    9000005    2    1    2  501    0  0.59733372692E+01 -0.85818691810E+01 -0.97181427055E+03  0.10265884210E+04  0.33068335363E+03 0.  0.
         13    1    3    3    0    0  0.42253414894E+02  0.14063382772E+03 -0.26192541809E+03  0.30028011791E+03  0.00000000000E+00 0.  1.
          1    1    3    3  501    0 -0.36280077625E+02 -0.14921569690E+03 -0.70988885246E+03  0.72630830305E+03  0.00000000000E+00 0.  1.
         21    1    1    2  502  501 -0.59733372692E+01  0.85818691810E+01  0.33424302015E+02  0.35021610500E+02  0.00000000000E+00 0.  1.
<mgrwt>
<rscale>  1 0.30000000E+03</rscale>
<asrwt>0</asrwt>
<pdfrwt beam="1">  1        1 0.22403695E+00 0.30000000E+03</pdfrwt>
<pdfrwt beam="2">0</pdfrwt>
<totfact> 0.78919320E+00</totfact>
</mgrwt>
</event>
<event>
 6    1  0.1939311E-004  0.3000000E+03  0.7818608E-02  0.1093470E+00
          1   -1    0    0  502    0  0.00000000000E+00  0.00000000000E+00  0.28943236279E+02  0.28943236279E+02  0.00000000000E+00 0.  1.
         13   -1    0    0    0    0 -0.00000000000E+00 -0.00000000000E+00 -0.10000000000E+04  0.10000000000E+04  0.00000000000E+00 0.  1.
    9000005    2    1    2  501    0 -0.63740243338E+01 -0.50827084923E+01 -0.95498274391E+03  0.10109200228E+04  0.33151287937E+03 0.  0.
         13    1    3    3    0    0 -0.13675889132E+02  0.15963710763E+03 -0.57056444014E+03  0.59263379622E+03  0.00000000000E+00 0.  1.
          3    1    3    3  501    0  0.73018647986E+01 -0.16471981613E+03 -0.38441830378E+03  0.41828622656E+03  0.00000000000E+00 0.  1.
         21    1    1    2  502  501  0.63740243338E+01  0.50827084923E+01 -0.16074019808E+02  0.18023213493E+02  0.00000000000E+00 0.  1.
<mgrwt>
<rscale>  1 0.30000000E+03</rscale>
<asrwt>0</asrwt>
<pdfrwt beam="1">  1        1 0.10524835E+00 0.30000000E+03</pdfrwt>
<pdfrwt beam="2">0</pdfrwt>
<totfact> 0.31741114E+01</totfact>
</mgrwt>
</event>
<event>
 6    1  0.1939311E-004  0.3000000E+03  0.7818608E-02  0.1093470E+00
          1   -1    0    0  502    0  0.00000000000E+00  0.00000000000E+00  0.33103172356E+02  0.33103172356E+02  0.00000000000E+00 0.  1.
         13   -1    0    0    0    0 -0.00000000000E+00 -0.00000000000E+00 -0.10000000000E+04  0.10000000000E+04  0.00000000000E+00 0.  1.
    9000005    2    1    2  501    0 -0.20016691815E+02  0.21245961189E+02 -0.92084074328E+03  0.97857591564E+03  0.32986525941E+03 0.  0.
         13    1    3    3    0    0  0.10487476135E+03 -0.28513003953E+02 -0.10292092400E+03  0.14968107282E+03  0.00000000000E+00 0.  1.
          1    1    3    3  501    0 -0.12489145317E+03  0.49758965142E+02 -0.81791981928E+03  0.82889484282E+03  0.00000000000E+00 0.  1.
         21    1    1    2  502  501  0.20016691815E+02 -0.21245961189E+02 -0.46056084361E+02  0.54527256713E+02  0.00000000000E+00 0.  1.
<mgrwt>
<rscale>  1 0.30000000E+03</rscale>
<asrwt>0</asrwt>
<pdfrwt beam="1">  1        1 0.12037543E+00 0.30000000E+03</pdfrwt>
<pdfrwt beam="2">0</pdfrwt>
<totfact> 0.25869373E+01</totfact>
</mgrwt>
</event>
<event>
 6    1  0.1939311E-004  0.3000000E+03  0.7818608E-02  0.1093470E+00
          1   -1    0    0  502    0  0.00000000000E+00  0.00000000000E+00  0.34436112298E+02  0.34436112298E+02  0.00000000000E+00 0.  1.
         13   -1    0    0    0    0 -0.00000000000E+00 -0.00000000000E+00 -0.10000000000E+04  0.10000000000E+04  0.00000000000E+00 0.  1.
    9000005    2    1    2  501    0 -0.63398015440E+01  0.13193210087E+02 -0.96680498464E+03  0.10197461770E+04  0.32396934021E+03 0.  0.
         13    1    3    3    0    0  0.72032570966E+01  0.38676561165E+01  0.25769551735E+02  0.27035448457E+02  0.00000000000E+00 0.  1.
          3    1    3    3  501    0 -0.13543058641E+02  0.93255539704E+01 -0.99257453638E+03  0.99271072859E+03  0.00000000000E+00 0.  1.
         21    1    1    2  502  501  0.63398015440E+01 -0.13193210087E+02  0.12410969414E+01  0.14689935249E+02  0.00000000000E+00 0.  1.
<mgrwt>
<rscale>  1 0.30000000E+03</rscale>
<asrwt>0</asrwt>
<pdfrwt beam="1">  1        1 0.12522249E+00 0.30000000E+03</pdfrwt>
<pdfrwt beam="2">0</pdfrwt>
<totfact> 0.24304848E+01</totfact>
</mgrwt>
</event>
<event>
 6    1  0.1939311E-004  0.3000000E+03  0.7818608E-02  0.1093470E+00
          1   -1    0    0  502    0  0.00000000000E+00  0.00000000000E+00  0.37982877480E+02  0.37982877480E+02  0.00000000000E+00 0.  1.
         13   -1    0    0    0    0 -0.00000000000E+00 -0.00000000000E+00 -0.10000000000E+04  0.10000000000E+04  0.00000000000E+00 0.  1.
    9000005    2    1    2  501    0  0.33369432104E+01 -0.14453232872E+02 -0.96774485680E+03  0.10220819948E+04  0.32848358416E+03 0.  0.
         13    1    3    3    0    0 -0.14603744034E+03  0.62863977854E+02 -0.52114763798E+03  0.54486115137E+03  0.00000000000E+00 0.  1.
          1    1    3    3  501    0  0.14937438355E+03 -0.77317210725E+02 -0.44659721882E+03  0.47722084342E+03  0.00000000000E+00 0.  1.
         21    1    1    2  502  501 -0.33369432104E+01  0.14453232872E+02  0.57277342843E+01  0.15900882694E+02  0.00000000000E+00 0.  1.
<mgrwt>
<rscale>  1 0.30000000E+03</rscale>
<asrwt>0</asrwt>
<pdfrwt beam="1">  1        1 0.13811985E+00 0.30000000E+03</pdfrwt>
<pdfrwt beam="2">0</pdfrwt>
<totfact> 0.20698254E+01</totfact>
</mgrwt>
</event>
<event>
 6    1  0.1939311E-004  0.3000000E+03  0.7818608E-02  0.1093470E+00
          1   -1    0    0  502    0  0.00000000000E+00  0.00000000000E+00  0.28189754399E+02  0.28189754399E+02  0.00000000000E+00 0.  1.
         13   -1    0    0    0    0 -0.00000000000E+00 -0.00000000000E+00 -0.10000000000E+04  0.10000000000E+04  0.00000000000E+00 0.  1.
    9000005    2    1    2  501    0  0.11759675579E+02 -0.27932439865E+02 -0.89941348436E+03  0.94970534700E+03  0.30344211821E+03 0.  0.
         13    1    3    3    0    0  0.56126239368E+02  0.49326681599E+01 -0.89225246452E+03  0.89402961159E+03  0.00000000000E+00 0.  1.
          3    1    3    3  501    0 -0.44366563789E+02 -0.32865108025E+02 -0.71610198376E+01  0.55675735406E+02  0.00000000000E+00 0.  1.
         21    1    1    2  502  501 -0.11759675579E+02  0.27932439865E+02 -0.72396761241E+02  0.78484407398E+02  0.00000000000E+00 0.  1.
<mgrwt>
<rscale>  1 0.30000000E+03</rscale>
<asrwt>0</asrwt>
<pdfrwt beam="1">  1        1 0.10250841E+00 0.30000000E+03</pdfrwt>
<pdfrwt beam="2">0</pdfrwt>
<totfact> 0.33004689E+01</totfact>
</mgrwt>
</event>
<event>
 6    1  0.1939311E-004  0.3000000E+03  0.7818608E-02  0.1093470E+00
          1   -1    0    0  502    0  0.00000000000E+00  0.00000000000E+00  0.30431801878E+02  0.30431801878E+02  0.00000000000E+00 0.  1.
         13   -1    0    0    0    0 -0.00000000000E+00 -0.00000000000E+00 -0.10000000000E+04  0.10000000000E+04  0.00000000000E+00 0.  1.
    9000005    2    1    2  501    0  0.14395641820E+02  0.11048348518E+02 -0.95054932505E+03  0.10041445799E+04  0.32316097754E+03 0.  0.
         13    1    3    3    0    0  0.90396506579E+02  0.25697194342E+02 -0.91352330217E+03  0.91834454199E+03  0.00000000000E+00 0.  1.
          1    1    3    3  501    0 -0.76000864759E+02 -0.14648845824E+02 -0.37026022878E+02  0.85800037869E+02  0.00000000000E+00 0.  1.
         21    1    1    2  502  501 -0.14395641820E+02 -0.11048348518E+02 -0.19018873072E+02  0.26287222016E+02  0.00000000000E+00 0. -1.
<mgrwt>
<rscale>  1 0.30000000E+03</rscale>
<asrwt>0</asrwt>
<pdfrwt beam="1">  1        1 0.11066133E+00 0.30000000E+03</pdfrwt>
<pdfrwt beam="2">0</pdfrwt>
<totfact> 0.29441715E+01</totfact>
</mgrwt>
</event>
<event>
 6    1  0.1939311E-004  0.3000000E+03  0.7818608E-02  0.1093470E+00
          1   -1    0    0  502    0  0.00000000000E+00  0.00000000000E+00  0.49283552570E+02  0.49283552570E+02  0.00000000000E+00 0.  1.
         13   -1    0    0    0    0 -0.00000000000E+00 -0.00000000000E+00 -0.10000000000E+04  0.10000000000E+04  0.00000000000E+00 0.  1.
    9000005    2    1    2  501    0  0.62144532042E+02  0.82550851139E+02 -0.72039696703E+03  0.79684811738E+03  0.32452819012E+03 0.  0.
         13    1    3    3    0    0 -0.52751549945E+02 -0.10621662948E+03 -0.22311469018E+03  0.25267541110E+03  0.00000000000E+00 0.  1.
          3    1    3    3  501    0  0.11489608199E+03  0.18876748062E+03 -0.49728227685E+03  0.54417270628E+03  0.00000000000E+00 0.  1.
         21    1    1    2  502  501 -0.62144532042E+02 -0.82550851139E+02 -0.23031948040E+03  0.25243543519E+03  0.00000000000E+00 0.  1.
<mgrwt>
<rscale>  1 0.30000000E+03</rscale>
<asrwt>0</asrwt>
<pdfrwt beam="1">  1        1 0.17921330E+00 0.30000000E+03</pdfrwt>
<pdfrwt beam="2">0</pdfrwt>
<totfact> 0.12886914E+01</totfact>
</mgrwt>
</event>
<event>
 6    1  0.1939311E-004  0.3000000E+03  0.7818608E-02  0.1093470E+00
          1   -1    0    0  502    0  0.00000000000E+00  0.00000000000E+00  0.37025258448E+02  0.37025258448E+02  0.00000000000E+00 0.  1.
         13   -1    0    0    0    0 -0.00000000000E+00 -0.00000000000E+00 -0.10000000000E+04  0.10000000000E+04  0.00000000000E+00 0.  1.
    9000005    2    1    2  501    0 -0.17053665270E+02 -0.31363096391E+00 -0.96745657131E+03  0.10193897074E+04  0.32076819086E+03 0.  0.
         13    1    3    3    0    0 -0.66897642653E+02 -0.14248673909E+03 -0.63781537388E+03  0.65695221787E+03  0.00000000000E+00 0.  1.
          1    1    3    3  501    0  0.49843977383E+02  0.14217310812E+03 -0.32964119744E+03  0.36243748951E+03  0.00000000000E+00 0.  1.
         21    1    1    2  502  501  0.17053665270E+02  0.31363096391E+00  0.44818297630E+01  0.17635551070E+02  0.00000000000E+00 0.  1.
<mgrwt>
<rscale>  1 0.30000000E+03</rscale>
<asrwt>0</asrwt>
<pdfrwt beam="1">  1        1 0.13463759E+00 0.30000000E+03</pdfrwt>
<pdfrwt beam="2">0</pdfrwt>
<totfact> 0.21598598E+01</totfact>
</mgrwt>
</event>
<event>
 6    1  0.1939311E-004  0.3000000E+03  0.7818608E-02  0.1093470E+00
          1   -1    0    0  502    0  0.00000000000E+00  0.00000000000E+00  0.33356757886E+02  0.33356757886E+02  0.00000000000E+00 0.  1.
         13   -1    0    0    0    0 -0.00000000000E+00 -0.00000000000E+00 -0.10000000000E+04  0.10000000000E+04  0.00000000000E+00 0.  1.
    9000005    2    1    2  501    0 -0.17831354438E+02 -0.17115184614E+02 -0.95005535512E+03  0.10035902542E+04  0.32245516562E+03 0.  0.
         13    1    3    3    0    0 -0.47640551790E+02 -0.64419508285E+02 -0.36019576980E+02  0.87845917084E+02  0.00000000000E+00 0.  1.
          1    1    3    3  501    0  0.29809197352E+02  0.47304323671E+02 -0.91403577814E+03  0.91574433714E+03  0.00000000000E+00 0.  1.
         21    1    1    2  502  501  0.17831354438E+02  0.17115184614E+02 -0.16587886997E+02  0.29766503666E+02  0.00000000000E+00 0.  1.
<mgrwt>
<rscale>  1 0.30000000E+03</rscale>
<asrwt>0</asrwt>
<pdfrwt beam="1">  1        1 0.12129756E+00 0.30000000E+03</pdfrwt>
<pdfrwt beam="2">0</pdfrwt>
<totfact> 0.25561770E+01</totfact>
</mgrwt>
</event>
<event>
 6    1  0.1939311E-004  0.3000000E+03  0.7818608E-02  0.1093470E+00
          1   -1    0    0  502    0  0.00000000000E+00  0.00000000000E+00  0.39686899268E+02  0.39686899268E+02  0.00000000000E+00 0.  1.
         13   -1    0    0    0    0 -0.00000000000E+00 -0.00000000000E+00 -0.10000000000E+04  0.10000000000E+04  0.00000000000E+00 0.  1.
    9000005    2    1    2  501    0 -0.38802699628E+02 -0.21065717639E+02 -0.92817487286E+03  0.98507664704E+03  0.32698316772E+03 0.  0.
         13    1    3    3    0    0  0.14067730057E+03  0.14408149538E+02 -0.31712658342E+03  0.34722754439E+03  0.00000000000E+00 0.  1.
          3    1    3    3  501    0 -0.17948000020E+03 -0.35473867177E+02 -0.61104828944E+03  0.63784910265E+03  0.00000000000E+00 0.  1.
         21    1    1    2  502  501  0.38802699628E+02  0.21065717639E+02 -0.32138227873E+02  0.54610252232E+02  0.00000000000E+00 0.  1.
<mgrwt>
<rscale>  1 0.30000000E+03</rscale>
<asrwt>0</asrwt>
<pdfrwt beam="1">  1        1 0.14431630E+00 0.30000000E+03</pdfrwt>
<pdfrwt beam="2">0</pdfrwt>
<totfact> 0.19211806E+01</totfact>
</mgrwt>
</event>
<event>
 6    1  0.1939311E-004  0.3000000E+03  0.7818608E-02  0.1093470E+00
          1   -1    0    0  502    0  0.00000000000E+00  0.00000000000E+00  0.49270543202E+02  0.49270543202E+02  0.00000000000E+00 0.  1.
         13   -1    0    0    0    0 -0.00000000000E+00 -0.00000000000E+00 -0.10000000000E+04  0.10000000000E+04  0.00000000000E+00 0.  1.
    9000005    2    1    2  501    0 -0.45659860528E+02 -0.21720173930E+01 -0.95230626520E+03  0.10035318632E+04  0.31320829683E+03 0.  0.
         13    1    3    3    0    0  0.59174934935E+02  0.86416079699E+02 -0.76049008206E+03  0.76766827254E+03  0.00000000000E+00 0.  1.
          3    1    3    3  501    0 -0.10483479546E+03 -0.88588097092E+02 -0.19181618314E+03  0.23586359066E+03  0.00000000000E+00 0.  1.
         21    1    1    2  502  501  0.45659860528E+02  0.21720173930E+01  0.15768084039E+01  0.45738679996E+02  0.00000000000E+00 0.  1.
<mgrwt>
<rscale>  1 0.30000000E+03</rscale>
<asrwt>0</asrwt>
<pdfrwt beam="1">  1        1 0.17916599E+00 0.30000000E+03</pdfrwt>
<pdfrwt beam="2">0</pdfrwt>
<totfact> 0.12893711E+01</totfact>
</mgrwt>
</event>
<event>
 6    1  0.1939311E-004  0.3000000E+03  0.7818608E-02  0.1093470E+00
          1   -1    0    0  502    0  0.00000000000E+00  0.00000000000E+00  0.32184203778E+02  0.32184203778E+02  0.00000000000E+00 0.  1.
         13   -1    0    0    0    0 -0.00000000000E+00 -0.00000000000E+00 -0.10000000000E+04  0.10000000000E+04  0.00000000000E+00 0.  1.
    9000005    2    1    2  501    0 -0.10237665250E+02  0.92217492595E+01 -0.96178547356E+03  0.10171437503E+04  0.33069663015E+03 0.  0.
         13    1    3    3    0    0  0.40447460011E+02 -0.15032517816E+03 -0.57468768679E+03  0.59539868455E+03  0.00000000000E+00 0.  1.
          1    1    3    3  501    0 -0.50685125261E+02  0.15954692742E+03 -0.38709778676E+03  0.42174506576E+03  0.00000000000E+00 0.  1.
         21    1    1    2  502  501  0.10237665250E+02 -0.92217492595E+01 -0.60303226646E+01  0.15040453471E+02  0.00000000000E+00 0.  1.
<mgrwt>
<rscale>  1 0.30000000E+03</rscale>
<asrwt>0</asrwt>
<pdfrwt beam="1">  1        1 0.11703372E+00 0.30000000E+03</pdfrwt>
<pdfrwt beam="2">0</pdfrwt>
<totfact> 0.27026762E+01</totfact>
</mgrwt>
</event>
<event>
 6    1  0.1939311E-004  0.3000000E+03  0.7818608E-02  0.1093470E+00
          1   -1    0    0  502    0  0.00000000000E+00  0.00000000000E+00  0.54961101035E+02  0.54961101035E+02  0.00000000000E+00 0.  1.
         13   -1    0    0    0    0 -0.00000000000E+00 -0.00000000000E+00 -0.10000000000E+04  0.10000000000E+04  0.00000000000E+00 0.  1.
    9000005    2    1    2  501    0  0.13304415554E+02 -0.96748591322E+01 -0.97041675499E+03  0.10247179870E+04  0.32873646599E+03 0.  0.
         13    1    3    3    0    0 -0.59861681354E+02 -0.34689878244E+01 -0.91564221700E+01  0.60657191149E+02  0.00000000000E+00 0.  1.
          3    1    3    3  501    0  0.73166096908E+02 -0.62058713077E+01 -0.96126033282E+03  0.96406079581E+03  0.00000000000E+00 0.  1.
         21    1    1    2  502  501 -0.13304415554E+02  0.96748591322E+01  0.25377856023E+02  0.30243114072E+02  0.00000000000E+00 0.  1.
<mgrwt>
<rscale>  1 0.30000000E+03</rscale>
<asrwt>0</asrwt>
<pdfrwt beam="1">  1        1 0.19985897E+00 0.30000000E+03</pdfrwt>
<pdfrwt beam="2">0</pdfrwt>
<totfact> 0.10259242E+01</totfact>
</mgrwt>
</event>
<event>
 6    1  0.1939311E-004  0.3000000E+03  0.7818608E-02  0.1093470E+00
          1   -1    0    0  502    0  0.00000000000E+00  0.00000000000E+00  0.29562024317E+02  0.29562024317E+02  0.00000000000E+00 0.  1.
         13   -1    0    0    0    0 -0.00000000000E+00 -0.00000000000E+00 -0.10000000000E+04  0.10000000000E+04  0.00000000000E+00 0.  1.
    9000005    2    1    2  501    0  0.30534056211E+01 -0.15202871514E+02 -0.95007522113E+03  0.10039672522E+04  0.32414019658E+03 0.  0.
         13    1    3    3    0    0 -0.11551239478E+03 -0.91045106745E+02 -0.25145972946E+03  0.29131481313E+03  0.00000000000E+00 0.  1.
          1    1    3    3  501    0  0.11856580040E+03  0.75842235231E+02 -0.69861549167E+03  0.71265243904E+03  0.00000000000E+00 0.  1.
         21    1    1    2  502  501 -0.30534056211E+01  0.15202871514E+02 -0.20362754550E+02  0.25594772142E+02  0.00000000000E+00 0.  1.
<mgrwt>
<rscale>  1 0.30000000E+03</rscale>
<asrwt>0</asrwt>
<pdfrwt beam="1">  1        1 0.10749850E+00 0.30000000E+03</pdfrwt>
<pdfrwt beam="2">0</pdfrwt>
<totfact> 0.30755088E+01</totfact>
</mgrwt>
</event>
<event>
 6    1  0.2380019E-004  0.3000000E+03  0.7818608E-02  0.1093470E+00
          1   -1    0    0  502    0  0.00000000000E+00  0.00000000000E+00  0.58885031697E+02  0.58885031697E+02  0.00000000000E+00 0.  1.
         13   -1    0    0    0    0 -0.00000000000E+00 -0.00000000000E+00 -0.10000000000E+04  0.10000000000E+04  0.00000000000E+00 0.  1.
    9000005    2    1    2  501    0 -0.22351962007E+02 -0.86184655200E+01 -0.94465243373E+03  0.10346692968E+04  0.42142430529E+03 0.  0.
         13    1    3    3    0    0  0.34394518834E+02  0.13372434533E+03 -0.86480421117E+02  0.16292343815E+03  0.00000000000E+00 0.  1.
          1    1    3    3  501    0 -0.56746480841E+02 -0.14234281085E+03 -0.85817201262E+03  0.87174585868E+03  0.00000000000E+00 0.  1.
         21    1    1    2  502  501  0.22351962007E+02  0.86184655200E+01  0.35374654308E+01  0.24215734868E+02  0.00000000000E+00 0. -1.
<mgrwt>
<rscale>  1 0.30000000E+03</rscale>
<asrwt>0</asrwt>
<pdfrwt beam="1">  1        1 0.21412784E+00 0.30000000E+03</pdfrwt>
<pdfrwt beam="2">0</pdfrwt>
<totfact> 0.87834549E+00</totfact>
</mgrwt>
</event>
<event>
 6    1  0.1939311E-004  0.3000000E+03  0.7818608E-02  0.1093470E+00
          1   -1    0    0  502    0  0.00000000000E+00  0.00000000000E+00  0.33972309287E+02  0.33972309287E+02  0.00000000000E+00 0.  1.
         13   -1    0    0    0    0 -0.00000000000E+00 -0.00000000000E+00 -0.10000000000E+04  0.10000000000E+04  0.00000000000E+00 0.  1.
    9000005    2    1    2  501    0  0.15937378160E+01 -0.14411311279E+02 -0.97075569475E+03  0.10187217383E+04  0.30857273910E+03 0.  0.
         13    1    3    3    0    0  0.12854128694E+03  0.52330454800E+02 -0.68586601394E+03  0.69976676688E+03  0.00000000000E+00 0.  1.
          1    1    3    3  501    0 -0.12694754912E+03 -0.66741766079E+02 -0.28488968081E+03  0.31895497143E+03  0.00000000000E+00 0.  1.
         21    1    1    2  502  501 -0.15937378160E+01  0.14411311279E+02  0.47280040369E+01  0.15250570979E+02  0.00000000000E+00 0. -1.
<mgrwt>
<rscale>  1 0.30000000E+03</rscale>
<asrwt>0</asrwt>
<pdfrwt beam="1">  1        1 0.12353593E+00 0.30000000E+03</pdfrwt>
<pdfrwt beam="2">0</pdfrwt>
<totfact> 0.24834904E+01</totfact>
</mgrwt>
</event>
<event>
 6    1  0.1939311E-004  0.3000000E+03  0.7818608E-02  0.1093470E+00
          1   -1    0    0  502    0  0.00000000000E+00  0.00000000000E+00  0.87229783609E+02  0.87229783609E+02  0.00000000000E+00 0.  1.
         13   -1    0    0    0    0 -0.00000000000E+00 -0.00000000000E+00 -0.10000000000E+04  0.10000000000E+04  0.00000000000E+00 0.  1.
    9000005    2    1    2  501    0  0.11419336430E+02 -0.17394051441E+02 -0.95339801064E+03  0.10415836235E+04  0.41892209745E+03 0.  0.
         13    1    3    3    0    0 -0.15509709993E+03 -0.11816791333E+03 -0.28421200781E+03  0.34466684136E+03  0.00000000000E+00 0.  1.
          1    1    3    3  501    0  0.16651643636E+03  0.10077386189E+03 -0.66918600282E+03  0.69691678211E+03  0.00000000000E+00 0.  1.
         21    1    1    2  502  501 -0.11419336430E+02  0.17394051441E+02  0.40627794244E+02  0.45646160136E+02  0.00000000000E+00 0.  1.
<mgrwt>
<rscale>  1 0.30000000E+03</rscale>
<asrwt>0</asrwt>
<pdfrwt beam="1">  1        1 0.31719988E+00 0.30000000E+03</pdfrwt>
<pdfrwt beam="2">0</pdfrwt>
<totfact> 0.28733109E+00</totfact>
</mgrwt>
</event>
<event>
 6    1  0.1939311E-004  0.3000000E+03  0.7818608E-02  0.1093470E+00
          1   -1    0    0  502    0  0.00000000000E+00  0.00000000000E+00  0.48971398438E+02  0.48971398438E+02  0.00000000000E+00 0.  1.
         13   -1    0    0    0    0 -0.00000000000E+00 -0.00000000000E+00 -0.10000000000E+04  0.10000000000E+04  0.00000000000E+00 0.  1.
    9000005    2    1    2  501    0  0.95932652411E+01 -0.41230422718E+02 -0.95283405274E+03  0.10066011477E+04  0.32180919806E+03 0.  0.
         13    1    3    3    0    0  0.25241615288E+02 -0.14399692312E+02 -0.97045527329E+03  0.97089027585E+03  0.00000000000E+00 0.  1.
          1    1    3    3  501    0 -0.15648350046E+02 -0.26830730406E+02  0.17621220550E+02  0.35710871832E+02  0.00000000000E+00 0.  1.
         21    1    1    2  502  501 -0.95932652411E+01  0.41230422718E+02  0.18054511759E+01  0.42370250760E+02  0.00000000000E+00 0.  1.
<mgrwt>
<rscale>  1 0.30000000E+03</rscale>
<asrwt>0</asrwt>
<pdfrwt beam="1">  1        1 0.17807819E+00 0.30000000E+03</pdfrwt>
<pdfrwt beam="2">0</pdfrwt>
<totfact> 0.13051093E+01</totfact>
</mgrwt>
</event>
<event>
 6    1  0.1939311E-004  0.3000000E+03  0.7818608E-02  0.1093470E+00
          1   -1    0    0  502    0  0.00000000000E+00  0.00000000000E+00  0.30825539922E+02  0.30825539922E+02  0.00000000000E+00 0.  1.
         13   -1    0    0    0    0 -0.00000000000E+00 -0.00000000000E+00 -0.10000000000E+04  0.10000000000E+04  0.00000000000E+00 0.  1.
    9000005    2    1    2  501    0 -0.12233005881E+01  0.12102021920E+02 -0.97049889670E+03  0.10185899553E+04  0.30904600486E+03 0.  0.
         13    1    3    3    0    0 -0.83742827628E+02  0.12553601971E+03 -0.32935063624E+03  0.36227613090E+03  0.00000000000E+00 0.  1.
          3    1    3    3  501    0  0.82519527040E+02 -0.11343399779E+03 -0.64114826046E+03  0.65631382439E+03  0.00000000000E+00 0.  1.
         21    1    1    2  502  501  0.12233005881E+01 -0.12102021920E+02  0.13244366266E+01  0.12235584630E+02  0.00000000000E+00 0. -1.
<mgrwt>
<rscale>  1 0.30000000E+03</rscale>
<asrwt>0</asrwt>
<pdfrwt beam="1">  1        1 0.11209311E+00 0.30000000E+03</pdfrwt>
<pdfrwt beam="2">0</pdfrwt>
<totfact> 0.28873250E+01</totfact>
</mgrwt>
</event>
<event>
 6    1  0.1939311E-004  0.3000000E+03  0.7818608E-02  0.1093470E+00
          1   -1    0    0  502    0  0.00000000000E+00  0.00000000000E+00  0.42477682569E+02  0.42477682569E+02  0.00000000000E+00 0.  1.
         13   -1    0    0    0    0 -0.00000000000E+00 -0.00000000000E+00 -0.10000000000E+04  0.10000000000E+04  0.00000000000E+00 0.  1.
    9000005    2    1    2  501    0  0.18046517979E+02 -0.44948605944E+02 -0.93448964641E+03  0.98884413037E+03  0.31968071717E+03 0.  0.
         13    1    3    3    0    0 -0.10054515073E+03  0.75490134602E+02 -0.20882051139E+03  0.24375006407E+03  0.00000000000E+00 0.  1.
          3    1    3    3  501    0  0.11859166871E+03 -0.12043874055E+03 -0.72566913502E+03  0.74509406630E+03  0.00000000000E+00 0.  1.
         21    1    1    2  502  501 -0.18046517979E+02  0.44948605944E+02 -0.23032671025E+02  0.53633552204E+02  0.00000000000E+00 0.  1.
<mgrwt>
<rscale>  1 0.30000000E+03</rscale>
<asrwt>0</asrwt>
<pdfrwt beam="1">  1        1 0.15446463E+00 0.30000000E+03</pdfrwt>
<pdfrwt beam="2">0</pdfrwt>
<totfact> 0.17055235E+01</totfact>
</mgrwt>
</event>
<event>
 6    1  0.1939311E-004  0.3000000E+03  0.7818608E-02  0.1093470E+00
          1   -1    0    0  502    0  0.00000000000E+00  0.00000000000E+00  0.32304088446E+02  0.32304088446E+02  0.00000000000E+00 0.  1.
         13   -1    0    0    0    0 -0.00000000000E+00 -0.00000000000E+00 -0.10000000000E+04  0.10000000000E+04  0.00000000000E+00 0.  1.
    9000005    2    1    2  501    0 -0.11014582483E+02 -0.13680087055E+01 -0.96420886430E+03  0.10206700017E+04  0.33458231569E+03 0.  0.
         13    1    3    3    0    0  0.15000553835E+03 -0.54979916676E+02 -0.37766359077E+03  0.41006614170E+03  0.00000000000E+00 0.  1.
          1    1    3    3  501    0 -0.16102012083E+03  0.53611907971E+02 -0.58654527353E+03  0.61060386003E+03  0.00000000000E+00 0.  1.
         21    1    1    2  502  501  0.11014582483E+02  0.13680087055E+01 -0.34870472533E+01  0.11634086712E+02  0.00000000000E+00 0.  1.
<mgrwt>
<rscale>  1 0.30000000E+03</rscale>
<asrwt>0</asrwt>
<pdfrwt beam="1">  1        1 0.11746966E+00 0.30000000E+03</pdfrwt>
<pdfrwt beam="2">0</pdfrwt>
<totfact> 0.26871826E+01</totfact>
</mgrwt>
</event>
<event>
 6    1  0.1939311E-004  0.3000000E+03  0.7818608E-02  0.1093470E+00
          1   -1    0    0  502    0  0.00000000000E+00  0.00000000000E+00  0.28163053065E+02  0.28163053065E+02  0.00000000000E+00 0.  1.
         13   -1    0    0    0    0 -0.00000000000E+00 -0.00000000000E+00 -0.10000000000E+04  0.10000000000E+04  0.00000000000E+00 0.  1.
    9000005    2    1    2  501    0 -0.97746201039E+01 -0.11490218995E+02 -0.95220385417E+03  0.10034036778E+04  0.31606833509E+03 0.  0.
         13    1    3    3    0    0  0.15037368644E+03 -0.32662635037E+02 -0.42464441260E+03  0.45166577295E+03  0.00000000000E+00 0.  1.
          1    1    3    3  501    0 -0.16014830654E+03  0.21172416041E+02 -0.52755944158E+03  0.55173790488E+03  0.00000000000E+00 0.  1.
         21    1    1    2  502  501  0.97746201039E+01  0.11490218995E+02 -0.19633092760E+02  0.24759375236E+02  0.00000000000E+00 0. -1.
<mgrwt>
<rscale>  1 0.30000000E+03</rscale>
<asrwt>0</asrwt>
<pdfrwt beam="1">  1        1 0.10241132E+00 0.30000000E+03</pdfrwt>
<pdfrwt beam="2">0</pdfrwt>
<totfact> 0.33050802E+01</totfact>
</mgrwt>
</event>
<event>
 6    1  0.1939311E-004  0.3000000E+03  0.7818608E-02  0.1093470E+00
          1   -1    0    0  502    0  0.00000000000E+00  0.00000000000E+00  0.59489614278E+02  0.59489614278E+02  0.00000000000E+00 0.  1.
         13   -1    0    0    0    0 -0.00000000000E+00 -0.00000000000E+00 -0.10000000000E+04  0.10000000000E+04  0.00000000000E+00 0.  1.
    9000005    2    1    2  501    0 -0.72327019965E+02 -0.72969041746E+01 -0.89447229170E+03  0.97344341315E+03  0.37712989189E+03 0.  0.
         13    1    3    3    0    0 -0.18285746569E+03  0.10819771906E+03 -0.38833091229E+03  0.44265618329E+03  0.00000000000E+00 0.  1.
          3    1    3    3  501    0  0.11053044572E+03 -0.11549462323E+03 -0.50614137941E+03  0.53078722986E+03  0.00000000000E+00 0.  1.
         21    1    1    2  502  501  0.72327019965E+02  0.72969041746E+01 -0.46038094021E+02  0.86046201128E+02  0.00000000000E+00 0.  1.
<mgrwt>
<rscale>  1 0.30000000E+03</rscale>
<asrwt>0</asrwt>
<pdfrwt beam="1">  1        1 0.21632633E+00 0.30000000E+03</pdfrwt>
<pdfrwt beam="2">0</pdfrwt>
<totfact> 0.85770117E+00</totfact>
</mgrwt>
</event>
<event>
 6    1  0.1939311E-004  0.3000000E+03  0.7818608E-02  0.1093470E+00
          3   -1    0    0  502    0  0.00000000000E+00  0.00000000000E+00  0.29912641759E+02  0.29912641759E+02  0.00000000000E+00 0.  1.
         13   -1    0    0    0    0 -0.00000000000E+00 -0.00000000000E+00 -0.10000000000E+04  0.10000000000E+04  0.00000000000E+00 0.  1.
    9000005    2    1    2  501    0  0.98432473053E+01 -0.86619275740E+01 -0.95001452125E+03  0.10059368771E+04  0.33046859395E+03 0.  0.
         13    1    3    3    0    0 -0.18080427291E+02  0.11877915637E+03 -0.13573302387E+03  0.18127008470E+03  0.00000000000E+00 0.  1.
          1    1    3    3  501    0  0.27923674596E+02 -0.12744108395E+03 -0.81428149738E+03  0.82466679238E+03  0.00000000000E+00 0.  1.
         21    1    1    2  502  501 -0.98432473053E+01  0.86619275740E+01 -0.20072836990E+02  0.23975764673E+02  0.00000000000E+00 0.  1.
<mgrwt>
<rscale>  1 0.30000000E+03</rscale>
<asrwt>0</asrwt>
<pdfrwt beam="1">  1        3 0.10877347E+00 0.30000000E+03</pdfrwt>
<pdfrwt beam="2">0</pdfrwt>
<totfact> 0.31121802E+00</totfact>
</mgrwt>
</event>
<event>
 6    1  0.1939311E-004  0.3000000E+03  0.7818608E-02  0.1093470E+00
          1   -1    0    0  502    0  0.00000000000E+00  0.00000000000E+00  0.59797877619E+02  0.59797877619E+02  0.00000000000E+00 0.  1.
         13   -1    0    0    0    0 -0.00000000000E+00 -0.00000000000E+00 -0.10000000000E+04  0.10000000000E+04  0.00000000000E+00 0.  1.
    9000005    2    1    2  501    0 -0.11058723892E+01 -0.10738973544E+02 -0.97286382916E+03  0.10253982323E+04  0.32382241471E+03 0.  0.
         13    1    3    3    0    0 -0.12129842865E+03 -0.13633709769E+02 -0.14810527071E+03  0.19192279189E+03  0.00000000000E+00 0.  1.
          1    1    3    3  501    0  0.12019255626E+03  0.28947362252E+01 -0.82475855845E+03  0.83347544044E+03  0.00000000000E+00 0.  1.
         21    1    1    2  502  501  0.11058723892E+01  0.10738973544E+02  0.32661706778E+02  0.34399645291E+02  0.00000000000E+00 0.  1.
<mgrwt>
<rscale>  1 0.30000000E+03</rscale>
<asrwt>0</asrwt>
<pdfrwt beam="1">  1        1 0.21744729E+00 0.30000000E+03</pdfrwt>
<pdfrwt beam="2">0</pdfrwt>
<totfact> 0.84737105E+00</totfact>
</mgrwt>
</event>
<event>
 6    1  0.1939311E-004  0.3000000E+03  0.7818608E-02  0.1093470E+00
          1   -1    0    0  502    0  0.00000000000E+00  0.00000000000E+00  0.33674518957E+02  0.33674518957E+02  0.00000000000E+00 0.  1.
         13   -1    0    0    0    0 -0.00000000000E+00 -0.00000000000E+00 -0.10000000000E+04  0.10000000000E+04  0.00000000000E+00 0.  1.
    9000005    2    1    2  501    0 -0.16464046771E+02 -0.11800322995E+01 -0.96168177063E+03  0.10165274679E+04  0.32897387100E+03 0.  0.
         13    1    3    3    0    0  0.79567260214E+02 -0.13954784979E+03 -0.49196907543E+03  0.51753079373E+03  0.00000000000E+00 0.  1.
          1    1    3    3  501    0 -0.96031306985E+02  0.13836781749E+03 -0.46971269520E+03  0.49899667421E+03  0.00000000000E+00 0.  1.
         21    1    1    2  502  501  0.16464046771E+02  0.11800322995E+01 -0.46437104172E+01  0.17147051022E+02  0.00000000000E+00 0.  1.
<mgrwt>
<rscale>  1 0.30000000E+03</rscale>
<asrwt>0</asrwt>
<pdfrwt beam="1">  1        1 0.12245305E+00 0.30000000E+03</pdfrwt>
<pdfrwt beam="2">0</pdfrwt>
<totfact> 0.25183116E+01</totfact>
</mgrwt>
</event>
<event>
 6    1  0.1939311E-004  0.3000000E+03  0.7818608E-02  0.1093470E+00
          1   -1    0    0  502    0  0.00000000000E+00  0.00000000000E+00  0.30627885143E+02  0.30627885143E+02  0.00000000000E+00 0.  1.
         13   -1    0    0    0    0 -0.00000000000E+00 -0.00000000000E+00 -0.10000000000E+04  0.10000000000E+04  0.00000000000E+00 0.  1.
    9000005    2    1    2  501    0  0.96969143010E+01 -0.22670123766E+02 -0.94488817378E+03  0.99587982003E+03  0.31361599184E+03 0.  0.
         13    1    3    3    0    0  0.12926319293E+03 -0.10015366038E+03 -0.38792212605E+03  0.42097898357E+03  0.00000000000E+00 0.  1.
          3    1    3    3  501    0 -0.11956627862E+03  0.77483536619E+02 -0.55696604773E+03  0.57490083646E+03  0.00000000000E+00 0.  1.
         21    1    1    2  502  501 -0.96969143010E+01  0.22670123766E+02 -0.24483941077E+02  0.34748065114E+02  0.00000000000E+00 0.  1.
<mgrwt>
<rscale>  1 0.30000000E+03</rscale>
<asrwt>0</asrwt>
<pdfrwt beam="1">  1        1 0.11137436E+00 0.30000000E+03</pdfrwt>
<pdfrwt beam="2">0</pdfrwt>
<totfact> 0.29156660E+01</totfact>
</mgrwt>
</event>
<event>
 6    1  0.1939311E-004  0.3000000E+03  0.7818608E-02  0.1093470E+00
          1   -1    0    0  502    0  0.00000000000E+00  0.00000000000E+00  0.34793611371E+02  0.34793611371E+02  0.00000000000E+00 0.  1.
         13   -1    0    0    0    0 -0.00000000000E+00 -0.00000000000E+00 -0.10000000000E+04  0.10000000000E+04  0.00000000000E+00 0.  1.
    9000005    2    1    2  501    0 -0.39460344028E+01  0.25019834547E+02 -0.94873224355E+03  0.10045783708E+04  0.32930725738E+03 0.  0.
         13    1    3    3    0    0  0.13806696813E+03  0.66329561795E+02 -0.27478195956E+03  0.31459056527E+03  0.00000000000E+00 0.  1.
          1    1    3    3  501    0 -0.14201300253E+03 -0.41309727248E+02 -0.67395028399E+03  0.68998780550E+03  0.00000000000E+00 0.  1.
         21    1    1    2  502  501  0.39460344028E+01 -0.25019834547E+02 -0.16474145080E+02  0.30215240598E+02  0.00000000000E+00 0. -1.
<mgrwt>
<rscale>  1 0.30000000E+03</rscale>
<asrwt>0</asrwt>
<pdfrwt beam="1">  1        1 0.12652249E+00 0.30000000E+03</pdfrwt>
<pdfrwt beam="2">0</pdfrwt>
<totfact> 0.23906065E+01</totfact>
</mgrwt>
</event>
<event>
 6    1  0.1939311E-004  0.3000000E+03  0.7818608E-02  0.1093470E+00
          3   -1    0    0  502    0  0.00000000000E+00  0.00000000000E+00  0.39392205925E+02  0.39392205925E+02  0.00000000000E+00 0.  1.
         13   -1    0    0    0    0 -0.00000000000E+00 -0.00000000000E+00 -0.10000000000E+04  0.10000000000E+04  0.00000000000E+00 0.  1.
    9000005    2    1    2  501    0 -0.35518215804E+02  0.18630901589E+02 -0.94816088206E+03  0.99739720900E+03  0.30689327153E+03 0.  0.
         13    1    3    3    0    0  0.12338063466E+03  0.18497644220E+01 -0.62295692719E+03  0.63506026153E+03  0.00000000000E+00 0.  1.
          1    1    3    3  501    0 -0.15889885046E+03  0.16781137167E+02 -0.32520395487E+03  0.36233694747E+03  0.00000000000E+00 0.  1.
         21    1    1    2  502  501  0.35518215804E+02 -0.18630901589E+02 -0.12446912017E+02  0.41994996925E+02  0.00000000000E+00 0.  1.
<mgrwt>
<rscale>  1 0.30000000E+03</rscale>
<asrwt>0</asrwt>
<pdfrwt beam="1">  1        3 0.14324469E+00 0.30000000E+03</pdfrwt>
<pdfrwt beam="2">0</pdfrwt>
<totfact> 0.12175617E+00</totfact>
</mgrwt>
</event>
<event>
 6    1  0.1939311E-004  0.3000000E+03  0.7818608E-02  0.1093470E+00
          1   -1    0    0  502    0  0.00000000000E+00  0.00000000000E+00  0.60988163709E+02  0.60988163709E+02  0.00000000000E+00 0.  1.
         13   -1    0    0    0    0 -0.00000000000E+00 -0.00000000000E+00 -0.10000000000E+04  0.10000000000E+04  0.00000000000E+00 0.  1.
    9000005    2    1    2  501    0 -0.98969722695E+01 -0.15786182252E+02 -0.96975683358E+03  0.10250380807E+04  0.33155330946E+03 0.  0.
         13    1    3    3    0    0 -0.30963233266E+02  0.95847676796E+02 -0.86392234093E+03  0.86977428688E+03  0.00000000000E+00 0.  1.
          1    1    3    3  501    0  0.21066260997E+02 -0.11163385905E+03 -0.10583449265E+03  0.15526379383E+03  0.00000000000E+00 0.  1.
         21    1    1    2  502  501  0.98969722695E+01  0.15786182252E+02  0.30744997286E+02  0.35950083008E+02  0.00000000000E+00 0. -1.
<mgrwt>
<rscale>  1 0.30000000E+03</rscale>
<asrwt>0</asrwt>
<pdfrwt beam="1">  1        1 0.22177561E+00 0.30000000E+03</pdfrwt>
<pdfrwt beam="2">0</pdfrwt>
<totfact> 0.80868234E+00</totfact>
</mgrwt>
</event>
<event>
 6    1  0.1939311E-004  0.3000000E+03  0.7818608E-02  0.1093470E+00
          1   -1    0    0  502    0  0.00000000000E+00  0.00000000000E+00  0.39414907207E+02  0.39414907207E+02  0.00000000000E+00 0.  1.
         13   -1    0    0    0    0 -0.00000000000E+00 -0.00000000000E+00 -0.10000000000E+04  0.10000000000E+04  0.00000000000E+00 0.  1.
    9000005    2    1    2  501    0  0.23753383011E+02 -0.32058986930E+02 -0.94154886737E+03  0.99520654006E+03  0.31989027163E+03 0.  0.
         13    1    3    3    0    0 -0.44757096603E+02 -0.15898314638E+02 -0.92051614844E+03  0.92174070847E+03  0.00000000000E+00 0.  1.
          3    1    3    3  501    0  0.68510479614E+02 -0.16160672292E+02 -0.21032718928E+02  0.73465831591E+02  0.00000000000E+00 0.  1.
         21    1    1    2  502  501 -0.23753383011E+02  0.32058986930E+02 -0.19036225422E+02  0.44208367147E+02  0.00000000000E+00 0.  1.
<mgrwt>
<rscale>  1 0.30000000E+03</rscale>
<asrwt>0</asrwt>
<pdfrwt beam="1">  1        1 0.14332724E+00 0.30000000E+03</pdfrwt>
<pdfrwt beam="2">0</pdfrwt>
<totfact> 0.19439768E+01</totfact>
</mgrwt>
</event>
<event>
 6    1  0.1939311E-004  0.3000000E+03  0.7818608E-02  0.1093470E+00
          1   -1    0    0  502    0  0.00000000000E+00  0.00000000000E+00  0.28613927537E+02  0.28613927537E+02  0.00000000000E+00 0.  1.
         13   -1    0    0    0    0 -0.00000000000E+00 -0.00000000000E+00 -0.10000000000E+04  0.10000000000E+04  0.00000000000E+00 0.  1.
    9000005    2    1    2  501    0  0.67318430582E+01  0.15236214943E+02 -0.95622811761E+03  0.10060923034E+04  0.31236525122E+03 0.  0.
         13    1    3    3    0    0  0.41314451978E+02  0.15270305636E+03 -0.35962364346E+03  0.39287946281E+03  0.00000000000E+00 0.  1.
          3    1    3    3  501    0 -0.34582608920E+02 -0.13746684142E+03 -0.59660447415E+03  0.61321284063E+03  0.00000000000E+00 0.  1.
         21    1    1    2  502  501 -0.67318430582E+01 -0.15236214943E+02 -0.15157954856E+02  0.22521624101E+02  0.00000000000E+00 0.  1.
<mgrwt>
<rscale>  1 0.30000000E+03</rscale>
<asrwt>0</asrwt>
<pdfrwt beam="1">  1        1 0.10405087E+00 0.30000000E+03</pdfrwt>
<pdfrwt beam="2">0</pdfrwt>
<totfact> 0.32284558E+01</totfact>
</mgrwt>
</event>
<event>
 6    1  0.1939311E-004  0.3000000E+03  0.7818608E-02  0.1093470E+00
          1   -1    0    0  502    0  0.00000000000E+00  0.00000000000E+00  0.20652224034E+02  0.20652224034E+02  0.00000000000E+00 0.  1.
         13   -1    0    0    0    0 -0.00000000000E+00 -0.00000000000E+00 -0.10000000000E+04  0.10000000000E+04  0.00000000000E+00 0.  1.
    9000005    2    1    2  501    0  0.53719632025E+01  0.89156727313E+01 -0.96908053908E+03  0.10060315755E+04  0.26995201900E+03 0.  0.
         13    1    3    3    0    0 -0.45823320352E+02 -0.72606712846E+02 -0.84320804896E+03  0.84756788829E+03  0.00000000000E+00 0.  1.
          3    1    3    3  501    0  0.51195283555E+02  0.81522385578E+02 -0.12587249012E+03  0.15846368726E+03  0.00000000000E+00 0.  1.
         21    1    1    2  502  501 -0.53719632025E+01 -0.89156727313E+01 -0.10267236883E+02  0.14620648485E+02  0.00000000000E+00 0. -1.
<mgrwt>
<rscale>  1 0.30000000E+03</rscale>
<asrwt>0</asrwt>
<pdfrwt beam="1">  1        1 0.75099155E-01 0.30000000E+03</pdfrwt>
<pdfrwt beam="2">0</pdfrwt>
<totfact> 0.51232520E+01</totfact>
</mgrwt>
</event>
<event>
 6    1  0.1939311E-004  0.3000000E+03  0.7818608E-02  0.1093470E+00
          1   -1    0    0  502    0  0.00000000000E+00  0.00000000000E+00  0.39067929828E+02  0.39067929828E+02  0.00000000000E+00 0.  1.
         13   -1    0    0    0    0 -0.00000000000E+00 -0.00000000000E+00 -0.10000000000E+04  0.10000000000E+04  0.00000000000E+00 0.  1.
    9000005    2    1    2  501    0 -0.11125747905E+02 -0.15612189586E+02 -0.96680950909E+03  0.10190163210E+04  0.32141268299E+03 0.  0.
         13    1    3    3    0    0  0.92615915832E+01  0.83524390319E+02 -0.88471349942E+03  0.88869571671E+03  0.00000000000E+00 0.  1.
          3    1    3    3  501    0 -0.20387339488E+02 -0.99136579905E+02 -0.82096009670E+02  0.13032060424E+03  0.00000000000E+00 0.  1.
         21    1    1    2  502  501  0.11125747905E+02  0.15612189586E+02  0.58774389139E+01  0.20051608870E+02  0.00000000000E+00 0.  1.
<mgrwt>
<rscale>  1 0.30000000E+03</rscale>
<asrwt>0</asrwt>
<pdfrwt beam="1">  1        1 0.14206550E+00 0.30000000E+03</pdfrwt>
<pdfrwt beam="2">0</pdfrwt>
<totfact> 0.19735566E+01</totfact>
</mgrwt>
</event>
<event>
 6    1  0.1939311E-004  0.3000000E+03  0.7818608E-02  0.1093470E+00
          1   -1    0    0  502    0  0.00000000000E+00  0.00000000000E+00  0.38543251605E+02  0.38543251605E+02  0.00000000000E+00 0.  1.
         13   -1    0    0    0    0 -0.00000000000E+00 -0.00000000000E+00 -0.10000000000E+04  0.10000000000E+04  0.00000000000E+00 0.  1.
    9000005    2    1    2  501    0  0.12448610236E+02  0.26477133362E+02 -0.96546343599E+03  0.10090125890E+04  0.29177174652E+03 0.  0.
         13    1    3    3    0    0 -0.12337733771E+02 -0.12321083442E+03 -0.61132948694E+03  0.62374423524E+03  0.00000000000E+00 0.  1.
          3    1    3    3  501    0  0.24786344006E+02  0.14968796779E+03 -0.35413394905E+03  0.38526835377E+03  0.00000000000E+00 0.  1.
         21    1    1    2  502  501 -0.12448610236E+02 -0.26477133362E+02  0.40066875907E+01  0.29530662596E+02  0.00000000000E+00 0.  1.
<mgrwt>
<rscale>  1 0.30000000E+03</rscale>
<asrwt>0</asrwt>
<pdfrwt beam="1">  1        1 0.14015757E+00 0.30000000E+03</pdfrwt>
<pdfrwt beam="2">0</pdfrwt>
<totfact> 0.20193786E+01</totfact>
</mgrwt>
</event>
<event>
 6    1  0.1939311E-004  0.3000000E+03  0.7818608E-02  0.1093470E+00
          1   -1    0    0  502    0  0.00000000000E+00  0.00000000000E+00  0.63455910083E+02  0.63455910083E+02  0.00000000000E+00 0.  1.
         13   -1    0    0    0    0 -0.00000000000E+00 -0.00000000000E+00 -0.10000000000E+04  0.10000000000E+04  0.00000000000E+00 0.  1.
    9000005    2    1    2  501    0  0.38332061101E+02 -0.74703986496E+02 -0.91278301267E+03  0.97619411261E+03  0.33575598991E+03 0.  0.
         13    1    3    3    0    0  0.13614833077E+03  0.34336707168E+01 -0.14758412496E+03  0.20082139330E+03  0.00000000000E+00 0.  1.
          3    1    3    3  501    0 -0.97816269673E+02 -0.78137657213E+02 -0.76519888772E+03  0.77537271931E+03  0.00000000000E+00 0.  1.
         21    1    1    2  502  501 -0.38332061101E+02  0.74703986496E+02 -0.23761077243E+02  0.87261797474E+02  0.00000000000E+00 0.  1.
<mgrwt>
<rscale>  1 0.30000000E+03</rscale>
<asrwt>0</asrwt>
<pdfrwt beam="1">  1        1 0.23074925E+00 0.30000000E+03</pdfrwt>
<pdfrwt beam="2">0</pdfrwt>
<totfact> 0.73408927E+00</totfact>
</mgrwt>
</event>
<event>
 6    1  0.1939311E-004  0.3000000E+03  0.7818608E-02  0.1093470E+00
          1   -1    0    0  502    0  0.00000000000E+00  0.00000000000E+00  0.71796970918E+02  0.71796970918E+02  0.00000000000E+00 0.  1.
         13   -1    0    0    0    0 -0.00000000000E+00 -0.00000000000E+00 -0.10000000000E+04  0.10000000000E+04  0.00000000000E+00 0.  1.
    9000005    2    1    2  501    0 -0.19791986856E+01 -0.93294200964E+02 -0.92023784535E+03  0.97814244987E+03  0.31814656223E+03 0.  0.
         13    1    3    3    0    0 -0.10350123476E+02  0.86147089835E+02 -0.63604528250E+03  0.64193617092E+03  0.00000000000E+00 0.  1.
          3    1    3    3  501    0  0.83709247903E+01 -0.17944129080E+03 -0.28419256286E+03  0.33620627895E+03  0.00000000000E+00 0.  1.
         21    1    1    2  502  501  0.19791986856E+01  0.93294200964E+02 -0.79651837284E+01  0.93654521048E+02  0.00000000000E+00 0.  1.
<mgrwt>
<rscale>  1 0.30000000E+03</rscale>
<asrwt>0</asrwt>
<pdfrwt beam="1">  1        1 0.26108044E+00 0.30000000E+03</pdfrwt>
<pdfrwt beam="2">0</pdfrwt>
<totfact> 0.52960475E+00</totfact>
</mgrwt>
</event>
<event>
 6    1  0.1939311E-004  0.3000000E+03  0.7818608E-02  0.1093470E+00
          1   -1    0    0  502    0  0.00000000000E+00  0.00000000000E+00  0.55995155751E+02  0.55995155751E+02  0.00000000000E+00 0.  1.
         13   -1    0    0    0    0 -0.00000000000E+00 -0.00000000000E+00 -0.10000000000E+04  0.10000000000E+04  0.00000000000E+00 0.  1.
    9000005    2    1    2  501    0 -0.64949951490E+02  0.11271253784E+02 -0.93781224806E+03  0.98978423816E+03  0.30957307400E+03 0.  0.
         13    1    3    3    0    0 -0.18719246877E+03  0.10920706997E+01 -0.66130876541E+03  0.68729287512E+03  0.00000000000E+00 0.  1.
          3    1    3    3  501    0  0.12224251728E+03  0.10179183085E+02 -0.27650348265E+03  0.30249136305E+03  0.00000000000E+00 0.  1.
         21    1    1    2  502  501  0.64949951490E+02 -0.11271253784E+02 -0.61925961901E+01  0.66210917589E+02  0.00000000000E+00 0.  1.
<mgrwt>
<rscale>  1 0.30000000E+03</rscale>
<asrwt>0</asrwt>
<pdfrwt beam="1">  1        1 0.20361918E+00 0.30000000E+03</pdfrwt>
<pdfrwt beam="2">0</pdfrwt>
<totfact> 0.98460128E+00</totfact>
</mgrwt>
</event>
<event>
 6    1  0.1939311E-004  0.3000000E+03  0.7818608E-02  0.1093470E+00
          1   -1    0    0  502    0  0.00000000000E+00  0.00000000000E+00  0.29750087509E+02  0.29750087509E+02  0.00000000000E+00 0.  1.
         13   -1    0    0    0    0 -0.00000000000E+00 -0.00000000000E+00 -0.10000000000E+04  0.10000000000E+04  0.00000000000E+00 0.  1.
    9000005    2    1    2  501    0  0.16992508700E+02  0.27418600878E+02 -0.88982746682E+03  0.94309967035E+03  0.31081110418E+03 0.  0.
         13    1    3    3    0    0 -0.54990141721E+00 -0.85900515216E+02 -0.77868006964E+03  0.78340401567E+03  0.00000000000E+00 0.  1.
          1    1    3    3  501    0  0.17542410117E+02  0.11331911609E+03 -0.11114739718E+03  0.15969565468E+03  0.00000000000E+00 0.  1.
         21    1    1    2  502  501 -0.16992508700E+02 -0.27418600878E+02 -0.80422445670E+02  0.86650417158E+02  0.00000000000E+00 0.  1.
<mgrwt>
<rscale>  1 0.30000000E+03</rscale>
<asrwt>0</asrwt>
<pdfrwt beam="1">  1        1 0.10818236E+00 0.30000000E+03</pdfrwt>
<pdfrwt beam="2">0</pdfrwt>
<totfact> 0.30464129E+01</totfact>
</mgrwt>
</event>
<event>
 6    1  0.1939311E-004  0.3000000E+03  0.7818608E-02  0.1093470E+00
          1   -1    0    0  502    0  0.00000000000E+00  0.00000000000E+00  0.30347820278E+02  0.30347820278E+02  0.00000000000E+00 0.  1.
         13   -1    0    0    0    0 -0.00000000000E+00 -0.00000000000E+00 -0.10000000000E+04  0.10000000000E+04  0.00000000000E+00 0.  1.
    9000005    2    1    2  501    0  0.76631253286E+01 -0.18755656419E+02 -0.91886686620E+03  0.97567016298E+03  0.32742243509E+03 0.  0.
         13    1    3    3    0    0 -0.32611793880E+02 -0.66903030820E+02 -0.23420084392E+02  0.78025925088E+02  0.00000000000E+00 0.  1.
          3    1    3    3  501    0  0.40274919209E+02  0.48147374401E+02 -0.89544678181E+03  0.89764423789E+03  0.00000000000E+00 0.  1.
         21    1    1    2  502  501 -0.76631253286E+01  0.18755656419E+02 -0.50785313524E+02  0.54677657295E+02  0.00000000000E+00 0. -1.
<mgrwt>
<rscale>  1 0.30000000E+03</rscale>
<asrwt>0</asrwt>
<pdfrwt beam="1">  1        1 0.11035594E+00 0.30000000E+03</pdfrwt>
<pdfrwt beam="2">0</pdfrwt>
<totfact> 0.29565010E+01</totfact>
</mgrwt>
</event>
<event>
 6    1  0.1939311E-004  0.3000000E+03  0.7818608E-02  0.1093470E+00
          1   -1    0    0  502    0  0.00000000000E+00  0.00000000000E+00  0.24670593382E+02  0.24670593382E+02  0.00000000000E+00 0.  1.
         13   -1    0    0    0    0 -0.00000000000E+00 -0.00000000000E+00 -0.10000000000E+04  0.10000000000E+04  0.00000000000E+00 0.  1.
    9000005    2    1    2  501    0 -0.10147274238E+02 -0.88707872311E+01 -0.94719197429E+03  0.99347166490E+03  0.29938546183E+03 0.  0.
         13    1    3    3    0    0  0.52913120901E+02  0.56785157261E+02 -0.51461357313E+02  0.93126922773E+02  0.00000000000E+00 0.  1.
          3    1    3    3  501    0 -0.63060395139E+02 -0.65655944492E+02 -0.89573061697E+03  0.90034474212E+03  0.00000000000E+00 0.  1.
         21    1    1    2  502  501  0.10147274238E+02  0.88707872311E+01 -0.28137432330E+02  0.31198928486E+02  0.00000000000E+00 0.  1.
<mgrwt>
<rscale>  1 0.30000000E+03</rscale>
<asrwt>0</asrwt>
<pdfrwt beam="1">  1        1 0.89711438E-01 0.30000000E+03</pdfrwt>
<pdfrwt beam="2">0</pdfrwt>
<totfact> 0.40013549E+01</totfact>
</mgrwt>
</event>
<event>
 6    1  0.1939311E-004  0.3000000E+03  0.7818608E-02  0.1093470E+00
          1   -1    0    0  502    0  0.00000000000E+00  0.00000000000E+00  0.44529673935E+02  0.44529673935E+02  0.00000000000E+00 0.  1.
         13   -1    0    0    0    0 -0.00000000000E+00 -0.00000000000E+00 -0.10000000000E+04  0.10000000000E+04  0.00000000000E+00 0.  1.
    9000005    2    1    2  501    0 -0.83408283007E+01  0.75856285436E+01 -0.97291261869E+03  0.10237608331E+04  0.31843393132E+03 0.  0.
         13    1    3    3    0    0  0.14296018444E+03  0.14945475097E+02 -0.28296699618E+03  0.31738195048E+03  0.00000000000E+00 0.  1.
          1    1    3    3  501    0 -0.15130101274E+03 -0.73598465530E+01 -0.68994562251E+03  0.70637888263E+03  0.00000000000E+00 0.  1.
         21    1    1    2  502  501  0.83408283007E+01 -0.75856285436E+01  0.17442292629E+02  0.20768840827E+02  0.00000000000E+00 0.  1.
<mgrwt>
<rscale>  1 0.30000000E+03</rscale>
<asrwt>0</asrwt>
<pdfrwt beam="1">  1        1 0.16192643E+00 0.30000000E+03</pdfrwt>
<pdfrwt beam="2">0</pdfrwt>
<totfact> 0.15654873E+01</totfact>
</mgrwt>
</event>
<event>
 6    1  0.1939311E-004  0.3000000E+03  0.7818608E-02  0.1093470E+00
          1   -1    0    0  502    0  0.00000000000E+00  0.00000000000E+00  0.31830401224E+02  0.31830401224E+02  0.00000000000E+00 0.  1.
         13   -1    0    0    0    0 -0.00000000000E+00 -0.00000000000E+00 -0.10000000000E+04  0.10000000000E+04  0.00000000000E+00 0.  1.
    9000005    2    1    2  501    0 -0.15266886425E+02 -0.17375733644E+02 -0.96461671294E+03  0.10084291846E+04  0.29310241141E+03 0.  0.
         13    1    3    3    0    0 -0.42342400778E+02 -0.11357633730E+03 -0.83994476467E+03  0.84864578653E+03  0.00000000000E+00 0.  1.
          1    1    3    3  501    0  0.27075514352E+02  0.96200603652E+02 -0.12467194826E+03  0.15978339809E+03  0.00000000000E+00 0.  1.
         21    1    1    2  502  501  0.15266886425E+02  0.17375733644E+02 -0.35528858386E+01  0.23401216605E+02  0.00000000000E+00 0.  1.
<mgrwt>
<rscale>  1 0.30000000E+03</rscale>
<asrwt>0</asrwt>
<pdfrwt beam="1">  1        1 0.11574716E+00 0.30000000E+03</pdfrwt>
<pdfrwt beam="2">0</pdfrwt>
<totfact> 0.27491264E+01</totfact>
</mgrwt>
</event>
<event>
 6    1  0.1939311E-004  0.3000000E+03  0.7818608E-02  0.1093470E+00
          1   -1    0    0  502    0  0.00000000000E+00  0.00000000000E+00  0.46641245422E+02  0.46641245422E+02  0.00000000000E+00 0.  1.
         13   -1    0    0    0    0 -0.00000000000E+00 -0.00000000000E+00 -0.10000000000E+04  0.10000000000E+04  0.00000000000E+00 0.  1.
    9000005    2    1    2  501    0 -0.40327355217E+01 -0.43882589393E+02 -0.84624226887E+03  0.93081427914E+03  0.38515879845E+03 0.  0.
         13    1    3    3    0    0  0.10611728635E+03  0.13828885571E+03 -0.35813603275E+03  0.39830403467E+03  0.00000000000E+00 0.  1.
          3    1    3    3  501    0 -0.11015002187E+03 -0.18217144511E+03 -0.48810623612E+03  0.53251024447E+03  0.00000000000E+00 0.  1.
         21    1    1    2  502  501  0.40327355217E+01  0.43882589393E+02 -0.10711648571E+03  0.11582696628E+03  0.00000000000E+00 0. -1.
<mgrwt>
<rscale>  1 0.30000000E+03</rscale>
<asrwt>0</asrwt>
<pdfrwt beam="1">  1        1 0.16960489E+00 0.30000000E+03</pdfrwt>
<pdfrwt beam="2">0</pdfrwt>
<totfact> 0.14350880E+01</totfact>
</mgrwt>
</event>
<event>
 6    1  0.1939311E-004  0.3000000E+03  0.7818608E-02  0.1093470E+00
          1   -1    0    0  502    0  0.00000000000E+00  0.00000000000E+00  0.60207536184E+02  0.60207536184E+02  0.00000000000E+00 0.  1.
         13   -1    0    0    0    0 -0.00000000000E+00 -0.00000000000E+00 -0.10000000000E+04  0.10000000000E+04  0.00000000000E+00 0.  1.
    9000005    2    1    2  501    0  0.15485633110E+02 -0.31276253361E+01 -0.96799443497E+03  0.10278820346E+04  0.34536743353E+03 0.  0.
         13    1    3    3    0    0  0.14202549569E+03 -0.68830071048E+02 -0.24839965598E+03  0.29429782398E+03  0.00000000000E+00 0.  1.
          3    1    3    3  501    0 -0.12653986258E+03  0.65702445712E+02 -0.71959477898E+03  0.73358421066E+03  0.00000000000E+00 0.  1.
         21    1    1    2  502  501 -0.15485633110E+02  0.31276253361E+01  0.28201971152E+02  0.32325501541E+02  0.00000000000E+00 0.  1.
<mgrwt>
<rscale>  1 0.30000000E+03</rscale>
<asrwt>0</asrwt>
<pdfrwt beam="1">  1        1 0.21893696E+00 0.30000000E+03</pdfrwt>
<pdfrwt beam="2">0</pdfrwt>
<totfact> 0.83384335E+00</totfact>
</mgrwt>
</event>
<event>
 6    1  0.1939311E-004  0.3000000E+03  0.7818608E-02  0.1093470E+00
          1   -1    0    0  502    0  0.00000000000E+00  0.00000000000E+00  0.32563210583E+02  0.32563210583E+02  0.00000000000E+00 0.  1.
         13   -1    0    0    0    0 -0.00000000000E+00 -0.00000000000E+00 -0.10000000000E+04  0.10000000000E+04  0.00000000000E+00 0.  1.
    9000005    2    1    2  501    0 -0.39384023904E+01  0.18946260004E+02 -0.93148796770E+03  0.99173687638E+03  0.33984956411E+03 0.  0.
         13    1    3    3    0    0 -0.32129080409E+02 -0.11745298834E+02 -0.94674158707E+03  0.94735941572E+03  0.00000000000E+00 0.  1.
          1    1    3    3  501    0  0.28190678018E+02  0.30691558838E+02  0.15253619373E+02  0.44377460665E+02  0.00000000000E+00 0.  1.
         21    1    1    2  502  501  0.39384023904E+01 -0.18946260004E+02 -0.35948821716E+02  0.40826334202E+02  0.00000000000E+00 0.  1.
<mgrwt>
<rscale>  1 0.30000000E+03</rscale>
<asrwt>0</asrwt>
<pdfrwt beam="1">  1        1 0.11841192E+00 0.30000000E+03</pdfrwt>
<pdfrwt beam="2">0</pdfrwt>
<totfact> 0.26541074E+01</totfact>
</mgrwt>
</event>
<event>
 6    1  0.1939311E-004  0.3000000E+03  0.7818608E-02  0.1093470E+00
          1   -1    0    0  502    0  0.00000000000E+00  0.00000000000E+00  0.27069718184E+02  0.27069718184E+02  0.00000000000E+00 0.  1.
         13   -1    0    0    0    0 -0.00000000000E+00 -0.00000000000E+00 -0.10000000000E+04  0.10000000000E+04  0.00000000000E+00 0.  1.
    9000005    2    1    2  501    0 -0.19467833505E+02  0.83797727849E+01 -0.94977875955E+03  0.99568166127E+03  0.29808230638E+03 0.  0.
         13    1    3    3    0    0 -0.50471430316E+02  0.22179625232E+02 -0.10909049377E+02  0.56198829275E+02  0.00000000000E+00 0.  1.
          1    1    3    3  501    0  0.31003596811E+02 -0.13799852447E+02 -0.93886971017E+03  0.93948283200E+03  0.00000000000E+00 0.  1.
         21    1    1    2  502  501  0.19467833505E+02 -0.83797727849E+01 -0.23151522269E+02  0.31388056911E+02  0.00000000000E+00 0.  1.
<mgrwt>
<rscale>  1 0.30000000E+03</rscale>
<asrwt>0</asrwt>
<pdfrwt beam="1">  1        1 0.98435546E-01 0.30000000E+03</pdfrwt>
<pdfrwt beam="2">0</pdfrwt>
<totfact> 0.35023257E+01</totfact>
</mgrwt>
</event>
<event>
 6    1  0.1939311E-004  0.3000000E+03  0.7818608E-02  0.1093470E+00
          3   -1    0    0  502    0  0.00000000000E+00  0.00000000000E+00  0.42439140134E+02  0.42439140134E+02  0.00000000000E+00 0.  1.
         13   -1    0    0    0    0 -0.00000000000E+00 -0.00000000000E+00 -0.10000000000E+04  0.10000000000E+04  0.00000000000E+00 0.  1.
    9000005    2    1    2  501    0  0.48228049692E+01  0.32230742611E+02 -0.95388797410E+03  0.10096432516E+04  0.32926455638E+03 0.  0.
         13    1    3    3    0    0  0.13641151470E+03  0.59775941946E+02 -0.75519510173E+03  0.76974080459E+03  0.00000000000E+00 0.  1.
          1    1    3    3  501    0 -0.13158870973E+03 -0.27545199335E+02 -0.19869287237E+03  0.23990244698E+03  0.00000000000E+00 0.  1.
         21    1    1    2  502  501 -0.48228049692E+01 -0.32230742611E+02 -0.36728857675E+01  0.32795888567E+02  0.00000000000E+00 0.  1.
<mgrwt>
<rscale>  1 0.30000000E+03</rscale>
<asrwt>0</asrwt>
<pdfrwt beam="1">  1        3 0.15432447E+00 0.30000000E+03</pdfrwt>
<pdfrwt beam="2">0</pdfrwt>
<totfact> 0.86001169E-01</totfact>
</mgrwt>
</event>
<event>
 6    1  0.1939311E-004  0.3000000E+03  0.7818608E-02  0.1093470E+00
          1   -1    0    0  502    0  0.00000000000E+00  0.00000000000E+00  0.31220756674E+02  0.31220756674E+02  0.00000000000E+00 0.  1.
         13   -1    0    0    0    0 -0.00000000000E+00 -0.00000000000E+00 -0.10000000000E+04  0.10000000000E+04  0.00000000000E+00 0.  1.
    9000005    2    1    2  501    0  0.13641515945E+02  0.13419377528E+02 -0.94052287273E+03  0.99709462109E+03  0.33052721315E+03 0.  0.
         13    1    3    3    0    0  0.17041551038E+03 -0.47475933351E+01 -0.42371360056E+03  0.45672442580E+03  0.00000000000E+00 0.  1.
          3    1    3    3  501    0 -0.15677399444E+03  0.18166970863E+02 -0.51680927217E+03  0.54037019529E+03  0.00000000000E+00 0.  1.
         21    1    1    2  502  501 -0.13641515945E+02 -0.13419377528E+02 -0.28256370599E+02  0.34126135585E+02  0.00000000000E+00 0.  1.
<mgrwt>
<rscale>  1 0.30000000E+03</rscale>
<asrwt>0</asrwt>
<pdfrwt beam="1">  1        1 0.11353026E+00 0.30000000E+03</pdfrwt>
<pdfrwt beam="2">0</pdfrwt>
<totfact> 0.28318205E+01</totfact>
</mgrwt>
</event>
<event>
 6    1  0.1939311E-004  0.3000000E+03  0.7818608E-02  0.1093470E+00
          1   -1    0    0  502    0  0.00000000000E+00  0.00000000000E+00  0.31040279924E+02  0.31040279924E+02  0.00000000000E+00 0.  1.
         13   -1    0    0    0    0 -0.00000000000E+00 -0.00000000000E+00 -0.10000000000E+04  0.10000000000E+04  0.00000000000E+00 0.  1.
    9000005    2    1    2  501    0 -0.75241009993E+01 -0.10803992490E+02 -0.96324151176E+03  0.10166863169E+04  0.32502848882E+03 0.  0.
         13    1    3    3    0    0 -0.42024668371E+01  0.49375140156E+00  0.26519652490E+02  0.26855101679E+02  0.00000000000E+00 0.  1.
          3    1    3    3  501    0 -0.33216341622E+01 -0.11297743892E+02 -0.98976116425E+03  0.98983121517E+03  0.00000000000E+00 0.  1.
         21    1    1    2  502  501  0.75241009993E+01  0.10803992490E+02 -0.57182083152E+01  0.14353963073E+02  0.00000000000E+00 0.  1.
<mgrwt>
<rscale>  1 0.30000000E+03</rscale>
<asrwt>0</asrwt>
<pdfrwt beam="1">  1        1 0.11287398E+00 0.30000000E+03</pdfrwt>
<pdfrwt beam="2">0</pdfrwt>
<totfact> 0.28569758E+01</totfact>
</mgrwt>
</event>
<event>
 6    1  0.1939311E-004  0.3000000E+03  0.7818608E-02  0.1093470E+00
          1   -1    0    0  502    0  0.00000000000E+00  0.00000000000E+00  0.34494297415E+02  0.34494297415E+02  0.00000000000E+00 0.  1.
         13   -1    0    0    0    0 -0.00000000000E+00 -0.00000000000E+00 -0.10000000000E+04  0.10000000000E+04  0.00000000000E+00 0.  1.
    9000005    2    1    2  501    0 -0.11583382337E+02  0.63304615390E+01 -0.96300699281E+03  0.10210595276E+04  0.33912511143E+03 0.  0.
         13    1    3    3    0    0 -0.13713516595E+03  0.96566161858E+02 -0.65880300940E+03  0.67981797751E+03  0.00000000000E+00 0.  1.
          3    1    3    3  501    0  0.12555178361E+03 -0.90235700319E+02 -0.30420398341E+03  0.34124155008E+03  0.00000000000E+00 0.  1.
         21    1    1    2  502  501  0.11583382337E+02 -0.63304615390E+01 -0.24987097791E+01  0.13434769824E+02  0.00000000000E+00 0.  1.
<mgrwt>
<rscale>  1 0.30000000E+03</rscale>
<asrwt>0</asrwt>
<pdfrwt beam="1">  1        1 0.12543407E+00 0.30000000E+03</pdfrwt>
<pdfrwt beam="2">0</pdfrwt>
<totfact> 0.24239371E+01</totfact>
</mgrwt>
</event>
<event>
 6    1  0.1939311E-004  0.3000000E+03  0.7818608E-02  0.1093470E+00
          1   -1    0    0  502    0  0.00000000000E+00  0.00000000000E+00  0.44271972796E+02  0.44271972796E+02  0.00000000000E+00 0.  1.
         13   -1    0    0    0    0 -0.00000000000E+00 -0.00000000000E+00 -0.10000000000E+04  0.10000000000E+04  0.00000000000E+00 0.  1.
    9000005    2    1    2  501    0  0.66596891231E+01  0.15075300709E+02 -0.95870603140E+03  0.10275242965E+04  0.36934713914E+03 0.  0.
         13    1    3    3    0    0  0.27565449381E+02 -0.17307366943E+03 -0.37597418472E+03  0.41481433994E+03  0.00000000000E+00 0.  1.
          1    1    3    3  501    0 -0.20905760257E+02  0.18814897014E+03 -0.58273184669E+03  0.61270995660E+03  0.00000000000E+00 0.  1.
         21    1    1    2  502  501 -0.66596891231E+01 -0.15075300709E+02  0.29780042002E+01  0.16747676248E+02  0.00000000000E+00 0.  1.
<mgrwt>
<rscale>  1 0.30000000E+03</rscale>
<asrwt>0</asrwt>
<pdfrwt beam="1">  1        1 0.16098933E+00 0.30000000E+03</pdfrwt>
<pdfrwt beam="2">0</pdfrwt>
<totfact> 0.15823130E+01</totfact>
</mgrwt>
</event>
<event>
 6    1  0.1939311E-004  0.3000000E+03  0.7818608E-02  0.1093470E+00
          1   -1    0    0  502    0  0.00000000000E+00  0.00000000000E+00  0.68297811178E+02  0.68297811178E+02  0.00000000000E+00 0.  1.
         13   -1    0    0    0    0 -0.00000000000E+00 -0.00000000000E+00 -0.10000000000E+04  0.10000000000E+04  0.00000000000E+00 0.  1.
    9000005    2    1    2  501    0  0.51724806285E+01  0.15424485997E+03 -0.72832942964E+03  0.81299659582E+03  0.32662130268E+03 0.  0.
         13    1    3    3    0    0  0.12421072229E+02  0.14450401516E+03 -0.76279171457E+03  0.77645791467E+03  0.00000000000E+00 0.  1.
          1    1    3    3  501    0 -0.72485916004E+01  0.97408448062E+01  0.34462284933E+02  0.36538681155E+02  0.00000000000E+00 0.  1.
         21    1    1    2  502  501 -0.51724806285E+01 -0.15424485997E+03 -0.20337275919E+03  0.25530121536E+03  0.00000000000E+00 0.  1.
<mgrwt>
<rscale>  1 0.30000000E+03</rscale>
<asrwt>0</asrwt>
<pdfrwt beam="1">  1        1 0.24835620E+00 0.30000000E+03</pdfrwt>
<pdfrwt beam="2">0</pdfrwt>
<totfact> 0.60721854E+00</totfact>
</mgrwt>
</event>
<event>
 6    1  0.1939311E-004  0.3000000E+03  0.7818608E-02  0.1093470E+00
          1   -1    0    0  502    0  0.00000000000E+00  0.00000000000E+00  0.21061780001E+02  0.21061780001E+02  0.00000000000E+00 0.  1.
         13   -1    0    0    0    0 -0.00000000000E+00 -0.00000000000E+00 -0.10000000000E+04  0.10000000000E+04  0.00000000000E+00 0.  1.
    9000005    2    1    2  501    0 -0.11888830352E+02  0.10857610468E+02 -0.94251637820E+03  0.98123989466E+03  0.27246169584E+03 0.  0.
         13    1    3    3    0    0 -0.10640108029E+03 -0.36319875539E+02 -0.77560233155E+03  0.78370868309E+03  0.00000000000E+00 0.  1.
          1    1    3    3  501    0  0.94512249937E+02  0.47177486007E+02 -0.16691404665E+03  0.19753121157E+03  0.00000000000E+00 0.  1.
         21    1    1    2  502  501  0.11888830352E+02 -0.10857610468E+02 -0.36421841798E+02  0.39821885342E+02  0.00000000000E+00 0. -1.
<mgrwt>
<rscale>  1 0.30000000E+03</rscale>
<asrwt>0</asrwt>
<pdfrwt beam="1">  1        1 0.76588452E-01 0.30000000E+03</pdfrwt>
<pdfrwt beam="2">0</pdfrwt>
<totfact> 0.49871790E+01</totfact>
</mgrwt>
</event>
<event>
 6    1  0.1939311E-004  0.3000000E+03  0.7818608E-02  0.1093470E+00
          1   -1    0    0  502    0  0.00000000000E+00  0.00000000000E+00  0.42150960000E+02  0.42150960000E+02  0.00000000000E+00 0.  1.
         13   -1    0    0    0    0 -0.00000000000E+00 -0.00000000000E+00 -0.10000000000E+04  0.10000000000E+04  0.00000000000E+00 0.  1.
    9000005    2    1    2  501    0  0.67912719578E+02 -0.45019620864E+01 -0.87825071939E+03  0.93742131861E+03  0.32062750556E+03 0.  0.
         13    1    3    3    0    0 -0.50389004748E+02  0.13095951781E+03 -0.28774680047E+03  0.32013695238E+03  0.00000000000E+00 0.  1.
          1    1    3    3  501    0  0.11830172433E+03 -0.13546147989E+03 -0.59050391893E+03  0.61728436622E+03  0.00000000000E+00 0.  1.
         21    1    1    2  502  501 -0.67912719578E+02  0.45019620864E+01 -0.79598320605E+02  0.10472964139E+03  0.00000000000E+00 0. -1.
<mgrwt>
<rscale>  1 0.30000000E+03</rscale>
<asrwt>0</asrwt>
<pdfrwt beam="1">  1        1 0.15327654E+00 0.30000000E+03</pdfrwt>
<pdfrwt beam="2">0</pdfrwt>
<totfact> 0.17291729E+01</totfact>
</mgrwt>
</event>
<event>
 6    1  0.1939311E-004  0.3000000E+03  0.7818608E-02  0.1093470E+00
          1   -1    0    0  502    0  0.00000000000E+00  0.00000000000E+00  0.29038606501E+02  0.29038606501E+02  0.00000000000E+00 0.  1.
         13   -1    0    0    0    0 -0.00000000000E+00 -0.00000000000E+00 -0.10000000000E+04  0.10000000000E+04  0.00000000000E+00 0.  1.
    9000005    2    1    2  501    0 -0.74452976622E+01  0.52736162806E+01 -0.95285151988E+03  0.10087602681E+04  0.33104080725E+03 0.  0.
         13    1    3    3    0    0  0.31127062731E+02 -0.90632408613E+02 -0.87272433203E+03  0.87796975303E+03  0.00000000000E+00 0.  1.
          3    1    3    3  501    0 -0.38572360394E+02  0.95906024894E+02 -0.80127187848E+02  0.13079051506E+03  0.00000000000E+00 0.  1.
         21    1    1    2  502  501  0.74452976622E+01 -0.52736162806E+01 -0.18109873623E+02  0.20278338408E+02  0.00000000000E+00 0. -1.
<mgrwt>
<rscale>  1 0.30000000E+03</rscale>
<asrwt>0</asrwt>
<pdfrwt beam="1">  1        1 0.10559516E+00 0.30000000E+03</pdfrwt>
<pdfrwt beam="2">0</pdfrwt>
<totfact> 0.31586201E+01</totfact>
</mgrwt>
</event>
<event>
 6    1  0.1939311E-004  0.3000000E+03  0.7818608E-02  0.1093470E+00
          1   -1    0    0  502    0  0.00000000000E+00  0.00000000000E+00  0.27690876824E+02  0.27690876824E+02  0.00000000000E+00 0.  1.
         13   -1    0    0    0    0 -0.00000000000E+00 -0.00000000000E+00 -0.10000000000E+04  0.10000000000E+04  0.00000000000E+00 0.  1.
    9000005    2    1    2  501    0  0.40521444977E+01 -0.10925516839E+02 -0.95747476360E+03  0.10088270220E+04  0.31755039077E+03 0.  0.
         13    1    3    3    0    0  0.45597139070E+02  0.14712444288E+03 -0.48711383863E+03  0.51088608571E+03  0.00000000000E+00 0.  1.
          1    1    3    3  501    0 -0.41544994573E+02 -0.15804995971E+03 -0.47036092497E+03  0.49794093633E+03  0.00000000000E+00 0.  1.
         21    1    1    2  502  501 -0.40521444977E+01  0.10925516839E+02 -0.14834359579E+02  0.18863854785E+02  0.00000000000E+00 0. -1.
<mgrwt>
<rscale>  1 0.30000000E+03</rscale>
<asrwt>0</asrwt>
<pdfrwt beam="1">  1        1 0.10069431E+00 0.30000000E+03</pdfrwt>
<pdfrwt beam="2">0</pdfrwt>
<totfact> 0.33882071E+01</totfact>
</mgrwt>
</event>
<event>
 6    1  0.1939311E-004  0.3000000E+03  0.7818608E-02  0.1093470E+00
          1   -1    0    0  502    0  0.00000000000E+00  0.00000000000E+00  0.69043033782E+02  0.69043033782E+02  0.00000000000E+00 0.  1.
         13   -1    0    0    0    0 -0.00000000000E+00 -0.00000000000E+00 -0.10000000000E+04  0.10000000000E+04  0.00000000000E+00 0.  1.
    9000005    2    1    2  501    0 -0.33155053513E+01  0.25652484350E+02 -0.96901284160E+03  0.10230289905E+04  0.32700670585E+03 0.  0.
         13    1    3    3    0    0 -0.13125996423E+03  0.38330541863E+01 -0.17667812712E+03  0.22013412074E+03  0.00000000000E+00 0.  1.
          3    1    3    3  501    0  0.12794445888E+03  0.21819430164E+02 -0.79233471448E+03  0.80289486975E+03  0.00000000000E+00 0.  1.
         21    1    1    2  502  501  0.33155053513E+01 -0.25652484350E+02  0.38055875381E+02  0.46014043292E+02  0.00000000000E+00 0. -1.
<mgrwt>
<rscale>  1 0.30000000E+03</rscale>
<asrwt>0</asrwt>
<pdfrwt beam="1">  1        1 0.25106611E+00 0.30000000E+03</pdfrwt>
<pdfrwt beam="2">0</pdfrwt>
<totfact> 0.58982764E+00</totfact>
</mgrwt>
</event>
<event>
 6    1  0.1939311E-004  0.3000000E+03  0.7818608E-02  0.1093470E+00
          1   -1    0    0  502    0  0.00000000000E+00  0.00000000000E+00  0.10491746201E+03  0.10491746201E+03  0.00000000000E+00 0.  1.
         13   -1    0    0    0    0 -0.00000000000E+00 -0.00000000000E+00 -0.10000000000E+04  0.10000000000E+04  0.00000000000E+00 0.  1.
    9000005    2    1    2  501    0 -0.12806925295E+03  0.78208045548E+02 -0.88648711758E+03  0.95461073165E+03  0.32078654495E+03 0.  0.
         13    1    3    3    0    0 -0.12022931191E+02  0.16221218513E+03 -0.22409746716E+03  0.27690615498E+03  0.00000000000E+00 0.  1.
          3    1    3    3  501    0 -0.11604632176E+03 -0.84004139584E+02 -0.66238965042E+03  0.67770457667E+03  0.00000000000E+00 0.  1.
         21    1    1    2  502  501  0.12806925295E+03 -0.78208045548E+02 -0.85954204097E+01  0.15030673036E+03  0.00000000000E+00 0. -1.
<mgrwt>
<rscale>  1 0.30000000E+03</rscale>
<asrwt>0</asrwt>
<pdfrwt beam="1">  1        1 0.38151885E+00 0.30000000E+03</pdfrwt>
<pdfrwt beam="2">0</pdfrwt>
<totfact> 0.13364638E+00</totfact>
</mgrwt>
</event>
<event>
 6    1  0.1939311E-004  0.3000000E+03  0.7818608E-02  0.1093470E+00
          1   -1    0    0  502    0  0.00000000000E+00  0.00000000000E+00  0.45303129262E+02  0.45303129262E+02  0.00000000000E+00 0.  1.
         13   -1    0    0    0    0 -0.00000000000E+00 -0.00000000000E+00 -0.10000000000E+04  0.10000000000E+04  0.00000000000E+00 0.  1.
    9000005    2    1    2  501    0 -0.17821279148E+02  0.16018180416E+01 -0.96900735627E+03  0.10223912588E+04  0.32555869789E+03 0.  0.
         13    1    3    3    0    0 -0.50005707166E+02 -0.12029539568E+03 -0.80527198260E+03  0.81574169866E+03  0.00000000000E+00 0.  1.
          1    1    3    3  501    0  0.32184428017E+02  0.12189721372E+03 -0.16373537367E+03  0.20664956015E+03  0.00000000000E+00 0.  1.
         21    1    1    2  502  501  0.17821279148E+02 -0.16018180416E+01  0.14310485532E+02  0.22911870454E+02  0.00000000000E+00 0.  1.
<mgrwt>
<rscale>  1 0.30000000E+03</rscale>
<asrwt>0</asrwt>
<pdfrwt beam="1">  1        1 0.16473900E+00 0.30000000E+03</pdfrwt>
<pdfrwt beam="2">0</pdfrwt>
<totfact> 0.15162125E+01</totfact>
</mgrwt>
</event>
<event>
 6    1  0.1939311E-004  0.3000000E+03  0.7818608E-02  0.1093470E+00
          1   -1    0    0  502    0  0.00000000000E+00  0.00000000000E+00  0.41798487761E+02  0.41798487761E+02  0.00000000000E+00 0.  1.
         13   -1    0    0    0    0 -0.00000000000E+00 -0.00000000000E+00 -0.10000000000E+04  0.10000000000E+04  0.00000000000E+00 0.  1.
    9000005    2    1    2  501    0  0.35041169376E+02 -0.65289976149E+02 -0.82859099252E+03  0.89250163127E+03  0.32327304929E+03 0.  0.
         13    1    3    3    0    0 -0.67544367624E+02  0.96256887755E+02 -0.17025683768E+03  0.20691790840E+03  0.00000000000E+00 0.  1.
          3    1    3    3  501    0  0.10258553700E+03 -0.16154686390E+03 -0.65833415484E+03  0.68558372287E+03  0.00000000000E+00 0.  1.
         21    1    1    2  502  501 -0.35041169376E+02  0.65289976149E+02 -0.12961051972E+03  0.14929685649E+03  0.00000000000E+00 0.  1.
<mgrwt>
<rscale>  1 0.30000000E+03</rscale>
<asrwt>0</asrwt>
<pdfrwt beam="1">  1        1 0.15199482E+00 0.30000000E+03</pdfrwt>
<pdfrwt beam="2">0</pdfrwt>
<totfact> 0.17551340E+01</totfact>
</mgrwt>
</event>
<event>
 6    1  0.1939311E-004  0.3000000E+03  0.7818608E-02  0.1093470E+00
          1   -1    0    0  502    0  0.00000000000E+00  0.00000000000E+00  0.31849747545E+02  0.31849747545E+02  0.00000000000E+00 0.  1.
         13   -1    0    0    0    0 -0.00000000000E+00 -0.00000000000E+00 -0.10000000000E+04  0.10000000000E+04  0.00000000000E+00 0.  1.
    9000005    2    1    2  501    0  0.65613462155E+01  0.74839327241E+01 -0.96297115143E+03  0.10206299614E+04  0.33804292502E+03 0.  0.
         13    1    3    3    0    0 -0.30329763972E+02  0.16239295912E+03 -0.63362301723E+03  0.65480492951E+03  0.00000000000E+00 0.  1.
          3    1    3    3  501    0  0.36891110188E+02 -0.15490902639E+03 -0.32934813420E+03  0.36582503191E+03  0.00000000000E+00 0.  1.
         21    1    1    2  502  501 -0.65613462155E+01 -0.74839327241E+01 -0.51791010243E+01  0.11219786121E+02  0.00000000000E+00 0.  1.
<mgrwt>
<rscale>  1 0.30000000E+03</rscale>
<asrwt>0</asrwt>
<pdfrwt beam="1">  1        1 0.11581751E+00 0.30000000E+03</pdfrwt>
<pdfrwt beam="2">0</pdfrwt>
<totfact> 0.27465579E+01</totfact>
</mgrwt>
</event>
<event>
 6    1  0.1939311E-004  0.3000000E+03  0.7818608E-02  0.1093470E+00
          1   -1    0    0  502    0  0.00000000000E+00  0.00000000000E+00  0.29019421940E+02  0.29019421940E+02  0.00000000000E+00 0.  1.
         13   -1    0    0    0    0 -0.00000000000E+00 -0.00000000000E+00 -0.10000000000E+04  0.10000000000E+04  0.00000000000E+00 0.  1.
    9000005    2    1    2  501    0  0.10165767152E+02 -0.13006286455E+02 -0.92907709845E+03  0.98398157216E+03  0.32367108796E+03 0.  0.
         13    1    3    3    0    0 -0.33877131501E+02 -0.16093471438E+03 -0.56724143267E+03  0.59060179924E+03  0.00000000000E+00 0.  1.
          3    1    3    3  501    0  0.44042898654E+02  0.14792842793E+03 -0.36183566578E+03  0.39337977292E+03  0.00000000000E+00 0.  1.
         21    1    1    2  502  501 -0.10165767152E+02  0.13006286455E+02 -0.41903479610E+02  0.45037849777E+02  0.00000000000E+00 0. -1.
<mgrwt>
<rscale>  1 0.30000000E+03</rscale>
<asrwt>0</asrwt>
<pdfrwt beam="1">  1        1 0.10552539E+00 0.30000000E+03</pdfrwt>
<pdfrwt beam="2">0</pdfrwt>
<totfact> 0.31617275E+01</totfact>
</mgrwt>
</event>
<event>
 6    1  0.1939311E-004  0.3000000E+03  0.7818608E-02  0.1093470E+00
          1   -1    0    0  502    0  0.00000000000E+00  0.00000000000E+00  0.37884983851E+02  0.37884983851E+02  0.00000000000E+00 0.  1.
         13   -1    0    0    0    0 -0.00000000000E+00 -0.00000000000E+00 -0.10000000000E+04  0.10000000000E+04  0.00000000000E+00 0.  1.
    9000005    2    1    2  501    0  0.56244835961E+01  0.40024215026E+02 -0.90838027012E+03  0.97064663516E+03  0.33965659510E+03 0.  0.
         13    1    3    3    0    0  0.57861221921E+02 -0.75020970872E+02 -0.58331981437E+02  0.11125954849E+03  0.00000000000E+00 0.  1.
          1    1    3    3  501    0 -0.52236738325E+02  0.11504518590E+03 -0.85004828869E+03  0.85938708667E+03  0.00000000000E+00 0.  1.
         21    1    1    2  502  501 -0.56244835961E+01 -0.40024215026E+02 -0.53734746026E+02  0.67238348691E+02  0.00000000000E+00 0. -1.
<mgrwt>
<rscale>  1 0.30000000E+03</rscale>
<asrwt>0</asrwt>
<pdfrwt beam="1">  1        1 0.13776387E+00 0.30000000E+03</pdfrwt>
<pdfrwt beam="2">0</pdfrwt>
<totfact> 0.20788027E+01</totfact>
</mgrwt>
</event>
<event>
 6    1  0.1939311E-004  0.3000000E+03  0.7818608E-02  0.1093470E+00
          1   -1    0    0  502    0  0.00000000000E+00  0.00000000000E+00  0.31858023318E+02  0.31858023318E+02  0.00000000000E+00 0.  1.
         13   -1    0    0    0    0 -0.00000000000E+00 -0.00000000000E+00 -0.10000000000E+04  0.10000000000E+04  0.00000000000E+00 0.  1.
    9000005    2    1    2  501    0 -0.32439945689E+02  0.59754625520E+01 -0.88730232692E+03  0.94454762759E+03  0.32214398209E+03 0.  0.
         13    1    3    3    0    0  0.11537981110E+03  0.90912667584E+02 -0.31842949671E+03  0.35067785547E+03  0.00000000000E+00 0.  1.
          1    1    3    3  501    0 -0.14781975678E+03 -0.84937205032E+02 -0.56887283020E+03  0.59386977212E+03  0.00000000000E+00 0.  1.
         21    1    1    2  502  501  0.32439945689E+02 -0.59754625520E+01 -0.80839649764E+02  0.87310395733E+02  0.00000000000E+00 0.  1.
<mgrwt>
<rscale>  1 0.30000000E+03</rscale>
<asrwt>0</asrwt>
<pdfrwt beam="1">  1        1 0.11584760E+00 0.30000000E+03</pdfrwt>
<pdfrwt beam="2">0</pdfrwt>
<totfact> 0.27454602E+01</totfact>
</mgrwt>
</event>
<event>
 6    1  0.1939311E-004  0.3000000E+03  0.7818608E-02  0.1093470E+00
          1   -1    0    0  502    0  0.00000000000E+00  0.00000000000E+00  0.47919459131E+02  0.47919459131E+02  0.00000000000E+00 0.  1.
         13   -1    0    0    0    0 -0.00000000000E+00 -0.00000000000E+00 -0.10000000000E+04  0.10000000000E+04  0.00000000000E+00 0.  1.
    9000005    2    1    2  501    0 -0.16980237195E+02 -0.11025694739E+02 -0.96599037988E+03  0.10233557049E+04  0.33720852654E+03 0.  0.
         13    1    3    3    0    0 -0.15492828349E+03 -0.51102681283E+02 -0.29445376620E+03  0.33662631729E+03  0.00000000000E+00 0.  1.
          1    1    3    3  501    0  0.13794804630E+03  0.40076986544E+02 -0.67153661368E+03  0.68672938763E+03  0.00000000000E+00 0.  1.
         21    1    1    2  502  501  0.16980237195E+02  0.11025694739E+02  0.13909839011E+02  0.24563754212E+02  0.00000000000E+00 0. -1.
<mgrwt>
<rscale>  1 0.30000000E+03</rscale>
<asrwt>0</asrwt>
<pdfrwt beam="1">  1        1 0.17425295E+00 0.30000000E+03</pdfrwt>
<pdfrwt beam="2">0</pdfrwt>
<totfact> 0.13621283E+01</totfact>
</mgrwt>
</event>
<event>
 6    1  0.1939311E-004  0.3000000E+03  0.7818608E-02  0.1093470E+00
          1   -1    0    0  502    0  0.00000000000E+00  0.00000000000E+00  0.33110125427E+02  0.33110125427E+02  0.00000000000E+00 0.  1.
         13   -1    0    0    0    0 -0.00000000000E+00 -0.00000000000E+00 -0.10000000000E+04  0.10000000000E+04  0.00000000000E+00 0.  1.
    9000005    2    1    2  501    0  0.14824551570E+02  0.16020353945E+01 -0.95736675696E+03  0.10154176520E+04  0.33808218945E+03 0.  0.
         13    1    3    3    0    0 -0.53998292997E+02  0.61107547087E+02 -0.90848370063E+03  0.91213627396E+03  0.00000000000E+00 0.  1.
          1    1    3    3  501    0  0.68822844566E+02 -0.59505511692E+02 -0.48883056336E+02  0.10328137805E+03  0.00000000000E+00 0.  1.
         21    1    1    2  502  501 -0.14824551570E+02 -0.16020353945E+01 -0.95231176081E+01  0.17692473417E+02  0.00000000000E+00 0.  1.
<mgrwt>
<rscale>  1 0.30000000E+03</rscale>
<asrwt>0</asrwt>
<pdfrwt beam="1">  1        1 0.12040071E+00 0.30000000E+03</pdfrwt>
<pdfrwt beam="2">0</pdfrwt>
<totfact> 0.25860874E+01</totfact>
</mgrwt>
</event>
<event>
 6    1  0.1939311E-004  0.3000000E+03  0.7818608E-02  0.1093470E+00
          1   -1    0    0  502    0  0.00000000000E+00  0.00000000000E+00  0.30813579867E+02  0.30813579867E+02  0.00000000000E+00 0.  1.
         13   -1    0    0    0    0 -0.00000000000E+00 -0.00000000000E+00 -0.10000000000E+04  0.10000000000E+04  0.00000000000E+00 0.  1.
    9000005    2    1    2  501    0 -0.10040858101E+02  0.69373830537E+01 -0.94953419658E+03  0.10076801407E+04  0.33712776430E+03 0.  0.
         13    1    3    3    0    0 -0.61477214774E+02  0.37208780218E+02 -0.94510505245E+03  0.94783305567E+03  0.00000000000E+00 0.  1.
          1    1    3    3  501    0  0.51436356672E+02 -0.30271397164E+02 -0.44291441339E+01  0.59847085073E+02  0.00000000000E+00 0.  1.
         21    1    1    2  502  501  0.10040858101E+02 -0.69373830537E+01 -0.19652223549E+02  0.23133439119E+02  0.00000000000E+00 0. -1.
<mgrwt>
<rscale>  1 0.30000000E+03</rscale>
<asrwt>0</asrwt>
<pdfrwt beam="1">  1        1 0.11204962E+00 0.30000000E+03</pdfrwt>
<pdfrwt beam="2">0</pdfrwt>
<totfact> 0.28890289E+01</totfact>
</mgrwt>
</event>
<event>
 6    1  0.1939311E-004  0.3000000E+03  0.7818608E-02  0.1093470E+00
          1   -1    0    0  502    0  0.00000000000E+00  0.00000000000E+00  0.35113801388E+02  0.35113801388E+02  0.00000000000E+00 0.  1.
         13   -1    0    0    0    0 -0.00000000000E+00 -0.00000000000E+00 -0.10000000000E+04  0.10000000000E+04  0.00000000000E+00 0.  1.
    9000005    2    1    2  501    0  0.12189364611E+02 -0.36233177118E+01 -0.96709680864E+03  0.10222066004E+04  0.33086007248E+03 0.  0.
         13    1    3    3    0    0  0.12424332763E+03 -0.10561031820E+03 -0.65891398320E+03  0.67879126469E+03  0.00000000000E+00 0.  1.
          3    1    3    3  501    0 -0.11205396302E+03  0.10198700049E+03 -0.30818282544E+03  0.34341533570E+03  0.00000000000E+00 0.  1.
         21    1    1    2  502  501 -0.12189364611E+02  0.36233177118E+01  0.22106100265E+01  0.12907200996E+02  0.00000000000E+00 0.  1.
<mgrwt>
<rscale>  1 0.30000000E+03</rscale>
<asrwt>0</asrwt>
<pdfrwt beam="1">  1        1 0.12768682E+00 0.30000000E+03</pdfrwt>
<pdfrwt beam="2">0</pdfrwt>
<totfact> 0.23555967E+01</totfact>
</mgrwt>
</event>
<event>
 6    1  0.1939311E-004  0.3000000E+03  0.7818608E-02  0.1093470E+00
          1   -1    0    0  502    0  0.00000000000E+00  0.00000000000E+00  0.29603495314E+02  0.29603495314E+02  0.00000000000E+00 0.  1.
         13   -1    0    0    0    0 -0.00000000000E+00 -0.00000000000E+00 -0.10000000000E+04  0.10000000000E+04  0.00000000000E+00 0.  1.
    9000005    2    1    2  501    0 -0.67235328059E+01  0.10195123427E+02 -0.95590602376E+03  0.10106530211E+04  0.32789336130E+03 0.  0.
         13    1    3    3    0    0 -0.13742812503E+03  0.96657046570E+02 -0.42182140018E+03  0.45405106304E+03  0.00000000000E+00 0.  1.
          1    1    3    3  501    0  0.13070459222E+03 -0.86461923142E+02 -0.53408462358E+03  0.55660195807E+03  0.00000000000E+00 0.  1.
         21    1    1    2  502  501  0.67235328059E+01 -0.10195123427E+02 -0.14490480926E+02  0.18950474204E+02  0.00000000000E+00 0. -1.
<mgrwt>
<rscale>  1 0.30000000E+03</rscale>
<asrwt>0</asrwt>
<pdfrwt beam="1">  1        1 0.10764930E+00 0.30000000E+03</pdfrwt>
<pdfrwt beam="2">0</pdfrwt>
<totfact> 0.30690586E+01</totfact>
</mgrwt>
</event>
<event>
 6    1  0.1939311E-004  0.3000000E+03  0.7818608E-02  0.1093470E+00
          1   -1    0    0  502    0  0.00000000000E+00  0.00000000000E+00  0.41932356934E+02  0.41932356934E+02  0.00000000000E+00 0.  1.
         13   -1    0    0    0    0 -0.00000000000E+00 -0.00000000000E+00 -0.10000000000E+04  0.10000000000E+04  0.00000000000E+00 0.  1.
    9000005    2    1    2  501    0 -0.21699879340E+02 -0.58566857350E+01 -0.96554880729E+03  0.10182436814E+04  0.32253761003E+03 0.  0.
         13    1    3    3    0    0 -0.51896428571E+02 -0.11424496179E+03 -0.84135681888E+03  0.85066235797E+03  0.00000000000E+00 0.  1.
          1    1    3    3  501    0  0.30196549231E+02  0.10838827605E+03 -0.12419198841E+03  0.16758132341E+03  0.00000000000E+00 0.  1.
         21    1    1    2  502  501  0.21699879340E+02  0.58566857350E+01  0.74811642253E+01  0.23688675550E+02  0.00000000000E+00 0.  1.
<mgrwt>
<rscale>  1 0.30000000E+03</rscale>
<asrwt>0</asrwt>
<pdfrwt beam="1">  1        1 0.15248162E+00 0.30000000E+03</pdfrwt>
<pdfrwt beam="2">0</pdfrwt>
<totfact> 0.17452183E+01</totfact>
</mgrwt>
</event>
<event>
 6    1  0.1939311E-004  0.3000000E+03  0.7818608E-02  0.1093470E+00
          1   -1    0    0  502    0  0.00000000000E+00  0.00000000000E+00  0.40118512429E+02  0.40118512429E+02  0.00000000000E+00 0.  1.
         13   -1    0    0    0    0 -0.00000000000E+00 -0.00000000000E+00 -0.10000000000E+04  0.10000000000E+04  0.00000000000E+00 0.  1.
    9000005    2    1    2  501    0 -0.53595996789E+02 -0.31150904963E+02 -0.89125679091E+03  0.94764008931E+03  0.31597493850E+03 0.  0.
         13    1    3    3    0    0 -0.15049945009E+03 -0.45791284546E+02 -0.22693038914E+03  0.27612375438E+03  0.00000000000E+00 0.  1.
          1    1    3    3  501    0  0.96903453306E+02  0.14640379583E+02 -0.66432640178E+03  0.67151633493E+03  0.00000000000E+00 0.  1.
         21    1    1    2  502  501  0.53595996789E+02  0.31150904963E+02 -0.68624696658E+02  0.92478423123E+02  0.00000000000E+00 0.  1.
<mgrwt>
<rscale>  1 0.30000000E+03</rscale>
<asrwt>0</asrwt>
<pdfrwt beam="1">  1        1 0.14588581E+00 0.30000000E+03</pdfrwt>
<pdfrwt beam="2">0</pdfrwt>
<totfact> 0.18856934E+01</totfact>
</mgrwt>
</event>
<event>
 6    1  0.1939311E-004  0.3000000E+03  0.7818608E-02  0.1093470E+00
          1   -1    0    0  502    0  0.00000000000E+00  0.00000000000E+00  0.35927489342E+02  0.35927489342E+02  0.00000000000E+00 0.  1.
         13   -1    0    0    0    0 -0.00000000000E+00 -0.00000000000E+00 -0.10000000000E+04  0.10000000000E+04  0.00000000000E+00 0.  1.
    9000005    2    1    2  501    0 -0.74609871305E+01 -0.99216004842E+01 -0.96129497106E+03  0.10232066713E+04  0.35029953804E+03 0.  0.
         13    1    3    3    0    0  0.69212481365E+02  0.30473950447E+02 -0.92687943594E+03  0.92995941739E+03  0.00000000000E+00 0.  1.
          3    1    3    3  501    0 -0.76673468495E+02 -0.40395550931E+02 -0.34415535119E+02  0.93247253920E+02  0.00000000000E+00 0.  1.
         21    1    1    2  502  501  0.74609871305E+01  0.99216004842E+01 -0.27775396014E+01  0.12720818031E+02  0.00000000000E+00 0.  1.
<mgrwt>
<rscale>  1 0.30000000E+03</rscale>
<asrwt>0</asrwt>
<pdfrwt beam="1">  1        1 0.13064569E+00 0.30000000E+03</pdfrwt>
<pdfrwt beam="2">0</pdfrwt>
<totfact> 0.22695535E+01</totfact>
</mgrwt>
</event>
<event>
 6    1  0.1939311E-004  0.3000000E+03  0.7818608E-02  0.1093470E+00
          1   -1    0    0  502    0  0.00000000000E+00  0.00000000000E+00  0.37784228434E+02  0.37784228434E+02  0.00000000000E+00 0.  1.
         13   -1    0    0    0    0 -0.00000000000E+00 -0.00000000000E+00 -0.10000000000E+04  0.10000000000E+04  0.00000000000E+00 0.  1.
    9000005    2    1    2  501    0 -0.59576034512E+02  0.49510487486E+01 -0.81268372088E+03  0.87674494455E+03  0.32350123777E+03 0.  0.
         13    1    3    3    0    0 -0.11560042208E+02 -0.15060682644E+03 -0.52382159020E+03  0.54516521267E+03  0.00000000000E+00 0.  1.
          3    1    3    3  501    0 -0.48015992304E+02  0.15555787519E+03 -0.28886213068E+03  0.33157973188E+03  0.00000000000E+00 0.  1.
         21    1    1    2  502  501  0.59576034512E+02 -0.49510487486E+01 -0.14953205068E+03  0.16103928388E+03  0.00000000000E+00 0. -1.
<mgrwt>
<rscale>  1 0.30000000E+03</rscale>
<asrwt>0</asrwt>
<pdfrwt beam="1">  1        1 0.13739748E+00 0.30000000E+03</pdfrwt>
<pdfrwt beam="2">0</pdfrwt>
<totfact> 0.20880946E+01</totfact>
</mgrwt>
</event>
<event>
 6    1  0.1939311E-004  0.3000000E+03  0.7818608E-02  0.1093470E+00
          1   -1    0    0  502    0  0.00000000000E+00  0.00000000000E+00  0.26902666002E+02  0.26902666002E+02  0.00000000000E+00 0.  1.
         13   -1    0    0    0    0 -0.00000000000E+00 -0.00000000000E+00 -0.10000000000E+04  0.10000000000E+04  0.00000000000E+00 0.  1.
    9000005    2    1    2  501    0  0.47779224185E+01  0.14744018218E+02 -0.94973434757E+03  0.99886619421E+03  0.30902771455E+03 0.  0.
         13    1    3    3    0    0 -0.15073020304E+03  0.12013213535E+02 -0.53382290324E+03  0.55482502056E+03  0.00000000000E+00 0.  1.
          3    1    3    3  501    0  0.15550812545E+03  0.27308046836E+01 -0.41591144433E+03  0.44404117365E+03  0.00000000000E+00 0.  1.
         21    1    1    2  502  501 -0.47779224185E+01 -0.14744018218E+02 -0.23362986427E+02  0.28036471794E+02  0.00000000000E+00 0.  1.
<mgrwt>
<rscale>  1 0.30000000E+03</rscale>
<asrwt>0</asrwt>
<pdfrwt beam="1">  1        1 0.97828083E-01 0.30000000E+03</pdfrwt>
<pdfrwt beam="2">0</pdfrwt>
<totfact> 0.35339843E+01</totfact>
</mgrwt>
</event>
<event>
 6    1  0.1939311E-004  0.3000000E+03  0.7818608E-02  0.1093470E+00
          1   -1    0    0  502    0  0.00000000000E+00  0.00000000000E+00  0.31385873339E+02  0.31385873339E+02  0.00000000000E+00 0.  1.
         13   -1    0    0    0    0 -0.00000000000E+00 -0.00000000000E+00 -0.10000000000E+04  0.10000000000E+04  0.00000000000E+00 0.  1.
    9000005    2    1    2  501    0  0.76317345585E+01 -0.60870582464E+01 -0.95245184771E+03  0.10125042709E+04  0.34337309256E+03 0.  0.
         13    1    3    3    0    0  0.11957047530E+03  0.10109029294E+03 -0.69147800148E+03  0.70898390138E+03  0.00000000000E+00 0.  1.
          1    1    3    3  501    0 -0.11193874074E+03 -0.10717735118E+03 -0.26097384623E+03  0.30352036950E+03  0.00000000000E+00 0.  1.
         21    1    1    2  502  501 -0.76317345585E+01  0.60870582464E+01 -0.16162278952E+02  0.18881602458E+02  0.00000000000E+00 0. -1.
<mgrwt>
<rscale>  1 0.30000000E+03</rscale>
<asrwt>0</asrwt>
<pdfrwt beam="1">  1        1 0.11413069E+00 0.30000000E+03</pdfrwt>
<pdfrwt beam="2">0</pdfrwt>
<totfact> 0.28090811E+01</totfact>
</mgrwt>
</event>
<event>
 6    1  0.1939311E-004  0.3000000E+03  0.7818608E-02  0.1093470E+00
          1   -1    0    0  502    0  0.00000000000E+00  0.00000000000E+00  0.48238628092E+02  0.48238628092E+02  0.00000000000E+00 0.  1.
         13   -1    0    0    0    0 -0.00000000000E+00 -0.00000000000E+00 -0.10000000000E+04  0.10000000000E+04  0.00000000000E+00 0.  1.
    9000005    2    1    2  501    0 -0.29459604400E+02 -0.72258268052E+02 -0.86293560075E+03  0.93000520128E+03  0.33787970904E+03 0.  0.
         13    1    3    3    0    0  0.11074228523E+03  0.68862115710E+02 -0.20775819119E+03  0.24529433488E+03  0.00000000000E+00 0.  1.
          3    1    3    3  501    0 -0.14020188963E+03 -0.14112038376E+03 -0.65517740955E+03  0.68471086640E+03  0.00000000000E+00 0.  1.
         21    1    1    2  502  501  0.29459604400E+02  0.72258268052E+02 -0.88825771163E+02  0.11823342681E+03  0.00000000000E+00 0.  1.
<mgrwt>
<rscale>  1 0.30000000E+03</rscale>
<asrwt>0</asrwt>
<pdfrwt beam="1">  1        1 0.17541356E+00 0.30000000E+03</pdfrwt>
<pdfrwt beam="2">0</pdfrwt>
<totfact> 0.13445489E+01</totfact>
</mgrwt>
</event>
<event>
 6    1  0.1939311E-004  0.3000000E+03  0.7818608E-02  0.1093470E+00
          1   -1    0    0  502    0  0.00000000000E+00  0.00000000000E+00  0.37727439364E+02  0.37727439364E+02  0.00000000000E+00 0.  1.
         13   -1    0    0    0    0 -0.00000000000E+00 -0.00000000000E+00 -0.10000000000E+04  0.10000000000E+04  0.00000000000E+00 0.  1.
    9000005    2    1    2  501    0  0.96133659499E+01  0.43975418750E+01 -0.97030968174E+03  0.10244477370E+04  0.32845171968E+03 0.  0.
         13    1    3    3    0    0 -0.14202722436E+03 -0.26480525071E+02 -0.68298584044E+03  0.69809928299E+03  0.00000000000E+00 0.  1.
          3    1    3    3  501    0  0.15164059031E+03  0.30878066946E+02 -0.28732384130E+03  0.32634845400E+03  0.00000000000E+00 0.  1.
         21    1    1    2  502  501 -0.96133659499E+01 -0.43975418750E+01  0.80371211073E+01  0.13279702373E+02  0.00000000000E+00 0. -1.
<mgrwt>
<rscale>  1 0.30000000E+03</rscale>
<asrwt>0</asrwt>
<pdfrwt beam="1">  1        1 0.13719098E+00 0.30000000E+03</pdfrwt>
<pdfrwt beam="2">0</pdfrwt>
<totfact> 0.20933553E+01</totfact>
</mgrwt>
</event>
<event>
 6    1  0.1939311E-004  0.3000000E+03  0.7818608E-02  0.1093470E+00
          1   -1    0    0  502    0  0.00000000000E+00  0.00000000000E+00  0.37258828334E+02  0.37258828334E+02  0.00000000000E+00 0.  1.
         13   -1    0    0    0    0 -0.00000000000E+00 -0.00000000000E+00 -0.10000000000E+04  0.10000000000E+04  0.00000000000E+00 0.  1.
    9000005    2    1    2  501    0  0.43986845956E+02 -0.10588319198E+02 -0.91880535239E+03  0.97419289985E+03  0.32062684761E+03 0.  0.
         13    1    3    3    0    0  0.15852822966E+02  0.15207669542E+03 -0.53432465067E+03  0.55577105502E+03  0.00000000000E+00 0.  1.
          1    1    3    3  501    0  0.28134022990E+02 -0.16266501462E+03 -0.38448070172E+03  0.41842184482E+03  0.00000000000E+00 0.  1.
         21    1    1    2  502  501 -0.43986845956E+02  0.10588319198E+02 -0.43935819273E+02  0.63065928486E+02  0.00000000000E+00 0.  1.
<mgrwt>
<rscale>  1 0.30000000E+03</rscale>
<asrwt>0</asrwt>
<pdfrwt beam="1">  1        1 0.13548693E+00 0.30000000E+03</pdfrwt>
<pdfrwt beam="2">0</pdfrwt>
<totfact> 0.21374302E+01</totfact>
</mgrwt>
</event>
<event>
 6    1  0.1939311E-004  0.3000000E+03  0.7818608E-02  0.1093470E+00
          1   -1    0    0  502    0  0.00000000000E+00  0.00000000000E+00  0.34873534837E+02  0.34873534837E+02  0.00000000000E+00 0.  1.
         13   -1    0    0    0    0 -0.00000000000E+00 -0.00000000000E+00 -0.10000000000E+04  0.10000000000E+04  0.00000000000E+00 0.  1.
    9000005    2    1    2  501    0 -0.42084608960E+01 -0.25061301851E+02 -0.94270089126E+03  0.10009812590E+04  0.33560800136E+03 0.  0.
         13    1    3    3    0    0 -0.40603654079E+02 -0.12508645720E+03 -0.14320032705E+03  0.19442636695E+03  0.00000000000E+00 0.  1.
          1    1    3    3  501    0  0.36395193183E+02  0.10002515534E+03 -0.79950056421E+03  0.80655489209E+03  0.00000000000E+00 0.  1.
         21    1    1    2  502  501  0.42084608960E+01  0.25061301851E+02 -0.22425573902E+02  0.33892275793E+02  0.00000000000E+00 0.  1.
<mgrwt>
<rscale>  1 0.30000000E+03</rscale>
<asrwt>0</asrwt>
<pdfrwt beam="1">  1        1 0.12681312E+00 0.30000000E+03</pdfrwt>
<pdfrwt beam="2">0</pdfrwt>
<totfact> 0.23818056E+01</totfact>
</mgrwt>
</event>
<event>
 6    1  0.1939311E-004  0.3000000E+03  0.7818608E-02  0.1093470E+00
          1   -1    0    0  502    0  0.00000000000E+00  0.00000000000E+00  0.37115051189E+02  0.37115051189E+02  0.00000000000E+00 0.  1.
         13   -1    0    0    0    0 -0.00000000000E+00 -0.00000000000E+00 -0.10000000000E+04  0.10000000000E+04  0.00000000000E+00 0.  1.
    9000005    2    1    2  501    0  0.50193302509E+02  0.41113599595E+02 -0.86001803618E+03  0.91549557330E+03  0.30706909073E+03 0.  0.
         13    1    3    3    0    0  0.56239830658E+02 -0.11842049431E+03 -0.22210779598E+03  0.25791123485E+03  0.00000000000E+00 0.  1.
          3    1    3    3  501    0 -0.60465281490E+01  0.15953409391E+03 -0.63791024020E+03  0.65758433845E+03  0.00000000000E+00 0.  1.
         21    1    1    2  502  501 -0.50193302509E+02 -0.41113599595E+02 -0.10286691263E+03  0.12161947789E+03  0.00000000000E+00 0.  1.
<mgrwt>
<rscale>  1 0.30000000E+03</rscale>
<asrwt>0</asrwt>
<pdfrwt beam="1">  1        1 0.13496411E+00 0.30000000E+03</pdfrwt>
<pdfrwt beam="2">0</pdfrwt>
<totfact> 0.21512001E+01</totfact>
</mgrwt>
</event>
<event>
 6    1  0.1939311E-004  0.3000000E+03  0.7818608E-02  0.1093470E+00
          1   -1    0    0  502    0  0.00000000000E+00  0.00000000000E+00  0.33289124855E+02  0.33289124855E+02  0.00000000000E+00 0.  1.
         13   -1    0    0    0    0 -0.00000000000E+00 -0.00000000000E+00 -0.10000000000E+04  0.10000000000E+04  0.00000000000E+00 0.  1.
    9000005    2    1    2  501    0  0.36077637969E+01 -0.32455915749E+02 -0.89640799201E+03  0.95577204413E+03  0.32997955964E+03 0.  0.
         13    1    3    3    0    0  0.36497596417E+02  0.47168504553E+02 -0.46050284054E+01  0.59817628276E+02  0.00000000000E+00 0.  1.
          1    1    3    3  501    0 -0.32889832620E+02 -0.79624420301E+02 -0.89180296360E+03  0.89595441586E+03  0.00000000000E+00 0.  1.
         21    1    1    2  502  501 -0.36077637969E+01  0.32455915749E+02 -0.70302883135E+02  0.77517080723E+02  0.00000000000E+00 0. -1.
<mgrwt>
<rscale>  1 0.30000000E+03</rscale>
<asrwt>0</asrwt>
<pdfrwt beam="1">  1        1 0.12105162E+00 0.30000000E+03</pdfrwt>
<pdfrwt beam="2">0</pdfrwt>
<totfact> 0.25643333E+01</totfact>
</mgrwt>
</event>
<event>
 6    1  0.1939311E-004  0.3000000E+03  0.7818608E-02  0.1093470E+00
          1   -1    0    0  502    0  0.00000000000E+00  0.00000000000E+00  0.46176541099E+02  0.46176541099E+02  0.00000000000E+00 0.  1.
         13   -1    0    0    0    0 -0.00000000000E+00 -0.00000000000E+00 -0.10000000000E+04  0.10000000000E+04  0.00000000000E+00 0.  1.
    9000005    2    1    2  501    0 -0.42714403014E+02  0.63341475773E+02 -0.83723298022E+03  0.90678499725E+03  0.33979891890E+03 0.  0.
         13    1    3    3    0    0 -0.16619044073E+03  0.10117707366E+03 -0.32740042704E+03  0.38085049882E+03  0.00000000000E+00 0.  1.
          3    1    3    3  501    0  0.12347603771E+03 -0.37835597885E+02 -0.50983255318E+03  0.52593449843E+03  0.00000000000E+00 0.  1.
         21    1    1    2  502  501  0.42714403014E+02 -0.63341475773E+02 -0.11659047868E+03  0.13939154385E+03  0.00000000000E+00 0.  1.
<mgrwt>
<rscale>  1 0.30000000E+03</rscale>
<asrwt>0</asrwt>
<pdfrwt beam="1">  1        1 0.16791505E+00 0.30000000E+03</pdfrwt>
<pdfrwt beam="2">0</pdfrwt>
<totfact> 0.14626897E+01</totfact>
</mgrwt>
</event>
<event>
 6    1  0.1939311E-004  0.3000000E+03  0.7818608E-02  0.1093470E+00
          1   -1    0    0  502    0  0.00000000000E+00  0.00000000000E+00  0.53928434741E+02  0.53928434741E+02  0.00000000000E+00 0.  1.
         13   -1    0    0    0    0 -0.00000000000E+00 -0.00000000000E+00 -0.10000000000E+04  0.10000000000E+04  0.00000000000E+00 0.  1.
    9000005    2    1    2  501    0 -0.61813884863E+02  0.15278133020E+02 -0.93771778725E+03  0.98970878574E+03  0.31008781715E+03 0.  0.
         13    1    3    3    0    0  0.64933162106E+02  0.85916003723E+02 -0.12884955695E+03  0.16792880504E+03  0.00000000000E+00 0.  1.
          1    1    3    3  501    0 -0.12674704697E+03 -0.70637870703E+02 -0.80886823030E+03  0.82177998070E+03  0.00000000000E+00 0.  1.
         21    1    1    2  502  501  0.61813884863E+02 -0.15278133020E+02 -0.83537780108E+01  0.64219648998E+02  0.00000000000E+00 0.  1.
<mgrwt>
<rscale>  1 0.30000000E+03</rscale>
<asrwt>0</asrwt>
<pdfrwt beam="1">  1        1 0.19610381E+00 0.30000000E+03</pdfrwt>
<pdfrwt beam="2">0</pdfrwt>
<totfact> 0.10690258E+01</totfact>
</mgrwt>
</event>
<event>
 6    1  0.1939311E-004  0.3000000E+03  0.7818608E-02  0.1093470E+00
          1   -1    0    0  502    0  0.00000000000E+00  0.00000000000E+00  0.37134665044E+02  0.37134665044E+02  0.00000000000E+00 0.  1.
         13   -1    0    0    0    0 -0.00000000000E+00 -0.00000000000E+00 -0.10000000000E+04  0.10000000000E+04  0.00000000000E+00 0.  1.
    9000005    2    1    2  501    0  0.97598499141E+01 -0.74245307977E+01 -0.97044339779E+03  0.10227192093E+04  0.32255823418E+03 0.  0.
         13    1    3    3    0    0  0.26154932130E+02 -0.16283107738E+03 -0.44726257630E+03  0.47669891168E+03  0.00000000000E+00 0.  1.
          3    1    3    3  501    0 -0.16395082216E+02  0.15540654659E+03 -0.52318082149E+03  0.54602029762E+03  0.00000000000E+00 0.  1.
         21    1    1    2  502  501 -0.97598499141E+01  0.74245307977E+01  0.75780628336E+01  0.14415455741E+02  0.00000000000E+00 0.  1.
<mgrwt>
<rscale>  1 0.30000000E+03</rscale>
<asrwt>0</asrwt>
<pdfrwt beam="1">  1        1 0.13503543E+00 0.30000000E+03</pdfrwt>
<pdfrwt beam="2">0</pdfrwt>
<totfact> 0.21493147E+01</totfact>
</mgrwt>
</event>
<event>
 6    1  0.1939311E-004  0.3000000E+03  0.7818608E-02  0.1093470E+00
          1   -1    0    0  502    0  0.00000000000E+00  0.00000000000E+00  0.54706044833E+02  0.54706044833E+02  0.00000000000E+00 0.  1.
         13   -1    0    0    0    0 -0.00000000000E+00 -0.00000000000E+00 -0.10000000000E+04  0.10000000000E+04  0.00000000000E+00 0.  1.
    9000005    2    1    2  501    0  0.36731096400E+02  0.12256099358E+02 -0.95723965979E+03  0.10141833935E+04  0.33280745772E+03 0.  0.
         13    1    3    3    0    0  0.13572256627E+03 -0.65377908269E+02 -0.79361676911E+03  0.80778862464E+03  0.00000000000E+00 0.  1.
          3    1    3    3  501    0 -0.98991469872E+02  0.77634007627E+02 -0.16362289068E+03  0.20639476883E+03  0.00000000000E+00 0.  1.
         21    1    1    2  502  501 -0.36731096400E+02 -0.12256099358E+02  0.11945704622E+02  0.40522651359E+02  0.00000000000E+00 0. -1.
<mgrwt>
<rscale>  1 0.30000000E+03</rscale>
<asrwt>0</asrwt>
<pdfrwt beam="1">  1        1 0.19893149E+00 0.30000000E+03</pdfrwt>
<pdfrwt beam="2">0</pdfrwt>
<totfact> 0.10363962E+01</totfact>
</mgrwt>
</event>
<event>
 6    1  0.1939311E-004  0.3000000E+03  0.7818608E-02  0.1093470E+00
          1   -1    0    0  502    0  0.00000000000E+00  0.00000000000E+00  0.30754552349E+02  0.30754552349E+02  0.00000000000E+00 0.  1.
         13   -1    0    0    0    0 -0.00000000000E+00 -0.00000000000E+00 -0.10000000000E+04  0.10000000000E+04  0.00000000000E+00 0.  1.
    9000005    2    1    2  501    0 -0.89359786574E+01 -0.49493157026E+01 -0.97176960387E+03  0.10202322520E+04  0.31053717577E+03 0.  0.
         13    1    3    3    0    0 -0.14028778024E+03  0.72815126138E+02 -0.49536068485E+03  0.51996626041E+03  0.00000000000E+00 0.  1.
          1    1    3    3  501    0  0.13135180158E+03 -0.77764441841E+02 -0.47640891902E+03  0.50026599156E+03  0.00000000000E+00 0.  1.
         21    1    1    2  502  501  0.89359786574E+01  0.49493157026E+01  0.25241562159E+01  0.10522300371E+02  0.00000000000E+00 0. -1.
<mgrwt>
<rscale>  1 0.30000000E+03</rscale>
<asrwt>0</asrwt>
<pdfrwt beam="1">  1        1 0.11183497E+00 0.30000000E+03</pdfrwt>
<pdfrwt beam="2">0</pdfrwt>
<totfact> 0.28974588E+01</totfact>
</mgrwt>
</event>
<event>
 6    1  0.1939311E-004  0.3000000E+03  0.7818608E-02  0.1093470E+00
          1   -1    0    0  502    0  0.00000000000E+00  0.00000000000E+00  0.44818955369E+02  0.44818955369E+02  0.00000000000E+00 0.  1.
         13   -1    0    0    0    0 -0.00000000000E+00 -0.00000000000E+00 -0.10000000000E+04  0.10000000000E+04  0.00000000000E+00 0.  1.
    9000005    2    1    2  501    0  0.13120853246E+02  0.45983694501E+01 -0.97159347257E+03  0.10233091999E+04  0.32089646428E+03 0.  0.
         13    1    3    3    0    0 -0.11346355408E+03  0.31404398496E+02 -0.14559733941E+03  0.18723995191E+03  0.00000000000E+00 0.  1.
          3    1    3    3  501    0  0.12658440732E+03 -0.26806029046E+02 -0.82599613315E+03  0.83606924794E+03  0.00000000000E+00 0.  1.
         21    1    1    2  502  501 -0.13120853246E+02 -0.45983694501E+01  0.16412427936E+02  0.21509755513E+02  0.00000000000E+00 0. -1.
<mgrwt>
<rscale>  1 0.30000000E+03</rscale>
<asrwt>0</asrwt>
<pdfrwt beam="1">  1        1 0.16297836E+00 0.30000000E+03</pdfrwt>
<pdfrwt beam="2">0</pdfrwt>
<totfact> 0.15468454E+01</totfact>
</mgrwt>
</event>
<event>
 6    1  0.1939311E-004  0.3000000E+03  0.7818608E-02  0.1093470E+00
          1   -1    0    0  502    0  0.00000000000E+00  0.00000000000E+00  0.42273906631E+02  0.42273906631E+02  0.00000000000E+00 0.  1.
         13   -1    0    0    0    0 -0.00000000000E+00 -0.00000000000E+00 -0.10000000000E+04  0.10000000000E+04  0.00000000000E+00 0.  1.
    9000005    2    1    2  501    0 -0.18306600300E+01 -0.15598489998E+02 -0.97180988404E+03  0.10211784719E+04  0.31327999710E+03 0.  0.
         13    1    3    3    0    0  0.21980214480E+02 -0.62480501056E+02 -0.96600938042E+03  0.96827737034E+03  0.00000000000E+00 0.  1.
          3    1    3    3  501    0 -0.23810874510E+02  0.46882011058E+02 -0.58005036130E+01  0.52901101576E+02  0.00000000000E+00 0.  1.
         21    1    1    2  502  501  0.18306600300E+01  0.15598489998E+02  0.14083790668E+02  0.21095434718E+02  0.00000000000E+00 0.  1.
<mgrwt>
<rscale>  1 0.30000000E+03</rscale>
<asrwt>0</asrwt>
<pdfrwt beam="1">  1        1 0.15372362E+00 0.30000000E+03</pdfrwt>
<pdfrwt beam="2">0</pdfrwt>
<totfact> 0.17202273E+01</totfact>
</mgrwt>
</event>
<event>
 6    1  0.1939311E-004  0.3000000E+03  0.7818608E-02  0.1093470E+00
          1   -1    0    0  502    0  0.00000000000E+00  0.00000000000E+00  0.52342183764E+02  0.52342183764E+02  0.00000000000E+00 0.  1.
         13   -1    0    0    0    0 -0.00000000000E+00 -0.00000000000E+00 -0.10000000000E+04  0.10000000000E+04  0.00000000000E+00 0.  1.
    9000005    2    1    2  501    0  0.28058112630E+02 -0.39496668913E+02 -0.94715149666E+03  0.10038911683E+04  0.32917210639E+03 0.  0.
         13    1    3    3    0    0  0.40742828724E+02 -0.13706812107E+03 -0.17730355453E+03  0.22778103160E+03  0.00000000000E+00 0.  1.
          3    1    3    3  501    0 -0.12684716094E+02  0.97571452153E+02 -0.76984794213E+03  0.77611013671E+03  0.00000000000E+00 0.  1.
         21    1    1    2  502  501 -0.28058112630E+02  0.39496668913E+02 -0.50631957137E+00  0.48451015459E+02  0.00000000000E+00 0.  1.
<mgrwt>
<rscale>  1 0.30000000E+03</rscale>
<asrwt>0</asrwt>
<pdfrwt beam="1">  1        1 0.19033562E+00 0.30000000E+03</pdfrwt>
<pdfrwt beam="2">0</pdfrwt>
<totfact> 0.11391669E+01</totfact>
</mgrwt>
</event>
<event>
 6    1  0.1939311E-004  0.3000000E+03  0.7818608E-02  0.1093470E+00
          1   -1    0    0  502    0  0.00000000000E+00  0.00000000000E+00  0.27107207343E+02  0.27107207343E+02  0.00000000000E+00 0.  1.
         13   -1    0    0    0    0 -0.00000000000E+00 -0.00000000000E+00 -0.10000000000E+04  0.10000000000E+04  0.00000000000E+00 0.  1.
    9000005    2    1    2  501    0  0.64890584087E+01  0.68378857449E+01 -0.91975803451E+03  0.97314270897E+03  0.31774679452E+03 0.  0.
         13    1    3    3    0    0  0.10895580966E+03 -0.11482822474E+03 -0.43076659582E+03  0.45893000526E+03  0.00000000000E+00 0.  1.
          1    1    3    3  501    0 -0.10246675125E+03  0.12166611048E+03 -0.48899143868E+03  0.51421270371E+03  0.00000000000E+00 0.  1.
         21    1    1    2  502  501 -0.64890584087E+01 -0.68378857449E+01 -0.53134758151E+02  0.53964498370E+02  0.00000000000E+00 0.  1.
<mgrwt>
<rscale>  1 0.30000000E+03</rscale>
<asrwt>0</asrwt>
<pdfrwt beam="1">  1        1 0.98571871E-01 0.30000000E+03</pdfrwt>
<pdfrwt beam="2">0</pdfrwt>
<totfact> 0.34952786E+01</totfact>
</mgrwt>
</event>
<event>
 6    1  0.1939311E-004  0.3000000E+03  0.7818608E-02  0.1093470E+00
          1   -1    0    0  502    0  0.00000000000E+00  0.00000000000E+00  0.33056362420E+02  0.33056362420E+02  0.00000000000E+00 0.  1.
         13   -1    0    0    0    0 -0.00000000000E+00 -0.00000000000E+00 -0.10000000000E+04  0.10000000000E+04  0.00000000000E+00 0.  1.
    9000005    2    1    2  501    0 -0.72402782206E+01  0.10288843721E+02 -0.96475859332E+03  0.10202870104E+04  0.33176521545E+03 0.  0.
         13    1    3    3    0    0 -0.46483946844E+02 -0.15360711889E+03 -0.53907270691E+03  0.56245469828E+03  0.00000000000E+00 0.  1.
          1    1    3    3  501    0  0.39243668623E+02  0.16389596261E+03 -0.42568588641E+03  0.45783231207E+03  0.00000000000E+00 0.  1.
         21    1    1    2  502  501  0.72402782206E+01 -0.10288843721E+02 -0.21850442644E+01  0.12769352069E+02  0.00000000000E+00 0. -1.
<mgrwt>
<rscale>  1 0.30000000E+03</rscale>
<asrwt>0</asrwt>
<pdfrwt beam="1">  1        1 0.12020521E+00 0.30000000E+03</pdfrwt>
<pdfrwt beam="2">0</pdfrwt>
<totfact> 0.25926693E+01</totfact>
</mgrwt>
</event>
<event>
 6    1  0.1939311E-004  0.3000000E+03  0.7818608E-02  0.1093470E+00
          1   -1    0    0  502    0  0.00000000000E+00  0.00000000000E+00  0.46638089093E+02  0.46638089093E+02  0.00000000000E+00 0.  1.
         13   -1    0    0    0    0 -0.00000000000E+00 -0.00000000000E+00 -0.10000000000E+04  0.10000000000E+04  0.00000000000E+00 0.  1.
    9000005    2    1    2  501    0 -0.19261772622E+02 -0.30178682052E+02 -0.95324571218E+03  0.10108361026E+04  0.33441063049E+03 0.  0.
         13    1    3    3    0    0 -0.17196866536E+03 -0.18343119453E+02 -0.62719267688E+03  0.65059998911E+03  0.00000000000E+00 0.  1.
          1    1    3    3  501    0  0.15270689273E+03 -0.11835562599E+02 -0.32605303530E+03  0.36023611348E+03  0.00000000000E+00 0.  1.
         21    1    1    2  502  501  0.19261772622E+02  0.30178682052E+02 -0.11619872353E+00  0.35801986496E+02  0.00000000000E+00 0.  1.
<mgrwt>
<rscale>  1 0.30000000E+03</rscale>
<asrwt>0</asrwt>
<pdfrwt beam="1">  1        1 0.16959341E+00 0.30000000E+03</pdfrwt>
<pdfrwt beam="2">0</pdfrwt>
<totfact> 0.14352735E+01</totfact>
</mgrwt>
</event>
<event>
 6    1  0.1939311E-004  0.3000000E+03  0.7818608E-02  0.1093470E+00
          1   -1    0    0  502    0  0.00000000000E+00  0.00000000000E+00  0.50767145182E+02  0.50767145182E+02  0.00000000000E+00 0.  1.
         13   -1    0    0    0    0 -0.00000000000E+00 -0.00000000000E+00 -0.10000000000E+04  0.10000000000E+04  0.00000000000E+00 0.  1.
    9000005    2    1    2  501    0  0.23528365691E+02  0.97812977923E+02 -0.80518068487E+03  0.87506287572E+03  0.32756394570E+03 0.  0.
         13    1    3    3    0    0  0.76949469761E+02  0.93660548605E+02 -0.81204530972E+03  0.82104269335E+03  0.00000000000E+00 0.  1.
          1    1    3    3  501    0 -0.53421104069E+02  0.41524293177E+01  0.68646248445E+01  0.54020182372E+02  0.00000000000E+00 0.  1.
         21    1    1    2  502  501 -0.23528365691E+02 -0.97812977923E+02 -0.14405216995E+03  0.17570426946E+03  0.00000000000E+00 0.  1.
<mgrwt>
<rscale>  1 0.30000000E+03</rscale>
<asrwt>0</asrwt>
<pdfrwt beam="1">  1        1 0.18460819E+00 0.30000000E+03</pdfrwt>
<pdfrwt beam="2">0</pdfrwt>
<totfact> 0.12136938E+01</totfact>
</mgrwt>
</event>
<event>
 6    1  0.1939311E-004  0.3000000E+03  0.7818608E-02  0.1093470E+00
          1   -1    0    0  502    0  0.00000000000E+00  0.00000000000E+00  0.51717417452E+02  0.51717417452E+02  0.00000000000E+00 0.  1.
         13   -1    0    0    0    0 -0.00000000000E+00 -0.00000000000E+00 -0.10000000000E+04  0.10000000000E+04  0.00000000000E+00 0.  1.
    9000005    2    1    2  501    0  0.23032348351E+02  0.18635336777E+02 -0.96406842522E+03  0.10181472272E+04  0.32606453780E+03 0.  0.
         13    1    3    3    0    0  0.32480953250E+01 -0.15271515156E+03 -0.51156243695E+03  0.53388069317E+03  0.00000000000E+00 0.  1.
          1    1    3    3  501    0  0.19784253026E+02  0.17135048834E+03 -0.45250598827E+03  0.48426653399E+03  0.00000000000E+00 0.  1.
         21    1    1    2  502  501 -0.23032348351E+02 -0.18635336777E+02  0.15785842676E+02  0.33570190294E+02  0.00000000000E+00 0.  1.
<mgrwt>
<rscale>  1 0.30000000E+03</rscale>
<asrwt>0</asrwt>
<pdfrwt beam="1">  1        1 0.18806373E+00 0.30000000E+03</pdfrwt>
<pdfrwt beam="2">0</pdfrwt>
<totfact> 0.11681429E+01</totfact>
</mgrwt>
</event>
<event>
 6    1  0.1939311E-004  0.3000000E+03  0.7818608E-02  0.1093470E+00
          1   -1    0    0  502    0  0.00000000000E+00  0.00000000000E+00  0.34839018465E+02  0.34839018465E+02  0.00000000000E+00 0.  1.
         13   -1    0    0    0    0 -0.00000000000E+00 -0.00000000000E+00 -0.10000000000E+04  0.10000000000E+04  0.00000000000E+00 0.  1.
    9000005    2    1    2  501    0 -0.26751338629E+02  0.38314801121E+02 -0.91481948997E+03  0.96615187355E+03  0.30719877186E+03 0.  0.
         13    1    3    3    0    0 -0.68062964064E+02 -0.73443923708E+02 -0.96029596649E+02  0.13873810017E+03  0.00000000000E+00 0.  1.
          1    1    3    3  501    0  0.41311625436E+02  0.11175872483E+03 -0.81878989332E+03  0.82741377338E+03  0.00000000000E+00 0.  1.
         21    1    1    2  502  501  0.26751338629E+02 -0.38314801121E+02 -0.50341491564E+02  0.68687144913E+02  0.00000000000E+00 0.  1.
<mgrwt>
<rscale>  1 0.30000000E+03</rscale>
<asrwt>0</asrwt>
<pdfrwt beam="1">  1        1 0.12668761E+00 0.30000000E+03</pdfrwt>
<pdfrwt beam="2">0</pdfrwt>
<totfact> 0.23856014E+01</totfact>
</mgrwt>
</event>
<event>
 6    1  0.1939311E-004  0.3000000E+03  0.7818608E-02  0.1093470E+00
          1   -1    0    0  502    0  0.00000000000E+00  0.00000000000E+00  0.25531528724E+02  0.25531528724E+02  0.00000000000E+00 0.  1.
         13   -1    0    0    0    0 -0.00000000000E+00 -0.00000000000E+00 -0.10000000000E+04  0.10000000000E+04  0.00000000000E+00 0.  1.
    9000005    2    1    2  501    0  0.13977356066E+02  0.82918995991E+01 -0.96797857277E+03  0.10080317898E+04  0.28085841578E+03 0.  0.
         13    1    3    3    0    0  0.14469093299E+03  0.28633306583E+02 -0.56267628905E+03  0.58168714838E+03  0.00000000000E+00 0.  1.
          3    1    3    3  501    0 -0.13071357692E+03 -0.20341406984E+02 -0.40530228373E+03  0.42634464137E+03  0.00000000000E+00 0.  1.
         21    1    1    2  502  501 -0.13977356066E+02 -0.82918995991E+01 -0.64898985022E+01  0.17499738973E+02  0.00000000000E+00 0. -1.
<mgrwt>
<rscale>  1 0.30000000E+03</rscale>
<asrwt>0</asrwt>
<pdfrwt beam="1">  1        1 0.92842118E-01 0.30000000E+03</pdfrwt>
<pdfrwt beam="2">0</pdfrwt>
<totfact> 0.38106953E+01</totfact>
</mgrwt>
</event>
<event>
 6    1  0.1939311E-004  0.3000000E+03  0.7818608E-02  0.1093470E+00
          1   -1    0    0  502    0  0.00000000000E+00  0.00000000000E+00  0.27617175184E+02  0.27617175184E+02  0.00000000000E+00 0.  1.
         13   -1    0    0    0    0 -0.00000000000E+00 -0.00000000000E+00 -0.10000000000E+04  0.10000000000E+04  0.00000000000E+00 0.  1.
    9000005    2    1    2  501    0  0.42675184568E+01 -0.15531253360E+02 -0.96038733953E+03  0.10075342667E+04  0.30417433350E+03 0.  0.
         13    1    3    3    0    0 -0.32487079928E+01  0.10760447901E+03 -0.13351351654E+03  0.17150841702E+03  0.00000000000E+00 0.  1.
          1    1    3    3  501    0  0.75162264496E+01 -0.12313573237E+03 -0.82687382299E+03  0.83602584972E+03  0.00000000000E+00 0.  1.
         21    1    1    2  502  501 -0.42675184568E+01  0.15531253360E+02 -0.11995485283E+02  0.20082908452E+02  0.00000000000E+00 0.  1.
<mgrwt>
<rscale>  1 0.30000000E+03</rscale>
<asrwt>0</asrwt>
<pdfrwt beam="1">  1        1 0.10042630E+00 0.30000000E+03</pdfrwt>
<pdfrwt beam="2">0</pdfrwt>
<totfact> 0.34014587E+01</totfact>
</mgrwt>
</event>
<event>
 6    1  0.1939311E-004  0.3000000E+03  0.7818608E-02  0.1093470E+00
          1   -1    0    0  502    0  0.00000000000E+00  0.00000000000E+00  0.29469317136E+02  0.29469317136E+02  0.00000000000E+00 0.  1.
         13   -1    0    0    0    0 -0.00000000000E+00 -0.00000000000E+00 -0.10000000000E+04  0.10000000000E+04  0.00000000000E+00 0.  1.
    9000005    2    1    2  501    0  0.10014168299E+02 -0.68560552182E+01 -0.95494720332E+03  0.10097175098E+04  0.32780786954E+03 0.  0.
         13    1    3    3    0    0  0.11038948094E+02  0.15964280460E+03 -0.41976885615E+03  0.44923665926E+03  0.00000000000E+00 0.  1.
          1    1    3    3  501    0 -0.10247797946E+01 -0.16649885982E+03 -0.53517834717E+03  0.56048085049E+03  0.00000000000E+00 0.  1.
         21    1    1    2  502  501 -0.10014168299E+02  0.68560552182E+01 -0.15583479548E+02  0.19751807378E+02  0.00000000000E+00 0. -1.
<mgrwt>
<rscale>  1 0.30000000E+03</rscale>
<asrwt>0</asrwt>
<pdfrwt beam="1">  1        1 0.10716138E+00 0.30000000E+03</pdfrwt>
<pdfrwt beam="2">0</pdfrwt>
<totfact> 0.30899985E+01</totfact>
</mgrwt>
</event>
<event>
 6    1  0.1939311E-004  0.3000000E+03  0.7818608E-02  0.1093470E+00
          1   -1    0    0  502    0  0.00000000000E+00  0.00000000000E+00  0.73999971795E+02  0.73999971795E+02  0.00000000000E+00 0.  1.
         13   -1    0    0    0    0 -0.00000000000E+00 -0.00000000000E+00 -0.10000000000E+04  0.10000000000E+04  0.00000000000E+00 0.  1.
    9000005    2    1    2  501    0  0.14644598612E+02  0.35455796782E+01 -0.97109852889E+03  0.10264509427E+04  0.33217788842E+03 0.  0.
         13    1    3    3    0    0  0.62935651625E+02 -0.13178861195E+03 -0.74036781816E+03  0.75463477302E+03  0.00000000000E+00 0.  1.
          3    1    3    3  501    0 -0.48291053013E+02  0.13533419163E+03 -0.23073071073E+03  0.27181616968E+03  0.00000000000E+00 0.  1.
         21    1    1    2  502  501 -0.14644598612E+02 -0.35455796782E+01  0.45098500685E+02  0.47549029094E+02  0.00000000000E+00 0. -1.
<mgrwt>
<rscale>  1 0.30000000E+03</rscale>
<asrwt>0</asrwt>
<pdfrwt beam="1">  1        1 0.26909137E+00 0.30000000E+03</pdfrwt>
<pdfrwt beam="2">0</pdfrwt>
<totfact> 0.48555567E+00</totfact>
</mgrwt>
</event>
<event>
 6    1  0.1939311E-004  0.3000000E+03  0.7818608E-02  0.1093470E+00
          1   -1    0    0  502    0  0.00000000000E+00  0.00000000000E+00  0.98318592944E+02  0.98318592944E+02  0.00000000000E+00 0.  1.
         13   -1    0    0    0    0 -0.00000000000E+00 -0.00000000000E+00 -0.10000000000E+04  0.10000000000E+04  0.00000000000E+00 0.  1.
    9000005    2    1    2  501    0 -0.15801243957E+02 -0.39391617777E+02 -0.96580432286E+03  0.10214217322E+04  0.32973168804E+03 0.  0.
         13    1    3    3    0    0 -0.16508033147E+03 -0.69919912050E+02 -0.55732101408E+03  0.58544600321E+03  0.00000000000E+00 0.  1.
          1    1    3    3  501    0  0.14927908751E+03  0.30528294273E+02 -0.40848330878E+03  0.43597572899E+03  0.00000000000E+00 0.  1.
         21    1    1    2  502  501  0.15801243957E+02  0.39391617777E+02  0.64122915800E+02  0.76896860745E+02  0.00000000000E+00 0.  1.
<mgrwt>
<rscale>  1 0.30000000E+03</rscale>
<asrwt>0</asrwt>
<pdfrwt beam="1">  1        1 0.35752291E+00 0.30000000E+03</pdfrwt>
<pdfrwt beam="2">0</pdfrwt>
<totfact> 0.17997785E+00</totfact>
</mgrwt>
</event>
<event>
 6    1  0.1939311E-004  0.3000000E+03  0.7818608E-02  0.1093470E+00
          1   -1    0    0  502    0  0.00000000000E+00  0.00000000000E+00  0.33729487332E+02  0.33729487332E+02  0.00000000000E+00 0.  1.
         13   -1    0    0    0    0 -0.00000000000E+00 -0.00000000000E+00 -0.10000000000E+04  0.10000000000E+04  0.00000000000E+00 0.  1.
    9000005    2    1    2  501    0 -0.27107872994E+02 -0.16168427624E+02 -0.94813642404E+03  0.99732756430E+03  0.30773907307E+03 0.  0.
         13    1    3    3    0    0  0.55630233434E+02 -0.68009410392E+02 -0.66220744607E+02  0.11002358743E+03  0.00000000000E+00 0.  1.
          3    1    3    3  501    0 -0.82738106429E+02  0.51840982768E+02 -0.88191567943E+03  0.88730397687E+03  0.00000000000E+00 0.  1.
         21    1    1    2  502  501  0.27107872994E+02  0.16168427624E+02 -0.18134088631E+02  0.36401923034E+02  0.00000000000E+00 0.  1.
<mgrwt>
<rscale>  1 0.30000000E+03</rscale>
<asrwt>0</asrwt>
<pdfrwt beam="1">  1        1 0.12265294E+00 0.30000000E+03</pdfrwt>
<pdfrwt beam="2">0</pdfrwt>
<totfact> 0.25118363E+01</totfact>
</mgrwt>
</event>
<event>
 6    1  0.1939311E-004  0.3000000E+03  0.7818608E-02  0.1093470E+00
          1   -1    0    0  502    0  0.00000000000E+00  0.00000000000E+00  0.31249870134E+02  0.31249870134E+02  0.00000000000E+00 0.  1.
         13   -1    0    0    0    0 -0.00000000000E+00 -0.00000000000E+00 -0.10000000000E+04  0.10000000000E+04  0.00000000000E+00 0.  1.
    9000005    2    1    2  501    0 -0.74420504151E+01  0.72725047634E+01 -0.96878059254E+03  0.10208443731E+04  0.32168171260E+03 0.  0.
         13    1    3    3    0    0 -0.82072965807E+02  0.11816312037E+03 -0.23929754227E+03  0.27921641870E+03  0.00000000000E+00 0.  1.
          1    1    3    3  501    0  0.74630915392E+02 -0.11089061561E+03 -0.72948305027E+03  0.74162795443E+03  0.00000000000E+00 0.  1.
         21    1    1    2  502  501  0.74420504151E+01 -0.72725047634E+01  0.30462677119E-01  0.10405497003E+02  0.00000000000E+00 0.  1.
<mgrwt>
<rscale>  1 0.30000000E+03</rscale>
<asrwt>0</asrwt>
<pdfrwt beam="1">  1        1 0.11363613E+00 0.30000000E+03</pdfrwt>
<pdfrwt beam="2">0</pdfrwt>
<totfact> 0.28277922E+01</totfact>
</mgrwt>
</event>
<event>
 6    1  0.1939311E-004  0.3000000E+03  0.7818608E-02  0.1093470E+00
          1   -1    0    0  502    0  0.00000000000E+00  0.00000000000E+00  0.28532709947E+02  0.28532709947E+02  0.00000000000E+00 0.  1.
         13   -1    0    0    0    0 -0.00000000000E+00 -0.00000000000E+00 -0.10000000000E+04  0.10000000000E+04  0.00000000000E+00 0.  1.
    9000005    2    1    2  501    0  0.10400780790E+02  0.61982976437E+01 -0.95883419657E+03  0.10110344190E+04  0.32043873795E+03 0.  0.
         13    1    3    3    0    0  0.97033999031E+02  0.11717154087E+03 -0.28934331650E+03  0.32690108865E+03  0.00000000000E+00 0.  1.
          3    1    3    3  501    0 -0.86633218241E+02 -0.11097324322E+03 -0.66949088007E+03  0.68413333036E+03  0.00000000000E+00 0.  1.
         21    1    1    2  502  501 -0.10400780790E+02 -0.61982976437E+01 -0.12633093482E+02  0.17498290935E+02  0.00000000000E+00 0. -1.
<mgrwt>
<rscale>  1 0.30000000E+03</rscale>
<asrwt>0</asrwt>
<pdfrwt beam="1">  1        1 0.10375553E+00 0.30000000E+03</pdfrwt>
<pdfrwt beam="2">0</pdfrwt>
<totfact> 0.32420661E+01</totfact>
</mgrwt>
</event>
<event>
 6    1  0.1939311E-004  0.3000000E+03  0.7818608E-02  0.1093470E+00
          1   -1    0    0  502    0  0.00000000000E+00  0.00000000000E+00  0.82760587474E+02  0.82760587474E+02  0.00000000000E+00 0.  1.
         13   -1    0    0    0    0 -0.00000000000E+00 -0.00000000000E+00 -0.10000000000E+04  0.10000000000E+04  0.00000000000E+00 0.  1.
    9000005    2    1    2  501    0 -0.16729975920E+02  0.53160319071E+01 -0.97108024373E+03  0.10261303182E+04  0.33111695508E+03 0.  0.
         13    1    3    3    0    0 -0.38313564401E+02 -0.12381074612E+03 -0.80141563530E+03  0.81182759905E+03  0.00000000000E+00 0.  1.
          3    1    3    3  501    0  0.21583588481E+02  0.12912677803E+03 -0.16966460843E+03  0.21430271918E+03  0.00000000000E+00 0.  1.
         21    1    1    2  502  501  0.16729975920E+02 -0.53160319071E+01  0.53840831205E+02  0.56630269242E+02  0.00000000000E+00 0.  1.
<mgrwt>
<rscale>  1 0.30000000E+03</rscale>
<asrwt>0</asrwt>
<pdfrwt beam="1">  1        1 0.30094823E+00 0.30000000E+03</pdfrwt>
<pdfrwt beam="2">0</pdfrwt>
<totfact> 0.34385763E+00</totfact>
</mgrwt>
</event>
<event>
 6    1  0.1939311E-004  0.3000000E+03  0.7818608E-02  0.1093470E+00
          1   -1    0    0  502    0  0.00000000000E+00  0.00000000000E+00  0.36202119644E+02  0.36202119644E+02  0.00000000000E+00 0.  1.
         13   -1    0    0    0    0 -0.00000000000E+00 -0.00000000000E+00 -0.10000000000E+04  0.10000000000E+04  0.00000000000E+00 0.  1.
    9000005    2    1    2  501    0 -0.10178341286E+02 -0.51934107996E+01 -0.97631955495E+03  0.10192503504E+04  0.29247364529E+03 0.  0.
         13    1    3    3    0    0  0.29847043714E+02 -0.16333151061E+02 -0.97710408782E+03  0.97769628018E+03  0.00000000000E+00 0.  1.
          1    1    3    3  501    0 -0.40025385000E+02  0.11139740261E+02  0.78453286518E+00  0.41554070189E+02  0.00000000000E+00 0.  1.
         21    1    1    2  502  501  0.10178341286E+02  0.51934107996E+01  0.12521674595E+02  0.16951769280E+02  0.00000000000E+00 0.  1.
<mgrwt>
<rscale>  1 0.30000000E+03</rscale>
<asrwt>0</asrwt>
<pdfrwt beam="1">  1        1 0.13164435E+00 0.30000000E+03</pdfrwt>
<pdfrwt beam="2">0</pdfrwt>
<totfact> 0.22414367E+01</totfact>
</mgrwt>
</event>
<event>
 6    1  0.1939311E-004  0.3000000E+03  0.7818608E-02  0.1093470E+00
          1   -1    0    0  502    0  0.00000000000E+00  0.00000000000E+00  0.30230336243E+02  0.30230336243E+02  0.00000000000E+00 0.  1.
         13   -1    0    0    0    0 -0.00000000000E+00 -0.00000000000E+00 -0.10000000000E+04  0.10000000000E+04  0.00000000000E+00 0.  1.
    9000005    2    1    2  501    0 -0.82674080735E+01  0.86627291354E+00 -0.94584010563E+03  0.10048980601E+04  0.33931917896E+03 0.  0.
         13    1    3    3    0    0  0.86661269399E+01  0.86668944617E+02 -0.41754522578E+02  0.96592172938E+02  0.00000000000E+00 0.  1.
          3    1    3    3  501    0 -0.16933535013E+02 -0.85802671703E+02 -0.90408558305E+03  0.90830588711E+03  0.00000000000E+00 0.  1.
         21    1    1    2  502  501  0.82674080735E+01 -0.86627291354E+00 -0.23929558126E+02  0.25332276193E+02  0.00000000000E+00 0. -1.
<mgrwt>
<rscale>  1 0.30000000E+03</rscale>
<asrwt>0</asrwt>
<pdfrwt beam="1">  1        1 0.10992873E+00 0.30000000E+03</pdfrwt>
<pdfrwt beam="2">0</pdfrwt>
<totfact> 0.29738723E+01</totfact>
</mgrwt>
</event>
<event>
 6    1  0.1939311E-004  0.3000000E+03  0.7818608E-02  0.1093470E+00
          1   -1    0    0  502    0  0.00000000000E+00  0.00000000000E+00  0.90948780407E+02  0.90948780407E+02  0.00000000000E+00 0.  1.
         13   -1    0    0    0    0 -0.00000000000E+00 -0.00000000000E+00 -0.10000000000E+04  0.10000000000E+04  0.00000000000E+00 0.  1.
    9000005    2    1    2  501    0 -0.74255555294E+02 -0.18224311032E+03 -0.65269077122E+03  0.76776598656E+03  0.35317549254E+03 0.  0.
         13    1    3    3    0    0 -0.58074822577E+02  0.70959563782E+02 -0.31827626403E+02  0.97061539819E+02  0.00000000000E+00 0.  1.
          3    1    3    3  501    0 -0.16180732717E+02 -0.25320267410E+03 -0.62086314482E+03  0.67070444674E+03  0.00000000000E+00 0.  1.
         21    1    1    2  502  501  0.74255555294E+02  0.18224311032E+03 -0.25636044837E+03  0.32318279385E+03  0.00000000000E+00 0.  1.
<mgrwt>
<rscale>  1 0.30000000E+03</rscale>
<asrwt>0</asrwt>
<pdfrwt beam="1">  1        1 0.33072354E+00 0.30000000E+03</pdfrwt>
<pdfrwt beam="2">0</pdfrwt>
<totfact> 0.24657775E+00</totfact>
</mgrwt>
</event>
<event>
 6    1  0.1939311E-004  0.3000000E+03  0.7818608E-02  0.1093470E+00
          1   -1    0    0  502    0  0.00000000000E+00  0.00000000000E+00  0.46106411993E+02  0.46106411993E+02  0.00000000000E+00 0.  1.
         13   -1    0    0    0    0 -0.00000000000E+00 -0.00000000000E+00 -0.10000000000E+04  0.10000000000E+04  0.00000000000E+00 0.  1.
    9000005    2    1    2  501    0  0.14956657293E+02 -0.18789079334E+02 -0.96499460782E+03  0.10196495841E+04  0.32847214525E+03 0.  0.
         13    1    3    3    0    0  0.42790971011E+02 -0.78398307937E+02 -0.94733076077E+03  0.95153188711E+03  0.00000000000E+00 0.  1.
          1    1    3    3  501    0 -0.27834313718E+02  0.59609228603E+02 -0.17663847044E+02  0.68117697019E+02  0.00000000000E+00 0.  1.
         21    1    1    2  502  501 -0.14956657293E+02  0.18789079334E+02  0.11101019810E+02  0.26456827860E+02  0.00000000000E+00 0.  1.
<mgrwt>
<rscale>  1 0.30000000E+03</rscale>
<asrwt>0</asrwt>
<pdfrwt beam="1">  1        1 0.16766003E+00 0.30000000E+03</pdfrwt>
<pdfrwt beam="2">0</pdfrwt>
<totfact> 0.14669070E+01</totfact>
</mgrwt>
</event>
<event>
 6    1  0.1939311E-004  0.3000000E+03  0.7818608E-02  0.1093470E+00
          1   -1    0    0  502    0  0.00000000000E+00  0.00000000000E+00  0.28269268616E+02  0.28269268616E+02  0.00000000000E+00 0.  1.
         13   -1    0    0    0    0 -0.00000000000E+00 -0.00000000000E+00 -0.10000000000E+04  0.10000000000E+04  0.00000000000E+00 0.  1.
    9000005    2    1    2  501    0  0.91156760744E+01  0.12366330443E+02 -0.95654394550E+03  0.10066669506E+04  0.31331455128E+03 0.  0.
         13    1    3    3    0    0  0.18082584053E+02  0.16238085498E+03 -0.49201110789E+03  0.51842979486E+03  0.00000000000E+00 0.  1.
          1    1    3    3  501    0 -0.89669079783E+01 -0.15001452454E+03 -0.46453283761E+03  0.48823715572E+03  0.00000000000E+00 0.  1.
         21    1    1    2  502  501 -0.91156760744E+01 -0.12366330443E+02 -0.15186785888E+02  0.21602318036E+02  0.00000000000E+00 0. -1.
<mgrwt>
<rscale>  1 0.30000000E+03</rscale>
<asrwt>0</asrwt>
<pdfrwt beam="1">  1        1 0.10279756E+00 0.30000000E+03</pdfrwt>
<pdfrwt beam="2">0</pdfrwt>
<totfact> 0.32867925E+01</totfact>
</mgrwt>
</event>
<event>
 6    1  0.1939311E-004  0.3000000E+03  0.7818608E-02  0.1093470E+00
          1   -1    0    0  502    0  0.00000000000E+00  0.00000000000E+00  0.37618081420E+02  0.37618081420E+02  0.00000000000E+00 0.  1.
         13   -1    0    0    0    0 -0.00000000000E+00 -0.00000000000E+00 -0.10000000000E+04  0.10000000000E+04  0.00000000000E+00 0.  1.
    9000005    2    1    2  501    0 -0.13146893204E+02 -0.42537206519E+00 -0.97010231546E+03  0.10223659907E+04  0.32242936404E+03 0.  0.
         13    1    3    3    0    0  0.46326851097E+02  0.92538813403E+02 -0.86094038082E+03  0.86713779092E+03  0.00000000000E+00 0.  1.
          1    1    3    3  501    0 -0.59473744301E+02 -0.92964185469E+02 -0.10916193464E+03  0.15522819981E+03  0.00000000000E+00 0.  1.
         21    1    1    2  502  501  0.13146893204E+02  0.42537206519E+00  0.77203968837E+01  0.15252090688E+02  0.00000000000E+00 0. -1.
<mgrwt>
<rscale>  1 0.30000000E+03</rscale>
<asrwt>0</asrwt>
<pdfrwt beam="1">  1        1 0.13679331E+00 0.30000000E+03</pdfrwt>
<pdfrwt beam="2">0</pdfrwt>
<totfact> 0.21035337E+01</totfact>
</mgrwt>
</event>
<event>
 6    1  0.1939311E-004  0.3000000E+03  0.7818608E-02  0.1093470E+00
          1   -1    0    0  502    0  0.00000000000E+00  0.00000000000E+00  0.39901612830E+02  0.39901612830E+02  0.00000000000E+00 0.  1.
         13   -1    0    0    0    0 -0.00000000000E+00 -0.00000000000E+00 -0.10000000000E+04  0.10000000000E+04  0.00000000000E+00 0.  1.
    9000005    2    1    2  501    0  0.96700065265E+01  0.30584908805E+01 -0.97734499016E+03  0.10198938966E+04  0.29133737697E+03 0.  0.
         13    1    3    3    0    0 -0.51109607418E+02 -0.46401803507E+02 -0.92050206403E+03  0.92308686981E+03  0.00000000000E+00 0.  1.
          3    1    3    3  501    0  0.60779613945E+02  0.49460294387E+02 -0.56842926130E+02  0.96807026828E+02  0.00000000000E+00 0.  1.
         21    1    1    2  502  501 -0.96700065265E+01 -0.30584908805E+01  0.17246602986E+02  0.20007716193E+02  0.00000000000E+00 0.  1.
<mgrwt>
<rscale>  1 0.30000000E+03</rscale>
<asrwt>0</asrwt>
<pdfrwt beam="1">  1        1 0.14509708E+00 0.30000000E+03</pdfrwt>
<pdfrwt beam="2">0</pdfrwt>
<totfact> 0.19034228E+01</totfact>
</mgrwt>
</event>
<event>
 6    1  0.1939311E-004  0.3000000E+03  0.7818608E-02  0.1093470E+00
          1   -1    0    0  502    0  0.00000000000E+00  0.00000000000E+00  0.30583744492E+02  0.30583744492E+02  0.00000000000E+00 0.  1.
         13   -1    0    0    0    0 -0.00000000000E+00 -0.00000000000E+00 -0.10000000000E+04  0.10000000000E+04  0.00000000000E+00 0.  1.
    9000005    2    1    2  501    0 -0.13602586302E+02 -0.32734384931E+01 -0.95680563938E+03  0.10117483153E+04  0.32857552589E+03 0.  0.
         13    1    3    3    0    0 -0.38787108319E+02  0.15681194500E+03 -0.56795806574E+03  0.59048352246E+03  0.00000000000E+00 0.  1.
          3    1    3    3  501    0  0.25184522017E+02 -0.16008538349E+03 -0.38884757364E+03  0.42126479283E+03  0.00000000000E+00 0.  1.
         21    1    1    2  502  501  0.13602586302E+02  0.32734384931E+01 -0.12610616132E+02  0.18835429193E+02  0.00000000000E+00 0.  1.
<mgrwt>
<rscale>  1 0.30000000E+03</rscale>
<asrwt>0</asrwt>
<pdfrwt beam="1">  1        1 0.11121385E+00 0.30000000E+03</pdfrwt>
<pdfrwt beam="2">0</pdfrwt>
<totfact> 0.29220488E+01</totfact>
</mgrwt>
</event>
<event>
 6    1  0.1939311E-004  0.3000000E+03  0.7818608E-02  0.1093470E+00
          1   -1    0    0  502    0  0.00000000000E+00  0.00000000000E+00  0.26750359464E+02  0.26750359464E+02  0.00000000000E+00 0.  1.
         13   -1    0    0    0    0 -0.00000000000E+00 -0.00000000000E+00 -0.10000000000E+04  0.10000000000E+04  0.00000000000E+00 0.  1.
    9000005    2    1    2  501    0 -0.87362646774E+01 -0.65984443262E+01 -0.95565196580E+03  0.10060250140E+04  0.31415885677E+03 0.  0.
         13    1    3    3    0    0  0.83794579067E+02  0.32533809214E+02 -0.68015839060E+02  0.11272149123E+03  0.00000000000E+00 0.  1.
          1    1    3    3  501    0 -0.92530843744E+02 -0.39132253540E+02 -0.88763612674E+03  0.89330352278E+03  0.00000000000E+00 0.  1.
         21    1    1    2  502  501  0.87362646774E+01  0.65984443262E+01 -0.17597674731E+02  0.20725345449E+02  0.00000000000E+00 0.  1.
<mgrwt>
<rscale>  1 0.30000000E+03</rscale>
<asrwt>0</asrwt>
<pdfrwt beam="1">  1        1 0.97274240E-01 0.30000000E+03</pdfrwt>
<pdfrwt beam="2">0</pdfrwt>
<totfact> 0.35632190E+01</totfact>
</mgrwt>
</event>
<event>
 6    1  0.1939311E-004  0.3000000E+03  0.7818608E-02  0.1093470E+00
          1   -1    0    0  502    0  0.00000000000E+00  0.00000000000E+00  0.40610863712E+02  0.40610863712E+02  0.00000000000E+00 0.  1.
         13   -1    0    0    0    0 -0.00000000000E+00 -0.00000000000E+00 -0.10000000000E+04  0.10000000000E+04  0.00000000000E+00 0.  1.
    9000005    2    1    2  501    0 -0.35553542273E+02 -0.45282907427E+00 -0.94941696110E+03  0.10036825047E+04  0.32360739295E+03 0.  0.
         13    1    3    3    0    0 -0.17174967594E+03 -0.98337511739E+01 -0.68290155697E+03  0.70423660112E+03  0.00000000000E+00 0.  1.
          3    1    3    3  501    0  0.13619613367E+03  0.93809220997E+01 -0.26651540413E+03  0.29944590357E+03  0.00000000000E+00 0.  1.
         21    1    1    2  502  501  0.35553542273E+02  0.45282907427E+00 -0.99721751909E+01  0.36928359026E+02  0.00000000000E+00 0.  1.
<mgrwt>
<rscale>  1 0.30000000E+03</rscale>
<asrwt>0</asrwt>
<pdfrwt beam="1">  1        1 0.14767618E+00 0.30000000E+03</pdfrwt>
<pdfrwt beam="2">0</pdfrwt>
<totfact> 0.18462120E+01</totfact>
</mgrwt>
</event>
<event>
 6    1  0.1939311E-004  0.3000000E+03  0.7818608E-02  0.1093470E+00
          3   -1    0    0  502    0  0.00000000000E+00  0.00000000000E+00  0.30388414312E+02  0.30388414312E+02  0.00000000000E+00 0.  1.
         13   -1    0    0    0    0 -0.00000000000E+00 -0.00000000000E+00 -0.10000000000E+04  0.10000000000E+04  0.00000000000E+00 0.  1.
    9000005    2    1    2  501    0 -0.10368962684E+02  0.98869950824E+01 -0.95463951517E+03  0.10096656984E+04  0.32845540117E+03 0.  0.
         13    1    3    3    0    0  0.28663414066E+01 -0.47466033211E+02 -0.94938071899E+03  0.95057087574E+03  0.00000000000E+00 0.  1.
          3    1    3    3  501    0 -0.13235304091E+02  0.57353028293E+02 -0.52587961843E+01  0.59094822667E+02  0.00000000000E+00 0.  1.
         21    1    1    2  502  501  0.10368962684E+02 -0.98869950824E+01 -0.14972070516E+02  0.20722715904E+02  0.00000000000E+00 0. -1.
<mgrwt>
<rscale>  1 0.30000000E+03</rscale>
<asrwt>0</asrwt>
<pdfrwt beam="1">  1        3 0.11050356E+00 0.30000000E+03</pdfrwt>
<pdfrwt beam="2">0</pdfrwt>
<totfact> 0.29740476E+00</totfact>
</mgrwt>
</event>
<event>
 6    1  0.1939311E-004  0.3000000E+03  0.7818608E-02  0.1093470E+00
          1   -1    0    0  502    0  0.00000000000E+00  0.00000000000E+00  0.56290853417E+02  0.56290853417E+02  0.00000000000E+00 0.  1.
         13   -1    0    0    0    0 -0.00000000000E+00 -0.00000000000E+00 -0.10000000000E+04  0.10000000000E+04  0.00000000000E+00 0.  1.
    9000005    2    1    2  501    0 -0.96840188953E+02 -0.24163157373E+02 -0.86393430115E+03  0.92851798331E+03  0.32527109964E+03 0.  0.
         13    1    3    3    0    0 -0.10516952855E+02 -0.16779263560E+03 -0.50827253660E+03  0.53535590621E+03  0.00000000000E+00 0.  1.
          3    1    3    3  501    0 -0.86323236098E+02  0.14362947822E+03 -0.35566176455E+03  0.39316207710E+03  0.00000000000E+00 0.  1.
         21    1    1    2  502  501  0.96840188953E+02  0.24163157373E+02 -0.79774845435E+02  0.12777287010E+03  0.00000000000E+00 0.  1.
<mgrwt>
<rscale>  1 0.30000000E+03</rscale>
<asrwt>0</asrwt>
<pdfrwt beam="1">  1        1 0.20469444E+00 0.30000000E+03</pdfrwt>
<pdfrwt beam="2">0</pdfrwt>
<totfact> 0.97311444E+00</totfact>
</mgrwt>
</event>
<event>
 6    1  0.1939311E-004  0.3000000E+03  0.7818608E-02  0.1093470E+00
          3   -1    0    0  502    0  0.00000000000E+00  0.00000000000E+00  0.47353388753E+02  0.47353388753E+02  0.00000000000E+00 0.  1.
         13   -1    0    0    0    0 -0.00000000000E+00 -0.00000000000E+00 -0.10000000000E+04  0.10000000000E+04  0.00000000000E+00 0.  1.
    9000005    2    1    2  501    0 -0.17060407678E+02  0.14012083093E+02 -0.96681290454E+03  0.10211221126E+04  0.32783498972E+03 0.  0.
         13    1    3    3    0    0 -0.59667054864E+02  0.50780024986E+02 -0.32026506340E+02  0.84643165596E+02  0.00000000000E+00 0.  1.
          1    1    3    3  501    0  0.42606647187E+02 -0.36767941893E+02 -0.93478639820E+03  0.93647894701E+03  0.00000000000E+00 0.  1.
         21    1    1    2  502  501  0.17060407678E+02 -0.14012083093E+02  0.14166293291E+02  0.26231276148E+02  0.00000000000E+00 0.  1.
<mgrwt>
<rscale>  1 0.30000000E+03</rscale>
<asrwt>0</asrwt>
<pdfrwt beam="1">  1        3 0.17219450E+00 0.30000000E+03</pdfrwt>
<pdfrwt beam="2">0</pdfrwt>
<totfact> 0.44923078E-01</totfact>
</mgrwt>
</event>
<event>
 6    1  0.1939311E-004  0.3000000E+03  0.7818608E-02  0.1093470E+00
          1   -1    0    0  502    0  0.00000000000E+00  0.00000000000E+00  0.34863779182E+02  0.34863779182E+02  0.00000000000E+00 0.  1.
         13   -1    0    0    0    0 -0.00000000000E+00 -0.00000000000E+00 -0.10000000000E+04  0.10000000000E+04  0.00000000000E+00 0.  1.
    9000005    2    1    2  501    0  0.75158712703E+01 -0.17576109791E+02 -0.91759039654E+03  0.98361913690E+03  0.35379240056E+03 0.  0.
         13    1    3    3    0    0 -0.35782143729E+02  0.14601894807E+03 -0.22464931878E+03  0.27031317288E+03  0.00000000000E+00 0.  1.
          3    1    3    3  501    0  0.43298014999E+02 -0.16359505786E+03 -0.69294107776E+03  0.71330596402E+03  0.00000000000E+00 0.  1.
         21    1    1    2  502  501 -0.75158712703E+01  0.17576109791E+02 -0.47545824276E+02  0.51244642280E+02  0.00000000000E+00 0. -1.
<mgrwt>
<rscale>  1 0.30000000E+03</rscale>
<asrwt>0</asrwt>
<pdfrwt beam="1">  1        1 0.12677765E+00 0.30000000E+03</pdfrwt>
<pdfrwt beam="2">0</pdfrwt>
<totfact> 0.23828776E+01</totfact>
</mgrwt>
</event>
<event>
 6    1  0.1939311E-004  0.3000000E+03  0.7818608E-02  0.1093470E+00
          1   -1    0    0  502    0  0.00000000000E+00  0.00000000000E+00  0.35656987918E+02  0.35656987918E+02  0.00000000000E+00 0.  1.
         13   -1    0    0    0    0 -0.00000000000E+00 -0.00000000000E+00 -0.10000000000E+04  0.10000000000E+04  0.00000000000E+00 0.  1.
    9000005    2    1    2  501    0  0.28838554550E+01  0.18029825266E+02 -0.96429576142E+03  0.10173979229E+04  0.32388088379E+03 0.  0.
         13    1    3    3    0    0  0.48794399709E+02  0.16257349271E+03 -0.57765514954E+03  0.60207682713E+03  0.00000000000E+00 0.  1.
          1    1    3    3  501    0 -0.45910544254E+02 -0.14454366744E+03 -0.38664061188E+03  0.41532109581E+03  0.00000000000E+00 0.  1.
         21    1    1    2  502  501 -0.28838554550E+01 -0.18029825266E+02 -0.47250665553E-01  0.18259064982E+02  0.00000000000E+00 0. -1.
<mgrwt>
<rscale>  1 0.30000000E+03</rscale>
<asrwt>0</asrwt>
<pdfrwt beam="1">  1        1 0.12966205E+00 0.30000000E+03</pdfrwt>
<pdfrwt beam="2">0</pdfrwt>
<totfact> 0.22976988E+01</totfact>
</mgrwt>
</event>
<event>
 6    1  0.1939311E-004  0.3000000E+03  0.7818608E-02  0.1093470E+00
          1   -1    0    0  502    0  0.00000000000E+00  0.00000000000E+00  0.61336209311E+02  0.61336209311E+02  0.00000000000E+00 0.  1.
         13   -1    0    0    0    0 -0.00000000000E+00 -0.00000000000E+00 -0.10000000000E+04  0.10000000000E+04  0.00000000000E+00 0.  1.
    9000005    2    1    2  501    0 -0.14023367083E+02  0.71308543849E+01 -0.97093383132E+03  0.10254355209E+04  0.32948140877E+03 0.  0.
         13    1    3    3    0    0 -0.34260345257E+01 -0.16012649973E+03 -0.53236257677E+03  0.55593358126E+03  0.00000000000E+00 0.  1.
          1    1    3    3  501    0 -0.10597332557E+02  0.16725735412E+03 -0.43857125456E+03  0.46950193960E+03  0.00000000000E+00 0.  1.
         21    1    1    2  502  501  0.14023367083E+02 -0.71308543849E+01  0.32270040636E+02  0.35900688451E+02  0.00000000000E+00 0.  1.
<mgrwt>
<rscale>  1 0.30000000E+03</rscale>
<asrwt>0</asrwt>
<pdfrwt beam="1">  1        1 0.22304123E+00 0.30000000E+03</pdfrwt>
<pdfrwt beam="2">0</pdfrwt>
<totfact> 0.79771584E+00</totfact>
</mgrwt>
</event>
<event>
 6    1  0.1939311E-004  0.3000000E+03  0.7818608E-02  0.1093470E+00
          1   -1    0    0  502    0  0.00000000000E+00  0.00000000000E+00  0.23403660003E+02  0.23403660003E+02  0.00000000000E+00 0.  1.
         13   -1    0    0    0    0 -0.00000000000E+00 -0.00000000000E+00 -0.10000000000E+04  0.10000000000E+04  0.00000000000E+00 0.  1.
    9000005    2    1    2  501    0  0.53291258529E+01  0.66637941571E+01 -0.95323232998E+03  0.99853032691E+03  0.29721731631E+03 0.  0.
         13    1    3    3    0    0  0.11057381788E+03  0.98596128268E+02 -0.61447669018E+03  0.63208335564E+03  0.00000000000E+00 0.  1.
          3    1    3    3  501    0 -0.10524469203E+03 -0.91932334111E+02 -0.33875563980E+03  0.36644697127E+03  0.00000000000E+00 0.  1.
         21    1    1    2  502  501 -0.53291258529E+01 -0.66637941571E+01 -0.23364010018E+02  0.24873333091E+02  0.00000000000E+00 0.  1.
<mgrwt>
<rscale>  1 0.30000000E+03</rscale>
<asrwt>0</asrwt>
<pdfrwt beam="1">  1        1 0.85104398E-01 0.30000000E+03</pdfrwt>
<pdfrwt beam="2">0</pdfrwt>
<totfact> 0.43095140E+01</totfact>
</mgrwt>
</event>
<event>
 6    1  0.1939311E-004  0.3000000E+03  0.7818608E-02  0.1093470E+00
          3   -1    0    0  502    0  0.00000000000E+00  0.00000000000E+00  0.35606563276E+02  0.35606563276E+02  0.00000000000E+00 0.  1.
         13   -1    0    0    0    0 -0.00000000000E+00 -0.00000000000E+00 -0.10000000000E+04  0.10000000000E+04  0.00000000000E+00 0.  1.
    9000005    2    1    2  501    0  0.23392971638E+02  0.70112354254E+02 -0.70700888568E+03  0.76781974423E+03  0.29021133998E+03 0.  0.
         13    1    3    3    0    0 -0.97659636031E+02  0.98908720825E+02 -0.18623720617E+03  0.23238897677E+03  0.00000000000E+00 0.  1.
          1    1    3    3  501    0  0.12105260767E+03 -0.28796366572E+02 -0.52077167952E+03  0.53543076745E+03  0.00000000000E+00 0.  1.
         21    1    1    2  502  501 -0.23392971638E+02 -0.70112354254E+02 -0.25738455104E+03  0.26778681905E+03  0.00000000000E+00 0.  1.
<mgrwt>
<rscale>  1 0.30000000E+03</rscale>
<asrwt>0</asrwt>
<pdfrwt beam="1">  1        3 0.12947868E+00 0.30000000E+03</pdfrwt>
<pdfrwt beam="2">0</pdfrwt>
<totfact> 0.17944464E+00</totfact>
</mgrwt>
</event>
<event>
 6    1  0.1939311E-004  0.3000000E+03  0.7818608E-02  0.1093470E+00
          1   -1    0    0  502    0  0.00000000000E+00  0.00000000000E+00  0.36941110823E+02  0.36941110823E+02  0.00000000000E+00 0.  1.
         13   -1    0    0    0    0 -0.00000000000E+00 -0.00000000000E+00 -0.10000000000E+04  0.10000000000E+04  0.00000000000E+00 0.  1.
    9000005    2    1    2  501    0 -0.57263007101E+01 -0.34350596694E+02 -0.94208443106E+03  0.99628792022E+03  0.32226354233E+03 0.  0.
         13    1    3    3    0    0  0.13644596420E+03 -0.66266400225E+02 -0.28090916477E+03  0.31924707641E+03  0.00000000000E+00 0.  1.
          1    1    3    3  501    0 -0.14217226491E+03  0.31915803530E+02 -0.66117526629E+03  0.67704084380E+03  0.00000000000E+00 0.  1.
         21    1    1    2  502  501  0.57263007101E+01  0.34350596694E+02 -0.20974458117E+02  0.40653190605E+02  0.00000000000E+00 0. -1.
<mgrwt>
<rscale>  1 0.30000000E+03</rscale>
<asrwt>0</asrwt>
<pdfrwt beam="1">  1        1 0.13433160E+00 0.30000000E+03</pdfrwt>
<pdfrwt beam="2">0</pdfrwt>
<totfact> 0.21680171E+01</totfact>
</mgrwt>
</event>
<event>
 6    1  0.1939311E-004  0.3000000E+03  0.7818608E-02  0.1093470E+00
          1   -1    0    0  502    0  0.00000000000E+00  0.00000000000E+00  0.35568595441E+02  0.35568595441E+02  0.00000000000E+00 0.  1.
         13   -1    0    0    0    0 -0.00000000000E+00 -0.00000000000E+00 -0.10000000000E+04  0.10000000000E+04  0.00000000000E+00 0.  1.
    9000005    2    1    2  501    0  0.11466917714E+02 -0.26152194625E+02 -0.94617886384E+03  0.10016778485E+04  0.32754945017E+03 0.  0.
         13    1    3    3    0    0 -0.68694547896E+02  0.12239696856E+03 -0.60446609483E+03  0.62054751521E+03  0.00000000000E+00 0.  1.
          3    1    3    3  501    0  0.80161465610E+02 -0.14854916319E+03 -0.34171276901E+03  0.38113033329E+03  0.00000000000E+00 0.  1.
         21    1    1    2  502  501 -0.11466917714E+02  0.26152194625E+02 -0.18252540716E+02  0.33890746940E+02  0.00000000000E+00 0.  1.
<mgrwt>
<rscale>  1 0.30000000E+03</rscale>
<asrwt>0</asrwt>
<pdfrwt beam="1">  1        1 0.12934062E+00 0.30000000E+03</pdfrwt>
<pdfrwt beam="2">0</pdfrwt>
<totfact> 0.23069942E+01</totfact>
</mgrwt>
</event>
<event>
 6    1  0.1939311E-004  0.3000000E+03  0.7818608E-02  0.1093470E+00
          1   -1    0    0  502    0  0.00000000000E+00  0.00000000000E+00  0.37455158615E+02  0.37455158615E+02  0.00000000000E+00 0.  1.
         13   -1    0    0    0    0 -0.00000000000E+00 -0.00000000000E+00 -0.10000000000E+04  0.10000000000E+04  0.00000000000E+00 0.  1.
    9000005    2    1    2  501    0  0.12928180102E+02 -0.21643290147E+02 -0.95674961433E+03  0.10115871377E+04  0.32757158425E+03 0.  0.
         13    1    3    3    0    0 -0.41415472418E+02  0.13221972725E+03 -0.64499943009E+03  0.65971324259E+03  0.00000000000E+00 0.  1.
          1    1    3    3  501    0  0.54343652520E+02 -0.15386301740E+03 -0.31175018424E+03  0.35187389512E+03  0.00000000000E+00 0.  1.
         21    1    1    2  502  501 -0.12928180102E+02  0.21643290147E+02 -0.57952270571E+01  0.25868020910E+02  0.00000000000E+00 0. -1.
<mgrwt>
<rscale>  1 0.30000000E+03</rscale>
<asrwt>0</asrwt>
<pdfrwt beam="1">  1        1 0.13620086E+00 0.30000000E+03</pdfrwt>
<pdfrwt beam="2">0</pdfrwt>
<totfact> 0.21188165E+01</totfact>
</mgrwt>
</event>
<event>
 6    1  0.1939311E-004  0.3000000E+03  0.7818608E-02  0.1093470E+00
          1   -1    0    0  502    0  0.00000000000E+00  0.00000000000E+00  0.34995258604E+02  0.34995258604E+02  0.00000000000E+00 0.  1.
         13   -1    0    0    0    0 -0.00000000000E+00 -0.00000000000E+00 -0.10000000000E+04  0.10000000000E+04  0.00000000000E+00 0.  1.
    9000005    2    1    2  501    0 -0.13797642023E+02 -0.13346461771E+02 -0.95864420801E+03  0.10147725152E+04  0.33225899088E+03 0.  0.
         13    1    3    3    0    0  0.87719313488E+02 -0.14139965194E+03 -0.55158751475E+03  0.57614002287E+03  0.00000000000E+00 0.  1.
          3    1    3    3  501    0 -0.10151695551E+03  0.12805319017E+03 -0.40705669326E+03  0.43863249229E+03  0.00000000000E+00 0.  1.
         21    1    1    2  502  501  0.13797642023E+02  0.13346461771E+02 -0.63605333868E+01  0.20222743438E+02  0.00000000000E+00 0. -1.
<mgrwt>
<rscale>  1 0.30000000E+03</rscale>
<asrwt>0</asrwt>
<pdfrwt beam="1">  1        1 0.12725575E+00 0.30000000E+03</pdfrwt>
<pdfrwt beam="2">0</pdfrwt>
<totfact> 0.23684812E+01</totfact>
</mgrwt>
</event>
<event>
 6    1  0.1939311E-004  0.3000000E+03  0.7818608E-02  0.1093470E+00
          1   -1    0    0  502    0  0.00000000000E+00  0.00000000000E+00  0.27776315432E+02  0.27776315432E+02  0.00000000000E+00 0.  1.
         13   -1    0    0    0    0 -0.00000000000E+00 -0.00000000000E+00 -0.10000000000E+04  0.10000000000E+04  0.00000000000E+00 0.  1.
    9000005    2    1    2  501    0 -0.14705130805E+01 -0.12598351239E+02 -0.94975135410E+03  0.10019715388E+04  0.31899600154E+03 0.  0.
         13    1    3    3    0    0  0.14387050415E+03  0.11910710923E+02 -0.67413494793E+03  0.68941896915E+03  0.00000000000E+00 0.  1.
          1    1    3    3  501    0 -0.14534101723E+03 -0.24509062162E+02 -0.27561640616E+03  0.31255256960E+03  0.00000000000E+00 0.  1.
         21    1    1    2  502  501  0.14705130805E+01  0.12598351239E+02 -0.22472330472E+02  0.25804776680E+02  0.00000000000E+00 0.  1.
<mgrwt>
<rscale>  1 0.30000000E+03</rscale>
<asrwt>0</asrwt>
<pdfrwt beam="1">  1        1 0.10100500E+00 0.30000000E+03</pdfrwt>
<pdfrwt beam="2">0</pdfrwt>
<totfact> 0.33729400E+01</totfact>
</mgrwt>
</event>
<event>
 6    1  0.1939311E-004  0.3000000E+03  0.7818608E-02  0.1093470E+00
          1   -1    0    0  502    0  0.00000000000E+00  0.00000000000E+00  0.40227037077E+02  0.40227037077E+02  0.00000000000E+00 0.  1.
         13   -1    0    0    0    0 -0.00000000000E+00 -0.00000000000E+00 -0.10000000000E+04  0.10000000000E+04  0.00000000000E+00 0.  1.
    9000005    2    1    2  501    0 -0.10509906508E+02 -0.76952320229E+02 -0.83203812498E+03  0.89073353706E+03  0.30836127334E+03 0.  0.
         13    1    3    3    0    0  0.13174420635E+03  0.33942305750E+02 -0.40214282648E+03  0.42453205876E+03  0.00000000000E+00 0.  1.
          3    1    3    3  501    0 -0.14225411286E+03 -0.11089462598E+03 -0.42989529850E+03  0.46620147829E+03  0.00000000000E+00 0.  1.
         21    1    1    2  502  501  0.10509906508E+02  0.76952320229E+02 -0.12773483795E+03  0.14949350002E+03  0.00000000000E+00 0.  1.
<mgrwt>
<rscale>  1 0.30000000E+03</rscale>
<asrwt>0</asrwt>
<pdfrwt beam="1">  1        1 0.14628044E+00 0.30000000E+03</pdfrwt>
<pdfrwt beam="2">0</pdfrwt>
<totfact> 0.18769006E+01</totfact>
</mgrwt>
</event>
<event>
 6    1  0.1939311E-004  0.3000000E+03  0.7818608E-02  0.1093470E+00
          1   -1    0    0  502    0  0.00000000000E+00  0.00000000000E+00  0.22609788304E+02  0.22609788304E+02  0.00000000000E+00 0.  1.
         13   -1    0    0    0    0 -0.00000000000E+00 -0.00000000000E+00 -0.10000000000E+04  0.10000000000E+04  0.00000000000E+00 0.  1.
    9000005    2    1    2  501    0  0.25141188100E+02 -0.44724515769E+01 -0.95366616223E+03  0.98775419069E+03  0.25598263628E+03 0.  0.
         13    1    3    3    0    0 -0.54395297290E+01  0.67473319245E+02 -0.59344478832E+02  0.90022244259E+02  0.00000000000E+00 0.  1.
          3    1    3    3  501    0  0.30580717829E+02 -0.71945770822E+02 -0.89432168340E+03  0.89773194643E+03  0.00000000000E+00 0.  1.
         21    1    1    2  502  501 -0.25141188100E+02  0.44724515769E+01 -0.23724049467E+02  0.34855597618E+02  0.00000000000E+00 0. -1.
<mgrwt>
<rscale>  1 0.30000000E+03</rscale>
<asrwt>0</asrwt>
<pdfrwt beam="1">  1        1 0.82217585E-01 0.30000000E+03</pdfrwt>
<pdfrwt beam="2">0</pdfrwt>
<totfact> 0.45219263E+01</totfact>
</mgrwt>
</event>
<event>
 6    1  0.1939311E-004  0.3000000E+03  0.7818608E-02  0.1093470E+00
          1   -1    0    0  502    0  0.00000000000E+00  0.00000000000E+00  0.28052472214E+02  0.28052472214E+02  0.00000000000E+00 0.  1.
         13   -1    0    0    0    0 -0.00000000000E+00 -0.00000000000E+00 -0.10000000000E+04  0.10000000000E+04  0.00000000000E+00 0.  1.
    9000005    2    1    2  501    0  0.12182730189E+02 -0.33935556415E+01 -0.96208447845E+03  0.10120145522E+04  0.31369886061E+03 0.  0.
         13    1    3    3    0    0 -0.22121258437E+02 -0.13407396908E+03 -0.73756374629E+03  0.74997697238E+03  0.00000000000E+00 0.  1.
          1    1    3    3  501    0  0.34303988627E+02  0.13068041344E+03 -0.22452073216E+03  0.26203757986E+03  0.00000000000E+00 0.  1.
         21    1    1    2  502  501 -0.12182730189E+02  0.33935556415E+01 -0.98630493390E+01  0.16037919972E+02  0.00000000000E+00 0. -1.
<mgrwt>
<rscale>  1 0.30000000E+03</rscale>
<asrwt>0</asrwt>
<pdfrwt beam="1">  1        1 0.10200920E+00 0.30000000E+03</pdfrwt>
<pdfrwt beam="2">0</pdfrwt>
<totfact> 0.33242779E+01</totfact>
</mgrwt>
</event>
<event>
 6    1  0.1939311E-004  0.3000000E+03  0.7818608E-02  0.1093470E+00
          3   -1    0    0  502    0  0.00000000000E+00  0.00000000000E+00  0.27084108290E+02  0.27084108290E+02  0.00000000000E+00 0.  1.
         13   -1    0    0    0    0 -0.00000000000E+00 -0.00000000000E+00 -0.10000000000E+04  0.10000000000E+04  0.00000000000E+00 0.  1.
    9000005    2    1    2  501    0  0.83003926754E+01  0.73980012017E+01 -0.92511903163E+03  0.97801103244E+03  0.31707527488E+03 0.  0.
         13    1    3    3    0    0  0.13867628233E+03  0.77234372357E+02 -0.35234651255E+03  0.38645093409E+03  0.00000000000E+00 0.  1.
          3    1    3    3  501    0 -0.13037588965E+03 -0.69836371155E+02 -0.57277251908E+03  0.59156009834E+03  0.00000000000E+00 0.  1.
         21    1    1    2  502  501 -0.83003926754E+01 -0.73980012017E+01 -0.47796860077E+02  0.49073075852E+02  0.00000000000E+00 0. -1.
<mgrwt>
<rscale>  1 0.30000000E+03</rscale>
<asrwt>0</asrwt>
<pdfrwt beam="1">  1        3 0.98487874E-01 0.30000000E+03</pdfrwt>
<pdfrwt beam="2">0</pdfrwt>
<totfact> 0.40756655E+00</totfact>
</mgrwt>
</event>
<event>
 6    1  0.1939311E-004  0.3000000E+03  0.7818608E-02  0.1093470E+00
          1   -1    0    0  502    0  0.00000000000E+00  0.00000000000E+00  0.29375299827E+02  0.29375299827E+02  0.00000000000E+00 0.  1.
         13   -1    0    0    0    0 -0.00000000000E+00 -0.00000000000E+00 -0.10000000000E+04  0.10000000000E+04  0.00000000000E+00 0.  1.
    9000005    2    1    2  501    0 -0.13284509146E+02 -0.28348740257E+01 -0.95844611966E+03  0.10111316018E+04  0.32184411940E+03 0.  0.
         13    1    3    3    0    0 -0.14505788391E+03  0.76227240471E+02 -0.57918932312E+03  0.60192412635E+03  0.00000000000E+00 0.  1.
          1    1    3    3  501    0  0.13177337476E+03 -0.79062114497E+02 -0.37925679655E+03  0.40920747546E+03  0.00000000000E+00 0.  1.
         21    1    1    2  502  501  0.13284509146E+02  0.28348740257E+01 -0.12178580508E+02  0.18243698012E+02  0.00000000000E+00 0.  1.
<mgrwt>
<rscale>  1 0.30000000E+03</rscale>
<asrwt>0</asrwt>
<pdfrwt beam="1">  1        1 0.10681950E+00 0.30000000E+03</pdfrwt>
<pdfrwt beam="2">0</pdfrwt>
<totfact> 0.31047932E+01</totfact>
</mgrwt>
</event>
<event>
 6    1  0.1939311E-004  0.3000000E+03  0.7818608E-02  0.1093470E+00
          1   -1    0    0  502    0  0.00000000000E+00  0.00000000000E+00  0.38092070440E+02  0.38092070440E+02  0.00000000000E+00 0.  1.
         13   -1    0    0    0    0 -0.00000000000E+00 -0.00000000000E+00 -0.10000000000E+04  0.10000000000E+04  0.00000000000E+00 0.  1.
    9000005    2    1    2  501    0  0.31204027666E+01 -0.13127431344E+02 -0.96408515403E+03  0.10244243467E+04  0.34612568732E+03 0.  0.
         13    1    3    3    0    0  0.15891208307E+02  0.13834036854E+02 -0.98673960830E+03  0.98696452098E+03  0.00000000000E+00 0.  1.
          1    1    3    3  501    0 -0.12770805540E+02 -0.26961468198E+02  0.22654454267E+02  0.37459825676E+02  0.00000000000E+00 0.  1.
         21    1    1    2  502  501 -0.31204027666E+01  0.13127431344E+02  0.21772244740E+01  0.13667723787E+02  0.00000000000E+00 0.  1.
<mgrwt>
<rscale>  1 0.30000000E+03</rscale>
<asrwt>0</asrwt>
<pdfrwt beam="1">  1        1 0.13851691E+00 0.30000000E+03</pdfrwt>
<pdfrwt beam="2">0</pdfrwt>
<totfact> 0.20598703E+01</totfact>
</mgrwt>
</event>
<event>
 6    1  0.1939311E-004  0.3000000E+03  0.7818608E-02  0.1093470E+00
          3   -1    0    0  502    0  0.00000000000E+00  0.00000000000E+00  0.32462169872E+02  0.32462169872E+02  0.00000000000E+00 0.  1.
         13   -1    0    0    0    0 -0.00000000000E+00 -0.00000000000E+00 -0.10000000000E+04  0.10000000000E+04  0.00000000000E+00 0.  1.
    9000005    2    1    2  501    0  0.23129914876E+02  0.11057317257E+01 -0.93035991697E+03  0.98866248001E+03  0.33368804096E+03 0.  0.
         13    1    3    3    0    0  0.17322493521E+02 -0.65305991804E+02 -0.12901363526E+02  0.68785074894E+02  0.00000000000E+00 0.  1.
          3    1    3    3  501    0  0.58074213557E+01  0.66411723530E+02 -0.91745855344E+03  0.91987740512E+03  0.00000000000E+00 0.  1.
         21    1    1    2  502  501 -0.23129914876E+02 -0.11057317257E+01 -0.37177913158E+02  0.43799689857E+02  0.00000000000E+00 0.  1.
<mgrwt>
<rscale>  1 0.30000000E+03</rscale>
<asrwt>0</asrwt>
<pdfrwt beam="1">  1        3 0.11804450E+00 0.30000000E+03</pdfrwt>
<pdfrwt beam="2">0</pdfrwt>
<totfact> 0.24367626E+00</totfact>
</mgrwt>
</event>
<event>
 6    1  0.1939311E-004  0.3000000E+03  0.7818608E-02  0.1093470E+00
          1   -1    0    0  502    0  0.00000000000E+00  0.00000000000E+00  0.52525784270E+02  0.52525784270E+02  0.00000000000E+00 0.  1.
         13   -1    0    0    0    0 -0.00000000000E+00 -0.00000000000E+00 -0.10000000000E+04  0.10000000000E+04  0.00000000000E+00 0.  1.
    9000005    2    1    2  501    0 -0.13997454978E+01 -0.11527016972E+02 -0.97235627349E+03  0.10250676670E+04  0.32427175002E+03 0.  0.
         13    1    3    3    0    0  0.14270707939E+03 -0.21729586964E+02 -0.71961844033E+03  0.73395380313E+03  0.00000000000E+00 0.  1.
          1    1    3    3  501    0 -0.14410682488E+03  0.10202569992E+02 -0.25273783315E+03  0.29111386384E+03  0.00000000000E+00 0.  1.
         21    1    1    2  502  501  0.13997454978E+01  0.11527016972E+02  0.24882057756E+02  0.27458117304E+02  0.00000000000E+00 0.  1.
<mgrwt>
<rscale>  1 0.30000000E+03</rscale>
<asrwt>0</asrwt>
<pdfrwt beam="1">  1        1 0.19100325E+00 0.30000000E+03</pdfrwt>
<pdfrwt beam="2">0</pdfrwt>
<totfact> 0.11307975E+01</totfact>
</mgrwt>
</event>
<event>
 6    1  0.3008071E-004  0.3000000E+03  0.7818608E-02  0.1093470E+00
          1   -1    0    0  502    0  0.00000000000E+00  0.00000000000E+00  0.78809458646E+02  0.78809458646E+02  0.00000000000E+00 0.  1.
         13   -1    0    0    0    0 -0.00000000000E+00 -0.00000000000E+00 -0.10000000000E+04  0.10000000000E+04  0.00000000000E+00 0.  1.
    9000005    2    1    2  501    0  0.41305976268E+02 -0.89177934981E+01 -0.91141454714E+03  0.10354357249E+04  0.48955587315E+03 0.  0.
         13    1    3    3    0    0 -0.12485646026E+03  0.17204428265E+03 -0.61351724115E+03  0.64930099034E+03  0.00000000000E+00 0.  1.
          3    1    3    3  501    0  0.16616243653E+03 -0.18096207615E+03 -0.29789730599E+03  0.38613473456E+03  0.00000000000E+00 0.  1.
         21    1    1    2  502  501 -0.41305976268E+02  0.89177934981E+01 -0.97759942127E+01  0.43373733748E+02  0.00000000000E+00 0.  1.
<mgrwt>
<rscale>  1 0.30000000E+03</rscale>
<asrwt>0</asrwt>
<pdfrwt beam="1">  1        1 0.28658045E+00 0.30000000E+03</pdfrwt>
<pdfrwt beam="2">0</pdfrwt>
<totfact> 0.40214006E+00</totfact>
</mgrwt>
</event>
<event>
 6    1  0.1939311E-004  0.3000000E+03  0.7818608E-02  0.1093470E+00
          1   -1    0    0  502    0  0.00000000000E+00  0.00000000000E+00  0.28141457653E+02  0.28141457653E+02  0.00000000000E+00 0.  1.
         13   -1    0    0    0    0 -0.00000000000E+00 -0.00000000000E+00 -0.10000000000E+04  0.10000000000E+04  0.00000000000E+00 0.  1.
    9000005    2    1    2  501    0 -0.14019217641E+01  0.11464078949E+02 -0.96952841565E+03  0.10163592685E+04  0.30474156825E+03 0.  0.
         13    1    3    3    0    0  0.82420232475E+02  0.13252642455E+03 -0.55141208151E+03  0.57307209980E+03  0.00000000000E+00 0.  1.
          1    1    3    3  501    0 -0.83822154239E+02 -0.12106234561E+03 -0.41811633414E+03  0.44328716871E+03  0.00000000000E+00 0.  1.
         21    1    1    2  502  501  0.14019217641E+01 -0.11464078949E+02 -0.23301266947E+01  0.11782189151E+02  0.00000000000E+00 0. -1.
<mgrwt>
<rscale>  1 0.30000000E+03</rscale>
<asrwt>0</asrwt>
<pdfrwt beam="1">  1        1 0.10233279E+00 0.30000000E+03</pdfrwt>
<pdfrwt beam="2">0</pdfrwt>
<totfact> 0.33088166E+01</totfact>
</mgrwt>
</event>
<event>
 6    1  0.1939311E-004  0.3000000E+03  0.7818608E-02  0.1093470E+00
          1   -1    0    0  502    0  0.00000000000E+00  0.00000000000E+00  0.66579006096E+02  0.66579006096E+02  0.00000000000E+00 0.  1.
         13   -1    0    0    0    0 -0.00000000000E+00 -0.00000000000E+00 -0.10000000000E+04  0.10000000000E+04  0.00000000000E+00 0.  1.
    9000005    2    1    2  501    0 -0.39396540188E+02 -0.22525790848E+02 -0.95200237424E+03  0.10175405892E+04  0.35639981984E+03 0.  0.
         13    1    3    3    0    0 -0.81331877597E+02  0.84469177031E+02 -0.89753399351E+02  0.14766715571E+03  0.00000000000E+00 0.  1.
          1    1    3    3  501    0  0.41935337409E+02 -0.10699496788E+03 -0.86224897488E+03  0.86987343353E+03  0.00000000000E+00 0.  1.
         21    1    1    2  502  501  0.39396540188E+02  0.22525790848E+02  0.18581380331E+02  0.49038416850E+02  0.00000000000E+00 0. -1.
<mgrwt>
<rscale>  1 0.30000000E+03</rscale>
<asrwt>0</asrwt>
<pdfrwt beam="1">  1        1 0.24210599E+00 0.30000000E+03</pdfrwt>
<pdfrwt beam="2">0</pdfrwt>
<totfact> 0.64945443E+00</totfact>
</mgrwt>
</event>
<event>
 6    1  0.1939311E-004  0.3000000E+03  0.7818608E-02  0.1093470E+00
          1   -1    0    0  502    0  0.00000000000E+00  0.00000000000E+00  0.36907688199E+02  0.36907688199E+02  0.00000000000E+00 0.  1.
         13   -1    0    0    0    0 -0.00000000000E+00 -0.00000000000E+00 -0.10000000000E+04  0.10000000000E+04  0.00000000000E+00 0.  1.
    9000005    2    1    2  501    0 -0.34859948235E+02 -0.17697075803E+02 -0.93785369979E+03  0.99037393680E+03  0.31582047116E+03 0.  0.
         13    1    3    3    0    0  0.44993540985E+02  0.86927063663E+02 -0.77419194852E+03  0.78035498735E+03  0.00000000000E+00 0.  1.
          3    1    3    3  501    0 -0.79853489220E+02 -0.10462413947E+03 -0.16366175127E+03  0.21001894945E+03  0.00000000000E+00 0.  1.
         21    1    1    2  502  501  0.34859948235E+02  0.17697075803E+02 -0.25238612011E+02  0.46533751398E+02  0.00000000000E+00 0.  1.
<mgrwt>
<rscale>  1 0.30000000E+03</rscale>
<asrwt>0</asrwt>
<pdfrwt beam="1">  1        1 0.13421006E+00 0.30000000E+03</pdfrwt>
<pdfrwt beam="2">0</pdfrwt>
<totfact> 0.21712685E+01</totfact>
</mgrwt>
</event>
<event>
 6    1  0.1939311E-004  0.3000000E+03  0.7818608E-02  0.1093470E+00
          1   -1    0    0  502    0  0.00000000000E+00  0.00000000000E+00  0.86387829705E+02  0.86387829705E+02  0.00000000000E+00 0.  1.
         13   -1    0    0    0    0 -0.00000000000E+00 -0.00000000000E+00 -0.10000000000E+04  0.10000000000E+04  0.00000000000E+00 0.  1.
    9000005    2    1    2  501    0 -0.42716231678E+02 -0.18655803321E+02 -0.96123939604E+03  0.10197464906E+04  0.33723732466E+03 0.  0.
         13    1    3    3    0    0 -0.13581395946E+03  0.73994768496E+02 -0.23235605288E+03  0.27912361537E+03  0.00000000000E+00 0.  1.
          1    1    3    3  501    0  0.93097727777E+02 -0.92650571817E+02 -0.72888334316E+03  0.74062287523E+03  0.00000000000E+00 0.  1.
         21    1    1    2  502  501  0.42716231678E+02  0.18655803321E+02  0.47627225742E+02  0.66641339109E+02  0.00000000000E+00 0.  1.
<mgrwt>
<rscale>  1 0.30000000E+03</rscale>
<asrwt>0</asrwt>
<pdfrwt beam="1">  1        1 0.31413822E+00 0.30000000E+03</pdfrwt>
<pdfrwt beam="2">0</pdfrwt>
<totfact> 0.29731344E+00</totfact>
</mgrwt>
</event>
<event>
 6    1  0.1939311E-004  0.3000000E+03  0.7818608E-02  0.1093470E+00
          1   -1    0    0  502    0  0.00000000000E+00  0.00000000000E+00  0.60798205105E+02  0.60798205105E+02  0.00000000000E+00 0.  1.
         13   -1    0    0    0    0 -0.00000000000E+00 -0.00000000000E+00 -0.10000000000E+04  0.10000000000E+04  0.00000000000E+00 0.  1.
    9000005    2    1    2  501    0 -0.54832518261E+02  0.80080009868E+02 -0.62937376280E+03  0.73612479611E+03  0.36925461284E+03 0.  0.
         13    1    3    3    0    0  0.14561867392E+03  0.76339264216E+02 -0.17847949426E+03  0.24266728524E+03  0.00000000000E+00 0.  1.
          3    1    3    3  501    0 -0.20045119218E+03  0.37407456526E+01 -0.45089426855E+03  0.49345751087E+03  0.00000000000E+00 0.  1.
         21    1    1    2  502  501  0.54832518261E+02 -0.80080009868E+02 -0.30982803209E+03  0.32467340900E+03  0.00000000000E+00 0.  1.
<mgrwt>
<rscale>  1 0.30000000E+03</rscale>
<asrwt>0</asrwt>
<pdfrwt beam="1">  1        1 0.22108485E+00 0.30000000E+03</pdfrwt>
<pdfrwt beam="2">0</pdfrwt>
<totfact> 0.81473183E+00</totfact>
</mgrwt>
</event>
<event>
 6    1  0.1939311E-004  0.3000000E+03  0.7818608E-02  0.1093470E+00
          1   -1    0    0  502    0  0.00000000000E+00  0.00000000000E+00  0.30100190314E+02  0.30100190314E+02  0.00000000000E+00 0.  1.
         13   -1    0    0    0    0 -0.00000000000E+00 -0.00000000000E+00 -0.10000000000E+04  0.10000000000E+04  0.00000000000E+00 0.  1.
    9000005    2    1    2  501    0 -0.52249218900E+01  0.82560300400E+01 -0.96680619246E+03  0.10198516632E+04  0.32448072251E+03 0.  0.
         13    1    3    3    0    0  0.78427903889E+02  0.54896010134E+02 -0.89510563466E+03  0.90021031167E+03  0.00000000000E+00 0.  1.
          3    1    3    3  501    0 -0.83652825779E+02 -0.46639980094E+02 -0.71700557802E+02  0.11964135152E+03  0.00000000000E+00 0.  1.
         21    1    1    2  502  501  0.52249218900E+01 -0.82560300400E+01 -0.30936172268E+01  0.10248527129E+02  0.00000000000E+00 0. -1.
<mgrwt>
<rscale>  1 0.30000000E+03</rscale>
<asrwt>0</asrwt>
<pdfrwt beam="1">  1        1 0.10945547E+00 0.30000000E+03</pdfrwt>
<pdfrwt beam="2">0</pdfrwt>
<totfact> 0.29932855E+01</totfact>
</mgrwt>
</event>
<event>
 6    1  0.1939311E-004  0.3000000E+03  0.7818608E-02  0.1093470E+00
          1   -1    0    0  502    0  0.00000000000E+00  0.00000000000E+00  0.37011710504E+02  0.37011710504E+02  0.00000000000E+00 0.  1.
         13   -1    0    0    0    0 -0.00000000000E+00 -0.00000000000E+00 -0.10000000000E+04  0.10000000000E+04  0.00000000000E+00 0.  1.
    9000005    2    1    2  501    0  0.28706079722E+02 -0.19343915567E+02 -0.93393767022E+03  0.99182139558E+03  0.33207210482E+03 0.  0.
         13    1    3    3    0    0  0.81487165838E+02 -0.71856182128E+02 -0.90569944699E+03  0.91219239055E+03  0.00000000000E+00 0.  1.
          1    1    3    3  501    0 -0.52781086116E+02  0.52512266560E+02 -0.28238223231E+02  0.79629005030E+02  0.00000000000E+00 0.  1.
         21    1    1    2  502  501 -0.28706079722E+02  0.19343915567E+02 -0.29050619279E+02  0.45190314925E+02  0.00000000000E+00 0.  1.
<mgrwt>
<rscale>  1 0.30000000E+03</rscale>
<asrwt>0</asrwt>
<pdfrwt beam="1">  1        1 0.13458832E+00 0.30000000E+03</pdfrwt>
<pdfrwt beam="2">0</pdfrwt>
<totfact> 0.21611704E+01</totfact>
</mgrwt>
</event>
<event>
 6    1  0.1939311E-004  0.3000000E+03  0.7818608E-02  0.1093470E+00
          1   -1    0    0  502    0  0.00000000000E+00  0.00000000000E+00  0.33677563450E+02  0.33677563450E+02  0.00000000000E+00 0.  1.
         13   -1    0    0    0    0 -0.00000000000E+00 -0.00000000000E+00 -0.10000000000E+04  0.10000000000E+04  0.00000000000E+00 0.  1.
    9000005    2    1    2  501    0  0.32612430840E+02 -0.77380830651E+01 -0.90142298622E+03  0.96063382842E+03  0.33034906331E+03 0.  0.
         13    1    3    3    0    0 -0.13930507266E+03 -0.23483765929E+02 -0.56633454268E+03  0.58368844837E+03  0.00000000000E+00 0.  1.
          3    1    3    3  501    0  0.17191750350E+03  0.15745682864E+02 -0.33508844355E+03  0.37694538005E+03  0.00000000000E+00 0.  1.
         21    1    1    2  502  501 -0.32612430840E+02  0.77380830651E+01 -0.64899450327E+02  0.73043735033E+02  0.00000000000E+00 0. -1.
<mgrwt>
<rscale>  1 0.30000000E+03</rscale>
<asrwt>0</asrwt>
<pdfrwt beam="1">  1        1 0.12246413E+00 0.30000000E+03</pdfrwt>
<pdfrwt beam="2">0</pdfrwt>
<totfact> 0.25179524E+01</totfact>
</mgrwt>
</event>
<event>
 6    1  0.1939311E-004  0.3000000E+03  0.7818608E-02  0.1093470E+00
          1   -1    0    0  502    0  0.00000000000E+00  0.00000000000E+00  0.30088094390E+02  0.30088094390E+02  0.00000000000E+00 0.  1.
         13   -1    0    0    0    0 -0.00000000000E+00 -0.00000000000E+00 -0.10000000000E+04  0.10000000000E+04  0.00000000000E+00 0.  1.
    9000005    2    1    2  501    0  0.98119945750E+01  0.72445270238E+01 -0.97412063676E+03  0.10171856982E+04  0.29258669018E+03 0.  0.
         13    1    3    3    0    0 -0.15549581146E+02 -0.59061649787E+02 -0.25945835746E+02  0.66357021798E+02  0.00000000000E+00 0.  1.
          3    1    3    3  501    0  0.25361575721E+02  0.66306176811E+02 -0.94817480101E+03  0.95082867641E+03  0.00000000000E+00 0.  1.
         21    1    1    2  502  501 -0.98119945750E+01 -0.72445270238E+01  0.42087311496E+01  0.12902396182E+02  0.00000000000E+00 0.  1.
<mgrwt>
<rscale>  1 0.30000000E+03</rscale>
<asrwt>0</asrwt>
<pdfrwt beam="1">  1        1 0.10941148E+00 0.30000000E+03</pdfrwt>
<pdfrwt beam="2">0</pdfrwt>
<totfact> 0.29950989E+01</totfact>
</mgrwt>
</event>
<event>
 6    1  0.1939311E-004  0.3000000E+03  0.7818608E-02  0.1093470E+00
          1   -1    0    0  502    0  0.00000000000E+00  0.00000000000E+00  0.28660466986E+02  0.28660466986E+02  0.00000000000E+00 0.  1.
         13   -1    0    0    0    0 -0.00000000000E+00 -0.00000000000E+00 -0.10000000000E+04  0.10000000000E+04  0.00000000000E+00 0.  1.
    9000005    2    1    2  501    0  0.84805832549E+01  0.76781163579E+00 -0.95347187813E+03  0.10088674652E+04  0.32959434189E+03 0.  0.
         13    1    3    3    0    0  0.91818459546E+02 -0.27446302278E+02 -0.90170643186E+03  0.90678465926E+03  0.00000000000E+00 0.  1.
          1    1    3    3  501    0 -0.83337876292E+02  0.28214113914E+02 -0.51765446279E+02  0.10208280598E+03  0.00000000000E+00 0.  1.
         21    1    1    2  502  501 -0.84805832549E+01 -0.76781163579E+00 -0.17867654880E+02  0.19793001742E+02  0.00000000000E+00 0. -1.
<mgrwt>
<rscale>  1 0.30000000E+03</rscale>
<asrwt>0</asrwt>
<pdfrwt beam="1">  1        1 0.10422010E+00 0.30000000E+03</pdfrwt>
<pdfrwt beam="2">0</pdfrwt>
<totfact> 0.32206941E+01</totfact>
</mgrwt>
</event>
<event>
 6    1  0.1939311E-004  0.3000000E+03  0.7818608E-02  0.1093470E+00
          1   -1    0    0  502    0  0.00000000000E+00  0.00000000000E+00  0.37483315468E+02  0.37483315468E+02  0.00000000000E+00 0.  1.
         13   -1    0    0    0    0 -0.00000000000E+00 -0.00000000000E+00 -0.10000000000E+04  0.10000000000E+04  0.00000000000E+00 0.  1.
    9000005    2    1    2  501    0  0.72850121776E+01  0.78090188549E+01 -0.97039468535E+03  0.10242124800E+04  0.32746191624E+03 0.  0.
         13    1    3    3    0    0 -0.50015853292E+02  0.13738569924E+03 -0.24662608153E+03  0.28670688870E+03  0.00000000000E+00 0.  1.
          1    1    3    3  501    0  0.57300865470E+02 -0.12957668038E+03 -0.72376860382E+03  0.73750559127E+03  0.00000000000E+00 0.  1.
         21    1    1    2  502  501 -0.72850121776E+01 -0.78090188549E+01  0.78780008187E+01  0.13270835498E+02  0.00000000000E+00 0.  1.
<mgrwt>
<rscale>  1 0.30000000E+03</rscale>
<asrwt>0</asrwt>
<pdfrwt beam="1">  1        1 0.13630325E+00 0.30000000E+03</pdfrwt>
<pdfrwt beam="2">0</pdfrwt>
<totfact> 0.21161648E+01</totfact>
</mgrwt>
</event>
<event>
 6    1  0.1939311E-004  0.3000000E+03  0.7818608E-02  0.1093470E+00
          1   -1    0    0  502    0  0.00000000000E+00  0.00000000000E+00  0.43431683441E+02  0.43431683441E+02  0.00000000000E+00 0.  1.
         13   -1    0    0    0    0 -0.00000000000E+00 -0.00000000000E+00 -0.10000000000E+04  0.10000000000E+04  0.00000000000E+00 0.  1.
    9000005    2    1    2  501    0  0.72978759059E+01  0.12608755575E+02 -0.95917078620E+03  0.10286326106E+04  0.37130070119E+03 0.  0.
         13    1    3    3    0    0  0.90432440289E+02 -0.97435223842E+02 -0.82697497585E+03  0.83759134414E+03  0.00000000000E+00 0.  1.
          1    1    3    3  501    0 -0.83134564383E+02  0.11004397942E+03 -0.13219581035E+03  0.19104126642E+03  0.00000000000E+00 0.  1.
         21    1    1    2  502  501 -0.72978759059E+01 -0.12608755575E+02  0.26024696384E+01  0.14799072880E+02  0.00000000000E+00 0. -1.
<mgrwt>
<rscale>  1 0.30000000E+03</rscale>
<asrwt>0</asrwt>
<pdfrwt beam="1">  1        1 0.15793373E+00 0.30000000E+03</pdfrwt>
<pdfrwt beam="2">0</pdfrwt>
<totfact> 0.16386572E+01</totfact>
</mgrwt>
</event>
<event>
 6    1  0.1939311E-004  0.3000000E+03  0.7818608E-02  0.1093470E+00
          1   -1    0    0  502    0  0.00000000000E+00  0.00000000000E+00  0.27982943543E+02  0.27982943543E+02  0.00000000000E+00 0.  1.
         13   -1    0    0    0    0 -0.00000000000E+00 -0.00000000000E+00 -0.10000000000E+04  0.10000000000E+04  0.00000000000E+00 0.  1.
    9000005    2    1    2  501    0  0.59949834631E+00 -0.19250562163E+02 -0.92869495003E+03  0.98057251803E+03  0.31412928766E+03 0.  0.
         13    1    3    3    0    0 -0.10579237913E+03  0.96026953284E+02 -0.29539418027E+03  0.32813248083E+03  0.00000000000E+00 0.  1.
          1    1    3    3  501    0  0.10639187748E+03 -0.11527751545E+03 -0.63330076977E+03  0.65244003720E+03  0.00000000000E+00 0.  1.
         21    1    1    2  502  501 -0.59949834631E+00  0.19250562163E+02 -0.43322106425E+02  0.47410425510E+02  0.00000000000E+00 0. -1.
<mgrwt>
<rscale>  1 0.30000000E+03</rscale>
<asrwt>0</asrwt>
<pdfrwt beam="1">  1        1 0.10175637E+00 0.30000000E+03</pdfrwt>
<pdfrwt beam="2">0</pdfrwt>
<totfact> 0.33364323E+01</totfact>
</mgrwt>
</event>
<event>
 6    1  0.1939311E-004  0.3000000E+03  0.7818608E-02  0.1093470E+00
          1   -1    0    0  502    0  0.00000000000E+00  0.00000000000E+00  0.26557506547E+02  0.26557506547E+02  0.00000000000E+00 0.  1.
         13   -1    0    0    0    0 -0.00000000000E+00 -0.00000000000E+00 -0.10000000000E+04  0.10000000000E+04  0.00000000000E+00 0.  1.
    9000005    2    1    2  501    0  0.10847194407E+02 -0.13399279324E+01 -0.96496833611E+03  0.10127275255E+04  0.30713790739E+03 0.  0.
         13    1    3    3    0    0 -0.10088732293E+03  0.11216098245E+02 -0.10724906234E+03  0.14766995009E+03  0.00000000000E+00 0.  1.
          3    1    3    3  501    0  0.11173451733E+03 -0.12556026178E+02 -0.85771927377E+03  0.86505757540E+03  0.00000000000E+00 0.  1.
         21    1    1    2  502  501 -0.10847194407E+02  0.13399279324E+01 -0.84741573400E+01  0.13829981055E+02  0.00000000000E+00 0. -1.
<mgrwt>
<rscale>  1 0.30000000E+03</rscale>
<asrwt>0</asrwt>
<pdfrwt beam="1">  1        1 0.96572955E-01 0.30000000E+03</pdfrwt>
<pdfrwt beam="2">0</pdfrwt>
<totfact> 0.36007536E+01</totfact>
</mgrwt>
</event>
<event>
 6    1  0.1939311E-004  0.3000000E+03  0.7818608E-02  0.1093470E+00
          1   -1    0    0  502    0  0.00000000000E+00  0.00000000000E+00  0.61780741677E+02  0.61780741677E+02  0.00000000000E+00 0.  1.
         13   -1    0    0    0    0 -0.00000000000E+00 -0.00000000000E+00 -0.10000000000E+04  0.10000000000E+04  0.00000000000E+00 0.  1.
    9000005    2    1    2  501    0  0.66624303815E+02  0.26284060520E+02 -0.92845312670E+03  0.98949639328E+03  0.33458669151E+03 0.  0.
         13    1    3    3    0    0  0.15262791936E+03 -0.83649970400E+02 -0.70390055229E+03  0.72509901864E+03  0.00000000000E+00 0.  1.
          3    1    3    3  501    0 -0.86003615550E+02  0.10993403092E+03 -0.22455257441E+03  0.26439737464E+03  0.00000000000E+00 0.  1.
         21    1    1    2  502  501 -0.66624303815E+02 -0.26284060520E+02 -0.97661316209E+01  0.72284348396E+02  0.00000000000E+00 0.  1.
<mgrwt>
<rscale>  1 0.30000000E+03</rscale>
<asrwt>0</asrwt>
<pdfrwt beam="1">  1        1 0.22465772E+00 0.30000000E+03</pdfrwt>
<pdfrwt beam="2">0</pdfrwt>
<totfact> 0.78392634E+00</totfact>
</mgrwt>
</event>
<event>
 6    1  0.1939311E-004  0.3000000E+03  0.7818608E-02  0.1093470E+00
          1   -1    0    0  502    0  0.00000000000E+00  0.00000000000E+00  0.14388309052E+02  0.14388309052E+02  0.00000000000E+00 0.  1.
         13   -1    0    0    0    0 -0.00000000000E+00 -0.00000000000E+00 -0.10000000000E+04  0.10000000000E+04  0.00000000000E+00 0.  1.
    9000005    2    1    2  501    0  0.15367759229E+02 -0.92295323414E+01 -0.97420293884E+03  0.99313949931E+03  0.19218050563E+03 0.  0.
         13    1    3    3    0    0  0.82645730753E+02  0.37134995423E+02 -0.73065178095E+03  0.73624815769E+03  0.00000000000E+00 0.  1.
          1    1    3    3  501    0 -0.67277971523E+02 -0.46364527765E+02 -0.24355115789E+03  0.25689134162E+03  0.00000000000E+00 0.  1.
         21    1    1    2  502  501 -0.15367759229E+02  0.92295323414E+01 -0.11408752108E+02  0.21248809746E+02  0.00000000000E+00 0.  1.
<mgrwt>
<rscale>  1 0.30000000E+03</rscale>
<asrwt>0</asrwt>
<pdfrwt beam="1">  1        1 0.52321234E-01 0.30000000E+03</pdfrwt>
<pdfrwt beam="2">0</pdfrwt>
<totfact> 0.83132986E+01</totfact>
</mgrwt>
</event>
<event>
 6    1  0.1939311E-004  0.3000000E+03  0.7818608E-02  0.1093470E+00
          1   -1    0    0  502    0  0.00000000000E+00  0.00000000000E+00  0.37771107572E+02  0.37771107572E+02  0.00000000000E+00 0.  1.
         13   -1    0    0    0    0 -0.00000000000E+00 -0.00000000000E+00 -0.10000000000E+04  0.10000000000E+04  0.00000000000E+00 0.  1.
    9000005    2    1    2  501    0 -0.20240211470E+02 -0.12442489656E+02 -0.96204772908E+03  0.10140115931E+04  0.31956094278E+03 0.  0.
         13    1    3    3    0    0 -0.79563181600E+02  0.12381737362E+03 -0.67404534668E+03  0.68992620711E+03  0.00000000000E+00 0.  1.
          3    1    3    3  501    0  0.59322970130E+02 -0.13625986328E+03 -0.28800238240E+03  0.32408538596E+03  0.00000000000E+00 0.  1.
         21    1    1    2  502  501  0.20240211470E+02  0.12442489656E+02 -0.18116335038E+00  0.23759514502E+02  0.00000000000E+00 0.  1.
<mgrwt>
<rscale>  1 0.30000000E+03</rscale>
<asrwt>0</asrwt>
<pdfrwt beam="1">  1        1 0.13734977E+00 0.30000000E+03</pdfrwt>
<pdfrwt beam="2">0</pdfrwt>
<totfact> 0.20893086E+01</totfact>
</mgrwt>
</event>
<event>
 6    1  0.1939311E-004  0.3000000E+03  0.7818608E-02  0.1093470E+00
          1   -1    0    0  502    0  0.00000000000E+00  0.00000000000E+00  0.33777426250E+02  0.33777426250E+02  0.00000000000E+00 0.  1.
         13   -1    0    0    0    0 -0.00000000000E+00 -0.00000000000E+00 -0.10000000000E+04  0.10000000000E+04  0.00000000000E+00 0.  1.
    9000005    2    1    2  501    0 -0.24402394886E+02  0.22687548816E+02 -0.92478677272E+03  0.98060668848E+03  0.32442056155E+03 0.  0.
         13    1    3    3    0    0  0.11651831056E+03  0.21289267192E+02 -0.73355486734E+03  0.74305618428E+03  0.00000000000E+00 0.  1.
          3    1    3    3  501    0 -0.14092070544E+03  0.13982816238E+01 -0.19123190538E+03  0.23755050421E+03  0.00000000000E+00 0.  1.
         21    1    1    2  502  501  0.24402394886E+02 -0.22687548816E+02 -0.41435801032E+02  0.53170737766E+02  0.00000000000E+00 0.  1.
<mgrwt>
<rscale>  1 0.30000000E+03</rscale>
<asrwt>0</asrwt>
<pdfrwt beam="1">  1        1 0.12282726E+00 0.30000000E+03</pdfrwt>
<pdfrwt beam="2">0</pdfrwt>
<totfact> 0.25062069E+01</totfact>
</mgrwt>
</event>
<event>
 6    1  0.1939311E-004  0.3000000E+03  0.7818608E-02  0.1093470E+00
          1   -1    0    0  502    0  0.00000000000E+00  0.00000000000E+00  0.29913914244E+02  0.29913914244E+02  0.00000000000E+00 0.  1.
         13   -1    0    0    0    0 -0.00000000000E+00 -0.00000000000E+00 -0.10000000000E+04  0.10000000000E+04  0.00000000000E+00 0.  1.
    9000005    2    1    2  501    0  0.24872038617E+02  0.17917453533E+02 -0.92610661536E+03  0.97630563818E+03  0.30750541895E+03 0.  0.
         13    1    3    3    0    0  0.12249904070E+03  0.86328740997E+02 -0.74193863155E+03  0.75692245275E+03  0.00000000000E+00 0.  1.
          1    1    3    3  501    0 -0.97627002085E+02 -0.68411287464E+02 -0.18416798382E+03  0.21938318544E+03  0.00000000000E+00 0.  1.
         21    1    1    2  502  501 -0.24872038617E+02 -0.17917453533E+02 -0.43979470394E+02  0.53608276060E+02  0.00000000000E+00 0.  1.
<mgrwt>
<rscale>  1 0.30000000E+03</rscale>
<asrwt>0</asrwt>
<pdfrwt beam="1">  1        1 0.10877810E+00 0.30000000E+03</pdfrwt>
<pdfrwt beam="2">0</pdfrwt>
<totfact> 0.30213865E+01</totfact>
</mgrwt>
</event>
<event>
 6    1  0.1939311E-004  0.3000000E+03  0.7818608E-02  0.1093470E+00
          1   -1    0    0  502    0  0.00000000000E+00  0.00000000000E+00  0.28109131706E+02  0.28109131706E+02  0.00000000000E+00 0.  1.
         13   -1    0    0    0    0 -0.00000000000E+00 -0.00000000000E+00 -0.10000000000E+04  0.10000000000E+04  0.00000000000E+00 0.  1.
    9000005    2    1    2  501    0 -0.36022466585E+01  0.74964563978E+01 -0.93929782128E+03  0.99447165628E+03  0.32653377320E+03 0.  0.
         13    1    3    3    0    0 -0.88767257470E+02 -0.93617951696E+02 -0.16745305268E+03  0.21138701883E+03  0.00000000000E+00 0.  1.
          3    1    3    3  501    0  0.85165010811E+02  0.10111440809E+03 -0.77184476860E+03  0.78308463745E+03  0.00000000000E+00 0.  1.
         21    1    1    2  502  501  0.36022466585E+01 -0.74964563978E+01 -0.32593047013E+02  0.33637475427E+02  0.00000000000E+00 0. -1.
<mgrwt>
<rscale>  1 0.30000000E+03</rscale>
<asrwt>0</asrwt>
<pdfrwt beam="1">  1        1 0.10221524E+00 0.30000000E+03</pdfrwt>
<pdfrwt beam="2">0</pdfrwt>
<totfact> 0.33144211E+01</totfact>
</mgrwt>
</event>
<event>
 6    1  0.1939311E-004  0.3000000E+03  0.7818608E-02  0.1093470E+00
          1   -1    0    0  502    0  0.00000000000E+00  0.00000000000E+00  0.39662428103E+02  0.39662428103E+02  0.00000000000E+00 0.  1.
         13   -1    0    0    0    0 -0.00000000000E+00 -0.00000000000E+00 -0.10000000000E+04  0.10000000000E+04  0.00000000000E+00 0.  1.
    9000005    2    1    2  501    0  0.56163643662E+02 -0.17380377796E+02 -0.85772267181E+03  0.92139895055E+03  0.33140822553E+03 0.  0.
         13    1    3    3    0    0 -0.57926606974E+02 -0.95327321195E+02 -0.95770749127E+02  0.14701981618E+03  0.00000000000E+00 0.  1.
          3    1    3    3  501    0  0.11409025064E+03  0.77946943398E+02 -0.76195192268E+03  0.77437913437E+03  0.00000000000E+00 0.  1.
         21    1    1    2  502  501 -0.56163643662E+02  0.17380377796E+02 -0.10261490009E+03  0.11826347755E+03  0.00000000000E+00 0. -1.
<mgrwt>
<rscale>  1 0.30000000E+03</rscale>
<asrwt>0</asrwt>
<pdfrwt beam="1">  1        1 0.14422732E+00 0.30000000E+03</pdfrwt>
<pdfrwt beam="2">0</pdfrwt>
<totfact> 0.19232177E+01</totfact>
</mgrwt>
</event>
<event>
 6    1  0.1939311E-004  0.3000000E+03  0.7818608E-02  0.1093470E+00
          3   -1    0    0  502    0  0.00000000000E+00  0.00000000000E+00  0.29555476495E+02  0.29555476495E+02  0.00000000000E+00 0.  1.
         13   -1    0    0    0    0 -0.00000000000E+00 -0.00000000000E+00 -0.10000000000E+04  0.10000000000E+04  0.00000000000E+00 0.  1.
    9000005    2    1    2  501    0  0.14036182215E+02 -0.97154215940E+00 -0.87672530806E+03  0.93478602124E+03  0.32400568114E+03 0.  0.
         13    1    3    3    0    0  0.23961110644E+02 -0.13852512017E+03 -0.20196012078E+03  0.24607160365E+03  0.00000000000E+00 0.  1.
          1    1    3    3  501    0 -0.99249284288E+01  0.13755357801E+03 -0.67476518728E+03  0.68871441759E+03  0.00000000000E+00 0.  1.
         21    1    1    2  502  501 -0.14036182215E+02  0.97154215940E+00 -0.93719215444E+02  0.94769455252E+02  0.00000000000E+00 0.  1.
<mgrwt>
<rscale>  1 0.30000000E+03</rscale>
<asrwt>0</asrwt>
<pdfrwt beam="1">  1        3 0.10747469E+00 0.30000000E+03</pdfrwt>
<pdfrwt beam="2">0</pdfrwt>
<totfact> 0.32200040E+00</totfact>
</mgrwt>
</event>
<event>
 6    1  0.1939311E-004  0.3000000E+03  0.7818608E-02  0.1093470E+00
          1   -1    0    0  502    0  0.00000000000E+00  0.00000000000E+00  0.40229504098E+02  0.40229504098E+02  0.00000000000E+00 0.  1.
         13   -1    0    0    0    0 -0.00000000000E+00 -0.00000000000E+00 -0.10000000000E+04  0.10000000000E+04  0.00000000000E+00 0.  1.
    9000005    2    1    2  501    0  0.20534776882E+01 -0.11015646673E+02 -0.96813950210E+03  0.10262437432E+04  0.34023016292E+03 0.  0.
         13    1    3    3    0    0 -0.10009641763E+03  0.28663870121E+02 -0.79832291647E+02  0.13120253451E+03  0.00000000000E+00 0.  1.
          1    1    3    3  501    0  0.10214989532E+03 -0.39679516794E+02 -0.88830721045E+03  0.89504120872E+03  0.00000000000E+00 0.  1.
         21    1    1    2  502  501 -0.20534776882E+01  0.11015646673E+02  0.83690061976E+01  0.13985760865E+02  0.00000000000E+00 0.  1.
<mgrwt>
<rscale>  1 0.30000000E+03</rscale>
<asrwt>0</asrwt>
<pdfrwt beam="1">  1        1 0.14628941E+00 0.30000000E+03</pdfrwt>
<pdfrwt beam="2">0</pdfrwt>
<totfact> 0.18767013E+01</totfact>
</mgrwt>
</event>
<event>
 6    1  0.1939311E-004  0.3000000E+03  0.7818608E-02  0.1093470E+00
          1   -1    0    0  502    0  0.00000000000E+00  0.00000000000E+00  0.84462122578E+02  0.84462122578E+02  0.00000000000E+00 0.  1.
         13   -1    0    0    0    0 -0.00000000000E+00 -0.00000000000E+00 -0.10000000000E+04  0.10000000000E+04  0.00000000000E+00 0.  1.
    9000005    2    1    2  501    0  0.17549627993E+02 -0.45929672351E+02 -0.96205424230E+03  0.10167768476E+04  0.32537558063E+03 0.  0.
         13    1    3    3    0    0  0.13349662530E+03  0.43626108009E+02 -0.72211380472E+03  0.73564456991E+03  0.00000000000E+00 0.  1.
          1    1    3    3  501    0 -0.11594699731E+03 -0.89555780360E+02 -0.23994043758E+03  0.28113227770E+03  0.00000000000E+00 0.  1.
         21    1    1    2  502  501 -0.17549627993E+02  0.45929672351E+02  0.46516364881E+02  0.67685274962E+02  0.00000000000E+00 0.  1.
<mgrwt>
<rscale>  1 0.30000000E+03</rscale>
<asrwt>0</asrwt>
<pdfrwt beam="1">  1        1 0.30713564E+00 0.30000000E+03</pdfrwt>
<pdfrwt beam="2">0</pdfrwt>
<totfact> 0.32128654E+00</totfact>
</mgrwt>
</event>
<event>
 6    1  0.1939311E-004  0.3000000E+03  0.7818608E-02  0.1093470E+00
          1   -1    0    0  502    0  0.00000000000E+00  0.00000000000E+00  0.26010641539E+02  0.26010641539E+02  0.00000000000E+00 0.  1.
         13   -1    0    0    0    0 -0.00000000000E+00 -0.00000000000E+00 -0.10000000000E+04  0.10000000000E+04  0.00000000000E+00 0.  1.
    9000005    2    1    2  501    0 -0.23415451326E+02  0.17158039097E+01 -0.93269671557E+03  0.97851001311E+03  0.29497026153E+03 0.  0.
         13    1    3    3    0    0 -0.68609563610E+02 -0.11399553320E+03 -0.72003413111E+03  0.73222360230E+03  0.00000000000E+00 0.  1.
          1    1    3    3  501    0  0.45194112284E+02  0.11571133711E+03 -0.21266258446E+03  0.24628641081E+03  0.00000000000E+00 0.  1.
         21    1    1    2  502  501  0.23415451326E+02 -0.17158039097E+01 -0.41292642894E+02  0.47500628428E+02  0.00000000000E+00 0. -1.
<mgrwt>
<rscale>  1 0.30000000E+03</rscale>
<asrwt>0</asrwt>
<pdfrwt beam="1">  1        1 0.94584351E-01 0.30000000E+03</pdfrwt>
<pdfrwt beam="2">0</pdfrwt>
<totfact> 0.37104439E+01</totfact>
</mgrwt>
</event>
<event>
 6    1  0.1939311E-004  0.3000000E+03  0.7818608E-02  0.1093470E+00
          1   -1    0    0  502    0  0.00000000000E+00  0.00000000000E+00  0.38564731819E+02  0.38564731819E+02  0.00000000000E+00 0.  1.
         13   -1    0    0    0    0 -0.00000000000E+00 -0.00000000000E+00 -0.10000000000E+04  0.10000000000E+04  0.00000000000E+00 0.  1.
    9000005    2    1    2  501    0  0.19745142516E+02  0.55183087601E+02 -0.85154207761E+03  0.91401932988E+03  0.32691341613E+03 0.  0.
         13    1    3    3    0    0  0.86527988588E+01 -0.13272542384E+03 -0.47170564149E+03  0.49009909333E+03  0.00000000000E+00 0.  1.
          3    1    3    3  501    0  0.11092343657E+02  0.18790851144E+03 -0.37983643611E+03  0.42392023655E+03  0.00000000000E+00 0.  1.
         21    1    1    2  502  501 -0.19745142516E+02 -0.55183087601E+02 -0.10989319057E+03  0.12454540194E+03  0.00000000000E+00 0.  1.
<mgrwt>
<rscale>  1 0.30000000E+03</rscale>
<asrwt>0</asrwt>
<pdfrwt beam="1">  1        1 0.14023568E+00 0.30000000E+03</pdfrwt>
<pdfrwt beam="2">0</pdfrwt>
<totfact> 0.20174763E+01</totfact>
</mgrwt>
</event>
<event>
 6    1  0.1939311E-004  0.3000000E+03  0.7818608E-02  0.1093470E+00
          1   -1    0    0  502    0  0.00000000000E+00  0.00000000000E+00  0.32279511045E+02  0.32279511045E+02  0.00000000000E+00 0.  1.
         13   -1    0    0    0    0 -0.00000000000E+00 -0.00000000000E+00 -0.10000000000E+04  0.10000000000E+04  0.00000000000E+00 0.  1.
    9000005    2    1    2  501    0 -0.15633185575E+02  0.25234524949E+01 -0.94732182862E+03  0.10064556917E+04  0.33953445777E+03 0.  0.
         13    1    3    3    0    0  0.11056631399E+03  0.11718449236E+03 -0.57125215833E+03  0.59353697731E+03  0.00000000000E+00 0.  1.
          3    1    3    3  501    0 -0.12619949957E+03 -0.11466103987E+03 -0.37606967029E+03  0.41291871436E+03  0.00000000000E+00 0.  1.
         21    1    1    2  502  501  0.15633185575E+02 -0.25234524949E+01 -0.20398660335E+02  0.25823819376E+02  0.00000000000E+00 0.  1.
<mgrwt>
<rscale>  1 0.30000000E+03</rscale>
<asrwt>0</asrwt>
<pdfrwt beam="1">  1        1 0.11738029E+00 0.30000000E+03</pdfrwt>
<pdfrwt beam="2">0</pdfrwt>
<totfact> 0.26903489E+01</totfact>
</mgrwt>
</event>
<event>
 6    1  0.1939311E-004  0.3000000E+03  0.7818608E-02  0.1093470E+00
          1   -1    0    0  502    0  0.00000000000E+00  0.00000000000E+00  0.36609431223E+02  0.36609431223E+02  0.00000000000E+00 0.  1.
         13   -1    0    0    0    0 -0.00000000000E+00 -0.00000000000E+00 -0.10000000000E+04  0.10000000000E+04  0.00000000000E+00 0.  1.
    9000005    2    1    2  501    0  0.14484921677E+02 -0.63263873533E+01 -0.96411131933E+03  0.10207868014E+04  0.33503018033E+03 0.  0.
         13    1    3    3    0    0  0.59938313886E+02 -0.13068813090E+03 -0.20608207307E+03  0.25128034120E+03  0.00000000000E+00 0.  1.
          3    1    3    3  501    0 -0.45453392209E+02  0.12436174355E+03 -0.75802924626E+03  0.76950646021E+03  0.00000000000E+00 0.  1.
         21    1    1    2  502  501 -0.14484921677E+02  0.63263873533E+01  0.72075055388E+00  0.15822629816E+02  0.00000000000E+00 0. -1.
<mgrwt>
<rscale>  1 0.30000000E+03</rscale>
<asrwt>0</asrwt>
<pdfrwt beam="1">  1        1 0.13312549E+00 0.30000000E+03</pdfrwt>
<pdfrwt beam="2">0</pdfrwt>
<totfact> 0.22005712E+01</totfact>
</mgrwt>
</event>
<event>
 6    1  0.1939311E-004  0.3000000E+03  0.7818608E-02  0.1093470E+00
          1   -1    0    0  502    0  0.00000000000E+00  0.00000000000E+00  0.61071724927E+02  0.61071724927E+02  0.00000000000E+00 0.  1.
         13   -1    0    0    0    0 -0.00000000000E+00 -0.00000000000E+00 -0.10000000000E+04  0.10000000000E+04  0.00000000000E+00 0.  1.
    9000005    2    1    2  501    0 -0.10567219980E+02 -0.97325648986E+01 -0.97250954479E+03  0.10245465195E+04  0.32204715015E+03 0.  0.
         13    1    3    3    0    0 -0.16582152709E+03 -0.54057200788E+01 -0.45909849639E+03  0.48815717760E+03  0.00000000000E+00 0.  1.
          1    1    3    3  501    0  0.15525430711E+03 -0.43268448197E+01 -0.51341104839E+03  0.53638934187E+03  0.00000000000E+00 0.  1.
         21    1    1    2  502  501  0.10567219980E+02  0.97325648986E+01  0.33581269713E+02  0.36525205450E+02  0.00000000000E+00 0. -1.
<mgrwt>
<rscale>  1 0.30000000E+03</rscale>
<asrwt>0</asrwt>
<pdfrwt beam="1">  1        1 0.22207947E+00 0.30000000E+03</pdfrwt>
<pdfrwt beam="2">0</pdfrwt>
<totfact> 0.80603569E+00</totfact>
</mgrwt>
</event>
<event>
 6    1  0.1939311E-004  0.3000000E+03  0.7818608E-02  0.1093470E+00
          1   -1    0    0  502    0  0.00000000000E+00  0.00000000000E+00  0.41384698535E+02  0.41384698535E+02  0.00000000000E+00 0.  1.
         13   -1    0    0    0    0 -0.00000000000E+00 -0.00000000000E+00 -0.10000000000E+04  0.10000000000E+04  0.00000000000E+00 0.  1.
    9000005    2    1    2  501    0  0.88314358795E+01  0.19244628874E+02 -0.96055653326E+03  0.10201216230E+04  0.34282783160E+03 0.  0.
         13    1    3    3    0    0  0.59783163454E+02  0.17183008474E+03 -0.47764431132E+03  0.51112003756E+03  0.00000000000E+00 0.  1.
          1    1    3    3  501    0 -0.50951727574E+02 -0.15258545587E+03 -0.48291222194E+03  0.50900158545E+03  0.00000000000E+00 0.  1.
         21    1    1    2  502  501 -0.88314358795E+01 -0.19244628874E+02  0.19412318001E+01  0.21263075532E+02  0.00000000000E+00 0. -1.
<mgrwt>
<rscale>  1 0.30000000E+03</rscale>
<asrwt>0</asrwt>
<pdfrwt beam="1">  1        1 0.15049013E+00 0.30000000E+03</pdfrwt>
<pdfrwt beam="2">0</pdfrwt>
<totfact> 0.17862227E+01</totfact>
</mgrwt>
</event>
<event>
 6    1  0.1939311E-004  0.3000000E+03  0.7818608E-02  0.1093470E+00
          1   -1    0    0  502    0  0.00000000000E+00  0.00000000000E+00  0.33243090787E+02  0.33243090787E+02  0.00000000000E+00 0.  1.
         13   -1    0    0    0    0 -0.00000000000E+00 -0.00000000000E+00 -0.10000000000E+04  0.10000000000E+04  0.00000000000E+00 0.  1.
    9000005    2    1    2  501    0 -0.20682749870E+01 -0.98808165849E+01 -0.96980258477E+03  0.10226986877E+04  0.32448982112E+03 0.  0.
         13    1    3    3    0    0  0.51035424652E+02  0.34918503955E+02 -0.94780905937E+03  0.94982415716E+03  0.00000000000E+00 0.  1.
          3    1    3    3  501    0 -0.53103699639E+02 -0.44799320540E+02 -0.21993525394E+02  0.72874530499E+02  0.00000000000E+00 0.  1.
         21    1    1    2  502  501  0.20682749870E+01  0.98808165849E+01  0.30456755546E+01  0.10544403131E+02  0.00000000000E+00 0. -1.
<mgrwt>
<rscale>  1 0.30000000E+03</rscale>
<asrwt>0</asrwt>
<pdfrwt beam="1">  1        1 0.12088422E+00 0.30000000E+03</pdfrwt>
<pdfrwt beam="2">0</pdfrwt>
<totfact> 0.25699045E+01</totfact>
</mgrwt>
</event>
<event>
 6    1  0.1939311E-004  0.3000000E+03  0.7818608E-02  0.1093470E+00
          1   -1    0    0  502    0  0.00000000000E+00  0.00000000000E+00  0.29860340089E+02  0.29860340089E+02  0.00000000000E+00 0.  1.
         13   -1    0    0    0    0 -0.00000000000E+00 -0.00000000000E+00 -0.10000000000E+04  0.10000000000E+04  0.00000000000E+00 0.  1.
    9000005    2    1    2  501    0  0.49098291991E+01  0.10848113340E+02 -0.94272548266E+03  0.99997179546E+03  0.33327236320E+03 0.  0.
         13    1    3    3    0    0  0.14918245378E+03 -0.24607776723E+02 -0.69378960799E+03  0.71007391682E+03  0.00000000000E+00 0.  1.
          3    1    3    3  501    0 -0.14427262458E+03  0.35455890063E+02 -0.24893587468E+03  0.28989787865E+03  0.00000000000E+00 0.  1.
         21    1    1    2  502  501 -0.49098291991E+01 -0.10848113340E+02 -0.27414177247E+02  0.29888544627E+02  0.00000000000E+00 0. -1.
<mgrwt>
<rscale>  1 0.30000000E+03</rscale>
<asrwt>0</asrwt>
<pdfrwt beam="1">  1        1 0.10858328E+00 0.30000000E+03</pdfrwt>
<pdfrwt beam="2">0</pdfrwt>
<totfact> 0.30295382E+01</totfact>
</mgrwt>
</event>
<event>
 6    1  0.1939311E-004  0.3000000E+03  0.7818608E-02  0.1093470E+00
          1   -1    0    0  502    0  0.00000000000E+00  0.00000000000E+00  0.34872799011E+02  0.34872799011E+02  0.00000000000E+00 0.  1.
         13   -1    0    0    0    0 -0.00000000000E+00 -0.00000000000E+00 -0.10000000000E+04  0.10000000000E+04  0.00000000000E+00 0.  1.
    9000005    2    1    2  501    0 -0.40331740015E+02 -0.18912750656E+00 -0.91240741994E+03  0.96849463742E+03  0.32228539796E+03 0.  0.
         13    1    3    3    0    0 -0.11797732774E+03 -0.12122874236E+03 -0.36138211323E+03  0.39901389649E+03  0.00000000000E+00 0.  1.
          1    1    3    3  501    0  0.77645587721E+02  0.12103961485E+03 -0.55102530671E+03  0.56948074093E+03  0.00000000000E+00 0.  1.
         21    1    1    2  502  501  0.40331740015E+02  0.18912750656E+00 -0.52719781050E+02  0.66378161588E+02  0.00000000000E+00 0.  1.
<mgrwt>
<rscale>  1 0.30000000E+03</rscale>
<asrwt>0</asrwt>
<pdfrwt beam="1">  1        1 0.12681045E+00 0.30000000E+03</pdfrwt>
<pdfrwt beam="2">0</pdfrwt>
<totfact> 0.23818864E+01</totfact>
</mgrwt>
</event>
<event>
 6    1  0.1939311E-004  0.3000000E+03  0.7818608E-02  0.1093470E+00
          1   -1    0    0  502    0  0.00000000000E+00  0.00000000000E+00  0.30564901728E+02  0.30564901728E+02  0.00000000000E+00 0.  1.
         13   -1    0    0    0    0 -0.00000000000E+00 -0.00000000000E+00 -0.10000000000E+04  0.10000000000E+04  0.00000000000E+00 0.  1.
    9000005    2    1    2  501    0 -0.16792123405E+02  0.11615469385E+02 -0.86729116392E+03  0.92640023467E+03  0.32497159453E+03 0.  0.
         13    1    3    3    0    0 -0.11028918264E+03 -0.10373034550E+03 -0.25678520503E+03  0.29809785290E+03  0.00000000000E+00 0.  1.
          1    1    3    3  501    0  0.93497059231E+02  0.11534581489E+03 -0.61050595889E+03  0.62830238177E+03  0.00000000000E+00 0.  1.
         21    1    1    2  502  501  0.16792123405E+02 -0.11615469385E+02 -0.10214393435E+03  0.10416466706E+03  0.00000000000E+00 0.  1.
<mgrwt>
<rscale>  1 0.30000000E+03</rscale>
<asrwt>0</asrwt>
<pdfrwt beam="1">  1        1 0.11114533E+00 0.30000000E+03</pdfrwt>
<pdfrwt beam="2">0</pdfrwt>
<totfact> 0.29247795E+01</totfact>
</mgrwt>
</event>
<event>
 6    1  0.1939311E-004  0.3000000E+03  0.7818608E-02  0.1093470E+00
          1   -1    0    0  502    0  0.00000000000E+00  0.00000000000E+00  0.88516197504E+02  0.88516197504E+02  0.00000000000E+00 0.  1.
         13   -1    0    0    0    0 -0.00000000000E+00 -0.00000000000E+00 -0.10000000000E+04  0.10000000000E+04  0.00000000000E+00 0.  1.
    9000005    2    1    2  501    0 -0.16314228961E+03 -0.76595624721E+02 -0.79189837971E+03  0.87222248579E+03  0.31809860820E+03 0.  0.
         13    1    3    3    0    0  0.36564553565E+02 -0.12670621370E+03 -0.48533303532E+03  0.50293099560E+03  0.00000000000E+00 0.  1.
          3    1    3    3  501    0 -0.19970684318E+03  0.50110588980E+02 -0.30656534440E+03  0.36929149019E+03  0.00000000000E+00 0.  1.
         21    1    1    2  502  501  0.16314228961E+03  0.76595624721E+02 -0.11958542279E+03  0.21629371172E+03  0.00000000000E+00 0.  1.
<mgrwt>
<rscale>  1 0.30000000E+03</rscale>
<asrwt>0</asrwt>
<pdfrwt beam="1">  1        1 0.32187776E+00 0.30000000E+03</pdfrwt>
<pdfrwt beam="2">0</pdfrwt>
<totfact> 0.27263777E+00</totfact>
</mgrwt>
</event>
<event>
 6    1  0.1939311E-004  0.3000000E+03  0.7818608E-02  0.1093470E+00
          1   -1    0    0  502    0  0.00000000000E+00  0.00000000000E+00  0.39262417928E+02  0.39262417928E+02  0.00000000000E+00 0.  1.
         13   -1    0    0    0    0 -0.00000000000E+00 -0.00000000000E+00 -0.10000000000E+04  0.10000000000E+04  0.00000000000E+00 0.  1.
    9000005    2    1    2  501    0 -0.57122889679E-02 -0.19109183056E+02 -0.97105143569E+03  0.10175475270E+04  0.30347474052E+03 0.  0.
         13    1    3    3    0    0  0.61340657677E+01  0.13833665983E+03 -0.33986965062E+03  0.36699596405E+03  0.00000000000E+00 0.  1.
          1    1    3    3  501    0 -0.61397780567E+01 -0.15744584289E+03 -0.63118178506E+03  0.65055156299E+03  0.00000000000E+00 0.  1.
         21    1    1    2  502  501  0.57122889679E-02  0.19109183056E+02  0.10313853614E+02  0.21714890883E+02  0.00000000000E+00 0.  1.
<mgrwt>
<rscale>  1 0.30000000E+03</rscale>
<asrwt>0</asrwt>
<pdfrwt beam="1">  1        1 0.14277273E+00 0.30000000E+03</pdfrwt>
<pdfrwt beam="2">0</pdfrwt>
<totfact> 0.19569069E+01</totfact>
</mgrwt>
</event>
<event>
 6    1  0.1939311E-004  0.3000000E+03  0.7818608E-02  0.1093470E+00
          1   -1    0    0  502    0  0.00000000000E+00  0.00000000000E+00  0.74033463269E+02  0.74033463269E+02  0.00000000000E+00 0.  1.
         13   -1    0    0    0    0 -0.00000000000E+00 -0.00000000000E+00 -0.10000000000E+04  0.10000000000E+04  0.00000000000E+00 0.  1.
    9000005    2    1    2  501    0 -0.91390083442E+01 -0.57198603813E+01 -0.98147591565E+03  0.10174867620E+04  0.26808226266E+03 0.  0.
         13    1    3    3    0    0 -0.30454280331E+02  0.92864725226E+02 -0.82855005565E+03  0.83429402198E+03  0.00000000000E+00 0.  1.
          1    1    3    3  501    0  0.21315271986E+02 -0.98584585608E+02 -0.15292586000E+03  0.18319274002E+03  0.00000000000E+00 0.  1.
         21    1    1    2  502  501  0.91390083442E+01  0.57198603813E+01  0.55509378923E+02  0.56546701272E+02  0.00000000000E+00 0.  1.
<mgrwt>
<rscale>  1 0.30000000E+03</rscale>
<asrwt>0</asrwt>
<pdfrwt beam="1">  1        1 0.26921316E+00 0.30000000E+03</pdfrwt>
<pdfrwt beam="2">0</pdfrwt>
<totfact> 0.48491688E+00</totfact>
</mgrwt>
</event>
<event>
 6    1  0.1939311E-004  0.3000000E+03  0.7818608E-02  0.1093470E+00
          1   -1    0    0  502    0  0.00000000000E+00  0.00000000000E+00  0.41864030012E+02  0.41864030012E+02  0.00000000000E+00 0.  1.
         13   -1    0    0    0    0 -0.00000000000E+00 -0.00000000000E+00 -0.10000000000E+04  0.10000000000E+04  0.00000000000E+00 0.  1.
    9000005    2    1    2  501    0  0.78841946521E+01  0.11350210391E+02 -0.97027887824E+03  0.10234673449E+04  0.32535106696E+03 0.  0.
         13    1    3    3    0    0  0.29020011543E+02 -0.55198407239E+01 -0.98972048131E+03  0.99016122972E+03  0.00000000000E+00 0.  1.
          3    1    3    3  501    0 -0.21135816891E+02  0.16870051115E+02  0.19441603072E+02  0.33306115208E+02  0.00000000000E+00 0.  1.
         21    1    1    2  502  501 -0.78841946521E+01 -0.11350210391E+02  0.12142908253E+02  0.18396685084E+02  0.00000000000E+00 0.  1.
<mgrwt>
<rscale>  1 0.30000000E+03</rscale>
<asrwt>0</asrwt>
<pdfrwt beam="1">  1        1 0.15223316E+00 0.30000000E+03</pdfrwt>
<pdfrwt beam="2">0</pdfrwt>
<totfact> 0.17502707E+01</totfact>
</mgrwt>
</event>
<event>
 6    1  0.1939311E-004  0.3000000E+03  0.7818608E-02  0.1093470E+00
          1   -1    0    0  502    0  0.00000000000E+00  0.00000000000E+00  0.28034073988E+02  0.28034073988E+02  0.00000000000E+00 0.  1.
         13   -1    0    0    0    0 -0.00000000000E+00 -0.00000000000E+00 -0.10000000000E+04  0.10000000000E+04  0.00000000000E+00 0.  1.
    9000005    2    1    2  501    0  0.92733944471E+01 -0.14912722014E+00 -0.95288693064E+03  0.10068202542E+04  0.32497308150E+03 0.  0.
         13    1    3    3    0    0 -0.41599470251E+02  0.96110865340E+02 -0.92975908128E+02  0.14004404255E+03  0.00000000000E+00 0.  1.
          1    1    3    3  501    0  0.50872864698E+02 -0.96259992560E+02 -0.85991102251E+03  0.86677621170E+03  0.00000000000E+00 0.  1.
         21    1    1    2  502  501 -0.92733944471E+01  0.14912722014E+00 -0.19078995374E+02  0.21213819740E+02  0.00000000000E+00 0.  1.
<mgrwt>
<rscale>  1 0.30000000E+03</rscale>
<asrwt>0</asrwt>
<pdfrwt beam="1">  1        1 0.10194230E+00 0.30000000E+03</pdfrwt>
<pdfrwt beam="2">0</pdfrwt>
<totfact> 0.33274878E+01</totfact>
</mgrwt>
</event>
<event>
 6    1  0.1939311E-004  0.3000000E+03  0.7818608E-02  0.1093470E+00
          1   -1    0    0  502    0  0.00000000000E+00  0.00000000000E+00  0.30777661390E+02  0.30777661390E+02  0.00000000000E+00 0.  1.
         13   -1    0    0    0    0 -0.00000000000E+00 -0.00000000000E+00 -0.10000000000E+04  0.10000000000E+04  0.00000000000E+00 0.  1.
    9000005    2    1    2  501    0  0.13912164062E+02  0.55967959831E+01 -0.93363818432E+03  0.99216283948E+03  0.33538331563E+03 0.  0.
         13    1    3    3    0    0 -0.13005720759E+03 -0.52004615589E+02 -0.68469245695E+03  0.69887274800E+03  0.00000000000E+00 0.  1.
          3    1    3    3  501    0  0.14396937165E+03  0.57601411572E+02 -0.24894572736E+03  0.29329009148E+03  0.00000000000E+00 0.  1.
         21    1    1    2  502  501 -0.13912164062E+02 -0.55967959831E+01 -0.35584154293E+02  0.38614821907E+02  0.00000000000E+00 0. -1.
<mgrwt>
<rscale>  1 0.30000000E+03</rscale>
<asrwt>0</asrwt>
<pdfrwt beam="1">  1        1 0.11191900E+00 0.30000000E+03</pdfrwt>
<pdfrwt beam="2">0</pdfrwt>
<totfact> 0.28941544E+01</totfact>
</mgrwt>
</event>
<event>
 6    1  0.1939311E-004  0.3000000E+03  0.7818608E-02  0.1093470E+00
          1   -1    0    0  502    0  0.00000000000E+00  0.00000000000E+00  0.44146181738E+02  0.44146181738E+02  0.00000000000E+00 0.  1.
         13   -1    0    0    0    0 -0.00000000000E+00 -0.00000000000E+00 -0.10000000000E+04  0.10000000000E+04  0.00000000000E+00 0.  1.
    9000005    2    1    2  501    0  0.14251442219E+02 -0.11409650244E+01 -0.96982848846E+03  0.10241537628E+04  0.32881488332E+03 0.  0.
         13    1    3    3    0    0 -0.20383070869E+00 -0.84453919818E+02 -0.92423825970E+03  0.92808882485E+03  0.00000000000E+00 0.  1.
          1    1    3    3  501    0  0.14455272928E+02  0.83312954794E+02 -0.45590228763E+02  0.96064937988E+02  0.00000000000E+00 0.  1.
         21    1    1    2  502  501 -0.14251442219E+02  0.11409650244E+01  0.13974670196E+02  0.19992418904E+02  0.00000000000E+00 0.  1.
<mgrwt>
<rscale>  1 0.30000000E+03</rscale>
<asrwt>0</asrwt>
<pdfrwt beam="1">  1        1 0.16053191E+00 0.30000000E+03</pdfrwt>
<pdfrwt beam="2">0</pdfrwt>
<totfact> 0.15906022E+01</totfact>
</mgrwt>
</event>
<event>
 6    1  0.1939311E-004  0.3000000E+03  0.7818608E-02  0.1093470E+00
          1   -1    0    0  502    0  0.00000000000E+00  0.00000000000E+00  0.31526702832E+02  0.31526702832E+02  0.00000000000E+00 0.  1.
         13   -1    0    0    0    0 -0.00000000000E+00 -0.00000000000E+00 -0.10000000000E+04  0.10000000000E+04  0.00000000000E+00 0.  1.
    9000005    2    1    2  501    0  0.12843877818E+02  0.44218545890E+01 -0.96082090372E+03  0.10159357721E+04  0.32979412674E+03 0.  0.
         13    1    3    3    0    0 -0.10744288349E+03  0.10245341758E+03 -0.67057990585E+03  0.68681736009E+03  0.00000000000E+00 0.  1.
          1    1    3    3  501    0  0.12028676131E+03 -0.98031562989E+02 -0.29024099787E+03  0.32911841202E+03  0.00000000000E+00 0.  1.
         21    1    1    2  502  501 -0.12843877818E+02 -0.44218545890E+01 -0.76523934521E+01  0.15590930727E+02  0.00000000000E+00 0.  1.
<mgrwt>
<rscale>  1 0.30000000E+03</rscale>
<asrwt>0</asrwt>
<pdfrwt beam="1">  1        1 0.11464280E+00 0.30000000E+03</pdfrwt>
<pdfrwt beam="2">0</pdfrwt>
<totfact> 0.27898899E+01</totfact>
</mgrwt>
</event>
<event>
 6    1  0.1939311E-004  0.3000000E+03  0.7818608E-02  0.1093470E+00
          1   -1    0    0  502    0  0.00000000000E+00  0.00000000000E+00  0.27969409829E+02  0.27969409829E+02  0.00000000000E+00 0.  1.
         13   -1    0    0    0    0 -0.00000000000E+00 -0.00000000000E+00 -0.10000000000E+04  0.10000000000E+04  0.00000000000E+00 0.  1.
    9000005    2    1    2  501    0 -0.34126380439E+00  0.10358847287E+02 -0.97060543859E+03  0.10175074198E+04  0.30518684403E+03 0.  0.
         13    1    3    3    0    0  0.78244569152E+02  0.13188373939E+03 -0.38819441919E+03  0.41738524220E+03  0.00000000000E+00 0.  1.
          1    1    3    3  501    0 -0.78585832957E+02 -0.12152489210E+03 -0.58241101940E+03  0.60012217761E+03  0.00000000000E+00 0.  1.
         21    1    1    2  502  501  0.34126380439E+00 -0.10358847287E+02 -0.14251515810E+01  0.10461990018E+02  0.00000000000E+00 0. -1.
<mgrwt>
<rscale>  1 0.30000000E+03</rscale>
<asrwt>0</asrwt>
<pdfrwt beam="1">  1        1 0.10170716E+00 0.30000000E+03</pdfrwt>
<pdfrwt beam="2">0</pdfrwt>
<totfact> 0.33388057E+01</totfact>
</mgrwt>
</event>
<event>
 6    1  0.1939311E-004  0.3000000E+03  0.7818608E-02  0.1093470E+00
          1   -1    0    0  502    0  0.00000000000E+00  0.00000000000E+00  0.47526249182E+02  0.47526249182E+02  0.00000000000E+00 0.  1.
         13   -1    0    0    0    0 -0.00000000000E+00 -0.00000000000E+00 -0.10000000000E+04  0.10000000000E+04  0.00000000000E+00 0.  1.
    9000005    2    1    2  501    0 -0.36357383384E+01 -0.12026993752E+02 -0.97070532226E+03  0.10253844929E+04  0.33013128987E+03 0.  0.
         13    1    3    3    0    0 -0.86863028676E+01  0.69171181948E+02 -0.93320012368E+03  0.93580049963E+03  0.00000000000E+00 0.  1.
          3    1    3    3  501    0  0.50505645292E+01 -0.81198175701E+02 -0.37505198579E+02  0.89583993323E+02  0.00000000000E+00 0.  1.
         21    1    1    2  502  501  0.36357383384E+01  0.12026993752E+02  0.18231571438E+02  0.22141756233E+02  0.00000000000E+00 0.  1.
<mgrwt>
<rscale>  1 0.30000000E+03</rscale>
<asrwt>0</asrwt>
<pdfrwt beam="1">  1        1 0.17282309E+00 0.30000000E+03</pdfrwt>
<pdfrwt beam="2">0</pdfrwt>
<totfact> 0.13841259E+01</totfact>
</mgrwt>
</event>
<event>
 6    1  0.1939311E-004  0.3000000E+03  0.7818608E-02  0.1093470E+00
          1   -1    0    0  502    0  0.00000000000E+00  0.00000000000E+00  0.50869213526E+02  0.50869213526E+02  0.00000000000E+00 0.  1.
         13   -1    0    0    0    0 -0.00000000000E+00 -0.00000000000E+00 -0.10000000000E+04  0.10000000000E+04  0.00000000000E+00 0.  1.
    9000005    2    1    2  501    0 -0.12040127473E+02  0.15144127282E+01 -0.97301078563E+03  0.10240827902E+04  0.31913682661E+03 0.  0.
         13    1    3    3    0    0  0.20243258341E+02 -0.15660788616E+03 -0.49211726729E+03  0.51683191105E+03  0.00000000000E+00 0.  1.
          1    1    3    3  501    0 -0.32283385813E+02  0.15812229889E+03 -0.48089351834E+03  0.50725087914E+03  0.00000000000E+00 0.  1.
         21    1    1    2  502  501  0.12040127473E+02 -0.15144127282E+01  0.23879999155E+02  0.26786423336E+02  0.00000000000E+00 0.  1.
<mgrwt>
<rscale>  1 0.30000000E+03</rscale>
<asrwt>0</asrwt>
<pdfrwt beam="1">  1        1 0.18497935E+00 0.30000000E+03</pdfrwt>
<pdfrwt beam="2">0</pdfrwt>
<totfact> 0.12087139E+01</totfact>
</mgrwt>
</event>
<event>
 6    1  0.1939311E-004  0.3000000E+03  0.7818608E-02  0.1093470E+00
          1   -1    0    0  502    0  0.00000000000E+00  0.00000000000E+00  0.45234317348E+02  0.45234317348E+02  0.00000000000E+00 0.  1.
         13   -1    0    0    0    0 -0.00000000000E+00 -0.00000000000E+00 -0.10000000000E+04  0.10000000000E+04  0.00000000000E+00 0.  1.
    9000005    2    1    2  501    0 -0.14886870052E+02  0.68670811771E+01 -0.97240325059E+03  0.10211540452E+04  0.31131772610E+03 0.  0.
         13    1    3    3    0    0  0.10995655765E+03 -0.90408441826E+02 -0.32723274207E+03  0.35685487023E+03  0.00000000000E+00 0.  1.
          3    1    3    3  501    0 -0.12484342770E+03  0.97275523003E+02 -0.64517050852E+03  0.66429917498E+03  0.00000000000E+00 0.  1.
         21    1    1    2  502  501  0.14886870052E+02 -0.68670811771E+01  0.17637567934E+02  0.24080272142E+02  0.00000000000E+00 0.  1.
<mgrwt>
<rscale>  1 0.30000000E+03</rscale>
<asrwt>0</asrwt>
<pdfrwt beam="1">  1        1 0.16448877E+00 0.30000000E+03</pdfrwt>
<pdfrwt beam="2">0</pdfrwt>
<totfact> 0.15205234E+01</totfact>
</mgrwt>
</event>
<event>
 6    1  0.1939311E-004  0.3000000E+03  0.7818608E-02  0.1093470E+00
          1   -1    0    0  502    0  0.00000000000E+00  0.00000000000E+00  0.34364719823E+02  0.34364719823E+02  0.00000000000E+00 0.  1.
         13   -1    0    0    0    0 -0.00000000000E+00 -0.00000000000E+00 -0.10000000000E+04  0.10000000000E+04  0.00000000000E+00 0.  1.
    9000005    2    1    2  501    0  0.72980635473E+01 -0.93664850049E+01 -0.96496661482E+03  0.10224718696E+04  0.33785672059E+03 0.  0.
         13    1    3    3    0    0  0.13052346216E+03  0.11356595605E+02 -0.82292851274E+03  0.83329267578E+03  0.00000000000E+00 0.  1.
          3    1    3    3  501    0 -0.12322539861E+03 -0.20723080610E+02 -0.14203810209E+03  0.18917919383E+03  0.00000000000E+00 0.  1.
         21    1    1    2  502  501 -0.72980635473E+01  0.93664850049E+01 -0.66866535433E+00  0.11892850215E+02  0.00000000000E+00 0. -1.
<mgrwt>
<rscale>  1 0.30000000E+03</rscale>
<asrwt>0</asrwt>
<pdfrwt beam="1">  1        1 0.12496288E+00 0.30000000E+03</pdfrwt>
<pdfrwt beam="2">0</pdfrwt>
<totfact> 0.24385495E+01</totfact>
</mgrwt>
</event>
<event>
 6    1  0.1939311E-004  0.3000000E+03  0.7818608E-02  0.1093470E+00
          1   -1    0    0  502    0  0.00000000000E+00  0.00000000000E+00  0.29215942887E+02  0.29215942887E+02  0.00000000000E+00 0.  1.
         13   -1    0    0    0    0 -0.00000000000E+00 -0.00000000000E+00 -0.10000000000E+04  0.10000000000E+04  0.00000000000E+00 0.  1.
    9000005    2    1    2  501    0  0.12766786911E+01  0.11714635018E+02 -0.96663957658E+03  0.10167243737E+04  0.31495637549E+03 0.  0.
         13    1    3    3    0    0 -0.14199297019E+02  0.14466894885E+03 -0.73461590361E+03  0.74885996730E+03  0.00000000000E+00 0.  1.
          1    1    3    3  501    0  0.15475975710E+02 -0.13295431383E+03 -0.23202367298E+03  0.26786440639E+03  0.00000000000E+00 0.  1.
         21    1    1    2  502  501 -0.12766786911E+01 -0.11714635018E+02 -0.41444805318E+01  0.12491569196E+02  0.00000000000E+00 0.  1.
<mgrwt>
<rscale>  1 0.30000000E+03</rscale>
<asrwt>0</asrwt>
<pdfrwt beam="1">  1        1 0.10624002E+00 0.30000000E+03</pdfrwt>
<pdfrwt beam="2">0</pdfrwt>
<totfact> 0.31301034E+01</totfact>
</mgrwt>
</event>
<event>
 6    1  0.1939311E-004  0.3000000E+03  0.7818608E-02  0.1093470E+00
          1   -1    0    0  502    0  0.00000000000E+00  0.00000000000E+00  0.49787465333E+02  0.49787465333E+02  0.00000000000E+00 0.  1.
         13   -1    0    0    0    0 -0.00000000000E+00 -0.00000000000E+00 -0.10000000000E+04  0.10000000000E+04  0.00000000000E+00 0.  1.
    9000005    2    1    2  501    0  0.72287162928E+01 -0.82095479921E+01 -0.96729727246E+03  0.10295010343E+04  0.35226228204E+03 0.  0.
         13    1    3    3    0    0 -0.72954831334E+02 -0.11256436775E+03 -0.14816752881E+03  0.19986685792E+03  0.00000000000E+00 0.  1.
          3    1    3    3  501    0  0.80183547627E+02  0.10435481976E+03 -0.81912974365E+03  0.82963417640E+03  0.00000000000E+00 0.  1.
         21    1    1    2  502  501 -0.72287162928E+01  0.82095479921E+01  0.17084737795E+02  0.20286431007E+02  0.00000000000E+00 0. -1.
<mgrwt>
<rscale>  1 0.30000000E+03</rscale>
<asrwt>0</asrwt>
<pdfrwt beam="1">  1        1 0.18104571E+00 0.30000000E+03</pdfrwt>
<pdfrwt beam="2">0</pdfrwt>
<totfact> 0.12626618E+01</totfact>
</mgrwt>
</event>
<event>
 6    1  0.1939311E-004  0.3000000E+03  0.7818608E-02  0.1093470E+00
          1   -1    0    0  502    0  0.00000000000E+00  0.00000000000E+00  0.28134964095E+02  0.28134964095E+02  0.00000000000E+00 0.  1.
         13   -1    0    0    0    0 -0.00000000000E+00 -0.00000000000E+00 -0.10000000000E+04  0.10000000000E+04  0.00000000000E+00 0.  1.
    9000005    2    1    2  501    0 -0.82825979861E+00 -0.16532636053E+02 -0.95762213317E+03  0.10062975112E+04  0.30874020974E+03 0.  0.
         13    1    3    3    0    0  0.94980734890E+02  0.12812415768E+02 -0.86356362330E+03  0.86886571430E+03  0.00000000000E+00 0.  1.
          3    1    3    3  501    0 -0.95808994689E+02 -0.29345051821E+02 -0.94058509873E+02  0.13743179694E+03  0.00000000000E+00 0.  1.
         21    1    1    2  502  501  0.82825979861E+00  0.16532636053E+02 -0.14242902735E+02  0.21837452862E+02  0.00000000000E+00 0.  1.
<mgrwt>
<rscale>  1 0.30000000E+03</rscale>
<asrwt>0</asrwt>
<pdfrwt beam="1">  1        1 0.10230918E+00 0.30000000E+03</pdfrwt>
<pdfrwt beam="2">0</pdfrwt>
<totfact> 0.33099413E+01</totfact>
</mgrwt>
</event>
<event>
 6    1  0.1939311E-004  0.3000000E+03  0.7818608E-02  0.1093470E+00
          1   -1    0    0  502    0  0.00000000000E+00  0.00000000000E+00  0.43345954504E+02  0.43345954504E+02  0.00000000000E+00 0.  1.
         13   -1    0    0    0    0 -0.00000000000E+00 -0.00000000000E+00 -0.10000000000E+04  0.10000000000E+04  0.00000000000E+00 0.  1.
    9000005    2    1    2  501    0 -0.33158313543E+02  0.26133463710E+02 -0.94466007532E+03  0.99945646826E+03  0.32364817682E+03 0.  0.
         13    1    3    3    0    0  0.57003533917E+02 -0.11361381602E+03 -0.63862254422E+03  0.65114994898E+03  0.00000000000E+00 0.  1.
          1    1    3    3  501    0 -0.90161847460E+02  0.13974727973E+03 -0.30603753110E+03  0.34830651928E+03  0.00000000000E+00 0.  1.
         21    1    1    2  502  501  0.33158313543E+02 -0.26133463710E+02 -0.11993970179E+02  0.43889486248E+02  0.00000000000E+00 0.  1.
<mgrwt>
<rscale>  1 0.30000000E+03</rscale>
<asrwt>0</asrwt>
<pdfrwt beam="1">  1        1 0.15762199E+00 0.30000000E+03</pdfrwt>
<pdfrwt beam="2">0</pdfrwt>
<totfact> 0.16445369E+01</totfact>
</mgrwt>
</event>
<event>
 6    1  0.1939311E-004  0.3000000E+03  0.7818608E-02  0.1093470E+00
          1   -1    0    0  502    0  0.00000000000E+00  0.00000000000E+00  0.28138102231E+02  0.28138102231E+02  0.00000000000E+00 0.  1.
         13   -1    0    0    0    0 -0.00000000000E+00 -0.00000000000E+00 -0.10000000000E+04  0.10000000000E+04  0.00000000000E+00 0.  1.
    9000005    2    1    2  501    0 -0.67451894500E+01  0.22917008518E+02 -0.90176181575E+03  0.95407928534E+03  0.31068025929E+03 0.  0.
         13    1    3    3    0    0  0.86315242541E+02 -0.37240881749E+00 -0.82949687866E+03  0.83397573795E+03  0.00000000000E+00 0.  1.
          3    1    3    3  501    0 -0.93060431991E+02  0.23289417336E+02 -0.72264937081E+02  0.12010354738E+03  0.00000000000E+00 0.  1.
         21    1    1    2  502  501  0.67451894500E+01 -0.22917008518E+02 -0.70100082024E+02  0.74058816895E+02  0.00000000000E+00 0.  1.
<mgrwt>
<rscale>  1 0.30000000E+03</rscale>
<asrwt>0</asrwt>
<pdfrwt beam="1">  1        1 0.10232059E+00 0.30000000E+03</pdfrwt>
<pdfrwt beam="2">0</pdfrwt>
<totfact> 0.33093977E+01</totfact>
</mgrwt>
</event>
<event>
 6    1  0.1939311E-004  0.3000000E+03  0.7818608E-02  0.1093470E+00
          1   -1    0    0  502    0  0.00000000000E+00  0.00000000000E+00  0.37740692995E+02  0.37740692995E+02  0.00000000000E+00 0.  1.
         13   -1    0    0    0    0 -0.00000000000E+00 -0.00000000000E+00 -0.10000000000E+04  0.10000000000E+04  0.00000000000E+00 0.  1.
    9000005    2    1    2  501    0  0.24100465027E+02 -0.17635225807E+02 -0.95120359976E+03  0.10058963487E+04  0.32580261270E+03 0.  0.
         13    1    3    3    0    0 -0.13679325848E+03 -0.66230463005E+02 -0.34854254197E+03  0.38023778528E+03  0.00000000000E+00 0.  1.
          1    1    3    3  501    0  0.16089372351E+03  0.48595237198E+02 -0.60266105779E+03  0.62565856337E+03  0.00000000000E+00 0.  1.
         21    1    1    2  502  501 -0.24100465027E+02  0.17635225807E+02 -0.11055707250E+02  0.31844344342E+02  0.00000000000E+00 0. -1.
<mgrwt>
<rscale>  1 0.30000000E+03</rscale>
<asrwt>0</asrwt>
<pdfrwt beam="1">  1        1 0.13723917E+00 0.30000000E+03</pdfrwt>
<pdfrwt beam="2">0</pdfrwt>
<totfact> 0.20921261E+01</totfact>
</mgrwt>
</event>
<event>
 6    1  0.1939311E-004  0.3000000E+03  0.7818608E-02  0.1093470E+00
          1   -1    0    0  502    0  0.00000000000E+00  0.00000000000E+00  0.28817495652E+02  0.28817495652E+02  0.00000000000E+00 0.  1.
         13   -1    0    0    0    0 -0.00000000000E+00 -0.00000000000E+00 -0.10000000000E+04  0.10000000000E+04  0.00000000000E+00 0.  1.
    9000005    2    1    2  501    0 -0.67756643965E+01 -0.76539277954E+01 -0.95882560168E+03  0.10127804984E+04  0.32599587601E+03 0.  0.
         13    1    3    3    0    0  0.21621726096E+02 -0.15790363320E+03 -0.34244436285E+03  0.37771576359E+03  0.00000000000E+00 0.  1.
          1    1    3    3  501    0 -0.28397390492E+02  0.15024970540E+03 -0.61638123884E+03  0.63506473477E+03  0.00000000000E+00 0.  1.
         21    1    1    2  502  501  0.67756643965E+01  0.76539277954E+01 -0.12356902663E+02  0.16036997291E+02  0.00000000000E+00 0.  1.
<mgrwt>
<rscale>  1 0.30000000E+03</rscale>
<asrwt>0</asrwt>
<pdfrwt beam="1">  1        1 0.10479111E+00 0.30000000E+03</pdfrwt>
<pdfrwt beam="2">0</pdfrwt>
<totfact> 0.31947043E+01</totfact>
</mgrwt>
</event>
<event>
 6    1  0.1939311E-004  0.3000000E+03  0.7818608E-02  0.1093470E+00
          1   -1    0    0  502    0  0.00000000000E+00  0.00000000000E+00  0.31025073206E+02  0.31025073206E+02  0.00000000000E+00 0.  1.
         13   -1    0    0    0    0 -0.00000000000E+00 -0.00000000000E+00 -0.10000000000E+04  0.10000000000E+04  0.00000000000E+00 0.  1.
    9000005    2    1    2  501    0 -0.19952032892E+02  0.67836877291E+00 -0.94100270803E+03  0.99665955527E+03  0.32778900040E+03 0.  0.
         13    1    3    3    0    0 -0.62347424614E+01  0.16407818038E+03 -0.45236756346E+03  0.48124519090E+03  0.00000000000E+00 0.  1.
          1    1    3    3  501    0 -0.13717290430E+02 -0.16339981161E+03 -0.48863514457E+03  0.51541436437E+03  0.00000000000E+00 0.  1.
         21    1    1    2  502  501  0.19952032892E+02 -0.67836877291E+00 -0.27972218764E+02  0.34365517940E+02  0.00000000000E+00 0.  1.
<mgrwt>
<rscale>  1 0.30000000E+03</rscale>
<asrwt>0</asrwt>
<pdfrwt beam="1">  1        1 0.11281869E+00 0.30000000E+03</pdfrwt>
<pdfrwt beam="2">0</pdfrwt>
<totfact> 0.28591099E+01</totfact>
</mgrwt>
</event>
<event>
 6    1  0.1939311E-004  0.3000000E+03  0.7818608E-02  0.1093470E+00
          1   -1    0    0  502    0  0.00000000000E+00  0.00000000000E+00  0.32242646142E+02  0.32242646142E+02  0.00000000000E+00 0.  1.
         13   -1    0    0    0    0 -0.00000000000E+00 -0.00000000000E+00 -0.10000000000E+04  0.10000000000E+04  0.00000000000E+00 0.  1.
    9000005    2    1    2  501    0 -0.16329589742E+02  0.13405640493E+02 -0.94718532036E+03  0.10027540846E+04  0.32849559575E+03 0.  0.
         13    1    3    3    0    0 -0.12177830424E+03  0.12572458526E+03 -0.49276249158E+03  0.52292590281E+03  0.00000000000E+00 0.  1.
          1    1    3    3  501    0  0.10544871450E+03 -0.11231894477E+03 -0.45442282878E+03  0.47982818181E+03  0.00000000000E+00 0.  1.
         21    1    1    2  502  501  0.16329589742E+02 -0.13405640493E+02 -0.20572033497E+02  0.29488561517E+02  0.00000000000E+00 0.  1.
<mgrwt>
<rscale>  1 0.30000000E+03</rscale>
<asrwt>0</asrwt>
<pdfrwt beam="1">  1        1 0.11724623E+00 0.30000000E+03</pdfrwt>
<pdfrwt beam="2">0</pdfrwt>
<totfact> 0.26951079E+01</totfact>
</mgrwt>
</event>
<event>
 6    1  0.1939311E-004  0.3000000E+03  0.7818608E-02  0.1093470E+00
          1   -1    0    0  502    0  0.00000000000E+00  0.00000000000E+00  0.33800341994E+02  0.33800341994E+02  0.00000000000E+00 0.  1.
         13   -1    0    0    0    0 -0.00000000000E+00 -0.00000000000E+00 -0.10000000000E+04  0.10000000000E+04  0.00000000000E+00 0.  1.
    9000005    2    1    2  501    0  0.27043785383E+02 -0.37009948300E+01 -0.94171599762E+03  0.99713273618E+03  0.32664906197E+03 0.  0.
         13    1    3    3    0    0 -0.14220089765E+02  0.92074333140E+02 -0.85896744714E+03  0.86400519039E+03  0.00000000000E+00 0.  1.
          3    1    3    3  501    0  0.41263875148E+02 -0.95775327970E+02 -0.82748550481E+02  0.13312754579E+03  0.00000000000E+00 0.  1.
         21    1    1    2  502  501 -0.27043785383E+02  0.37009948300E+01 -0.24483660383E+02  0.36667605816E+02  0.00000000000E+00 0. -1.
<mgrwt>
<rscale>  1 0.30000000E+03</rscale>
<asrwt>0</asrwt>
<pdfrwt beam="1">  1        1 0.12291059E+00 0.30000000E+03</pdfrwt>
<pdfrwt beam="2">0</pdfrwt>
<totfact> 0.25035217E+01</totfact>
</mgrwt>
</event>
<event>
 6    1  0.1939311E-004  0.3000000E+03  0.7818608E-02  0.1093470E+00
          1   -1    0    0  502    0  0.00000000000E+00  0.00000000000E+00  0.30884990017E+02  0.30884990017E+02  0.00000000000E+00 0.  1.
         13   -1    0    0    0    0 -0.00000000000E+00 -0.00000000000E+00 -0.10000000000E+04  0.10000000000E+04  0.00000000000E+00 0.  1.
    9000005    2    1    2  501    0  0.12316366049E+02  0.24423991538E+01 -0.95998831351E+03  0.10153622720E+04  0.33049254626E+03 0.  0.
         13    1    3    3    0    0 -0.14747135761E+03  0.98185204357E+01 -0.64936473372E+03  0.66597204300E+03  0.00000000000E+00 0.  1.
          1    1    3    3  501    0  0.15978772366E+03 -0.73761212819E+01 -0.31062357979E+03  0.34939022900E+03  0.00000000000E+00 0.  1.
         21    1    1    2  502  501 -0.12316366049E+02 -0.24423991538E+01 -0.91266964752E+01  0.15522718024E+02  0.00000000000E+00 0.  1.
<mgrwt>
<rscale>  1 0.30000000E+03</rscale>
<asrwt>0</asrwt>
<pdfrwt beam="1">  1        1 0.11230929E+00 0.30000000E+03</pdfrwt>
<pdfrwt beam="2">0</pdfrwt>
<totfact> 0.28788768E+01</totfact>
</mgrwt>
</event>
<event>
 6    1  0.1939311E-004  0.3000000E+03  0.7818608E-02  0.1093470E+00
          1   -1    0    0  502    0  0.00000000000E+00  0.00000000000E+00  0.27433225228E+02  0.27433225228E+02  0.00000000000E+00 0.  1.
         13   -1    0    0    0    0 -0.00000000000E+00 -0.00000000000E+00 -0.10000000000E+04  0.10000000000E+04  0.00000000000E+00 0.  1.
    9000005    2    1    2  501    0 -0.66905722733E+01 -0.78189715270E+01 -0.96569181060E+03  0.10150572321E+04  0.31252937676E+03 0.  0.
         13    1    3    3    0    0  0.78746192458E+02  0.11415746747E+03 -0.66740567030E+03  0.68166210028E+03  0.00000000000E+00 0.  1.
          3    1    3    3  501    0 -0.85436764731E+02 -0.12197643900E+03 -0.29828614030E+03  0.33339513184E+03  0.00000000000E+00 0.  1.
         21    1    1    2  502  501  0.66905722733E+01  0.78189715270E+01 -0.68749641684E+01  0.12375993108E+02  0.00000000000E+00 0.  1.
<mgrwt>
<rscale>  1 0.30000000E+03</rscale>
<asrwt>0</asrwt>
<pdfrwt beam="1">  1        1 0.99757393E-01 0.30000000E+03</pdfrwt>
<pdfrwt beam="2">0</pdfrwt>
<totfact> 0.34348677E+01</totfact>
</mgrwt>
</event>
<event>
 6    1  0.1939311E-004  0.3000000E+03  0.7818608E-02  0.1093470E+00
          1   -1    0    0  502    0  0.00000000000E+00  0.00000000000E+00  0.29847190178E+02  0.29847190178E+02  0.00000000000E+00 0.  1.
         13   -1    0    0    0    0 -0.00000000000E+00 -0.00000000000E+00 -0.10000000000E+04  0.10000000000E+04  0.00000000000E+00 0.  1.
    9000005    2    1    2  501    0 -0.52204996414E+01 -0.15493099613E+02 -0.95302720223E+03  0.10061707000E+04  0.32225973931E+03 0.  0.
         13    1    3    3    0    0 -0.15895563041E+03  0.31066953656E+02 -0.46727538307E+03  0.49454861407E+03  0.00000000000E+00 0.  1.
          3    1    3    3  501    0  0.15373513077E+03 -0.46560053269E+02 -0.48575181916E+03  0.51162208593E+03  0.00000000000E+00 0.  1.
         21    1    1    2  502  501  0.52204996414E+01  0.15493099613E+02 -0.17125607593E+02  0.23676490187E+02  0.00000000000E+00 0.  1.
<mgrwt>
<rscale>  1 0.30000000E+03</rscale>
<asrwt>0</asrwt>
<pdfrwt beam="1">  1        1 0.10853547E+00 0.30000000E+03</pdfrwt>
<pdfrwt beam="2">0</pdfrwt>
<totfact> 0.30315438E+01</totfact>
</mgrwt>
</event>
<event>
 6    1  0.1939311E-004  0.3000000E+03  0.7818608E-02  0.1093470E+00
          1   -1    0    0  502    0  0.00000000000E+00  0.00000000000E+00  0.31724414255E+02  0.31724414255E+02  0.00000000000E+00 0.  1.
         13   -1    0    0    0    0 -0.00000000000E+00 -0.00000000000E+00 -0.10000000000E+04  0.10000000000E+04  0.00000000000E+00 0.  1.
    9000005    2    1    2  501    0 -0.52006478457E+01  0.97639493618E+01 -0.96715332275E+03  0.10206050204E+04  0.32577089578E+03 0.  0.
         13    1    3    3    0    0 -0.15438791695E+03 -0.46957994862E+02 -0.57502301987E+03  0.59723710163E+03  0.00000000000E+00 0.  1.
          3    1    3    3  501    0  0.14918726910E+03  0.56721944224E+02 -0.39213030288E+03  0.42336791879E+03  0.00000000000E+00 0.  1.
         21    1    1    2  502  501  0.52006478457E+01 -0.97639493618E+01 -0.11222629903E+01  0.11119393840E+02  0.00000000000E+00 0.  1.
<mgrwt>
<rscale>  1 0.30000000E+03</rscale>
<asrwt>0</asrwt>
<pdfrwt beam="1">  1        1 0.11536175E+00 0.30000000E+03</pdfrwt>
<pdfrwt beam="2">0</pdfrwt>
<totfact> 0.27632571E+01</totfact>
</mgrwt>
</event>
<event>
 6    1  0.1939311E-004  0.3000000E+03  0.7818608E-02  0.1093470E+00
          1   -1    0    0  502    0  0.00000000000E+00  0.00000000000E+00  0.43996151768E+02  0.43996151768E+02  0.00000000000E+00 0.  1.
         13   -1    0    0    0    0 -0.00000000000E+00 -0.00000000000E+00 -0.10000000000E+04  0.10000000000E+04  0.00000000000E+00 0.  1.
    9000005    2    1    2  501    0 -0.27974872880E+02  0.64065030697E+02 -0.88417781502E+03  0.94376691094E+03  0.32255023164E+03 0.  0.
         13    1    3    3    0    0 -0.15996461537E+03 -0.36324133165E+02 -0.45495468587E+03  0.48362370394E+03  0.00000000000E+00 0.  1.
          1    1    3    3  501    0  0.13198974249E+03  0.10038916386E+03 -0.42922312916E+03  0.46014320700E+03  0.00000000000E+00 0.  1.
         21    1    1    2  502  501  0.27974872880E+02 -0.64065030697E+02 -0.71826033210E+02  0.10022924083E+03  0.00000000000E+00 0. -1.
<mgrwt>
<rscale>  1 0.30000000E+03</rscale>
<asrwt>0</asrwt>
<pdfrwt beam="1">  1        1 0.15998634E+00 0.30000000E+03</pdfrwt>
<pdfrwt beam="2">0</pdfrwt>
<totfact> 0.16005546E+01</totfact>
</mgrwt>
</event>
<event>
 6    1  0.1939311E-004  0.3000000E+03  0.7818608E-02  0.1093470E+00
          1   -1    0    0  502    0  0.00000000000E+00  0.00000000000E+00  0.40723400410E+02  0.40723400410E+02  0.00000000000E+00 0.  1.
         13   -1    0    0    0    0 -0.00000000000E+00 -0.00000000000E+00 -0.10000000000E+04  0.10000000000E+04  0.00000000000E+00 0.  1.
    9000005    2    1    2  501    0 -0.85791298321E+01 -0.89909347697E+01 -0.96836720074E+03  0.10253260823E+04  0.33675525404E+03 0.  0.
         13    1    3    3    0    0  0.10948805027E+03  0.26443750156E+02 -0.83939475584E+03  0.84691821401E+03  0.00000000000E+00 0.  1.
          1    1    3    3  501    0 -0.11806718011E+03 -0.35434684926E+02 -0.12897244490E+03  0.17840786826E+03  0.00000000000E+00 0.  1.
         21    1    1    2  502  501  0.85791298321E+01  0.89909347697E+01  0.90906011532E+01  0.15397318144E+02  0.00000000000E+00 0. -1.
<mgrwt>
<rscale>  1 0.30000000E+03</rscale>
<asrwt>0</asrwt>
<pdfrwt beam="1">  1        1 0.14808540E+00 0.30000000E+03</pdfrwt>
<pdfrwt beam="2">0</pdfrwt>
<totfact> 0.18373336E+01</totfact>
</mgrwt>
</event>
<event>
 6    1  0.1939311E-004  0.3000000E+03  0.7818608E-02  0.1093470E+00
          1   -1    0    0  502    0  0.00000000000E+00  0.00000000000E+00  0.34492097225E+02  0.34492097225E+02  0.00000000000E+00 0.  1.
         13   -1    0    0    0    0 -0.00000000000E+00 -0.00000000000E+00 -0.10000000000E+04  0.10000000000E+04  0.00000000000E+00 0.  1.
    9000005    2    1    2  501    0  0.19643937499E+02  0.13544934450E+02 -0.94937668707E+03  0.10056899159E+04  0.33094827909E+03 0.  0.
         13    1    3    3    0    0  0.76712684272E+01 -0.40760263228E+02 -0.94917445404E+03  0.95008020273E+03  0.00000000000E+00 0.  1.
          1    1    3    3  501    0  0.11972669072E+02  0.54305197678E+02 -0.20223303400E+00  0.55609713160E+02  0.00000000000E+00 0.  1.
         21    1    1    2  502  501 -0.19643937499E+02 -0.13544934450E+02 -0.16131215703E+02  0.28802181337E+02  0.00000000000E+00 0.  1.
<mgrwt>
<rscale>  1 0.30000000E+03</rscale>
<asrwt>0</asrwt>
<pdfrwt beam="1">  1        1 0.12542607E+00 0.30000000E+03</pdfrwt>
<pdfrwt beam="2">0</pdfrwt>
<totfact> 0.24241842E+01</totfact>
</mgrwt>
</event>
<event>
 6    1  0.1939311E-004  0.3000000E+03  0.7818608E-02  0.1093470E+00
          1   -1    0    0  502    0  0.00000000000E+00  0.00000000000E+00  0.38591672303E+02  0.38591672303E+02  0.00000000000E+00 0.  1.
         13   -1    0    0    0    0 -0.00000000000E+00 -0.00000000000E+00 -0.10000000000E+04  0.10000000000E+04  0.00000000000E+00 0.  1.
    9000005    2    1    2  501    0 -0.10639656861E+02 -0.52679573331E+01 -0.96955507063E+03  0.10241929539E+04  0.32983816953E+03 0.  0.
         13    1    3    3    0    0  0.80134780563E+02  0.76146082415E+02 -0.10970525163E+03  0.15574033247E+03  0.00000000000E+00 0.  1.
          3    1    3    3  501    0 -0.90774437424E+02 -0.81414039749E+02 -0.85984981900E+03  0.86845262139E+03  0.00000000000E+00 0.  1.
         21    1    1    2  502  501  0.10639656861E+02  0.52679573331E+01  0.81467429287E+01  0.14398718448E+02  0.00000000000E+00 0.  1.
<mgrwt>
<rscale>  1 0.30000000E+03</rscale>
<asrwt>0</asrwt>
<pdfrwt beam="1">  1        1 0.14033365E+00 0.30000000E+03</pdfrwt>
<pdfrwt beam="2">0</pdfrwt>
<totfact> 0.20150936E+01</totfact>
</mgrwt>
</event>
<event>
 6    1  0.1939311E-004  0.3000000E+03  0.7818608E-02  0.1093470E+00
          1   -1    0    0  502    0  0.00000000000E+00  0.00000000000E+00  0.42452898647E+02  0.42452898647E+02  0.00000000000E+00 0.  1.
         13   -1    0    0    0    0 -0.00000000000E+00 -0.00000000000E+00 -0.10000000000E+04  0.10000000000E+04  0.00000000000E+00 0.  1.
    9000005    2    1    2  501    0  0.17365157671E+02 -0.40943444481E+02 -0.88590032406E+03  0.95812511531E+03  0.36222429248E+03 0.  0.
         13    1    3    3    0    0  0.41388733960E+02 -0.14864626038E+03 -0.15417338780E+03  0.21812421124E+03  0.00000000000E+00 0.  1.
          1    1    3    3  501    0 -0.24023576289E+02  0.10770281590E+03 -0.73172693626E+03  0.74000090407E+03  0.00000000000E+00 0.  1.
         21    1    1    2  502  501 -0.17365157671E+02  0.40943444481E+02 -0.71646777289E+02  0.84327783339E+02  0.00000000000E+00 0.  1.
<mgrwt>
<rscale>  1 0.30000000E+03</rscale>
<asrwt>0</asrwt>
<pdfrwt beam="1">  1        1 0.15437450E+00 0.30000000E+03</pdfrwt>
<pdfrwt beam="2">0</pdfrwt>
<totfact> 0.17073037E+01</totfact>
</mgrwt>
</event>
<event>
 6    1  0.1939311E-004  0.3000000E+03  0.7818608E-02  0.1093470E+00
          1   -1    0    0  502    0  0.00000000000E+00  0.00000000000E+00  0.34902852731E+02  0.34902852731E+02  0.00000000000E+00 0.  1.
         13   -1    0    0    0    0 -0.00000000000E+00 -0.00000000000E+00 -0.10000000000E+04  0.10000000000E+04  0.00000000000E+00 0.  1.
    9000005    2    1    2  501    0 -0.96535861479E+01 -0.80586136900E+01 -0.96208193014E+03  0.10219713209E+04  0.34447874759E+03 0.  0.
         13    1    3    3    0    0 -0.34886202331E+02  0.14538959931E+03 -0.23565047746E+03  0.27908122514E+03  0.00000000000E+00 0.  1.
          3    1    3    3  501    0  0.25232616183E+02 -0.15344821300E+03 -0.72643145268E+03  0.74289009580E+03  0.00000000000E+00 0.  1.
         21    1    1    2  502  501  0.96535861479E+01  0.80586136900E+01 -0.30152171275E+01  0.12931531790E+02  0.00000000000E+00 0.  1.
<mgrwt>
<rscale>  1 0.30000000E+03</rscale>
<asrwt>0</asrwt>
<pdfrwt beam="1">  1        1 0.12691973E+00 0.30000000E+03</pdfrwt>
<pdfrwt beam="2">0</pdfrwt>
<totfact> 0.23785876E+01</totfact>
</mgrwt>
</event>
<event>
 6    1  0.1939311E-004  0.3000000E+03  0.7818608E-02  0.1093470E+00
          1   -1    0    0  502    0  0.00000000000E+00  0.00000000000E+00  0.44218579946E+02  0.44218579946E+02  0.00000000000E+00 0.  1.
         13   -1    0    0    0    0 -0.00000000000E+00 -0.00000000000E+00 -0.10000000000E+04  0.10000000000E+04  0.00000000000E+00 0.  1.
    9000005    2    1    2  501    0 -0.22299687691E+02  0.55228337346E+00 -0.96499123744E+03  0.10200855771E+04  0.32995289856E+03 0.  0.
         13    1    3    3    0    0 -0.17333283340E+03 -0.31679084156E+02 -0.50392637655E+03  0.53384419870E+03  0.00000000000E+00 0.  1.
          3    1    3    3  501    0  0.15103314571E+03  0.32231367529E+02 -0.46106486089E+03  0.48624137844E+03  0.00000000000E+00 0.  1.
         21    1    1    2  502  501  0.22299687691E+02 -0.55228337346E+00  0.92098173849E+01  0.24133002804E+02  0.00000000000E+00 0. -1.
<mgrwt>
<rscale>  1 0.30000000E+03</rscale>
<asrwt>0</asrwt>
<pdfrwt beam="1">  1        1 0.16079518E+00 0.30000000E+03</pdfrwt>
<pdfrwt beam="2">0</pdfrwt>
<totfact> 0.15858253E+01</totfact>
</mgrwt>
</event>
<event>
 6    1  0.1939311E-004  0.3000000E+03  0.7818608E-02  0.1093470E+00
          1   -1    0    0  502    0  0.00000000000E+00  0.00000000000E+00  0.37234452256E+02  0.37234452256E+02  0.00000000000E+00 0.  1.
         13   -1    0    0    0    0 -0.00000000000E+00 -0.00000000000E+00 -0.10000000000E+04  0.10000000000E+04  0.00000000000E+00 0.  1.
    9000005    2    1    2  501    0  0.61159359292E+02  0.37062176695E+01 -0.88589943255E+03  0.93893591237E+03  0.30500596662E+03 0.  0.
         13    1    3    3    0    0 -0.10481204620E+03  0.69810697593E+02 -0.27526669860E+03  0.30270588677E+03  0.00000000000E+00 0.  1.
          1    1    3    3  501    0  0.16597140549E+03 -0.66104479923E+02 -0.61063273395E+03  0.63623002560E+03  0.00000000000E+00 0.  1.
         21    1    1    2  502  501 -0.61159359292E+02 -0.37062176695E+01 -0.76866115197E+02  0.98298539886E+02  0.00000000000E+00 0.  1.
<mgrwt>
<rscale>  1 0.30000000E+03</rscale>
<asrwt>0</asrwt>
<pdfrwt beam="1">  1        1 0.13539829E+00 0.30000000E+03</pdfrwt>
<pdfrwt beam="2">0</pdfrwt>
<totfact> 0.21397564E+01</totfact>
</mgrwt>
</event>
<event>
 6    1  0.1939311E-004  0.3000000E+03  0.7818608E-02  0.1093470E+00
          1   -1    0    0  502    0  0.00000000000E+00  0.00000000000E+00  0.32521790259E+02  0.32521790259E+02  0.00000000000E+00 0.  1.
         13   -1    0    0    0    0 -0.00000000000E+00 -0.00000000000E+00 -0.10000000000E+04  0.10000000000E+04  0.00000000000E+00 0.  1.
    9000005    2    1    2  501    0  0.70002509614E+01  0.13847410322E+02 -0.94757636545E+03  0.10072861470E+04  0.34129702494E+03 0.  0.
         13    1    3    3    0    0 -0.22285623055E+00  0.19504619346E+02 -0.97662667566E+03  0.97682144912E+03  0.00000000000E+00 0.  1.
          1    1    3    3  501    0  0.72231071919E+01 -0.56572090234E+01  0.29050310215E+02  0.30464697849E+02  0.00000000000E+00 0.  1.
         21    1    1    2  502  501 -0.70002509614E+01 -0.13847410322E+02 -0.19901844295E+02  0.25235643295E+02  0.00000000000E+00 0. -1.
<mgrwt>
<rscale>  1 0.30000000E+03</rscale>
<asrwt>0</asrwt>
<pdfrwt beam="1">  1        1 0.11826130E+00 0.30000000E+03</pdfrwt>
<pdfrwt beam="2">0</pdfrwt>
<totfact> 0.26593570E+01</totfact>
</mgrwt>
</event>
<event>
 6    1  0.1939311E-004  0.3000000E+03  0.7818608E-02  0.1093470E+00
          1   -1    0    0  502    0  0.00000000000E+00  0.00000000000E+00  0.37819182396E+02  0.37819182396E+02  0.00000000000E+00 0.  1.
         13   -1    0    0    0    0 -0.00000000000E+00 -0.00000000000E+00 -0.10000000000E+04  0.10000000000E+04  0.00000000000E+00 0.  1.
    9000005    2    1    2  501    0 -0.33546635704E+02  0.37764061206E+02 -0.89903794693E+03  0.95695804709E+03  0.32395674524E+03 0.  0.
         13    1    3    3    0    0 -0.73938050861E+02 -0.83975296325E+02 -0.75841906849E+03  0.76662779052E+03  0.00000000000E+00 0.  1.
          1    1    3    3  501    0  0.40391415157E+02  0.12173935753E+03 -0.14061887844E+03  0.19033025656E+03  0.00000000000E+00 0.  1.
         21    1    1    2  502  501  0.33546635704E+02 -0.37764061206E+02 -0.63142870678E+02  0.80861135308E+02  0.00000000000E+00 0.  1.
<mgrwt>
<rscale>  1 0.30000000E+03</rscale>
<asrwt>0</asrwt>
<pdfrwt beam="1">  1        1 0.13752459E+00 0.30000000E+03</pdfrwt>
<pdfrwt beam="2">0</pdfrwt>
<totfact> 0.20848651E+01</totfact>
</mgrwt>
</event>
<event>
 6    1  0.1939311E-004  0.3000000E+03  0.7818608E-02  0.1093470E+00
          1   -1    0    0  502    0  0.00000000000E+00  0.00000000000E+00  0.31064177816E+02  0.31064177816E+02  0.00000000000E+00 0.  1.
         13   -1    0    0    0    0 -0.00000000000E+00 -0.00000000000E+00 -0.10000000000E+04  0.10000000000E+04  0.00000000000E+00 0.  1.
    9000005    2    1    2  501    0 -0.19815399235E+01 -0.11173069823E+02 -0.96898588472E+03  0.10197166452E+04  0.31742657065E+03 0.  0.
         13    1    3    3    0    0 -0.70467265548E+02  0.13623143979E+03 -0.52347895336E+03  0.54548588919E+03  0.00000000000E+00 0.  1.
          1    1    3    3  501    0  0.68485725624E+02 -0.14740450961E+03 -0.44550693137E+03  0.47423075603E+03  0.00000000000E+00 0.  1.
         21    1    1    2  502  501  0.19815399235E+01  0.11173069823E+02  0.50062539871E-01  0.11347532595E+02  0.00000000000E+00 0. -1.
<mgrwt>
<rscale>  1 0.30000000E+03</rscale>
<asrwt>0</asrwt>
<pdfrwt beam="1">  1        1 0.11296088E+00 0.30000000E+03</pdfrwt>
<pdfrwt beam="2">0</pdfrwt>
<totfact> 0.28536266E+01</totfact>
</mgrwt>
</event>
<event>
 6    1  0.1939311E-004  0.3000000E+03  0.7818608E-02  0.1093470E+00
          1   -1    0    0  502    0  0.00000000000E+00  0.00000000000E+00  0.28535330775E+02  0.28535330775E+02  0.00000000000E+00 0.  1.
         13   -1    0    0    0    0 -0.00000000000E+00 -0.00000000000E+00 -0.10000000000E+04  0.10000000000E+04  0.00000000000E+00 0.  1.
    9000005    2    1    2  501    0 -0.11374322113E+02  0.23022960555E+01 -0.95704577285E+03  0.10100264047E+04  0.32261749976E+03 0.  0.
         13    1    3    3    0    0 -0.12154849725E+03 -0.16037359404E+02 -0.83748948826E+03  0.84641590074E+03  0.00000000000E+00 0.  1.
          1    1    3    3  501    0  0.11017417514E+03  0.18339655460E+02 -0.11955628459E+03  0.16361050399E+03  0.00000000000E+00 0.  1.
         21    1    1    2  502  501  0.11374322113E+02 -0.23022960555E+01 -0.14418896375E+02  0.18508926045E+02  0.00000000000E+00 0.  1.
<mgrwt>
<rscale>  1 0.30000000E+03</rscale>
<asrwt>0</asrwt>
<pdfrwt beam="1">  1        1 0.10376506E+00 0.30000000E+03</pdfrwt>
<pdfrwt beam="2">0</pdfrwt>
<totfact> 0.32416256E+01</totfact>
</mgrwt>
</event>
<event>
 6    1  0.1939311E-004  0.3000000E+03  0.7818608E-02  0.1093470E+00
          1   -1    0    0  502    0  0.00000000000E+00  0.00000000000E+00  0.30791302392E+02  0.30791302392E+02  0.00000000000E+00 0.  1.
         13   -1    0    0    0    0 -0.00000000000E+00 -0.00000000000E+00 -0.10000000000E+04  0.10000000000E+04  0.00000000000E+00 0.  1.
    9000005    2    1    2  501    0 -0.20869378015E+02  0.22948591115E+01 -0.93346507866E+03  0.98933767031E+03  0.32709505577E+03 0.  0.
         13    1    3    3    0    0  0.84436262997E+02  0.12683353122E+03 -0.58624208114E+03  0.60571941099E+03  0.00000000000E+00 0.  1.
          1    1    3    3  501    0 -0.10530564101E+03 -0.12453867211E+03 -0.34722299752E+03  0.38361825933E+03  0.00000000000E+00 0.  1.
         21    1    1    2  502  501  0.20869378015E+02 -0.22948591115E+01 -0.35743618948E+02  0.41453632079E+02  0.00000000000E+00 0. -1.
<mgrwt>
<rscale>  1 0.30000000E+03</rscale>
<asrwt>0</asrwt>
<pdfrwt beam="1">  1        1 0.11196861E+00 0.30000000E+03</pdfrwt>
<pdfrwt beam="2">0</pdfrwt>
<totfact> 0.28922063E+01</totfact>
</mgrwt>
</event>
<event>
 6    1  0.1939311E-004  0.3000000E+03  0.7818608E-02  0.1093470E+00
          1   -1    0    0  502    0  0.00000000000E+00  0.00000000000E+00  0.19408124477E+02  0.19408124477E+02  0.00000000000E+00 0.  1.
         13   -1    0    0    0    0 -0.00000000000E+00 -0.00000000000E+00 -0.10000000000E+04  0.10000000000E+04  0.00000000000E+00 0.  1.
    9000005    2    1    2  501    0  0.32117566459E+01  0.91741582644E+01 -0.97407760955E+03  0.10077070039E+04  0.25797623109E+03 0.  0.
         13    1    3    3    0    0  0.92033491791E+02 -0.82909372832E+02 -0.36852045726E+03  0.38878201493E+03  0.00000000000E+00 0.  1.
          1    1    3    3  501    0 -0.88821735145E+02  0.92083531097E+02 -0.60555715229E+03  0.61892498901E+03  0.00000000000E+00 0.  1.
         21    1    1    2  502  501 -0.32117566459E+01 -0.91741582644E+01 -0.65142659737E+01  0.11701120536E+02  0.00000000000E+00 0.  1.
<mgrwt>
<rscale>  1 0.30000000E+03</rscale>
<asrwt>0</asrwt>
<pdfrwt beam="1">  1        1 0.70575147E-01 0.30000000E+03</pdfrwt>
<pdfrwt beam="2">0</pdfrwt>
<totfact> 0.55761265E+01</totfact>
</mgrwt>
</event>
<event>
 6    1  0.1939311E-004  0.3000000E+03  0.7818608E-02  0.1093470E+00
          1   -1    0    0  502    0  0.00000000000E+00  0.00000000000E+00  0.83253738890E+02  0.83253738890E+02  0.00000000000E+00 0.  1.
         13   -1    0    0    0    0 -0.00000000000E+00 -0.00000000000E+00 -0.10000000000E+04  0.10000000000E+04  0.00000000000E+00 0.  1.
    9000005    2    1    2  501    0 -0.39693415915E+02  0.12773284736E+02 -0.96641841335E+03  0.10183996968E+04  0.31848809818E+03 0.  0.
         13    1    3    3    0    0  0.11890189918E+03 -0.68795885988E+02 -0.32961909590E+03  0.35709842333E+03  0.00000000000E+00 0.  1.
          1    1    3    3  501    0 -0.15859531509E+03  0.81569170723E+02 -0.63679931744E+03  0.66130127346E+03  0.00000000000E+00 0.  1.
         21    1    1    2  502  501  0.39693415915E+02 -0.12773284736E+02  0.49672152235E+02  0.64854042107E+02  0.00000000000E+00 0.  1.
<mgrwt>
<rscale>  1 0.30000000E+03</rscale>
<asrwt>0</asrwt>
<pdfrwt beam="1">  1        1 0.30274151E+00 0.30000000E+03</pdfrwt>
<pdfrwt beam="2">0</pdfrwt>
<totfact> 0.33717558E+00</totfact>
</mgrwt>
</event>
<event>
 6    1  0.1939311E-004  0.3000000E+03  0.7818608E-02  0.1093470E+00
          1   -1    0    0  502    0  0.00000000000E+00  0.00000000000E+00  0.32992907575E+02  0.32992907575E+02  0.00000000000E+00 0.  1.
         13   -1    0    0    0    0 -0.00000000000E+00 -0.00000000000E+00 -0.10000000000E+04  0.10000000000E+04  0.00000000000E+00 0.  1.
    9000005    2    1    2  501    0  0.15648051356E+02  0.22459429480E+02 -0.93973537193E+03  0.99435310656E+03  0.32386145770E+03 0.  0.
         13    1    3    3    0    0 -0.10407403565E+03 -0.68704928207E+01 -0.80504746655E+03  0.81177585081E+03  0.00000000000E+00 0.  1.
          1    1    3    3  501    0  0.11972208701E+03  0.29329922300E+02 -0.13468790538E+03  0.18257725574E+03  0.00000000000E+00 0.  1.
         21    1    1    2  502  501 -0.15648051356E+02 -0.22459429480E+02 -0.27271720499E+02  0.38639801019E+02  0.00000000000E+00 0.  1.
<mgrwt>
<rscale>  1 0.30000000E+03</rscale>
<asrwt>0</asrwt>
<pdfrwt beam="1">  1        1 0.11997446E+00 0.30000000E+03</pdfrwt>
<pdfrwt beam="2">0</pdfrwt>
<totfact> 0.26004666E+01</totfact>
</mgrwt>
</event>
<event>
 6    1  0.1939311E-004  0.3000000E+03  0.7818608E-02  0.1093470E+00
          1   -1    0    0  502    0  0.00000000000E+00  0.00000000000E+00  0.43592037129E+02  0.43592037129E+02  0.00000000000E+00 0.  1.
         13   -1    0    0    0    0 -0.00000000000E+00 -0.00000000000E+00 -0.10000000000E+04  0.10000000000E+04  0.00000000000E+00 0.  1.
    9000005    2    1    2  501    0 -0.71885914581E+01 -0.19368140585E+02 -0.96649828042E+03  0.10206004033E+04  0.32722997492E+03 0.  0.
         13    1    3    3    0    0 -0.83297113085E+02  0.10896402169E+03 -0.21935425935E+03  0.25870419046E+03  0.00000000000E+00 0.  1.
          1    1    3    3  501    0  0.76108521627E+02 -0.12833216227E+03 -0.74714402107E+03  0.76189621286E+03  0.00000000000E+00 0.  1.
         21    1    1    2  502  501  0.71885914581E+01  0.19368140585E+02  0.10090317549E+02  0.22991633807E+02  0.00000000000E+00 0.  1.
<mgrwt>
<rscale>  1 0.30000000E+03</rscale>
<asrwt>0</asrwt>
<pdfrwt beam="1">  1        1 0.15851683E+00 0.30000000E+03</pdfrwt>
<pdfrwt beam="2">0</pdfrwt>
<totfact> 0.16277258E+01</totfact>
</mgrwt>
</event>
<event>
 6    1  0.1939311E-004  0.3000000E+03  0.7818608E-02  0.1093470E+00
          1   -1    0    0  502    0  0.00000000000E+00  0.00000000000E+00  0.36415508843E+02  0.36415508843E+02  0.00000000000E+00 0.  1.
         13   -1    0    0    0    0 -0.00000000000E+00 -0.00000000000E+00 -0.10000000000E+04  0.10000000000E+04  0.00000000000E+00 0.  1.
    9000005    2    1    2  501    0 -0.12374307305E+02 -0.76912455560E+01 -0.95401744256E+03  0.10189854441E+04  0.35772863425E+03 0.  0.
         13    1    3    3    0    0  0.15881218743E+03  0.65099340419E+02 -0.43476807874E+03  0.46742113484E+03  0.00000000000E+00 0.  1.
          3    1    3    3  501    0 -0.17118649473E+03 -0.72790585975E+02 -0.51924936382E+03  0.55156430922E+03  0.00000000000E+00 0.  1.
         21    1    1    2  502  501  0.12374307305E+02  0.76912455560E+01 -0.95670485984E+01  0.17430064784E+02  0.00000000000E+00 0.  1.
<mgrwt>
<rscale>  1 0.30000000E+03</rscale>
<asrwt>0</asrwt>
<pdfrwt beam="1">  1        1 0.13242031E+00 0.30000000E+03</pdfrwt>
<pdfrwt beam="2">0</pdfrwt>
<totfact> 0.22199041E+01</totfact>
</mgrwt>
</event>
<event>
 6    1  0.1939311E-004  0.3000000E+03  0.7818608E-02  0.1093470E+00
          1   -1    0    0  502    0  0.00000000000E+00  0.00000000000E+00  0.30475558574E+02  0.30475558574E+02  0.00000000000E+00 0.  1.
         13   -1    0    0    0    0 -0.00000000000E+00 -0.00000000000E+00 -0.10000000000E+04  0.10000000000E+04  0.00000000000E+00 0.  1.
    9000005    2    1    2  501    0 -0.91133139939E+01  0.75510670206E+01 -0.96641727158E+03  0.10182393169E+04  0.32048228131E+03 0.  0.
         13    1    3    3    0    0  0.11777273446E+03  0.75904730806E+02 -0.71360282920E+03  0.72722826057E+03  0.00000000000E+00 0.  1.
          3    1    3    3  501    0 -0.12688604845E+03 -0.68353663785E+02 -0.25281444238E+03  0.29101105636E+03  0.00000000000E+00 0.  1.
         21    1    1    2  502  501  0.91133139939E+01 -0.75510670206E+01 -0.31071698478E+01  0.12236241644E+02  0.00000000000E+00 0. -1.
<mgrwt>
<rscale>  1 0.30000000E+03</rscale>
<asrwt>0</asrwt>
<pdfrwt beam="1">  1        1 0.11082045E+00 0.30000000E+03</pdfrwt>
<pdfrwt beam="2">0</pdfrwt>
<totfact> 0.29377763E+01</totfact>
</mgrwt>
</event>
<event>
 6    1  0.1939311E-004  0.3000000E+03  0.7818608E-02  0.1093470E+00
          1   -1    0    0  502    0  0.00000000000E+00  0.00000000000E+00  0.76095387327E+02  0.76095387327E+02  0.00000000000E+00 0.  1.
         13   -1    0    0    0    0 -0.00000000000E+00 -0.00000000000E+00 -0.10000000000E+04  0.10000000000E+04  0.00000000000E+00 0.  1.
    9000005    2    1    2  501    0  0.60862844006E+02 -0.62140607409E+02 -0.93598861792E+03  0.98827873713E+03  0.30504823966E+03 0.  0.
         13    1    3    3    0    0 -0.79561235825E+02  0.82777666502E+02 -0.31067805383E+03  0.33121441008E+03  0.00000000000E+00 0.  1.
          3    1    3    3  501    0  0.14042407983E+03 -0.14491827391E+03 -0.62531056409E+03  0.65706432704E+03  0.00000000000E+00 0.  1.
         21    1    1    2  502  501 -0.60862844006E+02  0.62140607409E+02  0.12084005244E+02  0.87816650200E+02  0.00000000000E+00 0.  1.
<mgrwt>
<rscale>  1 0.30000000E+03</rscale>
<asrwt>0</asrwt>
<pdfrwt beam="1">  1        1 0.27671108E+00 0.30000000E+03</pdfrwt>
<pdfrwt beam="2">0</pdfrwt>
<totfact> 0.44733724E+00</totfact>
</mgrwt>
</event>
<event>
 6    1  0.1939311E-004  0.3000000E+03  0.7818608E-02  0.1093470E+00
          3   -1    0    0  502    0  0.00000000000E+00  0.00000000000E+00  0.36621781290E+02  0.36621781290E+02  0.00000000000E+00 0.  1.
         13   -1    0    0    0    0 -0.00000000000E+00 -0.00000000000E+00 -0.10000000000E+04  0.10000000000E+04  0.00000000000E+00 0.  1.
    9000005    2    1    2  501    0 -0.13705745394E+02  0.61266986048E+01 -0.96201838743E+03  0.10215475306E+04  0.34329957129E+03 0.  0.
         13    1    3    3    0    0 -0.13963523561E+03 -0.94465787435E+02 -0.34737010636E+03  0.38611886099E+03  0.00000000000E+00 0.  1.
          1    1    3    3  501    0  0.12592949021E+03  0.10059248604E+03 -0.61464828107E+03  0.63542866962E+03  0.00000000000E+00 0.  1.
         21    1    1    2  502  501  0.13705745394E+02 -0.61266986048E+01 -0.13598312836E+01  0.15074250685E+02  0.00000000000E+00 0. -1.
<mgrwt>
<rscale>  1 0.30000000E+03</rscale>
<asrwt>0</asrwt>
<pdfrwt beam="1">  1        3 0.13317039E+00 0.30000000E+03</pdfrwt>
<pdfrwt beam="2">0</pdfrwt>
<totfact> 0.16233247E+00</totfact>
</mgrwt>
</event>
<event>
 6    1  0.1939311E-004  0.3000000E+03  0.7818608E-02  0.1093470E+00
          1   -1    0    0  502    0  0.00000000000E+00  0.00000000000E+00  0.35661183571E+02  0.35661183571E+02  0.00000000000E+00 0.  1.
         13   -1    0    0    0    0 -0.00000000000E+00 -0.00000000000E+00 -0.10000000000E+04  0.10000000000E+04  0.00000000000E+00 0.  1.
    9000005    2    1    2  501    0 -0.11941834436E+02  0.26048252410E+02 -0.96527902725E+03  0.10069905913E+04  0.28538628506E+03 0.  0.
         13    1    3    3    0    0 -0.33863697492E+02 -0.71719369926E+02 -0.68991676555E+02  0.10512026191E+03  0.00000000000E+00 0.  1.
          3    1    3    3  501    0  0.21921863056E+02  0.97767622336E+02 -0.89628735070E+03  0.90187032941E+03  0.00000000000E+00 0.  1.
         21    1    1    2  502  501  0.11941834436E+02 -0.26048252410E+02  0.94021082265E+00  0.28670592246E+02  0.00000000000E+00 0.  1.
<mgrwt>
<rscale>  1 0.30000000E+03</rscale>
<asrwt>0</asrwt>
<pdfrwt beam="1">  1        1 0.12967730E+00 0.30000000E+03</pdfrwt>
<pdfrwt beam="2">0</pdfrwt>
<totfact> 0.22972588E+01</totfact>
</mgrwt>
</event>
<event>
 6    1  0.1939311E-004  0.3000000E+03  0.7818608E-02  0.1093470E+00
          1   -1    0    0  502    0  0.00000000000E+00  0.00000000000E+00  0.28002873576E+02  0.28002873576E+02  0.00000000000E+00 0.  1.
         13   -1    0    0    0    0 -0.00000000000E+00 -0.00000000000E+00 -0.10000000000E+04  0.10000000000E+04  0.00000000000E+00 0.  1.
    9000005    2    1    2  501    0  0.47082311578E+01  0.12799060759E+02 -0.96123218493E+03  0.10106285430E+04  0.31179601540E+03 0.  0.
         13    1    3    3    0    0  0.13622653047E+03  0.54272919423E+02 -0.28537515416E+03  0.32084606277E+03  0.00000000000E+00 0.  1.
          1    1    3    3  501    0 -0.13151829931E+03 -0.41473858665E+02 -0.67585703077E+03  0.68978248025E+03  0.00000000000E+00 0.  1.
         21    1    1    2  502  501 -0.47082311578E+01 -0.12799060759E+02 -0.10764941493E+02  0.17374330557E+02  0.00000000000E+00 0. -1.
<mgrwt>
<rscale>  1 0.30000000E+03</rscale>
<asrwt>0</asrwt>
<pdfrwt beam="1">  1        1 0.10182885E+00 0.30000000E+03</pdfrwt>
<pdfrwt beam="2">0</pdfrwt>
<totfact> 0.33329417E+01</totfact>
</mgrwt>
</event>
<event>
 6    1  0.1939311E-004  0.3000000E+03  0.7818608E-02  0.1093470E+00
          1   -1    0    0  502    0  0.00000000000E+00  0.00000000000E+00  0.29226599783E+02  0.29226599783E+02  0.00000000000E+00 0.  1.
         13   -1    0    0    0    0 -0.00000000000E+00 -0.00000000000E+00 -0.10000000000E+04  0.10000000000E+04  0.00000000000E+00 0.  1.
    9000005    2    1    2  501    0 -0.98483459172E+01 -0.10619102245E+02 -0.95821728270E+03  0.10100586229E+04  0.31910547727E+03 0.  0.
         13    1    3    3    0    0  0.13778193384E+03  0.26107705238E+02 -0.66609960885E+03  0.68070122849E+03  0.00000000000E+00 0.  1.
          3    1    3    3  501    0 -0.14763027976E+03 -0.36726807483E+02 -0.29211767385E+03  0.32935739443E+03  0.00000000000E+00 0.  1.
         21    1    1    2  502  501  0.98483459172E+01  0.10619102245E+02 -0.12556117517E+02  0.19167976860E+02  0.00000000000E+00 0. -1.
<mgrwt>
<rscale>  1 0.30000000E+03</rscale>
<asrwt>0</asrwt>
<pdfrwt beam="1">  1        1 0.10627877E+00 0.30000000E+03</pdfrwt>
<pdfrwt beam="2">0</pdfrwt>
<totfact> 0.31284015E+01</totfact>
</mgrwt>
</event>
<event>
 6    1  0.1939311E-004  0.3000000E+03  0.7818608E-02  0.1093470E+00
          1   -1    0    0  502    0  0.00000000000E+00  0.00000000000E+00  0.31085903744E+02  0.31085903744E+02  0.00000000000E+00 0.  1.
         13   -1    0    0    0    0 -0.00000000000E+00 -0.00000000000E+00 -0.10000000000E+04  0.10000000000E+04  0.00000000000E+00 0.  1.
    9000005    2    1    2  501    0  0.16806167382E+02  0.54464983553E+01 -0.94122589850E+03  0.99824160590E+03  0.33206625863E+03 0.  0.
         13    1    3    3    0    0 -0.12256289167E+03  0.45505266579E+02 -0.17515868733E+03  0.21857025746E+03  0.00000000000E+00 0.  1.
          1    1    3    3  501    0  0.13936905905E+03 -0.40058768223E+02 -0.76606721118E+03  0.77967134844E+03  0.00000000000E+00 0.  1.
         21    1    1    2  502  501 -0.16806167382E+02 -0.54464983553E+01 -0.27688197751E+02  0.32844297848E+02  0.00000000000E+00 0. -1.
<mgrwt>
<rscale>  1 0.30000000E+03</rscale>
<asrwt>0</asrwt>
<pdfrwt beam="1">  1        1 0.11303989E+00 0.30000000E+03</pdfrwt>
<pdfrwt beam="2">0</pdfrwt>
<totfact> 0.28505866E+01</totfact>
</mgrwt>
</event>
<event>
 6    1  0.1939311E-004  0.3000000E+03  0.7818608E-02  0.1093470E+00
          1   -1    0    0  502    0  0.00000000000E+00  0.00000000000E+00  0.30958727594E+02  0.30958727594E+02  0.00000000000E+00 0.  1.
         13   -1    0    0    0    0 -0.00000000000E+00 -0.00000000000E+00 -0.10000000000E+04  0.10000000000E+04  0.00000000000E+00 0.  1.
    9000005    2    1    2  501    0 -0.34453513485E+01  0.27918648705E+02 -0.90720583259E+03  0.96302535576E+03  0.32187589497E+03 0.  0.
         13    1    3    3    0    0 -0.32846987573E+02 -0.12864305909E+03 -0.62515487004E+03  0.63909824971E+03  0.00000000000E+00 0.  1.
          3    1    3    3  501    0  0.29401636224E+02  0.15656170779E+03 -0.28205096255E+03  0.32392710605E+03  0.00000000000E+00 0.  1.
         21    1    1    2  502  501  0.34453513485E+01 -0.27918648705E+02 -0.61835439816E+02  0.67933371833E+02  0.00000000000E+00 0. -1.
<mgrwt>
<rscale>  1 0.30000000E+03</rscale>
<asrwt>0</asrwt>
<pdfrwt beam="1">  1        1 0.11257743E+00 0.30000000E+03</pdfrwt>
<pdfrwt beam="2">0</pdfrwt>
<totfact> 0.28684475E+01</totfact>
</mgrwt>
</event>
<event>
 6    1  0.1939311E-004  0.3000000E+03  0.7818608E-02  0.1093470E+00
          1   -1    0    0  502    0  0.00000000000E+00  0.00000000000E+00  0.63242782879E+02  0.63242782879E+02  0.00000000000E+00 0.  1.
         13   -1    0    0    0    0 -0.00000000000E+00 -0.00000000000E+00 -0.10000000000E+04  0.10000000000E+04  0.00000000000E+00 0.  1.
    9000005    2    1    2  501    0  0.11332479063E+03  0.18421498979E+02 -0.86228503167E+03  0.92639262321E+03  0.31856860596E+03 0.  0.
         13    1    3    3    0    0  0.62563315404E+02 -0.10660327291E+03 -0.71909381613E+03  0.72963987187E+03  0.00000000000E+00 0.  1.
          1    1    3    3  501    0  0.50761475222E+02  0.12502477189E+03 -0.14319121554E+03  0.19675275134E+03  0.00000000000E+00 0.  1.
         21    1    1    2  502  501 -0.11332479063E+03 -0.18421498979E+02 -0.74472185451E+02  0.13685015967E+03  0.00000000000E+00 0.  1.
<mgrwt>
<rscale>  1 0.30000000E+03</rscale>
<asrwt>0</asrwt>
<pdfrwt beam="1">  1        1 0.22997424E+00 0.30000000E+03</pdfrwt>
<pdfrwt beam="2">0</pdfrwt>
<totfact> 0.74024740E+00</totfact>
</mgrwt>
</event>
<event>
 6    1  0.1939311E-004  0.3000000E+03  0.7818608E-02  0.1093470E+00
          1   -1    0    0  502    0  0.00000000000E+00  0.00000000000E+00  0.31168141575E+02  0.31168141575E+02  0.00000000000E+00 0.  1.
         13   -1    0    0    0    0 -0.00000000000E+00 -0.00000000000E+00 -0.10000000000E+04  0.10000000000E+04  0.00000000000E+00 0.  1.
    9000005    2    1    2  501    0 -0.10189046165E+02  0.46029418389E+00 -0.96116274990E+03  0.10184071166E+04  0.33647465706E+03 0.  0.
         13    1    3    3    0    0 -0.86048950888E+02 -0.89497788379E+02 -0.13306601194E+03  0.18199131739E+03  0.00000000000E+00 0.  1.
          1    1    3    3  501    0  0.75859904723E+02  0.89958082562E+02 -0.82809673796E+03  0.83641579922E+03  0.00000000000E+00 0.  1.
         21    1    1    2  502  501  0.10189046165E+02 -0.46029418389E+00 -0.76691085274E+01  0.12761024963E+02  0.00000000000E+00 0. -1.
<mgrwt>
<rscale>  1 0.30000000E+03</rscale>
<asrwt>0</asrwt>
<pdfrwt beam="1">  1        1 0.11333894E+00 0.30000000E+03</pdfrwt>
<pdfrwt beam="2">0</pdfrwt>
<totfact> 0.28391214E+01</totfact>
</mgrwt>
</event>
<event>
 6    1  0.1939311E-004  0.3000000E+03  0.7818608E-02  0.1093470E+00
          1   -1    0    0  502    0  0.00000000000E+00  0.00000000000E+00  0.35728649741E+02  0.35728649741E+02  0.00000000000E+00 0.  1.
         13   -1    0    0    0    0 -0.00000000000E+00 -0.00000000000E+00 -0.10000000000E+04  0.10000000000E+04  0.00000000000E+00 0.  1.
    9000005    2    1    2  501    0 -0.10228361515E+02 -0.21027033528E+02 -0.95734843205E+03  0.10113425407E+04  0.32519372493E+03 0.  0.
         13    1    3    3    0    0 -0.14133586686E+03 -0.97058031482E+02 -0.57617635844E+03  0.60114497816E+03  0.00000000000E+00 0.  1.
          3    1    3    3  501    0  0.13110750534E+03  0.76030997955E+02 -0.38117207361E+03  0.41019756253E+03  0.00000000000E+00 0.  1.
         21    1    1    2  502  501  0.10228361515E+02  0.21027033528E+02 -0.69229182070E+01  0.24386109053E+02  0.00000000000E+00 0. -1.
<mgrwt>
<rscale>  1 0.30000000E+03</rscale>
<asrwt>0</asrwt>
<pdfrwt beam="1">  1        1 0.12992264E+00 0.30000000E+03</pdfrwt>
<pdfrwt beam="2">0</pdfrwt>
<totfact> 0.22901985E+01</totfact>
</mgrwt>
</event>
<event>
 6    1  0.1939311E-004  0.3000000E+03  0.7818608E-02  0.1093470E+00
          1   -1    0    0  502    0  0.00000000000E+00  0.00000000000E+00  0.55081068999E+02  0.55081068999E+02  0.00000000000E+00 0.  1.
         13   -1    0    0    0    0 -0.00000000000E+00 -0.00000000000E+00 -0.10000000000E+04  0.10000000000E+04  0.00000000000E+00 0.  1.
    9000005    2    1    2  501    0  0.16452414088E+02 -0.37848164118E+02 -0.95964353926E+03  0.10112634978E+04  0.31628306009E+03 0.  0.
         13    1    3    3    0    0  0.98853264190E+02 -0.94474870963E+02 -0.18422711734E+03  0.22942776608E+03  0.00000000000E+00 0.  1.
          3    1    3    3  501    0 -0.82400850102E+02  0.56626706844E+02 -0.77541642192E+03  0.78183573173E+03  0.00000000000E+00 0.  1.
         21    1    1    2  502  501 -0.16452414088E+02  0.37848164118E+02  0.14724608261E+02  0.43817571189E+02  0.00000000000E+00 0.  1.
<mgrwt>
<rscale>  1 0.30000000E+03</rscale>
<asrwt>0</asrwt>
<pdfrwt beam="1">  1        1 0.20029522E+00 0.30000000E+03</pdfrwt>
<pdfrwt beam="2">0</pdfrwt>
<totfact> 0.10210372E+01</totfact>
</mgrwt>
</event>
<event>
 6    1  0.1939311E-004  0.3000000E+03  0.7818608E-02  0.1093470E+00
          3   -1    0    0  502    0  0.00000000000E+00  0.00000000000E+00  0.29773276227E+02  0.29773276227E+02  0.00000000000E+00 0.  1.
         13   -1    0    0    0    0 -0.00000000000E+00 -0.00000000000E+00 -0.10000000000E+04  0.10000000000E+04  0.00000000000E+00 0.  1.
    9000005    2    1    2  501    0 -0.75862505867E+01  0.17046011938E+02 -0.94596614846E+03  0.99916783169E+03  0.32114838334E+03 0.  0.
         13    1    3    3    0    0 -0.15635905820E+03 -0.36376867308E+02 -0.54554463440E+03  0.56867422984E+03  0.00000000000E+00 0.  1.
          3    1    3    3  501    0  0.14877280761E+03  0.53422879246E+02 -0.40042151406E+03  0.43049360185E+03  0.00000000000E+00 0.  1.
         21    1    1    2  502  501  0.75862505867E+01 -0.17046011938E+02 -0.24260575312E+02  0.30605444539E+02  0.00000000000E+00 0.  1.
<mgrwt>
<rscale>  1 0.30000000E+03</rscale>
<asrwt>0</asrwt>
<pdfrwt beam="1">  1        3 0.10826669E+00 0.30000000E+03</pdfrwt>
<pdfrwt beam="2">0</pdfrwt>
<totfact> 0.31538226E+00</totfact>
</mgrwt>
</event>
<event>
 6    1  0.1939311E-004  0.3000000E+03  0.7818608E-02  0.1093470E+00
          1   -1    0    0  502    0  0.00000000000E+00  0.00000000000E+00  0.29432814945E+02  0.29432814945E+02  0.00000000000E+00 0.  1.
         13   -1    0    0    0    0 -0.00000000000E+00 -0.00000000000E+00 -0.10000000000E+04  0.10000000000E+04  0.00000000000E+00 0.  1.
    9000005    2    1    2  501    0  0.67317272395E+00  0.11020053630E+02 -0.95245485208E+03  0.10082207582E+04  0.33047988951E+03 0.  0.
         13    1    3    3    0    0 -0.82484845817E+02  0.11108276798E+03 -0.78008408720E+03  0.79225899442E+03  0.00000000000E+00 0.  1.
          1    1    3    3  501    0  0.83158018541E+02 -0.10006271435E+03 -0.17237076488E+03  0.21596176383E+03  0.00000000000E+00 0.  1.
         21    1    1    2  502  501 -0.67317272395E+00 -0.11020053630E+02 -0.18112332975E+02  0.21212056697E+02  0.00000000000E+00 0.  1.
<mgrwt>
<rscale>  1 0.30000000E+03</rscale>
<asrwt>0</asrwt>
<pdfrwt beam="1">  1        1 0.10702864E+00 0.30000000E+03</pdfrwt>
<pdfrwt beam="2">0</pdfrwt>
<totfact> 0.30957305E+01</totfact>
</mgrwt>
</event>
<event>
 6    1  0.1939311E-004  0.3000000E+03  0.7818608E-02  0.1093470E+00
          1   -1    0    0  502    0  0.00000000000E+00  0.00000000000E+00  0.45689867321E+02  0.45689867321E+02  0.00000000000E+00 0.  1.
         13   -1    0    0    0    0 -0.00000000000E+00 -0.00000000000E+00 -0.10000000000E+04  0.10000000000E+04  0.00000000000E+00 0.  1.
    9000005    2    1    2  501    0  0.29458367334E+02  0.26954609466E+02 -0.95080579879E+03  0.10056071187E+04  0.32499179049E+03 0.  0.
         13    1    3    3    0    0  0.10725569635E+03  0.14725355290E+03 -0.47647828400E+03  0.51011660271E+03  0.00000000000E+00 0.  1.
          1    1    3    3  501    0 -0.77797329014E+02 -0.12029894343E+03 -0.47432751479E+03  0.49549051603E+03  0.00000000000E+00 0.  1.
         21    1    1    2  502  501 -0.29458367334E+02 -0.26954609466E+02 -0.35043338943E+01  0.40082748577E+02  0.00000000000E+00 0.  1.
<mgrwt>
<rscale>  1 0.30000000E+03</rscale>
<asrwt>0</asrwt>
<pdfrwt beam="1">  1        1 0.16614532E+00 0.30000000E+03</pdfrwt>
<pdfrwt beam="2">0</pdfrwt>
<totfact> 0.14922427E+01</totfact>
</mgrwt>
</event>
<event>
 6    1  0.1939311E-004  0.3000000E+03  0.7818608E-02  0.1093470E+00
          1   -1    0    0  502    0  0.00000000000E+00  0.00000000000E+00  0.31135404881E+02  0.31135404881E+02  0.00000000000E+00 0.  1.
         13   -1    0    0    0    0 -0.00000000000E+00 -0.00000000000E+00 -0.10000000000E+04  0.10000000000E+04  0.00000000000E+00 0.  1.
    9000005    2    1    2  501    0  0.10861162398E+01  0.10687609263E+02 -0.96411297613E+03  0.10193888086E+04  0.33094456907E+03 0.  0.
         13    1    3    3    0    0 -0.10947522159E+02  0.13141224381E+03 -0.16549153561E+03  0.21160452364E+03  0.00000000000E+00 0.  1.
          1    1    3    3  501    0  0.12033638399E+02 -0.12072463455E+03 -0.79862144052E+03  0.80778428500E+03  0.00000000000E+00 0.  1.
         21    1    1    2  502  501 -0.10861162398E+01 -0.10687609263E+02 -0.47516189930E+01  0.11746596243E+02  0.00000000000E+00 0.  1.
<mgrwt>
<rscale>  1 0.30000000E+03</rscale>
<asrwt>0</asrwt>
<pdfrwt beam="1">  1        1 0.11321989E+00 0.30000000E+03</pdfrwt>
<pdfrwt beam="2">0</pdfrwt>
<totfact> 0.28436775E+01</totfact>
</mgrwt>
</event>
<event>
 6    1  0.1939311E-004  0.3000000E+03  0.7818608E-02  0.1093470E+00
          1   -1    0    0  502    0  0.00000000000E+00  0.00000000000E+00  0.32047871635E+02  0.32047871635E+02  0.00000000000E+00 0.  1.
         13   -1    0    0    0    0 -0.00000000000E+00 -0.00000000000E+00 -0.10000000000E+04  0.10000000000E+04  0.00000000000E+00 0.  1.
    9000005    2    1    2  501    0 -0.35938137814E+01 -0.11862303683E+02 -0.96822021765E+03  0.10196502260E+04  0.31950362080E+03 0.  0.
         13    1    3    3    0    0  0.44217591267E+02 -0.14383774041E+03 -0.70971789253E+03  0.72549567740E+03  0.00000000000E+00 0.  1.
          3    1    3    3  501    0 -0.47811405048E+02  0.13197543673E+03 -0.25850232512E+03  0.29415454857E+03  0.00000000000E+00 0.  1.
         21    1    1    2  502  501  0.35938137814E+01  0.11862303683E+02  0.26808928643E+00  0.12397645665E+02  0.00000000000E+00 0.  1.
<mgrwt>
<rscale>  1 0.30000000E+03</rscale>
<asrwt>0</asrwt>
<pdfrwt beam="1">  1        1 0.11653796E+00 0.30000000E+03</pdfrwt>
<pdfrwt beam="2">0</pdfrwt>
<totfact> 0.27204454E+01</totfact>
</mgrwt>
</event>
<event>
 6    1  0.1939311E-004  0.3000000E+03  0.7818608E-02  0.1093470E+00
          1   -1    0    0  502    0  0.00000000000E+00  0.00000000000E+00  0.33283428150E+02  0.33283428150E+02  0.00000000000E+00 0.  1.
         13   -1    0    0    0    0 -0.00000000000E+00 -0.00000000000E+00 -0.10000000000E+04  0.10000000000E+04  0.00000000000E+00 0.  1.
    9000005    2    1    2  501    0 -0.12656862108E+02  0.74697782816E+01 -0.96005222245E+03  0.10171462878E+04  0.33566397958E+03 0.  0.
         13    1    3    3    0    0  0.36945619361E+02  0.33553450269E+02  0.52818946276E+01  0.50186763452E+02  0.00000000000E+00 0.  1.
          1    1    3    3  501    0 -0.49602481469E+02 -0.26083671987E+02 -0.96533411708E+03  0.96695952434E+03  0.00000000000E+00 0.  1.
         21    1    1    2  502  501  0.12656862108E+02 -0.74697782816E+01 -0.66643493959E+01  0.16137140356E+02  0.00000000000E+00 0.  1.
<mgrwt>
<rscale>  1 0.30000000E+03</rscale>
<asrwt>0</asrwt>
<pdfrwt beam="1">  1        1 0.12103090E+00 0.30000000E+03</pdfrwt>
<pdfrwt beam="2">0</pdfrwt>
<totfact> 0.25650219E+01</totfact>
</mgrwt>
</event>
<event>
 6    1  0.1939311E-004  0.3000000E+03  0.7818608E-02  0.1093470E+00
          1   -1    0    0  502    0  0.00000000000E+00  0.00000000000E+00  0.29669894821E+02  0.29669894821E+02  0.00000000000E+00 0.  1.
         13   -1    0    0    0    0 -0.00000000000E+00 -0.00000000000E+00 -0.10000000000E+04  0.10000000000E+04  0.00000000000E+00 0.  1.
    9000005    2    1    2  501    0  0.13087532575E+02 -0.11440066457E+02 -0.93184088968E+03  0.98743746251E+03  0.32619494180E+03 0.  0.
         13    1    3    3    0    0  0.11895633459E+03  0.98931571245E+02 -0.30238794876E+03  0.33967121880E+03  0.00000000000E+00 0.  1.
          3    1    3    3  501    0 -0.10586880201E+03 -0.11037163770E+03 -0.62945294093E+03  0.64776624371E+03  0.00000000000E+00 0.  1.
         21    1    1    2  502  501 -0.13087532575E+02  0.11440066457E+02 -0.38489215495E+02  0.42232432311E+02  0.00000000000E+00 0.  1.
<mgrwt>
<rscale>  1 0.30000000E+03</rscale>
<asrwt>0</asrwt>
<pdfrwt beam="1">  1        1 0.10789075E+00 0.30000000E+03</pdfrwt>
<pdfrwt beam="2">0</pdfrwt>
<totfact> 0.30587714E+01</totfact>
</mgrwt>
</event>
<event>
 6    1  0.1939311E-004  0.3000000E+03  0.7818608E-02  0.1093470E+00
          3   -1    0    0  502    0  0.00000000000E+00  0.00000000000E+00  0.29155519491E+02  0.29155519491E+02  0.00000000000E+00 0.  1.
         13   -1    0    0    0    0 -0.00000000000E+00 -0.00000000000E+00 -0.10000000000E+04  0.10000000000E+04  0.00000000000E+00 0.  1.
    9000005    2    1    2  501    0 -0.14507363816E+02 -0.55823226219E+01 -0.95131347164E+03  0.10041938241E+04  0.32119509500E+03 0.  0.
         13    1    3    3    0    0  0.10659319627E+03 -0.95991158333E+02 -0.26391822396E+03  0.30038182519E+03  0.00000000000E+00 0.  1.
          3    1    3    3  501    0 -0.12110056009E+03  0.90408835711E+02 -0.68739524768E+03  0.70381199887E+03  0.00000000000E+00 0.  1.
         21    1    1    2  502  501  0.14507363816E+02  0.55823226219E+01 -0.19531008873E+02  0.24961695422E+02  0.00000000000E+00 0.  1.
<mgrwt>
<rscale>  1 0.30000000E+03</rscale>
<asrwt>0</asrwt>
<pdfrwt beam="1">  1        3 0.10602029E+00 0.30000000E+03</pdfrwt>
<pdfrwt beam="2">0</pdfrwt>
<totfact> 0.33451369E+00</totfact>
</mgrwt>
</event>
<event>
 6    1  0.1939311E-004  0.3000000E+03  0.7818608E-02  0.1093470E+00
          1   -1    0    0  502    0  0.00000000000E+00  0.00000000000E+00  0.34418341092E+02  0.34418341092E+02  0.00000000000E+00 0.  1.
         13   -1    0    0    0    0 -0.00000000000E+00 -0.00000000000E+00 -0.10000000000E+04  0.10000000000E+04  0.00000000000E+00 0.  1.
    9000005    2    1    2  501    0  0.13820763104E+02 -0.12022413217E+01 -0.98476353205E+03  0.10107455057E+04  0.22727693332E+03 0.  0.
         13    1    3    3    0    0  0.46389140192E+02  0.79142657425E+02 -0.18704528314E+03  0.20833014783E+03  0.00000000000E+00 0.  1.
          3    1    3    3  501    0 -0.32568377089E+02 -0.80344898746E+02 -0.79771824891E+03  0.80241535790E+03  0.00000000000E+00 0.  1.
         21    1    1    2  502  501 -0.13820763104E+02  0.12022413217E+01  0.19181873141E+02  0.23672835364E+02  0.00000000000E+00 0.  1.
<mgrwt>
<rscale>  1 0.30000000E+03</rscale>
<asrwt>0</asrwt>
<pdfrwt beam="1">  1        1 0.12515787E+00 0.30000000E+03</pdfrwt>
<pdfrwt beam="2">0</pdfrwt>
<totfact> 0.24324891E+01</totfact>
</mgrwt>
</event>
<event>
 6    1  0.1939311E-004  0.3000000E+03  0.7818608E-02  0.1093470E+00
          1   -1    0    0  502    0  0.00000000000E+00  0.00000000000E+00  0.26231482789E+02  0.26231482789E+02  0.00000000000E+00 0.  1.
         13   -1    0    0    0    0 -0.00000000000E+00 -0.00000000000E+00 -0.10000000000E+04  0.10000000000E+04  0.00000000000E+00 0.  1.
    9000005    2    1    2  501    0 -0.38699194106E+01 -0.15017873614E+02 -0.95348058065E+03  0.10006949761E+04  0.30335573953E+03 0.  0.
         13    1    3    3    0    0  0.11514246521E+03  0.22556082581E+02 -0.76940547228E+03  0.77830029226E+03  0.00000000000E+00 0.  1.
          1    1    3    3  501    0 -0.11901238462E+03 -0.37573956195E+02 -0.18407510837E+03  0.22239468384E+03  0.00000000000E+00 0.  1.
         21    1    1    2  502  501  0.38699194106E+01  0.15017873614E+02 -0.20287936558E+02  0.25536506690E+02  0.00000000000E+00 0.  1.
<mgrwt>
<rscale>  1 0.30000000E+03</rscale>
<asrwt>0</asrwt>
<pdfrwt beam="1">  1        1 0.95387411E-01 0.30000000E+03</pdfrwt>
<pdfrwt beam="2">0</pdfrwt>
<totfact> 0.36655563E+01</totfact>
</mgrwt>
</event>
<event>
 6    1  0.1939311E-004  0.3000000E+03  0.7818608E-02  0.1093470E+00
          1   -1    0    0  502    0  0.00000000000E+00  0.00000000000E+00  0.33885384586E+02  0.33885384586E+02  0.00000000000E+00 0.  1.
         13   -1    0    0    0    0 -0.00000000000E+00 -0.00000000000E+00 -0.10000000000E+04  0.10000000000E+04  0.00000000000E+00 0.  1.
    9000005    2    1    2  501    0  0.57165435252E+01 -0.97216033717E+01 -0.96814323681E+03  0.10224265999E+04  0.32852341885E+03 0.  0.
         13    1    3    3    0    0 -0.19174325795E+02 -0.16625324116E+03 -0.56430441856E+03  0.58859771642E+03  0.00000000000E+00 0.  1.
          3    1    3    3  501    0  0.24890869320E+02  0.15653163779E+03 -0.40383881825E+03  0.43382888346E+03  0.00000000000E+00 0.  1.
         21    1    1    2  502  501 -0.57165435252E+01  0.97216033717E+01  0.20286213976E+01  0.11458784698E+02  0.00000000000E+00 0. -1.
<mgrwt>
<rscale>  1 0.30000000E+03</rscale>
<asrwt>0</asrwt>
<pdfrwt beam="1">  1        1 0.12321984E+00 0.30000000E+03</pdfrwt>
<pdfrwt beam="2">0</pdfrwt>
<totfact> 0.24935895E+01</totfact>
</mgrwt>
</event>
<event>
 6    1  0.1939311E-004  0.3000000E+03  0.7818608E-02  0.1093470E+00
          1   -1    0    0  502    0  0.00000000000E+00  0.00000000000E+00  0.58429623800E+02  0.58429623800E+02  0.00000000000E+00 0.  1.
         13   -1    0    0    0    0 -0.00000000000E+00 -0.00000000000E+00 -0.10000000000E+04  0.10000000000E+04  0.00000000000E+00 0.  1.
    9000005    2    1    2  501    0  0.11062684213E+02  0.15164964992E+02 -0.97073615675E+03  0.10237453060E+04  0.32461270219E+03 0.  0.
         13    1    3    3    0    0 -0.46698698382E+02 -0.31247384190E+02 -0.63835057848E+01  0.56550124627E+02  0.00000000000E+00 0.  1.
          3    1    3    3  501    0  0.57761382595E+02  0.46412349182E+02 -0.96435265096E+03  0.96719518139E+03  0.00000000000E+00 0.  1.
         21    1    1    2  502  501 -0.11062684213E+02 -0.15164964992E+02  0.29165780549E+02  0.34684317785E+02  0.00000000000E+00 0.  1.
<mgrwt>
<rscale>  1 0.30000000E+03</rscale>
<asrwt>0</asrwt>
<pdfrwt beam="1">  1        1 0.21247181E+00 0.30000000E+03</pdfrwt>
<pdfrwt beam="2">0</pdfrwt>
<totfact> 0.89424017E+00</totfact>
</mgrwt>
</event>
<event>
 6    1  0.1939311E-004  0.3000000E+03  0.7818608E-02  0.1093470E+00
          1   -1    0    0  502    0  0.00000000000E+00  0.00000000000E+00  0.56323395404E+02  0.56323395404E+02  0.00000000000E+00 0.  1.
         13   -1    0    0    0    0 -0.00000000000E+00 -0.00000000000E+00 -0.10000000000E+04  0.10000000000E+04  0.00000000000E+00 0.  1.
    9000005    2    1    2  501    0 -0.44468968413E+02  0.69642394335E+01 -0.95340653303E+03  0.10102727571E+04  0.33112087926E+03 0.  0.
         13    1    3    3    0    0  0.98855937376E+02  0.10871861222E+03 -0.30637382768E+03  0.33978986931E+03  0.00000000000E+00 0.  1.
          1    1    3    3  501    0 -0.14332490579E+03 -0.10175437278E+03 -0.64703270535E+03  0.67048288777E+03  0.00000000000E+00 0.  1.
         21    1    1    2  502  501  0.44468968413E+02 -0.69642394335E+01  0.97299284382E+01  0.46050638323E+02  0.00000000000E+00 0.  1.
<mgrwt>
<rscale>  1 0.30000000E+03</rscale>
<asrwt>0</asrwt>
<pdfrwt beam="1">  1        1 0.20481278E+00 0.30000000E+03</pdfrwt>
<pdfrwt beam="2">0</pdfrwt>
<totfact> 0.97185915E+00</totfact>
</mgrwt>
</event>
<event>
 6    1  0.1939311E-004  0.3000000E+03  0.7818608E-02  0.1093470E+00
          1   -1    0    0  502    0  0.00000000000E+00  0.00000000000E+00  0.35779878855E+02  0.35779878855E+02  0.00000000000E+00 0.  1.
         13   -1    0    0    0    0 -0.00000000000E+00 -0.00000000000E+00 -0.10000000000E+04  0.10000000000E+04  0.00000000000E+00 0.  1.
    9000005    2    1    2  501    0 -0.30323063450E+02 -0.14272714842E+02 -0.94451571110E+03  0.99690234882E+03  0.31714533895E+03 0.  0.
         13    1    3    3    0    0 -0.17207589521E+03 -0.23671252179E+02 -0.58818606031E+03  0.61329705969E+03  0.00000000000E+00 0.  1.
          1    1    3    3  501    0  0.14175283176E+03  0.93985373370E+01 -0.35632965079E+03  0.38360528913E+03  0.00000000000E+00 0.  1.
         21    1    1    2  502  501  0.30323063450E+02  0.14272714842E+02 -0.19704410049E+02  0.38877530031E+02  0.00000000000E+00 0.  1.
<mgrwt>
<rscale>  1 0.30000000E+03</rscale>
<asrwt>0</asrwt>
<pdfrwt beam="1">  1        1 0.13010892E+00 0.30000000E+03</pdfrwt>
<pdfrwt beam="2">0</pdfrwt>
<totfact> 0.22848562E+01</totfact>
</mgrwt>
</event>
<event>
 6    1  0.1939311E-004  0.3000000E+03  0.7818608E-02  0.1093470E+00
          1   -1    0    0  502    0  0.00000000000E+00  0.00000000000E+00  0.35585311061E+02  0.35585311061E+02  0.00000000000E+00 0.  1.
         13   -1    0    0    0    0 -0.00000000000E+00 -0.00000000000E+00 -0.10000000000E+04  0.10000000000E+04  0.00000000000E+00 0.  1.
    9000005    2    1    2  501    0 -0.14561995655E+02  0.34383377000E+01 -0.96530605845E+03  0.10205963677E+04  0.33102459937E+03 0.  0.
         13    1    3    3    0    0  0.13644306873E+03 -0.59995803422E+02 -0.29432695510E+03  0.32991599526E+03  0.00000000000E+00 0.  1.
          1    1    3    3  501    0 -0.15100506438E+03  0.63434141122E+02 -0.67097910335E+03  0.69068037244E+03  0.00000000000E+00 0.  1.
         21    1    1    2  502  501  0.14561995655E+02 -0.34383377000E+01  0.89136951196E+00  0.14988943365E+02  0.00000000000E+00 0. -1.
<mgrwt>
<rscale>  1 0.30000000E+03</rscale>
<asrwt>0</asrwt>
<pdfrwt beam="1">  1        1 0.12940140E+00 0.30000000E+03</pdfrwt>
<pdfrwt beam="2">0</pdfrwt>
<totfact> 0.23052326E+01</totfact>
</mgrwt>
</event>
<event>
 6    1  0.1939311E-004  0.3000000E+03  0.7818608E-02  0.1093470E+00
          1   -1    0    0  502    0  0.00000000000E+00  0.00000000000E+00  0.73694825276E+02  0.73694825276E+02  0.00000000000E+00 0.  1.
         13   -1    0    0    0    0 -0.00000000000E+00 -0.00000000000E+00 -0.10000000000E+04  0.10000000000E+04  0.00000000000E+00 0.  1.
    9000005    2    1    2  501    0 -0.12502029939E+01 -0.21685273951E+02 -0.97388910245E+03  0.10213876146E+04  0.30708445289E+03 0.  0.
         13    1    3    3    0    0  0.57716069892E+02  0.98456326401E+02 -0.15978802816E+03  0.19635938194E+03  0.00000000000E+00 0.  1.
          1    1    3    3  501    0 -0.58966272886E+02 -0.12014160035E+03 -0.81410107430E+03  0.82502823263E+03  0.00000000000E+00 0.  1.
         21    1    1    2  502  501  0.12502029939E+01  0.21685273951E+02  0.47583927727E+02  0.52307210706E+02  0.00000000000E+00 0.  1.
<mgrwt>
<rscale>  1 0.30000000E+03</rscale>
<asrwt>0</asrwt>
<pdfrwt beam="1">  1        1 0.26798175E+00 0.30000000E+03</pdfrwt>
<pdfrwt beam="2">0</pdfrwt>
<totfact> 0.49142034E+00</totfact>
</mgrwt>
</event>
<event>
 6    1  0.1939311E-004  0.3000000E+03  0.7818608E-02  0.1093470E+00
          3   -1    0    0  502    0  0.00000000000E+00  0.00000000000E+00  0.32723991168E+02  0.32723991168E+02  0.00000000000E+00 0.  1.
         13   -1    0    0    0    0 -0.00000000000E+00 -0.00000000000E+00 -0.10000000000E+04  0.10000000000E+04  0.00000000000E+00 0.  1.
    9000005    2    1    2  501    0  0.16836916140E+02  0.54856811980E+01 -0.96323617352E+03  0.10145609872E+04  0.31811396755E+03 0.  0.
         13    1    3    3    0    0 -0.12749270662E+03  0.85479048734E+02 -0.45181578840E+03  0.47717770763E+03  0.00000000000E+00 0.  1.
          3    1    3    3  501    0  0.14432962276E+03 -0.79993367536E+02 -0.51142038512E+03  0.53738327958E+03  0.00000000000E+00 0.  1.
         21    1    1    2  502  501 -0.16836916140E+02 -0.54856811980E+01 -0.40398353104E+01  0.18163003955E+02  0.00000000000E+00 0. -1.
<mgrwt>
<rscale>  1 0.30000000E+03</rscale>
<asrwt>0</asrwt>
<pdfrwt beam="1">  1        3 0.11899658E+00 0.30000000E+03</pdfrwt>
<pdfrwt beam="2">0</pdfrwt>
<totfact> 0.23757357E+00</totfact>
</mgrwt>
</event>
<event>
 6    1  0.1939311E-004  0.3000000E+03  0.7818608E-02  0.1093470E+00
          1   -1    0    0  502    0  0.00000000000E+00  0.00000000000E+00  0.45880447694E+02  0.45880447694E+02  0.00000000000E+00 0.  1.
         13   -1    0    0    0    0 -0.00000000000E+00 -0.00000000000E+00 -0.10000000000E+04  0.10000000000E+04  0.00000000000E+00 0.  1.
    9000005    2    1    2  501    0 -0.82305575082E+02 -0.11508735684E+02 -0.70096463252E+03  0.77943331955E+03  0.33054231936E+03 0.  0.
         13    1    3    3    0    0  0.24753141443E+02 -0.15730601780E+03 -0.30325918607E+03  0.34252596279E+03  0.00000000000E+00 0.  1.
          1    1    3    3  501    0 -0.10705871653E+03  0.14579728211E+03 -0.39770544645E+03  0.43690735676E+03  0.00000000000E+00 0.  1.
         21    1    1    2  502  501  0.82305575082E+02  0.11508735684E+02 -0.25315491979E+03  0.26644712815E+03  0.00000000000E+00 0.  1.
<mgrwt>
<rscale>  1 0.30000000E+03</rscale>
<asrwt>0</asrwt>
<pdfrwt beam="1">  1        1 0.16683834E+00 0.30000000E+03</pdfrwt>
<pdfrwt beam="2">0</pdfrwt>
<totfact> 0.14805898E+01</totfact>
</mgrwt>
</event>
<event>
 6    1  0.1939311E-004  0.3000000E+03  0.7818608E-02  0.1093470E+00
          1   -1    0    0  502    0  0.00000000000E+00  0.00000000000E+00  0.52347202291E+02  0.52347202291E+02  0.00000000000E+00 0.  1.
         13   -1    0    0    0    0 -0.00000000000E+00 -0.00000000000E+00 -0.10000000000E+04  0.10000000000E+04  0.00000000000E+00 0.  1.
    9000005    2    1    2  501    0  0.10196206195E+02 -0.34347655409E+01 -0.97380230128E+03  0.10240707674E+04  0.31672425601E+03 0.  0.
         13    1    3    3    0    0 -0.98065570548E+01 -0.14983123140E+03 -0.66497781457E+03  0.68171919464E+03  0.00000000000E+00 0.  1.
          3    1    3    3  501    0  0.20002763250E+02  0.14639646586E+03 -0.30882448671E+03  0.34235157272E+03  0.00000000000E+00 0.  1.
         21    1    1    2  502  501 -0.10196206195E+02  0.34347655409E+01  0.26149503575E+02  0.28276434930E+02  0.00000000000E+00 0.  1.
<mgrwt>
<rscale>  1 0.30000000E+03</rscale>
<asrwt>0</asrwt>
<pdfrwt beam="1">  1        1 0.19035386E+00 0.30000000E+03</pdfrwt>
<pdfrwt beam="2">0</pdfrwt>
<totfact> 0.11389372E+01</totfact>
</mgrwt>
</event>
<event>
 6    1  0.1939311E-004  0.3000000E+03  0.7818608E-02  0.1093470E+00
          1   -1    0    0  502    0  0.00000000000E+00  0.00000000000E+00  0.43801242123E+02  0.43801242123E+02  0.00000000000E+00 0.  1.
         13   -1    0    0    0    0 -0.00000000000E+00 -0.00000000000E+00 -0.10000000000E+04  0.10000000000E+04  0.00000000000E+00 0.  1.
    9000005    2    1    2  501    0  0.13206532695E+02  0.13140181560E+01 -0.97108223816E+03  0.10238598998E+04  0.32421018174E+03 0.  0.
         13    1    3    3    0    0  0.13577093395E+03 -0.28016271106E+02 -0.79689397881E+03  0.80886257882E+03  0.00000000000E+00 0.  1.
          1    1    3    3  501    0 -0.12256440125E+03  0.29330289262E+02 -0.17418825935E+03  0.21499732095E+03  0.00000000000E+00 0.  1.
         21    1    1    2  502  501 -0.13206532695E+02 -0.13140181560E+01  0.14883480281E+02  0.19941342352E+02  0.00000000000E+00 0.  1.
<mgrwt>
<rscale>  1 0.30000000E+03</rscale>
<asrwt>0</asrwt>
<pdfrwt beam="1">  1        1 0.15927758E+00 0.30000000E+03</pdfrwt>
<pdfrwt beam="2">0</pdfrwt>
<totfact> 0.16135928E+01</totfact>
</mgrwt>
</event>
<event>
 6    1  0.1939311E-004  0.3000000E+03  0.7818608E-02  0.1093470E+00
          1   -1    0    0  502    0  0.00000000000E+00  0.00000000000E+00  0.32488587077E+02  0.32488587077E+02  0.00000000000E+00 0.  1.
         13   -1    0    0    0    0 -0.00000000000E+00 -0.00000000000E+00 -0.10000000000E+04  0.10000000000E+04  0.00000000000E+00 0.  1.
    9000005    2    1    2  501    0 -0.10602185143E+02  0.23141147039E+02 -0.93395085381E+03  0.99036697571E+03  0.32850362286E+03 0.  0.
         13    1    3    3    0    0  0.29602935698E+01 -0.12677469250E+03 -0.70534209129E+03  0.71665057855E+03  0.00000000000E+00 0.  1.
          1    1    3    3  501    0 -0.13562478712E+02  0.14991583953E+03 -0.22860876252E+03  0.27371639716E+03  0.00000000000E+00 0.  1.
         21    1    1    2  502  501  0.10602185143E+02 -0.23141147039E+02 -0.33560559116E+02  0.42121611368E+02  0.00000000000E+00 0.  1.
<mgrwt>
<rscale>  1 0.30000000E+03</rscale>
<asrwt>0</asrwt>
<pdfrwt beam="1">  1        1 0.11814057E+00 0.30000000E+03</pdfrwt>
<pdfrwt beam="2">0</pdfrwt>
<totfact> 0.26635753E+01</totfact>
</mgrwt>
</event>
<event>
 6    1  0.1939311E-004  0.3000000E+03  0.7818608E-02  0.1093470E+00
          1   -1    0    0  502    0  0.00000000000E+00  0.00000000000E+00  0.36297582668E+02  0.36297582668E+02  0.00000000000E+00 0.  1.
         13   -1    0    0    0    0 -0.00000000000E+00 -0.00000000000E+00 -0.10000000000E+04  0.10000000000E+04  0.00000000000E+00 0.  1.
    9000005    2    1    2  501    0 -0.24752587491E+02  0.47630526515E+01 -0.95624364483E+03  0.10100105032E+04  0.32416651755E+03 0.  0.
         13    1    3    3    0    0 -0.15266293891E+03 -0.42987956825E+02 -0.71900222926E+03  0.73628672610E+03  0.00000000000E+00 0.  1.
          3    1    3    3  501    0  0.12791035142E+03  0.47751009476E+02 -0.23724141557E+03  0.27372377713E+03  0.00000000000E+00 0.  1.
         21    1    1    2  502  501  0.24752587491E+02 -0.47630526515E+01 -0.74587724996E+01  0.26287079435E+02  0.00000000000E+00 0.  1.
<mgrwt>
<rscale>  1 0.30000000E+03</rscale>
<asrwt>0</asrwt>
<pdfrwt beam="1">  1        1 0.13199149E+00 0.30000000E+03</pdfrwt>
<pdfrwt beam="2">0</pdfrwt>
<totfact> 0.22317700E+01</totfact>
</mgrwt>
</event>
<event>
 6    1  0.1939311E-004  0.3000000E+03  0.7818608E-02  0.1093470E+00
          1   -1    0    0  502    0  0.00000000000E+00  0.00000000000E+00  0.46989330440E+02  0.46989330440E+02  0.00000000000E+00 0.  1.
         13   -1    0    0    0    0 -0.00000000000E+00 -0.00000000000E+00 -0.10000000000E+04  0.10000000000E+04  0.00000000000E+00 0.  1.
    9000005    2    1    2  501    0 -0.40102512656E+02 -0.40360627654E+01 -0.95323684482E+03  0.10066835929E+04  0.32113373001E+03 0.  0.
         13    1    3    3    0    0 -0.25746018811E+02 -0.15007325303E+03 -0.67676328742E+03  0.69368104051E+03  0.00000000000E+00 0.  1.
          3    1    3    3  501    0 -0.14356493845E+02  0.14603719027E+03 -0.27647355740E+03  0.31300255238E+03  0.00000000000E+00 0.  1.
         21    1    1    2  502  501  0.40102512656E+02  0.40360627654E+01  0.22617526029E+00  0.40305737547E+02  0.00000000000E+00 0.  1.
<mgrwt>
<rscale>  1 0.30000000E+03</rscale>
<asrwt>0</asrwt>
<pdfrwt beam="1">  1        1 0.17087065E+00 0.30000000E+03</pdfrwt>
<pdfrwt beam="2">0</pdfrwt>
<totfact> 0.14147973E+01</totfact>
</mgrwt>
</event>
<event>
 6    1  0.1939311E-004  0.3000000E+03  0.7818608E-02  0.1093470E+00
          1   -1    0    0  502    0  0.00000000000E+00  0.00000000000E+00  0.46821629209E+02  0.46821629209E+02  0.00000000000E+00 0.  1.
         13   -1    0    0    0    0 -0.00000000000E+00 -0.00000000000E+00 -0.10000000000E+04  0.10000000000E+04  0.00000000000E+00 0.  1.
    9000005    2    1    2  501    0 -0.22468291574E+02  0.24714984876E+02 -0.95440996914E+03  0.10133975146E+04  0.33905822328E+03 0.  0.
         13    1    3    3    0    0  0.13778764238E+03  0.90845588389E+02 -0.52431524240E+03  0.54967702220E+03  0.00000000000E+00 0.  1.
          1    1    3    3  501    0 -0.16025593395E+03 -0.66130603513E+02 -0.43009472674E+03  0.46372049239E+03  0.00000000000E+00 0.  1.
         21    1    1    2  502  501  0.22468291574E+02 -0.24714984876E+02  0.12315983520E+01  0.33424114621E+02  0.00000000000E+00 0.  1.
<mgrwt>
<rscale>  1 0.30000000E+03</rscale>
<asrwt>0</asrwt>
<pdfrwt beam="1">  1        1 0.17026083E+00 0.30000000E+03</pdfrwt>
<pdfrwt beam="2">0</pdfrwt>
<totfact> 0.14245325E+01</totfact>
</mgrwt>
</event>
<event>
 6    1  0.1939311E-004  0.3000000E+03  0.7818608E-02  0.1093470E+00
          1   -1    0    0  502    0  0.00000000000E+00  0.00000000000E+00  0.29381269329E+02  0.29381269329E+02  0.00000000000E+00 0.  1.
         13   -1    0    0    0    0 -0.00000000000E+00 -0.00000000000E+00 -0.10000000000E+04  0.10000000000E+04  0.00000000000E+00 0.  1.
    9000005    2    1    2  501    0 -0.11630742146E+02  0.47934798210E+01 -0.96640505657E+03  0.10161145191E+04  0.31367456223E+03 0.  0.
         13    1    3    3    0    0 -0.11729552331E+02 -0.63469568352E+02 -0.94110199487E+03  0.94331274414E+03  0.00000000000E+00 0.  1.
          1    1    3    3  501    0  0.98810185049E-01  0.68263048173E+02 -0.25303061703E+02  0.72801774984E+02  0.00000000000E+00 0.  1.
         21    1    1    2  502  501  0.11630742146E+02 -0.47934798210E+01 -0.42136740970E+01  0.13266750207E+02  0.00000000000E+00 0.  1.
<mgrwt>
<rscale>  1 0.30000000E+03</rscale>
<asrwt>0</asrwt>
<pdfrwt beam="1">  1        1 0.10684120E+00 0.30000000E+03</pdfrwt>
<pdfrwt beam="2">0</pdfrwt>
<totfact> 0.31038508E+01</totfact>
</mgrwt>
</event>
<event>
 6    1  0.1939311E-004  0.3000000E+03  0.7818608E-02  0.1093470E+00
          1   -1    0    0  502    0  0.00000000000E+00  0.00000000000E+00  0.30605160565E+02  0.30605160565E+02  0.00000000000E+00 0.  1.
         13   -1    0    0    0    0 -0.00000000000E+00 -0.00000000000E+00 -0.10000000000E+04  0.10000000000E+04  0.00000000000E+00 0.  1.
    9000005    2    1    2  501    0 -0.12731940280E+02 -0.13579137349E+01 -0.95668942027E+03  0.10125670368E+04  0.33147158387E+03 0.  0.
         13    1    3    3    0    0  0.45160051879E+02 -0.28705991212E+02 -0.94617011462E+03  0.94768209333E+03  0.00000000000E+00 0.  1.
          1    1    3    3  501    0 -0.57891992158E+02  0.27348077477E+02 -0.10519305656E+02  0.64884943471E+02  0.00000000000E+00 0.  1.
         21    1    1    2  502  501  0.12731940280E+02  0.13579137349E+01 -0.12705419160E+02  0.18038123767E+02  0.00000000000E+00 0. -1.
<mgrwt>
<rscale>  1 0.30000000E+03</rscale>
<asrwt>0</asrwt>
<pdfrwt beam="1">  1        1 0.11129173E+00 0.30000000E+03</pdfrwt>
<pdfrwt beam="2">0</pdfrwt>
<totfact> 0.29189496E+01</totfact>
</mgrwt>
</event>
<event>
 6    1  0.1939311E-004  0.3000000E+03  0.7818608E-02  0.1093470E+00
          3   -1    0    0  502    0  0.00000000000E+00  0.00000000000E+00  0.23241412761E+02  0.23241412761E+02  0.00000000000E+00 0.  1.
         13   -1    0    0    0    0 -0.00000000000E+00 -0.00000000000E+00 -0.10000000000E+04  0.10000000000E+04  0.00000000000E+00 0.  1.
    9000005    2    1    2  501    0  0.15220980774E+02  0.22447408093E+02 -0.96632648935E+03  0.99418297075E+03  0.23211490886E+03 0.  0.
         13    1    3    3    0    0  0.32534806398E+02  0.12081595035E+03 -0.66694047277E+03  0.67857542079E+03  0.00000000000E+00 0.  1.
          3    1    3    3  501    0 -0.17313825624E+02 -0.98368542257E+02 -0.29938601659E+03  0.31560754996E+03  0.00000000000E+00 0.  1.
         21    1    1    2  502  501 -0.15220980774E+02 -0.22447408093E+02 -0.10432097884E+02  0.29058442010E+02  0.00000000000E+00 0.  1.
<mgrwt>
<rscale>  1 0.30000000E+03</rscale>
<asrwt>0</asrwt>
<pdfrwt beam="1">  1        3 0.84514406E-01 0.30000000E+03</pdfrwt>
<pdfrwt beam="2">0</pdfrwt>
<totfact> 0.59166917E+00</totfact>
</mgrwt>
</event>
<event>
 6    1  0.1939311E-004  0.3000000E+03  0.7818608E-02  0.1093470E+00
          1   -1    0    0  502    0  0.00000000000E+00  0.00000000000E+00  0.89582174119E+02  0.89582174119E+02  0.00000000000E+00 0.  1.
         13   -1    0    0    0    0 -0.00000000000E+00 -0.00000000000E+00 -0.10000000000E+04  0.10000000000E+04  0.00000000000E+00 0.  1.
    9000005    2    1    2  501    0  0.12916830737E+03  0.15712737944E+02 -0.88685236318E+03  0.95734499026E+03  0.33626027797E+03 0.  0.
         13    1    3    3    0    0 -0.27081035482E+02  0.10385889863E+03 -0.88582448202E+02  0.13916502232E+03  0.00000000000E+00 0.  1.
          3    1    3    3  501    0  0.15624934285E+03 -0.88146160688E+02 -0.79826991498E+03  0.81817996794E+03  0.00000000000E+00 0.  1.
         21    1    1    2  502  501 -0.12916830737E+03 -0.15712737944E+02 -0.23565462700E+02  0.13223718386E+03  0.00000000000E+00 0.  1.
<mgrwt>
<rscale>  1 0.30000000E+03</rscale>
<asrwt>0</asrwt>
<pdfrwt beam="1">  1        1 0.32575405E+00 0.30000000E+03</pdfrwt>
<pdfrwt beam="2">0</pdfrwt>
<totfact> 0.26095085E+00</totfact>
</mgrwt>
</event>
<event>
 6    1  0.1939311E-004  0.3000000E+03  0.7818608E-02  0.1093470E+00
          1   -1    0    0  502    0  0.00000000000E+00  0.00000000000E+00  0.30253092601E+02  0.30253092601E+02  0.00000000000E+00 0.  1.
         13   -1    0    0    0    0 -0.00000000000E+00 -0.00000000000E+00 -0.10000000000E+04  0.10000000000E+04  0.00000000000E+00 0.  1.
    9000005    2    1    2  501    0 -0.55811110943E+01 -0.22676468290E+02 -0.92688976009E+03  0.98144626838E+03  0.32181792887E+03 0.  0.
         13    1    3    3    0    0  0.11528679980E+03 -0.31624431235E+02 -0.13494531787E+03  0.18028141800E+03  0.00000000000E+00 0.  1.
          1    1    3    3  501    0 -0.12086791090E+03  0.89479629450E+01 -0.79194444222E+03  0.80116485038E+03  0.00000000000E+00 0.  1.
         21    1    1    2  502  501  0.55811110943E+01  0.22676468290E+02 -0.42857147306E+02  0.48806824219E+02  0.00000000000E+00 0.  1.
<mgrwt>
<rscale>  1 0.30000000E+03</rscale>
<asrwt>0</asrwt>
<pdfrwt beam="1">  1        1 0.11001148E+00 0.30000000E+03</pdfrwt>
<pdfrwt beam="2">0</pdfrwt>
<totfact> 0.29704962E+01</totfact>
</mgrwt>
</event>
<event>
 6    1  0.1939311E-004  0.3000000E+03  0.7818608E-02  0.1093470E+00
          1   -1    0    0  502    0  0.00000000000E+00  0.00000000000E+00  0.53449122455E+02  0.53449122455E+02  0.00000000000E+00 0.  1.
         13   -1    0    0    0    0 -0.00000000000E+00 -0.00000000000E+00 -0.10000000000E+04  0.10000000000E+04  0.00000000000E+00 0.  1.
    9000005    2    1    2  501    0 -0.69311041867E+01  0.29936068963E+02 -0.96377447468E+03  0.10182232693E+04  0.32706754614E+03 0.  0.
         13    1    3    3    0    0  0.37805245527E+02 -0.10366223118E+03 -0.77422269154E+03  0.78204595188E+03  0.00000000000E+00 0.  1.
          1    1    3    3  501    0 -0.44736349714E+02  0.13359830014E+03 -0.18955178314E+03  0.23617731745E+03  0.00000000000E+00 0.  1.
         21    1    1    2  502  501  0.69311041867E+01 -0.29936068963E+02  0.17223597131E+02  0.35225853124E+02  0.00000000000E+00 0.  1.
<mgrwt>
<rscale>  1 0.30000000E+03</rscale>
<asrwt>0</asrwt>
<pdfrwt beam="1">  1        1 0.19436086E+00 0.30000000E+03</pdfrwt>
<pdfrwt beam="2">0</pdfrwt>
<totfact> 0.10897052E+01</totfact>
</mgrwt>
</event>
<event>
 6    1  0.1939311E-004  0.3000000E+03  0.7818608E-02  0.1093470E+00
          1   -1    0    0  502    0  0.00000000000E+00  0.00000000000E+00  0.32958616961E+02  0.32958616961E+02  0.00000000000E+00 0.  1.
         13   -1    0    0    0    0 -0.00000000000E+00 -0.00000000000E+00 -0.10000000000E+04  0.10000000000E+04  0.00000000000E+00 0.  1.
    9000005    2    1    2  501    0 -0.14234006408E+02  0.58837851436E+01 -0.95863505257E+03  0.10154117580E+04  0.33442883919E+03 0.  0.
         13    1    3    3    0    0 -0.49288564144E+02  0.21223316733E+02 -0.97304560409E+03  0.97452426310E+03  0.00000000000E+00 0.  1.
          3    1    3    3  501    0  0.35054557735E+02 -0.15339531589E+02  0.14410551520E+02  0.40887494941E+02  0.00000000000E+00 0.  1.
         21    1    1    2  502  501  0.14234006408E+02 -0.58837851436E+01 -0.84063304697E+01  0.17546858922E+02  0.00000000000E+00 0.  1.
<mgrwt>
<rscale>  1 0.30000000E+03</rscale>
<asrwt>0</asrwt>
<pdfrwt beam="1">  1        1 0.11984977E+00 0.30000000E+03</pdfrwt>
<pdfrwt beam="2">0</pdfrwt>
<totfact> 0.26046933E+01</totfact>
</mgrwt>
</event>
<event>
 6    1  0.1939311E-004  0.3000000E+03  0.7818608E-02  0.1093470E+00
          1   -1    0    0  502    0  0.00000000000E+00  0.00000000000E+00  0.32432576969E+02  0.32432576969E+02  0.00000000000E+00 0.  1.
         13   -1    0    0    0    0 -0.00000000000E+00 -0.00000000000E+00 -0.10000000000E+04  0.10000000000E+04  0.00000000000E+00 0.  1.
    9000005    2    1    2  501    0 -0.10795998036E+01  0.11549051692E+02 -0.95616557495E+03  0.10161676371E+04  0.34381610455E+03 0.  0.
         13    1    3    3    0    0  0.61329365010E+02  0.16243686857E+03 -0.38953173312E+03  0.42647625771E+03  0.00000000000E+00 0.  1.
          1    1    3    3  501    0 -0.62408964813E+02 -0.15088781687E+03 -0.56663384183E+03  0.58969137935E+03  0.00000000000E+00 0.  1.
         21    1    1    2  502  501  0.10795998036E+01 -0.11549051692E+02 -0.11401848081E+02  0.16264939913E+02  0.00000000000E+00 0.  1.
<mgrwt>
<rscale>  1 0.30000000E+03</rscale>
<asrwt>0</asrwt>
<pdfrwt beam="1">  1        1 0.11793689E+00 0.30000000E+03</pdfrwt>
<pdfrwt beam="2">0</pdfrwt>
<totfact> 0.26707119E+01</totfact>
</mgrwt>
</event>
<event>
 6    1  0.1939311E-004  0.3000000E+03  0.7818608E-02  0.1093470E+00
          1   -1    0    0  502    0  0.00000000000E+00  0.00000000000E+00  0.40589142684E+02  0.40589142684E+02  0.00000000000E+00 0.  1.
         13   -1    0    0    0    0 -0.00000000000E+00 -0.00000000000E+00 -0.10000000000E+04  0.10000000000E+04  0.00000000000E+00 0.  1.
    9000005    2    1    2  501    0  0.15801238250E+02  0.41470654771E+01 -0.96713880144E+03  0.10225171090E+04  0.33153717678E+03 0.  0.
         13    1    3    3    0    0  0.16391561598E+03 -0.29550959364E+02 -0.64814342539E+03  0.66920212809E+03  0.00000000000E+00 0.  1.
          3    1    3    3  501    0 -0.14811437773E+03  0.33698024842E+02 -0.31899537605E+03  0.35331498087E+03  0.00000000000E+00 0.  1.
         21    1    1    2  502  501 -0.15801238250E+02 -0.41470654771E+01  0.77279441268E+01  0.18072033719E+02  0.00000000000E+00 0.  1.
<mgrwt>
<rscale>  1 0.30000000E+03</rscale>
<asrwt>0</asrwt>
<pdfrwt beam="1">  1        1 0.14759719E+00 0.30000000E+03</pdfrwt>
<pdfrwt beam="2">0</pdfrwt>
<totfact> 0.18479319E+01</totfact>
</mgrwt>
</event>
<event>
 6    1  0.1939311E-004  0.3000000E+03  0.7818608E-02  0.1093470E+00
          1   -1    0    0  502    0  0.00000000000E+00  0.00000000000E+00  0.73498703641E+02  0.73498703641E+02  0.00000000000E+00 0.  1.
         13   -1    0    0    0    0 -0.00000000000E+00 -0.00000000000E+00 -0.10000000000E+04  0.10000000000E+04  0.00000000000E+00 0.  1.
    9000005    2    1    2  501    0 -0.91536568522E+01  0.10779485871E+02 -0.96792714858E+03  0.10297255614E+04  0.35107232888E+03 0.  0.
         13    1    3    3    0    0  0.18134324814E+01 -0.14890594967E+03 -0.71547172626E+03  0.73080507761E+03  0.00000000000E+00 0.  1.
          1    1    3    3  501    0 -0.10967089334E+02  0.15968543554E+03 -0.25245542231E+03  0.29892048379E+03  0.00000000000E+00 0.  1.
         21    1    1    2  502  501  0.91536568522E+01 -0.10779485871E+02  0.41425852219E+02  0.43773142239E+02  0.00000000000E+00 0.  1.
<mgrwt>
<rscale>  1 0.30000000E+03</rscale>
<asrwt>0</asrwt>
<pdfrwt beam="1">  1        1 0.26726858E+00 0.30000000E+03</pdfrwt>
<pdfrwt beam="2">0</pdfrwt>
<totfact> 0.49523150E+00</totfact>
</mgrwt>
</event>
<event>
 6    1  0.1939311E-004  0.3000000E+03  0.7818608E-02  0.1093470E+00
          1   -1    0    0  502    0  0.00000000000E+00  0.00000000000E+00  0.28330214069E+02  0.28330214069E+02  0.00000000000E+00 0.  1.
         13   -1    0    0    0    0 -0.00000000000E+00 -0.00000000000E+00 -0.10000000000E+04  0.10000000000E+04  0.00000000000E+00 0.  1.
    9000005    2    1    2  501    0 -0.11521349231E+02  0.19748793654E+00 -0.96343001135E+03  0.10141642558E+04  0.31654220952E+03 0.  0.
         13    1    3    3    0    0 -0.95748654805E+02  0.57042590351E+02 -0.11674507259E+03  0.16140345097E+03  0.00000000000E+00 0.  1.
          1    1    3    3  501    0  0.84227305574E+02 -0.56845102414E+02 -0.84668493875E+03  0.85276080479E+03  0.00000000000E+00 0.  1.
         21    1    1    2  502  501  0.11521349231E+02 -0.19748793654E+00 -0.82397745833E+01  0.14165958308E+02  0.00000000000E+00 0.  1.
<mgrwt>
<rscale>  1 0.30000000E+03</rscale>
<asrwt>0</asrwt>
<pdfrwt beam="1">  1        1 0.10301918E+00 0.30000000E+03</pdfrwt>
<pdfrwt beam="2">0</pdfrwt>
<totfact> 0.32763658E+01</totfact>
</mgrwt>
</event>
<event>
 6    1  0.1939311E-004  0.3000000E+03  0.7818608E-02  0.1093470E+00
          1   -1    0    0  502    0  0.00000000000E+00  0.00000000000E+00  0.63133978780E+02  0.63133978780E+02  0.00000000000E+00 0.  1.
         13   -1    0    0    0    0 -0.00000000000E+00 -0.00000000000E+00 -0.10000000000E+04  0.10000000000E+04  0.00000000000E+00 0.  1.
    9000005    2    1    2  501    0 -0.19146563037E+02  0.36726992601E+02 -0.96158369602E+03  0.10149009371E+04  0.32197087576E+03 0.  0.
         13    1    3    3    0    0  0.44089084905E+02 -0.13455870293E+03 -0.39394938725E+03  0.41862395017E+03  0.00000000000E+00 0.  1.
          1    1    3    3  501    0 -0.63235647942E+02  0.17128569553E+03 -0.56763430876E+03  0.59627698693E+03  0.00000000000E+00 0.  1.
         21    1    1    2  502  501  0.19146563037E+02 -0.36726992601E+02  0.24717674796E+02  0.48233041672E+02  0.00000000000E+00 0.  1.
<mgrwt>
<rscale>  1 0.30000000E+03</rscale>
<asrwt>0</asrwt>
<pdfrwt beam="1">  1        1 0.22957859E+00 0.30000000E+03</pdfrwt>
<pdfrwt beam="2">0</pdfrwt>
<totfact> 0.74341139E+00</totfact>
</mgrwt>
</event>
<event>
 6    1  0.1939311E-004  0.3000000E+03  0.7818608E-02  0.1093470E+00
          1   -1    0    0  502    0  0.00000000000E+00  0.00000000000E+00  0.36576378406E+02  0.36576378406E+02  0.00000000000E+00 0.  1.
         13   -1    0    0    0    0 -0.00000000000E+00 -0.00000000000E+00 -0.10000000000E+04  0.10000000000E+04  0.00000000000E+00 0.  1.
    9000005    2    1    2  501    0 -0.14004450386E+02 -0.10416346349E+02 -0.94867837001E+03  0.10137280230E+04  0.35686023865E+03 0.  0.
         13    1    3    3    0    0 -0.18295270788E+03 -0.30996681174E+02 -0.44783772502E+03  0.48475882200E+03  0.00000000000E+00 0.  1.
          3    1    3    3  501    0  0.16894825749E+03  0.20580334825E+02 -0.50084064499E+03  0.52896920096E+03  0.00000000000E+00 0.  1.
         21    1    1    2  502  501  0.14004450386E+02  0.10416346349E+02 -0.14745251585E+02  0.22848355437E+02  0.00000000000E+00 0.  1.
<mgrwt>
<rscale>  1 0.30000000E+03</rscale>
<asrwt>0</asrwt>
<pdfrwt beam="1">  1        1 0.13300529E+00 0.30000000E+03</pdfrwt>
<pdfrwt beam="2">0</pdfrwt>
<totfact> 0.22038507E+01</totfact>
</mgrwt>
</event>
<event>
 6    1  0.1939311E-004  0.3000000E+03  0.7818608E-02  0.1093470E+00
          1   -1    0    0  502    0  0.00000000000E+00  0.00000000000E+00  0.35133388131E+02  0.35133388131E+02  0.00000000000E+00 0.  1.
         13   -1    0    0    0    0 -0.00000000000E+00 -0.00000000000E+00 -0.10000000000E+04  0.10000000000E+04  0.00000000000E+00 0.  1.
    9000005    2    1    2  501    0  0.21758403709E+02  0.36777573392E+02 -0.89476947151E+03  0.95303815610E+03  0.32533567556E+03 0.  0.
         13    1    3    3    0    0 -0.71273826513E+02  0.13380809809E+03 -0.70099879153E+03  0.71720559897E+03  0.00000000000E+00 0.  1.
          1    1    3    3  501    0  0.93032230221E+02 -0.97030524697E+02 -0.19377067998E+03  0.23583255713E+03  0.00000000000E+00 0.  1.
         21    1    1    2  502  501 -0.21758403709E+02 -0.36777573392E+02 -0.70097140356E+02  0.82095232033E+02  0.00000000000E+00 0.  1.
<mgrwt>
<rscale>  1 0.30000000E+03</rscale>
<asrwt>0</asrwt>
<pdfrwt beam="1">  1        1 0.12775804E+00 0.30000000E+03</pdfrwt>
<pdfrwt beam="2">0</pdfrwt>
<totfact> 0.23534765E+01</totfact>
</mgrwt>
</event>
<event>
 6    1  0.1939311E-004  0.3000000E+03  0.7818608E-02  0.1093470E+00
          1   -1    0    0  502    0  0.00000000000E+00  0.00000000000E+00  0.40920213162E+02  0.40920213162E+02  0.00000000000E+00 0.  1.
         13   -1    0    0    0    0 -0.00000000000E+00 -0.00000000000E+00 -0.10000000000E+04  0.10000000000E+04  0.00000000000E+00 0.  1.
    9000005    2    1    2  501    0  0.20239820568E+01 -0.22154870259E+02 -0.95723053913E+03  0.10185963583E+04  0.34749575722E+03 0.  0.
         13    1    3    3    0    0 -0.12701058558E+03 -0.77597550268E+02 -0.77160446590E+03  0.78582855666E+03  0.00000000000E+00 0.  1.
          3    1    3    3  501    0  0.12903456764E+03  0.55442680010E+02 -0.18562607323E+03  0.23276780163E+03  0.00000000000E+00 0.  1.
         21    1    1    2  502  501 -0.20239820568E+01  0.22154870259E+02 -0.18492477067E+01  0.22323854878E+02  0.00000000000E+00 0. -1.
<mgrwt>
<rscale>  1 0.30000000E+03</rscale>
<asrwt>0</asrwt>
<pdfrwt beam="1">  1        1 0.14880109E+00 0.30000000E+03</pdfrwt>
<pdfrwt beam="2">0</pdfrwt>
<totfact> 0.18219342E+01</totfact>
</mgrwt>
</event>
<event>
 6    1  0.1939311E-004  0.3000000E+03  0.7818608E-02  0.1093470E+00
          1   -1    0    0  502    0  0.00000000000E+00  0.00000000000E+00  0.29776340862E+02  0.29776340862E+02  0.00000000000E+00 0.  1.
         13   -1    0    0    0    0 -0.00000000000E+00 -0.00000000000E+00 -0.10000000000E+04  0.10000000000E+04  0.00000000000E+00 0.  1.
    9000005    2    1    2  501    0  0.19442479075E+02  0.13111767395E+02 -0.91889509328E+03  0.97334452262E+03  0.32012722288E+03 0.  0.
         13    1    3    3    0    0 -0.50945806745E+02 -0.89430998143E+02 -0.78056317423E+03  0.78731966038E+03  0.00000000000E+00 0.  1.
          1    1    3    3  501    0  0.70388285820E+02  0.10254276554E+03 -0.13833191905E+03  0.18602486224E+03  0.00000000000E+00 0.  1.
         21    1    1    2  502  501 -0.19442479075E+02 -0.13111767395E+02 -0.51328565857E+02  0.56431818239E+02  0.00000000000E+00 0.  1.
<mgrwt>
<rscale>  1 0.30000000E+03</rscale>
<asrwt>0</asrwt>
<pdfrwt beam="1">  1        1 0.10827783E+00 0.30000000E+03</pdfrwt>
<pdfrwt beam="2">0</pdfrwt>
<totfact> 0.30423826E+01</totfact>
</mgrwt>
</event>
<event>
 6    1  0.1939311E-004  0.3000000E+03  0.7818608E-02  0.1093470E+00
          1   -1    0    0  502    0  0.00000000000E+00  0.00000000000E+00  0.42324409948E+02  0.42324409948E+02  0.00000000000E+00 0.  1.
         13   -1    0    0    0    0 -0.00000000000E+00 -0.00000000000E+00 -0.10000000000E+04  0.10000000000E+04  0.00000000000E+00 0.  1.
    9000005    2    1    2  501    0 -0.94764883720E+01  0.16127189429E+02 -0.96643169085E+03  0.10216710961E+04  0.33086511679E+03 0.  0.
         13    1    3    3    0    0 -0.34106219155E+02 -0.12761711001E+03 -0.74437846585E+03  0.75600837388E+03  0.00000000000E+00 0.  1.
          3    1    3    3  501    0  0.24629730783E+02  0.14374429944E+03 -0.22205322500E+03  0.26566272224E+03  0.00000000000E+00 0.  1.
         21    1    1    2  502  501  0.94764883720E+01 -0.16127189429E+02  0.87561007972E+01  0.20653313824E+02  0.00000000000E+00 0.  1.
<mgrwt>
<rscale>  1 0.30000000E+03</rscale>
<asrwt>0</asrwt>
<pdfrwt beam="1">  1        1 0.15390727E+00 0.30000000E+03</pdfrwt>
<pdfrwt beam="2">0</pdfrwt>
<totfact> 0.17165689E+01</totfact>
</mgrwt>
</event>
<event>
 6    1  0.1939311E-004  0.3000000E+03  0.7818608E-02  0.1093470E+00
          1   -1    0    0  502    0  0.00000000000E+00  0.00000000000E+00  0.73502214573E+02  0.73502214573E+02  0.00000000000E+00 0.  1.
         13   -1    0    0    0    0 -0.00000000000E+00 -0.00000000000E+00 -0.10000000000E+04  0.10000000000E+04  0.00000000000E+00 0.  1.
    9000005    2    1    2  501    0 -0.64546929757E+02  0.10339512975E+03 -0.87376697552E+03  0.94069635133E+03  0.32647211047E+03 0.  0.
         13    1    3    3    0    0 -0.13250838715E+03 -0.70786339902E+02 -0.51036916042E+03  0.53202054329E+03  0.00000000000E+00 0.  1.
          1    1    3    3  501    0  0.67961457390E+02  0.17418146965E+03 -0.36339781510E+03  0.40867580804E+03  0.00000000000E+00 0.  1.
         21    1    1    2  502  501  0.64546929757E+02 -0.10339512975E+03 -0.52730809912E+02  0.13280586324E+03  0.00000000000E+00 0. -1.
<mgrwt>
<rscale>  1 0.30000000E+03</rscale>
<asrwt>0</asrwt>
<pdfrwt beam="1">  1        1 0.26728134E+00 0.30000000E+03</pdfrwt>
<pdfrwt beam="2">0</pdfrwt>
<totfact> 0.49516299E+00</totfact>
</mgrwt>
</event>
<event>
 6    1  0.1939311E-004  0.3000000E+03  0.7818608E-02  0.1093470E+00
          1   -1    0    0  502    0  0.00000000000E+00  0.00000000000E+00  0.32913898295E+02  0.32913898295E+02  0.00000000000E+00 0.  1.
         13   -1    0    0    0    0 -0.00000000000E+00 -0.00000000000E+00 -0.10000000000E+04  0.10000000000E+04  0.00000000000E+00 0.  1.
    9000005    2    1    2  501    0  0.11455481444E+02 -0.66584990577E+01 -0.93299576807E+03  0.99633911857E+03  0.34933504302E+03 0.  0.
         13    1    3    3    0    0 -0.12213271897E+03 -0.62819805401E+02 -0.16448498163E+03  0.21428494622E+03  0.00000000000E+00 0.  1.
          1    1    3    3  501    0  0.13358820041E+03  0.56161306343E+02 -0.76851078644E+03  0.78205417235E+03  0.00000000000E+00 0.  1.
         21    1    1    2  502  501 -0.11455481444E+02  0.66584990577E+01 -0.34090333635E+02  0.36574779728E+02  0.00000000000E+00 0. -1.
<mgrwt>
<rscale>  1 0.30000000E+03</rscale>
<asrwt>0</asrwt>
<pdfrwt beam="1">  1        1 0.11968716E+00 0.30000000E+03</pdfrwt>
<pdfrwt beam="2">0</pdfrwt>
<totfact> 0.26102193E+01</totfact>
</mgrwt>
</event>
<event>
 6    1  0.1939311E-004  0.3000000E+03  0.7818608E-02  0.1093470E+00
          1   -1    0    0  502    0  0.00000000000E+00  0.00000000000E+00  0.57018588967E+02  0.57018588967E+02  0.00000000000E+00 0.  1.
         13   -1    0    0    0    0 -0.00000000000E+00 -0.00000000000E+00 -0.10000000000E+04  0.10000000000E+04  0.00000000000E+00 0.  1.
    9000005    2    1    2  501    0  0.98093036242E+02 -0.19194453463E+02 -0.74220779137E+03  0.83274037524E+03  0.36413384376E+03 0.  0.
         13    1    3    3    0    0 -0.78640678889E+02  0.42477874451E+02 -0.26890492762E+02  0.93337156562E+02  0.00000000000E+00 0.  1.
          3    1    3    3  501    0  0.17673371513E+03 -0.61672327915E+02 -0.71531729861E+03  0.73940321867E+03  0.00000000000E+00 0.  1.
         21    1    1    2  502  501 -0.98093036242E+02  0.19194453463E+02 -0.20077361966E+03  0.22427821373E+03  0.00000000000E+00 0. -1.
<mgrwt>
<rscale>  1 0.30000000E+03</rscale>
<asrwt>0</asrwt>
<pdfrwt beam="1">  1        1 0.20734076E+00 0.30000000E+03</pdfrwt>
<pdfrwt beam="2">0</pdfrwt>
<totfact> 0.94545818E+00</totfact>
</mgrwt>
</event>
<event>
 6    1  0.1939311E-004  0.3000000E+03  0.7818608E-02  0.1093470E+00
          1   -1    0    0  502    0  0.00000000000E+00  0.00000000000E+00  0.65633159765E+02  0.65633159765E+02  0.00000000000E+00 0.  1.
         13   -1    0    0    0    0 -0.00000000000E+00 -0.00000000000E+00 -0.10000000000E+04  0.10000000000E+04  0.00000000000E+00 0.  1.
    9000005    2    1    2  501    0  0.11347932249E+02 -0.93402211736E+01 -0.97143331957E+03  0.10257591182E+04  0.32906391319E+03 0.  0.
         13    1    3    3    0    0 -0.81277418187E+02 -0.12059602281E+03 -0.72922650865E+03  0.74358639064E+03  0.00000000000E+00 0.  1.
          1    1    3    3  501    0  0.92625350435E+02  0.11125580164E+03 -0.24220681092E+03  0.28217272759E+03  0.00000000000E+00 0.  1.
         21    1    1    2  502  501 -0.11347932249E+02  0.93402211736E+01  0.37066479335E+02  0.39874041533E+02  0.00000000000E+00 0.  1.
<mgrwt>
<rscale>  1 0.30000000E+03</rscale>
<asrwt>0</asrwt>
<pdfrwt beam="1">  1        1 0.23866654E+00 0.30000000E+03</pdfrwt>
<pdfrwt beam="2">0</pdfrwt>
<totfact> 0.67401832E+00</totfact>
</mgrwt>
</event>
<event>
 6    1  0.1939311E-004  0.3000000E+03  0.7818608E-02  0.1093470E+00
          1   -1    0    0  502    0  0.00000000000E+00  0.00000000000E+00  0.30359390701E+02  0.30359390701E+02  0.00000000000E+00 0.  1.
         13   -1    0    0    0    0 -0.00000000000E+00 -0.00000000000E+00 -0.10000000000E+04  0.10000000000E+04  0.00000000000E+00 0.  1.
    9000005    2    1    2  501    0 -0.10878090578E+02 -0.25278391644E+01 -0.96512179077E+03  0.10183118787E+04  0.32461406065E+03 0.  0.
         13    1    3    3    0    0  0.11449160896E+03  0.96544065661E+02 -0.62248537615E+03  0.64024770882E+03  0.00000000000E+00 0.  1.
          1    1    3    3  501    0 -0.12536969954E+03 -0.99071904825E+02 -0.34263641462E+03  0.37806416984E+03  0.00000000000E+00 0.  1.
         21    1    1    2  502  501  0.10878090578E+02  0.25278391644E+01 -0.45188185262E+01  0.12047512039E+02  0.00000000000E+00 0. -1.
<mgrwt>
<rscale>  1 0.30000000E+03</rscale>
<asrwt>0</asrwt>
<pdfrwt beam="1">  1        1 0.11039802E+00 0.30000000E+03</pdfrwt>
<pdfrwt beam="2">0</pdfrwt>
<totfact> 0.29547980E+01</totfact>
</mgrwt>
</event>
<event>
 6    1  0.1939311E-004  0.3000000E+03  0.7818608E-02  0.1093470E+00
          1   -1    0    0  502    0  0.00000000000E+00  0.00000000000E+00  0.30414543754E+02  0.30414543754E+02  0.00000000000E+00 0.  1.
         13   -1    0    0    0    0 -0.00000000000E+00 -0.00000000000E+00 -0.10000000000E+04  0.10000000000E+04  0.00000000000E+00 0.  1.
    9000005    2    1    2  501    0  0.23498724763E+02  0.11168380342E+02 -0.93212265274E+03  0.98480331234E+03  0.31671438466E+03 0.  0.
         13    1    3    3    0    0  0.42894983186E+02  0.49234179703E+02 -0.93922687025E+03  0.94149407743E+03  0.00000000000E+00 0.  1.
          1    1    3    3  501    0 -0.19396258423E+02 -0.38065799361E+02  0.71042175102E+01  0.43309234907E+02  0.00000000000E+00 0.  1.
         21    1    1    2  502  501 -0.23498724763E+02 -0.11168380342E+02 -0.37462803506E+02  0.45611231418E+02  0.00000000000E+00 0.  1.
<mgrwt>
<rscale>  1 0.30000000E+03</rscale>
<asrwt>0</asrwt>
<pdfrwt beam="1">  1        1 0.11059857E+00 0.30000000E+03</pdfrwt>
<pdfrwt beam="2">0</pdfrwt>
<totfact> 0.29466992E+01</totfact>
</mgrwt>
</event>
<event>
 6    1  0.1939311E-004  0.3000000E+03  0.7818608E-02  0.1093470E+00
          1   -1    0    0  502    0  0.00000000000E+00  0.00000000000E+00  0.15638783765E+02  0.15638783765E+02  0.00000000000E+00 0.  1.
         13   -1    0    0    0    0 -0.00000000000E+00 -0.00000000000E+00 -0.10000000000E+04  0.10000000000E+04  0.00000000000E+00 0.  1.
    9000005    2    1    2  501    0 -0.84912353535E+01  0.37486096484E+01 -0.97085098273E+03  0.99924733595E+03  0.23634181725E+03 0.  0.
         13    1    3    3    0    0 -0.74624965198E+01  0.11812293400E+03 -0.58249278313E+03  0.59439596128E+03  0.00000000000E+00 0.  1.
          1    1    3    3  501    0 -0.10287388337E+01 -0.11437432435E+03 -0.38835819960E+03  0.40485137467E+03  0.00000000000E+00 0.  1.
         21    1    1    2  502  501  0.84912353535E+01 -0.37486096484E+01 -0.13510233503E+02  0.16391447814E+02  0.00000000000E+00 0. -1.
<mgrwt>
<rscale>  1 0.30000000E+03</rscale>
<asrwt>0</asrwt>
<pdfrwt beam="1">  1        1 0.56868425E-01 0.30000000E+03</pdfrwt>
<pdfrwt beam="2">0</pdfrwt>
<totfact> 0.74456447E+01</totfact>
</mgrwt>
</event>
<event>
 6    1  0.1939311E-004  0.3000000E+03  0.7818608E-02  0.1093470E+00
          1   -1    0    0  502    0  0.00000000000E+00  0.00000000000E+00  0.39940705398E+02  0.39940705398E+02  0.00000000000E+00 0.  1.
         13   -1    0    0    0    0 -0.00000000000E+00 -0.00000000000E+00 -0.10000000000E+04  0.10000000000E+04  0.00000000000E+00 0.  1.
    9000005    2    1    2  501    0  0.53578575399E+02  0.96427590166E+01 -0.90390688826E+03  0.96173111978E+03  0.32390652600E+03 0.  0.
         13    1    3    3    0    0 -0.79314354273E+02  0.35985110601E+02 -0.75660086955E+03  0.76159738102E+03  0.00000000000E+00 0.  1.
          3    1    3    3  501    0  0.13289292967E+03 -0.26342351585E+02 -0.14730601871E+03  0.20013373876E+03  0.00000000000E+00 0.  1.
         21    1    1    2  502  501 -0.53578575399E+02 -0.96427590166E+01 -0.56152406347E+02  0.78209585613E+02  0.00000000000E+00 0.  1.
<mgrwt>
<rscale>  1 0.30000000E+03</rscale>
<asrwt>0</asrwt>
<pdfrwt beam="1">  1        1 0.14523923E+00 0.30000000E+03</pdfrwt>
<pdfrwt beam="2">0</pdfrwt>
<totfact> 0.19002119E+01</totfact>
</mgrwt>
</event>
<event>
 6    1  0.1939311E-004  0.3000000E+03  0.7818608E-02  0.1093470E+00
          1   -1    0    0  502    0  0.00000000000E+00  0.00000000000E+00  0.30464506918E+02  0.30464506918E+02  0.00000000000E+00 0.  1.
         13   -1    0    0    0    0 -0.00000000000E+00 -0.00000000000E+00 -0.10000000000E+04  0.10000000000E+04  0.00000000000E+00 0.  1.
    9000005    2    1    2  501    0  0.21744631561E+02  0.20349493371E+01 -0.94669374450E+03  0.99886204659E+03  0.31783544834E+03 0.  0.
         13    1    3    3    0    0 -0.50500140710E+02 -0.14126005412E+03 -0.34640595339E+03  0.37749404186E+03  0.00000000000E+00 0.  1.
          3    1    3    3  501    0  0.72244772272E+02  0.14329500346E+03 -0.60028779112E+03  0.62136800473E+03  0.00000000000E+00 0.  1.
         21    1    1    2  502  501 -0.21744631561E+02 -0.20349493371E+01 -0.22841748579E+02  0.31602460326E+02  0.00000000000E+00 0.  1.
<mgrwt>
<rscale>  1 0.30000000E+03</rscale>
<asrwt>0</asrwt>
<pdfrwt beam="1">  1        1 0.11078026E+00 0.30000000E+03</pdfrwt>
<pdfrwt beam="2">0</pdfrwt>
<totfact> 0.29393897E+01</totfact>
</mgrwt>
</event>
<event>
 6    1  0.1939311E-004  0.3000000E+03  0.7818608E-02  0.1093470E+00
          1   -1    0    0  502    0  0.00000000000E+00  0.00000000000E+00  0.25244017564E+02  0.25244017564E+02  0.00000000000E+00 0.  1.
         13   -1    0    0    0    0 -0.00000000000E+00 -0.00000000000E+00 -0.10000000000E+04  0.10000000000E+04  0.00000000000E+00 0.  1.
    9000005    2    1    2  501    0 -0.10085198297E+02  0.66876897204E+01 -0.98221166417E+03  0.10110305166E+04  0.23936690650E+03 0.  0.
         13    1    3    3    0    0  0.82135605100E+01  0.74942595542E+02 -0.96281135966E+02  0.12228619033E+03  0.00000000000E+00 0.  1.
          3    1    3    3  501    0 -0.18298758807E+02 -0.68254905822E+02 -0.88593052820E+03  0.88874432631E+03  0.00000000000E+00 0.  1.
         21    1    1    2  502  501  0.10085198297E+02 -0.66876897204E+01  0.74556817317E+01  0.14213500926E+02  0.00000000000E+00 0. -1.
<mgrwt>
<rscale>  1 0.30000000E+03</rscale>
<asrwt>0</asrwt>
<pdfrwt beam="1">  1        1 0.91796621E-01 0.30000000E+03</pdfrwt>
<pdfrwt beam="2">0</pdfrwt>
<totfact> 0.38728168E+01</totfact>
</mgrwt>
</event>
<event>
 6    1  0.1939311E-004  0.3000000E+03  0.7818608E-02  0.1093470E+00
          1   -1    0    0  502    0  0.00000000000E+00  0.00000000000E+00  0.63882719624E+02  0.63882719624E+02  0.00000000000E+00 0.  1.
         13   -1    0    0    0    0 -0.00000000000E+00 -0.00000000000E+00 -0.10000000000E+04  0.10000000000E+04  0.00000000000E+00 0.  1.
    9000005    2    1    2  501    0 -0.17057199094E+02  0.65802284561E+01 -0.97203715318E+03  0.10235778228E+04  0.32018913888E+03 0.  0.
         13    1    3    3    0    0  0.51179595752E+02  0.18693472556E+01 -0.21259642151E+01  0.51257830663E+02  0.00000000000E+00 0.  1.
          3    1    3    3  501    0 -0.68236794846E+02  0.47108812006E+01 -0.96991118897E+03  0.97231999211E+03  0.00000000000E+00 0.  1.
         21    1    1    2  502  501  0.17057199094E+02 -0.65802284561E+01  0.35919872808E+02  0.40304896849E+02  0.00000000000E+00 0.  1.
<mgrwt>
<rscale>  1 0.30000000E+03</rscale>
<asrwt>0</asrwt>
<pdfrwt beam="1">  1        1 0.23230129E+00 0.30000000E+03</pdfrwt>
<pdfrwt beam="2">0</pdfrwt>
<totfact> 0.72191299E+00</totfact>
</mgrwt>
</event>
<event>
 6    1  0.1939311E-004  0.3000000E+03  0.7818608E-02  0.1093470E+00
          1   -1    0    0  502    0  0.00000000000E+00  0.00000000000E+00  0.28854764991E+02  0.28854764991E+02  0.00000000000E+00 0.  1.
         13   -1    0    0    0    0 -0.00000000000E+00 -0.00000000000E+00 -0.10000000000E+04  0.10000000000E+04  0.00000000000E+00 0.  1.
    9000005    2    1    2  501    0 -0.34195693541E+01  0.11482114104E+02 -0.96600761245E+03  0.10158191383E+04  0.31396541519E+03 0.  0.
         13    1    3    3    0    0  0.67511522391E+02  0.11382306273E+03 -0.20041084823E+03  0.24016245201E+03  0.00000000000E+00 0.  1.
          3    1    3    3  501    0 -0.70931091746E+02 -0.10234094863E+03 -0.76559676421E+03  0.77565668624E+03  0.00000000000E+00 0.  1.
         21    1    1    2  502  501  0.34195693541E+01 -0.11482114104E+02 -0.51376225607E+01  0.13035626737E+02  0.00000000000E+00 0.  1.
<mgrwt>
<rscale>  1 0.30000000E+03</rscale>
<asrwt>0</asrwt>
<pdfrwt beam="1">  1        1 0.10492664E+00 0.30000000E+03</pdfrwt>
<pdfrwt beam="2">0</pdfrwt>
<totfact> 0.31885805E+01</totfact>
</mgrwt>
</event>
<event>
 6    1  0.1939311E-004  0.3000000E+03  0.7818608E-02  0.1093470E+00
          3   -1    0    0  502    0  0.00000000000E+00  0.00000000000E+00  0.30597446721E+02  0.30597446721E+02  0.00000000000E+00 0.  1.
         13   -1    0    0    0    0 -0.00000000000E+00 -0.00000000000E+00 -0.10000000000E+04  0.10000000000E+04  0.00000000000E+00 0.  1.
    9000005    2    1    2  501    0 -0.56670679181E+01 -0.94829041944E+01 -0.95587878512E+03  0.10131351034E+04  0.33558373719E+03 0.  0.
         13    1    3    3    0    0  0.10775313835E+03  0.10549240488E+03 -0.64971786262E+03  0.66698777149E+03  0.00000000000E+00 0.  1.
          1    1    3    3  501    0 -0.11342020627E+03 -0.11497530907E+03 -0.30616092250E+03  0.34614733186E+03  0.00000000000E+00 0.  1.
         21    1    1    2  502  501  0.56670679181E+01  0.94829041944E+01 -0.13523768156E+02  0.17462343368E+02  0.00000000000E+00 0. -1.
<mgrwt>
<rscale>  1 0.30000000E+03</rscale>
<asrwt>0</asrwt>
<pdfrwt beam="1">  1        3 0.11126368E+00 0.30000000E+03</pdfrwt>
<pdfrwt beam="2">0</pdfrwt>
<totfact> 0.29152716E+00</totfact>
</mgrwt>
</event>
<event>
 6    1  0.1939311E-004  0.3000000E+03  0.7818608E-02  0.1093470E+00
          1   -1    0    0  502    0  0.00000000000E+00  0.00000000000E+00  0.46518930059E+02  0.46518930059E+02  0.00000000000E+00 0.  1.
         13   -1    0    0    0    0 -0.00000000000E+00 -0.00000000000E+00 -0.10000000000E+04  0.10000000000E+04  0.00000000000E+00 0.  1.
    9000005    2    1    2  501    0 -0.16719578248E+02  0.19588354507E+02 -0.96468727405E+03  0.10184328670E+04  0.32545463570E+03 0.  0.
         13    1    3    3    0    0 -0.11733517100E+03 -0.10124950455E+03 -0.62793910034E+03  0.64678166197E+03  0.00000000000E+00 0.  1.
          1    1    3    3  501    0  0.10061559275E+03  0.12083785906E+03 -0.33674817371E+03  0.37165120501E+03  0.00000000000E+00 0.  1.
         21    1    1    2  502  501  0.16719578248E+02 -0.19588354507E+02  0.11206204104E+02  0.28086063083E+02  0.00000000000E+00 0.  1.
<mgrwt>
<rscale>  1 0.30000000E+03</rscale>
<asrwt>0</asrwt>
<pdfrwt beam="1">  1        1 0.16916010E+00 0.30000000E+03</pdfrwt>
<pdfrwt beam="2">0</pdfrwt>
<totfact> 0.14422957E+01</totfact>
</mgrwt>
</event>
<event>
 6    1  0.1939311E-004  0.3000000E+03  0.7818608E-02  0.1093470E+00
          3   -1    0    0  502    0  0.00000000000E+00  0.00000000000E+00  0.29215078144E+02  0.29215078144E+02  0.00000000000E+00 0.  1.
         13   -1    0    0    0    0 -0.00000000000E+00 -0.00000000000E+00 -0.10000000000E+04  0.10000000000E+04  0.00000000000E+00 0.  1.
    9000005    2    1    2  501    0  0.11331163169E+02 -0.10674690034E+02 -0.95488402987E+03  0.10069623787E+04  0.31926067307E+03 0.  0.
         13    1    3    3    0    0 -0.52314139439E+02 -0.35269869048E+02 -0.15323065101E+02  0.64927106604E+02  0.00000000000E+00 0.  1.
          1    1    3    3  501    0  0.63645302608E+02  0.24595179014E+02 -0.93956096477E+03  0.94203527211E+03  0.00000000000E+00 0.  1.
         21    1    1    2  502  501 -0.11331163169E+02  0.10674690034E+02 -0.15900891984E+02  0.22252699431E+02  0.00000000000E+00 0. -1.
<mgrwt>
<rscale>  1 0.30000000E+03</rscale>
<asrwt>0</asrwt>
<pdfrwt beam="1">  1        3 0.10623687E+00 0.30000000E+03</pdfrwt>
<pdfrwt beam="2">0</pdfrwt>
<totfact> 0.33262016E+00</totfact>
</mgrwt>
</event>
<event>
 6    1  0.1939311E-004  0.3000000E+03  0.7818608E-02  0.1093470E+00
          1   -1    0    0  502    0  0.00000000000E+00  0.00000000000E+00  0.28967427948E+02  0.28967427948E+02  0.00000000000E+00 0.  1.
         13   -1    0    0    0    0 -0.00000000000E+00 -0.00000000000E+00 -0.10000000000E+04  0.10000000000E+04  0.00000000000E+00 0.  1.
    9000005    2    1    2  501    0 -0.12036168835E+02 -0.36916422358E+01 -0.94509323310E+03  0.10001343413E+04  0.32696939266E+03 0.  0.
         13    1    3    3    0    0 -0.17228112572E+02 -0.13892578626E+03 -0.74840135618E+03  0.76138148905E+03  0.00000000000E+00 0.  1.
          1    1    3    3  501    0  0.51919437373E+01  0.13523414402E+03 -0.19669187693E+03  0.23875285221E+03  0.00000000000E+00 0.  1.
         21    1    1    2  502  501  0.12036168835E+02  0.36916422358E+01 -0.25939338951E+02  0.28833086686E+02  0.00000000000E+00 0. -1.
<mgrwt>
<rscale>  1 0.30000000E+03</rscale>
<asrwt>0</asrwt>
<pdfrwt beam="1">  1        1 0.10533632E+00 0.30000000E+03</pdfrwt>
<pdfrwt beam="2">0</pdfrwt>
<totfact> 0.31701715E+01</totfact>
</mgrwt>
</event>
<event>
 6    1  0.1939311E-004  0.3000000E+03  0.7818608E-02  0.1093470E+00
          1   -1    0    0  502    0  0.00000000000E+00  0.00000000000E+00  0.20953369567E+02  0.20953369567E+02  0.00000000000E+00 0.  1.
         13   -1    0    0    0    0 -0.00000000000E+00 -0.00000000000E+00 -0.10000000000E+04  0.10000000000E+04  0.00000000000E+00 0.  1.
    9000005    2    1    2  501    0 -0.95143560744E+01  0.40472874923E+01 -0.93289923148E+03  0.97366186994E+03  0.27858491947E+03 0.  0.
         13    1    3    3    0    0 -0.10333582943E+03  0.90187448925E+02 -0.63556175326E+03  0.65019290353E+03  0.00000000000E+00 0.  1.
          3    1    3    3  501    0  0.93821473357E+02 -0.86140161433E+02 -0.29733747823E+03  0.32346896641E+03  0.00000000000E+00 0.  1.
         21    1    1    2  502  501  0.95143560744E+01 -0.40472874923E+01 -0.46147398948E+02  0.47291499630E+02  0.00000000000E+00 0.  1.
<mgrwt>
<rscale>  1 0.30000000E+03</rscale>
<asrwt>0</asrwt>
<pdfrwt beam="1">  1        1 0.76194232E-01 0.30000000E+03</pdfrwt>
<pdfrwt beam="2">0</pdfrwt>
<totfact> 0.50226224E+01</totfact>
</mgrwt>
</event>
<event>
 6    1  0.1939311E-004  0.3000000E+03  0.7818608E-02  0.1093470E+00
          1   -1    0    0  502    0  0.00000000000E+00  0.00000000000E+00  0.49836187675E+02  0.49836187675E+02  0.00000000000E+00 0.  1.
         13   -1    0    0    0    0 -0.00000000000E+00 -0.00000000000E+00 -0.10000000000E+04  0.10000000000E+04  0.00000000000E+00 0.  1.
    9000005    2    1    2  501    0  0.27697284579E+02 -0.55497617058E+02 -0.93244970022E+03  0.98533103408E+03  0.31235825299E+03 0.  0.
         13    1    3    3    0    0  0.36519448855E+02 -0.12568891657E+03 -0.14749818472E+03  0.19719809428E+03  0.00000000000E+00 0.  1.
          1    1    3    3  501    0 -0.88221642762E+01  0.70191299512E+02 -0.78495151550E+03  0.78813293980E+03  0.00000000000E+00 0.  1.
         21    1    1    2  502  501 -0.27697284579E+02  0.55497617058E+02 -0.17714112103E+02  0.64505153591E+02  0.00000000000E+00 0. -1.
<mgrwt>
<rscale>  1 0.30000000E+03</rscale>
<asrwt>0</asrwt>
<pdfrwt beam="1">  1        1 0.18122288E+00 0.30000000E+03</pdfrwt>
<pdfrwt beam="2">0</pdfrwt>
<totfact> 0.12601757E+01</totfact>
</mgrwt>
</event>
<event>
 6    1  0.1939311E-004  0.3000000E+03  0.7818608E-02  0.1093470E+00
          1   -1    0    0  502    0  0.00000000000E+00  0.00000000000E+00  0.31819223812E+02  0.31819223812E+02  0.00000000000E+00 0.  1.
         13   -1    0    0    0    0 -0.00000000000E+00 -0.00000000000E+00 -0.10000000000E+04  0.10000000000E+04  0.00000000000E+00 0.  1.
    9000005    2    1    2  501    0  0.80457345052E+01 -0.30892637249E+02 -0.88693355209E+03  0.94452546514E+03  0.32319984466E+03 0.  0.
         13    1    3    3    0    0 -0.23676027269E+02 -0.39184554122E+02  0.10108344610E+02  0.46884562275E+02  0.00000000000E+00 0.  1.
          3    1    3    3  501    0  0.31721761774E+02  0.82919168724E+01 -0.89704189670E+03  0.89764090286E+03  0.00000000000E+00 0.  1.
         21    1    1    2  502  501 -0.80457345052E+01  0.30892637249E+02 -0.81247224100E+02  0.87293758677E+02  0.00000000000E+00 0. -1.
<mgrwt>
<rscale>  1 0.30000000E+03</rscale>
<asrwt>0</asrwt>
<pdfrwt beam="1">  1        1 0.11570651E+00 0.30000000E+03</pdfrwt>
<pdfrwt beam="2">0</pdfrwt>
<totfact> 0.27506118E+01</totfact>
</mgrwt>
</event>
<event>
 6    1  0.1939311E-004  0.3000000E+03  0.7818608E-02  0.1093470E+00
          1   -1    0    0  502    0  0.00000000000E+00  0.00000000000E+00  0.53303995187E+02  0.53303995187E+02  0.00000000000E+00 0.  1.
         13   -1    0    0    0    0 -0.00000000000E+00 -0.00000000000E+00 -0.10000000000E+04  0.10000000000E+04  0.00000000000E+00 0.  1.
    9000005    2    1    2  501    0  0.88528634858E+02  0.65116268994E+02 -0.60590288225E+03  0.69522942186E+03  0.32272000035E+03 0.  0.
         13    1    3    3    0    0 -0.67568476011E+00  0.11137700923E+02  0.39711860195E+02  0.41249688143E+02  0.00000000000E+00 0.  1.
          3    1    3    3  501    0  0.89204319618E+02  0.53978568071E+02 -0.64561474245E+03  0.65397973372E+03  0.00000000000E+00 0.  1.
         21    1    1    2  502  501 -0.88528634858E+02 -0.65116268994E+02 -0.34079312256E+03  0.35807457333E+03  0.00000000000E+00 0.  1.
<mgrwt>
<rscale>  1 0.30000000E+03</rscale>
<asrwt>0</asrwt>
<pdfrwt beam="1">  1        1 0.19383312E+00 0.30000000E+03</pdfrwt>
<pdfrwt beam="2">0</pdfrwt>
<totfact> 0.10960541E+01</totfact>
</mgrwt>
</event>
<event>
 6    1  0.1939311E-004  0.3000000E+03  0.7818608E-02  0.1093470E+00
          1   -1    0    0  502    0  0.00000000000E+00  0.00000000000E+00  0.25242405654E+02  0.25242405654E+02  0.00000000000E+00 0.  1.
         13   -1    0    0    0    0 -0.00000000000E+00 -0.00000000000E+00 -0.10000000000E+04  0.10000000000E+04  0.00000000000E+00 0.  1.
    9000005    2    1    2  501    0 -0.30372945275E+01 -0.10020835057E+02 -0.95191108793E+03  0.10001106499E+04  0.30655660223E+03 0.  0.
         13    1    3    3    0    0  0.11578573063E+03 -0.95422093031E+02 -0.35261973352E+03  0.38321324054E+03  0.00000000000E+00 0.  1.
          1    1    3    3  501    0 -0.11882302516E+03  0.85401257974E+02 -0.59929135441E+03  0.61689740933E+03  0.00000000000E+00 0.  1.
         21    1    1    2  502  501  0.30372945275E+01  0.10020835057E+02 -0.22846506420E+02  0.25131755786E+02  0.00000000000E+00 0.  1.
<mgrwt>
<rscale>  1 0.30000000E+03</rscale>
<asrwt>0</asrwt>
<pdfrwt beam="1">  1        1 0.91790760E-01 0.30000000E+03</pdfrwt>
<pdfrwt beam="2">0</pdfrwt>
<totfact> 0.38731693E+01</totfact>
</mgrwt>
</event>
<event>
 6    1  0.1939311E-004  0.3000000E+03  0.7818608E-02  0.1093470E+00
          3   -1    0    0  502    0  0.00000000000E+00  0.00000000000E+00  0.27461378337E+02  0.27461378337E+02  0.00000000000E+00 0.  1.
         13   -1    0    0    0    0 -0.00000000000E+00 -0.00000000000E+00 -0.10000000000E+04  0.10000000000E+04  0.00000000000E+00 0.  1.
    9000005    2    1    2  501    0  0.57536387567E+01 -0.11635845838E+02 -0.94418456908E+03  0.99627725473E+03  0.31767179688E+03 0.  0.
         13    1    3    3    0    0 -0.21369831244E+02  0.10907686093E+03 -0.12282402579E+03  0.16565075487E+03  0.00000000000E+00 0.  1.
          1    1    3    3  501    0  0.27123470001E+02 -0.12071270676E+03 -0.82136054329E+03  0.83062649986E+03  0.00000000000E+00 0.  1.
         21    1    1    2  502  501 -0.57536387567E+01  0.11635845838E+02 -0.28354052585E+02  0.31184123610E+02  0.00000000000E+00 0. -1.
<mgrwt>
<rscale>  1 0.30000000E+03</rscale>
<asrwt>0</asrwt>
<pdfrwt beam="1">  1        3 0.99859768E-01 0.30000000E+03</pdfrwt>
<pdfrwt beam="2">0</pdfrwt>
<totfact> 0.39314977E+00</totfact>
</mgrwt>
</event>
<event>
 6    1  0.1939311E-004  0.3000000E+03  0.7818608E-02  0.1093470E+00
          1   -1    0    0  502    0  0.00000000000E+00  0.00000000000E+00  0.59846597200E+02  0.59846597200E+02  0.00000000000E+00 0.  1.
         13   -1    0    0    0    0 -0.00000000000E+00 -0.00000000000E+00 -0.10000000000E+04  0.10000000000E+04  0.00000000000E+00 0.  1.
    9000005    2    1    2  501    0 -0.96449736872E+01 -0.97181983782E+01 -0.97323394090E+03  0.10240444897E+04  0.31826929534E+03 0.  0.
         13    1    3    3    0    0 -0.31539124760E+02  0.57369559810E+01 -0.99123969579E+03  0.99175791581E+03  0.00000000000E+00 0.  1.
          1    1    3    3  501    0  0.21894151073E+02 -0.15455154359E+02  0.18005754890E+02  0.32286573937E+02  0.00000000000E+00 0.  1.
         21    1    1    2  502  501  0.96449736872E+01  0.97181983782E+01  0.33080538102E+02  0.35802107455E+02  0.00000000000E+00 0.  1.
<mgrwt>
<rscale>  1 0.30000000E+03</rscale>
<asrwt>0</asrwt>
<pdfrwt beam="1">  1        1 0.21762445E+00 0.30000000E+03</pdfrwt>
<pdfrwt beam="2">0</pdfrwt>
<totfact> 0.84575034E+00</totfact>
</mgrwt>
</event>
<event>
 6    1  0.1939311E-004  0.3000000E+03  0.7818608E-02  0.1093470E+00
          1   -1    0    0  502    0  0.00000000000E+00  0.00000000000E+00  0.29484749916E+02  0.29484749916E+02  0.00000000000E+00 0.  1.
         13   -1    0    0    0    0 -0.00000000000E+00 -0.00000000000E+00 -0.10000000000E+04  0.10000000000E+04  0.00000000000E+00 0.  1.
    9000005    2    1    2  501    0  0.17340934869E+01 -0.78732031817E+01 -0.94835009717E+03  0.10058989828E+04  0.33526088694E+03 0.  0.
         13    1    3    3    0    0  0.13686704069E+02  0.62872889850E+02 -0.92948776533E+03  0.93171231184E+03  0.00000000000E+00 0.  1.
          3    1    3    3  501    0 -0.11952610582E+02 -0.70746093031E+02 -0.18862331837E+02  0.74186670914E+02  0.00000000000E+00 0.  1.
         21    1    1    2  502  501 -0.17340934869E+01  0.78732031817E+01 -0.22165152919E+02  0.23585767159E+02  0.00000000000E+00 0. -1.
<mgrwt>
<rscale>  1 0.30000000E+03</rscale>
<asrwt>0</asrwt>
<pdfrwt beam="1">  1        1 0.10721750E+00 0.30000000E+03</pdfrwt>
<pdfrwt beam="2">0</pdfrwt>
<totfact> 0.30875796E+01</totfact>
</mgrwt>
</event>
<event>
 6    1  0.1939311E-004  0.3000000E+03  0.7818608E-02  0.1093470E+00
          1   -1    0    0  502    0  0.00000000000E+00  0.00000000000E+00  0.30694599200E+02  0.30694599200E+02  0.00000000000E+00 0.  1.
         13   -1    0    0    0    0 -0.00000000000E+00 -0.00000000000E+00 -0.10000000000E+04  0.10000000000E+04  0.00000000000E+00 0.  1.
    9000005    2    1    2  501    0  0.77186469574E+01  0.65334641690E+01 -0.96900817094E+03  0.10205776822E+04  0.32015575318E+03 0.  0.
         13    1    3    3    0    0 -0.14750540311E+03  0.45623654543E+02 -0.57310660319E+03  0.59354068135E+03  0.00000000000E+00 0.  1.
          3    1    3    3  501    0  0.15522405007E+03 -0.39090190374E+02 -0.39590156775E+03  0.42703700080E+03  0.00000000000E+00 0.  1.
         21    1    1    2  502  501 -0.77186469574E+01 -0.65334641690E+01 -0.29722985624E+00  0.10116917045E+02  0.00000000000E+00 0.  1.
<mgrwt>
<rscale>  1 0.30000000E+03</rscale>
<asrwt>0</asrwt>
<pdfrwt beam="1">  1        1 0.11161696E+00 0.30000000E+03</pdfrwt>
<pdfrwt beam="2">0</pdfrwt>
<totfact> 0.29060564E+01</totfact>
</mgrwt>
</event>
<event>
 6    1  0.1939311E-004  0.3000000E+03  0.7818608E-02  0.1093470E+00
          1   -1    0    0  502    0  0.00000000000E+00  0.00000000000E+00  0.31264596695E+02  0.31264596695E+02  0.00000000000E+00 0.  1.
         13   -1    0    0    0    0 -0.00000000000E+00 -0.00000000000E+00 -0.10000000000E+04  0.10000000000E+04  0.00000000000E+00 0.  1.
    9000005    2    1    2  501    0  0.13294949758E+02 -0.12208948485E+02 -0.94908565330E+03  0.10045826405E+04  0.32878091511E+03 0.  0.
         13    1    3    3    0    0 -0.91410594147E+02  0.55442363707E+02 -0.99981264733E+02  0.14637624709E+03  0.00000000000E+00 0.  1.
          3    1    3    3  501    0  0.10470554391E+03 -0.67651312192E+02 -0.84910438857E+03  0.85820639339E+03  0.00000000000E+00 0.  1.
         21    1    1    2  502  501 -0.13294949758E+02  0.12208948485E+02 -0.19649750005E+02  0.26681956215E+02  0.00000000000E+00 0.  1.
<mgrwt>
<rscale>  1 0.30000000E+03</rscale>
<asrwt>0</asrwt>
<pdfrwt beam="1">  1        1 0.11368968E+00 0.30000000E+03</pdfrwt>
<pdfrwt beam="2">0</pdfrwt>
<totfact> 0.28257576E+01</totfact>
</mgrwt>
</event>
<event>
 6    1  0.1939311E-004  0.3000000E+03  0.7818608E-02  0.1093470E+00
          1   -1    0    0  502    0  0.00000000000E+00  0.00000000000E+00  0.30581510252E+02  0.30581510252E+02  0.00000000000E+00 0.  1.
         13   -1    0    0    0    0 -0.00000000000E+00 -0.00000000000E+00 -0.10000000000E+04  0.10000000000E+04  0.00000000000E+00 0.  1.
    9000005    2    1    2  501    0 -0.46098740493E+01 -0.99279088645E+01 -0.96518688941E+03  0.10188460616E+04  0.32610083023E+03 0.  0.
         13    1    3    3    0    0  0.11090893441E+03 -0.24817183200E+02 -0.84077363423E+03  0.84842028991E+03  0.00000000000E+00 0.  1.
          3    1    3    3  501    0 -0.11551880846E+03  0.14889274336E+02 -0.12441325518E+03  0.17042577171E+03  0.00000000000E+00 0.  1.
         21    1    1    2  502  501  0.46098740493E+01  0.99279088645E+01 -0.42316003376E+01  0.11735448632E+02  0.00000000000E+00 0.  1.
<mgrwt>
<rscale>  1 0.30000000E+03</rscale>
<asrwt>0</asrwt>
<pdfrwt beam="1">  1        1 0.11120573E+00 0.30000000E+03</pdfrwt>
<pdfrwt beam="2">0</pdfrwt>
<totfact> 0.29223724E+01</totfact>
</mgrwt>
</event>
<event>
 6    1  0.1939311E-004  0.3000000E+03  0.7818608E-02  0.1093470E+00
          1   -1    0    0  502    0  0.00000000000E+00  0.00000000000E+00  0.32788132225E+02  0.32788132225E+02  0.00000000000E+00 0.  1.
         13   -1    0    0    0    0 -0.00000000000E+00 -0.00000000000E+00 -0.10000000000E+04  0.10000000000E+04  0.00000000000E+00 0.  1.
    9000005    2    1    2  501    0  0.29586347371E+02 -0.83304532506E+01 -0.90426518146E+03  0.96273790938E+03  0.32897418647E+03 0.  0.
         13    1    3    3    0    0  0.17599973431E+03 -0.22375029791E+02 -0.40267667828E+03  0.44002847143E+03  0.00000000000E+00 0.  1.
          3    1    3    3  501    0 -0.14641338694E+03  0.14044576541E+02 -0.50158850318E+03  0.52270943795E+03  0.00000000000E+00 0.  1.
         21    1    1    2  502  501 -0.29586347371E+02  0.83304532506E+01 -0.62946686314E+02  0.70050222841E+02  0.00000000000E+00 0.  1.
<mgrwt>
<rscale>  1 0.30000000E+03</rscale>
<asrwt>0</asrwt>
<pdfrwt beam="1">  1        1 0.11922982E+00 0.30000000E+03</pdfrwt>
<pdfrwt beam="2">0</pdfrwt>
<totfact> 0.26258452E+01</totfact>
</mgrwt>
</event>
<event>
 6    1  0.1939311E-004  0.3000000E+03  0.7818608E-02  0.1093470E+00
          1   -1    0    0  502    0  0.00000000000E+00  0.00000000000E+00  0.32083423319E+02  0.32083423319E+02  0.00000000000E+00 0.  1.
         13   -1    0    0    0    0 -0.00000000000E+00 -0.00000000000E+00 -0.10000000000E+04  0.10000000000E+04  0.00000000000E+00 0.  1.
    9000005    2    1    2  501    0 -0.57733242073E+01 -0.12200777757E+02 -0.96259066421E+03  0.10175728894E+04  0.32968410368E+03 0.  0.
         13    1    3    3    0    0 -0.14565921779E+03 -0.59887300154E+02 -0.68737079848E+03  0.70518204108E+03  0.00000000000E+00 0.  1.
          3    1    3    3  501    0  0.13988589358E+03  0.47686522397E+02 -0.27521986573E+03  0.31239084835E+03  0.00000000000E+00 0.  1.
         21    1    1    2  502  501  0.57733242073E+01  0.12200777757E+02 -0.53259124704E+01  0.14510533895E+02  0.00000000000E+00 0. -1.
<mgrwt>
<rscale>  1 0.30000000E+03</rscale>
<asrwt>0</asrwt>
<pdfrwt beam="1">  1        1 0.11666724E+00 0.30000000E+03</pdfrwt>
<pdfrwt beam="2">0</pdfrwt>
<totfact> 0.27157961E+01</totfact>
</mgrwt>
</event>
<event>
 6    1  0.1939311E-004  0.3000000E+03  0.7818608E-02  0.1093470E+00
          1   -1    0    0  502    0  0.00000000000E+00  0.00000000000E+00  0.47570629146E+02  0.47570629146E+02  0.00000000000E+00 0.  1.
         13   -1    0    0    0    0 -0.00000000000E+00 -0.00000000000E+00 -0.10000000000E+04  0.10000000000E+04  0.00000000000E+00 0.  1.
    9000005    2    1    2  501    0  0.10352735076E+02  0.17395014318E+02 -0.95712256065E+03  0.10267910315E+04  0.37122292586E+03 0.  0.
         13    1    3    3    0    0  0.43284430746E+02 -0.68683768414E+02 -0.17999381640E+02  0.83156357111E+02  0.00000000000E+00 0.  1.
          3    1    3    3  501    0 -0.32931695670E+02  0.86078782732E+02 -0.93912317901E+03  0.94363467442E+03  0.00000000000E+00 0.  1.
         21    1    1    2  502  501 -0.10352735076E+02 -0.17395014318E+02  0.46931897939E+01  0.20779597616E+02  0.00000000000E+00 0.  1.
<mgrwt>
<rscale>  1 0.30000000E+03</rscale>
<asrwt>0</asrwt>
<pdfrwt beam="1">  1        1 0.17298447E+00 0.30000000E+03</pdfrwt>
<pdfrwt beam="2">0</pdfrwt>
<totfact> 0.13816241E+01</totfact>
</mgrwt>
</event>
<event>
 6    1  0.1939311E-004  0.3000000E+03  0.7818608E-02  0.1093470E+00
          1   -1    0    0  502    0  0.00000000000E+00  0.00000000000E+00  0.95835236373E+02  0.95835236373E+02  0.00000000000E+00 0.  1.
         13   -1    0    0    0    0 -0.00000000000E+00 -0.00000000000E+00 -0.10000000000E+04  0.10000000000E+04  0.00000000000E+00 0.  1.
    9000005    2    1    2  501    0 -0.71865609756E+01  0.11769454454E+02 -0.97307381319E+03  0.10255598934E+04  0.32358968204E+03 0.  0.
         13    1    3    3    0    0  0.42503591984E+02  0.16102238291E+03 -0.49248394295E+03  0.51987998345E+03  0.00000000000E+00 0.  1.
          1    1    3    3  501    0 -0.49690152959E+02 -0.14925292845E+03 -0.48058987024E+03  0.50567990995E+03  0.00000000000E+00 0.  1.
         21    1    1    2  502  501  0.71865609756E+01 -0.11769454454E+02  0.68909049567E+02  0.70275342966E+02  0.00000000000E+00 0.  1.
<mgrwt>
<rscale>  1 0.30000000E+03</rscale>
<asrwt>0</asrwt>
<pdfrwt beam="1">  1        1 0.34849250E+00 0.30000000E+03</pdfrwt>
<pdfrwt beam="2">0</pdfrwt>
<totfact> 0.20043317E+00</totfact>
</mgrwt>
</event>
<event>
 6    1  0.1939311E-004  0.3000000E+03  0.7818608E-02  0.1093470E+00
          1   -1    0    0  502    0  0.00000000000E+00  0.00000000000E+00  0.51285901661E+02  0.51285901661E+02  0.00000000000E+00 0.  1.
         13   -1    0    0    0    0 -0.00000000000E+00 -0.00000000000E+00 -0.10000000000E+04  0.10000000000E+04  0.00000000000E+00 0.  1.
    9000005    2    1    2  501    0  0.44958911258E+02 -0.16239197068E+02 -0.94249711383E+03  0.10030814815E+04  0.33998034326E+03 0.  0.
         13    1    3    3    0    0  0.13404377865E+03 -0.54641245027E+02 -0.87003997837E+03  0.88199941282E+03  0.00000000000E+00 0.  1.
          1    1    3    3  501    0 -0.89084867395E+02  0.38402047958E+02 -0.72457135461E+02  0.12108206872E+03  0.00000000000E+00 0.  1.
         21    1    1    2  502  501 -0.44958911258E+02  0.16239197068E+02 -0.62169845103E+01  0.48204420123E+02  0.00000000000E+00 0.  1.
<mgrwt>
<rscale>  1 0.30000000E+03</rscale>
<asrwt>0</asrwt>
<pdfrwt beam="1">  1        1 0.18649458E+00 0.30000000E+03</pdfrwt>
<pdfrwt beam="2">0</pdfrwt>
<totfact> 0.11886053E+01</totfact>
</mgrwt>
</event>
<event>
 6    1  0.1939311E-004  0.3000000E+03  0.7818608E-02  0.1093470E+00
          1   -1    0    0  502    0  0.00000000000E+00  0.00000000000E+00  0.39651686494E+02  0.39651686494E+02  0.00000000000E+00 0.  1.
         13   -1    0    0    0    0 -0.00000000000E+00 -0.00000000000E+00 -0.10000000000E+04  0.10000000000E+04  0.00000000000E+00 0.  1.
    9000005    2    1    2  501    0  0.60524377350E+02  0.64251756128E+01 -0.86326255367E+03  0.92506491632E+03  0.32683081206E+03 0.  0.
         13    1    3    3    0    0  0.83502805637E+02 -0.52591183136E+02 -0.85559864581E+03  0.86127091778E+03  0.00000000000E+00 0.  1.
          1    1    3    3  501    0 -0.22978428287E+02  0.59016358749E+02 -0.76639078533E+01  0.63793998543E+02  0.00000000000E+00 0.  1.
         21    1    1    2  502  501 -0.60524377350E+02 -0.64251756128E+01 -0.97085759839E+02  0.11458677017E+03  0.00000000000E+00 0.  1.
<mgrwt>
<rscale>  1 0.30000000E+03</rscale>
<asrwt>0</asrwt>
<pdfrwt beam="1">  1        1 0.14418825E+00 0.30000000E+03</pdfrwt>
<pdfrwt beam="2">0</pdfrwt>
<totfact> 0.19241127E+01</totfact>
</mgrwt>
</event>
<event>
 6    1  0.1939311E-004  0.3000000E+03  0.7818608E-02  0.1093470E+00
          1   -1    0    0  502    0  0.00000000000E+00  0.00000000000E+00  0.29317064971E+02  0.29317064971E+02  0.00000000000E+00 0.  1.
         13   -1    0    0    0    0 -0.00000000000E+00 -0.00000000000E+00 -0.10000000000E+04  0.10000000000E+04  0.00000000000E+00 0.  1.
    9000005    2    1    2  501    0 -0.79972961168E+01  0.81683501540E+01 -0.94382109111E+03  0.10001239605E+04  0.33063424758E+03 0.  0.
         13    1    3    3    0    0 -0.99903039373E+02  0.13673685564E+03 -0.41590592507E+03  0.44906048977E+03  0.00000000000E+00 0.  1.
          1    1    3    3  501    0  0.91905743256E+02 -0.12856850548E+03 -0.52791516604E+03  0.55106347073E+03  0.00000000000E+00 0.  1.
         21    1    1    2  502  501  0.79972961168E+01 -0.81683501540E+01 -0.26861843920E+02  0.29193104463E+02  0.00000000000E+00 0. -1.
<mgrwt>
<rscale>  1 0.30000000E+03</rscale>
<asrwt>0</asrwt>
<pdfrwt beam="1">  1        1 0.10660773E+00 0.30000000E+03</pdfrwt>
<pdfrwt beam="2">0</pdfrwt>
<totfact> 0.31140082E+01</totfact>
</mgrwt>
</event>
<event>
 6    1  0.1939311E-004  0.3000000E+03  0.7818608E-02  0.1093470E+00
          3   -1    0    0  502    0  0.00000000000E+00  0.00000000000E+00  0.30351527805E+02  0.30351527805E+02  0.00000000000E+00 0.  1.
         13   -1    0    0    0    0 -0.00000000000E+00 -0.00000000000E+00 -0.10000000000E+04  0.10000000000E+04  0.00000000000E+00 0.  1.
    9000005    2    1    2  501    0  0.75760605372E+01  0.10485690783E+02 -0.96277814068E+03  0.10157040755E+04  0.32333523528E+03 0.  0.
         13    1    3    3    0    0  0.12352695319E+03  0.74580963993E+02 -0.75934128447E+03  0.77292976049E+03  0.00000000000E+00 0.  1.
          1    1    3    3  501    0 -0.11595089265E+03 -0.64095273210E+02 -0.20343685621E+03  0.24277431499E+03  0.00000000000E+00 0.  1.
         21    1    1    2  502  501 -0.75760605372E+01 -0.10485690783E+02 -0.68703315154E+01  0.14647452324E+02  0.00000000000E+00 0. -1.
<mgrwt>
<rscale>  1 0.30000000E+03</rscale>
<asrwt>0</asrwt>
<pdfrwt beam="1">  1        3 0.11036942E+00 0.30000000E+03</pdfrwt>
<pdfrwt beam="2">0</pdfrwt>
<totfact> 0.29845387E+00</totfact>
</mgrwt>
</event>
<event>
 6    1  0.1939311E-004  0.3000000E+03  0.7818608E-02  0.1093470E+00
          1   -1    0    0  502    0  0.00000000000E+00  0.00000000000E+00  0.30834971104E+02  0.30834971104E+02  0.00000000000E+00 0.  1.
         13   -1    0    0    0    0 -0.00000000000E+00 -0.00000000000E+00 -0.10000000000E+04  0.10000000000E+04  0.00000000000E+00 0.  1.
    9000005    2    1    2  501    0  0.17279600387E+02  0.12055989164E+01 -0.95298773817E+03  0.10071338573E+04  0.32531974955E+03 0.  0.
         13    1    3    3    0    0 -0.41964905195E+01 -0.10069782310E+03 -0.81964717286E+02  0.12990718606E+03  0.00000000000E+00 0.  1.
          3    1    3    3  501    0  0.21476090906E+02  0.10190342202E+03 -0.87102302088E+03  0.87722667128E+03  0.00000000000E+00 0.  1.
         21    1    1    2  502  501 -0.17279600387E+02 -0.12055989164E+01 -0.16177290728E+02  0.23701113762E+02  0.00000000000E+00 0.  1.
<mgrwt>
<rscale>  1 0.30000000E+03</rscale>
<asrwt>0</asrwt>
<pdfrwt beam="1">  1        1 0.11212740E+00 0.30000000E+03</pdfrwt>
<pdfrwt beam="2">0</pdfrwt>
<totfact> 0.28859824E+01</totfact>
</mgrwt>
</event>
<event>
 6    1  0.1939311E-004  0.3000000E+03  0.7818608E-02  0.1093470E+00
          1   -1    0    0  502    0  0.00000000000E+00  0.00000000000E+00  0.33799242306E+02  0.33799242306E+02  0.00000000000E+00 0.  1.
         13   -1    0    0    0    0 -0.00000000000E+00 -0.00000000000E+00 -0.10000000000E+04  0.10000000000E+04  0.00000000000E+00 0.  1.
    9000005    2    1    2  501    0 -0.19170893591E+02  0.11370828787E+01 -0.95631617285E+03  0.10122001420E+04  0.33111884391E+03 0.  0.
         13    1    3    3    0    0 -0.62207907714E+02 -0.15057014979E+03 -0.61506318035E+03  0.63627345506E+03  0.00000000000E+00 0.  1.
          1    1    3    3  501    0  0.43037014124E+02  0.15170723267E+03 -0.34125299250E+03  0.37592668689E+03  0.00000000000E+00 0.  1.
         21    1    1    2  502  501  0.19170893591E+02 -0.11370828787E+01 -0.98845848447E+01  0.21599100354E+02  0.00000000000E+00 0.  1.
<mgrwt>
<rscale>  1 0.30000000E+03</rscale>
<asrwt>0</asrwt>
<pdfrwt beam="1">  1        1 0.12290659E+00 0.30000000E+03</pdfrwt>
<pdfrwt beam="2">0</pdfrwt>
<totfact> 0.25036505E+01</totfact>
</mgrwt>
</event>
<event>
 6    1  0.1939311E-004  0.3000000E+03  0.7818608E-02  0.1093470E+00
          1   -1    0    0  502    0  0.00000000000E+00  0.00000000000E+00  0.28103896344E+02  0.28103896344E+02  0.00000000000E+00 0.  1.
         13   -1    0    0    0    0 -0.00000000000E+00 -0.00000000000E+00 -0.10000000000E+04  0.10000000000E+04  0.00000000000E+00 0.  1.
    9000005    2    1    2  501    0  0.79673997403E+01  0.11874898111E+01 -0.94090003152E+03  0.99607818670E+03  0.32682410423E+03 0.  0.
         13    1    3    3    0    0 -0.17625038169E+02 -0.13176094523E+03 -0.18303844579E+03  0.22621817190E+03  0.00000000000E+00 0.  1.
          3    1    3    3  501    0  0.25592437909E+02  0.13294843505E+03 -0.75786158573E+03  0.76986001480E+03  0.00000000000E+00 0.  1.
         21    1    1    2  502  501 -0.79673997403E+01 -0.11874898111E+01 -0.30996072134E+02  0.32025709647E+02  0.00000000000E+00 0.  1.
<mgrwt>
<rscale>  1 0.30000000E+03</rscale>
<asrwt>0</asrwt>
<pdfrwt beam="1">  1        1 0.10219620E+00 0.30000000E+03</pdfrwt>
<pdfrwt beam="2">0</pdfrwt>
<totfact> 0.33153301E+01</totfact>
</mgrwt>
</event>
<event>
 6    1  0.1939311E-004  0.3000000E+03  0.7818608E-02  0.1093470E+00
          1   -1    0    0  502    0  0.00000000000E+00  0.00000000000E+00  0.35429862965E+02  0.35429862965E+02  0.00000000000E+00 0.  1.
         13   -1    0    0    0    0 -0.00000000000E+00 -0.00000000000E+00 -0.10000000000E+04  0.10000000000E+04  0.00000000000E+00 0.  1.
    9000005    2    1    2  501    0 -0.40901784171E+01 -0.21039738496E+02 -0.96245099310E+03  0.10138917357E+04  0.31812754900E+03 0.  0.
         13    1    3    3    0    0 -0.21077389397E+02  0.73896445548E+02 -0.88988537917E+03  0.89319702701E+03  0.00000000000E+00 0.  1.
          1    1    3    3  501    0  0.16987210979E+02 -0.94936184044E+02 -0.72565613927E+02  0.12069470868E+03  0.00000000000E+00 0.  1.
         21    1    1    2  502  501  0.40901784171E+01  0.21039738496E+02 -0.21191439394E+01  0.21538127275E+02  0.00000000000E+00 0. -1.
<mgrwt>
<rscale>  1 0.30000000E+03</rscale>
<asrwt>0</asrwt>
<pdfrwt beam="1">  1        1 0.12883614E+00 0.30000000E+03</pdfrwt>
<pdfrwt beam="2">0</pdfrwt>
<totfact> 0.23216817E+01</totfact>
</mgrwt>
</event>
<event>
 6    1  0.1939311E-004  0.3000000E+03  0.7818608E-02  0.1093470E+00
          1   -1    0    0  502    0  0.00000000000E+00  0.00000000000E+00  0.30744588258E+02  0.30744588258E+02  0.00000000000E+00 0.  1.
         13   -1    0    0    0    0 -0.00000000000E+00 -0.00000000000E+00 -0.10000000000E+04  0.10000000000E+04  0.00000000000E+00 0.  1.
    9000005    2    1    2  501    0 -0.24233142024E+02  0.74007391559E+01 -0.93604349145E+03  0.98897081943E+03  0.31818838396E+03 0.  0.
         13    1    3    3    0    0 -0.14711969890E+03  0.46656189363E+02 -0.27402951815E+03  0.31450466233E+03  0.00000000000E+00 0.  1.
          1    1    3    3  501    0  0.12288655687E+03 -0.39255450207E+02 -0.66201397331E+03  0.67446615711E+03  0.00000000000E+00 0.  1.
         21    1    1    2  502  501  0.24233142024E+02 -0.74007391559E+01 -0.33211920289E+02  0.41773768823E+02  0.00000000000E+00 0. -1.
<mgrwt>
<rscale>  1 0.30000000E+03</rscale>
<asrwt>0</asrwt>
<pdfrwt beam="1">  1        1 0.11179874E+00 0.30000000E+03</pdfrwt>
<pdfrwt beam="2">0</pdfrwt>
<totfact> 0.28988852E+01</totfact>
</mgrwt>
</event>
<event>
 6    1  0.1939311E-004  0.3000000E+03  0.7818608E-02  0.1093470E+00
          1   -1    0    0  502    0  0.00000000000E+00  0.00000000000E+00  0.22247728553E+02  0.22247728553E+02  0.00000000000E+00 0.  1.
         13   -1    0    0    0    0 -0.00000000000E+00 -0.00000000000E+00 -0.10000000000E+04  0.10000000000E+04  0.00000000000E+00 0.  1.
    9000005    2    1    2  501    0 -0.46473848264E+01  0.88652184281E+01 -0.97249351064E+03  0.10109408789E+04  0.27596674101E+03 0.  0.
         13    1    3    3    0    0  0.53058315879E+02  0.94527817653E+02 -0.16861223601E+03  0.20045143882E+03  0.00000000000E+00 0.  1.
          3    1    3    3  501    0 -0.57705700705E+02 -0.85662599225E+02 -0.80388127463E+03  0.81048944009E+03  0.00000000000E+00 0.  1.
         21    1    1    2  502  501  0.46473848264E+01 -0.88652184281E+01 -0.52587608093E+01  0.11306849639E+02  0.00000000000E+00 0.  1.
<mgrwt>
<rscale>  1 0.30000000E+03</rscale>
<asrwt>0</asrwt>
<pdfrwt beam="1">  1        1 0.80901002E-01 0.30000000E+03</pdfrwt>
<pdfrwt beam="2">0</pdfrwt>
<totfact> 0.46243456E+01</totfact>
</mgrwt>
</event>
<event>
 6    1  0.1939311E-004  0.3000000E+03  0.7818608E-02  0.1093470E+00
          1   -1    0    0  502    0  0.00000000000E+00  0.00000000000E+00  0.32476327738E+02  0.32476327738E+02  0.00000000000E+00 0.  1.
         13   -1    0    0    0    0 -0.00000000000E+00 -0.00000000000E+00 -0.10000000000E+04  0.10000000000E+04  0.00000000000E+00 0.  1.
    9000005    2    1    2  501    0  0.96777863022E+01 -0.96420779654E+01 -0.96094222011E+03  0.10173123992E+04  0.33365841520E+03 0.  0.
         13    1    3    3    0    0  0.76541085208E+02 -0.10441974148E+02 -0.28291661143E+02  0.82267798313E+02  0.00000000000E+00 0.  1.
          3    1    3    3  501    0 -0.66863298906E+02  0.79989618258E+00 -0.93265055897E+03  0.93504460092E+03  0.00000000000E+00 0.  1.
         21    1    1    2  502  501 -0.96777863022E+01  0.96420779654E+01 -0.65814521532E+01  0.15163928503E+02  0.00000000000E+00 0.  1.
<mgrwt>
<rscale>  1 0.30000000E+03</rscale>
<asrwt>0</asrwt>
<pdfrwt beam="1">  1        1 0.11809599E+00 0.30000000E+03</pdfrwt>
<pdfrwt beam="2">0</pdfrwt>
<totfact> 0.26651351E+01</totfact>
</mgrwt>
</event>
<event>
 6    1  0.1939311E-004  0.3000000E+03  0.7818608E-02  0.1093470E+00
          1   -1    0    0  502    0  0.00000000000E+00  0.00000000000E+00  0.47866321692E+02  0.47866321692E+02  0.00000000000E+00 0.  1.
         13   -1    0    0    0    0 -0.00000000000E+00 -0.00000000000E+00 -0.10000000000E+04  0.10000000000E+04  0.00000000000E+00 0.  1.
    9000005    2    1    2  501    0 -0.46817496049E+01  0.82570427001E+02 -0.85854636109E+03  0.92297284653E+03  0.32853801468E+03 0.  0.
         13    1    3    3    0    0 -0.11597012759E+03  0.15861811962E+03 -0.41073085628E+03  0.45531155780E+03  0.00000000000E+00 0.  1.
          3    1    3    3  501    0  0.11128837798E+03 -0.76047692618E+02 -0.44781550482E+03  0.46766128873E+03  0.00000000000E+00 0.  1.
         21    1    1    2  502  501  0.46817496049E+01 -0.82570427001E+02 -0.93587317214E+02  0.12489347516E+03  0.00000000000E+00 0.  1.
<mgrwt>
<rscale>  1 0.30000000E+03</rscale>
<asrwt>0</asrwt>
<pdfrwt beam="1">  1        1 0.17405972E+00 0.30000000E+03</pdfrwt>
<pdfrwt beam="2">0</pdfrwt>
<totfact> 0.13650789E+01</totfact>
</mgrwt>
</event>
<event>
 6    1  0.1939311E-004  0.3000000E+03  0.7818608E-02  0.1093470E+00
          1   -1    0    0  502    0  0.00000000000E+00  0.00000000000E+00  0.10605921485E+03  0.10605921485E+03  0.00000000000E+00 0.  1.
         13   -1    0    0    0    0 -0.00000000000E+00 -0.00000000000E+00 -0.10000000000E+04  0.10000000000E+04  0.00000000000E+00 0.  1.
    9000005    2    1    2  501    0 -0.53203764676E+02  0.16775549610E+02 -0.96451545243E+03  0.10160989831E+04  0.31473008403E+03 0.  0.
         13    1    3    3    0    0  0.50637080180E+01 -0.90871083589E+02 -0.74248299818E+02  0.11745639615E+03  0.00000000000E+00 0.  1.
          1    1    3    3  501    0 -0.58267472694E+02  0.10764663320E+03 -0.89026715261E+03  0.89864258692E+03  0.00000000000E+00 0.  1.
         21    1    1    2  502  501  0.53203764676E+02 -0.16775549610E+02  0.70574667276E+02  0.89960231778E+02  0.00000000000E+00 0.  1.
<mgrwt>
<rscale>  1 0.30000000E+03</rscale>
<asrwt>0</asrwt>
<pdfrwt beam="1">  1        1 0.38567069E+00 0.30000000E+03</pdfrwt>
<pdfrwt beam="2">0</pdfrwt>
<totfact> 0.12676995E+00</totfact>
</mgrwt>
</event>
<event>
 6    1  0.1939311E-004  0.3000000E+03  0.7818608E-02  0.1093470E+00
          1   -1    0    0  502    0  0.00000000000E+00  0.00000000000E+00  0.34592336206E+02  0.34592336206E+02  0.00000000000E+00 0.  1.
         13   -1    0    0    0    0 -0.00000000000E+00 -0.00000000000E+00 -0.10000000000E+04  0.10000000000E+04  0.00000000000E+00 0.  1.
    9000005    2    1    2  501    0 -0.15209410821E+02  0.22156986815E+02 -0.93628028689E+03  0.99496075375E+03  0.33556499765E+03 0.  0.
         13    1    3    3    0    0  0.17379470131E+02 -0.30949261963E+02 -0.93181713238E+03  0.93249293349E+03  0.00000000000E+00 0.  1.
          1    1    3    3  501    0 -0.32588880952E+02  0.53106248778E+02 -0.44631545069E+01  0.62467820269E+02  0.00000000000E+00 0.  1.
         21    1    1    2  502  501  0.15209410821E+02 -0.22156986815E+02 -0.29127376905E+02  0.39631582452E+02  0.00000000000E+00 0. -1.
<mgrwt>
<rscale>  1 0.30000000E+03</rscale>
<asrwt>0</asrwt>
<pdfrwt beam="1">  1        1 0.12579058E+00 0.30000000E+03</pdfrwt>
<pdfrwt beam="2">0</pdfrwt>
<totfact> 0.24129550E+01</totfact>
</mgrwt>
</event>
<event>
 6    1  0.1939311E-004  0.3000000E+03  0.7818608E-02  0.1093470E+00
          1   -1    0    0  502    0  0.00000000000E+00  0.00000000000E+00  0.39295037731E+02  0.39295037731E+02  0.00000000000E+00 0.  1.
         13   -1    0    0    0    0 -0.00000000000E+00 -0.00000000000E+00 -0.10000000000E+04  0.10000000000E+04  0.00000000000E+00 0.  1.
    9000005    2    1    2  501    0 -0.10173272331E+02  0.12350567798E+02 -0.96544651280E+03  0.10226062901E+04  0.33672039374E+03 0.  0.
         13    1    3    3    0    0  0.13533567331E+03 -0.50682443661E+02 -0.68823713628E+03  0.70324591027E+03  0.00000000000E+00 0.  1.
          1    1    3    3  501    0 -0.14550894564E+03  0.63033011459E+02 -0.27720937652E+03  0.31936037986E+03  0.00000000000E+00 0.  1.
         21    1    1    2  502  501  0.10173272331E+02 -0.12350567798E+02  0.47415505292E+01  0.16688747595E+02  0.00000000000E+00 0.  1.
<mgrwt>
<rscale>  1 0.30000000E+03</rscale>
<asrwt>0</asrwt>
<pdfrwt beam="1">  1        1 0.14289135E+00 0.30000000E+03</pdfrwt>
<pdfrwt beam="2">0</pdfrwt>
<totfact> 0.19541318E+01</totfact>
</mgrwt>
</event>
<event>
 6    1  0.1939311E-004  0.3000000E+03  0.7818608E-02  0.1093470E+00
          1   -1    0    0  502    0  0.00000000000E+00  0.00000000000E+00  0.45735109185E+02  0.45735109185E+02  0.00000000000E+00 0.  1.
         13   -1    0    0    0    0 -0.00000000000E+00 -0.00000000000E+00 -0.10000000000E+04  0.10000000000E+04  0.00000000000E+00 0.  1.
    9000005    2    1    2  501    0 -0.20260708566E+02 -0.13415040503E+02 -0.96422672300E+03  0.10194730125E+04  0.33015388865E+03 0.  0.
         13    1    3    3    0    0  0.12974665493E+03 -0.11404427052E+02 -0.18692911397E+03  0.22783052709E+03  0.00000000000E+00 0.  1.
          1    1    3    3  501    0 -0.15000736350E+03 -0.20106134513E+01 -0.77729760903E+03  0.79164248539E+03  0.00000000000E+00 0.  1.
         21    1    1    2  502  501  0.20260708566E+02  0.13415040503E+02  0.99618321843E+01  0.26262096713E+02  0.00000000000E+00 0.  1.
<mgrwt>
<rscale>  1 0.30000000E+03</rscale>
<asrwt>0</asrwt>
<pdfrwt beam="1">  1        1 0.16630984E+00 0.30000000E+03</pdfrwt>
<pdfrwt beam="2">0</pdfrwt>
<totfact> 0.14894670E+01</totfact>
</mgrwt>
</event>
<event>
 6    1  0.1939311E-004  0.3000000E+03  0.7818608E-02  0.1093470E+00
          1   -1    0    0  502    0  0.00000000000E+00  0.00000000000E+00  0.24536027411E+02  0.24536027411E+02  0.00000000000E+00 0.  1.
         13   -1    0    0    0    0 -0.00000000000E+00 -0.00000000000E+00 -0.10000000000E+04  0.10000000000E+04  0.00000000000E+00 0.  1.
    9000005    2    1    2  501    0  0.10560847648E+02  0.60095318841E+01 -0.97102765342E+03  0.10116005373E+04  0.28336071956E+03 0.  0.
         13    1    3    3    0    0 -0.78203697372E+02 -0.10774724420E+03 -0.57188761234E+03  0.58718031989E+03  0.00000000000E+00 0.  1.
          3    1    3    3  501    0  0.88764545020E+02  0.11375677609E+03 -0.39914004108E+03  0.42442021742E+03  0.00000000000E+00 0.  1.
         21    1    1    2  502  501 -0.10560847648E+02 -0.60095318841E+01 -0.44363191648E+01  0.12935490104E+02  0.00000000000E+00 0.  1.
<mgrwt>
<rscale>  1 0.30000000E+03</rscale>
<asrwt>0</asrwt>
<pdfrwt beam="1">  1        1 0.89222106E-01 0.30000000E+03</pdfrwt>
<pdfrwt beam="2">0</pdfrwt>
<totfact> 0.40324523E+01</totfact>
</mgrwt>
</event>
<event>
 6    1  0.1939311E-004  0.3000000E+03  0.7818608E-02  0.1093470E+00
          1   -1    0    0  502    0  0.00000000000E+00  0.00000000000E+00  0.51486010287E+02  0.51486010287E+02  0.00000000000E+00 0.  1.
         13   -1    0    0    0    0 -0.00000000000E+00 -0.00000000000E+00 -0.10000000000E+04  0.10000000000E+04  0.00000000000E+00 0.  1.
    9000005    2    1    2  501    0  0.60025707000E+01 -0.90714764037E+01 -0.96591887019E+03  0.10309615760E+04  0.36022796232E+03 0.  0.
         13    1    3    3    0    0 -0.10454565665E+03 -0.14465335852E+03 -0.58853917511E+03  0.61500630004E+03  0.00000000000E+00 0.  1.
          1    1    3    3  501    0  0.11054822735E+03  0.13558188211E+03 -0.37737969508E+03  0.41595527594E+03  0.00000000000E+00 0.  1.
         21    1    1    2  502  501 -0.60025707000E+01  0.90714764037E+01  0.17404880472E+02  0.20524434302E+02  0.00000000000E+00 0. -1.
<mgrwt>
<rscale>  1 0.30000000E+03</rscale>
<asrwt>0</asrwt>
<pdfrwt beam="1">  1        1 0.18722225E+00 0.30000000E+03</pdfrwt>
<pdfrwt beam="2">0</pdfrwt>
<totfact> 0.11790704E+01</totfact>
</mgrwt>
</event>
<event>
 6    1  0.1939311E-004  0.3000000E+03  0.7818608E-02  0.1093470E+00
          1   -1    0    0  502    0  0.00000000000E+00  0.00000000000E+00  0.28580025306E+02  0.28580025306E+02  0.00000000000E+00 0.  1.
         13   -1    0    0    0    0 -0.00000000000E+00 -0.00000000000E+00 -0.10000000000E+04  0.10000000000E+04  0.00000000000E+00 0.  1.
    9000005    2    1    2  501    0 -0.12921728039E+02 -0.18623026966E+01 -0.95522096138E+03  0.10077750437E+04  0.32092524743E+03 0.  0.
         13    1    3    3    0    0 -0.52531091981E+02  0.14664028934E+03 -0.61551223193E+03  0.63491589816E+03  0.00000000000E+00 0.  1.
          1    1    3    3  501    0  0.39609363942E+02 -0.14850259204E+03 -0.33970872946E+03  0.37285914555E+03  0.00000000000E+00 0.  1.
         21    1    1    2  502  501  0.12921728039E+02  0.18623026966E+01 -0.16199013313E+02  0.20804981595E+02  0.00000000000E+00 0. -1.
<mgrwt>
<rscale>  1 0.30000000E+03</rscale>
<asrwt>0</asrwt>
<pdfrwt beam="1">  1        1 0.10392758E+00 0.30000000E+03</pdfrwt>
<pdfrwt beam="2">0</pdfrwt>
<totfact> 0.32341269E+01</totfact>
</mgrwt>
</event>
<event>
 6    1  0.1939311E-004  0.3000000E+03  0.7818608E-02  0.1093470E+00
          1   -1    0    0  502    0  0.00000000000E+00  0.00000000000E+00  0.36692147676E+02  0.36692147676E+02  0.00000000000E+00 0.  1.
         13   -1    0    0    0    0 -0.00000000000E+00 -0.00000000000E+00 -0.10000000000E+04  0.10000000000E+04  0.00000000000E+00 0.  1.
    9000005    2    1    2  501    0  0.13464193703E+02 -0.55814635721E+01 -0.96746239590E+03  0.10215363739E+04  0.32762881188E+03 0.  0.
         13    1    3    3    0    0  0.10201684667E+03  0.34624269984E+02 -0.89188952891E+03  0.89837253345E+03  0.00000000000E+00 0.  1.
          1    1    3    3  501    0 -0.88552652969E+02 -0.40205733556E+02 -0.75572866998E+02  0.12316384041E+03  0.00000000000E+00 0.  1.
         21    1    1    2  502  501 -0.13464193703E+02  0.55814635721E+01  0.41545435800E+01  0.15155773818E+02  0.00000000000E+00 0. -1.
<mgrwt>
<rscale>  1 0.30000000E+03</rscale>
<asrwt>0</asrwt>
<pdfrwt beam="1">  1        1 0.13342627E+00 0.30000000E+03</pdfrwt>
<pdfrwt beam="2">0</pdfrwt>
<totfact> 0.21923925E+01</totfact>
</mgrwt>
</event>
<event>
 6    1  0.1939311E-004  0.3000000E+03  0.7818608E-02  0.1093470E+00
          1   -1    0    0  502    0  0.00000000000E+00  0.00000000000E+00  0.35555708852E+02  0.35555708852E+02  0.00000000000E+00 0.  1.
         13   -1    0    0    0    0 -0.00000000000E+00 -0.00000000000E+00 -0.10000000000E+04  0.10000000000E+04  0.00000000000E+00 0.  1.
    9000005    2    1    2  501    0  0.27884331824E+02  0.11568648032E+02 -0.94583615526E+03  0.10000925970E+04  0.32352403383E+03 0.  0.
         13    1    3    3    0    0 -0.70927459867E+02  0.13488563614E+03 -0.61284059728E+03  0.63150489869E+03  0.00000000000E+00 0.  1.
          1    1    3    3  501    0  0.98811791691E+02 -0.12331698811E+03 -0.33299555798E+03  0.36858769834E+03  0.00000000000E+00 0.  1.
         21    1    1    2  502  501 -0.27884331824E+02 -0.11568648032E+02 -0.18608135891E+02  0.35463111819E+02  0.00000000000E+00 0.  1.
<mgrwt>
<rscale>  1 0.30000000E+03</rscale>
<asrwt>0</asrwt>
<pdfrwt beam="1">  1        1 0.12929376E+00 0.30000000E+03</pdfrwt>
<pdfrwt beam="2">0</pdfrwt>
<totfact> 0.23083534E+01</totfact>
</mgrwt>
</event>
<event>
 6    1  0.1939311E-004  0.3000000E+03  0.7818608E-02  0.1093470E+00
          1   -1    0    0  502    0  0.00000000000E+00  0.00000000000E+00  0.27561096188E+02  0.27561096188E+02  0.00000000000E+00 0.  1.
         13   -1    0    0    0    0 -0.00000000000E+00 -0.00000000000E+00 -0.10000000000E+04  0.10000000000E+04  0.00000000000E+00 0.  1.
    9000005    2    1    2  501    0 -0.14894517470E+01 -0.13660328906E+02 -0.95018208905E+03  0.10014040922E+04  0.31587233267E+03 0.  0.
         13    1    3    3    0    0 -0.12775954231E+03  0.84538750263E+02 -0.53398279313E+03  0.55552400876E+03  0.00000000000E+00 0.  1.
          1    1    3    3  501    0  0.12627009056E+03 -0.98199079170E+02 -0.41619929592E+03  0.44588008348E+03  0.00000000000E+00 0.  1.
         21    1    1    2  502  501  0.14894517470E+01  0.13660328906E+02 -0.22256814767E+02  0.26157003955E+02  0.00000000000E+00 0.  1.
<mgrwt>
<rscale>  1 0.30000000E+03</rscale>
<asrwt>0</asrwt>
<pdfrwt beam="1">  1        1 0.10022238E+00 0.30000000E+03</pdfrwt>
<pdfrwt beam="2">0</pdfrwt>
<totfact> 0.34115928E+01</totfact>
</mgrwt>
</event>
<event>
 6    1  0.1939311E-004  0.3000000E+03  0.7818608E-02  0.1093470E+00
          1   -1    0    0  502    0  0.00000000000E+00  0.00000000000E+00  0.35448070743E+02  0.35448070743E+02  0.00000000000E+00 0.  1.
         13   -1    0    0    0    0 -0.00000000000E+00 -0.00000000000E+00 -0.10000000000E+04  0.10000000000E+04  0.00000000000E+00 0.  1.
    9000005    2    1    2  501    0 -0.10547817457E+02 -0.10334114332E+02 -0.96711165868E+03  0.10204613237E+04  0.32529725246E+03 0.  0.
         13    1    3    3    0    0  0.83964920841E+02 -0.16029459842E+02 -0.51144347521E+02  0.99613231039E+02  0.00000000000E+00 0.  1.
          3    1    3    3  501    0 -0.94512738298E+02  0.56953455102E+01 -0.91596731115E+03  0.92084809266E+03  0.00000000000E+00 0.  1.
         21    1    1    2  502  501  0.10547817457E+02  0.10334114332E+02  0.25597294178E+01  0.14986747039E+02  0.00000000000E+00 0. -1.
<mgrwt>
<rscale>  1 0.30000000E+03</rscale>
<asrwt>0</asrwt>
<pdfrwt beam="1">  1        1 0.12890235E+00 0.30000000E+03</pdfrwt>
<pdfrwt beam="2">0</pdfrwt>
<totfact> 0.23197472E+01</totfact>
</mgrwt>
</event>
<event>
 6    1  0.1939311E-004  0.3000000E+03  0.7818608E-02  0.1093470E+00
          1   -1    0    0  502    0  0.00000000000E+00  0.00000000000E+00  0.33570057033E+02  0.33570057033E+02  0.00000000000E+00 0.  1.
         13   -1    0    0    0    0 -0.00000000000E+00 -0.00000000000E+00 -0.10000000000E+04  0.10000000000E+04  0.00000000000E+00 0.  1.
    9000005    2    1    2  501    0  0.25883855148E+02  0.23025795506E+02 -0.90806159909E+03  0.96569498957E+03  0.32678859210E+03 0.  0.
         13    1    3    3    0    0 -0.10030522462E+03 -0.97146969006E+02 -0.55047150937E+03  0.56790629007E+03  0.00000000000E+00 0.  1.
          1    1    3    3  501    0  0.12618907977E+03  0.12017276451E+03 -0.35759008972E+03  0.39778869950E+03  0.00000000000E+00 0.  1.
         21    1    1    2  502  501 -0.25883855148E+02 -0.23025795506E+02 -0.58368343876E+02  0.67875067461E+02  0.00000000000E+00 0.  1.
<mgrwt>
<rscale>  1 0.30000000E+03</rscale>
<asrwt>0</asrwt>
<pdfrwt beam="1">  1        1 0.12207319E+00 0.30000000E+03</pdfrwt>
<pdfrwt beam="2">0</pdfrwt>
<totfact> 0.25306777E+01</totfact>
</mgrwt>
</event>
<event>
 6    1  0.1939311E-004  0.3000000E+03  0.7818608E-02  0.1093470E+00
          1   -1    0    0  502    0  0.00000000000E+00  0.00000000000E+00  0.51004033061E+02  0.51004033061E+02  0.00000000000E+00 0.  1.
         13   -1    0    0    0    0 -0.00000000000E+00 -0.00000000000E+00 -0.10000000000E+04  0.10000000000E+04  0.00000000000E+00 0.  1.
    9000005    2    1    2  501    0 -0.19116898299E+02  0.15587152266E+02 -0.96818726082E+03  0.10197514991E+04  0.31921486941E+03 0.  0.
         13    1    3    3    0    0  0.19920644909E+02 -0.13008646675E+02  0.19571890243E+02  0.30807724187E+02  0.00000000000E+00 0.  1.
          1    1    3    3  501    0 -0.39037543208E+02  0.28595798940E+02 -0.98775915106E+03  0.98894377494E+03  0.00000000000E+00 0.  1.
         21    1    1    2  502  501  0.19116898299E+02 -0.15587152266E+02  0.19191293879E+02  0.31252533931E+02  0.00000000000E+00 0.  1.
<mgrwt>
<rscale>  1 0.30000000E+03</rscale>
<asrwt>0</asrwt>
<pdfrwt beam="1">  1        1 0.18546960E+00 0.30000000E+03</pdfrwt>
<pdfrwt beam="2">0</pdfrwt>
<totfact> 0.12021701E+01</totfact>
</mgrwt>
</event>
<event>
 6    1  0.1939311E-004  0.3000000E+03  0.7818608E-02  0.1093470E+00
          3   -1    0    0  502    0  0.00000000000E+00  0.00000000000E+00  0.29744941109E+02  0.29744941109E+02  0.00000000000E+00 0.  1.
         13   -1    0    0    0    0 -0.00000000000E+00 -0.00000000000E+00 -0.10000000000E+04  0.10000000000E+04  0.00000000000E+00 0.  1.
    9000005    2    1    2  501    0  0.67681608051E+01 -0.78401851663E+01 -0.96502368943E+03  0.10181413326E+04  0.32439755775E+03 0.  0.
         13    1    3    3    0    0 -0.46835602349E+01  0.18209862404E+02  0.23000258935E+02  0.29707688168E+02  0.00000000000E+00 0.  1.
          3    1    3    3  501    0  0.11451721040E+02 -0.26050047570E+02 -0.98802394836E+03  0.98843364442E+03  0.00000000000E+00 0.  1.
         21    1    1    2  502  501 -0.67681608051E+01  0.78401851663E+01 -0.52313694644E+01  0.11603608516E+02  0.00000000000E+00 0. -1.
<mgrwt>
<rscale>  1 0.30000000E+03</rscale>
<asrwt>0</asrwt>
<pdfrwt beam="1">  1        3 0.10816365E+00 0.30000000E+03</pdfrwt>
<pdfrwt beam="2">0</pdfrwt>
<totfact> 0.31623560E+00</totfact>
</mgrwt>
</event>
<event>
 6    1  0.1939311E-004  0.3000000E+03  0.7818608E-02  0.1093470E+00
          1   -1    0    0  502    0  0.00000000000E+00  0.00000000000E+00  0.49240486956E+02  0.49240486956E+02  0.00000000000E+00 0.  1.
         13   -1    0    0    0    0 -0.00000000000E+00 -0.00000000000E+00 -0.10000000000E+04  0.10000000000E+04  0.00000000000E+00 0.  1.
    9000005    2    1    2  501    0 -0.17111864776E+02  0.27039378604E+02 -0.95810253050E+03  0.10164096506E+04  0.33779309486E+03 0.  0.
         13    1    3    3    0    0  0.10719725186E+03 -0.95295084756E+02 -0.26093505442E+03  0.29775746273E+03  0.00000000000E+00 0.  1.
          1    1    3    3  501    0 -0.12430911664E+03  0.12233446336E+03 -0.69716747608E+03  0.71865218786E+03  0.00000000000E+00 0.  1.
         21    1    1    2  502  501  0.17111864776E+02 -0.27039378604E+02  0.73430174589E+01  0.32830836370E+02  0.00000000000E+00 0.  1.
<mgrwt>
<rscale>  1 0.30000000E+03</rscale>
<asrwt>0</asrwt>
<pdfrwt beam="1">  1        1 0.17905669E+00 0.30000000E+03</pdfrwt>
<pdfrwt beam="2">0</pdfrwt>
<totfact> 0.12909430E+01</totfact>
</mgrwt>
</event>
<event>
 6    1  0.1939311E-004  0.3000000E+03  0.7818608E-02  0.1093470E+00
          1   -1    0    0  502    0  0.00000000000E+00  0.00000000000E+00  0.46867128278E+02  0.46867128278E+02  0.00000000000E+00 0.  1.
         13   -1    0    0    0    0 -0.00000000000E+00 -0.00000000000E+00 -0.10000000000E+04  0.10000000000E+04  0.00000000000E+00 0.  1.
    9000005    2    1    2  501    0  0.17719244915E+02 -0.31770811575E+02 -0.96026585443E+03  0.10097964451E+04  0.31024988841E+03 0.  0.
         13    1    3    3    0    0  0.37808877487E+02 -0.40937285234E+02 -0.97915386262E+03  0.98073832353E+03  0.00000000000E+00 0.  1.
          1    1    3    3  501    0 -0.20089632572E+02  0.91664736595E+01  0.18888008196E+02  0.29058121581E+02  0.00000000000E+00 0.  1.
         21    1    1    2  502  501 -0.17719244915E+02  0.31770811575E+02  0.71329827076E+01  0.37070683171E+02  0.00000000000E+00 0. -1.
<mgrwt>
<rscale>  1 0.30000000E+03</rscale>
<asrwt>0</asrwt>
<pdfrwt beam="1">  1        1 0.17042628E+00 0.30000000E+03</pdfrwt>
<pdfrwt beam="2">0</pdfrwt>
<totfact> 0.14218838E+01</totfact>
</mgrwt>
</event>
<event>
 6    1  0.1939311E-004  0.3000000E+03  0.7818608E-02  0.1093470E+00
          1   -1    0    0  502    0  0.00000000000E+00  0.00000000000E+00  0.42780744209E+02  0.42780744209E+02  0.00000000000E+00 0.  1.
         13   -1    0    0    0    0 -0.00000000000E+00 -0.00000000000E+00 -0.10000000000E+04  0.10000000000E+04  0.00000000000E+00 0.  1.
    9000005    2    1    2  501    0 -0.12832512481E+02 -0.26656909715E+02 -0.95901604230E+03  0.10131413675E+04  0.32537424124E+03 0.  0.
         13    1    3    3    0    0 -0.10560567753E+03 -0.12261322635E+03 -0.73306505195E+03  0.75071361570E+03  0.00000000000E+00 0.  1.
          3    1    3    3  501    0  0.92773165054E+02  0.95956316635E+02 -0.22595099035E+03  0.26242775177E+03  0.00000000000E+00 0.  1.
         21    1    1    2  502  501  0.12832512481E+02  0.26656909715E+02  0.17967865088E+01  0.29639376746E+02  0.00000000000E+00 0.  1.
<mgrwt>
<rscale>  1 0.30000000E+03</rscale>
<asrwt>0</asrwt>
<pdfrwt beam="1">  1        1 0.15556667E+00 0.30000000E+03</pdfrwt>
<pdfrwt beam="2">0</pdfrwt>
<totfact> 0.16839346E+01</totfact>
</mgrwt>
</event>
<event>
 6    1  0.1939311E-004  0.3000000E+03  0.7818608E-02  0.1093470E+00
          1   -1    0    0  502    0  0.00000000000E+00  0.00000000000E+00  0.56419764451E+02  0.56419764451E+02  0.00000000000E+00 0.  1.
         13   -1    0    0    0    0 -0.00000000000E+00 -0.00000000000E+00 -0.10000000000E+04  0.10000000000E+04  0.00000000000E+00 0.  1.
    9000005    2    1    2  501    0  0.30762108541E+02  0.24203576716E+02 -0.95883972655E+03  0.10144081885E+04  0.32881336843E+03 0.  0.
         13    1    3    3    0    0 -0.10537548246E+03 -0.36478410761E+02 -0.74764153213E+03  0.75591171927E+03  0.00000000000E+00 0.  1.
          3    1    3    3  501    0  0.13613759100E+03  0.60681987477E+02 -0.21119819441E+03  0.25849646924E+03  0.00000000000E+00 0.  1.
         21    1    1    2  502  501 -0.30762108541E+02 -0.24203576716E+02  0.15259490998E+02  0.42011575943E+02  0.00000000000E+00 0.  1.
<mgrwt>
<rscale>  1 0.30000000E+03</rscale>
<asrwt>0</asrwt>
<pdfrwt beam="1">  1        1 0.20516321E+00 0.30000000E+03</pdfrwt>
<pdfrwt beam="2">0</pdfrwt>
<totfact> 0.96815203E+00</totfact>
</mgrwt>
</event>
<event>
 6    1  0.1939311E-004  0.3000000E+03  0.7818608E-02  0.1093470E+00
          1   -1    0    0  502    0  0.00000000000E+00  0.00000000000E+00  0.36400334859E+02  0.36400334859E+02  0.00000000000E+00 0.  1.
         13   -1    0    0    0    0 -0.00000000000E+00 -0.00000000000E+00 -0.10000000000E+04  0.10000000000E+04  0.00000000000E+00 0.  1.
    9000005    2    1    2  501    0 -0.18606034690E+02 -0.12097805067E+02 -0.95746681298E+03  0.10133752770E+04  0.33120116642E+03 0.  0.
         13    1    3    3    0    0 -0.15606896365E+03  0.56958562642E+02 -0.36107885282E+03  0.39746664920E+03  0.00000000000E+00 0.  1.
          1    1    3    3  501    0  0.13746292896E+03 -0.69056367710E+02 -0.59638796017E+03  0.61590862779E+03  0.00000000000E+00 0.  1.
         21    1    1    2  502  501  0.18606034690E+02  0.12097805067E+02 -0.61328521599E+01  0.23025057870E+02  0.00000000000E+00 0. -1.
<mgrwt>
<rscale>  1 0.30000000E+03</rscale>
<asrwt>0</asrwt>
<pdfrwt beam="1">  1        1 0.13236513E+00 0.30000000E+03</pdfrwt>
<pdfrwt beam="2">0</pdfrwt>
<totfact> 0.22214263E+01</totfact>
</mgrwt>
</event>
<event>
 6    1  0.1939311E-004  0.3000000E+03  0.7818608E-02  0.1093470E+00
          1   -1    0    0  502    0  0.00000000000E+00  0.00000000000E+00  0.28660572911E+02  0.28660572911E+02  0.00000000000E+00 0.  1.
         13   -1    0    0    0    0 -0.00000000000E+00 -0.00000000000E+00 -0.10000000000E+04  0.10000000000E+04  0.00000000000E+00 0.  1.
    9000005    2    1    2  501    0 -0.10242809821E+02  0.25443398322E+01 -0.96240945703E+03  0.10148354804E+04  0.32178828513E+03 0.  0.
         13    1    3    3    0    0 -0.62619767695E+01  0.11777004529E+03 -0.13427680807E+03  0.17871557600E+03  0.00000000000E+00 0.  1.
          1    1    3    3  501    0 -0.39808330515E+01 -0.11522570546E+03 -0.82813264895E+03  0.83611990438E+03  0.00000000000E+00 0.  1.
         21    1    1    2  502  501  0.10242809821E+02 -0.25443398322E+01 -0.89299700631E+01  0.13825092533E+02  0.00000000000E+00 0.  1.
<mgrwt>
<rscale>  1 0.30000000E+03</rscale>
<asrwt>0</asrwt>
<pdfrwt beam="1">  1        1 0.10422048E+00 0.30000000E+03</pdfrwt>
<pdfrwt beam="2">0</pdfrwt>
<totfact> 0.32206765E+01</totfact>
</mgrwt>
</event>
<event>
 6    1  0.1939311E-004  0.3000000E+03  0.7818608E-02  0.1093470E+00
          1   -1    0    0  502    0  0.00000000000E+00  0.00000000000E+00  0.43592055376E+02  0.43592055376E+02  0.00000000000E+00 0.  1.
         13   -1    0    0    0    0 -0.00000000000E+00 -0.00000000000E+00 -0.10000000000E+04  0.10000000000E+04  0.00000000000E+00 0.  1.
    9000005    2    1    2  501    0 -0.11477476303E+02 -0.10298242233E+02 -0.97103483114E+03  0.10223380660E+04  0.31941930380E+03 0.  0.
         13    1    3    3    0    0 -0.35860316892E+02  0.15174027349E+03 -0.47717603693E+03  0.50200402702E+03  0.00000000000E+00 0.  1.
          3    1    3    3  501    0  0.24382840589E+02 -0.16203851572E+03 -0.49385879421E+03  0.52033403897E+03  0.00000000000E+00 0.  1.
         21    1    1    2  502  501  0.11477476303E+02  0.10298242233E+02  0.14626886518E+02  0.21253989380E+02  0.00000000000E+00 0.  1.
<mgrwt>
<rscale>  1 0.30000000E+03</rscale>
<asrwt>0</asrwt>
<pdfrwt beam="1">  1        1 0.15851690E+00 0.30000000E+03</pdfrwt>
<pdfrwt beam="2">0</pdfrwt>
<totfact> 0.16277246E+01</totfact>
</mgrwt>
</event>
<event>
 6    1  0.1939311E-004  0.3000000E+03  0.7818608E-02  0.1093470E+00
          1   -1    0    0  502    0  0.00000000000E+00  0.00000000000E+00  0.35536175750E+02  0.35536175750E+02  0.00000000000E+00 0.  1.
         13   -1    0    0    0    0 -0.00000000000E+00 -0.00000000000E+00 -0.10000000000E+04  0.10000000000E+04  0.00000000000E+00 0.  1.
    9000005    2    1    2  501    0  0.46357142233E+02 -0.11933981219E+02 -0.89029755947E+03  0.94726364676E+03  0.31998010489E+03 0.  0.
         13    1    3    3    0    0 -0.16576236340E+02 -0.13223406398E+03 -0.70537088585E+03  0.71785005808E+03  0.00000000000E+00 0.  1.
          1    1    3    3  501    0  0.62933378573E+02  0.12030008276E+03 -0.18492667363E+03  0.22941358868E+03  0.00000000000E+00 0.  1.
         21    1    1    2  502  501 -0.46357142233E+02  0.11933981219E+02 -0.74166264777E+02  0.88272528992E+02  0.00000000000E+00 0.  1.
<mgrwt>
<rscale>  1 0.30000000E+03</rscale>
<asrwt>0</asrwt>
<pdfrwt beam="1">  1        1 0.12922273E+00 0.30000000E+03</pdfrwt>
<pdfrwt beam="2">0</pdfrwt>
<totfact> 0.23104156E+01</totfact>
</mgrwt>
</event>
<event>
 6    1  0.1939311E-004  0.3000000E+03  0.7818608E-02  0.1093470E+00
          1   -1    0    0  502    0  0.00000000000E+00  0.00000000000E+00  0.30081967670E+02  0.30081967670E+02  0.00000000000E+00 0.  1.
         13   -1    0    0    0    0 -0.00000000000E+00 -0.00000000000E+00 -0.10000000000E+04  0.10000000000E+04  0.00000000000E+00 0.  1.
    9000005    2    1    2  501    0  0.10385789322E+02  0.11262198534E+02 -0.96310960074E+03  0.10133172286E+04  0.31463788866E+03 0.  0.
         13    1    3    3    0    0  0.54401275383E+02  0.14944654337E+03 -0.63450098079E+03  0.65412939294E+03  0.00000000000E+00 0.  1.
          3    1    3    3  501    0 -0.44015486061E+02 -0.13818434484E+03 -0.32860861995E+03  0.35918783565E+03  0.00000000000E+00 0.  1.
         21    1    1    2  502  501 -0.10385789322E+02 -0.11262198534E+02 -0.68084315861E+01  0.16764739077E+02  0.00000000000E+00 0.  1.
<mgrwt>
<rscale>  1 0.30000000E+03</rscale>
<asrwt>0</asrwt>
<pdfrwt beam="1">  1        1 0.10938920E+00 0.30000000E+03</pdfrwt>
<pdfrwt beam="2">0</pdfrwt>
<totfact> 0.29960180E+01</totfact>
</mgrwt>
</event>
<event>
 6    1  0.1939311E-004  0.3000000E+03  0.7818608E-02  0.1093470E+00
          1   -1    0    0  502    0  0.00000000000E+00  0.00000000000E+00  0.30115428049E+02  0.30115428049E+02  0.00000000000E+00 0.  1.
         13   -1    0    0    0    0 -0.00000000000E+00 -0.00000000000E+00 -0.10000000000E+04  0.10000000000E+04  0.00000000000E+00 0.  1.
    9000005    2    1    2  501    0  0.85475286597E+01 -0.13752287484E+02 -0.94498374967E+03  0.10004129600E+04  0.32797807512E+03 0.  0.
         13    1    3    3    0    0  0.91243436861E+02 -0.64370590729E+02 -0.87183513550E+03  0.87895701898E+03  0.00000000000E+00 0.  1.
          1    1    3    3  501    0 -0.82695908201E+02  0.50618303246E+02 -0.73148614166E+02  0.12145594103E+03  0.00000000000E+00 0.  1.
         21    1    1    2  502  501 -0.85475286597E+01  0.13752287484E+02 -0.24900822285E+02  0.29702468040E+02  0.00000000000E+00 0.  1.
<mgrwt>
<rscale>  1 0.30000000E+03</rscale>
<asrwt>0</asrwt>
<pdfrwt beam="1">  1        1 0.10951088E+00 0.30000000E+03</pdfrwt>
<pdfrwt beam="2">0</pdfrwt>
<totfact> 0.29910032E+01</totfact>
</mgrwt>
</event>
<event>
 6    1  0.1939311E-004  0.3000000E+03  0.7818608E-02  0.1093470E+00
          1   -1    0    0  502    0  0.00000000000E+00  0.00000000000E+00  0.29060991363E+02  0.29060991363E+02  0.00000000000E+00 0.  1.
         13   -1    0    0    0    0 -0.00000000000E+00 -0.00000000000E+00 -0.10000000000E+04  0.10000000000E+04  0.00000000000E+00 0.  1.
    9000005    2    1    2  501    0 -0.73631954783E+01 -0.11566459545E+02 -0.94957538318E+03  0.10036758751E+04  0.32478278021E+03 0.  0.
         13    1    3    3    0    0 -0.14286749142E+03  0.54716477060E+02 -0.65612106651E+03  0.67372091172E+03  0.00000000000E+00 0.  1.
          1    1    3    3  501    0  0.13550429594E+03 -0.66282936605E+02 -0.29345431667E+03  0.32995496340E+03  0.00000000000E+00 0.  1.
         21    1    1    2  502  501  0.73631954783E+01  0.11566459545E+02 -0.21363625460E+02  0.25385116246E+02  0.00000000000E+00 0.  1.
<mgrwt>
<rscale>  1 0.30000000E+03</rscale>
<asrwt>0</asrwt>
<pdfrwt beam="1">  1        1 0.10567656E+00 0.30000000E+03</pdfrwt>
<pdfrwt beam="2">0</pdfrwt>
<totfact> 0.31549998E+01</totfact>
</mgrwt>
</event>
<event>
 6    1  0.1939311E-004  0.3000000E+03  0.7818608E-02  0.1093470E+00
          1   -1    0    0  502    0  0.00000000000E+00  0.00000000000E+00  0.38531949812E+02  0.38531949812E+02  0.00000000000E+00 0.  1.
         13   -1    0    0    0    0 -0.00000000000E+00 -0.00000000000E+00 -0.10000000000E+04  0.10000000000E+04  0.00000000000E+00 0.  1.
    9000005    2    1    2  501    0  0.35590930291E+02  0.10065522428E+02 -0.93201256321E+03  0.99124923866E+03  0.33549904039E+03 0.  0.
         13    1    3    3    0    0  0.10016519845E+03 -0.51248251920E+02 -0.88765244392E+02  0.14331335917E+03  0.00000000000E+00 0.  1.
          3    1    3    3  501    0 -0.64574268157E+02  0.61313774347E+02 -0.84324731882E+03  0.84793587949E+03  0.00000000000E+00 0.  1.
         21    1    1    2  502  501 -0.35590930291E+02 -0.10065522428E+02 -0.29455486979E+02  0.47282711152E+02  0.00000000000E+00 0.  1.
<mgrwt>
<rscale>  1 0.30000000E+03</rscale>
<asrwt>0</asrwt>
<pdfrwt beam="1">  1        1 0.14011648E+00 0.30000000E+03</pdfrwt>
<pdfrwt beam="2">0</pdfrwt>
<totfact> 0.20203804E+01</totfact>
</mgrwt>
</event>
<event>
 6    1  0.1939311E-004  0.3000000E+03  0.7818608E-02  0.1093470E+00
          1   -1    0    0  502    0  0.00000000000E+00  0.00000000000E+00  0.35691703037E+02  0.35691703037E+02  0.00000000000E+00 0.  1.
         13   -1    0    0    0    0 -0.00000000000E+00 -0.00000000000E+00 -0.10000000000E+04  0.10000000000E+04  0.00000000000E+00 0.  1.
    9000005    2    1    2  501    0 -0.22502301856E+02  0.25446260391E+02 -0.94389717219E+03  0.99606242382E+03  0.31629830022E+03 0.  0.
         13    1    3    3    0    0  0.10840347030E+03  0.11044373778E+03 -0.57597987816E+03  0.59640753821E+03  0.00000000000E+00 0.  1.
          1    1    3    3  501    0 -0.13090577216E+03 -0.84997477389E+02 -0.36791729403E+03  0.39965488561E+03  0.00000000000E+00 0.  1.
         21    1    1    2  502  501  0.22502301856E+02 -0.25446260391E+02 -0.20411124774E+02  0.39629279217E+02  0.00000000000E+00 0. -1.
<mgrwt>
<rscale>  1 0.30000000E+03</rscale>
<asrwt>0</asrwt>
<pdfrwt beam="1">  1        1 0.12978828E+00 0.30000000E+03</pdfrwt>
<pdfrwt beam="2">0</pdfrwt>
<totfact> 0.22940615E+01</totfact>
</mgrwt>
</event>
<event>
 6    1  0.1939311E-004  0.3000000E+03  0.7818608E-02  0.1093470E+00
          1   -1    0    0  502    0  0.00000000000E+00  0.00000000000E+00  0.39004334275E+02  0.39004334275E+02  0.00000000000E+00 0.  1.
         13   -1    0    0    0    0 -0.00000000000E+00 -0.00000000000E+00 -0.10000000000E+04  0.10000000000E+04  0.00000000000E+00 0.  1.
    9000005    2    1    2  501    0  0.28538090964E+01  0.11690283257E+02 -0.96916665517E+03  0.10244588189E+04  0.33179369973E+03 0.  0.
         13    1    3    3    0    0  0.59731857984E+02 -0.14764297607E+03 -0.54507574431E+03  0.56786786339E+03  0.00000000000E+00 0.  1.
          3    1    3    3  501    0 -0.56878048888E+02  0.15933325933E+03 -0.42409091086E+03  0.45659095551E+03  0.00000000000E+00 0.  1.
         21    1    1    2  502  501 -0.28538090964E+01 -0.11690283257E+02  0.81709894458E+01  0.14545515375E+02  0.00000000000E+00 0.  1.
<mgrwt>
<rscale>  1 0.30000000E+03</rscale>
<asrwt>0</asrwt>
<pdfrwt beam="1">  1        1 0.14183424E+00 0.30000000E+03</pdfrwt>
<pdfrwt beam="2">0</pdfrwt>
<totfact> 0.19790398E+01</totfact>
</mgrwt>
</event>
<event>
 6    1  0.1939311E-004  0.3000000E+03  0.7818608E-02  0.1093470E+00
          3   -1    0    0  502    0  0.00000000000E+00  0.00000000000E+00  0.28187988688E+02  0.28187988688E+02  0.00000000000E+00 0.  1.
         13   -1    0    0    0    0 -0.00000000000E+00 -0.00000000000E+00 -0.10000000000E+04  0.10000000000E+04  0.00000000000E+00 0.  1.
    9000005    2    1    2  501    0 -0.10261959704E+02 -0.58785967626E+01 -0.92701882896E+03  0.98185986653E+03  0.32333422731E+03 0.  0.
         13    1    3    3    0    0  0.33276978983E+02 -0.25526386861E+02 -0.93280183579E+03  0.93374419335E+03  0.00000000000E+00 0.  1.
          3    1    3    3  501    0 -0.43538938687E+02  0.19647790099E+02  0.57830068361E+01  0.48115673183E+02  0.00000000000E+00 0.  1.
         21    1    1    2  502  501  0.10261959704E+02  0.58785967626E+01 -0.44793182355E+02  0.46328122154E+02  0.00000000000E+00 0.  1.
<mgrwt>
<rscale>  1 0.30000000E+03</rscale>
<asrwt>0</asrwt>
<pdfrwt beam="1">  1        3 0.10250199E+00 0.30000000E+03</pdfrwt>
<pdfrwt beam="2">0</pdfrwt>
<totfact> 0.36682783E+00</totfact>
</mgrwt>
</event>
<event>
 6    1  0.1939311E-004  0.3000000E+03  0.7818608E-02  0.1093470E+00
          1   -1    0    0  502    0  0.00000000000E+00  0.00000000000E+00  0.28007970548E+02  0.28007970548E+02  0.00000000000E+00 0.  1.
         13   -1    0    0    0    0 -0.00000000000E+00 -0.00000000000E+00 -0.10000000000E+04  0.10000000000E+04  0.00000000000E+00 0.  1.
    9000005    2    1    2  501    0  0.17225826008E+01  0.88579669120E+01 -0.94840647349E+03  0.10027550634E+04  0.32551719982E+03 0.  0.
         13    1    3    3    0    0 -0.58624535624E+02 -0.12479448016E+03 -0.70683630991E+03  0.72015836276E+03  0.00000000000E+00 0.  1.
          3    1    3    3  501    0  0.60347118225E+02  0.13365244707E+03 -0.24157016358E+03  0.28259670065E+03  0.00000000000E+00 0.  1.
         21    1    1    2  502  501 -0.17225826008E+01 -0.88579669120E+01 -0.23585555966E+02  0.25252907136E+02  0.00000000000E+00 0.  1.
<mgrwt>
<rscale>  1 0.30000000E+03</rscale>
<asrwt>0</asrwt>
<pdfrwt beam="1">  1        1 0.10184738E+00 0.30000000E+03</pdfrwt>
<pdfrwt beam="2">0</pdfrwt>
<totfact> 0.33320498E+01</totfact>
</mgrwt>
</event>
<event>
 6    1  0.1939311E-004  0.3000000E+03  0.7818608E-02  0.1093470E+00
          1   -1    0    0  502    0  0.00000000000E+00  0.00000000000E+00  0.34136163700E+02  0.34136163700E+02  0.00000000000E+00 0.  1.
         13   -1    0    0    0    0 -0.00000000000E+00 -0.00000000000E+00 -0.10000000000E+04  0.10000000000E+04  0.00000000000E+00 0.  1.
    9000005    2    1    2  501    0 -0.96778766579E+01 -0.12362729900E+02 -0.94834308681E+03  0.10106101132E+04  0.34890069118E+03 0.  0.
         13    1    3    3    0    0  0.70534401333E+01  0.13733620759E+03 -0.17414861761E+03  0.22189800798E+03  0.00000000000E+00 0.  1.
          1    1    3    3  501    0 -0.16731316791E+02 -0.14969893749E+03 -0.77419446920E+03  0.78871210526E+03  0.00000000000E+00 0.  1.
         21    1    1    2  502  501  0.96778766579E+01  0.12362729900E+02 -0.17520749488E+02  0.23526050451E+02  0.00000000000E+00 0.  1.
<mgrwt>
<rscale>  1 0.30000000E+03</rscale>
<asrwt>0</asrwt>
<pdfrwt beam="1">  1        1 0.12413177E+00 0.30000000E+03</pdfrwt>
<pdfrwt beam="2">0</pdfrwt>
<totfact> 0.24645970E+01</totfact>
</mgrwt>
</event>
<event>
 6    1  0.1939311E-004  0.3000000E+03  0.7818608E-02  0.1093470E+00
          1   -1    0    0  502    0  0.00000000000E+00  0.00000000000E+00  0.38968802174E+02  0.38968802174E+02  0.00000000000E+00 0.  1.
         13   -1    0    0    0    0 -0.00000000000E+00 -0.00000000000E+00 -0.10000000000E+04  0.10000000000E+04  0.00000000000E+00 0.  1.
    9000005    2    1    2  501    0 -0.83368520792E+01 -0.96253872993E+01 -0.96034307173E+03  0.10262163632E+04  0.36152324602E+03 0.  0.
         13    1    3    3    0    0  0.73057614571E+02  0.14386843372E+03 -0.27175373353E+03  0.31604688411E+03  0.00000000000E+00 0.  1.
          3    1    3    3  501    0 -0.81394466650E+02 -0.15349382102E+03 -0.68858933820E+03  0.71016947905E+03  0.00000000000E+00 0.  1.
         21    1    1    2  502  501  0.83368520792E+01  0.96253872993E+01 -0.68812609324E+00  0.12752439013E+02  0.00000000000E+00 0.  1.
<mgrwt>
<rscale>  1 0.30000000E+03</rscale>
<asrwt>0</asrwt>
<pdfrwt beam="1">  1        1 0.14170503E+00 0.30000000E+03</pdfrwt>
<pdfrwt beam="2">0</pdfrwt>
<totfact> 0.19821118E+01</totfact>
</mgrwt>
</event>
<event>
 6    1  0.1939311E-004  0.3000000E+03  0.7818608E-02  0.1093470E+00
          1   -1    0    0  502    0  0.00000000000E+00  0.00000000000E+00  0.35025309727E+02  0.35025309727E+02  0.00000000000E+00 0.  1.
         13   -1    0    0    0    0 -0.00000000000E+00 -0.00000000000E+00 -0.10000000000E+04  0.10000000000E+04  0.00000000000E+00 0.  1.
    9000005    2    1    2  501    0 -0.15747192081E+00  0.24257356200E+02 -0.95348696350E+03  0.10081848180E+04  0.32666618075E+03 0.  0.
         13    1    3    3    0    0  0.14508062915E+03  0.22232138733E+02 -0.25036135265E+03  0.29021279063E+03  0.00000000000E+00 0.  1.
          1    1    3    3  501    0 -0.14523810107E+03  0.20252174667E+01 -0.70312561086E+03  0.71797202742E+03  0.00000000000E+00 0.  1.
         21    1    1    2  502  501  0.15747192081E+00 -0.24257356200E+02 -0.11487726768E+02  0.26840491678E+02  0.00000000000E+00 0. -1.
<mgrwt>
<rscale>  1 0.30000000E+03</rscale>
<asrwt>0</asrwt>
<pdfrwt beam="1">  1        1 0.12736503E+00 0.30000000E+03</pdfrwt>
<pdfrwt beam="2">0</pdfrwt>
<totfact> 0.23652064E+01</totfact>
</mgrwt>
</event>
<event>
 6    1  0.1939311E-004  0.3000000E+03  0.7818608E-02  0.1093470E+00
          1   -1    0    0  502    0  0.00000000000E+00  0.00000000000E+00  0.50191396777E+02  0.50191396777E+02  0.00000000000E+00 0.  1.
         13   -1    0    0    0    0 -0.00000000000E+00 -0.00000000000E+00 -0.10000000000E+04  0.10000000000E+04  0.00000000000E+00 0.  1.
    9000005    2    1    2  501    0  0.51043494206E+02 -0.83240547472E+02 -0.84372275655E+03  0.90600875597E+03  0.31535590836E+03 0.  0.
         13    1    3    3    0    0 -0.11939844816E+03 -0.59643573107E+02 -0.54659998747E+03  0.56265877007E+03  0.00000000000E+00 0.  1.
          3    1    3    3  501    0  0.17044194236E+03 -0.23596974365E+02 -0.29712276908E+03  0.34334998590E+03  0.00000000000E+00 0.  1.
         21    1    1    2  502  501 -0.51043494206E+02  0.83240547472E+02 -0.10608584668E+03  0.14418264080E+03  0.00000000000E+00 0.  1.
<mgrwt>
<rscale>  1 0.30000000E+03</rscale>
<asrwt>0</asrwt>
<pdfrwt beam="1">  1        1 0.18251455E+00 0.30000000E+03</pdfrwt>
<pdfrwt beam="2">0</pdfrwt>
<totfact> 0.12422128E+01</totfact>
</mgrwt>
</event>
<event>
 6    1  0.1939311E-004  0.3000000E+03  0.7818608E-02  0.1093470E+00
          1   -1    0    0  502    0  0.00000000000E+00  0.00000000000E+00  0.87485314658E+02  0.87485314658E+02  0.00000000000E+00 0.  1.
         13   -1    0    0    0    0 -0.00000000000E+00 -0.00000000000E+00 -0.10000000000E+04  0.10000000000E+04  0.00000000000E+00 0.  1.
    9000005    2    1    2  501    0 -0.35471813152E+01  0.25860572319E+02 -0.97002787160E+03  0.10243258475E+04  0.32803661155E+03 0.  0.
         13    1    3    3    0    0 -0.21717446686E+02  0.28579187545E+02  0.15161468869E+02  0.38965209990E+02  0.00000000000E+00 0.  1.
          1    1    3    3  501    0  0.18170265371E+02 -0.27186152263E+01 -0.98518934047E+03  0.98536063753E+03  0.00000000000E+00 0.  1.
         21    1    1    2  502  501  0.35471813152E+01 -0.25860572319E+02  0.57513186259E+02  0.63159467141E+02  0.00000000000E+00 0.  1.
<mgrwt>
<rscale>  1 0.30000000E+03</rscale>
<asrwt>0</asrwt>
<pdfrwt beam="1">  1        1 0.31812909E+00 0.30000000E+03</pdfrwt>
<pdfrwt beam="2">0</pdfrwt>
<totfact> 0.28435941E+00</totfact>
</mgrwt>
</event>
<event>
 6    1  0.1939311E-004  0.3000000E+03  0.7818608E-02  0.1093470E+00
          1   -1    0    0  502    0  0.00000000000E+00  0.00000000000E+00  0.30786576690E+02  0.30786576690E+02  0.00000000000E+00 0.  1.
         13   -1    0    0    0    0 -0.00000000000E+00 -0.00000000000E+00 -0.10000000000E+04  0.10000000000E+04  0.00000000000E+00 0.  1.
    9000005    2    1    2  501    0 -0.11436622550E+02 -0.10130990356E+02 -0.96812466409E+03  0.10154693087E+04  0.30607044690E+03 0.  0.
         13    1    3    3    0    0 -0.13900634200E+03  0.16965179627E+02 -0.73612118664E+03  0.74932301570E+03  0.00000000000E+00 0.  1.
          3    1    3    3  501    0  0.12756971945E+03 -0.27096169983E+02 -0.23200347745E+03  0.26614629304E+03  0.00000000000E+00 0.  1.
         21    1    1    2  502  501  0.11436622550E+02  0.10130990356E+02 -0.10887592202E+01  0.15317267954E+02  0.00000000000E+00 0. -1.
<mgrwt>
<rscale>  1 0.30000000E+03</rscale>
<asrwt>0</asrwt>
<pdfrwt beam="1">  1        1 0.11195142E+00 0.30000000E+03</pdfrwt>
<pdfrwt beam="2">0</pdfrwt>
<totfact> 0.28928810E+01</totfact>
</mgrwt>
</event>
<event>
 6    1  0.1939311E-004  0.3000000E+03  0.7818608E-02  0.1093470E+00
          1   -1    0    0  502    0  0.00000000000E+00  0.00000000000E+00  0.29835191352E+02  0.29835191352E+02  0.00000000000E+00 0.  1.
         13   -1    0    0    0    0 -0.00000000000E+00 -0.00000000000E+00 -0.10000000000E+04  0.10000000000E+04  0.00000000000E+00 0.  1.
    9000005    2    1    2  501    0  0.60367089631E+01  0.12508556253E+02 -0.95497442278E+03  0.10092523427E+04  0.32622268055E+03 0.  0.
         13    1    3    3    0    0  0.30415509326E+02 -0.11902283301E+03 -0.77677824262E+03  0.78643243588E+03  0.00000000000E+00 0.  1.
          3    1    3    3  501    0 -0.24378800363E+02  0.13153138926E+03 -0.17819618016E+03  0.22281990686E+03  0.00000000000E+00 0.  1.
         21    1    1    2  502  501 -0.60367089631E+01 -0.12508556253E+02 -0.15190385865E+02  0.20582848621E+02  0.00000000000E+00 0.  1.
<mgrwt>
<rscale>  1 0.30000000E+03</rscale>
<asrwt>0</asrwt>
<pdfrwt beam="1">  1        1 0.10849183E+00 0.30000000E+03</pdfrwt>
<pdfrwt beam="2">0</pdfrwt>
<totfact> 0.30333756E+01</totfact>
</mgrwt>
</event>
<event>
 6    1  0.1939311E-004  0.3000000E+03  0.7818608E-02  0.1093470E+00
          1   -1    0    0  502    0  0.00000000000E+00  0.00000000000E+00  0.29032614196E+02  0.29032614196E+02  0.00000000000E+00 0.  1.
         13   -1    0    0    0    0 -0.00000000000E+00 -0.00000000000E+00 -0.10000000000E+04  0.10000000000E+04  0.00000000000E+00 0.  1.
    9000005    2    1    2  501    0  0.61799836333E+00 -0.11543276596E+02 -0.94456863882E+03  0.10002138183E+04  0.32876152398E+03 0.  0.
         13    1    3    3    0    0 -0.11352756021E+03 -0.11431936235E+03 -0.33702528182E+03  0.37355516877E+03  0.00000000000E+00 0.  1.
          1    1    3    3  501    0  0.11414555857E+03  0.10277608575E+03 -0.60754335700E+03  0.62665864949E+03  0.00000000000E+00 0.  1.
         21    1    1    2  502  501 -0.61799836333E+00  0.11543276596E+02 -0.26398746987E+02  0.28818795933E+02  0.00000000000E+00 0.  1.
<mgrwt>
<rscale>  1 0.30000000E+03</rscale>
<asrwt>0</asrwt>
<pdfrwt beam="1">  1        1 0.10557337E+00 0.30000000E+03</pdfrwt>
<pdfrwt beam="2">0</pdfrwt>
<totfact> 0.31595902E+01</totfact>
</mgrwt>
</event>
<event>
 6    1  0.1939311E-004  0.3000000E+03  0.7818608E-02  0.1093470E+00
          1   -1    0    0  502    0  0.00000000000E+00  0.00000000000E+00  0.39906712800E+02  0.39906712800E+02  0.00000000000E+00 0.  1.
         13   -1    0    0    0    0 -0.00000000000E+00 -0.00000000000E+00 -0.10000000000E+04  0.10000000000E+04  0.00000000000E+00 0.  1.
    9000005    2    1    2  501    0  0.31964379303E+02  0.30945850709E+02 -0.94047448282E+03  0.99128300762E+03  0.31011349719E+03 0.  0.
         13    1    3    3    0    0  0.45117498782E+00 -0.29573338911E+02  0.15146258577E+02  0.33229430962E+02  0.00000000000E+00 0.  1.
          3    1    3    3  501    0  0.31513204315E+02  0.60519189619E+02 -0.95562074139E+03  0.95805357665E+03  0.00000000000E+00 0.  1.
         21    1    1    2  502  501 -0.31964379303E+02 -0.30945850709E+02 -0.19618804383E+02  0.48623705183E+02  0.00000000000E+00 0.  1.
<mgrwt>
<rscale>  1 0.30000000E+03</rscale>
<asrwt>0</asrwt>
<pdfrwt beam="1">  1        1 0.14511563E+00 0.30000000E+03</pdfrwt>
<pdfrwt beam="2">0</pdfrwt>
<totfact> 0.19030035E+01</totfact>
</mgrwt>
</event>
<event>
 6    1  0.1939311E-004  0.3000000E+03  0.7818608E-02  0.1093470E+00
          1   -1    0    0  502    0  0.00000000000E+00  0.00000000000E+00  0.44238321724E+02  0.44238321724E+02  0.00000000000E+00 0.  1.
         13   -1    0    0    0    0 -0.00000000000E+00 -0.00000000000E+00 -0.10000000000E+04  0.10000000000E+04  0.00000000000E+00 0.  1.
    9000005    2    1    2  501    0 -0.77891193467E+01 -0.89218389401E+02 -0.87457244462E+03  0.92335704505E+03  0.28229537789E+03 0.  0.
         13    1    3    3    0    0 -0.36578095963E+02 -0.18520500570E+03 -0.66123310270E+03  0.68765403173E+03  0.00000000000E+00 0.  1.
          1    1    3    3  501    0  0.28788976616E+02  0.95986616298E+02 -0.21333934191E+03  0.23570301333E+03  0.00000000000E+00 0.  1.
         21    1    1    2  502  501  0.77891193467E+01  0.89218389401E+02 -0.81189233660E+02  0.12088127667E+03  0.00000000000E+00 0. -1.
<mgrwt>
<rscale>  1 0.30000000E+03</rscale>
<asrwt>0</asrwt>
<pdfrwt beam="1">  1        1 0.16086696E+00 0.30000000E+03</pdfrwt>
<pdfrwt beam="2">0</pdfrwt>
<totfact> 0.15845256E+01</totfact>
</mgrwt>
</event>
<event>
 6    1  0.1939311E-004  0.3000000E+03  0.7818608E-02  0.1093470E+00
          1   -1    0    0  502    0  0.00000000000E+00  0.00000000000E+00  0.29273132130E+02  0.29273132130E+02  0.00000000000E+00 0.  1.
         13   -1    0    0    0    0 -0.00000000000E+00 -0.00000000000E+00 -0.10000000000E+04  0.10000000000E+04  0.00000000000E+00 0.  1.
    9000005    2    1    2  501    0 -0.91075683520E-01 -0.17238061833E+02 -0.94293476940E+03  0.99656900689E+03  0.32206621536E+03 0.  0.
         13    1    3    3    0    0 -0.10765104796E+03 -0.12857291002E+03 -0.48320224698E+03  0.51147253378E+03  0.00000000000E+00 0.  1.
          1    1    3    3  501    0  0.10755997227E+03  0.11133484819E+03 -0.45973252241E+03  0.48509647311E+03  0.00000000000E+00 0.  1.
         21    1    1    2  502  501  0.91075683520E-01  0.17238061833E+02 -0.27792098472E+02  0.32704125244E+02  0.00000000000E+00 0. -1.
<mgrwt>
<rscale>  1 0.30000000E+03</rscale>
<asrwt>0</asrwt>
<pdfrwt beam="1">  1        1 0.10644798E+00 0.30000000E+03</pdfrwt>
<pdfrwt beam="2">0</pdfrwt>
<totfact> 0.31209861E+01</totfact>
</mgrwt>
</event>
<event>
 6    1  0.1939311E-004  0.3000000E+03  0.7818608E-02  0.1093470E+00
          1   -1    0    0  502    0  0.00000000000E+00  0.00000000000E+00  0.68978051796E+02  0.68978051796E+02  0.00000000000E+00 0.  1.
         13   -1    0    0    0    0 -0.00000000000E+00 -0.00000000000E+00 -0.10000000000E+04  0.10000000000E+04  0.00000000000E+00 0.  1.
    9000005    2    1    2  501    0  0.29800361652E+02  0.16725317721E+02 -0.96754899720E+03  0.10189578247E+04  0.31773603632E+03 0.  0.
         13    1    3    3    0    0 -0.55907683986E+02 -0.77930667779E+02 -0.87926307852E+02  0.13011492505E+03  0.00000000000E+00 0.  1.
          1    1    3    3  501    0  0.85708045638E+02  0.94655985500E+02 -0.87962268935E+03  0.88884289967E+03  0.00000000000E+00 0.  1.
         21    1    1    2  502  501 -0.29800361652E+02 -0.16725317721E+02  0.36527048999E+02  0.50020227069E+02  0.00000000000E+00 0. -1.
<mgrwt>
<rscale>  1 0.30000000E+03</rscale>
<asrwt>0</asrwt>
<pdfrwt beam="1">  1        1 0.25082981E+00 0.30000000E+03</pdfrwt>
<pdfrwt beam="2">0</pdfrwt>
<totfact> 0.59132359E+00</totfact>
</mgrwt>
</event>
<event>
 6    1  0.1939311E-004  0.3000000E+03  0.7818608E-02  0.1093470E+00
          3   -1    0    0  502    0  0.00000000000E+00  0.00000000000E+00  0.27380389926E+02  0.27380389926E+02  0.00000000000E+00 0.  1.
         13   -1    0    0    0    0 -0.00000000000E+00 -0.00000000000E+00 -0.10000000000E+04  0.10000000000E+04  0.00000000000E+00 0.  1.
    9000005    2    1    2  501    0  0.28743915556E+02  0.93629487039E+00 -0.94734043622E+03  0.98909036563E+03  0.28287587377E+03 0.  0.
         13    1    3    3    0    0  0.90136608248E+02  0.88539526109E+02 -0.78213891007E+03  0.79227844251E+03  0.00000000000E+00 0.  1.
          1    1    3    3  501    0 -0.61392692692E+02 -0.87603231238E+02 -0.16520152615E+03  0.19681192312E+03  0.00000000000E+00 0.  1.
         21    1    1    2  502  501 -0.28743915556E+02 -0.93629487039E+00 -0.25279173857E+02  0.38290024294E+02  0.00000000000E+00 0.  1.
<mgrwt>
<rscale>  1 0.30000000E+03</rscale>
<asrwt>0</asrwt>
<pdfrwt beam="1">  1        3 0.99565264E-01 0.30000000E+03</pdfrwt>
<pdfrwt beam="2">0</pdfrwt>
<totfact> 0.39620006E+00</totfact>
</mgrwt>
</event>
<event>
 6    1  0.1939311E-004  0.3000000E+03  0.7818608E-02  0.1093470E+00
          1   -1    0    0  502    0  0.00000000000E+00  0.00000000000E+00  0.60160507950E+02  0.60160507950E+02  0.00000000000E+00 0.  1.
         13   -1    0    0    0    0 -0.00000000000E+00 -0.00000000000E+00 -0.10000000000E+04  0.10000000000E+04  0.00000000000E+00 0.  1.
    9000005    2    1    2  501    0  0.93844300339E+01  0.76106639710E+01 -0.97268441684E+03  0.10251636678E+04  0.32357314687E+03 0.  0.
         13    1    3    3    0    0  0.15245359990E+03  0.51974110364E+02 -0.64597623399E+03  0.66575423630E+03  0.00000000000E+00 0.  1.
          3    1    3    3  501    0 -0.14306916987E+03 -0.44363446393E+02 -0.32670818285E+03  0.35940943154E+03  0.00000000000E+00 0.  1.
         21    1    1    2  502  501 -0.93844300339E+01 -0.76106639710E+01  0.32844924788E+02  0.34996840107E+02  0.00000000000E+00 0.  1.
<mgrwt>
<rscale>  1 0.30000000E+03</rscale>
<asrwt>0</asrwt>
<pdfrwt beam="1">  1        1 0.21876594E+00 0.30000000E+03</pdfrwt>
<pdfrwt beam="2">0</pdfrwt>
<totfact> 0.83538483E+00</totfact>
</mgrwt>
</event>
<event>
 6    1  0.1939311E-004  0.3000000E+03  0.7818608E-02  0.1093470E+00
          1   -1    0    0  502    0  0.00000000000E+00  0.00000000000E+00  0.45723930026E+02  0.45723930026E+02  0.00000000000E+00 0.  1.
         13   -1    0    0    0    0 -0.00000000000E+00 -0.00000000000E+00 -0.10000000000E+04  0.10000000000E+04  0.00000000000E+00 0.  1.
    9000005    2    1    2  501    0  0.61339104992E+02  0.73668875570E+01 -0.83963422796E+03  0.91549525126E+03  0.35962363866E+03 0.  0.
         13    1    3    3    0    0  0.16827397753E+03  0.92128813260E+02 -0.67463785379E+03  0.70138440496E+03  0.00000000000E+00 0.  1.
          3    1    3    3  501    0 -0.10693487254E+03 -0.84761925703E+02 -0.16499637417E+03  0.21411084630E+03  0.00000000000E+00 0.  1.
         21    1    1    2  502  501 -0.61339104992E+02 -0.73668875570E+01 -0.11464184201E+03  0.13022867877E+03  0.00000000000E+00 0.  1.
<mgrwt>
<rscale>  1 0.30000000E+03</rscale>
<asrwt>0</asrwt>
<pdfrwt beam="1">  1        1 0.16626919E+00 0.30000000E+03</pdfrwt>
<pdfrwt beam="2">0</pdfrwt>
<totfact> 0.14901523E+01</totfact>
</mgrwt>
</event>
<event>
 6    1  0.1939311E-004  0.3000000E+03  0.7818608E-02  0.1093470E+00
          1   -1    0    0  502    0  0.00000000000E+00  0.00000000000E+00  0.51536769338E+02  0.51536769338E+02  0.00000000000E+00 0.  1.
         13   -1    0    0    0    0 -0.00000000000E+00 -0.00000000000E+00 -0.10000000000E+04  0.10000000000E+04  0.00000000000E+00 0.  1.
    9000005    2    1    2  501    0  0.43169472312E+01 -0.16179752209E+02 -0.96931919543E+03  0.10247899624E+04  0.33216613912E+03 0.  0.
         13    1    3    3    0    0  0.18250647415E+02 -0.15639897170E+03 -0.73238908262E+03  0.74912448419E+03  0.00000000000E+00 0.  1.
          1    1    3    3  501    0 -0.13933700184E+02  0.14021921949E+03 -0.23693011281E+03  0.27566547820E+03  0.00000000000E+00 0.  1.
         21    1    1    2  502  501 -0.43169472312E+01  0.16179752209E+02  0.20855964772E+02  0.26746806941E+02  0.00000000000E+00 0.  1.
<mgrwt>
<rscale>  1 0.30000000E+03</rscale>
<asrwt>0</asrwt>
<pdfrwt beam="1">  1        1 0.18740683E+00 0.30000000E+03</pdfrwt>
<pdfrwt beam="2">0</pdfrwt>
<totfact> 0.11766644E+01</totfact>
</mgrwt>
</event>
<event>
 6    1  0.1939311E-004  0.3000000E+03  0.7818608E-02  0.1093470E+00
          1   -1    0    0  502    0  0.00000000000E+00  0.00000000000E+00  0.30180804982E+02  0.30180804982E+02  0.00000000000E+00 0.  1.
         13   -1    0    0    0    0 -0.00000000000E+00 -0.00000000000E+00 -0.10000000000E+04  0.10000000000E+04  0.00000000000E+00 0.  1.
    9000005    2    1    2  501    0  0.25580325433E+02  0.23639108248E+02 -0.92265428290E+03  0.97154899260E+03  0.30232988404E+03 0.  0.
         13    1    3    3    0    0  0.12368094160E+03 -0.23446843751E+02 -0.17252750677E+03  0.21357076202E+03  0.00000000000E+00 0.  1.
          1    1    3    3  501    0 -0.98100616168E+02  0.47085951999E+02 -0.75012677614E+03  0.75797823059E+03  0.00000000000E+00 0.  1.
         21    1    1    2  502  501 -0.25580325433E+02 -0.23639108248E+02 -0.47164912114E+02  0.58631812378E+02  0.00000000000E+00 0.  1.
<mgrwt>
<rscale>  1 0.30000000E+03</rscale>
<asrwt>0</asrwt>
<pdfrwt beam="1">  1        1 0.10974861E+00 0.30000000E+03</pdfrwt>
<pdfrwt beam="2">0</pdfrwt>
<totfact> 0.29812394E+01</totfact>
</mgrwt>
</event>
<event>
 6    1  0.1939311E-004  0.3000000E+03  0.7818608E-02  0.1093470E+00
          1   -1    0    0  502    0  0.00000000000E+00  0.00000000000E+00  0.32052531702E+02  0.32052531702E+02  0.00000000000E+00 0.  1.
         13   -1    0    0    0    0 -0.00000000000E+00 -0.00000000000E+00 -0.10000000000E+04  0.10000000000E+04  0.00000000000E+00 0.  1.
    9000005    2    1    2  501    0  0.67304764009E+01 -0.91688029035E+01 -0.96639566640E+03  0.10205732308E+04  0.32790207259E+03 0.  0.
         13    1    3    3    0    0 -0.12530951087E+03  0.47093839019E+01 -0.78949842444E+03  0.79939503001E+03  0.00000000000E+00 0.  1.
          3    1    3    3  501    0  0.13203998727E+03 -0.13878186805E+02 -0.17689724195E+03  0.22117820082E+03  0.00000000000E+00 0.  1.
         21    1    1    2  502  501 -0.67304764009E+01  0.91688029035E+01 -0.15518019018E+01  0.11479300868E+02  0.00000000000E+00 0. -1.
<mgrwt>
<rscale>  1 0.30000000E+03</rscale>
<asrwt>0</asrwt>
<pdfrwt beam="1">  1        1 0.11655491E+00 0.30000000E+03</pdfrwt>
<pdfrwt beam="2">0</pdfrwt>
<totfact> 0.27198353E+01</totfact>
</mgrwt>
</event>
<event>
 6    1  0.1939311E-004  0.3000000E+03  0.7818608E-02  0.1093470E+00
          1   -1    0    0  502    0  0.00000000000E+00  0.00000000000E+00  0.42267243287E+02  0.42267243287E+02  0.00000000000E+00 0.  1.
         13   -1    0    0    0    0 -0.00000000000E+00 -0.00000000000E+00 -0.10000000000E+04  0.10000000000E+04  0.00000000000E+00 0.  1.
    9000005    2    1    2  501    0 -0.22043461889E+02  0.13267139899E+00 -0.85496522025E+03  0.93716206565E+03  0.38317264732E+03 0.  0.
         13    1    3    3    0    0 -0.15702865025E+03  0.37129951109E+02 -0.15641172142E+03  0.22472484702E+03  0.00000000000E+00 0.  1.
          1    1    3    3  501    0  0.13498518836E+03 -0.36997279710E+02 -0.69855349882E+03  0.71243721864E+03  0.00000000000E+00 0.  1.
         21    1    1    2  502  501  0.22043461889E+02 -0.13267139899E+00 -0.10276753647E+03  0.10510517763E+03  0.00000000000E+00 0. -1.
<mgrwt>
<rscale>  1 0.30000000E+03</rscale>
<asrwt>0</asrwt>
<pdfrwt beam="1">  1        1 0.15369939E+00 0.30000000E+03</pdfrwt>
<pdfrwt beam="2">0</pdfrwt>
<totfact> 0.17207107E+01</totfact>
</mgrwt>
</event>
<event>
 6    1  0.1939311E-004  0.3000000E+03  0.7818608E-02  0.1093470E+00
          3   -1    0    0  502    0  0.00000000000E+00  0.00000000000E+00  0.31765257374E+02  0.31765257374E+02  0.00000000000E+00 0.  1.
         13   -1    0    0    0    0 -0.00000000000E+00 -0.00000000000E+00 -0.10000000000E+04  0.10000000000E+04  0.00000000000E+00 0.  1.
    9000005    2    1    2  501    0  0.23057884783E+02  0.11232780521E+02 -0.90427750949E+03  0.96285684657E+03  0.32972359850E+03 0.  0.
         13    1    3    3    0    0  0.96131353951E+02  0.12976387291E+03 -0.67963711737E+03  0.69856031324E+03  0.00000000000E+00 0.  1.
          1    1    3    3  501    0 -0.73073469167E+02 -0.11853109239E+03 -0.22464039212E+03  0.26429653333E+03  0.00000000000E+00 0.  1.
         21    1    1    2  502  501 -0.23057884783E+02 -0.11232780521E+02 -0.63957233138E+02  0.68908410804E+02  0.00000000000E+00 0. -1.
<mgrwt>
<rscale>  1 0.30000000E+03</rscale>
<asrwt>0</asrwt>
<pdfrwt beam="1">  1        3 0.11551027E+00 0.30000000E+03</pdfrwt>
<pdfrwt beam="2">0</pdfrwt>
<totfact> 0.26064320E+00</totfact>
</mgrwt>
</event>
<event>
 6    1  0.1939311E-004  0.3000000E+03  0.7818608E-02  0.1093470E+00
          1   -1    0    0  502    0  0.00000000000E+00  0.00000000000E+00  0.57217310324E+02  0.57217310324E+02  0.00000000000E+00 0.  1.
         13   -1    0    0    0    0 -0.00000000000E+00 -0.00000000000E+00 -0.10000000000E+04  0.10000000000E+04  0.00000000000E+00 0.  1.
    9000005    2    1    2  501    0 -0.15702971504E+02  0.50907833371E+00 -0.97047408547E+03  0.10253793475E+04  0.33065996623E+03 0.  0.
         13    1    3    3    0    0 -0.16359278254E+03  0.39294688379E+02 -0.38278478040E+03  0.41812780240E+03  0.00000000000E+00 0.  1.
          1    1    3    3  501    0  0.14788981103E+03 -0.38785610045E+02 -0.58768930507E+03  0.60725154512E+03  0.00000000000E+00 0.  1.
         21    1    1    2  502  501  0.15702971504E+02 -0.50907833371E+00  0.27691395793E+02  0.31837962808E+02  0.00000000000E+00 0. -1.
<mgrwt>
<rscale>  1 0.30000000E+03</rscale>
<asrwt>0</asrwt>
<pdfrwt beam="1">  1        1 0.20806339E+00 0.30000000E+03</pdfrwt>
<pdfrwt beam="2">0</pdfrwt>
<totfact> 0.93805620E+00</totfact>
</mgrwt>
</event>
<event>
 6    1  0.1939311E-004  0.3000000E+03  0.7818608E-02  0.1093470E+00
          3   -1    0    0  502    0  0.00000000000E+00  0.00000000000E+00  0.41457940141E+02  0.41457940141E+02  0.00000000000E+00 0.  1.
         13   -1    0    0    0    0 -0.00000000000E+00 -0.00000000000E+00 -0.10000000000E+04  0.10000000000E+04  0.00000000000E+00 0.  1.
    9000005    2    1    2  501    0 -0.11558458325E+02 -0.10542906619E+01 -0.97189995118E+03  0.10237621003E+04  0.32150367553E+03 0.  0.
         13    1    3    3    0    0 -0.22335763065E+02  0.19661511765E+02  0.17210978418E+02  0.34375560137E+02  0.00000000000E+00 0.  1.
          3    1    3    3  501    0  0.10777304740E+02 -0.20715802427E+02 -0.98911092960E+03  0.98938654015E+03  0.00000000000E+00 0.  1.
         21    1    1    2  502  501  0.11558458325E+02  0.10542906619E+01  0.13357891324E+02  0.17695839858E+02  0.00000000000E+00 0. -1.
<mgrwt>
<rscale>  1 0.30000000E+03</rscale>
<asrwt>0</asrwt>
<pdfrwt beam="1">  1        3 0.15075646E+00 0.30000000E+03</pdfrwt>
<pdfrwt beam="2">0</pdfrwt>
<totfact> 0.96641691E-01</totfact>
</mgrwt>
</event>
<event>
 6    1  0.1939311E-004  0.3000000E+03  0.7818608E-02  0.1093470E+00
          1   -1    0    0  502    0  0.00000000000E+00  0.00000000000E+00  0.28400720692E+02  0.28400720692E+02  0.00000000000E+00 0.  1.
         13   -1    0    0    0    0 -0.00000000000E+00 -0.00000000000E+00 -0.10000000000E+04  0.10000000000E+04  0.00000000000E+00 0.  1.
    9000005    2    1    2  501    0 -0.59817338418E+01 -0.15859683495E+02 -0.91961104860E+03  0.97371903425E+03  0.31962003418E+03 0.  0.
         13    1    3    3    0    0 -0.12907835835E+03 -0.16872321578E+02 -0.76544318307E+03  0.77643361876E+03  0.00000000000E+00 0.  1.
          3    1    3    3  501    0  0.12309662451E+03  0.10126380829E+01 -0.15416786553E+03  0.19728541549E+03  0.00000000000E+00 0.  1.
         21    1    1    2  502  501  0.59817338418E+01  0.15859683495E+02 -0.51988230709E+02  0.54681686446E+02  0.00000000000E+00 0. -1.
<mgrwt>
<rscale>  1 0.30000000E+03</rscale>
<asrwt>0</asrwt>
<pdfrwt beam="1">  1        1 0.10327557E+00 0.30000000E+03</pdfrwt>
<pdfrwt beam="2">0</pdfrwt>
<totfact> 0.32643633E+01</totfact>
</mgrwt>
</event>
<event>
 6    1  0.1939311E-004  0.3000000E+03  0.7818608E-02  0.1093470E+00
          1   -1    0    0  502    0  0.00000000000E+00  0.00000000000E+00  0.30325264361E+02  0.30325264361E+02  0.00000000000E+00 0.  1.
         13   -1    0    0    0    0 -0.00000000000E+00 -0.00000000000E+00 -0.10000000000E+04  0.10000000000E+04  0.00000000000E+00 0.  1.
    9000005    2    1    2  501    0 -0.73477301953E+01  0.10069257948E+02 -0.97692042645E+03  0.10159072503E+04  0.27845761341E+03 0.  0.
         13    1    3    3    0    0 -0.58947416227E+02 -0.12114302186E+03 -0.55213517154E+03  0.56833412469E+03  0.00000000000E+00 0.  1.
          1    1    3    3  501    0  0.51599686032E+02  0.13121227981E+03 -0.42478525491E+03  0.44757312560E+03  0.00000000000E+00 0.  1.
         21    1    1    2  502  501  0.73477301953E+01 -0.10069257948E+02  0.72456908109E+01  0.14418014079E+02  0.00000000000E+00 0.  1.
<mgrwt>
<rscale>  1 0.30000000E+03</rscale>
<asrwt>0</asrwt>
<pdfrwt beam="1">  1        1 0.11027392E+00 0.30000000E+03</pdfrwt>
<pdfrwt beam="2">0</pdfrwt>
<totfact> 0.29598250E+01</totfact>
</mgrwt>
</event>
<event>
 6    1  0.1939311E-004  0.3000000E+03  0.7818608E-02  0.1093470E+00
          1   -1    0    0  502    0  0.00000000000E+00  0.00000000000E+00  0.36904404259E+02  0.36904404259E+02  0.00000000000E+00 0.  1.
         13   -1    0    0    0    0 -0.00000000000E+00 -0.00000000000E+00 -0.10000000000E+04  0.10000000000E+04  0.00000000000E+00 0.  1.
    9000005    2    1    2  501    0 -0.15659027182E+02 -0.21385138764E+02 -0.95888236059E+03  0.10100663596E+04  0.31634813101E+03 0.  0.
         13    1    3    3    0    0 -0.10002062881E+03 -0.74865096001E+01 -0.83471219085E+02  0.13048991696E+03  0.00000000000E+00 0.  1.
          3    1    3    3  501    0  0.84361601627E+02 -0.13898629164E+02 -0.87541114150E+03  0.87957644261E+03  0.00000000000E+00 0.  1.
         21    1    1    2  502  501  0.15659027182E+02  0.21385138764E+02 -0.42132351521E+01  0.26838044689E+02  0.00000000000E+00 0.  1.
<mgrwt>
<rscale>  1 0.30000000E+03</rscale>
<asrwt>0</asrwt>
<pdfrwt beam="1">  1        1 0.13419812E+00 0.30000000E+03</pdfrwt>
<pdfrwt beam="2">0</pdfrwt>
<totfact> 0.21715883E+01</totfact>
</mgrwt>
</event>
<event>
 6    1  0.1939311E-004  0.3000000E+03  0.7818608E-02  0.1093470E+00
          1   -1    0    0  502    0  0.00000000000E+00  0.00000000000E+00  0.44230875006E+02  0.44230875006E+02  0.00000000000E+00 0.  1.
         13   -1    0    0    0    0 -0.00000000000E+00 -0.00000000000E+00 -0.10000000000E+04  0.10000000000E+04  0.00000000000E+00 0.  1.
    9000005    2    1    2  501    0  0.93660477197E+02 -0.73457858585E+01 -0.78398204233E+03  0.84843238847E+03  0.31045680788E+03 0.  0.
         13    1    3    3    0    0  0.43329699892E+02  0.11754233034E+03 -0.12924868194E+03  0.17999690025E+03  0.00000000000E+00 0.  1.
          3    1    3    3  501    0  0.50330777305E+02 -0.12488811620E+03 -0.65473336039E+03  0.66843548823E+03  0.00000000000E+00 0.  1.
         21    1    1    2  502  501 -0.93660477197E+02  0.73457858585E+01 -0.17178708266E+03  0.19579848653E+03  0.00000000000E+00 0.  1.
<mgrwt>
<rscale>  1 0.30000000E+03</rscale>
<asrwt>0</asrwt>
<pdfrwt beam="1">  1        1 0.16083988E+00 0.30000000E+03</pdfrwt>
<pdfrwt beam="2">0</pdfrwt>
<totfact> 0.15850157E+01</totfact>
</mgrwt>
</event>
<event>
 6    1  0.1939311E-004  0.3000000E+03  0.7818608E-02  0.1093470E+00
          1   -1    0    0  502    0  0.00000000000E+00  0.00000000000E+00  0.39159362121E+02  0.39159362121E+02  0.00000000000E+00 0.  1.
         13   -1    0    0    0    0 -0.00000000000E+00 -0.00000000000E+00 -0.10000000000E+04  0.10000000000E+04  0.00000000000E+00 0.  1.
    9000005    2    1    2  501    0 -0.31754114721E+02 -0.28090383240E+02 -0.92793658855E+03  0.98549307946E+03  0.32913964190E+03 0.  0.
         13    1    3    3    0    0 -0.10646150992E+03  0.12222674045E+03 -0.50872881628E+03  0.53392737117E+03  0.00000000000E+00 0.  1.
          3    1    3    3  501    0  0.74707395203E+02 -0.15031712368E+03 -0.41920777227E+03  0.45156570829E+03  0.00000000000E+00 0.  1.
         21    1    1    2  502  501  0.31754114721E+02  0.28090383240E+02 -0.32904049333E+02  0.53666282662E+02  0.00000000000E+00 0. -1.
<mgrwt>
<rscale>  1 0.30000000E+03</rscale>
<asrwt>0</asrwt>
<pdfrwt beam="1">  1        1 0.14239798E+00 0.30000000E+03</pdfrwt>
<pdfrwt beam="2">0</pdfrwt>
<totfact> 0.19657070E+01</totfact>
</mgrwt>
</event>
<event>
 6    1  0.1939311E-004  0.3000000E+03  0.7818608E-02  0.1093470E+00
          1   -1    0    0  502    0  0.00000000000E+00  0.00000000000E+00  0.48997212136E+02  0.48997212136E+02  0.00000000000E+00 0.  1.
         13   -1    0    0    0    0 -0.00000000000E+00 -0.00000000000E+00 -0.10000000000E+04  0.10000000000E+04  0.00000000000E+00 0.  1.
    9000005    2    1    2  501    0 -0.12582053811E+02 -0.27364697628E+00 -0.96235471345E+03  0.10320487852E+04  0.37261202019E+03 0.  0.
         13    1    3    3    0    0 -0.45959505345E+02 -0.38507227186E+02 -0.97730276448E+03  0.97914032505E+03  0.00000000000E+00 0.  1.
          1    1    3    3  501    0  0.33377451535E+02  0.38233580210E+02  0.14948051032E+02  0.52908460158E+02  0.00000000000E+00 0.  1.
         21    1    1    2  502  501  0.12582053811E+02  0.27364697628E+00  0.11351925587E+02  0.16948426926E+02  0.00000000000E+00 0.  1.
<mgrwt>
<rscale>  1 0.30000000E+03</rscale>
<asrwt>0</asrwt>
<pdfrwt beam="1">  1        1 0.17817206E+00 0.30000000E+03</pdfrwt>
<pdfrwt beam="2">0</pdfrwt>
<totfact> 0.13037430E+01</totfact>
</mgrwt>
</event>
<event>
 6    1  0.1939311E-004  0.3000000E+03  0.7818608E-02  0.1093470E+00
          1   -1    0    0  502    0  0.00000000000E+00  0.00000000000E+00  0.32020510732E+02  0.32020510732E+02  0.00000000000E+00 0.  1.
         13   -1    0    0    0    0 -0.00000000000E+00 -0.00000000000E+00 -0.10000000000E+04  0.10000000000E+04  0.00000000000E+00 0.  1.
    9000005    2    1    2  501    0 -0.14474264885E+02  0.48273747523E+01 -0.96149034690E+03  0.10154398937E+04  0.32622336327E+03 0.  0.
         13    1    3    3    0    0  0.47695827008E+01 -0.11734424056E+03 -0.13159467113E+03  0.17637907240E+03  0.00000000000E+00 0.  1.
          3    1    3    3  501    0 -0.19243847586E+02  0.12217161531E+03 -0.82989567577E+03  0.83906082134E+03  0.00000000000E+00 0.  1.
         21    1    1    2  502  501  0.14474264885E+02 -0.48273747523E+01 -0.64891423730E+01  0.16580616988E+02  0.00000000000E+00 0.  1.
<mgrwt>
<rscale>  1 0.30000000E+03</rscale>
<asrwt>0</asrwt>
<pdfrwt beam="1">  1        1 0.11643847E+00 0.30000000E+03</pdfrwt>
<pdfrwt beam="2">0</pdfrwt>
<totfact> 0.27240310E+01</totfact>
</mgrwt>
</event>
<event>
 6    1  0.1939311E-004  0.3000000E+03  0.7818608E-02  0.1093470E+00
          1   -1    0    0  502    0  0.00000000000E+00  0.00000000000E+00  0.35719905389E+02  0.35719905389E+02  0.00000000000E+00 0.  1.
         13   -1    0    0    0    0 -0.00000000000E+00 -0.00000000000E+00 -0.10000000000E+04  0.10000000000E+04  0.00000000000E+00 0.  1.
    9000005    2    1    2  501    0 -0.33000070765E+02  0.14662749511E+02 -0.95312546470E+03  0.99792537321E+03  0.29343295343E+03 0.  0.
         13    1    3    3    0    0  0.10142473350E+03  0.66081531147E+02 -0.22287917412E+03  0.25363136947E+03  0.00000000000E+00 0.  1.
          3    1    3    3  501    0 -0.13442480426E+03 -0.51418781636E+02 -0.73024629057E+03  0.74429400374E+03  0.00000000000E+00 0.  1.
         21    1    1    2  502  501  0.33000070765E+02 -0.14662749511E+02 -0.11154629915E+02  0.37794532174E+02  0.00000000000E+00 0.  1.
<mgrwt>
<rscale>  1 0.30000000E+03</rscale>
<asrwt>0</asrwt>
<pdfrwt beam="1">  1        1 0.12989084E+00 0.30000000E+03</pdfrwt>
<pdfrwt beam="2">0</pdfrwt>
<totfact> 0.22911120E+01</totfact>
</mgrwt>
</event>
<event>
 6    1  0.1939311E-004  0.3000000E+03  0.7818608E-02  0.1093470E+00
          1   -1    0    0  502    0  0.00000000000E+00  0.00000000000E+00  0.33157414135E+02  0.33157414135E+02  0.00000000000E+00 0.  1.
         13   -1    0    0    0    0 -0.00000000000E+00 -0.00000000000E+00 -0.10000000000E+04  0.10000000000E+04  0.00000000000E+00 0.  1.
    9000005    2    1    2  501    0  0.13972301903E+02 -0.24903913882E+02 -0.90999855524E+03  0.96954394100E+03  0.33332064568E+03 0.  0.
         13    1    3    3    0    0 -0.14314829077E+03  0.55204087071E+01 -0.63862033254E+03  0.65449051727E+03  0.00000000000E+00 0.  1.
          3    1    3    3  501    0  0.15712059267E+03 -0.30424322589E+02 -0.27137822270E+03  0.31505342373E+03  0.00000000000E+00 0.  1.
         21    1    1    2  502  501 -0.13972301903E+02  0.24903913882E+02 -0.56844030624E+02  0.63613473138E+02  0.00000000000E+00 0. -1.
<mgrwt>
<rscale>  1 0.30000000E+03</rscale>
<asrwt>0</asrwt>
<pdfrwt beam="1">  1        1 0.12057267E+00 0.30000000E+03</pdfrwt>
<pdfrwt beam="2">0</pdfrwt>
<totfact> 0.25803165E+01</totfact>
</mgrwt>
</event>
<event>
 6    1  0.1939311E-004  0.3000000E+03  0.7818608E-02  0.1093470E+00
          1   -1    0    0  502    0  0.00000000000E+00  0.00000000000E+00  0.45124097931E+02  0.45124097931E+02  0.00000000000E+00 0.  1.
         13   -1    0    0    0    0 -0.00000000000E+00 -0.00000000000E+00 -0.10000000000E+04  0.10000000000E+04  0.00000000000E+00 0.  1.
    9000005    2    1    2  501    0  0.11659402623E+02  0.24386685850E+01 -0.97261993468E+03  0.10237526341E+04  0.31927735537E+03 0.  0.
         13    1    3    3    0    0 -0.11151278165E+03  0.88114810512E+02 -0.68239531288E+03  0.69703850922E+03  0.00000000000E+00 0.  1.
          3    1    3    3  501    0  0.12317218427E+03 -0.85676141927E+02 -0.29022462181E+03  0.32671412485E+03  0.00000000000E+00 0.  1.
         21    1    1    2  502  501 -0.11659402623E+02 -0.24386685850E+01  0.17744032616E+02  0.21371463859E+02  0.00000000000E+00 0.  1.
<mgrwt>
<rscale>  1 0.30000000E+03</rscale>
<asrwt>0</asrwt>
<pdfrwt beam="1">  1        1 0.16408797E+00 0.30000000E+03</pdfrwt>
<pdfrwt beam="2">0</pdfrwt>
<totfact> 0.15274577E+01</totfact>
</mgrwt>
</event>
<event>
 6    1  0.1939311E-004  0.3000000E+03  0.7818608E-02  0.1093470E+00
          1   -1    0    0  502    0  0.00000000000E+00  0.00000000000E+00  0.27603170233E+02  0.27603170233E+02  0.00000000000E+00 0.  1.
         13   -1    0    0    0    0 -0.00000000000E+00 -0.00000000000E+00 -0.10000000000E+04  0.10000000000E+04  0.00000000000E+00 0.  1.
    9000005    2    1    2  501    0  0.33258695449E-01  0.10441988337E+02 -0.91669628685E+03  0.97093230728E+03  0.31979435074E+03 0.  0.
         13    1    3    3    0    0 -0.11960094626E+03  0.87744061346E+02 -0.26346856642E+03  0.30235590310E+03  0.00000000000E+00 0.  1.
          1    1    3    3  501    0  0.11963420496E+03 -0.77302073009E+02 -0.65322772043E+03  0.66857640418E+03  0.00000000000E+00 0.  1.
         21    1    1    2  502  501 -0.33258695449E-01 -0.10441988337E+02 -0.55700542918E+02  0.56670862954E+02  0.00000000000E+00 0.  1.
<mgrwt>
<rscale>  1 0.30000000E+03</rscale>
<asrwt>0</asrwt>
<pdfrwt beam="1">  1        1 0.10037538E+00 0.30000000E+03</pdfrwt>
<pdfrwt beam="2">0</pdfrwt>
<totfact> 0.34039854E+01</totfact>
</mgrwt>
</event>
<event>
 6    1  0.1939311E-004  0.3000000E+03  0.7818608E-02  0.1093470E+00
          1   -1    0    0  502    0  0.00000000000E+00  0.00000000000E+00  0.30648264625E+02  0.30648264625E+02  0.00000000000E+00 0.  1.
         13   -1    0    0    0    0 -0.00000000000E+00 -0.00000000000E+00 -0.10000000000E+04  0.10000000000E+04  0.00000000000E+00 0.  1.
    9000005    2    1    2  501    0  0.13801317974E+02 -0.51800267599E+01 -0.95221914750E+03  0.10080466137E+04  0.33048352693E+03 0.  0.
         13    1    3    3    0    0 -0.13763777057E+03 -0.26232717998E+02 -0.69360982712E+03  0.70762059301E+03  0.00000000000E+00 0.  1.
          1    1    3    3  501    0  0.15143908854E+03  0.21052691238E+02 -0.25860932038E+03  0.30042602074E+03  0.00000000000E+00 0.  1.
         21    1    1    2  502  501 -0.13801317974E+02  0.51800267599E+01 -0.17132587876E+02  0.22601650877E+02  0.00000000000E+00 0.  1.
<mgrwt>
<rscale>  1 0.30000000E+03</rscale>
<asrwt>0</asrwt>
<pdfrwt beam="1">  1        1 0.11144847E+00 0.30000000E+03</pdfrwt>
<pdfrwt beam="2">0</pdfrwt>
<totfact> 0.29127258E+01</totfact>
</mgrwt>
</event>
<event>
 6    1  0.1939311E-004  0.3000000E+03  0.7818608E-02  0.1093470E+00
          1   -1    0    0  502    0  0.00000000000E+00  0.00000000000E+00  0.32644487207E+02  0.32644487207E+02  0.00000000000E+00 0.  1.
         13   -1    0    0    0    0 -0.00000000000E+00 -0.00000000000E+00 -0.10000000000E+04  0.10000000000E+04  0.00000000000E+00 0.  1.
    9000005    2    1    2  501    0 -0.13083961387E+02 -0.69874840967E+01 -0.96369886949E+03  0.10173675104E+04  0.32573167671E+03 0.  0.
         13    1    3    3    0    0 -0.12966658887E+03 -0.10833119882E+03 -0.56751747911E+03  0.59213610091E+03  0.00000000000E+00 0.  1.
          3    1    3    3  501    0  0.11658262748E+03  0.10134371473E+03 -0.39618139039E+03  0.42523140951E+03  0.00000000000E+00 0.  1.
         21    1    1    2  502  501  0.13083961387E+02  0.69874840967E+01 -0.36566432991E+01  0.15276976789E+02  0.00000000000E+00 0.  1.
<mgrwt>
<rscale>  1 0.30000000E+03</rscale>
<asrwt>0</asrwt>
<pdfrwt beam="1">  1        1 0.11870748E+00 0.30000000E+03</pdfrwt>
<pdfrwt beam="2">0</pdfrwt>
<totfact> 0.26438473E+01</totfact>
</mgrwt>
</event>
<event>
 6    1  0.1939311E-004  0.3000000E+03  0.7818608E-02  0.1093470E+00
          1   -1    0    0  502    0  0.00000000000E+00  0.00000000000E+00  0.39715982990E+02  0.39715982990E+02  0.00000000000E+00 0.  1.
         13   -1    0    0    0    0 -0.00000000000E+00 -0.00000000000E+00 -0.10000000000E+04  0.10000000000E+04  0.00000000000E+00 0.  1.
    9000005    2    1    2  501    0  0.11488675535E+02 -0.35962990781E+01 -0.97005137420E+03  0.10242135864E+04  0.32843397968E+03 0.  0.
         13    1    3    3    0    0 -0.16593743806E+02 -0.16253771396E+03 -0.40956905608E+03  0.44095427483E+03  0.00000000000E+00 0.  1.
          1    1    3    3  501    0  0.28082419340E+02  0.15894141489E+03 -0.56048231812E+03  0.58325931160E+03  0.00000000000E+00 0.  1.
         21    1    1    2  502  501 -0.11488675535E+02  0.35962990781E+01  0.97673571905E+01  0.15502396560E+02  0.00000000000E+00 0.  1.
<mgrwt>
<rscale>  1 0.30000000E+03</rscale>
<asrwt>0</asrwt>
<pdfrwt beam="1">  1        1 0.14442206E+00 0.30000000E+03</pdfrwt>
<pdfrwt beam="2">0</pdfrwt>
<totfact> 0.19187630E+01</totfact>
</mgrwt>
</event>
<event>
 6    1  0.1939311E-004  0.3000000E+03  0.7818608E-02  0.1093470E+00
          1   -1    0    0  502    0  0.00000000000E+00  0.00000000000E+00  0.29422681124E+02  0.29422681124E+02  0.00000000000E+00 0.  1.
         13   -1    0    0    0    0 -0.00000000000E+00 -0.00000000000E+00 -0.10000000000E+04  0.10000000000E+04  0.00000000000E+00 0.  1.
    9000005    2    1    2  501    0  0.31447615977E+01 -0.17418676606E+02 -0.94279097326E+03  0.99647756278E+03  0.32217916450E+03 0.  0.
         13    1    3    3    0    0  0.97354420360E+02  0.94231229600E+02 -0.70106198260E+03  0.71403453085E+03  0.00000000000E+00 0.  1.
          1    1    3    3  501    0 -0.94209658762E+02 -0.11164990621E+03 -0.24172899066E+03  0.28244303193E+03  0.00000000000E+00 0.  1.
         21    1    1    2  502  501 -0.31447615977E+01  0.17418676606E+02 -0.27786345613E+02  0.32945118344E+02  0.00000000000E+00 0.  1.
<mgrwt>
<rscale>  1 0.30000000E+03</rscale>
<asrwt>0</asrwt>
<pdfrwt beam="1">  1        1 0.10699179E+00 0.30000000E+03</pdfrwt>
<pdfrwt beam="2">0</pdfrwt>
<totfact> 0.30973245E+01</totfact>
</mgrwt>
</event>
<event>
 6    1  0.1939311E-004  0.3000000E+03  0.7818608E-02  0.1093470E+00
          1   -1    0    0  502    0  0.00000000000E+00  0.00000000000E+00  0.37931090665E+02  0.37931090665E+02  0.00000000000E+00 0.  1.
         13   -1    0    0    0    0 -0.00000000000E+00 -0.00000000000E+00 -0.10000000000E+04  0.10000000000E+04  0.00000000000E+00 0.  1.
    9000005    2    1    2  501    0  0.82603573502E+00 -0.10061929150E+02 -0.92119572301E+03  0.99582952165E+03  0.37811764220E+03 0.  0.
         13    1    3    3    0    0 -0.56604762849E+02  0.31411931964E+02  0.68374194354E+01  0.65096535633E+02  0.00000000000E+00 0.  1.
          3    1    3    3  501    0  0.57430798584E+02 -0.41473861114E+02 -0.92803314244E+03  0.93073298601E+03  0.00000000000E+00 0.  1.
         21    1    1    2  502  501 -0.82603573502E+00  0.10061929150E+02 -0.40873186329E+02  0.42101569020E+02  0.00000000000E+00 0. -1.
<mgrwt>
<rscale>  1 0.30000000E+03</rscale>
<asrwt>0</asrwt>
<pdfrwt beam="1">  1        1 0.13793153E+00 0.30000000E+03</pdfrwt>
<pdfrwt beam="2">0</pdfrwt>
<totfact> 0.20745683E+01</totfact>
</mgrwt>
</event>
<event>
 6    1  0.1939311E-004  0.3000000E+03  0.7818608E-02  0.1093470E+00
          1   -1    0    0  502    0  0.00000000000E+00  0.00000000000E+00  0.27958304606E+02  0.27958304606E+02  0.00000000000E+00 0.  1.
         13   -1    0    0    0    0 -0.00000000000E+00 -0.00000000000E+00 -0.10000000000E+04  0.10000000000E+04  0.00000000000E+00 0.  1.
    9000005    2    1    2  501    0 -0.36512136992E+01  0.13554647360E+02 -0.95883857739E+03  0.10086870267E+04  0.31285945814E+03 0.  0.
         13    1    3    3    0    0  0.12433323179E+03  0.97477607729E+02 -0.54577109654E+03  0.56817842827E+03  0.00000000000E+00 0.  1.
          3    1    3    3  501    0 -0.12798444549E+03 -0.83922960369E+02 -0.41306748085E+03  0.44050859844E+03  0.00000000000E+00 0.  1.
         21    1    1    2  502  501  0.36512136992E+01 -0.13554647360E+02 -0.13203118007E+02  0.19271277893E+02  0.00000000000E+00 0.  1.
<mgrwt>
<rscale>  1 0.30000000E+03</rscale>
<asrwt>0</asrwt>
<pdfrwt beam="1">  1        1 0.10166678E+00 0.30000000E+03</pdfrwt>
<pdfrwt beam="2">0</pdfrwt>
<totfact> 0.33407551E+01</totfact>
</mgrwt>
</event>
<event>
 6    1  0.1939311E-004  0.3000000E+03  0.7818608E-02  0.1093470E+00
          1   -1    0    0  502    0  0.00000000000E+00  0.00000000000E+00  0.57814334933E+02  0.57814334933E+02  0.00000000000E+00 0.  1.
         13   -1    0    0    0    0 -0.00000000000E+00 -0.00000000000E+00 -0.10000000000E+04  0.10000000000E+04  0.00000000000E+00 0.  1.
    9000005    2    1    2  501    0  0.35518939815E+02 -0.51509735973E+02 -0.94525379817E+03  0.99517040924E+03  0.30486809031E+03 0.  0.
         13    1    3    3    0    0 -0.42234029072E+02 -0.16003145467E+03 -0.65661066187E+03  0.67714942293E+03  0.00000000000E+00 0.  1.
          1    1    3    3  501    0  0.77752968887E+02  0.10852171870E+03 -0.28864313630E+03  0.31802098631E+03  0.00000000000E+00 0.  1.
         21    1    1    2  502  501 -0.35518939815E+02  0.51509735973E+02  0.30681331006E+01  0.62643925694E+02  0.00000000000E+00 0.  1.
<mgrwt>
<rscale>  1 0.30000000E+03</rscale>
<asrwt>0</asrwt>
<pdfrwt beam="1">  1        1 0.21023439E+00 0.30000000E+03</pdfrwt>
<pdfrwt beam="2">0</pdfrwt>
<totfact> 0.91619841E+00</totfact>
</mgrwt>
</event>
<event>
 6    1  0.1939311E-004  0.3000000E+03  0.7818608E-02  0.1093470E+00
          1   -1    0    0  502    0  0.00000000000E+00  0.00000000000E+00  0.30291426591E+02  0.30291426591E+02  0.00000000000E+00 0.  1.
         13   -1    0    0    0    0 -0.00000000000E+00 -0.00000000000E+00 -0.10000000000E+04  0.10000000000E+04  0.00000000000E+00 0.  1.
    9000005    2    1    2  501    0  0.14836120359E+02 -0.66041033220E+00 -0.96387179093E+03  0.10143347779E+04  0.31560365273E+03 0.  0.
         13    1    3    3    0    0  0.10930935342E+03 -0.10893735126E+03 -0.32889462194E+03  0.36330091327E+03  0.00000000000E+00 0.  1.
          3    1    3    3  501    0 -0.94473233057E+02  0.10827694093E+03 -0.63497716899E+03  0.65103386459E+03  0.00000000000E+00 0.  1.
         21    1    1    2  502  501 -0.14836120359E+02  0.66041033220E+00 -0.58367824814E+01  0.15956648735E+02  0.00000000000E+00 0. -1.
<mgrwt>
<rscale>  1 0.30000000E+03</rscale>
<asrwt>0</asrwt>
<pdfrwt beam="1">  1        1 0.11015087E+00 0.30000000E+03</pdfrwt>
<pdfrwt beam="2">0</pdfrwt>
<totfact> 0.29648214E+01</totfact>
</mgrwt>
</event>
<event>
 6    1  0.1939311E-004  0.3000000E+03  0.7818608E-02  0.1093470E+00
          1   -1    0    0  502    0  0.00000000000E+00  0.00000000000E+00  0.22869956551E+02  0.22869956551E+02  0.00000000000E+00 0.  1.
         13   -1    0    0    0    0 -0.00000000000E+00 -0.00000000000E+00 -0.10000000000E+04  0.10000000000E+04  0.00000000000E+00 0.  1.
    9000005    2    1    2  501    0  0.68397945498E+01 -0.87527868652E+01 -0.94527052657E+03  0.98912943369E+03  0.29106231999E+03 0.  0.
         13    1    3    3    0    0 -0.76799535393E+02 -0.93139446064E+02 -0.75656242936E+03  0.76613303973E+03  0.00000000000E+00 0.  1.
          1    1    3    3  501    0  0.83639329943E+02  0.84386659198E+02 -0.18870809721E+03  0.22299639395E+03  0.00000000000E+00 0.  1.
         21    1    1    2  502  501 -0.68397945498E+01  0.87527868652E+01 -0.31859516880E+02  0.33740522866E+02  0.00000000000E+00 0.  1.
<mgrwt>
<rscale>  1 0.30000000E+03</rscale>
<asrwt>0</asrwt>
<pdfrwt beam="1">  1        1 0.83163654E-01 0.30000000E+03</pdfrwt>
<pdfrwt beam="2">0</pdfrwt>
<totfact> 0.44505303E+01</totfact>
</mgrwt>
</event>
<event>
 6    1  0.1939311E-004  0.3000000E+03  0.7818608E-02  0.1093470E+00
          1   -1    0    0  502    0  0.00000000000E+00  0.00000000000E+00  0.24812901728E+02  0.24812901728E+02  0.00000000000E+00 0.  1.
         13   -1    0    0    0    0 -0.00000000000E+00 -0.00000000000E+00 -0.10000000000E+04  0.10000000000E+04  0.00000000000E+00 0.  1.
    9000005    2    1    2  501    0  0.32657343493E+01 -0.19301469911E+02 -0.95153029173E+03  0.99410693721E+03  0.28715064819E+03 0.  0.
         13    1    3    3    0    0 -0.11402593661E+03  0.37051684992E+02 -0.21500266258E+03  0.24617247307E+03  0.00000000000E+00 0.  1.
          1    1    3    3  501    0  0.11729167095E+03 -0.56353154903E+02 -0.73652762915E+03  0.74793446414E+03  0.00000000000E+00 0.  1.
         21    1    1    2  502  501 -0.32657343493E+01  0.19301469911E+02 -0.23656806537E+02  0.30705964520E+02  0.00000000000E+00 0.  1.
<mgrwt>
<rscale>  1 0.30000000E+03</rscale>
<asrwt>0</asrwt>
<pdfrwt beam="1">  1        1 0.90228924E-01 0.30000000E+03</pdfrwt>
<pdfrwt beam="2">0</pdfrwt>
<totfact> 0.39688613E+01</totfact>
</mgrwt>
</event>
<event>
 6    1  0.1939311E-004  0.3000000E+03  0.7818608E-02  0.1093470E+00
          1   -1    0    0  502    0  0.00000000000E+00  0.00000000000E+00  0.30325023732E+02  0.30325023732E+02  0.00000000000E+00 0.  1.
         13   -1    0    0    0    0 -0.00000000000E+00 -0.00000000000E+00 -0.10000000000E+04  0.10000000000E+04  0.00000000000E+00 0.  1.
    9000005    2    1    2  501    0  0.27372802112E+01  0.95421204724E+01 -0.96055799016E+03  0.10168467374E+04  0.33347727087E+03 0.  0.
         13    1    3    3    0    0 -0.13201928711E+03  0.70445693022E+00 -0.17209175648E+03  0.21689896514E+03  0.00000000000E+00 0.  1.
          1    1    3    3  501    0  0.13475656733E+03  0.88376635421E+01 -0.78846623368E+03  0.79994777228E+03  0.00000000000E+00 0.  1.
         21    1    1    2  502  501 -0.27372802112E+01 -0.95421204724E+01 -0.91169861107E+01  0.13478286308E+02  0.00000000000E+00 0. -1.
<mgrwt>
<rscale>  1 0.30000000E+03</rscale>
<asrwt>0</asrwt>
<pdfrwt beam="1">  1        1 0.11027305E+00 0.30000000E+03</pdfrwt>
<pdfrwt beam="2">0</pdfrwt>
<totfact> 0.29598604E+01</totfact>
</mgrwt>
</event>
<event>
 6    1  0.1939311E-004  0.3000000E+03  0.7818608E-02  0.1093470E+00
          1   -1    0    0  502    0  0.00000000000E+00  0.00000000000E+00  0.27700587520E+02  0.27700587520E+02  0.00000000000E+00 0.  1.
         13   -1    0    0    0    0 -0.00000000000E+00 -0.00000000000E+00 -0.10000000000E+04  0.10000000000E+04  0.00000000000E+00 0.  1.
    9000005    2    1    2  501    0 -0.23336771098E+02  0.29769887743E+02 -0.89184674359E+03  0.93879905191E+03  0.29072701065E+03 0.  0.
         13    1    3    3    0    0  0.12653962355E+03 -0.31526128825E+02 -0.43349558639E+03  0.45268598007E+03  0.00000000000E+00 0.  1.
          3    1    3    3  501    0 -0.14987639464E+03  0.61296016568E+02 -0.45835115720E+03  0.48611307185E+03  0.00000000000E+00 0.  1.
         21    1    1    2  502  501  0.23336771098E+02 -0.29769887743E+02 -0.80452668891E+02  0.88901535607E+02  0.00000000000E+00 0.  1.
<mgrwt>
<rscale>  1 0.30000000E+03</rscale>
<asrwt>0</asrwt>
<pdfrwt beam="1">  1        1 0.10072962E+00 0.30000000E+03</pdfrwt>
<pdfrwt beam="2">0</pdfrwt>
<totfact> 0.33864668E+01</totfact>
</mgrwt>
</event>
<event>
 6    1  0.1939311E-004  0.3000000E+03  0.7818608E-02  0.1093470E+00
          1   -1    0    0  502    0  0.00000000000E+00  0.00000000000E+00  0.32850754180E+02  0.32850754180E+02  0.00000000000E+00 0.  1.
         13   -1    0    0    0    0 -0.00000000000E+00 -0.00000000000E+00 -0.10000000000E+04  0.10000000000E+04  0.00000000000E+00 0.  1.
    9000005    2    1    2  501    0  0.43142208024E+01 -0.11051987406E+02 -0.97149103531E+03  0.10202170666E+04  0.31129932909E+03 0.  0.
         13    1    3    3    0    0  0.12351974641E+03 -0.86602134679E+02 -0.32222369859E+03  0.35578809623E+03  0.00000000000E+00 0.  1.
          1    1    3    3  501    0 -0.11920552561E+03  0.75550147273E+02 -0.64926733672E+03  0.66442897033E+03  0.00000000000E+00 0.  1.
         21    1    1    2  502  501 -0.43142208024E+01  0.11051987406E+02  0.43417894917E+01  0.12633687614E+02  0.00000000000E+00 0.  1.
<mgrwt>
<rscale>  1 0.30000000E+03</rscale>
<asrwt>0</asrwt>
<pdfrwt beam="1">  1        1 0.11945754E+00 0.30000000E+03</pdfrwt>
<pdfrwt beam="2">0</pdfrwt>
<totfact> 0.26180489E+01</totfact>
</mgrwt>
</event>
<event>
 6    1  0.1939311E-004  0.3000000E+03  0.7818608E-02  0.1093470E+00
          1   -1    0    0  502    0  0.00000000000E+00  0.00000000000E+00  0.48371479422E+02  0.48371479422E+02  0.00000000000E+00 0.  1.
         13   -1    0    0    0    0 -0.00000000000E+00 -0.00000000000E+00 -0.10000000000E+04  0.10000000000E+04  0.00000000000E+00 0.  1.
    9000005    2    1    2  501    0  0.20795187356E+02 -0.63987539127E+01 -0.96637601313E+03  0.10220870276E+04  0.33212333469E+03 0.  0.
         13    1    3    3    0    0  0.22993448518E+02 -0.75306402103E+02 -0.31713383373E+02  0.84885166887E+02  0.00000000000E+00 0.  1.
          3    1    3    3  501    0 -0.21982611616E+01  0.68907648190E+02 -0.93466262976E+03  0.93720186075E+03  0.00000000000E+00 0.  1.
         21    1    1    2  502  501 -0.20795187356E+02  0.63987539127E+01  0.14747492554E+02  0.26284451781E+02  0.00000000000E+00 0. -1.
<mgrwt>
<rscale>  1 0.30000000E+03</rscale>
<asrwt>0</asrwt>
<pdfrwt beam="1">  1        1 0.17589666E+00 0.30000000E+03</pdfrwt>
<pdfrwt beam="2">0</pdfrwt>
<totfact> 0.13373039E+01</totfact>
</mgrwt>
</event>
<event>
 6    1  0.1939311E-004  0.3000000E+03  0.7818608E-02  0.1093470E+00
          1   -1    0    0  502    0  0.00000000000E+00  0.00000000000E+00  0.54565767359E+02  0.54565767359E+02  0.00000000000E+00 0.  1.
         13   -1    0    0    0    0 -0.00000000000E+00 -0.00000000000E+00 -0.10000000000E+04  0.10000000000E+04  0.00000000000E+00 0.  1.
    9000005    2    1    2  501    0 -0.11342890750E+02  0.16112669212E+02 -0.97036465407E+03  0.10227883352E+04  0.32264552925E+03 0.  0.
         13    1    3    3    0    0 -0.15847494201E+03 -0.82734988416E+01 -0.34285538661E+03  0.37779964816E+03  0.00000000000E+00 0.  1.
          3    1    3    3  501    0  0.14713205126E+03  0.24386168053E+02 -0.62750926746E+03  0.64498868707E+03  0.00000000000E+00 0.  1.
         21    1    1    2  502  501  0.11342890750E+02 -0.16112669212E+02  0.24930421430E+02  0.31777432123E+02  0.00000000000E+00 0.  1.
<mgrwt>
<rscale>  1 0.30000000E+03</rscale>
<asrwt>0</asrwt>
<pdfrwt beam="1">  1        1 0.19842139E+00 0.30000000E+03</pdfrwt>
<pdfrwt beam="2">0</pdfrwt>
<totfact> 0.10422034E+01</totfact>
</mgrwt>
</event>
<event>
 6    1  0.1939311E-004  0.3000000E+03  0.7818608E-02  0.1093470E+00
          1   -1    0    0  502    0  0.00000000000E+00  0.00000000000E+00  0.53915675040E+02  0.53915675040E+02  0.00000000000E+00 0.  1.
         13   -1    0    0    0    0 -0.00000000000E+00 -0.00000000000E+00 -0.10000000000E+04  0.10000000000E+04  0.00000000000E+00 0.  1.
    9000005    2    1    2  501    0 -0.45543370810E+01 -0.17834927356E+02 -0.97227638807E+03  0.10219023842E+04  0.31404503090E+03 0.  0.
         13    1    3    3    0    0 -0.12095118697E+03  0.42993118780E+02 -0.77070084369E+03  0.78131772561E+03  0.00000000000E+00 0.  1.
          3    1    3    3  501    0  0.11639684988E+03 -0.60828046136E+02 -0.20157554438E+03  0.24058465860E+03  0.00000000000E+00 0.  1.
         21    1    1    2  502  501  0.45543370810E+01  0.17834927356E+02  0.26192063109E+02  0.32013290833E+02  0.00000000000E+00 0.  1.
<mgrwt>
<rscale>  1 0.30000000E+03</rscale>
<asrwt>0</asrwt>
<pdfrwt beam="1">  1        1 0.19605741E+00 0.30000000E+03</pdfrwt>
<pdfrwt beam="2">0</pdfrwt>
<totfact> 0.10695705E+01</totfact>
</mgrwt>
</event>
<event>
 6    1  0.1939311E-004  0.3000000E+03  0.7818608E-02  0.1093470E+00
          1   -1    0    0  502    0  0.00000000000E+00  0.00000000000E+00  0.35988242858E+02  0.35988242858E+02  0.00000000000E+00 0.  1.
         13   -1    0    0    0    0 -0.00000000000E+00 -0.00000000000E+00 -0.10000000000E+04  0.10000000000E+04  0.00000000000E+00 0.  1.
    9000005    2    1    2  501    0 -0.27615178285E+02  0.15776111871E+02 -0.93726356692E+03  0.99443166146E+03  0.33078671626E+03 0.  0.
         13    1    3    3    0    0  0.62141202486E+02  0.12165476062E+03 -0.74429403096E+03  0.75672651225E+03  0.00000000000E+00 0.  1.
          1    1    3    3  501    0 -0.89756380771E+02 -0.10587864874E+03 -0.19296953597E+03  0.23770514921E+03  0.00000000000E+00 0.  1.
         21    1    1    2  502  501  0.27615178285E+02 -0.15776111871E+02 -0.26748190217E+02  0.41556581397E+02  0.00000000000E+00 0.  1.
<mgrwt>
<rscale>  1 0.30000000E+03</rscale>
<asrwt>0</asrwt>
<pdfrwt beam="1">  1        1 0.13086661E+00 0.30000000E+03</pdfrwt>
<pdfrwt beam="2">0</pdfrwt>
<totfact> 0.22632940E+01</totfact>
</mgrwt>
</event>
<event>
 6    1  0.1939311E-004  0.3000000E+03  0.7818608E-02  0.1093470E+00
          1   -1    0    0  502    0  0.00000000000E+00  0.00000000000E+00  0.53759244481E+02  0.53759244481E+02  0.00000000000E+00 0.  1.
         13   -1    0    0    0    0 -0.00000000000E+00 -0.00000000000E+00 -0.10000000000E+04  0.10000000000E+04  0.00000000000E+00 0.  1.
    9000005    2    1    2  501    0  0.45620050471E+02 -0.18960916749E+02 -0.94958736598E+03  0.10042425284E+04  0.32302660086E+03 0.  0.
         13    1    3    3    0    0 -0.77867457791E+02 -0.92983303265E+02 -0.74058645669E+03  0.75045155440E+03  0.00000000000E+00 0.  1.
          3    1    3    3  501    0  0.12348750826E+03  0.74022386516E+02 -0.20900090929E+03  0.25379097400E+03  0.00000000000E+00 0.  1.
         21    1    1    2  502  501 -0.45620050471E+02  0.18960916749E+02  0.33466104637E+01  0.49516716072E+02  0.00000000000E+00 0.  1.
<mgrwt>
<rscale>  1 0.30000000E+03</rscale>
<asrwt>0</asrwt>
<pdfrwt beam="1">  1        1 0.19548857E+00 0.30000000E+03</pdfrwt>
<pdfrwt beam="2">0</pdfrwt>
<totfact> 0.10762747E+01</totfact>
</mgrwt>
</event>
<event>
 6    1  0.1939311E-004  0.3000000E+03  0.7818608E-02  0.1093470E+00
          1   -1    0    0  502    0  0.00000000000E+00  0.00000000000E+00  0.43484989306E+02  0.43484989306E+02  0.00000000000E+00 0.  1.
         13   -1    0    0    0    0 -0.00000000000E+00 -0.00000000000E+00 -0.10000000000E+04  0.10000000000E+04  0.00000000000E+00 0.  1.
    9000005    2    1    2  501    0 -0.29184382295E+01 -0.18839975413E+02 -0.96486943665E+03  0.10226701295E+04  0.33840464248E+03 0.  0.
         13    1    3    3    0    0  0.21369346263E+02  0.45799097904E+02  0.45968796614E+01  0.50747784495E+02  0.00000000000E+00 0.  1.
          1    1    3    3  501    0 -0.24287784492E+02 -0.64639073316E+02 -0.96946631631E+03  0.97192234502E+03  0.00000000000E+00 0.  1.
         21    1    1    2  502  501  0.29184382295E+01  0.18839975413E+02  0.83544259575E+01  0.20814859796E+02  0.00000000000E+00 0. -1.
<mgrwt>
<rscale>  1 0.30000000E+03</rscale>
<asrwt>0</asrwt>
<pdfrwt beam="1">  1        1 0.15812757E+00 0.30000000E+03</pdfrwt>
<pdfrwt beam="2">0</pdfrwt>
<totfact> 0.16350137E+01</totfact>
</mgrwt>
</event>
<event>
 6    1  0.1939311E-004  0.3000000E+03  0.7818608E-02  0.1093470E+00
          3   -1    0    0  502    0  0.00000000000E+00  0.00000000000E+00  0.39974991548E+02  0.39974991548E+02  0.00000000000E+00 0.  1.
         13   -1    0    0    0    0 -0.00000000000E+00 -0.00000000000E+00 -0.10000000000E+04  0.10000000000E+04  0.00000000000E+00 0.  1.
    9000005    2    1    2  501    0  0.27541909398E+02 -0.22805256617E+01 -0.89247610582E+03  0.96699135080E+03  0.37120737531E+03 0.  0.
         13    1    3    3    0    0 -0.75335627145E+02 -0.16073859374E+03 -0.34785215930E+03  0.39052973890E+03  0.00000000000E+00 0.  1.
          1    1    3    3  501    0  0.10287753654E+03  0.15845806808E+03 -0.54462394653E+03  0.57646161190E+03  0.00000000000E+00 0.  1.
         21    1    1    2  502  501 -0.27541909398E+02  0.22805256617E+01 -0.67548902628E+02  0.72983640748E+02  0.00000000000E+00 0.  1.
<mgrwt>
<rscale>  1 0.30000000E+03</rscale>
<asrwt>0</asrwt>
<pdfrwt beam="1">  1        3 0.14536391E+00 0.30000000E+03</pdfrwt>
<pdfrwt beam="2">0</pdfrwt>
<totfact> 0.11425078E+00</totfact>
</mgrwt>
</event>
<event>
 6    1  0.1939311E-004  0.3000000E+03  0.7818608E-02  0.1093470E+00
          1   -1    0    0  502    0  0.00000000000E+00  0.00000000000E+00  0.38859505818E+02  0.38859505818E+02  0.00000000000E+00 0.  1.
         13   -1    0    0    0    0 -0.00000000000E+00 -0.00000000000E+00 -0.10000000000E+04  0.10000000000E+04  0.00000000000E+00 0.  1.
    9000005    2    1    2  501    0 -0.86113387278E+01 -0.22271388306E+02 -0.95979502243E+03  0.10149433986E+04  0.32914046748E+03 0.  0.
         13    1    3    3    0    0 -0.11104145794E+03  0.98188528017E+02 -0.27794778744E+03  0.31500184914E+03  0.00000000000E+00 0.  1.
          3    1    3    3  501    0  0.10243011921E+03 -0.12045991632E+03 -0.68184723499E+03  0.69994154943E+03  0.00000000000E+00 0.  1.
         21    1    1    2  502  501  0.86113387278E+01  0.22271388306E+02 -0.13454717561E+01  0.23916107250E+02  0.00000000000E+00 0.  1.
<mgrwt>
<rscale>  1 0.30000000E+03</rscale>
<asrwt>0</asrwt>
<pdfrwt beam="1">  1        1 0.14130759E+00 0.30000000E+03</pdfrwt>
<pdfrwt beam="2">0</pdfrwt>
<totfact> 0.19915992E+01</totfact>
</mgrwt>
</event>
<event>
 6    1  0.1939311E-004  0.3000000E+03  0.7818608E-02  0.1093470E+00
          1   -1    0    0  502    0  0.00000000000E+00  0.00000000000E+00  0.54236988745E+02  0.54236988745E+02  0.00000000000E+00 0.  1.
         13   -1    0    0    0    0 -0.00000000000E+00 -0.00000000000E+00 -0.10000000000E+04  0.10000000000E+04  0.00000000000E+00 0.  1.
    9000005    2    1    2  501    0  0.53983861715E+02  0.24438140010E+01 -0.92637061418E+03  0.99682362256E+03  0.36410793746E+03 0.  0.
         13    1    3    3    0    0 -0.64368803146E+02 -0.11906236459E+03 -0.70534618189E+03  0.71821474907E+03  0.00000000000E+00 0.  1.
          3    1    3    3  501    0  0.11835266486E+03  0.12150617859E+03 -0.22102443229E+03  0.27860887349E+03  0.00000000000E+00 0.  1.
         21    1    1    2  502  501 -0.53983861715E+02 -0.24438140010E+01 -0.19392397073E+02  0.57413366185E+02  0.00000000000E+00 0.  1.
<mgrwt>
<rscale>  1 0.30000000E+03</rscale>
<asrwt>0</asrwt>
<pdfrwt beam="1">  1        1 0.19722583E+00 0.30000000E+03</pdfrwt>
<pdfrwt beam="2">0</pdfrwt>
<totfact> 0.10559472E+01</totfact>
</mgrwt>
</event>
<event>
 6    1  0.1939311E-004  0.3000000E+03  0.7818608E-02  0.1093470E+00
          1   -1    0    0  502    0  0.00000000000E+00  0.00000000000E+00  0.70784575398E+02  0.70784575398E+02  0.00000000000E+00 0.  1.
         13   -1    0    0    0    0 -0.00000000000E+00 -0.00000000000E+00 -0.10000000000E+04  0.10000000000E+04  0.00000000000E+00 0.  1.
    9000005    2    1    2  501    0 -0.62806075788E+02 -0.49425932673E+02 -0.93305499902E+03  0.99077039973E+03  0.32349161937E+03 0.  0.
         13    1    3    3    0    0  0.81227944489E+01 -0.47077488823E+02  0.67870069686E+01  0.48252805174E+02  0.00000000000E+00 0.  1.
          3    1    3    3  501    0 -0.70928870237E+02 -0.23484438501E+01 -0.93984200599E+03  0.94251759455E+03  0.00000000000E+00 0.  1.
         21    1    1    2  502  501  0.62806075788E+02  0.49425932673E+02  0.38395744181E+01  0.80014175671E+02  0.00000000000E+00 0.  1.
<mgrwt>
<rscale>  1 0.30000000E+03</rscale>
<asrwt>0</asrwt>
<pdfrwt beam="1">  1        1 0.25739900E+00 0.30000000E+03</pdfrwt>
<pdfrwt beam="2">0</pdfrwt>
<totfact> 0.55107221E+00</totfact>
</mgrwt>
</event>
<event>
 6    1  0.1939311E-004  0.3000000E+03  0.7818608E-02  0.1093470E+00
          1   -1    0    0  502    0  0.00000000000E+00  0.00000000000E+00  0.37248651553E+02  0.37248651553E+02  0.00000000000E+00 0.  1.
         13   -1    0    0    0    0 -0.00000000000E+00 -0.00000000000E+00 -0.10000000000E+04  0.10000000000E+04  0.00000000000E+00 0.  1.
    9000005    2    1    2  501    0 -0.47923697748E+02 -0.13923009902E+02 -0.89326837111E+03  0.95170091547E+03  0.32452383373E+03 0.  0.
         13    1    3    3    0    0  0.68826563433E+02 -0.11437548904E+03 -0.19280654507E+03  0.23450631579E+03  0.00000000000E+00 0.  1.
          3    1    3    3  501    0 -0.11675026118E+03  0.10045247913E+03 -0.70046182605E+03  0.71719459967E+03  0.00000000000E+00 0.  1.
         21    1    1    2  502  501  0.47923697748E+02  0.13923009902E+02 -0.69482977333E+02  0.85547736087E+02  0.00000000000E+00 0.  1.
<mgrwt>
<rscale>  1 0.30000000E+03</rscale>
<asrwt>0</asrwt>
<pdfrwt beam="1">  1        1 0.13544993E+00 0.30000000E+03</pdfrwt>
<pdfrwt beam="2">0</pdfrwt>
<totfact> 0.21384010E+01</totfact>
</mgrwt>
</event>
<event>
 6    1  0.1939311E-004  0.3000000E+03  0.7818608E-02  0.1093470E+00
          1   -1    0    0  502    0  0.00000000000E+00  0.00000000000E+00  0.31336739348E+02  0.31336739348E+02  0.00000000000E+00 0.  1.
         13   -1    0    0    0    0 -0.00000000000E+00 -0.00000000000E+00 -0.10000000000E+04  0.10000000000E+04  0.00000000000E+00 0.  1.
    9000005    2    1    2  501    0 -0.92828284092E+01 -0.71915004508E+01 -0.96727853018E+03  0.10195127781E+04  0.32193269654E+03 0.  0.
         13    1    3    3    0    0  0.67019788044E+02  0.88062453109E+02 -0.82357162410E+03  0.83097344583E+03  0.00000000000E+00 0.  1.
          3    1    3    3  501    0 -0.76302616453E+02 -0.95253953560E+02 -0.14370690607E+03  0.18853933224E+03  0.00000000000E+00 0.  1.
         21    1    1    2  502  501  0.92828284092E+01  0.71915004508E+01 -0.13847304733E+01  0.11823961286E+02  0.00000000000E+00 0.  1.
<mgrwt>
<rscale>  1 0.30000000E+03</rscale>
<asrwt>0</asrwt>
<pdfrwt beam="1">  1        1 0.11395202E+00 0.30000000E+03</pdfrwt>
<pdfrwt beam="2">0</pdfrwt>
<totfact> 0.28158206E+01</totfact>
</mgrwt>
</event>
<event>
 6    1  0.1939311E-004  0.3000000E+03  0.7818608E-02  0.1093470E+00
          1   -1    0    0  502    0  0.00000000000E+00  0.00000000000E+00  0.40914743756E+02  0.40914743756E+02  0.00000000000E+00 0.  1.
         13   -1    0    0    0    0 -0.00000000000E+00 -0.00000000000E+00 -0.10000000000E+04  0.10000000000E+04  0.00000000000E+00 0.  1.
    9000005    2    1    2  501    0  0.89439700082E+01  0.29622069850E+02 -0.94612293212E+03  0.10073665177E+04  0.34450143218E+03 0.  0.
         13    1    3    3    0    0 -0.13594442303E+03  0.10961276412E+03 -0.39387166429E+03  0.43084885069E+03  0.00000000000E+00 0.  1.
          3    1    3    3  501    0  0.14488839304E+03 -0.79990694273E+02 -0.55225126783E+03  0.57651766706E+03  0.00000000000E+00 0.  1.
         21    1    1    2  502  501 -0.89439700082E+01 -0.29622069850E+02 -0.12962324125E+02  0.33548226010E+02  0.00000000000E+00 0. -1.
<mgrwt>
<rscale>  1 0.30000000E+03</rscale>
<asrwt>0</asrwt>
<pdfrwt beam="1">  1        1 0.14878120E+00 0.30000000E+03</pdfrwt>
<pdfrwt beam="2">0</pdfrwt>
<totfact> 0.18223599E+01</totfact>
</mgrwt>
</event>
<event>
 6    1  0.1939311E-004  0.3000000E+03  0.7818608E-02  0.1093470E+00
          1   -1    0    0  502    0  0.00000000000E+00  0.00000000000E+00  0.26454950652E+02  0.26454950652E+02  0.00000000000E+00 0.  1.
         13   -1    0    0    0    0 -0.00000000000E+00 -0.00000000000E+00 -0.10000000000E+04  0.10000000000E+04  0.00000000000E+00 0.  1.
    9000005    2    1    2  501    0 -0.84916036904E+01 -0.31531681533E+01 -0.94254759039E+03  0.99416110813E+03  0.31603528122E+03 0.  0.
         13    1    3    3    0    0  0.65099810351E+02 -0.63987425348E+02 -0.66526411373E+02  0.11295193367E+03  0.00000000000E+00 0.  1.
          1    1    3    3  501    0 -0.73591414042E+02  0.60834257195E+02 -0.87602117901E+03  0.88120917446E+03  0.00000000000E+00 0.  1.
         21    1    1    2  502  501  0.84916036904E+01  0.31531681533E+01 -0.30997458960E+02  0.32293842519E+02  0.00000000000E+00 0. -1.
<mgrwt>
<rscale>  1 0.30000000E+03</rscale>
<asrwt>0</asrwt>
<pdfrwt beam="1">  1        1 0.96200023E-01 0.30000000E+03</pdfrwt>
<pdfrwt beam="2">0</pdfrwt>
<totfact> 0.36209534E+01</totfact>
</mgrwt>
</event>
<event>
 6    1  0.1939311E-004  0.3000000E+03  0.7818608E-02  0.1093470E+00
          1   -1    0    0  502    0  0.00000000000E+00  0.00000000000E+00  0.41089559773E+02  0.41089559773E+02  0.00000000000E+00 0.  1.
         13   -1    0    0    0    0 -0.00000000000E+00 -0.00000000000E+00 -0.10000000000E+04  0.10000000000E+04  0.00000000000E+00 0.  1.
    9000005    2    1    2  501    0  0.19861710935E+02 -0.51723238082E+00 -0.96966330785E+03  0.10184979850E+04  0.31096054362E+03 0.  0.
         13    1    3    3    0    0  0.10483185123E+03 -0.12331600437E+03 -0.47816298323E+03  0.50481322536E+03  0.00000000000E+00 0.  1.
          1    1    3    3  501    0 -0.84970140298E+02  0.12279877199E+03 -0.49150032461E+03  0.51368475959E+03  0.00000000000E+00 0.  1.
         21    1    1    2  502  501 -0.19861710935E+02  0.51723238082E+00  0.10752867621E+02  0.22591574816E+02  0.00000000000E+00 0. -1.
<mgrwt>
<rscale>  1 0.30000000E+03</rscale>
<asrwt>0</asrwt>
<pdfrwt beam="1">  1        1 0.14941690E+00 0.30000000E+03</pdfrwt>
<pdfrwt beam="2">0</pdfrwt>
<totfact> 0.18088124E+01</totfact>
</mgrwt>
</event>
<event>
 6    1  0.1939311E-004  0.3000000E+03  0.7818608E-02  0.1093470E+00
          3   -1    0    0  502    0  0.00000000000E+00  0.00000000000E+00  0.20514254897E+02  0.20514254897E+02  0.00000000000E+00 0.  1.
         13   -1    0    0    0    0 -0.00000000000E+00 -0.00000000000E+00 -0.10000000000E+04  0.10000000000E+04  0.00000000000E+00 0.  1.
    9000005    2    1    2  501    0 -0.45623057290E+02 -0.15945128103E+01 -0.71067640874E+03  0.74785610786E+03  0.22835015722E+03 0.  0.
         13    1    3    3    0    0 -0.11544907484E+03  0.35259304136E+02 -0.22066810273E+03  0.25152757099E+03  0.00000000000E+00 0.  1.
          3    1    3    3  501    0  0.69826017546E+02 -0.36853816946E+02 -0.49000830601E+03  0.49632853687E+03  0.00000000000E+00 0.  1.
         21    1    1    2  502  501  0.45623057290E+02  0.15945128103E+01 -0.26880933636E+03  0.27265814703E+03  0.00000000000E+00 0.  1.
<mgrwt>
<rscale>  1 0.30000000E+03</rscale>
<asrwt>0</asrwt>
<pdfrwt beam="1">  1        3 0.74597448E-01 0.30000000E+03</pdfrwt>
<pdfrwt beam="2">0</pdfrwt>
<totfact> 0.77973454E+00</totfact>
</mgrwt>
</event>
<event>
 6    1  0.1939311E-004  0.3000000E+03  0.7818608E-02  0.1093470E+00
          1   -1    0    0  502    0  0.00000000000E+00  0.00000000000E+00  0.42565571010E+02  0.42565571010E+02  0.00000000000E+00 0.  1.
         13   -1    0    0    0    0 -0.00000000000E+00 -0.00000000000E+00 -0.10000000000E+04  0.10000000000E+04  0.00000000000E+00 0.  1.
    9000005    2    1    2  501    0  0.19495172041E+02 -0.46995894965E+02 -0.92117362669E+03  0.98008740154E+03  0.33078964354E+03 0.  0.
         13    1    3    3    0    0 -0.27471770580E+02  0.70589077008E+02 -0.32475598898E+02  0.82414686163E+02  0.00000000000E+00 0.  1.
          3    1    3    3  501    0  0.46966942621E+02 -0.11758497197E+03 -0.88869802779E+03  0.89767271538E+03  0.00000000000E+00 0.  1.
         21    1    1    2  502  501 -0.19495172041E+02  0.46995894965E+02 -0.36260802299E+02  0.62478169466E+02  0.00000000000E+00 0.  1.
<mgrwt>
<rscale>  1 0.30000000E+03</rscale>
<asrwt>0</asrwt>
<pdfrwt beam="1">  1        1 0.15478422E+00 0.30000000E+03</pdfrwt>
<pdfrwt beam="2">0</pdfrwt>
<totfact> 0.16992286E+01</totfact>
</mgrwt>
</event>
<event>
 6    1  0.1939311E-004  0.3000000E+03  0.7818608E-02  0.1093470E+00
          3   -1    0    0  502    0  0.00000000000E+00  0.00000000000E+00  0.33212799166E+02  0.33212799166E+02  0.00000000000E+00 0.  1.
         13   -1    0    0    0    0 -0.00000000000E+00 -0.00000000000E+00 -0.10000000000E+04  0.10000000000E+04  0.00000000000E+00 0.  1.
    9000005    2    1    2  501    0  0.23104347321E+01 -0.27487670386E+02 -0.94970166817E+03  0.10007655257E+04  0.31438426914E+03 0.  0.
         13    1    3    3    0    0  0.98276714783E+02  0.35742754089E+02 -0.10468243802E+03  0.14796712462E+03  0.00000000000E+00 0.  1.
          1    1    3    3  501    0 -0.95966280051E+02 -0.63230424475E+02 -0.84501923015E+03  0.85279840104E+03  0.00000000000E+00 0.  1.
         21    1    1    2  502  501 -0.23104347321E+01  0.27487670386E+02 -0.17085532668E+02  0.32447273514E+02  0.00000000000E+00 0.  1.
<mgrwt>
<rscale>  1 0.30000000E+03</rscale>
<asrwt>0</asrwt>
<pdfrwt beam="1">  1        3 0.12077407E+00 0.30000000E+03</pdfrwt>
<pdfrwt beam="2">0</pdfrwt>
<totfact> 0.22656641E+00</totfact>
</mgrwt>
</event>
<event>
 6    1  0.1939311E-004  0.3000000E+03  0.7818608E-02  0.1093470E+00
          1   -1    0    0  502    0  0.00000000000E+00  0.00000000000E+00  0.40603084061E+02  0.40603084061E+02  0.00000000000E+00 0.  1.
         13   -1    0    0    0    0 -0.00000000000E+00 -0.00000000000E+00 -0.10000000000E+04  0.10000000000E+04  0.00000000000E+00 0.  1.
    9000005    2    1    2  501    0  0.42674939920E+02  0.96772136664E+01 -0.93568734717E+03  0.99083419204E+03  0.32299657196E+03 0.  0.
         13    1    3    3    0    0  0.17086729922E+02  0.92834622312E+02 -0.62245275316E+02  0.11306943768E+03  0.00000000000E+00 0.  1.
          3    1    3    3  501    0  0.25588209998E+02 -0.83157408646E+02 -0.87344207186E+03  0.87776475436E+03  0.00000000000E+00 0.  1.
         21    1    1    2  502  501 -0.42674939920E+02 -0.96772136664E+01 -0.23709568765E+02  0.49768892016E+02  0.00000000000E+00 0.  1.
<mgrwt>
<rscale>  1 0.30000000E+03</rscale>
<asrwt>0</asrwt>
<pdfrwt beam="1">  1        1 0.14764789E+00 0.30000000E+03</pdfrwt>
<pdfrwt beam="2">0</pdfrwt>
<totfact> 0.18468278E+01</totfact>
</mgrwt>
</event>
<event>
 6    1  0.1939311E-004  0.3000000E+03  0.7818608E-02  0.1093470E+00
          3   -1    0    0  502    0  0.00000000000E+00  0.00000000000E+00  0.39401457723E+02  0.39401457723E+02  0.00000000000E+00 0.  1.
         13   -1    0    0    0    0 -0.00000000000E+00 -0.00000000000E+00 -0.10000000000E+04  0.10000000000E+04  0.00000000000E+00 0.  1.
    9000005    2    1    2  501    0  0.51384551555E+02 -0.99593448564E+01 -0.88025595327E+03  0.94351354244E+03  0.33560050777E+03 0.  0.
         13    1    3    3    0    0  0.18494350063E+02  0.43441922605E+02 -0.87952559597E+03  0.88079198202E+03  0.00000000000E+00 0.  1.
          1    1    3    3  501    0  0.32890201493E+02 -0.53401267461E+02 -0.73035730634E+00  0.62721560428E+02  0.00000000000E+00 0.  1.
         21    1    1    2  502  501 -0.51384551555E+02  0.99593448564E+01 -0.80342589004E+02  0.95887915278E+02  0.00000000000E+00 0.  1.
<mgrwt>
<rscale>  1 0.30000000E+03</rscale>
<asrwt>0</asrwt>
<pdfrwt beam="1">  1        3 0.14327833E+00 0.30000000E+03</pdfrwt>
<pdfrwt beam="2">0</pdfrwt>
<totfact> 0.12163431E+00</totfact>
</mgrwt>
</event>
<event>
 6    1  0.1939311E-004  0.3000000E+03  0.7818608E-02  0.1093470E+00
          1   -1    0    0  502    0  0.00000000000E+00  0.00000000000E+00  0.59645693577E+02  0.59645693577E+02  0.00000000000E+00 0.  1.
         13   -1    0    0    0    0 -0.00000000000E+00 -0.00000000000E+00 -0.10000000000E+04  0.10000000000E+04  0.00000000000E+00 0.  1.
    9000005    2    1    2  501    0 -0.15184575737E+01 -0.13131485084E+02 -0.97114427529E+03  0.10261380258E+04  0.33115450026E+03 0.  0.
         13    1    3    3    0    0 -0.97301339701E+02 -0.12021080681E+03 -0.27669160068E+03  0.31698017393E+03  0.00000000000E+00 0.  1.
          3    1    3    3  501    0  0.95782882127E+02  0.10707932172E+03 -0.69445267462E+03  0.70915785191E+03  0.00000000000E+00 0.  1.
         21    1    1    2  502  501  0.15184575737E+01  0.13131485084E+02  0.30789968869E+02  0.33507667732E+02  0.00000000000E+00 0.  1.
<mgrwt>
<rscale>  1 0.30000000E+03</rscale>
<asrwt>0</asrwt>
<pdfrwt beam="1">  1        1 0.21689389E+00 0.30000000E+03</pdfrwt>
<pdfrwt beam="2">0</pdfrwt>
<totfact> 0.85245452E+00</totfact>
</mgrwt>
</event>
<event>
 6    1  0.1939311E-004  0.3000000E+03  0.7818608E-02  0.1093470E+00
          1   -1    0    0  502    0  0.00000000000E+00  0.00000000000E+00  0.44416700257E+02  0.44416700257E+02  0.00000000000E+00 0.  1.
         13   -1    0    0    0    0 -0.00000000000E+00 -0.00000000000E+00 -0.10000000000E+04  0.10000000000E+04  0.00000000000E+00 0.  1.
    9000005    2    1    2  501    0  0.14223691882E+02  0.73896644346E+01 -0.96667332418E+03  0.10249254409E+04  0.34023216055E+03 0.  0.
         13    1    3    3    0    0  0.15056231987E+03 -0.63013995911E+02 -0.68491790063E+03  0.70409680190E+03  0.00000000000E+00 0.  1.
          3    1    3    3  501    0 -0.13633862798E+03  0.70403660345E+02 -0.28175542355E+03  0.32082863895E+03  0.00000000000E+00 0.  1.
         21    1    1    2  502  501 -0.14223691882E+02 -0.73896644346E+01  0.11090024436E+02  0.19491259406E+02  0.00000000000E+00 0.  1.
<mgrwt>
<rscale>  1 0.30000000E+03</rscale>
<asrwt>0</asrwt>
<pdfrwt beam="1">  1        1 0.16151561E+00 0.30000000E+03</pdfrwt>
<pdfrwt beam="2">0</pdfrwt>
<totfact> 0.15728379E+01</totfact>
</mgrwt>
</event>
<event>
 6    1  0.1939311E-004  0.3000000E+03  0.7818608E-02  0.1093470E+00
          1   -1    0    0  502    0  0.00000000000E+00  0.00000000000E+00  0.34639910767E+02  0.34639910767E+02  0.00000000000E+00 0.  1.
         13   -1    0    0    0    0 -0.00000000000E+00 -0.00000000000E+00 -0.10000000000E+04  0.10000000000E+04  0.00000000000E+00 0.  1.
    9000005    2    1    2  501    0  0.74671116526E+00 -0.34465561751E+02 -0.90720284654E+03  0.96703297767E+03  0.33308759001E+03 0.  0.
         13    1    3    3    0    0  0.11423564265E+03 -0.11659572181E+03 -0.68637932909E+03  0.70552174155E+03  0.00000000000E+00 0.  1.
          3    1    3    3  501    0 -0.11348893148E+03  0.82130160063E+02 -0.22082351745E+03  0.26151123612E+03  0.00000000000E+00 0.  1.
         21    1    1    2  502  501 -0.74671116526E+00  0.34465561751E+02 -0.58157242697E+02  0.67606933095E+02  0.00000000000E+00 0. -1.
<mgrwt>
<rscale>  1 0.30000000E+03</rscale>
<asrwt>0</asrwt>
<pdfrwt beam="1">  1        1 0.12596358E+00 0.30000000E+03</pdfrwt>
<pdfrwt beam="2">0</pdfrwt>
<totfact> 0.24076487E+01</totfact>
</mgrwt>
</event>
<event>
 6    1  0.1939311E-004  0.3000000E+03  0.7818608E-02  0.1093470E+00
          1   -1    0    0  502    0  0.00000000000E+00  0.00000000000E+00  0.34385843161E+02  0.34385843161E+02  0.00000000000E+00 0.  1.
         13   -1    0    0    0    0 -0.00000000000E+00 -0.00000000000E+00 -0.10000000000E+04  0.10000000000E+04  0.00000000000E+00 0.  1.
    9000005    2    1    2  501    0 -0.13495885056E+01 -0.10061723739E+02 -0.97079621175E+03  0.10229878887E+04  0.32242189118E+03 0.  0.
         13    1    3    3    0    0 -0.14253550116E+03  0.71553474354E+02 -0.47491025838E+03  0.50097507154E+03  0.00000000000E+00 0.  1.
          3    1    3    3  501    0  0.14118591265E+03 -0.81615198093E+02 -0.49588595337E+03  0.52201281712E+03  0.00000000000E+00 0.  1.
         21    1    1    2  502  501  0.13495885056E+01  0.10061723739E+02  0.51820549141E+01  0.11397954504E+02  0.00000000000E+00 0.  1.
<mgrwt>
<rscale>  1 0.30000000E+03</rscale>
<asrwt>0</asrwt>
<pdfrwt beam="1">  1        1 0.12503969E+00 0.30000000E+03</pdfrwt>
<pdfrwt beam="2">0</pdfrwt>
<totfact> 0.24361599E+01</totfact>
</mgrwt>
</event>
<event>
 6    1  0.1939311E-004  0.3000000E+03  0.7818608E-02  0.1093470E+00
          1   -1    0    0  502    0  0.00000000000E+00  0.00000000000E+00  0.34650967595E+02  0.34650967595E+02  0.00000000000E+00 0.  1.
         13   -1    0    0    0    0 -0.00000000000E+00 -0.00000000000E+00 -0.10000000000E+04  0.10000000000E+04  0.00000000000E+00 0.  1.
    9000005    2    1    2  501    0 -0.33598466274E+02  0.15414476515E+02 -0.88626234846E+03  0.94735167435E+03  0.33263761301E+03 0.  0.
         13    1    3    3    0    0  0.10267487290E+03 -0.44200711547E+02 -0.70056591088E+03  0.70942824015E+03  0.00000000000E+00 0.  1.
          1    1    3    3  501    0 -0.13627333918E+03  0.59615188062E+02 -0.18569643757E+03  0.23792343421E+03  0.00000000000E+00 0.  1.
         21    1    1    2  502  501  0.33598466274E+02 -0.15414476515E+02 -0.79086683949E+02  0.87299293240E+02  0.00000000000E+00 0.  1.
<mgrwt>
<rscale>  1 0.30000000E+03</rscale>
<asrwt>0</asrwt>
<pdfrwt beam="1">  1        1 0.12600378E+00 0.30000000E+03</pdfrwt>
<pdfrwt beam="2">0</pdfrwt>
<totfact> 0.24064175E+01</totfact>
</mgrwt>
</event>
<event>
 6    1  0.1939311E-004  0.3000000E+03  0.7818608E-02  0.1093470E+00
          1   -1    0    0  502    0  0.00000000000E+00  0.00000000000E+00  0.26716681242E+02  0.26716681242E+02  0.00000000000E+00 0.  1.
         13   -1    0    0    0    0 -0.00000000000E+00 -0.00000000000E+00 -0.10000000000E+04  0.10000000000E+04  0.00000000000E+00 0.  1.
    9000005    2    1    2  501    0  0.12444116991E+02 -0.37980773056E+01 -0.95974450468E+03  0.10079395429E+04  0.30767405866E+03 0.  0.
         13    1    3    3    0    0  0.11870972892E+02  0.10179374815E+03 -0.84810003947E+03  0.85426960856E+03  0.00000000000E+00 0.  1.
          3    1    3    3  501    0  0.57314409892E+00 -0.10559182546E+03 -0.11164446521E+03  0.15366993431E+03  0.00000000000E+00 0.  1.
         21    1    1    2  502  501 -0.12444116991E+02  0.37980773056E+01 -0.13538814075E+02  0.18777138373E+02  0.00000000000E+00 0. -1.
<mgrwt>
<rscale>  1 0.30000000E+03</rscale>
<asrwt>0</asrwt>
<pdfrwt beam="1">  1        1 0.97151773E-01 0.30000000E+03</pdfrwt>
<pdfrwt beam="2">0</pdfrwt>
<totfact> 0.35697318E+01</totfact>
</mgrwt>
</event>
<event>
 6    1  0.1939311E-004  0.3000000E+03  0.7818608E-02  0.1093470E+00
          1   -1    0    0  502    0  0.00000000000E+00  0.00000000000E+00  0.63505243029E+02  0.63505243029E+02  0.00000000000E+00 0.  1.
         13   -1    0    0    0    0 -0.00000000000E+00 -0.00000000000E+00 -0.10000000000E+04  0.10000000000E+04  0.00000000000E+00 0.  1.
    9000005    2    1    2  501    0  0.58456811553E+02 -0.21038204377E+02 -0.94539474864E+03  0.10007436727E+04  0.32226830872E+03 0.  0.
         13    1    3    3    0    0  0.13500001564E+03 -0.33387252206E+01 -0.15141200881E+03  0.20288358169E+03  0.00000000000E+00 0.  1.
          3    1    3    3  501    0 -0.76543204085E+02 -0.17699479157E+02 -0.79398273983E+03  0.79786009099E+03  0.00000000000E+00 0.  1.
         21    1    1    2  502  501 -0.58456811553E+02  0.21038204377E+02  0.88999916673E+01  0.62761570344E+02  0.00000000000E+00 0.  1.
<mgrwt>
<rscale>  1 0.30000000E+03</rscale>
<asrwt>0</asrwt>
<pdfrwt beam="1">  1        1 0.23092864E+00 0.30000000E+03</pdfrwt>
<pdfrwt beam="2">0</pdfrwt>
<totfact> 0.73267126E+00</totfact>
</mgrwt>
</event>
<event>
 6    1  0.1939311E-004  0.3000000E+03  0.7818608E-02  0.1093470E+00
          1   -1    0    0  502    0  0.00000000000E+00  0.00000000000E+00  0.29171854267E+02  0.29171854267E+02  0.00000000000E+00 0.  1.
         13   -1    0    0    0    0 -0.00000000000E+00 -0.00000000000E+00 -0.10000000000E+04  0.10000000000E+04  0.00000000000E+00 0.  1.
    9000005    2    1    2  501    0 -0.10708395988E+01  0.17416557104E+02 -0.94304075061E+03  0.99635992829E+03  0.32109619466E+03 0.  0.
         13    1    3    3    0    0 -0.34602004812E+02 -0.11981904504E+03 -0.73103211818E+03  0.74159413435E+03  0.00000000000E+00 0.  1.
          3    1    3    3  501    0  0.33531165213E+02  0.13723560214E+03 -0.21200863242E+03  0.25476579393E+03  0.00000000000E+00 0.  1.
         21    1    1    2  502  501  0.10708395988E+01 -0.17416557104E+02 -0.27787395124E+02  0.32811925981E+02  0.00000000000E+00 0. -1.
<mgrwt>
<rscale>  1 0.30000000E+03</rscale>
<asrwt>0</asrwt>
<pdfrwt beam="1">  1        1 0.10607969E+00 0.30000000E+03</pdfrwt>
<pdfrwt beam="2">0</pdfrwt>
<totfact> 0.31371583E+01</totfact>
</mgrwt>
</event>
<event>
 6    1  0.1939311E-004  0.3000000E+03  0.7818608E-02  0.1093470E+00
          1   -1    0    0  502    0  0.00000000000E+00  0.00000000000E+00  0.38845465930E+02  0.38845465930E+02  0.00000000000E+00 0.  1.
         13   -1    0    0    0    0 -0.00000000000E+00 -0.00000000000E+00 -0.10000000000E+04  0.10000000000E+04  0.00000000000E+00 0.  1.
    9000005    2    1    2  501    0  0.38157344476E+02  0.38410683345E+01 -0.94078799029E+03  0.99542274320E+03  0.32297625032E+03 0.  0.
         13    1    3    3    0    0  0.24262786560E+02  0.15358432639E+03 -0.64650674482E+03  0.66494195177E+03  0.00000000000E+00 0.  1.
          1    1    3    3  501    0  0.13894557916E+02 -0.14974325806E+03 -0.29428124547E+03  0.33048079144E+03  0.00000000000E+00 0.  1.
         21    1    1    2  502  501 -0.38157344476E+02 -0.38410683345E+01 -0.20366543782E+02  0.43422722727E+02  0.00000000000E+00 0.  1.
<mgrwt>
<rscale>  1 0.30000000E+03</rscale>
<asrwt>0</asrwt>
<pdfrwt beam="1">  1        1 0.14125654E+00 0.30000000E+03</pdfrwt>
<pdfrwt beam="2">0</pdfrwt>
<totfact> 0.19928221E+01</totfact>
</mgrwt>
</event>
<event>
 6    1  0.1939311E-004  0.3000000E+03  0.7818608E-02  0.1093470E+00
          1   -1    0    0  502    0  0.00000000000E+00  0.00000000000E+00  0.24555486212E+02  0.24555486212E+02  0.00000000000E+00 0.  1.
         13   -1    0    0    0    0 -0.00000000000E+00 -0.00000000000E+00 -0.10000000000E+04  0.10000000000E+04  0.00000000000E+00 0.  1.
    9000005    2    1    2  501    0  0.24095075537E+01 -0.24088678127E+02 -0.94599762605E+03  0.98643476563E+03  0.27848872185E+03 0.  0.
         13    1    3    3    0    0 -0.10270220479E+03  0.39882352210E+02 -0.18320439628E+03  0.21378071873E+03  0.00000000000E+00 0.  1.
          1    1    3    3  501    0  0.10511171234E+03 -0.63971030337E+02 -0.76279322977E+03  0.77265404689E+03  0.00000000000E+00 0.  1.
         21    1    1    2  502  501 -0.24095075537E+01  0.24088678127E+02 -0.29446887736E+02  0.38120720584E+02  0.00000000000E+00 0. -1.
<mgrwt>
<rscale>  1 0.30000000E+03</rscale>
<asrwt>0</asrwt>
<pdfrwt beam="1">  1        1 0.89292865E-01 0.30000000E+03</pdfrwt>
<pdfrwt beam="2">0</pdfrwt>
<totfact> 0.40279329E+01</totfact>
</mgrwt>
</event>
<event>
 6    1  0.1939311E-004  0.3000000E+03  0.7818608E-02  0.1093470E+00
          1   -1    0    0  502    0  0.00000000000E+00  0.00000000000E+00  0.37257080710E+02  0.37257080710E+02  0.00000000000E+00 0.  1.
         13   -1    0    0    0    0 -0.00000000000E+00 -0.00000000000E+00 -0.10000000000E+04  0.10000000000E+04  0.00000000000E+00 0.  1.
    9000005    2    1    2  501    0  0.11171276727E+01 -0.46529645055E+02 -0.88572034206E+03  0.94726411851E+03  0.33262971910E+03 0.  0.
         13    1    3    3    0    0 -0.44532361767E+02 -0.17227498634E+03 -0.67174852295E+03  0.69491573607E+03  0.00000000000E+00 0.  1.
          3    1    3    3  501    0  0.45649489440E+02  0.12574534129E+03 -0.21397181912E+03  0.25234838244E+03  0.00000000000E+00 0.  1.
         21    1    1    2  502  501 -0.11171276727E+01  0.46529645055E+02 -0.77022577227E+02  0.89992962202E+02  0.00000000000E+00 0.  1.
<mgrwt>
<rscale>  1 0.30000000E+03</rscale>
<asrwt>0</asrwt>
<pdfrwt beam="1">  1        1 0.13548058E+00 0.30000000E+03</pdfrwt>
<pdfrwt beam="2">0</pdfrwt>
<totfact> 0.21375968E+01</totfact>
</mgrwt>
</event>
<event>
 6    1  0.1939311E-004  0.3000000E+03  0.7818608E-02  0.1093470E+00
          3   -1    0    0  502    0  0.00000000000E+00  0.00000000000E+00  0.29656740445E+02  0.29656740445E+02  0.00000000000E+00 0.  1.
         13   -1    0    0    0    0 -0.00000000000E+00 -0.00000000000E+00 -0.10000000000E+04  0.10000000000E+04  0.00000000000E+00 0.  1.
    9000005    2    1    2  501    0  0.41657609667E+01 -0.10069491780E+02 -0.96434578286E+03  0.10172181732E+04  0.32349849255E+03 0.  0.
         13    1    3    3    0    0 -0.15915720300E+03 -0.62774729732E+01 -0.43548670100E+03  0.46370150817E+03  0.00000000000E+00 0.  1.
          1    1    3    3  501    0  0.16332296397E+03 -0.37920188069E+01 -0.52885908186E+03  0.55351666500E+03  0.00000000000E+00 0.  1.
         21    1    1    2  502  501 -0.41657609667E+01  0.10069491780E+02 -0.59974766958E+01  0.12438567275E+02  0.00000000000E+00 0. -1.
<mgrwt>
<rscale>  1 0.30000000E+03</rscale>
<asrwt>0</asrwt>
<pdfrwt beam="1">  1        3 0.10784292E+00 0.30000000E+03</pdfrwt>
<pdfrwt beam="2">0</pdfrwt>
<totfact> 0.31890647E+00</totfact>
</mgrwt>
</event>
<event>
 6    1  0.1939311E-004  0.3000000E+03  0.7818608E-02  0.1093470E+00
          1   -1    0    0  502    0  0.00000000000E+00  0.00000000000E+00  0.41630245909E+02  0.41630245909E+02  0.00000000000E+00 0.  1.
         13   -1    0    0    0    0 -0.00000000000E+00 -0.00000000000E+00 -0.10000000000E+04  0.10000000000E+04  0.00000000000E+00 0.  1.
    9000005    2    1    2  501    0 -0.22312059922E+02 -0.32122003106E+02 -0.94362216864E+03  0.99983141365E+03  0.32819263775E+03 0.  0.
         13    1    3    3    0    0 -0.15779947299E+03 -0.73891892786E+02 -0.66181974468E+03  0.68437274927E+03  0.00000000000E+00 0.  1.
          3    1    3    3  501    0  0.13548741307E+03  0.41769889680E+02 -0.28180242395E+03  0.31545866438E+03  0.00000000000E+00 0.  1.
         21    1    1    2  502  501  0.22312059922E+02  0.32122003106E+02 -0.14747585454E+02  0.41798832259E+02  0.00000000000E+00 0.  1.
<mgrwt>
<rscale>  1 0.30000000E+03</rscale>
<asrwt>0</asrwt>
<pdfrwt beam="1">  1        1 0.15138303E+00 0.30000000E+03</pdfrwt>
<pdfrwt beam="2">0</pdfrwt>
<totfact> 0.17676935E+01</totfact>
</mgrwt>
</event>
<event>
 6    1  0.1939311E-004  0.3000000E+03  0.7818608E-02  0.1093470E+00
          1   -1    0    0  502    0  0.00000000000E+00  0.00000000000E+00  0.34072223526E+02  0.34072223526E+02  0.00000000000E+00 0.  1.
         13   -1    0    0    0    0 -0.00000000000E+00 -0.00000000000E+00 -0.10000000000E+04  0.10000000000E+04  0.00000000000E+00 0.  1.
    9000005    2    1    2  501    0 -0.39201911514E+02  0.20399167485E+01 -0.89865108710E+03  0.95618060614E+03  0.32429403953E+03 0.  0.
         13    1    3    3    0    0  0.78452527706E+02  0.99043305663E+02 -0.66689290011E+03  0.67875659534E+03  0.00000000000E+00 0.  1.
          3    1    3    3  501    0 -0.11765443922E+03 -0.97003388915E+02 -0.23175818699E+03  0.27742401080E+03  0.00000000000E+00 0.  1.
         21    1    1    2  502  501  0.39201911514E+02 -0.20399167485E+01 -0.67276689370E+02  0.77891617388E+02  0.00000000000E+00 0.  1.
<mgrwt>
<rscale>  1 0.30000000E+03</rscale>
<asrwt>0</asrwt>
<pdfrwt beam="1">  1        1 0.12389926E+00 0.30000000E+03</pdfrwt>
<pdfrwt beam="2">0</pdfrwt>
<totfact> 0.24719475E+01</totfact>
</mgrwt>
</event>
<event>
 6    1  0.1939311E-004  0.3000000E+03  0.7818608E-02  0.1093470E+00
          1   -1    0    0  502    0  0.00000000000E+00  0.00000000000E+00  0.30213062525E+02  0.30213062525E+02  0.00000000000E+00 0.  1.
         13   -1    0    0    0    0 -0.00000000000E+00 -0.00000000000E+00 -0.10000000000E+04  0.10000000000E+04  0.00000000000E+00 0.  1.
    9000005    2    1    2  501    0 -0.47172416393E+01 -0.13538598046E+02 -0.94864542345E+03  0.10046687947E+04  0.33049311871E+03 0.  0.
         13    1    3    3    0    0 -0.10416694475E+03  0.29321636181E+01 -0.87156193059E+03  0.87776964450E+03  0.00000000000E+00 0.  1.
          1    1    3    3  501    0  0.99449703107E+02 -0.16470761664E+02 -0.77083492866E+02  0.12689915016E+03  0.00000000000E+00 0.  1.
         21    1    1    2  502  501  0.47172416393E+01  0.13538598046E+02 -0.21141514023E+02  0.25544267868E+02  0.00000000000E+00 0. -1.
<mgrwt>
<rscale>  1 0.30000000E+03</rscale>
<asrwt>0</asrwt>
<pdfrwt beam="1">  1        1 0.10986591E+00 0.30000000E+03</pdfrwt>
<pdfrwt beam="2">0</pdfrwt>
<totfact> 0.29764386E+01</totfact>
</mgrwt>
</event>
<event>
 6    1  0.1939311E-004  0.3000000E+03  0.7818608E-02  0.1093470E+00
          1   -1    0    0  502    0  0.00000000000E+00  0.00000000000E+00  0.33411966109E+02  0.33411966109E+02  0.00000000000E+00 0.  1.
         13   -1    0    0    0    0 -0.00000000000E+00 -0.00000000000E+00 -0.10000000000E+04  0.10000000000E+04  0.00000000000E+00 0.  1.
    9000005    2    1    2  501    0 -0.10153594892E+02 -0.15555585515E+02 -0.96019836477E+03  0.10137676386E+04  0.32465189625E+03 0.  0.
         13    1    3    3    0    0  0.60135591488E+02  0.13848526912E+03 -0.36603763578E+03  0.39595202984E+03  0.00000000000E+00 0.  1.
          1    1    3    3  501    0 -0.70289186380E+02 -0.15404085463E+03 -0.59416072898E+03  0.61781560880E+03  0.00000000000E+00 0.  1.
         21    1    1    2  502  501  0.10153594892E+02  0.15555585515E+02 -0.63896691252E+01  0.19644327463E+02  0.00000000000E+00 0.  1.
<mgrwt>
<rscale>  1 0.30000000E+03</rscale>
<asrwt>0</asrwt>
<pdfrwt beam="1">  1        1 0.12149831E+00 0.30000000E+03</pdfrwt>
<pdfrwt beam="2">0</pdfrwt>
<totfact> 0.25495446E+01</totfact>
</mgrwt>
</event>
<event>
 6    1  0.1939311E-004  0.3000000E+03  0.7818608E-02  0.1093470E+00
          1   -1    0    0  502    0  0.00000000000E+00  0.00000000000E+00  0.15680931822E+02  0.15680931822E+02  0.00000000000E+00 0.  1.
         13   -1    0    0    0    0 -0.00000000000E+00 -0.00000000000E+00 -0.10000000000E+04  0.10000000000E+04  0.00000000000E+00 0.  1.
    9000005    2    1    2  501    0 -0.29107955266E+01  0.72340475677E+02 -0.67348413247E+03  0.69652583722E+03  0.16225211271E+03 0.  0.
         13    1    3    3    0    0 -0.35017420355E+01  0.23841987368E+02 -0.63269091963E+03  0.63314966820E+03  0.00000000000E+00 0.  1.
          3    1    3    3  501    0  0.59094650889E+00  0.48498488309E+02 -0.40793212834E+02  0.63376169018E+02  0.00000000000E+00 0.  1.
         21    1    1    2  502  501  0.29107955266E+01 -0.72340475677E+02 -0.31083493571E+03  0.31915509460E+03  0.00000000000E+00 0. -1.
<mgrwt>
<rscale>  1 0.30000000E+03</rscale>
<asrwt>0</asrwt>
<pdfrwt beam="1">  1        1 0.57021691E-01 0.30000000E+03</pdfrwt>
<pdfrwt beam="2">0</pdfrwt>
<totfact> 0.74191373E+01</totfact>
</mgrwt>
</event>
<event>
 6    1  0.1939311E-004  0.3000000E+03  0.7818608E-02  0.1093470E+00
          1   -1    0    0  502    0  0.00000000000E+00  0.00000000000E+00  0.28110046262E+02  0.28110046262E+02  0.00000000000E+00 0.  1.
         13   -1    0    0    0    0 -0.00000000000E+00 -0.00000000000E+00 -0.10000000000E+04  0.10000000000E+04  0.00000000000E+00 0.  1.
    9000005    2    1    2  501    0  0.27413952695E+01 -0.13001029202E+02 -0.96079474493E+03  0.10107997699E+04  0.31370860841E+03 0.  0.
         13    1    3    3    0    0  0.45543748655E+02  0.87247361347E+01  0.23769047789E+01  0.46432787322E+02  0.00000000000E+00 0.  1.
          3    1    3    3  501    0 -0.42802353385E+02 -0.21725765337E+02 -0.96317164971E+03  0.96436698260E+03  0.00000000000E+00 0.  1.
         21    1    1    2  502  501 -0.27413952695E+01  0.13001029202E+02 -0.11095208812E+02  0.17310276339E+02  0.00000000000E+00 0. -1.
<mgrwt>
<rscale>  1 0.30000000E+03</rscale>
<asrwt>0</asrwt>
<pdfrwt beam="1">  1        1 0.10221857E+00 0.30000000E+03</pdfrwt>
<pdfrwt beam="2">0</pdfrwt>
<totfact> 0.33142623E+01</totfact>
</mgrwt>
</event>
<event>
 6    1  0.1939311E-004  0.3000000E+03  0.7818608E-02  0.1093470E+00
          1   -1    0    0  502    0  0.00000000000E+00  0.00000000000E+00  0.39233909426E+02  0.39233909426E+02  0.00000000000E+00 0.  1.
         13   -1    0    0    0    0 -0.00000000000E+00 -0.00000000000E+00 -0.10000000000E+04  0.10000000000E+04  0.00000000000E+00 0.  1.
    9000005    2    1    2  501    0 -0.17585666495E+02 -0.51129544815E+01 -0.96522811517E+03  0.10203843038E+04  0.33042913781E+03 0.  0.
         13    1    3    3    0    0 -0.16811346806E+03  0.19417555733E+01 -0.64371538442E+03  0.66530850340E+03  0.00000000000E+00 0.  1.
          1    1    3    3  501    0  0.15052780157E+03 -0.70547100548E+01 -0.32151273075E+03  0.35507580038E+03  0.00000000000E+00 0.  1.
         21    1    1    2  502  501  0.17585666495E+02  0.51129544815E+01  0.44620245956E+01  0.18849605648E+02  0.00000000000E+00 0.  1.
<mgrwt>
<rscale>  1 0.30000000E+03</rscale>
<asrwt>0</asrwt>
<pdfrwt beam="1">  1        1 0.14266906E+00 0.30000000E+03</pdfrwt>
<pdfrwt beam="2">0</pdfrwt>
<totfact> 0.19593362E+01</totfact>
</mgrwt>
</event>
<event>
 6    1  0.1939311E-004  0.3000000E+03  0.7818608E-02  0.1093470E+00
          1   -1    0    0  502    0  0.00000000000E+00  0.00000000000E+00  0.30015806724E+02  0.30015806724E+02  0.00000000000E+00 0.  1.
         13   -1    0    0    0    0 -0.00000000000E+00 -0.00000000000E+00 -0.10000000000E+04  0.10000000000E+04  0.00000000000E+00 0.  1.
    9000005    2    1    2  501    0 -0.10615861414E+02  0.10644267711E+02 -0.93253604049E+03  0.98966285026E+03  0.33103337206E+03 0.  0.
         13    1    3    3    0    0 -0.24437487223E+02  0.13674519507E+03 -0.77524082581E+03  0.78758794884E+03  0.00000000000E+00 0.  1.
          1    1    3    3  501    0  0.13821625809E+02 -0.12610092736E+03 -0.15729521469E+03  0.20207490142E+03  0.00000000000E+00 0.  1.
         21    1    1    2  502  501  0.10615861414E+02 -0.10644267711E+02 -0.37448152781E+02  0.40352956464E+02  0.00000000000E+00 0.  1.
<mgrwt>
<rscale>  1 0.30000000E+03</rscale>
<asrwt>0</asrwt>
<pdfrwt beam="1">  1        1 0.10914862E+00 0.30000000E+03</pdfrwt>
<pdfrwt beam="2">0</pdfrwt>
<totfact> 0.30059690E+01</totfact>
</mgrwt>
</event>
<event>
 6    1  0.1939311E-004  0.3000000E+03  0.7818608E-02  0.1093470E+00
          1   -1    0    0  502    0  0.00000000000E+00  0.00000000000E+00  0.29725323514E+02  0.29725323514E+02  0.00000000000E+00 0.  1.
         13   -1    0    0    0    0 -0.00000000000E+00 -0.00000000000E+00 -0.10000000000E+04  0.10000000000E+04  0.00000000000E+00 0.  1.
    9000005    2    1    2  501    0 -0.12000776504E+02  0.10854727374E+01 -0.95848014171E+03  0.10128638901E+04  0.32720617481E+03 0.  0.
         13    1    3    3    0    0  0.12085847376E+03 -0.98839112027E+02 -0.55329150297E+03  0.57489775439E+03  0.00000000000E+00 0.  1.
          3    1    3    3  501    0 -0.13285925027E+03  0.99924584764E+02 -0.40518863874E+03  0.43796613566E+03  0.00000000000E+00 0.  1.
         21    1    1    2  502  501  0.12000776504E+02 -0.10854727374E+01 -0.11794534776E+02  0.16861433461E+02  0.00000000000E+00 0.  1.
<mgrwt>
<rscale>  1 0.30000000E+03</rscale>
<asrwt>0</asrwt>
<pdfrwt beam="1">  1        1 0.10809231E+00 0.30000000E+03</pdfrwt>
<pdfrwt beam="2">0</pdfrwt>
<totfact> 0.30502217E+01</totfact>
</mgrwt>
</event>
<event>
 6    1  0.1939311E-004  0.3000000E+03  0.7818608E-02  0.1093470E+00
          1   -1    0    0  502    0  0.00000000000E+00  0.00000000000E+00  0.37376628945E+02  0.37376628945E+02  0.00000000000E+00 0.  1.
         13   -1    0    0    0    0 -0.00000000000E+00 -0.00000000000E+00 -0.10000000000E+04  0.10000000000E+04  0.00000000000E+00 0.  1.
    9000005    2    1    2  501    0 -0.14141796104E+02 -0.12745181931E+01 -0.96605349372E+03  0.10227690783E+04  0.33555270830E+03 0.  0.
         13    1    3    3    0    0  0.73220333514E+01 -0.27635682377E+02 -0.98394078011E+03  0.98435603410E+03  0.00000000000E+00 0.  1.
          1    1    3    3  501    0 -0.21463829455E+02  0.26361164184E+02  0.17887286386E+02  0.38413044220E+02  0.00000000000E+00 0.  1.
         21    1    1    2  502  501  0.14141796104E+02  0.12745181931E+01  0.34301226679E+01  0.14607550622E+02  0.00000000000E+00 0.  1.
<mgrwt>
<rscale>  1 0.30000000E+03</rscale>
<asrwt>0</asrwt>
<pdfrwt beam="1">  1        1 0.13591530E+00 0.30000000E+03</pdfrwt>
<pdfrwt beam="2">0</pdfrwt>
<totfact> 0.21262356E+01</totfact>
</mgrwt>
</event>
<event>
 6    1  0.1939311E-004  0.3000000E+03  0.7818608E-02  0.1093470E+00
          1   -1    0    0  502    0  0.00000000000E+00  0.00000000000E+00  0.30745129471E+02  0.30745129471E+02  0.00000000000E+00 0.  1.
         13   -1    0    0    0    0 -0.00000000000E+00 -0.00000000000E+00 -0.10000000000E+04  0.10000000000E+04  0.00000000000E+00 0.  1.
    9000005    2    1    2  501    0 -0.79780955269E+01 -0.55072938679E+01 -0.96162428453E+03  0.10184079444E+04  0.33517084632E+03 0.  0.
         13    1    3    3    0    0 -0.88792323775E+02  0.71239416242E+02 -0.86025233915E+03  0.86775181832E+03  0.00000000000E+00 0.  1.
          1    1    3    3  501    0  0.80814228248E+02 -0.76746710110E+02 -0.10137194538E+03  0.15065612603E+03  0.00000000000E+00 0.  1.
         21    1    1    2  502  501  0.79780955269E+01  0.55072938679E+01 -0.76305859957E+01  0.12337185117E+02  0.00000000000E+00 0.  1.
<mgrwt>
<rscale>  1 0.30000000E+03</rscale>
<asrwt>0</asrwt>
<pdfrwt beam="1">  1        1 0.11180071E+00 0.30000000E+03</pdfrwt>
<pdfrwt beam="2">0</pdfrwt>
<totfact> 0.28988077E+01</totfact>
</mgrwt>
</event>
<event>
 6    1  0.1939311E-004  0.3000000E+03  0.7818608E-02  0.1093470E+00
          3   -1    0    0  502    0  0.00000000000E+00  0.00000000000E+00  0.29902925679E+02  0.29902925679E+02  0.00000000000E+00 0.  1.
         13   -1    0    0    0    0 -0.00000000000E+00 -0.00000000000E+00 -0.10000000000E+04  0.10000000000E+04  0.00000000000E+00 0.  1.
    9000005    2    1    2  501    0 -0.66848607685E+01 -0.72968132712E+01 -0.96259776275E+03  0.10174863834E+04  0.32952413685E+03 0.  0.
         13    1    3    3    0    0  0.10684055488E+03  0.10570557248E+03 -0.63870493632E+03  0.65614980599E+03  0.00000000000E+00 0.  1.
          1    1    3    3  501    0 -0.11352541565E+03 -0.11300238575E+03 -0.32389282643E+03  0.36133657744E+03  0.00000000000E+00 0.  1.
         21    1    1    2  502  501  0.66848607685E+01  0.72968132712E+01 -0.74993115708E+01  0.12416542250E+02  0.00000000000E+00 0.  1.
<mgrwt>
<rscale>  1 0.30000000E+03</rscale>
<asrwt>0</asrwt>
<pdfrwt beam="1">  1        3 0.10873814E+00 0.30000000E+03</pdfrwt>
<pdfrwt beam="2">0</pdfrwt>
<totfact> 0.31150658E+00</totfact>
</mgrwt>
</event>
<event>
 6    1  0.1939311E-004  0.3000000E+03  0.7818608E-02  0.1093470E+00
          1   -1    0    0  502    0  0.00000000000E+00  0.00000000000E+00  0.30873441119E+02  0.30873441119E+02  0.00000000000E+00 0.  1.
         13   -1    0    0    0    0 -0.00000000000E+00 -0.00000000000E+00 -0.10000000000E+04  0.10000000000E+04  0.00000000000E+00 0.  1.
    9000005    2    1    2  501    0  0.13597544748E+02 -0.23169914823E+02 -0.94473667485E+03  0.99458839435E+03  0.30976919019E+03 0.  0.
         13    1    3    3    0    0  0.13383988255E+03  0.11526075013E+02 -0.21014834699E+03  0.24941590228E+03  0.00000000000E+00 0.  1.
          3    1    3    3  501    0 -0.12024233780E+03 -0.34695989836E+02 -0.73458832786E+03  0.74517249207E+03  0.00000000000E+00 0.  1.
         21    1    1    2  502  501 -0.13597544748E+02  0.23169914823E+02 -0.24389884033E+02  0.36285046771E+02  0.00000000000E+00 0.  1.
<mgrwt>
<rscale>  1 0.30000000E+03</rscale>
<asrwt>0</asrwt>
<pdfrwt beam="1">  1        1 0.11226730E+00 0.30000000E+03</pdfrwt>
<pdfrwt beam="2">0</pdfrwt>
<totfact> 0.28805152E+01</totfact>
</mgrwt>
</event>
<event>
 6    1  0.1939311E-004  0.3000000E+03  0.7818608E-02  0.1093470E+00
          1   -1    0    0  502    0  0.00000000000E+00  0.00000000000E+00  0.47596328761E+02  0.47596328761E+02  0.00000000000E+00 0.  1.
         13   -1    0    0    0    0 -0.00000000000E+00 -0.00000000000E+00 -0.10000000000E+04  0.10000000000E+04  0.00000000000E+00 0.  1.
    9000005    2    1    2  501    0  0.37982490653E+02  0.29310290191E+02 -0.93292634010E+03  0.99581670791E+03  0.34496028320E+03 0.  0.
         13    1    3    3    0    0 -0.47220815682E+02 -0.14263661445E+03 -0.50401209692E+03  0.52593079683E+03  0.00000000000E+00 0.  1.
          3    1    3    3  501    0  0.85203306334E+02  0.17194690464E+03 -0.42891424319E+03  0.46988591108E+03  0.00000000000E+00 0.  1.
         21    1    1    2  502  501 -0.37982490653E+02 -0.29310290191E+02 -0.19477331135E+02  0.51779620850E+02  0.00000000000E+00 0.  1.
<mgrwt>
<rscale>  1 0.30000000E+03</rscale>
<asrwt>0</asrwt>
<pdfrwt beam="1">  1        1 0.17307792E+00 0.30000000E+03</pdfrwt>
<pdfrwt beam="2">0</pdfrwt>
<totfact> 0.13801776E+01</totfact>
</mgrwt>
</event>
<event>
 6    1  0.1939311E-004  0.3000000E+03  0.7818608E-02  0.1093470E+00
          1   -1    0    0  502    0  0.00000000000E+00  0.00000000000E+00  0.38885762673E+02  0.38885762673E+02  0.00000000000E+00 0.  1.
         13   -1    0    0    0    0 -0.00000000000E+00 -0.00000000000E+00 -0.10000000000E+04  0.10000000000E+04  0.00000000000E+00 0.  1.
    9000005    2    1    2  501    0 -0.42937194115E+02  0.17368589526E+02 -0.90866384578E+03  0.96891209538E+03  0.33312969458E+03 0.  0.
         13    1    3    3    0    0 -0.74251564042E+02 -0.14709750728E+03 -0.52655975619E+03  0.55173920311E+03  0.00000000000E+00 0.  1.
          1    1    3    3  501    0  0.31314369927E+02  0.16446609681E+03 -0.38210408959E+03  0.41717289227E+03  0.00000000000E+00 0.  1.
         21    1    1    2  502  501  0.42937194115E+02 -0.17368589526E+02 -0.52450391545E+02  0.69973667288E+02  0.00000000000E+00 0.  1.
<mgrwt>
<rscale>  1 0.30000000E+03</rscale>
<asrwt>0</asrwt>
<pdfrwt beam="1">  1        1 0.14140307E+00 0.30000000E+03</pdfrwt>
<pdfrwt beam="2">0</pdfrwt>
<totfact> 0.19893147E+01</totfact>
</mgrwt>
</event>
<event>
 6    1  0.1939311E-004  0.3000000E+03  0.7818608E-02  0.1093470E+00
          1   -1    0    0  502    0  0.00000000000E+00  0.00000000000E+00  0.39994083830E+02  0.39994083830E+02  0.00000000000E+00 0.  1.
         13   -1    0    0    0    0 -0.00000000000E+00 -0.00000000000E+00 -0.10000000000E+04  0.10000000000E+04  0.00000000000E+00 0.  1.
    9000005    2    1    2  501    0 -0.30086118607E+02  0.51194217639E+01 -0.93574778683E+03  0.10010089604E+04  0.35420846288E+03 0.  0.
         13    1    3    3    0    0 -0.74415842433E+02 -0.14766684552E+03 -0.68001577730E+03  0.69983188856E+03  0.00000000000E+00 0.  1.
          1    1    3    3  501    0  0.44329723826E+02  0.15278626728E+03 -0.25573200953E+03  0.30117707181E+03  0.00000000000E+00 0.  1.
         21    1    1    2  502  501  0.30086118607E+02 -0.51194217639E+01 -0.24258129338E+02  0.38985123458E+02  0.00000000000E+00 0.  1.
<mgrwt>
<rscale>  1 0.30000000E+03</rscale>
<asrwt>0</asrwt>
<pdfrwt beam="1">  1        1 0.14543334E+00 0.30000000E+03</pdfrwt>
<pdfrwt beam="2">0</pdfrwt>
<totfact> 0.18958387E+01</totfact>
</mgrwt>
</event>
<event>
 6    1  0.1939311E-004  0.3000000E+03  0.7818608E-02  0.1093470E+00
          1   -1    0    0  502    0  0.00000000000E+00  0.00000000000E+00  0.38945579145E+02  0.38945579145E+02  0.00000000000E+00 0.  1.
         13   -1    0    0    0    0 -0.00000000000E+00 -0.00000000000E+00 -0.10000000000E+04  0.10000000000E+04  0.00000000000E+00 0.  1.
    9000005    2    1    2  501    0 -0.85135912078E+01 -0.78371322234E+01 -0.96828941450E+03  0.10252983446E+04  0.33692492248E+03 0.  0.
         13    1    3    3    0    0  0.50924283230E+02 -0.15010431937E+03 -0.68149121176E+03  0.69968197135E+03  0.00000000000E+00 0.  1.
          3    1    3    3  501    0 -0.59437874438E+02  0.14226718715E+03 -0.28679820274E+03  0.32561637329E+03  0.00000000000E+00 0.  1.
         21    1    1    2  502  501  0.85135912078E+01  0.78371322234E+01  0.72349936496E+01  0.13647234513E+02  0.00000000000E+00 0. -1.
<mgrwt>
<rscale>  1 0.30000000E+03</rscale>
<asrwt>0</asrwt>
<pdfrwt beam="1">  1        1 0.14162059E+00 0.30000000E+03</pdfrwt>
<pdfrwt beam="2">0</pdfrwt>
<totfact> 0.19841228E+01</totfact>
</mgrwt>
</event>
<event>
 6    1  0.1939311E-004  0.3000000E+03  0.7818608E-02  0.1093470E+00
          1   -1    0    0  502    0  0.00000000000E+00  0.00000000000E+00  0.38683812515E+02  0.38683812515E+02  0.00000000000E+00 0.  1.
         13   -1    0    0    0    0 -0.00000000000E+00 -0.00000000000E+00 -0.10000000000E+04  0.10000000000E+04  0.00000000000E+00 0.  1.
    9000005    2    1    2  501    0  0.81772271385E+01  0.89221924065E+01 -0.96939675665E+03  0.10241315564E+04  0.33010437801E+03 0.  0.
         13    1    3    3    0    0  0.15769507682E+03  0.61284596608E+02 -0.43482314777E+03  0.46657765578E+03  0.00000000000E+00 0.  1.
          3    1    3    3  501    0 -0.14951784968E+03 -0.52362404201E+02 -0.53457360888E+03  0.55755390058E+03  0.00000000000E+00 0.  1.
         21    1    1    2  502  501 -0.81772271385E+01 -0.89221924065E+01  0.80805691644E+01  0.14552256149E+02  0.00000000000E+00 0.  1.
<mgrwt>
<rscale>  1 0.30000000E+03</rscale>
<asrwt>0</asrwt>
<pdfrwt beam="1">  1        1 0.14066871E+00 0.30000000E+03</pdfrwt>
<pdfrwt beam="2">0</pdfrwt>
<totfact> 0.20069714E+01</totfact>
</mgrwt>
</event>
<event>
 6    1  0.1939311E-004  0.3000000E+03  0.7818608E-02  0.1093470E+00
          1   -1    0    0  502    0  0.00000000000E+00  0.00000000000E+00  0.42703483269E+02  0.42703483269E+02  0.00000000000E+00 0.  1.
         13   -1    0    0    0    0 -0.00000000000E+00 -0.00000000000E+00 -0.10000000000E+04  0.10000000000E+04  0.00000000000E+00 0.  1.
    9000005    2    1    2  501    0 -0.32455069729E+01  0.20284350805E+02 -0.96723764438E+03  0.10198821288E+04  0.32278306590E+03 0.  0.
         13    1    3    3    0    0  0.14922356084E+03  0.11870660027E+02 -0.66032751083E+03  0.67708271669E+03  0.00000000000E+00 0.  1.
          1    1    3    3  501    0 -0.15246906782E+03  0.84136907773E+01 -0.30691013355E+03  0.34279941206E+03  0.00000000000E+00 0.  1.
         21    1    1    2  502  501  0.32455069729E+01 -0.20284350805E+02  0.99411276496E+01  0.22821354518E+02  0.00000000000E+00 0.  1.
<mgrwt>
<rscale>  1 0.30000000E+03</rscale>
<asrwt>0</asrwt>
<pdfrwt beam="1">  1        1 0.15528572E+00 0.30000000E+03</pdfrwt>
<pdfrwt beam="2">0</pdfrwt>
<totfact> 0.16894070E+01</totfact>
</mgrwt>
</event>
<event>
 6    1  0.1939311E-004  0.3000000E+03  0.7818608E-02  0.1093470E+00
          1   -1    0    0  502    0  0.00000000000E+00  0.00000000000E+00  0.42647121098E+02  0.42647121098E+02  0.00000000000E+00 0.  1.
         13   -1    0    0    0    0 -0.00000000000E+00 -0.00000000000E+00 -0.10000000000E+04  0.10000000000E+04  0.00000000000E+00 0.  1.
    9000005    2    1    2  501    0  0.11047480458E+02 -0.47225358258E+02 -0.93265234154E+03  0.98821920700E+03  0.32308594773E+03 0.  0.
         13    1    3    3    0    0  0.16190451196E+03 -0.35031900408E+02 -0.60556297510E+03  0.62781113549E+03  0.00000000000E+00 0.  1.
          1    1    3    3  501    0 -0.15085703151E+03 -0.12193457850E+02 -0.32708936644E+03  0.36040807151E+03  0.00000000000E+00 0.  1.
         21    1    1    2  502  501 -0.11047480458E+02  0.47225358258E+02 -0.24700537366E+02  0.54427914100E+02  0.00000000000E+00 0.  1.
<mgrwt>
<rscale>  1 0.30000000E+03</rscale>
<asrwt>0</asrwt>
<pdfrwt beam="1">  1        1 0.15508077E+00 0.30000000E+03</pdfrwt>
<pdfrwt beam="2">0</pdfrwt>
<totfact> 0.16934127E+01</totfact>
</mgrwt>
</event>
<event>
 6    1  0.1939311E-004  0.3000000E+03  0.7818608E-02  0.1093470E+00
          1   -1    0    0  502    0  0.00000000000E+00  0.00000000000E+00  0.31761237342E+02  0.31761237342E+02  0.00000000000E+00 0.  1.
         13   -1    0    0    0    0 -0.00000000000E+00 -0.00000000000E+00 -0.10000000000E+04  0.10000000000E+04  0.00000000000E+00 0.  1.
    9000005    2    1    2  501    0 -0.14420907373E+02  0.29874360706E+02 -0.88936023458E+03  0.94619101946E+03  0.32127150271E+03 0.  0.
         13    1    3    3    0    0 -0.10530746832E+03 -0.11240156647E+03 -0.43753956127E+03  0.46385842959E+03  0.00000000000E+00 0.  1.
          3    1    3    3  501    0  0.90886560947E+02  0.14227592718E+03 -0.45182067331E+03  0.48233258987E+03  0.00000000000E+00 0.  1.
         21    1    1    2  502  501  0.14420907373E+02 -0.29874360706E+02 -0.78878528079E+02  0.85570217885E+02  0.00000000000E+00 0. -1.
<mgrwt>
<rscale>  1 0.30000000E+03</rscale>
<asrwt>0</asrwt>
<pdfrwt beam="1">  1        1 0.11549565E+00 0.30000000E+03</pdfrwt>
<pdfrwt beam="2">0</pdfrwt>
<totfact> 0.27583362E+01</totfact>
</mgrwt>
</event>
<event>
 6    1  0.1939311E-004  0.3000000E+03  0.7818608E-02  0.1093470E+00
          1   -1    0    0  502    0  0.00000000000E+00  0.00000000000E+00  0.33966286832E+02  0.33966286832E+02  0.00000000000E+00 0.  1.
         13   -1    0    0    0    0 -0.00000000000E+00 -0.00000000000E+00 -0.10000000000E+04  0.10000000000E+04  0.00000000000E+00 0.  1.
    9000005    2    1    2  501    0 -0.21514103484E+02 -0.11706499194E+02 -0.95114857603E+03  0.10053050573E+04  0.32458395790E+03 0.  0.
         13    1    3    3    0    0  0.65399860970E+02 -0.11646816772E+03 -0.75393211247E+03  0.76567330248E+03  0.00000000000E+00 0.  1.
          1    1    3    3  501    0 -0.86913964455E+02  0.10476166852E+03 -0.19721646356E+03  0.23963175480E+03  0.00000000000E+00 0.  1.
         21    1    1    2  502  501  0.21514103484E+02  0.11706499194E+02 -0.14885137135E+02  0.28661229556E+02  0.00000000000E+00 0. -1.
<mgrwt>
<rscale>  1 0.30000000E+03</rscale>
<asrwt>0</asrwt>
<pdfrwt beam="1">  1        1 0.12351403E+00 0.30000000E+03</pdfrwt>
<pdfrwt beam="2">0</pdfrwt>
<totfact> 0.24841884E+01</totfact>
</mgrwt>
</event>
<event>
 6    1  0.1939311E-004  0.3000000E+03  0.7818608E-02  0.1093470E+00
          1   -1    0    0  502    0  0.00000000000E+00  0.00000000000E+00  0.39243310270E+02  0.39243310270E+02  0.00000000000E+00 0.  1.
         13   -1    0    0    0    0 -0.00000000000E+00 -0.00000000000E+00 -0.10000000000E+04  0.10000000000E+04  0.00000000000E+00 0.  1.
    9000005    2    1    2  501    0  0.70851382882E+01  0.42696572905E+02 -0.83311959858E+03  0.90446785420E+03  0.34942901599E+03 0.  0.
         13    1    3    3    0    0 -0.11551526817E+03  0.14314436811E+03 -0.55078791156E+03  0.58069046042E+03  0.00000000000E+00 0.  1.
          3    1    3    3  501    0  0.12260040646E+03 -0.10044779521E+03 -0.28233168702E+03  0.32377739378E+03  0.00000000000E+00 0.  1.
         21    1    1    2  502  501 -0.70851382882E+01 -0.42696572905E+02 -0.12763709115E+03  0.13477545607E+03  0.00000000000E+00 0. -1.
<mgrwt>
<rscale>  1 0.30000000E+03</rscale>
<asrwt>0</asrwt>
<pdfrwt beam="1">  1        1 0.14270325E+00 0.30000000E+03</pdfrwt>
<pdfrwt beam="2">0</pdfrwt>
<totfact> 0.19585347E+01</totfact>
</mgrwt>
</event>
<event>
 6    1  0.1939311E-004  0.3000000E+03  0.7818608E-02  0.1093470E+00
          1   -1    0    0  502    0  0.00000000000E+00  0.00000000000E+00  0.57002993711E+02  0.57002993711E+02  0.00000000000E+00 0.  1.
         13   -1    0    0    0    0 -0.00000000000E+00 -0.00000000000E+00 -0.10000000000E+04  0.10000000000E+04  0.00000000000E+00 0.  1.
    9000005    2    1    2  501    0  0.11392109257E+02 -0.97470084308E+01 -0.97272404364E+03  0.10237091343E+04  0.31869035469E+03 0.  0.
         13    1    3    3    0    0 -0.79320879845E+02 -0.10477793664E+03 -0.77665417730E+03  0.78769405806E+03  0.00000000000E+00 0.  1.
          3    1    3    3  501    0  0.90712989102E+02  0.95030928212E+02 -0.19606986635E+03  0.23601507621E+03  0.00000000000E+00 0.  1.
         21    1    1    2  502  501 -0.11392109257E+02  0.97470084308E+01  0.29727037356E+02  0.33293859443E+02  0.00000000000E+00 0.  1.
<mgrwt>
<rscale>  1 0.30000000E+03</rscale>
<asrwt>0</asrwt>
<pdfrwt beam="1">  1        1 0.20728405E+00 0.30000000E+03</pdfrwt>
<pdfrwt beam="2">0</pdfrwt>
<totfact> 0.94604178E+00</totfact>
</mgrwt>
</event>
<event>
 6    1  0.1939311E-004  0.3000000E+03  0.7818608E-02  0.1093470E+00
          1   -1    0    0  502    0  0.00000000000E+00  0.00000000000E+00  0.14323106820E+02  0.14323106820E+02  0.00000000000E+00 0.  1.
         13   -1    0    0    0    0 -0.00000000000E+00 -0.00000000000E+00 -0.10000000000E+04  0.10000000000E+04  0.00000000000E+00 0.  1.
    9000005    2    1    2  501    0 -0.63347414783E+01 -0.21628820557E+02 -0.92808271937E+03  0.95247633095E+03  0.21299223508E+03 0.  0.
         13    1    3    3    0    0  0.10516927037E+02 -0.98376812478E+02 -0.76587220847E+03  0.77223626093E+03  0.00000000000E+00 0.  1.
          3    1    3    3  501    0 -0.16851668516E+02  0.76747991921E+02 -0.16221051089E+03  0.18024007002E+03  0.00000000000E+00 0.  1.
         21    1    1    2  502  501  0.63347414783E+01  0.21628820557E+02 -0.57594173814E+02  0.61846775871E+02  0.00000000000E+00 0.  1.
<mgrwt>
<rscale>  1 0.30000000E+03</rscale>
<asrwt>0</asrwt>
<pdfrwt beam="1">  1        1 0.52084135E-01 0.30000000E+03</pdfrwt>
<pdfrwt beam="2">0</pdfrwt>
<totfact> 0.83632325E+01</totfact>
</mgrwt>
</event>
<event>
 6    1  0.1939311E-004  0.3000000E+03  0.7818608E-02  0.1093470E+00
          1   -1    0    0  502    0  0.00000000000E+00  0.00000000000E+00  0.37667899501E+02  0.37667899501E+02  0.00000000000E+00 0.  1.
         13   -1    0    0    0    0 -0.00000000000E+00 -0.00000000000E+00 -0.10000000000E+04  0.10000000000E+04  0.00000000000E+00 0.  1.
    9000005    2    1    2  501    0  0.11923415576E+02  0.70074998441E+01 -0.96898544088E+03  0.10223205925E+04  0.32559996372E+03 0.  0.
         13    1    3    3    0    0  0.57866012106E+02  0.48484297479E+02 -0.29901607741E+02  0.81199190911E+02  0.00000000000E+00 0.  1.
          3    1    3    3  501    0 -0.45942596530E+02 -0.41476797635E+02 -0.93908383314E+03  0.94112140162E+03  0.00000000000E+00 0.  1.
         21    1    1    2  502  501 -0.11923415576E+02 -0.70074998441E+01  0.66533403824E+01  0.15347306973E+02  0.00000000000E+00 0.  1.
<mgrwt>
<rscale>  1 0.30000000E+03</rscale>
<asrwt>0</asrwt>
<pdfrwt beam="1">  1        1 0.13697447E+00 0.30000000E+03</pdfrwt>
<pdfrwt beam="2">0</pdfrwt>
<totfact> 0.20988891E+01</totfact>
</mgrwt>
</event>
<event>
 6    1  0.1939311E-004  0.3000000E+03  0.7818608E-02  0.1093470E+00
          1   -1    0    0  502    0  0.00000000000E+00  0.00000000000E+00  0.62611119678E+02  0.62611119678E+02  0.00000000000E+00 0.  1.
         13   -1    0    0    0    0 -0.00000000000E+00 -0.00000000000E+00 -0.10000000000E+04  0.10000000000E+04  0.00000000000E+00 0.  1.
    9000005    2    1    2  501    0  0.22258586743E+02 -0.56779735050E+01 -0.97023250982E+03  0.10225313484E+04  0.32201172538E+03 0.  0.
         13    1    3    3    0    0  0.16505100863E+03  0.33938248119E+02 -0.61410857996E+03  0.63680686877E+03  0.00000000000E+00 0.  1.
          1    1    3    3  501    0 -0.14279242189E+03 -0.39616221624E+02 -0.35612392986E+03  0.38572447963E+03  0.00000000000E+00 0.  1.
         21    1    1    2  502  501 -0.22258586743E+02  0.56779735050E+01  0.32843629500E+02  0.40079771277E+02  0.00000000000E+00 0.  1.
<mgrwt>
<rscale>  1 0.30000000E+03</rscale>
<asrwt>0</asrwt>
<pdfrwt beam="1">  1        1 0.22767728E+00 0.30000000E+03</pdfrwt>
<pdfrwt beam="2">0</pdfrwt>
<totfact> 0.75880824E+00</totfact>
</mgrwt>
</event>
<event>
 6    1  0.1939311E-004  0.3000000E+03  0.7818608E-02  0.1093470E+00
          1   -1    0    0  502    0  0.00000000000E+00  0.00000000000E+00  0.49169391999E+02  0.49169391999E+02  0.00000000000E+00 0.  1.
         13   -1    0    0    0    0 -0.00000000000E+00 -0.00000000000E+00 -0.10000000000E+04  0.10000000000E+04  0.00000000000E+00 0.  1.
    9000005    2    1    2  501    0  0.11529641677E+02 -0.11369322391E+02 -0.97158449111E+03  0.10228460603E+04  0.31933594462E+03 0.  0.
         13    1    3    3    0    0  0.42242791003E+02  0.69706873702E+02 -0.91652392458E+03  0.92014107938E+03  0.00000000000E+00 0.  1.
          3    1    3    3  501    0 -0.30713149325E+02 -0.81076196094E+02 -0.55060566535E+02  0.10270498090E+03  0.00000000000E+00 0.  1.
         21    1    1    2  502  501 -0.11529641677E+02  0.11369322391E+02  0.20753883111E+02  0.26323331723E+02  0.00000000000E+00 0.  1.
<mgrwt>
<rscale>  1 0.30000000E+03</rscale>
<asrwt>0</asrwt>
<pdfrwt beam="1">  1        1 0.17879817E+00 0.30000000E+03</pdfrwt>
<pdfrwt beam="2">0</pdfrwt>
<totfact> 0.12946695E+01</totfact>
</mgrwt>
</event>
<event>
 6    1  0.1939311E-004  0.3000000E+03  0.7818608E-02  0.1093470E+00
          1   -1    0    0  502    0  0.00000000000E+00  0.00000000000E+00  0.55201860690E+02  0.55201860690E+02  0.00000000000E+00 0.  1.
         13   -1    0    0    0    0 -0.00000000000E+00 -0.00000000000E+00 -0.10000000000E+04  0.10000000000E+04  0.00000000000E+00 0.  1.
    9000005    2    1    2  501    0 -0.83531954234E+01  0.61341919712E+01 -0.97341213989E+03  0.10247688981E+04  0.32017603934E+03 0.  0.
         13    1    3    3    0    0  0.92957788349E+02 -0.70993933912E+02 -0.14343095324E+03  0.18507762538E+03  0.00000000000E+00 0.  1.
          3    1    3    3  501    0 -0.10131098377E+03  0.77128125883E+02 -0.82998118665E+03  0.83969127269E+03  0.00000000000E+00 0.  1.
         21    1    1    2  502  501  0.83531954234E+01 -0.61341919712E+01  0.28614000581E+02  0.30432962626E+02  0.00000000000E+00 0.  1.
<mgrwt>
<rscale>  1 0.30000000E+03</rscale>
<asrwt>0</asrwt>
<pdfrwt beam="1">  1        1 0.20073446E+00 0.30000000E+03</pdfrwt>
<pdfrwt beam="2">0</pdfrwt>
<totfact> 0.10161413E+01</totfact>
</mgrwt>
</event>
<event>
 6    1  0.1939311E-004  0.3000000E+03  0.7818608E-02  0.1093470E+00
          1   -1    0    0  502    0  0.00000000000E+00  0.00000000000E+00  0.32902148504E+02  0.32902148504E+02  0.00000000000E+00 0.  1.
         13   -1    0    0    0    0 -0.00000000000E+00 -0.00000000000E+00 -0.10000000000E+04  0.10000000000E+04  0.00000000000E+00 0.  1.
    9000005    2    1    2  501    0 -0.29217838993E+02  0.10037184620E+02 -0.91780822939E+03  0.97473090099E+03  0.32676284399E+03 0.  0.
         13    1    3    3    0    0 -0.81171113514E+02 -0.14414376540E+03 -0.47437738777E+03  0.50239434790E+03  0.00000000000E+00 0.  1.
          3    1    3    3  501    0  0.51953274521E+02  0.15418095002E+03 -0.44343084162E+03  0.47233655309E+03  0.00000000000E+00 0.  1.
         21    1    1    2  502  501  0.29217838993E+02 -0.10037184620E+02 -0.49289622102E+02  0.58171247515E+02  0.00000000000E+00 0.  1.
<mgrwt>
<rscale>  1 0.30000000E+03</rscale>
<asrwt>0</asrwt>
<pdfrwt beam="1">  1        1 0.11964443E+00 0.30000000E+03</pdfrwt>
<pdfrwt beam="2">0</pdfrwt>
<totfact> 0.26116738E+01</totfact>
</mgrwt>
</event>
<event>
 6    1  0.1939311E-004  0.3000000E+03  0.7818608E-02  0.1093470E+00
          1   -1    0    0  502    0  0.00000000000E+00  0.00000000000E+00  0.45751706520E+02  0.45751706520E+02  0.00000000000E+00 0.  1.
         13   -1    0    0    0    0 -0.00000000000E+00 -0.00000000000E+00 -0.10000000000E+04  0.10000000000E+04  0.00000000000E+00 0.  1.
    9000005    2    1    2  501    0 -0.13889448883E+02  0.77380296457E+01 -0.97004152958E+03  0.10233414366E+04  0.32556770844E+03 0.  0.
         13    1    3    3    0    0  0.58509497157E+02 -0.20970367128E+01 -0.94394191414E+03  0.94575583323E+03  0.00000000000E+00 0.  1.
          1    1    3    3  501    0 -0.72398946040E+02  0.98350663585E+01 -0.26099615443E+02  0.77585603331E+02  0.00000000000E+00 0.  1.
         21    1    1    2  502  501  0.13889448883E+02 -0.77380296457E+01  0.15793236101E+02  0.22410269959E+02  0.00000000000E+00 0.  1.
<mgrwt>
<rscale>  1 0.30000000E+03</rscale>
<asrwt>0</asrwt>
<pdfrwt beam="1">  1        1 0.16637019E+00 0.30000000E+03</pdfrwt>
<pdfrwt beam="2">0</pdfrwt>
<totfact> 0.14884502E+01</totfact>
</mgrwt>
</event>
<event>
 6    1  0.1939311E-004  0.3000000E+03  0.7818608E-02  0.1093470E+00
          1   -1    0    0  502    0  0.00000000000E+00  0.00000000000E+00  0.32293311611E+02  0.32293311611E+02  0.00000000000E+00 0.  1.
         13   -1    0    0    0    0 -0.00000000000E+00 -0.00000000000E+00 -0.10000000000E+04  0.10000000000E+04  0.00000000000E+00 0.  1.
    9000005    2    1    2  501    0 -0.24315358918E+02 -0.16466551857E+02 -0.93359990625E+03  0.98728601667E+03  0.31978509935E+03 0.  0.
         13    1    3    3    0    0  0.13668330993E+03 -0.51663668556E+01 -0.61632244186E+03  0.63131796339E+03  0.00000000000E+00 0.  1.
          1    1    3    3  501    0 -0.16099866885E+03 -0.11300185002E+02 -0.31727746439E+03  0.35596805328E+03  0.00000000000E+00 0.  1.
         21    1    1    2  502  501  0.24315358918E+02  0.16466551857E+02 -0.34106782144E+02  0.45007294937E+02  0.00000000000E+00 0. -1.
<mgrwt>
<rscale>  1 0.30000000E+03</rscale>
<asrwt>0</asrwt>
<pdfrwt beam="1">  1        1 0.11743047E+00 0.30000000E+03</pdfrwt>
<pdfrwt beam="2">0</pdfrwt>
<totfact> 0.26885703E+01</totfact>
</mgrwt>
</event>
<event>
 6    1  0.1939311E-004  0.3000000E+03  0.7818608E-02  0.1093470E+00
          1   -1    0    0  502    0  0.00000000000E+00  0.00000000000E+00  0.24240658316E+02  0.24240658316E+02  0.00000000000E+00 0.  1.
         13   -1    0    0    0    0 -0.00000000000E+00 -0.00000000000E+00 -0.10000000000E+04  0.10000000000E+04  0.00000000000E+00 0.  1.
    9000005    2    1    2  501    0 -0.56559970178E+01 -0.76305053600E+01 -0.96452639036E+03  0.10095303181E+04  0.29790953411E+03 0.  0.
         13    1    3    3    0    0  0.44350921099E+02 -0.65788840616E+02 -0.54453079307E+02  0.96230523213E+02  0.00000000000E+00 0.  1.
          1    1    3    3  501    0 -0.50006918117E+02  0.58158335256E+02 -0.91007331105E+03  0.91329979487E+03  0.00000000000E+00 0.  1.
         21    1    1    2  502  501  0.56559970178E+01  0.76305053600E+01 -0.11232951323E+02  0.14710340232E+02  0.00000000000E+00 0.  1.
<mgrwt>
<rscale>  1 0.30000000E+03</rscale>
<asrwt>0</asrwt>
<pdfrwt beam="1">  1        1 0.88148034E-01 0.30000000E+03</pdfrwt>
<pdfrwt beam="2">0</pdfrwt>
<totfact> 0.41020080E+01</totfact>
</mgrwt>
</event>
<event>
 6    1  0.1939311E-004  0.3000000E+03  0.7818608E-02  0.1093470E+00
          1   -1    0    0  502    0  0.00000000000E+00  0.00000000000E+00  0.71697257579E+02  0.71697257579E+02  0.00000000000E+00 0.  1.
         13   -1    0    0    0    0 -0.00000000000E+00 -0.00000000000E+00 -0.10000000000E+04  0.10000000000E+04  0.00000000000E+00 0.  1.
    9000005    2    1    2  501    0  0.38220667877E+02  0.46662868889E+02 -0.95123573145E+03  0.10071669176E+04  0.32541902284E+03 0.  0.
         13    1    3    3    0    0 -0.33224736877E+02 -0.12691811786E+03 -0.26464862936E+03  0.29538278353E+03  0.00000000000E+00 0.  1.
          1    1    3    3  501    0  0.71445404754E+02  0.17358098675E+03 -0.68658710210E+03  0.71178413412E+03  0.00000000000E+00 0.  1.
         21    1    1    2  502  501 -0.38220667877E+02 -0.46662868889E+02  0.22932989032E+02  0.64530339933E+02  0.00000000000E+00 0.  1.
<mgrwt>
<rscale>  1 0.30000000E+03</rscale>
<asrwt>0</asrwt>
<pdfrwt beam="1">  1        1 0.26071785E+00 0.30000000E+03</pdfrwt>
<pdfrwt beam="2">0</pdfrwt>
<totfact> 0.53168738E+00</totfact>
</mgrwt>
</event>
<event>
 6    1  0.1939311E-004  0.3000000E+03  0.7818608E-02  0.1093470E+00
          1   -1    0    0  502    0  0.00000000000E+00  0.00000000000E+00  0.34107364532E+02  0.34107364532E+02  0.00000000000E+00 0.  1.
         13   -1    0    0    0    0 -0.00000000000E+00 -0.00000000000E+00 -0.10000000000E+04  0.10000000000E+04  0.00000000000E+00 0.  1.
    9000005    2    1    2  501    0  0.72508911415E+01  0.85076692280E+01 -0.95743286805E+03  0.10200886798E+04  0.35182134939E+03 0.  0.
         13    1    3    3    0    0  0.69781375771E+02 -0.87846186583E+02 -0.86631607190E+02  0.14174423539E+03  0.00000000000E+00 0.  1.
          1    1    3    3  501    0 -0.62530484630E+02  0.96353855811E+02 -0.87080126086E+03  0.87834444437E+03  0.00000000000E+00 0.  1.
         21    1    1    2  502  501 -0.72508911415E+01 -0.85076692280E+01 -0.84597674204E+01  0.14018684776E+02  0.00000000000E+00 0.  1.
<mgrwt>
<rscale>  1 0.30000000E+03</rscale>
<asrwt>0</asrwt>
<pdfrwt beam="1">  1        1 0.12402704E+00 0.30000000E+03</pdfrwt>
<pdfrwt beam="2">0</pdfrwt>
<totfact> 0.24679042E+01</totfact>
</mgrwt>
</event>
<event>
 6    1  0.1939311E-004  0.3000000E+03  0.7818608E-02  0.1093470E+00
          1   -1    0    0  502    0  0.00000000000E+00  0.00000000000E+00  0.30559268639E+02  0.30559268639E+02  0.00000000000E+00 0.  1.
         13   -1    0    0    0    0 -0.00000000000E+00 -0.00000000000E+00 -0.10000000000E+04  0.10000000000E+04  0.00000000000E+00 0.  1.
    9000005    2    1    2  501    0 -0.28795950064E+02 -0.35358882697E+01 -0.91386554175E+03  0.96786707657E+03  0.31745037450E+03 0.  0.
         13    1    3    3    0    0 -0.10339630484E+03 -0.13069533978E+03 -0.40146491032E+03  0.43467935528E+03  0.00000000000E+00 0.  1.
          3    1    3    3  501    0  0.74600354774E+02  0.12715945151E+03 -0.51240063143E+03  0.53318772129E+03  0.00000000000E+00 0.  1.
         21    1    1    2  502  501  0.28795950064E+02  0.35358882697E+01 -0.55575189613E+02  0.62692192070E+02  0.00000000000E+00 0. -1.
<mgrwt>
<rscale>  1 0.30000000E+03</rscale>
<asrwt>0</asrwt>
<pdfrwt beam="1">  1        1 0.11112485E+00 0.30000000E+03</pdfrwt>
<pdfrwt beam="2">0</pdfrwt>
<totfact> 0.29255965E+01</totfact>
</mgrwt>
</event>
<event>
 6    1  0.1939311E-004  0.3000000E+03  0.7818608E-02  0.1093470E+00
          1   -1    0    0  502    0  0.00000000000E+00  0.00000000000E+00  0.43532013860E+02  0.43532013860E+02  0.00000000000E+00 0.  1.
         13   -1    0    0    0    0 -0.00000000000E+00 -0.00000000000E+00 -0.10000000000E+04  0.10000000000E+04  0.00000000000E+00 0.  1.
    9000005    2    1    2  501    0  0.75784474153E+02  0.25837337993E+02 -0.82022567200E+03  0.88550409632E+03  0.32393903292E+03 0.  0.
         13    1    3    3    0    0 -0.61538704451E+02  0.12711911925E+03 -0.21946598390E+03  0.26098199308E+03  0.00000000000E+00 0.  1.
          3    1    3    3  501    0  0.13732317860E+03 -0.10128178125E+03 -0.60075968810E+03  0.62452210325E+03  0.00000000000E+00 0.  1.
         21    1    1    2  502  501 -0.75784474153E+02 -0.25837337993E+02 -0.13624231414E+03  0.15802791754E+03  0.00000000000E+00 0. -1.
<mgrwt>
<rscale>  1 0.30000000E+03</rscale>
<asrwt>0</asrwt>
<pdfrwt beam="1">  1        1 0.15829857E+00 0.30000000E+03</pdfrwt>
<pdfrwt beam="2">0</pdfrwt>
<totfact> 0.16318075E+01</totfact>
</mgrwt>
</event>
<event>
 6    1  0.1939311E-004  0.3000000E+03  0.7818608E-02  0.1093470E+00
          1   -1    0    0  502    0  0.00000000000E+00  0.00000000000E+00  0.49397326302E+02  0.49397326302E+02  0.00000000000E+00 0.  1.
         13   -1    0    0    0    0 -0.00000000000E+00 -0.00000000000E+00 -0.10000000000E+04  0.10000000000E+04  0.00000000000E+00 0.  1.
    9000005    2    1    2  501    0 -0.23650419826E+02 -0.81525310189E+01 -0.96583356654E+03  0.10201093387E+04  0.32735726441E+03 0.  0.
         13    1    3    3    0    0  0.70570577140E+02  0.66659497538E+00 -0.90469788289E+03  0.90744636757E+03  0.00000000000E+00 0.  1.
          3    1    3    3  501    0 -0.94220996967E+02 -0.88191259943E+01 -0.61135683649E+02  0.11266297115E+03  0.00000000000E+00 0.  1.
         21    1    1    2  502  501  0.23650419826E+02  0.81525310189E+01  0.15230892843E+02  0.29287987585E+02  0.00000000000E+00 0.  1.
<mgrwt>
<rscale>  1 0.30000000E+03</rscale>
<asrwt>0</asrwt>
<pdfrwt beam="1">  1        1 0.17962702E+00 0.30000000E+03</pdfrwt>
<pdfrwt beam="2">0</pdfrwt>
<totfact> 0.12827636E+01</totfact>
</mgrwt>
</event>
<event>
 6    1  0.1939311E-004  0.3000000E+03  0.7818608E-02  0.1093470E+00
          1   -1    0    0  502    0  0.00000000000E+00  0.00000000000E+00  0.28075053917E+02  0.28075053917E+02  0.00000000000E+00 0.  1.
         13   -1    0    0    0    0 -0.00000000000E+00 -0.00000000000E+00 -0.10000000000E+04  0.10000000000E+04  0.00000000000E+00 0.  1.
    9000005    2    1    2  501    0  0.65427143863E+01 -0.11293586855E+02 -0.96294724262E+03  0.10122336091E+04  0.31173568136E+03 0.  0.
         13    1    3    3    0    0  0.22265502510E+01 -0.14855804082E+03 -0.29485611015E+03  0.33017355241E+03  0.00000000000E+00 0.  1.
          3    1    3    3  501    0  0.43161641353E+01  0.13726445397E+03 -0.66809113247E+03  0.68206005665E+03  0.00000000000E+00 0.  1.
         21    1    1    2  502  501 -0.65427143863E+01  0.11293586855E+02 -0.89777034602E+01  0.15841444852E+02  0.00000000000E+00 0. -1.
<mgrwt>
<rscale>  1 0.30000000E+03</rscale>
<asrwt>0</asrwt>
<pdfrwt beam="1">  1        1 0.10209132E+00 0.30000000E+03</pdfrwt>
<pdfrwt beam="2">0</pdfrwt>
<totfact> 0.33203443E+01</totfact>
</mgrwt>
</event>
<event>
 6    1  0.1939311E-004  0.3000000E+03  0.7818608E-02  0.1093470E+00
          1   -1    0    0  502    0  0.00000000000E+00  0.00000000000E+00  0.83080761572E+02  0.83080761572E+02  0.00000000000E+00 0.  1.
         13   -1    0    0    0    0 -0.00000000000E+00 -0.00000000000E+00 -0.10000000000E+04  0.10000000000E+04  0.00000000000E+00 0.  1.
    9000005    2    1    2  501    0 -0.58392142841E+02  0.10097864044E+03 -0.89944971342E+03  0.96513368668E+03  0.32994987198E+03 0.  0.
         13    1    3    3    0    0  0.66424225665E+02  0.17096673536E+03 -0.67056510359E+03  0.69519735364E+03  0.00000000000E+00 0.  1.
          1    1    3    3  501    0 -0.12481636851E+03 -0.69988094921E+02 -0.22888460984E+03  0.26993633304E+03  0.00000000000E+00 0.  1.
         21    1    1    2  502  501  0.58392142841E+02 -0.10097864044E+03 -0.17469525007E+02  0.11794707489E+03  0.00000000000E+00 0.  1.
<mgrwt>
<rscale>  1 0.30000000E+03</rscale>
<asrwt>0</asrwt>
<pdfrwt beam="1">  1        1 0.30211250E+00 0.30000000E+03</pdfrwt>
<pdfrwt beam="2">0</pdfrwt>
<totfact> 0.33950586E+00</totfact>
</mgrwt>
</event>
<event>
 6    1  0.1939311E-004  0.3000000E+03  0.7818608E-02  0.1093470E+00
          1   -1    0    0  502    0  0.00000000000E+00  0.00000000000E+00  0.30624895608E+02  0.30624895608E+02  0.00000000000E+00 0.  1.
         13   -1    0    0    0    0 -0.00000000000E+00 -0.00000000000E+00 -0.10000000000E+04  0.10000000000E+04  0.00000000000E+00 0.  1.
    9000005    2    1    2  501    0  0.76091038938E+01  0.15484890899E+02 -0.96168023209E+03  0.10117333269E+04  0.31381168823E+03 0.  0.
         13    1    3    3    0    0 -0.60783005824E+02  0.14260726487E+03 -0.34250046149E+03  0.37594942734E+03  0.00000000000E+00 0.  1.
          1    1    3    3  501    0  0.68392109718E+02 -0.12712237397E+03 -0.61917977060E+03  0.63578389957E+03  0.00000000000E+00 0.  1.
         21    1    1    2  502  501 -0.76091038938E+01 -0.15484890899E+02 -0.76948722988E+01  0.18891568699E+02  0.00000000000E+00 0. -1.
<mgrwt>
<rscale>  1 0.30000000E+03</rscale>
<asrwt>0</asrwt>
<pdfrwt beam="1">  1        1 0.11136349E+00 0.30000000E+03</pdfrwt>
<pdfrwt beam="2">0</pdfrwt>
<totfact> 0.29160977E+01</totfact>
</mgrwt>
</event>
<event>
 6    1  0.1939311E-004  0.3000000E+03  0.7818608E-02  0.1093470E+00
          1   -1    0    0  502    0  0.00000000000E+00  0.00000000000E+00  0.31851328266E+02  0.31851328266E+02  0.00000000000E+00 0.  1.
         13   -1    0    0    0    0 -0.00000000000E+00 -0.00000000000E+00 -0.10000000000E+04  0.10000000000E+04  0.00000000000E+00 0.  1.
    9000005    2    1    2  501    0 -0.28583241854E+02  0.33083961785E+01 -0.94203430267E+03  0.99299380040E+03  0.31269811804E+03 0.  0.
         13    1    3    3    0    0 -0.15566361705E+03 -0.34555945964E+02 -0.69023404147E+03  0.70841252606E+03  0.00000000000E+00 0.  1.
          3    1    3    3  501    0  0.12708037519E+03  0.37864342142E+02 -0.25180026120E+03  0.28458127435E+03  0.00000000000E+00 0.  1.
         21    1    1    2  502  501  0.28583241854E+02 -0.33083961785E+01 -0.26114369062E+02  0.38857527864E+02  0.00000000000E+00 0.  1.
<mgrwt>
<rscale>  1 0.30000000E+03</rscale>
<asrwt>0</asrwt>
<pdfrwt beam="1">  1        1 0.11582326E+00 0.30000000E+03</pdfrwt>
<pdfrwt beam="2">0</pdfrwt>
<totfact> 0.27463482E+01</totfact>
</mgrwt>
</event>
<event>
 6    1  0.1939311E-004  0.3000000E+03  0.7818608E-02  0.1093470E+00
          1   -1    0    0  502    0  0.00000000000E+00  0.00000000000E+00  0.28746692127E+02  0.28746692127E+02  0.00000000000E+00 0.  1.
         13   -1    0    0    0    0 -0.00000000000E+00 -0.00000000000E+00 -0.10000000000E+04  0.10000000000E+04  0.00000000000E+00 0.  1.
    9000005    2    1    2  501    0 -0.52287840823E+01  0.17781520050E+02 -0.93176511201E+03  0.98512513495E+03  0.31928323619E+03 0.  0.
         13    1    3    3    0    0 -0.13935305647E+03 -0.65281020952E+02 -0.57101709749E+03  0.59138939090E+03  0.00000000000E+00 0.  1.
          3    1    3    3  501    0  0.13412427239E+03  0.83062541002E+02 -0.36074801452E+03  0.39373574405E+03  0.00000000000E+00 0.  1.
         21    1    1    2  502  501  0.52287840823E+01 -0.17781520050E+02 -0.39488195864E+02  0.43621557181E+02  0.00000000000E+00 0.  1.
<mgrwt>
<rscale>  1 0.30000000E+03</rscale>
<asrwt>0</asrwt>
<pdfrwt beam="1">  1        1 0.10453365E+00 0.30000000E+03</pdfrwt>
<pdfrwt beam="2">0</pdfrwt>
<totfact> 0.32063852E+01</totfact>
</mgrwt>
</event>
<event>
 6    1  0.1939311E-004  0.3000000E+03  0.7818608E-02  0.1093470E+00
          1   -1    0    0  502    0  0.00000000000E+00  0.00000000000E+00  0.33680701511E+02  0.33680701511E+02  0.00000000000E+00 0.  1.
         13   -1    0    0    0    0 -0.00000000000E+00 -0.00000000000E+00 -0.10000000000E+04  0.10000000000E+04  0.00000000000E+00 0.  1.
    9000005    2    1    2  501    0 -0.13516906843E+02 -0.18709768346E+02 -0.95297629508E+03  0.10070199074E+04  0.32464213025E+03 0.  0.
         13    1    3    3    0    0  0.14346768885E+02 -0.11841421358E+03 -0.85887573458E+03  0.86711895563E+03  0.00000000000E+00 0.  1.
          3    1    3    3  501    0 -0.27863675727E+02  0.99704445230E+02 -0.94100560497E+02  0.13990095178E+03  0.00000000000E+00 0.  1.
         21    1    1    2  502  501  0.13516906843E+02  0.18709768346E+02 -0.13343003411E+02  0.26660794103E+02  0.00000000000E+00 0. -1.
<mgrwt>
<rscale>  1 0.30000000E+03</rscale>
<asrwt>0</asrwt>
<pdfrwt beam="1">  1        1 0.12247554E+00 0.30000000E+03</pdfrwt>
<pdfrwt beam="2">0</pdfrwt>
<totfact> 0.25175822E+01</totfact>
</mgrwt>
</event>
<event>
 6    1  0.1939311E-004  0.3000000E+03  0.7818608E-02  0.1093470E+00
          1   -1    0    0  502    0  0.00000000000E+00  0.00000000000E+00  0.34127882177E+02  0.34127882177E+02  0.00000000000E+00 0.  1.
         13   -1    0    0    0    0 -0.00000000000E+00 -0.00000000000E+00 -0.10000000000E+04  0.10000000000E+04  0.00000000000E+00 0.  1.
    9000005    2    1    2  501    0  0.67339496589E+01 -0.40214652842E+02 -0.83790088778E+03  0.89981779283E+03  0.32547134770E+03 0.  0.
         13    1    3    3    0    0  0.30820985677E+02 -0.66326353020E+02 -0.85656965751E+03  0.85968639423E+03  0.00000000000E+00 0.  1.
          1    1    3    3  501    0 -0.24087036018E+02  0.26111700178E+02  0.18668769728E+02  0.40131398599E+02  0.00000000000E+00 0.  1.
         21    1    1    2  502  501 -0.67339496589E+01  0.40214652842E+02 -0.12797123004E+03  0.13431008935E+03  0.00000000000E+00 0.  1.
<mgrwt>
<rscale>  1 0.30000000E+03</rscale>
<asrwt>0</asrwt>
<pdfrwt beam="1">  1        1 0.12410165E+00 0.30000000E+03</pdfrwt>
<pdfrwt beam="2">0</pdfrwt>
<totfact> 0.24655474E+01</totfact>
</mgrwt>
</event>
<event>
 6    1  0.1939311E-004  0.3000000E+03  0.7818608E-02  0.1093470E+00
          3   -1    0    0  502    0  0.00000000000E+00  0.00000000000E+00  0.31633355133E+02  0.31633355133E+02  0.00000000000E+00 0.  1.
         13   -1    0    0    0    0 -0.00000000000E+00 -0.00000000000E+00 -0.10000000000E+04  0.10000000000E+04  0.00000000000E+00 0.  1.
    9000005    2    1    2  501    0 -0.16492674191E+02 -0.49832031785E+01 -0.93793173797E+03  0.99666016292E+03  0.33662842221E+03 0.  0.
         13    1    3    3    0    0  0.13313366624E+03  0.87530911042E+02 -0.49768236154E+03  0.52256479643E+03  0.00000000000E+00 0.  1.
          3    1    3    3  501    0 -0.14962634043E+03 -0.92514114221E+02 -0.44024937643E+03  0.47409536649E+03  0.00000000000E+00 0.  1.
         21    1    1    2  502  501  0.16492674191E+02  0.49832031785E+01 -0.30434906895E+02  0.34973192214E+02  0.00000000000E+00 0.  1.
<mgrwt>
<rscale>  1 0.30000000E+03</rscale>
<asrwt>0</asrwt>
<pdfrwt beam="1">  1        3 0.11503062E+00 0.30000000E+03</pdfrwt>
<pdfrwt beam="2">0</pdfrwt>
<totfact> 0.26397512E+00</totfact>
</mgrwt>
</event>
<event>
 6    1  0.1939311E-004  0.3000000E+03  0.7818608E-02  0.1093470E+00
          1   -1    0    0  502    0  0.00000000000E+00  0.00000000000E+00  0.44494540825E+02  0.44494540825E+02  0.00000000000E+00 0.  1.
         13   -1    0    0    0    0 -0.00000000000E+00 -0.00000000000E+00 -0.10000000000E+04  0.10000000000E+04  0.00000000000E+00 0.  1.
    9000005    2    1    2  501    0  0.11598843906E+02 -0.26193884323E+02 -0.96897067008E+03  0.10128407155E+04  0.29346465314E+03 0.  0.
         13    1    3    3    0    0  0.10116134596E+02  0.50636614830E+02 -0.92058396285E+03  0.92203103830E+03  0.00000000000E+00 0.  1.
          3    1    3    3  501    0  0.14827093102E+01 -0.76830499153E+02 -0.48386707236E+02  0.90809677150E+02  0.00000000000E+00 0.  1.
         21    1    1    2  502  501 -0.11598843906E+02  0.26193884323E+02  0.13465210909E+02  0.31653825373E+02  0.00000000000E+00 0.  1.
<mgrwt>
<rscale>  1 0.30000000E+03</rscale>
<asrwt>0</asrwt>
<pdfrwt beam="1">  1        1 0.16179867E+00 0.30000000E+03</pdfrwt>
<pdfrwt beam="2">0</pdfrwt>
<totfact> 0.15677690E+01</totfact>
</mgrwt>
</event>
<event>
 6    1  0.1939311E-004  0.3000000E+03  0.7818608E-02  0.1093470E+00
          1   -1    0    0  502    0  0.00000000000E+00  0.00000000000E+00  0.37406502194E+02  0.37406502194E+02  0.00000000000E+00 0.  1.
         13   -1    0    0    0    0 -0.00000000000E+00 -0.00000000000E+00 -0.10000000000E+04  0.10000000000E+04  0.00000000000E+00 0.  1.
    9000005    2    1    2  501    0 -0.42163009932E+01 -0.21539573161E+02 -0.95993729311E+03  0.10152980009E+04  0.32995256252E+03 0.  0.
         13    1    3    3    0    0  0.12682816634E+03  0.56557216075E+02 -0.22274434017E+03  0.26248646355E+03  0.00000000000E+00 0.  1.
          1    1    3    3  501    0 -0.13104446733E+03 -0.78096789236E+02 -0.73719295294E+03  0.75281153735E+03  0.00000000000E+00 0.  1.
         21    1    1    2  502  501  0.42163009932E+01  0.21539573161E+02 -0.26562046922E+01  0.22108501292E+02  0.00000000000E+00 0. -1.
<mgrwt>
<rscale>  1 0.30000000E+03</rscale>
<asrwt>0</asrwt>
<pdfrwt beam="1">  1        1 0.13602393E+00 0.30000000E+03</pdfrwt>
<pdfrwt beam="2">0</pdfrwt>
<totfact> 0.21234093E+01</totfact>
</mgrwt>
</event>
<event>
 6    1  0.1939311E-004  0.3000000E+03  0.7818608E-02  0.1093470E+00
          1   -1    0    0  502    0  0.00000000000E+00  0.00000000000E+00  0.28691556877E+02  0.28691556877E+02  0.00000000000E+00 0.  1.
         13   -1    0    0    0    0 -0.00000000000E+00 -0.00000000000E+00 -0.10000000000E+04  0.10000000000E+04  0.00000000000E+00 0.  1.
    9000005    2    1    2  501    0 -0.95797425522E+01 -0.15275920621E+01 -0.91534186390E+03  0.97189047419E+03  0.32653676823E+03 0.  0.
         13    1    3    3    0    0 -0.13943579043E+03 -0.87679030297E+02 -0.37618271119E+03  0.41066212901E+03  0.00000000000E+00 0.  1.
          3    1    3    3  501    0  0.12985604787E+03  0.86151438235E+02 -0.53915915271E+03  0.56122834518E+03  0.00000000000E+00 0.  1.
         21    1    1    2  502  501  0.95797425522E+01  0.15275920621E+01 -0.55966579219E+02  0.56801082686E+02  0.00000000000E+00 0.  1.
<mgrwt>
<rscale>  1 0.30000000E+03</rscale>
<asrwt>0</asrwt>
<pdfrwt beam="1">  1        1 0.10433315E+00 0.30000000E+03</pdfrwt>
<pdfrwt beam="2">0</pdfrwt>
<totfact> 0.32155241E+01</totfact>
</mgrwt>
</event>
<event>
 6    1  0.1939311E-004  0.3000000E+03  0.7818608E-02  0.1093470E+00
          1   -1    0    0  502    0  0.00000000000E+00  0.00000000000E+00  0.56169257432E+02  0.56169257432E+02  0.00000000000E+00 0.  1.
         13   -1    0    0    0    0 -0.00000000000E+00 -0.00000000000E+00 -0.10000000000E+04  0.10000000000E+04  0.00000000000E+00 0.  1.
    9000005    2    1    2  501    0 -0.16871469446E+02  0.13047429107E+02 -0.97065813573E+03  0.10218969521E+04  0.31881229963E+03 0.  0.
         13    1    3    3    0    0 -0.11151748857E+03 -0.10842733064E+03 -0.61437854319E+03  0.63376149348E+03  0.00000000000E+00 0.  1.
          1    1    3    3  501    0  0.94646019120E+02  0.12147475975E+03 -0.35627959254E+03  0.38813545864E+03  0.00000000000E+00 0.  1.
         21    1    1    2  502  501  0.16871469446E+02 -0.13047429107E+02  0.26827393164E+02  0.34272305314E+02  0.00000000000E+00 0. -1.
<mgrwt>
<rscale>  1 0.30000000E+03</rscale>
<asrwt>0</asrwt>
<pdfrwt beam="1">  1        1 0.20425228E+00 0.30000000E+03</pdfrwt>
<pdfrwt beam="2">0</pdfrwt>
<totfact> 0.97782045E+00</totfact>
</mgrwt>
</event>
<event>
 6    1  0.1939311E-004  0.3000000E+03  0.7818608E-02  0.1093470E+00
          1   -1    0    0  502    0  0.00000000000E+00  0.00000000000E+00  0.27466346604E+02  0.27466346604E+02  0.00000000000E+00 0.  1.
         13   -1    0    0    0    0 -0.00000000000E+00 -0.00000000000E+00 -0.10000000000E+04  0.10000000000E+04  0.00000000000E+00 0.  1.
    9000005    2    1    2  501    0  0.18806788019E+02  0.70215643280E+01 -0.94464010621E+03  0.99309997328E+03  0.30577709040E+03 0.  0.
         13    1    3    3    0    0 -0.77152532209E+01  0.73520193794E+02 -0.37046878668E+02  0.82687455196E+02  0.00000000000E+00 0.  1.
          1    1    3    3  501    0  0.26522041240E+02 -0.66498629466E+02 -0.90759322755E+03  0.91041251808E+03  0.00000000000E+00 0.  1.
         21    1    1    2  502  501 -0.18806788019E+02 -0.70215643280E+01 -0.27893547183E+02  0.34366373327E+02  0.00000000000E+00 0.  1.
<mgrwt>
<rscale>  1 0.30000000E+03</rscale>
<asrwt>0</asrwt>
<pdfrwt beam="1">  1        1 0.99877835E-01 0.30000000E+03</pdfrwt>
<pdfrwt beam="2">0</pdfrwt>
<totfact> 0.34288166E+01</totfact>
</mgrwt>
</event>
<event>
 6    1  0.1939311E-004  0.3000000E+03  0.7818608E-02  0.1093470E+00
          1   -1    0    0  502    0  0.00000000000E+00  0.00000000000E+00  0.29909197071E+02  0.29909197071E+02  0.00000000000E+00 0.  1.
         13   -1    0    0    0    0 -0.00000000000E+00 -0.00000000000E+00 -0.10000000000E+04  0.10000000000E+04  0.00000000000E+00 0.  1.
    9000005    2    1    2  501    0 -0.52208697613E+01 -0.16227952976E+02 -0.93864053487E+03  0.99413597664E+03  0.32706219961E+03 0.  0.
         13    1    3    3    0    0 -0.17829170938E+02 -0.19692400406E+02  0.21335070603E+02  0.34071325300E+02  0.00000000000E+00 0.  1.
          1    1    3    3  501    0  0.12608301177E+02  0.34644474296E+01 -0.95997560547E+03  0.96006465134E+03  0.00000000000E+00 0.  1.
         21    1    1    2  502  501  0.52208697613E+01  0.16227952976E+02 -0.31450268062E+02  0.35773220431E+02  0.00000000000E+00 0.  1.
<mgrwt>
<rscale>  1 0.30000000E+03</rscale>
<asrwt>0</asrwt>
<pdfrwt beam="1">  1        1 0.10876095E+00 0.30000000E+03</pdfrwt>
<pdfrwt beam="2">0</pdfrwt>
<totfact> 0.30221030E+01</totfact>
</mgrwt>
</event>
<event>
 6    1  0.1939311E-004  0.3000000E+03  0.7818608E-02  0.1093470E+00
          1   -1    0    0  502    0  0.00000000000E+00  0.00000000000E+00  0.40599421074E+02  0.40599421074E+02  0.00000000000E+00 0.  1.
         13   -1    0    0    0    0 -0.00000000000E+00 -0.00000000000E+00 -0.10000000000E+04  0.10000000000E+04  0.00000000000E+00 0.  1.
    9000005    2    1    2  501    0  0.29922226484E+02  0.16353615198E+02 -0.94961024601E+03  0.10051222314E+04  0.32764050478E+03 0.  0.
         13    1    3    3    0    0  0.11749382214E+03  0.68927621251E+02 -0.85536528987E+03  0.86614409559E+03  0.00000000000E+00 0.  1.
          1    1    3    3  501    0 -0.87571595655E+02 -0.52574006053E+02 -0.94244956148E+02  0.13897813582E+03  0.00000000000E+00 0.  1.
         21    1    1    2  502  501 -0.29922226484E+02 -0.16353615198E+02 -0.97903329132E+01  0.35477189663E+02  0.00000000000E+00 0.  1.
<mgrwt>
<rscale>  1 0.30000000E+03</rscale>
<asrwt>0</asrwt>
<pdfrwt beam="1">  1        1 0.14763457E+00 0.30000000E+03</pdfrwt>
<pdfrwt beam="2">0</pdfrwt>
<totfact> 0.18471178E+01</totfact>
</mgrwt>
</event>
<event>
 6    1  0.1939311E-004  0.3000000E+03  0.7818608E-02  0.1093470E+00
          1   -1    0    0  502    0  0.00000000000E+00  0.00000000000E+00  0.65998464200E+02  0.65998464200E+02  0.00000000000E+00 0.  1.
         13   -1    0    0    0    0 -0.00000000000E+00 -0.00000000000E+00 -0.10000000000E+04  0.10000000000E+04  0.00000000000E+00 0.  1.
    9000005    2    1    2  501    0  0.10120352918E+02  0.40355283286E+01 -0.97281590027E+03  0.10256839269E+04  0.32486618011E+03 0.  0.
         13    1    3    3    0    0 -0.14121673137E+03 -0.64319374132E+02 -0.39200352577E+03  0.42159923070E+03  0.00000000000E+00 0.  1.
          1    1    3    3  501    0  0.15133708429E+03  0.68354902461E+02 -0.58081237450E+03  0.60408469616E+03  0.00000000000E+00 0.  1.
         21    1    1    2  502  501 -0.10120352918E+02 -0.40355283286E+01  0.38814364465E+02  0.40314537340E+02  0.00000000000E+00 0.  1.
<mgrwt>
<rscale>  1 0.30000000E+03</rscale>
<asrwt>0</asrwt>
<pdfrwt beam="1">  1        1 0.23999492E+00 0.30000000E+03</pdfrwt>
<pdfrwt beam="2">0</pdfrwt>
<totfact> 0.66442070E+00</totfact>
</mgrwt>
</event>
<event>
 6    1  0.1939311E-004  0.3000000E+03  0.7818608E-02  0.1093470E+00
          1   -1    0    0  502    0  0.00000000000E+00  0.00000000000E+00  0.83518753872E+02  0.83518753872E+02  0.00000000000E+00 0.  1.
         13   -1    0    0    0    0 -0.00000000000E+00 -0.00000000000E+00 -0.10000000000E+04  0.10000000000E+04  0.00000000000E+00 0.  1.
    9000005    2    1    2  501    0 -0.10434086262E+03 -0.60097964825E+02 -0.89752257722E+03  0.96162448775E+03  0.32353685699E+03 0.  0.
         13    1    3    3    0    0 -0.14110013120E+03  0.55938635894E+02 -0.18745899270E+03  0.24120375610E+03  0.00000000000E+00 0.  1.
          3    1    3    3  501    0  0.36759268587E+02 -0.11603660072E+03 -0.71006358452E+03  0.72042073165E+03  0.00000000000E+00 0.  1.
         21    1    1    2  502  501  0.10434086262E+03  0.60097964825E+02 -0.18958668910E+02  0.12189426613E+03  0.00000000000E+00 0.  1.
<mgrwt>
<rscale>  1 0.30000000E+03</rscale>
<asrwt>0</asrwt>
<pdfrwt beam="1">  1        1 0.30370520E+00 0.30000000E+03</pdfrwt>
<pdfrwt beam="2">0</pdfrwt>
<totfact> 0.33363317E+00</totfact>
</mgrwt>
</event>
<event>
 6    1  0.1939311E-004  0.3000000E+03  0.7818608E-02  0.1093470E+00
          1   -1    0    0  502    0  0.00000000000E+00  0.00000000000E+00  0.64578083206E+02  0.64578083206E+02  0.00000000000E+00 0.  1.
         13   -1    0    0    0    0 -0.00000000000E+00 -0.00000000000E+00 -0.10000000000E+04  0.10000000000E+04  0.00000000000E+00 0.  1.
    9000005    2    1    2  501    0  0.58517533515E+02  0.67178603369E+02 -0.90978125262E+03  0.97187042366E+03  0.32998928208E+03 0.  0.
         13    1    3    3    0    0  0.18636191607E+03  0.14968944647E+02 -0.36803869239E+03  0.41280420560E+03  0.00000000000E+00 0.  1.
          1    1    3    3  501    0 -0.12784438255E+03  0.52209658722E+02 -0.54174256023E+03  0.55906621806E+03  0.00000000000E+00 0.  1.
         21    1    1    2  502  501 -0.58517533515E+02 -0.67178603369E+02 -0.25640664175E+02  0.92707659546E+02  0.00000000000E+00 0.  1.
<mgrwt>
<rscale>  1 0.30000000E+03</rscale>
<asrwt>0</asrwt>
<pdfrwt beam="1">  1        1 0.23482989E+00 0.30000000E+03</pdfrwt>
<pdfrwt beam="2">0</pdfrwt>
<totfact> 0.70250961E+00</totfact>
</mgrwt>
</event>
<event>
 6    1  0.1939311E-004  0.3000000E+03  0.7818608E-02  0.1093470E+00
          1   -1    0    0  502    0  0.00000000000E+00  0.00000000000E+00  0.36903605202E+02  0.36903605202E+02  0.00000000000E+00 0.  1.
         13   -1    0    0    0    0 -0.00000000000E+00 -0.00000000000E+00 -0.10000000000E+04  0.10000000000E+04  0.00000000000E+00 0.  1.
    9000005    2    1    2  501    0 -0.43379689212E+02 -0.76067558167E+00 -0.92866737918E+03  0.98151648414E+03  0.31475249231E+03 0.  0.
         13    1    3    3    0    0 -0.11322816724E+03 -0.11936163249E+03 -0.35051955880E+03  0.38721025072E+03  0.00000000000E+00 0.  1.
          1    1    3    3  501    0  0.69848478024E+02  0.11860095690E+03 -0.57814782038E+03  0.59430623341E+03  0.00000000000E+00 0.  1.
         21    1    1    2  502  501  0.43379689212E+02  0.76067558167E+00 -0.34429015618E+02  0.55387121066E+02  0.00000000000E+00 0.  1.
<mgrwt>
<rscale>  1 0.30000000E+03</rscale>
<asrwt>0</asrwt>
<pdfrwt beam="1">  1        1 0.13419521E+00 0.30000000E+03</pdfrwt>
<pdfrwt beam="2">0</pdfrwt>
<totfact> 0.21716662E+01</totfact>
</mgrwt>
</event>
<event>
 6    1  0.1939311E-004  0.3000000E+03  0.7818608E-02  0.1093470E+00
          1   -1    0    0  502    0  0.00000000000E+00  0.00000000000E+00  0.22379482501E+02  0.22379482501E+02  0.00000000000E+00 0.  1.
         13   -1    0    0    0    0 -0.00000000000E+00 -0.00000000000E+00 -0.10000000000E+04  0.10000000000E+04  0.00000000000E+00 0.  1.
    9000005    2    1    2  501    0  0.34647636098E+01  0.20218815303E+02 -0.90618734366E+03  0.94805920664E+03  0.27788478262E+03 0.  0.
         13    1    3    3    0    0 -0.53748752419E+02 -0.91652664616E+02 -0.68898939062E+03  0.69713378896E+03  0.00000000000E+00 0.  1.
          3    1    3    3  501    0  0.57213516029E+02  0.11187147992E+03 -0.21719795303E+03  0.25092541768E+03  0.00000000000E+00 0.  1.
         21    1    1    2  502  501 -0.34647636098E+01 -0.20218815303E+02 -0.71433173843E+02  0.74320275863E+02  0.00000000000E+00 0. -1.
<mgrwt>
<rscale>  1 0.30000000E+03</rscale>
<asrwt>0</asrwt>
<pdfrwt beam="1">  1        1 0.81380108E-01 0.30000000E+03</pdfrwt>
<pdfrwt beam="2">0</pdfrwt>
<totfact> 0.45866526E+01</totfact>
</mgrwt>
</event>
<event>
 6    1  0.1939311E-004  0.3000000E+03  0.7818608E-02  0.1093470E+00
          1   -1    0    0  502    0  0.00000000000E+00  0.00000000000E+00  0.32402963078E+02  0.32402963078E+02  0.00000000000E+00 0.  1.
         13   -1    0    0    0    0 -0.00000000000E+00 -0.00000000000E+00 -0.10000000000E+04  0.10000000000E+04  0.00000000000E+00 0.  1.
    9000005    2    1    2  501    0 -0.50037209681E+01  0.10189955235E+02 -0.96543581048E+03  0.10208468690E+04  0.33156168857E+03 0.  0.
         13    1    3    3    0    0 -0.14373310324E+03  0.24882251802E+01 -0.22158790429E+03  0.26413366987E+03  0.00000000000E+00 0.  1.
          3    1    3    3  501    0  0.13872938228E+03  0.77017300544E+01 -0.74384790619E+03  0.75671319910E+03  0.00000000000E+00 0.  1.
         21    1    1    2  502  501  0.50037209681E+01 -0.10189955235E+02 -0.21612264439E+01  0.11556094104E+02  0.00000000000E+00 0.  1.
<mgrwt>
<rscale>  1 0.30000000E+03</rscale>
<asrwt>0</asrwt>
<pdfrwt beam="1">  1        1 0.11782921E+00 0.30000000E+03</pdfrwt>
<pdfrwt beam="2">0</pdfrwt>
<totfact> 0.26744958E+01</totfact>
</mgrwt>
</event>
<event>
 6    1  0.1939311E-004  0.3000000E+03  0.7818608E-02  0.1093470E+00
          1   -1    0    0  502    0  0.00000000000E+00  0.00000000000E+00  0.35169115332E+02  0.35169115332E+02  0.00000000000E+00 0.  1.
         13   -1    0    0    0    0 -0.00000000000E+00 -0.00000000000E+00 -0.10000000000E+04  0.10000000000E+04  0.00000000000E+00 0.  1.
    9000005    2    1    2  501    0  0.14804232629E+02  0.38865843321E+01 -0.96603208166E+03  0.10198161444E+04  0.32645476685E+03 0.  0.
         13    1    3    3    0    0  0.51616329149E+02 -0.13820905486E+03 -0.26235154420E+03  0.30098890515E+03  0.00000000000E+00 0.  1.
          1    1    3    3  501    0 -0.36812096520E+02  0.14209563919E+03 -0.70368053746E+03  0.71882723928E+03  0.00000000000E+00 0.  1.
         21    1    1    2  502  501 -0.14804232629E+02 -0.38865843321E+01  0.12011969877E+01  0.15352970908E+02  0.00000000000E+00 0. -1.
<mgrwt>
<rscale>  1 0.30000000E+03</rscale>
<asrwt>0</asrwt>
<pdfrwt beam="1">  1        1 0.12788796E+00 0.30000000E+03</pdfrwt>
<pdfrwt beam="2">0</pdfrwt>
<totfact> 0.23496154E+01</totfact>
</mgrwt>
</event>
<event>
 6    1  0.1939311E-004  0.3000000E+03  0.7818608E-02  0.1093470E+00
          1   -1    0    0  502    0  0.00000000000E+00  0.00000000000E+00  0.36372372683E+02  0.36372372683E+02  0.00000000000E+00 0.  1.
         13   -1    0    0    0    0 -0.00000000000E+00 -0.00000000000E+00 -0.10000000000E+04  0.10000000000E+04  0.00000000000E+00 0.  1.
    9000005    2    1    2  501    0  0.10864779352E+02 -0.11605580481E+01 -0.97092549736E+03  0.10232327672E+04  0.32278411378E+03 0.  0.
         13    1    3    3    0    0 -0.14075397781E+03  0.12611789853E+02 -0.25735650773E+03  0.29360366412E+03  0.00000000000E+00 0.  1.
          3    1    3    3  501    0  0.15161875716E+03 -0.13772347901E+02 -0.71356898963E+03  0.72962910307E+03  0.00000000000E+00 0.  1.
         21    1    1    2  502  501 -0.10864779352E+02  0.11605580481E+01  0.72978700417E+01  0.13139605493E+02  0.00000000000E+00 0. -1.
<mgrwt>
<rscale>  1 0.30000000E+03</rscale>
<asrwt>0</asrwt>
<pdfrwt beam="1">  1        1 0.13226345E+00 0.30000000E+03</pdfrwt>
<pdfrwt beam="2">0</pdfrwt>
<totfact> 0.22242349E+01</totfact>
</mgrwt>
</event>
<event>
 6    1  0.1939311E-004  0.3000000E+03  0.7818608E-02  0.1093470E+00
          1   -1    0    0  502    0  0.00000000000E+00  0.00000000000E+00  0.32082799777E+02  0.32082799777E+02  0.00000000000E+00 0.  1.
         13   -1    0    0    0    0 -0.00000000000E+00 -0.00000000000E+00 -0.10000000000E+04  0.10000000000E+04  0.00000000000E+00 0.  1.
    9000005    2    1    2  501    0 -0.14678608384E+02  0.27857300971E+02 -0.91842523271E+03  0.97342322588E+03  0.32102395213E+03 0.  0.
         13    1    3    3    0    0  0.37219569109E+02 -0.63303757035E+02 -0.30818529916E+02  0.79639461108E+02  0.00000000000E+00 0.  1.
          3    1    3    3  501    0 -0.51898177493E+02  0.91161058005E+02 -0.88760670280E+03  0.89378376478E+03  0.00000000000E+00 0.  1.
         21    1    1    2  502  501  0.14678608384E+02 -0.27857300971E+02 -0.49491967508E+02  0.58659573893E+02  0.00000000000E+00 0.  1.
<mgrwt>
<rscale>  1 0.30000000E+03</rscale>
<asrwt>0</asrwt>
<pdfrwt beam="1">  1        1 0.11666497E+00 0.30000000E+03</pdfrwt>
<pdfrwt beam="2">0</pdfrwt>
<totfact> 0.27158776E+01</totfact>
</mgrwt>
</event>
<event>
 6    1  0.1939311E-004  0.3000000E+03  0.7818608E-02  0.1093470E+00
          1   -1    0    0  502    0  0.00000000000E+00  0.00000000000E+00  0.48715472474E+02  0.48715472474E+02  0.00000000000E+00 0.  1.
         13   -1    0    0    0    0 -0.00000000000E+00 -0.00000000000E+00 -0.10000000000E+04  0.10000000000E+04  0.00000000000E+00 0.  1.
    9000005    2    1    2  501    0  0.90487145592E+02  0.98007143036E+01 -0.57265267267E+03  0.65929788295E+03  0.31378119356E+03 0.  0.
         13    1    3    3    0    0  0.15181824370E+03 -0.10002217646E+03 -0.22307047417E+03  0.28777361128E+03  0.00000000000E+00 0.  1.
          3    1    3    3  501    0 -0.61331098107E+02  0.10982289077E+03 -0.34958219850E+03  0.37152427167E+03  0.00000000000E+00 0.  1.
         21    1    1    2  502  501 -0.90487145592E+02 -0.98007143036E+01 -0.37863185485E+03  0.38941758952E+03  0.00000000000E+00 0.  1.
<mgrwt>
<rscale>  1 0.30000000E+03</rscale>
<asrwt>0</asrwt>
<pdfrwt beam="1">  1        1 0.17714755E+00 0.30000000E+03</pdfrwt>
<pdfrwt beam="2">0</pdfrwt>
<totfact> 0.13187396E+01</totfact>
</mgrwt>
</event>
<event>
 6    1  0.1939311E-004  0.3000000E+03  0.7818608E-02  0.1093470E+00
          3   -1    0    0  502    0  0.00000000000E+00  0.00000000000E+00  0.37004367771E+02  0.37004367771E+02  0.00000000000E+00 0.  1.
         13   -1    0    0    0    0 -0.00000000000E+00 -0.00000000000E+00 -0.10000000000E+04  0.10000000000E+04  0.00000000000E+00 0.  1.
    9000005    2    1    2  501    0  0.24562642431E+02  0.44444751459E+02 -0.92471600443E+03  0.97341199999E+03  0.29975418853E+03 0.  0.
         13    1    3    3    0    0  0.79638838581E+02  0.15140271435E+03 -0.39937069663E+03  0.43446758204E+03  0.00000000000E+00 0.  1.
          1    1    3    3  501    0 -0.55076196150E+02 -0.10695796289E+03 -0.52534530780E+03  0.53894441795E+03  0.00000000000E+00 0.  1.
         21    1    1    2  502  501 -0.24562642431E+02 -0.44444751459E+02 -0.38279627801E+02  0.63592367781E+02  0.00000000000E+00 0.  1.
<mgrwt>
<rscale>  1 0.30000000E+03</rscale>
<asrwt>0</asrwt>
<pdfrwt beam="1">  1        3 0.13456162E+00 0.30000000E+03</pdfrwt>
<pdfrwt beam="2">0</pdfrwt>
<totfact> 0.15622976E+00</totfact>
</mgrwt>
</event>
<event>
 6    1  0.1939311E-004  0.3000000E+03  0.7818608E-02  0.1093470E+00
          1   -1    0    0  502    0  0.00000000000E+00  0.00000000000E+00  0.34033249506E+02  0.34033249506E+02  0.00000000000E+00 0.  1.
         13   -1    0    0    0    0 -0.00000000000E+00 -0.00000000000E+00 -0.10000000000E+04  0.10000000000E+04  0.00000000000E+00 0.  1.
    9000005    2    1    2  501    0  0.60747693423E+01 -0.15224207498E+02 -0.96306922491E+03  0.10173876804E+04  0.32757698476E+03 0.  0.
         13    1    3    3    0    0  0.16209843612E+03 -0.46962549787E+02 -0.49789415863E+03  0.52571853427E+03  0.00000000000E+00 0.  1.
          3    1    3    3  501    0 -0.15602366678E+03  0.31738342290E+02 -0.46517506628E+03  0.49166914613E+03  0.00000000000E+00 0.  1.
         21    1    1    2  502  501 -0.60747693423E+01  0.15224207498E+02 -0.28975255869E+01  0.16645569111E+02  0.00000000000E+00 0.  1.
<mgrwt>
<rscale>  1 0.30000000E+03</rscale>
<asrwt>0</asrwt>
<pdfrwt beam="1">  1        1 0.12375753E+00 0.30000000E+03</pdfrwt>
<pdfrwt beam="2">0</pdfrwt>
<totfact> 0.24764418E+01</totfact>
</mgrwt>
</event>
<event>
 6    1  0.1939311E-004  0.3000000E+03  0.7818608E-02  0.1093470E+00
          1   -1    0    0  502    0  0.00000000000E+00  0.00000000000E+00  0.24600746080E+02  0.24600746080E+02  0.00000000000E+00 0.  1.
         13   -1    0    0    0    0 -0.00000000000E+00 -0.00000000000E+00 -0.10000000000E+04  0.10000000000E+04  0.00000000000E+00 0.  1.
    9000005    2    1    2  501    0 -0.48963540553E+01 -0.81255972589E+01 -0.93751292068E+03  0.98554471121E+03  0.30377277977E+03 0.  0.
         13    1    3    3    0    0 -0.11680104613E+03  0.94921309456E+02 -0.51163872534E+03  0.53331672075E+03  0.00000000000E+00 0.  1.
          1    1    3    3  501    0  0.11190469208E+03 -0.10304690672E+03 -0.42587419534E+03  0.45222799045E+03  0.00000000000E+00 0.  1.
         21    1    1    2  502  501  0.48963540553E+01  0.81255972589E+01 -0.37886333238E+02  0.39056034874E+02  0.00000000000E+00 0.  1.
<mgrwt>
<rscale>  1 0.30000000E+03</rscale>
<asrwt>0</asrwt>
<pdfrwt beam="1">  1        1 0.89457447E-01 0.30000000E+03</pdfrwt>
<pdfrwt beam="2">0</pdfrwt>
<totfact> 0.40174507E+01</totfact>
</mgrwt>
</event>
<event>
 6    1  0.1939311E-004  0.3000000E+03  0.7818608E-02  0.1093470E+00
          1   -1    0    0  502    0  0.00000000000E+00  0.00000000000E+00  0.30249029251E+02  0.30249029251E+02  0.00000000000E+00 0.  1.
         13   -1    0    0    0    0 -0.00000000000E+00 -0.00000000000E+00 -0.10000000000E+04  0.10000000000E+04  0.00000000000E+00 0.  1.
    9000005    2    1    2  501    0 -0.12176541957E+02  0.42147656594E+01 -0.96225101451E+03  0.10153399123E+04  0.32376239780E+03 0.  0.
         13    1    3    3    0    0  0.39096659272E+02  0.15071709896E+03 -0.33894266589E+03  0.37299641210E+03  0.00000000000E+00 0.  1.
          1    1    3    3  501    0 -0.51273201229E+02 -0.14650233330E+03 -0.62330834863E+03  0.64234350023E+03  0.00000000000E+00 0.  1.
         21    1    1    2  502  501  0.12176541957E+02 -0.42147656594E+01 -0.74999562362E+01  0.14909116913E+02  0.00000000000E+00 0. -1.
<mgrwt>
<rscale>  1 0.30000000E+03</rscale>
<asrwt>0</asrwt>
<pdfrwt beam="1">  1        1 0.10999670E+00 0.30000000E+03</pdfrwt>
<pdfrwt beam="2">0</pdfrwt>
<totfact> 0.29710986E+01</totfact>
</mgrwt>
</event>
<event>
 6    1  0.1939311E-004  0.3000000E+03  0.7818608E-02  0.1093470E+00
          1   -1    0    0  502    0  0.00000000000E+00  0.00000000000E+00  0.38737698414E+02  0.38737698414E+02  0.00000000000E+00 0.  1.
         13   -1    0    0    0    0 -0.00000000000E+00 -0.00000000000E+00 -0.10000000000E+04  0.10000000000E+04  0.00000000000E+00 0.  1.
    9000005    2    1    2  501    0  0.34007039817E+01  0.14947209985E+02 -0.95729981546E+03  0.10229046580E+04  0.36010556606E+03 0.  0.
         13    1    3    3    0    0  0.10856795758E+03 -0.19658535568E+02 -0.88231522623E+03  0.88918705449E+03  0.00000000000E+00 0.  1.
          1    1    3    3  501    0 -0.10516725360E+03  0.34605745553E+02 -0.74984589231E+02  0.13371760346E+03  0.00000000000E+00 0.  1.
         21    1    1    2  502  501 -0.34007039817E+01 -0.14947209985E+02 -0.39624861252E+01  0.15833040460E+02  0.00000000000E+00 0.  1.
<mgrwt>
<rscale>  1 0.30000000E+03</rscale>
<asrwt>0</asrwt>
<pdfrwt beam="1">  1        1 0.14086465E+00 0.30000000E+03</pdfrwt>
<pdfrwt beam="2">0</pdfrwt>
<totfact> 0.20022407E+01</totfact>
</mgrwt>
</event>
<event>
 6    1  0.1939311E-004  0.3000000E+03  0.7818608E-02  0.1093470E+00
          1   -1    0    0  502    0  0.00000000000E+00  0.00000000000E+00  0.31319483264E+02  0.31319483264E+02  0.00000000000E+00 0.  1.
         13   -1    0    0    0    0 -0.00000000000E+00 -0.00000000000E+00 -0.10000000000E+04  0.10000000000E+04  0.00000000000E+00 0.  1.
    9000005    2    1    2  501    0 -0.26566894591E+02 -0.12126298387E+02 -0.86345073819E+03  0.92211255449E+03  0.32232210420E+03 0.  0.
         13    1    3    3    0    0  0.14682165604E+03 -0.23560414419E+02 -0.35924034526E+03  0.38879984243E+03  0.00000000000E+00 0.  1.
          3    1    3    3  501    0 -0.17338855063E+03  0.11434116032E+02 -0.50421039293E+03  0.53331271206E+03  0.00000000000E+00 0.  1.
         21    1    1    2  502  501  0.26566894591E+02  0.12126298387E+02 -0.10522977854E+03  0.10920692878E+03  0.00000000000E+00 0. -1.
<mgrwt>
<rscale>  1 0.30000000E+03</rscale>
<asrwt>0</asrwt>
<pdfrwt beam="1">  1        1 0.11388927E+00 0.30000000E+03</pdfrwt>
<pdfrwt beam="2">0</pdfrwt>
<totfact> 0.28181929E+01</totfact>
</mgrwt>
</event>
<event>
 6    1  0.1939311E-004  0.3000000E+03  0.7818608E-02  0.1093470E+00
          3   -1    0    0  502    0  0.00000000000E+00  0.00000000000E+00  0.32379816532E+02  0.32379816532E+02  0.00000000000E+00 0.  1.
         13   -1    0    0    0    0 -0.00000000000E+00 -0.00000000000E+00 -0.10000000000E+04  0.10000000000E+04  0.00000000000E+00 0.  1.
    9000005    2    1    2  501    0  0.67884592246E+01 -0.10736436809E+02 -0.95921225159E+03  0.10171467088E+04  0.33813892009E+03 0.  0.
         13    1    3    3    0    0 -0.15189589386E+03  0.36296740497E+02 -0.62475193912E+03  0.64397577701E+03  0.00000000000E+00 0.  1.
          3    1    3    3  501    0  0.15868435309E+03 -0.47033177306E+02 -0.33446031248E+03  0.37317093175E+03  0.00000000000E+00 0.  1.
         21    1    1    2  502  501 -0.67884592246E+01  0.10736436809E+02 -0.84079318769E+01  0.15233107774E+02  0.00000000000E+00 0. -1.
<mgrwt>
<rscale>  1 0.30000000E+03</rscale>
<asrwt>0</asrwt>
<pdfrwt beam="1">  1        3 0.11774504E+00 0.30000000E+03</pdfrwt>
<pdfrwt beam="2">0</pdfrwt>
<totfact> 0.24562612E+00</totfact>
</mgrwt>
</event>
<event>
 6    1  0.1939311E-004  0.3000000E+03  0.7818608E-02  0.1093470E+00
          1   -1    0    0  502    0  0.00000000000E+00  0.00000000000E+00  0.33048968585E+02  0.33048968585E+02  0.00000000000E+00 0.  1.
         13   -1    0    0    0    0 -0.00000000000E+00 -0.00000000000E+00 -0.10000000000E+04  0.10000000000E+04  0.00000000000E+00 0.  1.
    9000005    2    1    2  501    0 -0.14944636971E+02 -0.13021200046E+01 -0.96840195183E+03  0.10179777092E+04  0.31345053572E+03 0.  0.
         13    1    3    3    0    0  0.32602569752E+02  0.14668890163E+03 -0.59130313196E+03  0.61009831608E+03  0.00000000000E+00 0.  1.
          3    1    3    3  501    0 -0.47547206723E+02 -0.14799102163E+03 -0.37709881987E+03  0.40787939308E+03  0.00000000000E+00 0.  1.
         21    1    1    2  502  501  0.14944636971E+02  0.13021200046E+01  0.14509204166E+01  0.15071259428E+02  0.00000000000E+00 0.  1.
<mgrwt>
<rscale>  1 0.30000000E+03</rscale>
<asrwt>0</asrwt>
<pdfrwt beam="1">  1        1 0.12017832E+00 0.30000000E+03</pdfrwt>
<pdfrwt beam="2">0</pdfrwt>
<totfact> 0.25935762E+01</totfact>
</mgrwt>
</event>
<event>
 6    1  0.1939311E-004  0.3000000E+03  0.7818608E-02  0.1093470E+00
          1   -1    0    0  502    0  0.00000000000E+00  0.00000000000E+00  0.22885435295E+02  0.22885435295E+02  0.00000000000E+00 0.  1.
         13   -1    0    0    0    0 -0.00000000000E+00 -0.00000000000E+00 -0.10000000000E+04  0.10000000000E+04  0.00000000000E+00 0.  1.
    9000005    2    1    2  501    0 -0.16983294190E+02 -0.12586789530E+02 -0.96911426680E+03  0.10002831275E+04  0.24685423523E+03 0.  0.
         13    1    3    3    0    0 -0.10395700162E+03 -0.47062076099E+01 -0.82670914681E+03  0.83323299263E+03  0.00000000000E+00 0.  1.
          1    1    3    3  501    0  0.86973707429E+02 -0.78805819200E+01 -0.14240511998E+03  0.16705013485E+03  0.00000000000E+00 0.  1.
         21    1    1    2  502  501  0.16983294190E+02  0.12586789530E+02 -0.80002979081E+01  0.22602307821E+02  0.00000000000E+00 0.  1.
<mgrwt>
<rscale>  1 0.30000000E+03</rscale>
<asrwt>0</asrwt>
<pdfrwt beam="1">  1        1 0.83219940E-01 0.30000000E+03</pdfrwt>
<pdfrwt beam="2">0</pdfrwt>
<totfact> 0.44463388E+01</totfact>
</mgrwt>
</event>
<event>
 6    1  0.1939311E-004  0.3000000E+03  0.7818608E-02  0.1093470E+00
          1   -1    0    0  502    0  0.00000000000E+00  0.00000000000E+00  0.38001777637E+02  0.38001777637E+02  0.00000000000E+00 0.  1.
         13   -1    0    0    0    0 -0.00000000000E+00 -0.00000000000E+00 -0.10000000000E+04  0.10000000000E+04  0.00000000000E+00 0.  1.
    9000005    2    1    2  501    0 -0.79698986059E-01 -0.11090581685E+02 -0.96824774763E+03  0.10252713448E+04  0.33697866746E+03 0.  0.
         13    1    3    3    0    0 -0.31749657234E+01 -0.16883889222E+03 -0.37260044129E+03  0.40908158207E+03  0.00000000000E+00 0.  1.
          1    1    3    3  501    0  0.30952667373E+01  0.15774831054E+03 -0.59564730634E+03  0.61618976274E+03  0.00000000000E+00 0.  1.
         21    1    1    2  502  501  0.79698986059E-01  0.11090581685E+02  0.62495252692E+01  0.12730432834E+02  0.00000000000E+00 0. -1.
<mgrwt>
<rscale>  1 0.30000000E+03</rscale>
<asrwt>0</asrwt>
<pdfrwt beam="1">  1        1 0.13818857E+00 0.30000000E+03</pdfrwt>
<pdfrwt beam="2">0</pdfrwt>
<totfact> 0.20680979E+01</totfact>
</mgrwt>
</event>
<event>
 6    1  0.1939311E-004  0.3000000E+03  0.7818608E-02  0.1093470E+00
          1   -1    0    0  502    0  0.00000000000E+00  0.00000000000E+00  0.28860193029E+02  0.28860193029E+02  0.00000000000E+00 0.  1.
         13   -1    0    0    0    0 -0.00000000000E+00 -0.00000000000E+00 -0.10000000000E+04  0.10000000000E+04  0.00000000000E+00 0.  1.
    9000005    2    1    2  501    0 -0.35290026885E+01  0.20086871420E+02 -0.91905178389E+03  0.97292184829E+03  0.31859818761E+03 0.  0.
         13    1    3    3    0    0 -0.53281468427E+02  0.43479297030E+02 -0.19211151387E+02  0.71403308646E+02  0.00000000000E+00 0.  1.
          3    1    3    3  501    0  0.49752465738E+02 -0.23392425610E+02 -0.89984063250E+03  0.90151853965E+03  0.00000000000E+00 0.  1.
         21    1    1    2  502  501  0.35290026885E+01 -0.20086871420E+02 -0.52088023081E+02  0.55938344737E+02  0.00000000000E+00 0.  1.
<mgrwt>
<rscale>  1 0.30000000E+03</rscale>
<asrwt>0</asrwt>
<pdfrwt beam="1">  1        1 0.10494638E+00 0.30000000E+03</pdfrwt>
<pdfrwt beam="2">0</pdfrwt>
<totfact> 0.31876900E+01</totfact>
</mgrwt>
</event>
<event>
 6    1  0.1939311E-004  0.3000000E+03  0.7818608E-02  0.1093470E+00
          1   -1    0    0  502    0  0.00000000000E+00  0.00000000000E+00  0.24345249478E+02  0.24345249478E+02  0.00000000000E+00 0.  1.
         13   -1    0    0    0    0 -0.00000000000E+00 -0.00000000000E+00 -0.10000000000E+04  0.10000000000E+04  0.00000000000E+00 0.  1.
    9000005    2    1    2  501    0  0.28050019612E+02 -0.21051426469E+02 -0.92221654794E+03  0.96042649127E+03  0.26590546754E+03 0.  0.
         13    1    3    3    0    0 -0.55609462620E+02 -0.26209429405E+02 -0.84254391087E+03  0.84478375236E+03  0.00000000000E+00 0.  1.
          1    1    3    3  501    0  0.83659482232E+02  0.51580029352E+01 -0.79672637079E+02  0.11564273890E+03  0.00000000000E+00 0.  1.
         21    1    1    2  502  501 -0.28050019612E+02  0.21051426469E+02 -0.53438202578E+02  0.63918758212E+02  0.00000000000E+00 0.  1.
<mgrwt>
<rscale>  1 0.30000000E+03</rscale>
<asrwt>0</asrwt>
<pdfrwt beam="1">  1        1 0.88528367E-01 0.30000000E+03</pdfrwt>
<pdfrwt beam="2">0</pdfrwt>
<totfact> 0.40771710E+01</totfact>
</mgrwt>
</event>
<event>
 6    1  0.1939311E-004  0.3000000E+03  0.7818608E-02  0.1093470E+00
          1   -1    0    0  502    0  0.00000000000E+00  0.00000000000E+00  0.57794170024E+02  0.57794170024E+02  0.00000000000E+00 0.  1.
         13   -1    0    0    0    0 -0.00000000000E+00 -0.00000000000E+00 -0.10000000000E+04  0.10000000000E+04  0.00000000000E+00 0.  1.
    9000005    2    1    2  501    0  0.28906985752E+02  0.40591702434E+02 -0.94913352966E+03  0.10074822117E+04  0.33418954136E+03 0.  0.
         13    1    3    3    0    0 -0.12473439375E+03 -0.64938427590E+01 -0.16440824923E+03  0.20647254392E+03  0.00000000000E+00 0.  1.
          3    1    3    3  501    0  0.15364137950E+03  0.47085545193E+02 -0.78472528043E+03  0.80100966774E+03  0.00000000000E+00 0.  1.
         21    1    1    2  502  501 -0.28906985752E+02 -0.40591702434E+02  0.69276996827E+01  0.50311958366E+02  0.00000000000E+00 0.  1.
<mgrwt>
<rscale>  1 0.30000000E+03</rscale>
<asrwt>0</asrwt>
<pdfrwt beam="1">  1        1 0.21016106E+00 0.30000000E+03</pdfrwt>
<pdfrwt beam="2">0</pdfrwt>
<totfact> 0.91692763E+00</totfact>
</mgrwt>
</event>
<event>
 6    1  0.1939311E-004  0.3000000E+03  0.7818608E-02  0.1093470E+00
          1   -1    0    0  502    0  0.00000000000E+00  0.00000000000E+00  0.47337122348E+02  0.47337122348E+02  0.00000000000E+00 0.  1.
         13   -1    0    0    0    0 -0.00000000000E+00 -0.00000000000E+00 -0.10000000000E+04  0.10000000000E+04  0.00000000000E+00 0.  1.
    9000005    2    1    2  501    0 -0.21005619382E+02  0.28174550933E+02 -0.95702484395E+03  0.10119242982E+04  0.32689324240E+03 0.  0.
         13    1    3    3    0    0 -0.15287541937E+03  0.35593859510E+02 -0.26992878211E+03  0.31224888165E+03  0.00000000000E+00 0.  1.
          3    1    3    3  501    0  0.13186979998E+03 -0.74193085771E+01 -0.68709606184E+03  0.69967541652E+03  0.00000000000E+00 0.  1.
         21    1    1    2  502  501  0.21005619382E+02 -0.28174550933E+02  0.43619663004E+01  0.35412824173E+02  0.00000000000E+00 0. -1.
<mgrwt>
<rscale>  1 0.30000000E+03</rscale>
<asrwt>0</asrwt>
<pdfrwt beam="1">  1        1 0.17213535E+00 0.30000000E+03</pdfrwt>
<pdfrwt beam="2">0</pdfrwt>
<totfact> 0.13948442E+01</totfact>
</mgrwt>
</event>
<event>
 6    1  0.1939311E-004  0.3000000E+03  0.7818608E-02  0.1093470E+00
          1   -1    0    0  502    0  0.00000000000E+00  0.00000000000E+00  0.33451697385E+02  0.33451697385E+02  0.00000000000E+00 0.  1.
         13   -1    0    0    0    0 -0.00000000000E+00 -0.00000000000E+00 -0.10000000000E+04  0.10000000000E+04  0.00000000000E+00 0.  1.
    9000005    2    1    2  501    0 -0.80874173137E+01  0.20719487517E+02 -0.94149321164E+03  0.99994854730E+03  0.33614420448E+03 0.  0.
         13    1    3    3    0    0  0.78903939960E+02 -0.70183656431E+02 -0.81401176829E+03  0.82083295273E+03  0.00000000000E+00 0.  1.
          3    1    3    3  501    0 -0.86991357274E+02  0.90903143948E+02 -0.12748144335E+03  0.17911559457E+03  0.00000000000E+00 0.  1.
         21    1    1    2  502  501  0.80874173137E+01 -0.20719487517E+02 -0.25055090979E+02  0.33503150087E+02  0.00000000000E+00 0.  1.
<mgrwt>
<rscale>  1 0.30000000E+03</rscale>
<asrwt>0</asrwt>
<pdfrwt beam="1">  1        1 0.12164279E+00 0.30000000E+03</pdfrwt>
<pdfrwt beam="2">0</pdfrwt>
<totfact> 0.25447856E+01</totfact>
</mgrwt>
</event>
<event>
 6    1  0.1939311E-004  0.3000000E+03  0.7818608E-02  0.1093470E+00
          1   -1    0    0  502    0  0.00000000000E+00  0.00000000000E+00  0.34218386279E+02  0.34218386279E+02  0.00000000000E+00 0.  1.
         13   -1    0    0    0    0 -0.00000000000E+00 -0.00000000000E+00 -0.10000000000E+04  0.10000000000E+04  0.00000000000E+00 0.  1.
    9000005    2    1    2  501    0 -0.19115637266E+02  0.22152411341E+02 -0.94009959999E+03  0.99528635903E+03  0.32550198411E+03 0.  0.
         13    1    3    3    0    0 -0.16845680856E+03  0.47183189951E+02 -0.47777891253E+03  0.50879921287E+03  0.00000000000E+00 0.  1.
          3    1    3    3  501    0  0.14934117130E+03 -0.25030778609E+02 -0.46232068746E+03  0.48648714616E+03  0.00000000000E+00 0.  1.
         21    1    1    2  502  501  0.19115637266E+02 -0.22152411341E+02 -0.25682013730E+02  0.38932027247E+02  0.00000000000E+00 0. -1.
<mgrwt>
<rscale>  1 0.30000000E+03</rscale>
<asrwt>0</asrwt>
<pdfrwt beam="1">  1        1 0.12443076E+00 0.30000000E+03</pdfrwt>
<pdfrwt beam="2">0</pdfrwt>
<totfact> 0.24551860E+01</totfact>
</mgrwt>
</event>
<event>
 6    1  0.1939311E-004  0.3000000E+03  0.7818608E-02  0.1093470E+00
          1   -1    0    0  502    0  0.00000000000E+00  0.00000000000E+00  0.35881593757E+02  0.35881593757E+02  0.00000000000E+00 0.  1.
         13   -1    0    0    0    0 -0.00000000000E+00 -0.00000000000E+00 -0.10000000000E+04  0.10000000000E+04  0.00000000000E+00 0.  1.
    9000005    2    1    2  501    0  0.50240359657E+02  0.23185605240E+02 -0.79719162294E+03  0.86002307957E+03  0.31790493497E+03 0.  0.
         13    1    3    3    0    0 -0.72514940573E+02  0.12530572280E+03 -0.52356155957E+03  0.54320957966E+03  0.00000000000E+00 0.  1.
          3    1    3    3  501    0  0.12275530023E+03 -0.10212011756E+03 -0.27363006337E+03  0.31681349991E+03  0.00000000000E+00 0.  1.
         21    1    1    2  502  501 -0.50240359657E+02 -0.23185605240E+02 -0.16692678330E+03  0.17585851418E+03  0.00000000000E+00 0.  1.
<mgrwt>
<rscale>  1 0.30000000E+03</rscale>
<asrwt>0</asrwt>
<pdfrwt beam="1">  1        1 0.13047880E+00 0.30000000E+03</pdfrwt>
<pdfrwt beam="2">0</pdfrwt>
<totfact> 0.22742971E+01</totfact>
</mgrwt>
</event>
<event>
 6    1  0.1939311E-004  0.3000000E+03  0.7818608E-02  0.1093470E+00
          1   -1    0    0  502    0  0.00000000000E+00  0.00000000000E+00  0.53739215309E+02  0.53739215309E+02  0.00000000000E+00 0.  1.
         13   -1    0    0    0    0 -0.00000000000E+00 -0.00000000000E+00 -0.10000000000E+04  0.10000000000E+04  0.00000000000E+00 0.  1.
    9000005    2    1    2  501    0  0.31747582570E+02  0.28598584867E+01 -0.94114987623E+03  0.10214559507E+04  0.39571843762E+03 0.  0.
         13    1    3    3    0    0  0.36269018571E+02 -0.18899771858E+03 -0.59905378248E+03  0.62920665416E+03  0.00000000000E+00 0.  1.
          3    1    3    3  501    0 -0.45214360008E+01  0.19185757707E+03 -0.34209609375E+03  0.39224929652E+03  0.00000000000E+00 0.  1.
         21    1    1    2  502  501 -0.31747582570E+02 -0.28598584867E+01 -0.51109084632E+01  0.32283264626E+02  0.00000000000E+00 0. -1.
<mgrwt>
<rscale>  1 0.30000000E+03</rscale>
<asrwt>0</asrwt>
<pdfrwt beam="1">  1        1 0.19541574E+00 0.30000000E+03</pdfrwt>
<pdfrwt beam="2">0</pdfrwt>
<totfact> 0.10771365E+01</totfact>
</mgrwt>
</event>
<event>
 6    1  0.1939311E-004  0.3000000E+03  0.7818608E-02  0.1093470E+00
          1   -1    0    0  502    0  0.00000000000E+00  0.00000000000E+00  0.33485214388E+02  0.33485214388E+02  0.00000000000E+00 0.  1.
         13   -1    0    0    0    0 -0.00000000000E+00 -0.00000000000E+00 -0.10000000000E+04  0.10000000000E+04  0.00000000000E+00 0.  1.
    9000005    2    1    2  501    0  0.29686420867E+02 -0.38019283381E+02 -0.81897305721E+03  0.87825857005E+03  0.31351953358E+03 0.  0.
         13    1    3    3    0    0  0.15484238270E+03 -0.67395033549E+02 -0.30689136009E+03  0.35028639843E+03  0.00000000000E+00 0.  1.
          1    1    3    3  501    0 -0.12515596183E+03  0.29375750168E+02 -0.51208169712E+03  0.52797217162E+03  0.00000000000E+00 0.  1.
         21    1    1    2  502  501 -0.29686420867E+02  0.38019283381E+02 -0.14754172841E+03  0.15522664434E+03  0.00000000000E+00 0. -1.
<mgrwt>
<rscale>  1 0.30000000E+03</rscale>
<asrwt>0</asrwt>
<pdfrwt beam="1">  1        1 0.12176467E+00 0.30000000E+03</pdfrwt>
<pdfrwt beam="2">0</pdfrwt>
<totfact> 0.25407800E+01</totfact>
</mgrwt>
</event>
<event>
 6    1  0.1939311E-004  0.3000000E+03  0.7818608E-02  0.1093470E+00
          1   -1    0    0  502    0  0.00000000000E+00  0.00000000000E+00  0.34867300547E+02  0.34867300547E+02  0.00000000000E+00 0.  1.
         13   -1    0    0    0    0 -0.00000000000E+00 -0.00000000000E+00 -0.10000000000E+04  0.10000000000E+04  0.00000000000E+00 0.  1.
    9000005    2    1    2  501    0  0.17369353718E+01  0.12160178097E+02 -0.96849728069E+03  0.10221312383E+04  0.32651860380E+03 0.  0.
         13    1    3    3    0    0  0.31611416908E+02  0.64959382015E+02 -0.95781179637E+03  0.96053237336E+03  0.00000000000E+00 0.  1.
          1    1    3    3  501    0 -0.29874481536E+02 -0.52799203918E+02 -0.10685484320E+02  0.61598864897E+02  0.00000000000E+00 0.  1.
         21    1    1    2  502  501 -0.17369353718E+01 -0.12160178097E+02  0.33645812412E+01  0.12736062294E+02  0.00000000000E+00 0. -1.
<mgrwt>
<rscale>  1 0.30000000E+03</rscale>
<asrwt>0</asrwt>
<pdfrwt beam="1">  1        1 0.12679045E+00 0.30000000E+03</pdfrwt>
<pdfrwt beam="2">0</pdfrwt>
<totfact> 0.23824906E+01</totfact>
</mgrwt>
</event>
<event>
 6    1  0.1939311E-004  0.3000000E+03  0.7818608E-02  0.1093470E+00
          3   -1    0    0  502    0  0.00000000000E+00  0.00000000000E+00  0.34857100499E+02  0.34857100499E+02  0.00000000000E+00 0.  1.
         13   -1    0    0    0    0 -0.00000000000E+00 -0.00000000000E+00 -0.10000000000E+04  0.10000000000E+04  0.00000000000E+00 0.  1.
    9000005    2    1    2  501    0  0.33296195942E+02  0.85064805516E+01 -0.92108455108E+03  0.97898103280E+03  0.32988803476E+03 0.  0.
         13    1    3    3    0    0 -0.11169479830E+03 -0.65852668570E+02 -0.64907461831E+03  0.66189890623E+03  0.00000000000E+00 0.  1.
          1    1    3    3  501    0  0.14499099425E+03  0.74359149122E+02 -0.27200993276E+03  0.31708212657E+03  0.00000000000E+00 0.  1.
         21    1    1    2  502  501 -0.33296195942E+02 -0.85064805516E+01 -0.44058348426E+02  0.55876067699E+02  0.00000000000E+00 0.  1.
<mgrwt>
<rscale>  1 0.30000000E+03</rscale>
<asrwt>0</asrwt>
<pdfrwt beam="1">  1        3 0.12675336E+00 0.30000000E+03</pdfrwt>
<pdfrwt beam="2">0</pdfrwt>
<totfact> 0.19306561E+00</totfact>
</mgrwt>
</event>
<event>
 6    1  0.1939311E-004  0.3000000E+03  0.7818608E-02  0.1093470E+00
          1   -1    0    0  502    0  0.00000000000E+00  0.00000000000E+00  0.35218704423E+02  0.35218704423E+02  0.00000000000E+00 0.  1.
         13   -1    0    0    0    0 -0.00000000000E+00 -0.00000000000E+00 -0.10000000000E+04  0.10000000000E+04  0.00000000000E+00 0.  1.
    9000005    2    1    2  501    0  0.19312580545E+02  0.21147567830E+02 -0.95092967132E+03  0.10034057686E+04  0.31896034428E+03 0.  0.
         13    1    3    3    0    0  0.15604438241E+03  0.74491531533E+02 -0.54381255622E+03  0.57064080984E+03  0.00000000000E+00 0.  1.
          3    1    3    3  501    0 -0.13673180186E+03 -0.53343963703E+02 -0.40711711510E+03  0.43276495874E+03  0.00000000000E+00 0.  1.
         21    1    1    2  502  501 -0.19312580545E+02 -0.21147567830E+02 -0.13851624253E+02  0.31812935841E+02  0.00000000000E+00 0.  1.
<mgrwt>
<rscale>  1 0.30000000E+03</rscale>
<asrwt>0</asrwt>
<pdfrwt beam="1">  1        1 0.12806829E+00 0.30000000E+03</pdfrwt>
<pdfrwt beam="2">0</pdfrwt>
<totfact> 0.23442698E+01</totfact>
</mgrwt>
</event>
<event>
 6    1  0.1939311E-004  0.3000000E+03  0.7818608E-02  0.1093470E+00
          1   -1    0    0  502    0  0.00000000000E+00  0.00000000000E+00  0.28362291410E+02  0.28362291410E+02  0.00000000000E+00 0.  1.
         13   -1    0    0    0    0 -0.00000000000E+00 -0.00000000000E+00 -0.10000000000E+04  0.10000000000E+04  0.00000000000E+00 0.  1.
    9000005    2    1    2  501    0 -0.63747386890E+01 -0.13829192132E+02 -0.88961123409E+03  0.94493432028E+03  0.31821508131E+03 0.  0.
         13    1    3    3    0    0  0.19880693265E+02  0.14906136178E+03 -0.35783117774E+03  0.38814647146E+03  0.00000000000E+00 0.  1.
          3    1    3    3  501    0 -0.26255431954E+02 -0.16289055392E+03 -0.53178005635E+03  0.55678784882E+03  0.00000000000E+00 0.  1.
         21    1    1    2  502  501  0.63747386890E+01  0.13829192132E+02 -0.82026474498E+02  0.83427971131E+02  0.00000000000E+00 0. -1.
<mgrwt>
<rscale>  1 0.30000000E+03</rscale>
<asrwt>0</asrwt>
<pdfrwt beam="1">  1        1 0.10313582E+00 0.30000000E+03</pdfrwt>
<pdfrwt beam="2">0</pdfrwt>
<totfact> 0.32708972E+01</totfact>
</mgrwt>
</event>
<event>
 6    1  0.1939311E-004  0.3000000E+03  0.7818608E-02  0.1093470E+00
          1   -1    0    0  502    0  0.00000000000E+00  0.00000000000E+00  0.41937401143E+02  0.41937401143E+02  0.00000000000E+00 0.  1.
         13   -1    0    0    0    0 -0.00000000000E+00 -0.00000000000E+00 -0.10000000000E+04  0.10000000000E+04  0.00000000000E+00 0.  1.
    9000005    2    1    2  501    0  0.18456777308E+02  0.75119641746E+00 -0.95141001156E+03  0.10223039134E+04  0.37360816942E+03 0.  0.
         13    1    3    3    0    0 -0.35399198716E+02 -0.31296815216E+02 -0.95811207503E+03  0.95927646809E+03  0.00000000000E+00 0.  1.
          1    1    3    3  501    0  0.53855976024E+02  0.32048011633E+02  0.67020634672E+01  0.63027445275E+02  0.00000000000E+00 0.  1.
         21    1    1    2  502  501 -0.18456777308E+02 -0.75119641746E+00 -0.66525872950E+01  0.19633487779E+02  0.00000000000E+00 0. -1.
<mgrwt>
<rscale>  1 0.30000000E+03</rscale>
<asrwt>0</asrwt>
<pdfrwt beam="1">  1        1 0.15249996E+00 0.30000000E+03</pdfrwt>
<pdfrwt beam="2">0</pdfrwt>
<totfact> 0.17448461E+01</totfact>
</mgrwt>
</event>
<event>
 6    1  0.1939311E-004  0.3000000E+03  0.7818608E-02  0.1093470E+00
          1   -1    0    0  502    0  0.00000000000E+00  0.00000000000E+00  0.26604613397E+02  0.26604613397E+02  0.00000000000E+00 0.  1.
         13   -1    0    0    0    0 -0.00000000000E+00 -0.00000000000E+00 -0.10000000000E+04  0.10000000000E+04  0.00000000000E+00 0.  1.
    9000005    2    1    2  501    0 -0.59106903741E+00  0.91357151832E+01 -0.95416350382E+03  0.10053049427E+04  0.31642728269E+03 0.  0.
         13    1    3    3    0    0  0.14593426181E+03 -0.22886168057E+02 -0.64476493394E+03  0.66146988254E+03  0.00000000000E+00 0.  1.
          1    1    3    3  501    0 -0.14652533085E+03  0.32021883240E+02 -0.30939856987E+03  0.34383506021E+03  0.00000000000E+00 0.  1.
         21    1    1    2  502  501  0.59106903741E+00 -0.91357151832E+01 -0.19231882786E+02  0.21299670655E+02  0.00000000000E+00 0. -1.
<mgrwt>
<rscale>  1 0.30000000E+03</rscale>
<asrwt>0</asrwt>
<pdfrwt beam="1">  1        1 0.96744253E-01 0.30000000E+03</pdfrwt>
<pdfrwt beam="2">0</pdfrwt>
<totfact> 0.35915313E+01</totfact>
</mgrwt>
</event>
<event>
 6    1  0.1939311E-004  0.3000000E+03  0.7818608E-02  0.1093470E+00
          1   -1    0    0  502    0  0.00000000000E+00  0.00000000000E+00  0.51122089496E+02  0.51122089496E+02  0.00000000000E+00 0.  1.
         13   -1    0    0    0    0 -0.00000000000E+00 -0.00000000000E+00 -0.10000000000E+04  0.10000000000E+04  0.00000000000E+00 0.  1.
    9000005    2    1    2  501    0  0.25744970711E+02 -0.31762620446E+02 -0.95713435412E+03  0.10094107429E+04  0.31801290610E+03 0.  0.
         13    1    3    3    0    0  0.11913128545E+03  0.41415600096E+02 -0.16117613173E+03  0.20465888825E+03  0.00000000000E+00 0.  1.
          3    1    3    3  501    0 -0.93386314735E+02 -0.73178220542E+02 -0.79595822240E+03  0.80475185464E+03  0.00000000000E+00 0.  1.
         21    1    1    2  502  501 -0.25744970711E+02  0.31762620446E+02  0.82564436169E+01  0.41711346606E+02  0.00000000000E+00 0.  1.
<mgrwt>
<rscale>  1 0.30000000E+03</rscale>
<asrwt>0</asrwt>
<pdfrwt beam="1">  1        1 0.18589890E+00 0.30000000E+03</pdfrwt>
<pdfrwt beam="2">0</pdfrwt>
<totfact> 0.11964695E+01</totfact>
</mgrwt>
</event>
<event>
 6    1  0.1939311E-004  0.3000000E+03  0.7818608E-02  0.1093470E+00
          1   -1    0    0  502    0  0.00000000000E+00  0.00000000000E+00  0.68759693006E+02  0.68759693006E+02  0.00000000000E+00 0.  1.
         13   -1    0    0    0    0 -0.00000000000E+00 -0.00000000000E+00 -0.10000000000E+04  0.10000000000E+04  0.00000000000E+00 0.  1.
    9000005    2    1    2  501    0  0.18815455613E+02 -0.36697404368E+02 -0.96301316232E+03  0.10166997738E+04  0.32339350380E+03 0.  0.
         13    1    3    3    0    0  0.14167507328E+03  0.66834963922E+02 -0.35909662048E+03  0.39177687736E+03  0.00000000000E+00 0.  1.
          1    1    3    3  501    0 -0.12285961767E+03 -0.10353236829E+03 -0.60391654183E+03  0.62492289639E+03  0.00000000000E+00 0.  1.
         21    1    1    2  502  501 -0.18815455613E+02  0.36697404368E+02  0.31772855322E+02  0.52059919253E+02  0.00000000000E+00 0.  1.
<mgrwt>
<rscale>  1 0.30000000E+03</rscale>
<asrwt>0</asrwt>
<pdfrwt beam="1">  1        1 0.25003577E+00 0.30000000E+03</pdfrwt>
<pdfrwt beam="2">0</pdfrwt>
<totfact> 0.59637867E+00</totfact>
</mgrwt>
</event>
<event>
 6    1  0.1939311E-004  0.3000000E+03  0.7818608E-02  0.1093470E+00
          1   -1    0    0  502    0  0.00000000000E+00  0.00000000000E+00  0.81478921367E+02  0.81478921367E+02  0.00000000000E+00 0.  1.
         13   -1    0    0    0    0 -0.00000000000E+00 -0.00000000000E+00 -0.10000000000E+04  0.10000000000E+04  0.00000000000E+00 0.  1.
    9000005    2    1    2  501    0 -0.99200589842E+02 -0.11739400692E+03 -0.81908522989E+03  0.89842265160E+03  0.33561963173E+03 0.  0.
         13    1    3    3    0    0 -0.10158338958E+02  0.12176766224E+02  0.30519889119E+02  0.34393736609E+02  0.00000000000E+00 0.  1.
          1    1    3    3  501    0 -0.89042250884E+02 -0.12957077314E+03 -0.84960511901E+03  0.86402891499E+03  0.00000000000E+00 0.  1.
         21    1    1    2  502  501  0.99200589842E+02  0.11739400692E+03 -0.99435848741E+02  0.18305626977E+03  0.00000000000E+00 0.  1.
<mgrwt>
<rscale>  1 0.30000000E+03</rscale>
<asrwt>0</asrwt>
<pdfrwt beam="1">  1        1 0.29628761E+00 0.30000000E+03</pdfrwt>
<pdfrwt beam="2">0</pdfrwt>
<totfact> 0.36180239E+00</totfact>
</mgrwt>
</event>
<event>
 6    1  0.1939311E-004  0.3000000E+03  0.7818608E-02  0.1093470E+00
          1   -1    0    0  502    0  0.00000000000E+00  0.00000000000E+00  0.61565877200E+02  0.61565877200E+02  0.00000000000E+00 0.  1.
         13   -1    0    0    0    0 -0.00000000000E+00 -0.00000000000E+00 -0.10000000000E+04  0.10000000000E+04  0.00000000000E+00 0.  1.
    9000005    2    1    2  501    0  0.40102173772E+01  0.34765848085E+02 -0.96419281332E+03  0.10181118075E+04  0.32505249619E+03 0.  0.
         13    1    3    3    0    0  0.13443891555E+03  0.14666449433E+02 -0.77933585598E+03  0.79098249233E+03  0.00000000000E+00 0.  1.
          1    1    3    3  501    0 -0.13042869818E+03  0.20099398652E+02 -0.18485695734E+03  0.22712931517E+03  0.00000000000E+00 0.  1.
         21    1    1    2  502  501 -0.40102173772E+01 -0.34765848085E+02  0.25758690517E+02  0.43454069702E+02  0.00000000000E+00 0.  1.
<mgrwt>
<rscale>  1 0.30000000E+03</rscale>
<asrwt>0</asrwt>
<pdfrwt beam="1">  1        1 0.22387639E+00 0.30000000E+03</pdfrwt>
<pdfrwt beam="2">0</pdfrwt>
<totfact> 0.79056127E+00</totfact>
</mgrwt>
</event>
<event>
 6    1  0.2225584E-004  0.3000000E+03  0.7818608E-02  0.1093470E+00
          1   -1    0    0  502    0  0.00000000000E+00  0.00000000000E+00  0.51727968976E+02  0.51727968976E+02  0.00000000000E+00 0.  1.
         13   -1    0    0    0    0 -0.00000000000E+00 -0.00000000000E+00 -0.10000000000E+04  0.10000000000E+04  0.00000000000E+00 0.  1.
    9000005    2    1    2  501    0 -0.22169929999E+02  0.32535568540E+02 -0.89823684567E+03  0.98806016872E+03  0.40973576494E+03 0.  0.
         13    1    3    3    0    0  0.10801441074E+01  0.13542925215E+03 -0.86774995461E+03  0.87825522075E+03  0.00000000000E+00 0.  1.
          3    1    3    3  501    0 -0.23250074106E+02 -0.10289368361E+03 -0.30486891062E+02  0.10980494797E+03  0.00000000000E+00 0.  1.
         21    1    1    2  502  501  0.22169929999E+02 -0.32535568540E+02 -0.50035185351E+02  0.63667800256E+02  0.00000000000E+00 0. -1.
<mgrwt>
<rscale>  1 0.30000000E+03</rscale>
<asrwt>0</asrwt>
<pdfrwt beam="1">  1        1 0.18810210E+00 0.30000000E+03</pdfrwt>
<pdfrwt beam="2">0</pdfrwt>
<totfact> 0.11676471E+01</totfact>
</mgrwt>
</event>
<event>
 6    1  0.1939311E-004  0.3000000E+03  0.7818608E-02  0.1093470E+00
          1   -1    0    0  502    0  0.00000000000E+00  0.00000000000E+00  0.25027071013E+02  0.25027071013E+02  0.00000000000E+00 0.  1.
         13   -1    0    0    0    0 -0.00000000000E+00 -0.00000000000E+00 -0.10000000000E+04  0.10000000000E+04  0.00000000000E+00 0.  1.
    9000005    2    1    2  501    0 -0.17156755713E+01  0.10154674398E+02 -0.96353607359E+03  0.10096367294E+04  0.30142743607E+03 0.  0.
         13    1    3    3    0    0  0.12485492472E+03  0.85039741601E+02 -0.41168588311E+03  0.43852682498E+03  0.00000000000E+00 0.  1.
          1    1    3    3  501    0 -0.12657060029E+03 -0.74885067204E+02 -0.55185019048E+03  0.57110990438E+03  0.00000000000E+00 0.  1.
         21    1    1    2  502  501  0.17156755713E+01 -0.10154674398E+02 -0.11436855401E+02  0.15390341655E+02  0.00000000000E+00 0. -1.
<mgrwt>
<rscale>  1 0.30000000E+03</rscale>
<asrwt>0</asrwt>
<pdfrwt beam="1">  1        1 0.91007723E-01 0.30000000E+03</pdfrwt>
<pdfrwt beam="2">0</pdfrwt>
<totfact> 0.39207052E+01</totfact>
</mgrwt>
</event>
<event>
 6    1  0.1939311E-004  0.3000000E+03  0.7818608E-02  0.1093470E+00
          1   -1    0    0  502    0  0.00000000000E+00  0.00000000000E+00  0.29251999966E+02  0.29251999966E+02  0.00000000000E+00 0.  1.
         13   -1    0    0    0    0 -0.00000000000E+00 -0.00000000000E+00 -0.10000000000E+04  0.10000000000E+04  0.00000000000E+00 0.  1.
    9000005    2    1    2  501    0  0.10605716620E+01 -0.99032869124E+01 -0.95952702845E+03  0.10142483302E+04  0.32849407457E+03 0.  0.
         13    1    3    3    0    0  0.36782302228E+02 -0.14670632576E+03 -0.26188291985E+03  0.30242081193E+03  0.00000000000E+00 0.  1.
          1    1    3    3  501    0 -0.35721730566E+02  0.13680303885E+03 -0.69764410860E+03  0.71182751825E+03  0.00000000000E+00 0.  1.
         21    1    1    2  502  501 -0.10605716620E+01  0.99032869124E+01 -0.11220971582E+02  0.15003669790E+02  0.00000000000E+00 0.  1.
<mgrwt>
<rscale>  1 0.30000000E+03</rscale>
<asrwt>0</asrwt>
<pdfrwt beam="1">  1        1 0.10637113E+00 0.30000000E+03</pdfrwt>
<pdfrwt beam="2">0</pdfrwt>
<totfact> 0.31243506E+01</totfact>
</mgrwt>
</event>
<event>
 6    1  0.1939311E-004  0.3000000E+03  0.7818608E-02  0.1093470E+00
          1   -1    0    0  502    0  0.00000000000E+00  0.00000000000E+00  0.32755135873E+02  0.32755135873E+02  0.00000000000E+00 0.  1.
         13   -1    0    0    0    0 -0.00000000000E+00 -0.00000000000E+00 -0.10000000000E+04  0.10000000000E+04  0.00000000000E+00 0.  1.
    9000005    2    1    2  501    0 -0.19247862492E+02 -0.20093507478E+01 -0.95443672712E+03  0.10095481095E+04  0.32842564082E+03 0.  0.
         13    1    3    3    0    0 -0.16709646274E+03  0.46242890721E+02 -0.49100262071E+03  0.52071413112E+03  0.00000000000E+00 0.  1.
          1    1    3    3  501    0  0.14784860025E+03 -0.48252241469E+02 -0.46343410641E+03  0.48883397835E+03  0.00000000000E+00 0.  1.
         21    1    1    2  502  501  0.19247862492E+02  0.20093507478E+01 -0.12808137003E+02  0.23207026402E+02  0.00000000000E+00 0.  1.
<mgrwt>
<rscale>  1 0.30000000E+03</rscale>
<asrwt>0</asrwt>
<pdfrwt beam="1">  1        1 0.11910984E+00 0.30000000E+03</pdfrwt>
<pdfrwt beam="2">0</pdfrwt>
<totfact> 0.26299657E+01</totfact>
</mgrwt>
</event>
<event>
 6    1  0.1939311E-004  0.3000000E+03  0.7818608E-02  0.1093470E+00
          1   -1    0    0  502    0  0.00000000000E+00  0.00000000000E+00  0.30809237472E+02  0.30809237472E+02  0.00000000000E+00 0.  1.
         13   -1    0    0    0    0 -0.00000000000E+00 -0.00000000000E+00 -0.10000000000E+04  0.10000000000E+04  0.00000000000E+00 0.  1.
    9000005    2    1    2  501    0  0.18735780921E+02 -0.12469718353E+02 -0.93729704425E+03  0.99177421950E+03  0.32339423301E+03 0.  0.
         13    1    3    3    0    0  0.10448235635E+03 -0.80457582814E+02 -0.16244331997E+03  0.20923149291E+03  0.00000000000E+00 0.  1.
          3    1    3    3  501    0 -0.85746575433E+02  0.67987864461E+02 -0.77485372428E+03  0.78254272659E+03  0.00000000000E+00 0.  1.
         21    1    1    2  502  501 -0.18735780921E+02  0.12469718353E+02 -0.31893718280E+02  0.39035017974E+02  0.00000000000E+00 0.  1.
<mgrwt>
<rscale>  1 0.30000000E+03</rscale>
<asrwt>0</asrwt>
<pdfrwt beam="1">  1        1 0.11203383E+00 0.30000000E+03</pdfrwt>
<pdfrwt beam="2">0</pdfrwt>
<totfact> 0.28896478E+01</totfact>
</mgrwt>
</event>
<event>
 6    1  0.1939311E-004  0.3000000E+03  0.7818608E-02  0.1093470E+00
          1   -1    0    0  502    0  0.00000000000E+00  0.00000000000E+00  0.28750949827E+02  0.28750949827E+02  0.00000000000E+00 0.  1.
         13   -1    0    0    0    0 -0.00000000000E+00 -0.00000000000E+00 -0.10000000000E+04  0.10000000000E+04  0.00000000000E+00 0.  1.
    9000005    2    1    2  501    0  0.64750422421E+01 -0.11091199491E+02 -0.96026564495E+03  0.10118519537E+04  0.31869942979E+03 0.  0.
         13    1    3    3    0    0  0.15104247970E+03  0.53327915179E+02 -0.45447911203E+03  0.48188064962E+03  0.00000000000E+00 0.  1.
          3    1    3    3  501    0 -0.14456743746E+03 -0.64419114670E+02 -0.50578653293E+03  0.52997130413E+03  0.00000000000E+00 0.  1.
         21    1    1    2  502  501 -0.64750422421E+01  0.11091199491E+02 -0.10983405220E+02  0.16898996077E+02  0.00000000000E+00 0.  1.
<mgrwt>
<rscale>  1 0.30000000E+03</rscale>
<asrwt>0</asrwt>
<pdfrwt beam="1">  1        1 0.10454913E+00 0.30000000E+03</pdfrwt>
<pdfrwt beam="2">0</pdfrwt>
<totfact> 0.32056810E+01</totfact>
</mgrwt>
</event>
<event>
 6    1  0.1939311E-004  0.3000000E+03  0.7818608E-02  0.1093470E+00
          1   -1    0    0  502    0  0.00000000000E+00  0.00000000000E+00  0.52273361215E+02  0.52273361215E+02  0.00000000000E+00 0.  1.
         13   -1    0    0    0    0 -0.00000000000E+00 -0.00000000000E+00 -0.10000000000E+04  0.10000000000E+04  0.00000000000E+00 0.  1.
    9000005    2    1    2  501    0  0.11629541570E+02  0.78902485607E+01 -0.97177839635E+03  0.10244167767E+04  0.32385024081E+03 0.  0.
         13    1    3    3    0    0  0.10693568629E+03  0.69616792313E+02 -0.15959270479E+03  0.20433200972E+03  0.00000000000E+00 0.  1.
          3    1    3    3  501    0 -0.95306144721E+02 -0.61726543753E+02 -0.81218569156E+03  0.82008476696E+03  0.00000000000E+00 0.  1.
         21    1    1    2  502  501 -0.11629541570E+02 -0.78902485607E+01  0.24051757569E+02  0.27856584530E+02  0.00000000000E+00 0.  1.
<mgrwt>
<rscale>  1 0.30000000E+03</rscale>
<asrwt>0</asrwt>
<pdfrwt beam="1">  1        1 0.19008535E+00 0.30000000E+03</pdfrwt>
<pdfrwt beam="2">0</pdfrwt>
<totfact> 0.11423212E+01</totfact>
</mgrwt>
</event>
<event>
 6    1  0.1939311E-004  0.3000000E+03  0.7818608E-02  0.1093470E+00
          1   -1    0    0  502    0  0.00000000000E+00  0.00000000000E+00  0.47292506451E+02  0.47292506451E+02  0.00000000000E+00 0.  1.
         13   -1    0    0    0    0 -0.00000000000E+00 -0.00000000000E+00 -0.10000000000E+04  0.10000000000E+04  0.00000000000E+00 0.  1.
    9000005    2    1    2  501    0  0.20477302946E+02  0.44198750871E+02 -0.93576041535E+03  0.99571680506E+03  0.33679600863E+03 0.  0.
         13    1    3    3    0    0  0.33166939046E+02  0.19034302713E+03 -0.50799942035E+03  0.54350154084E+03  0.00000000000E+00 0.  1.
          1    1    3    3  501    0 -0.12689636099E+02 -0.14614427626E+03 -0.42776099500E+03  0.45221526422E+03  0.00000000000E+00 0.  1.
         21    1    1    2  502  501 -0.20477302946E+02 -0.44198750871E+02 -0.16947078202E+02  0.51575701392E+02  0.00000000000E+00 0.  1.
<mgrwt>
<rscale>  1 0.30000000E+03</rscale>
<asrwt>0</asrwt>
<pdfrwt beam="1">  1        1 0.17197311E+00 0.30000000E+03</pdfrwt>
<pdfrwt beam="2">0</pdfrwt>
<totfact> 0.13973862E+01</totfact>
</mgrwt>
</event>
<event>
 6    1  0.1939311E-004  0.3000000E+03  0.7818608E-02  0.1093470E+00
          1   -1    0    0  502    0  0.00000000000E+00  0.00000000000E+00  0.67298384256E+02  0.67298384256E+02  0.00000000000E+00 0.  1.
         13   -1    0    0    0    0 -0.00000000000E+00 -0.00000000000E+00 -0.10000000000E+04  0.10000000000E+04  0.00000000000E+00 0.  1.
    9000005    2    1    2  501    0  0.98247216263E+01  0.10708560320E+02 -0.96014405534E+03  0.10362454309E+04  0.38950839232E+03 0.  0.
         13    1    3    3    0    0  0.70686665648E+02 -0.16552841569E+03 -0.64916480318E+03  0.67365510670E+03  0.00000000000E+00 0.  1.
          3    1    3    3  501    0 -0.60861944022E+02  0.17623697601E+03 -0.31097925217E+03  0.36259032423E+03  0.00000000000E+00 0.  1.
         21    1    1    2  502  501 -0.98247216263E+01 -0.10708560320E+02  0.27442439600E+02  0.31052953328E+02  0.00000000000E+00 0.  1.
<mgrwt>
<rscale>  1 0.30000000E+03</rscale>
<asrwt>0</asrwt>
<pdfrwt beam="1">  1        1 0.24472191E+00 0.30000000E+03</pdfrwt>
<pdfrwt beam="2">0</pdfrwt>
<totfact> 0.63140032E+00</totfact>
</mgrwt>
</event>
<event>
 6    1  0.1939311E-004  0.3000000E+03  0.7818608E-02  0.1093470E+00
          1   -1    0    0  502    0  0.00000000000E+00  0.00000000000E+00  0.37728756838E+02  0.37728756838E+02  0.00000000000E+00 0.  1.
         13   -1    0    0    0    0 -0.00000000000E+00 -0.00000000000E+00 -0.10000000000E+04  0.10000000000E+04  0.00000000000E+00 0.  1.
    9000005    2    1    2  501    0  0.14885122681E+02  0.23146415845E+02 -0.94771233766E+03  0.10065954118E+04  0.33810992986E+03 0.  0.
         13    1    3    3    0    0  0.15810625794E+03 -0.40051445327E+02 -0.31398776055E+03  0.35382201860E+03  0.00000000000E+00 0.  1.
          3    1    3    3  501    0 -0.14322113526E+03  0.63197861172E+02 -0.63372457710E+03  0.65277339320E+03  0.00000000000E+00 0.  1.
         21    1    1    2  502  501 -0.14885122681E+02 -0.23146415845E+02 -0.14558905507E+02  0.31133345038E+02  0.00000000000E+00 0. -1.
<mgrwt>
<rscale>  1 0.30000000E+03</rscale>
<asrwt>0</asrwt>
<pdfrwt beam="1">  1        1 0.13719577E+00 0.30000000E+03</pdfrwt>
<pdfrwt beam="2">0</pdfrwt>
<totfact> 0.20932331E+01</totfact>
</mgrwt>
</event>
<event>
 6    1  0.1939311E-004  0.3000000E+03  0.7818608E-02  0.1093470E+00
          1   -1    0    0  502    0  0.00000000000E+00  0.00000000000E+00  0.43668468216E+02  0.43668468216E+02  0.00000000000E+00 0.  1.
         13   -1    0    0    0    0 -0.00000000000E+00 -0.00000000000E+00 -0.10000000000E+04  0.10000000000E+04  0.00000000000E+00 0.  1.
    9000005    2    1    2  501    0 -0.10310639175E+02  0.93700549704E+01 -0.97298083401E+03  0.10219588741E+04  0.31227252498E+03 0.  0.
         13    1    3    3    0    0  0.29001901248E+02 -0.14506277244E+03 -0.37544959966E+03  0.40354271163E+03  0.00000000000E+00 0.  1.
          3    1    3    3  501    0 -0.39312540423E+02  0.15443282742E+03 -0.59753123436E+03  0.61841616251E+03  0.00000000000E+00 0.  1.
         21    1    1    2  502  501  0.10310639175E+02 -0.93700549704E+01  0.16649302231E+02  0.21709594080E+02  0.00000000000E+00 0.  1.
<mgrwt>
<rscale>  1 0.30000000E+03</rscale>
<asrwt>0</asrwt>
<pdfrwt beam="1">  1        1 0.15879476E+00 0.30000000E+03</pdfrwt>
<pdfrwt beam="2">0</pdfrwt>
<totfact> 0.16225457E+01</totfact>
</mgrwt>
</event>
<event>
 6    1  0.1939311E-004  0.3000000E+03  0.7818608E-02  0.1093470E+00
          1   -1    0    0  502    0  0.00000000000E+00  0.00000000000E+00  0.11346612664E+03  0.11346612664E+03  0.00000000000E+00 0.  1.
         13   -1    0    0    0    0 -0.00000000000E+00 -0.00000000000E+00 -0.10000000000E+04  0.10000000000E+04  0.00000000000E+00 0.  1.
    9000005    2    1    2  501    0 -0.49219916079E+02  0.43764925250E+02 -0.95864974856E+03  0.10158000206E+04  0.32939698321E+03 0.  0.
         13    1    3    3    0    0  0.13294715585E+03  0.51838085280E+02 -0.55187358703E+03  0.57002332355E+03  0.00000000000E+00 0.  1.
          1    1    3    3  501    0 -0.18216707193E+03 -0.80731600301E+01 -0.40677616153E+03  0.44577669701E+03  0.00000000000E+00 0.  1.
         21    1    1    2  502  501  0.49219916079E+02 -0.43764925250E+02  0.72115875196E+02  0.97666106077E+02  0.00000000000E+00 0.  1.
<mgrwt>
<rscale>  1 0.30000000E+03</rscale>
<asrwt>0</asrwt>
<pdfrwt beam="1">  1        1 0.41260497E+00 0.30000000E+03</pdfrwt>
<pdfrwt beam="2">0</pdfrwt>
<totfact> 0.88910289E-01</totfact>
</mgrwt>
</event>
<event>
 6    1  0.1939311E-004  0.3000000E+03  0.7818608E-02  0.1093470E+00
          1   -1    0    0  502    0  0.00000000000E+00  0.00000000000E+00  0.31268429848E+02  0.31268429848E+02  0.00000000000E+00 0.  1.
         13   -1    0    0    0    0 -0.00000000000E+00 -0.00000000000E+00 -0.10000000000E+04  0.10000000000E+04  0.00000000000E+00 0.  1.
    9000005    2    1    2  501    0  0.24058826870E+02 -0.13274032656E+02 -0.90583040166E+03  0.96262745017E+03  0.32460416534E+03 0.  0.
         13    1    3    3    0    0  0.46445911050E+02  0.14764546088E+03 -0.33319172563E+03  0.36738689525E+03  0.00000000000E+00 0.  1.
          1    1    3    3  501    0 -0.22387084180E+02 -0.16091949354E+03 -0.57263867603E+03  0.59524055492E+03  0.00000000000E+00 0.  1.
         21    1    1    2  502  501 -0.24058826870E+02  0.13274032656E+02 -0.62901168496E+02  0.68640979680E+02  0.00000000000E+00 0. -1.
<mgrwt>
<rscale>  1 0.30000000E+03</rscale>
<asrwt>0</asrwt>
<pdfrwt beam="1">  1        1 0.11370362E+00 0.30000000E+03</pdfrwt>
<pdfrwt beam="2">0</pdfrwt>
<totfact> 0.28252284E+01</totfact>
</mgrwt>
</event>
<event>
 6    1  0.1939311E-004  0.3000000E+03  0.7818608E-02  0.1093470E+00
          1   -1    0    0  502    0  0.00000000000E+00  0.00000000000E+00  0.58551483188E+02  0.58551483188E+02  0.00000000000E+00 0.  1.
         13   -1    0    0    0    0 -0.00000000000E+00 -0.00000000000E+00 -0.10000000000E+04  0.10000000000E+04  0.00000000000E+00 0.  1.
    9000005    2    1    2  501    0 -0.63007769775E+02 -0.30529868053E+02 -0.94539249975E+03  0.98842583241E+03  0.27985102412E+03 0.  0.
         13    1    3    3    0    0 -0.10903170032E+03 -0.13460690066E+03 -0.52111571775E+03  0.54915254772E+03  0.00000000000E+00 0.  1.
          3    1    3    3  501    0  0.46023930549E+02  0.10407703261E+03 -0.42427678200E+03  0.43927328469E+03  0.00000000000E+00 0.  1.
         21    1    1    2  502  501  0.63007769775E+02  0.30529868053E+02  0.39439829367E+01  0.70125650776E+02  0.00000000000E+00 0.  1.
<mgrwt>
<rscale>  1 0.30000000E+03</rscale>
<asrwt>0</asrwt>
<pdfrwt beam="1">  1        1 0.21291493E+00 0.30000000E+03</pdfrwt>
<pdfrwt beam="2">0</pdfrwt>
<totfact> 0.88995758E+00</totfact>
</mgrwt>
</event>
<event>
 6    1  0.1939311E-004  0.3000000E+03  0.7818608E-02  0.1093470E+00
          1   -1    0    0  502    0  0.00000000000E+00  0.00000000000E+00  0.39748173352E+02  0.39748173352E+02  0.00000000000E+00 0.  1.
         13   -1    0    0    0    0 -0.00000000000E+00 -0.00000000000E+00 -0.10000000000E+04  0.10000000000E+04  0.00000000000E+00 0.  1.
    9000005    2    1    2  501    0  0.27645117572E+02  0.40929068548E+02 -0.82054805135E+03  0.89157062441E+03  0.34519506450E+03 0.  0.
         13    1    3    3    0    0  0.11291837896E+03 -0.11856420634E+03 -0.45861100472E+03  0.48696209810E+03  0.00000000000E+00 0.  1.
          3    1    3    3  501    0 -0.85273261386E+02  0.15949327489E+03 -0.36193704663E+03  0.40460852631E+03  0.00000000000E+00 0.  1.
         21    1    1    2  502  501 -0.27645117572E+02 -0.40929068548E+02 -0.13970377530E+03  0.14817754894E+03  0.00000000000E+00 0.  1.
<mgrwt>
<rscale>  1 0.30000000E+03</rscale>
<asrwt>0</asrwt>
<pdfrwt beam="1">  1        1 0.14453912E+00 0.30000000E+03</pdfrwt>
<pdfrwt beam="2">0</pdfrwt>
<totfact> 0.19160917E+01</totfact>
</mgrwt>
</event>
<event>
 6    1  0.1939311E-004  0.3000000E+03  0.7818608E-02  0.1093470E+00
          1   -1    0    0  502    0  0.00000000000E+00  0.00000000000E+00  0.68928853759E+02  0.68928853759E+02  0.00000000000E+00 0.  1.
         13   -1    0    0    0    0 -0.00000000000E+00 -0.00000000000E+00 -0.10000000000E+04  0.10000000000E+04  0.00000000000E+00 0.  1.
    9000005    2    1    2  501    0  0.48002413324E+02 -0.79261872736E+02 -0.91558640412E+03  0.97497964731E+03  0.32202511252E+03 0.  0.
         13    1    3    3    0    0  0.11568121121E+02 -0.19600354490E+03 -0.70113604423E+03  0.72810917008E+03  0.00000000000E+00 0.  1.
          1    1    3    3  501    0  0.36434292203E+02  0.11674167216E+03 -0.21445035990E+03  0.24687047723E+03  0.00000000000E+00 0.  1.
         21    1    1    2  502  501 -0.48002413324E+02  0.79261872736E+02 -0.15484742118E+02  0.93949206452E+02  0.00000000000E+00 0. -1.
<mgrwt>
<rscale>  1 0.30000000E+03</rscale>
<asrwt>0</asrwt>
<pdfrwt beam="1">  1        1 0.25065091E+00 0.30000000E+03</pdfrwt>
<pdfrwt beam="2">0</pdfrwt>
<totfact> 0.59245873E+00</totfact>
</mgrwt>
</event>
<event>
 6    1  0.1939311E-004  0.3000000E+03  0.7818608E-02  0.1093470E+00
          1   -1    0    0  502    0  0.00000000000E+00  0.00000000000E+00  0.38772220973E+02  0.38772220973E+02  0.00000000000E+00 0.  1.
         13   -1    0    0    0    0 -0.00000000000E+00 -0.00000000000E+00 -0.10000000000E+04  0.10000000000E+04  0.00000000000E+00 0.  1.
    9000005    2    1    2  501    0  0.37133031117E+02 -0.12181628558E+02 -0.93892160917E+03  0.99377422893E+03  0.32324321468E+03 0.  0.
         13    1    3    3    0    0  0.15259517271E+03  0.73972240435E+02 -0.37190235587E+03  0.40874018813E+03  0.00000000000E+00 0.  1.
          3    1    3    3  501    0 -0.11546214159E+03 -0.86153868993E+02 -0.56701925330E+03  0.58503404080E+03  0.00000000000E+00 0.  1.
         21    1    1    2  502  501 -0.37133031117E+02  0.12181628558E+02 -0.22306169854E+02  0.44997992043E+02  0.00000000000E+00 0.  1.
<mgrwt>
<rscale>  1 0.30000000E+03</rscale>
<asrwt>0</asrwt>
<pdfrwt beam="1">  1        1 0.14099019E+00 0.30000000E+03</pdfrwt>
<pdfrwt beam="2">0</pdfrwt>
<totfact> 0.19992174E+01</totfact>
</mgrwt>
</event>
<event>
 6    1  0.1939311E-004  0.3000000E+03  0.7818608E-02  0.1093470E+00
          1   -1    0    0  502    0  0.00000000000E+00  0.00000000000E+00  0.31346848275E+02  0.31346848275E+02  0.00000000000E+00 0.  1.
         13   -1    0    0    0    0 -0.00000000000E+00 -0.00000000000E+00 -0.10000000000E+04  0.10000000000E+04  0.00000000000E+00 0.  1.
    9000005    2    1    2  501    0 -0.11080560766E+02 -0.67694385438E+01 -0.95359269778E+03  0.10114616428E+04  0.33696738329E+03 0.  0.
         13    1    3    3    0    0 -0.35634524644E+02 -0.20274524766E+02  0.14105990665E+02  0.43357290894E+02  0.00000000000E+00 0.  1.
          1    1    3    3  501    0  0.24553963878E+02  0.13505086222E+02 -0.96769868844E+03  0.96810435187E+03  0.00000000000E+00 0.  1.
         21    1    1    2  502  501  0.11080560766E+02  0.67694385438E+01 -0.15060453950E+02  0.19885205513E+02  0.00000000000E+00 0.  1.
<mgrwt>
<rscale>  1 0.30000000E+03</rscale>
<asrwt>0</asrwt>
<pdfrwt beam="1">  1        1 0.11398878E+00 0.30000000E+03</pdfrwt>
<pdfrwt beam="2">0</pdfrwt>
<totfact> 0.28144321E+01</totfact>
</mgrwt>
</event>
<event>
 6    1  0.1939311E-004  0.3000000E+03  0.7818608E-02  0.1093470E+00
          1   -1    0    0  502    0  0.00000000000E+00  0.00000000000E+00  0.38426186191E+02  0.38426186191E+02  0.00000000000E+00 0.  1.
         13   -1    0    0    0    0 -0.00000000000E+00 -0.00000000000E+00 -0.10000000000E+04  0.10000000000E+04  0.00000000000E+00 0.  1.
    9000005    2    1    2  501    0  0.32006441169E+02  0.49307531738E+02 -0.75686942542E+03  0.82544841367E+03  0.32412669056E+03 0.  0.
         13    1    3    3    0    0 -0.87124761898E+02  0.16550592870E+02 -0.66649885630E+03  0.67237294094E+03  0.00000000000E+00 0.  1.
          3    1    3    3  501    0  0.11913120307E+03  0.32756938868E+02 -0.90370569121E+02  0.15307547273E+03  0.00000000000E+00 0.  1.
         21    1    1    2  502  501 -0.32006441169E+02 -0.49307531738E+02 -0.20470438839E+03  0.21297777252E+03  0.00000000000E+00 0. -1.
<mgrwt>
<rscale>  1 0.30000000E+03</rscale>
<asrwt>0</asrwt>
<pdfrwt beam="1">  1        1 0.13973188E+00 0.30000000E+03</pdfrwt>
<pdfrwt beam="2">0</pdfrwt>
<totfact> 0.20297865E+01</totfact>
</mgrwt>
</event>
<event>
 6    1  0.1939311E-004  0.3000000E+03  0.7818608E-02  0.1093470E+00
          1   -1    0    0  502    0  0.00000000000E+00  0.00000000000E+00  0.37374296226E+02  0.37374296226E+02  0.00000000000E+00 0.  1.
         13   -1    0    0    0    0 -0.00000000000E+00 -0.00000000000E+00 -0.10000000000E+04  0.10000000000E+04  0.00000000000E+00 0.  1.
    9000005    2    1    2  501    0  0.51391126296E+02  0.24334692661E+02 -0.73845755565E+03  0.80610695360E+03  0.31820690443E+03 0.  0.
         13    1    3    3    0    0  0.13889503213E+03  0.11684316319E+03 -0.54564224202E+03  0.57503879087E+03  0.00000000000E+00 0.  1.
          3    1    3    3  501    0 -0.87503905839E+02 -0.92508470531E+02 -0.19281531363E+03  0.23106816273E+03  0.00000000000E+00 0.  1.
         21    1    1    2  502  501 -0.51391126296E+02 -0.24334692661E+02 -0.22416814813E+03  0.23126734262E+03  0.00000000000E+00 0.  1.
<mgrwt>
<rscale>  1 0.30000000E+03</rscale>
<asrwt>0</asrwt>
<pdfrwt beam="1">  1        1 0.13590682E+00 0.30000000E+03</pdfrwt>
<pdfrwt beam="2">0</pdfrwt>
<totfact> 0.21264565E+01</totfact>
</mgrwt>
</event>
<event>
 6    1  0.1939311E-004  0.3000000E+03  0.7818608E-02  0.1093470E+00
          1   -1    0    0  502    0  0.00000000000E+00  0.00000000000E+00  0.53476285403E+02  0.53476285403E+02  0.00000000000E+00 0.  1.
         13   -1    0    0    0    0 -0.00000000000E+00 -0.00000000000E+00 -0.10000000000E+04  0.10000000000E+04  0.00000000000E+00 0.  1.
    9000005    2    1    2  501    0  0.32249049755E+02 -0.36431800658E+00 -0.96169809535E+03  0.10178336737E+04  0.33178611603E+03 0.  0.
         13    1    3    3    0    0 -0.63633619498E+02 -0.11794054021E+03 -0.72072447528E+03  0.73307774337E+03  0.00000000000E+00 0.  1.
          1    1    3    3  501    0  0.95882669253E+02  0.11757622221E+03 -0.24097362007E+03  0.28475593033E+03  0.00000000000E+00 0.  1.
         21    1    1    2  502  501 -0.32249049755E+02  0.36431800658E+00  0.15174380751E+02  0.35642611701E+02  0.00000000000E+00 0. -1.
<mgrwt>
<rscale>  1 0.30000000E+03</rscale>
<asrwt>0</asrwt>
<pdfrwt beam="1">  1        1 0.19445963E+00 0.30000000E+03</pdfrwt>
<pdfrwt beam="2">0</pdfrwt>
<totfact> 0.10885214E+01</totfact>
</mgrwt>
</event>
<event>
 6    1  0.1939311E-004  0.3000000E+03  0.7818608E-02  0.1093470E+00
          1   -1    0    0  502    0  0.00000000000E+00  0.00000000000E+00  0.56118902387E+02  0.56118902387E+02  0.00000000000E+00 0.  1.
         13   -1    0    0    0    0 -0.00000000000E+00 -0.00000000000E+00 -0.10000000000E+04  0.10000000000E+04  0.00000000000E+00 0.  1.
    9000005    2    1    2  501    0 -0.58560144124E+01  0.11560383412E+02 -0.97620105905E+03  0.10212977123E+04  0.29985425486E+03 0.  0.
         13    1    3    3    0    0  0.10982627354E+03  0.68375742931E+01 -0.14476469349E+03  0.18183888270E+03  0.00000000000E+00 0.  1.
          3    1    3    3  501    0 -0.11568228795E+03  0.47228091190E+01 -0.83143636556E+03  0.83945882963E+03  0.00000000000E+00 0.  1.
         21    1    1    2  502  501  0.58560144124E+01 -0.11560383412E+02  0.32319961437E+02  0.34821190053E+02  0.00000000000E+00 0.  1.
<mgrwt>
<rscale>  1 0.30000000E+03</rscale>
<asrwt>0</asrwt>
<pdfrwt beam="1">  1        1 0.20406917E+00 0.30000000E+03</pdfrwt>
<pdfrwt beam="2">0</pdfrwt>
<totfact> 0.97977647E+00</totfact>
</mgrwt>
</event>
<event>
 6    1  0.1939311E-004  0.3000000E+03  0.7818608E-02  0.1093470E+00
          1   -1    0    0  502    0  0.00000000000E+00  0.00000000000E+00  0.36450534720E+02  0.36450534720E+02  0.00000000000E+00 0.  1.
         13   -1    0    0    0    0 -0.00000000000E+00 -0.00000000000E+00 -0.10000000000E+04  0.10000000000E+04  0.00000000000E+00 0.  1.
    9000005    2    1    2  501    0  0.38820436389E+01 -0.34653496246E+02 -0.71582347980E+03  0.78628239337E+03  0.32345140721E+03 0.  0.
         13    1    3    3    0    0  0.10341217166E+02 -0.15408137723E+03 -0.60085723543E+03  0.62038490386E+03  0.00000000000E+00 0.  1.
          1    1    3    3  501    0 -0.64591735274E+01  0.11942788098E+03 -0.11496624437E+03  0.16589748950E+03  0.00000000000E+00 0.  1.
         21    1    1    2  502  501 -0.38820436389E+01  0.34653496246E+02 -0.24772598548E+03  0.25016814135E+03  0.00000000000E+00 0.  1.
<mgrwt>
<rscale>  1 0.30000000E+03</rscale>
<asrwt>0</asrwt>
<pdfrwt beam="1">  1        1 0.13254768E+00 0.30000000E+03</pdfrwt>
<pdfrwt beam="2">0</pdfrwt>
<totfact> 0.22163957E+01</totfact>
</mgrwt>
</event>
<event>
 6    1  0.1939311E-004  0.3000000E+03  0.7818608E-02  0.1093470E+00
          1   -1    0    0  502    0  0.00000000000E+00  0.00000000000E+00  0.46651404453E+02  0.46651404453E+02  0.00000000000E+00 0.  1.
         13   -1    0    0    0    0 -0.00000000000E+00 -0.00000000000E+00 -0.10000000000E+04  0.10000000000E+04  0.00000000000E+00 0.  1.
    9000005    2    1    2  501    0  0.10158742239E+02  0.17307761804E+01 -0.97320565975E+03  0.10242795778E+04  0.31923847142E+03 0.  0.
         13    1    3    3    0    0 -0.36404298153E+02 -0.10886369778E+03 -0.82794885829E+03  0.83586834463E+03  0.00000000000E+00 0.  1.
          1    1    3    3  501    0  0.46563040392E+02  0.11059447396E+03 -0.14525680146E+03  0.18841123314E+03  0.00000000000E+00 0.  1.
         21    1    1    2  502  501 -0.10158742239E+02 -0.17307761804E+01  0.19857064208E+02  0.22371826680E+02  0.00000000000E+00 0. -1.
<mgrwt>
<rscale>  1 0.30000000E+03</rscale>
<asrwt>0</asrwt>
<pdfrwt beam="1">  1        1 0.16964183E+00 0.30000000E+03</pdfrwt>
<pdfrwt beam="2">0</pdfrwt>
<totfact> 0.14344912E+01</totfact>
</mgrwt>
</event>
<event>
 6    1  0.1939311E-004  0.3000000E+03  0.7818608E-02  0.1093470E+00
          1   -1    0    0  502    0  0.00000000000E+00  0.00000000000E+00  0.41184071036E+02  0.41184071036E+02  0.00000000000E+00 0.  1.
         13   -1    0    0    0    0 -0.00000000000E+00 -0.00000000000E+00 -0.10000000000E+04  0.10000000000E+04  0.00000000000E+00 0.  1.
    9000005    2    1    2  501    0  0.13367122717E+02  0.33986236544E+02 -0.95728130338E+03  0.10046313787E+04  0.30259373580E+03 0.  0.
         13    1    3    3    0    0  0.56820717659E+02 -0.12584831908E+03 -0.39359136888E+03  0.41710976856E+03  0.00000000000E+00 0.  1.
          1    1    3    3  501    0 -0.43453594942E+02  0.15983455562E+03 -0.56368993450E+03  0.58752161010E+03  0.00000000000E+00 0.  1.
         21    1    1    2  502  501 -0.13367122717E+02 -0.33986236544E+02 -0.15346255843E+01  0.36552692374E+02  0.00000000000E+00 0.  1.
<mgrwt>
<rscale>  1 0.30000000E+03</rscale>
<asrwt>0</asrwt>
<pdfrwt beam="1">  1        1 0.14976057E+00 0.30000000E+03</pdfrwt>
<pdfrwt beam="2">0</pdfrwt>
<totfact> 0.18015403E+01</totfact>
</mgrwt>
</event>
<event>
 6    1  0.1939311E-004  0.3000000E+03  0.7818608E-02  0.1093470E+00
          1   -1    0    0  502    0  0.00000000000E+00  0.00000000000E+00  0.59769298164E+02  0.59769298164E+02  0.00000000000E+00 0.  1.
         13   -1    0    0    0    0 -0.00000000000E+00 -0.00000000000E+00 -0.10000000000E+04  0.10000000000E+04  0.00000000000E+00 0.  1.
    9000005    2    1    2  501    0 -0.13122500459E+02 -0.74699996740E+01 -0.96799839705E+03  0.10281616122E+04  0.34621872167E+03 0.  0.
         13    1    3    3    0    0 -0.51805785770E+02 -0.94787535238E+02 -0.91008103221E+03  0.91646931289E+03  0.00000000000E+00 0.  1.
          3    1    3    3  501    0  0.38683285311E+02  0.87317535564E+02 -0.57917364837E+02  0.11169229933E+03  0.00000000000E+00 0.  1.
         21    1    1    2  502  501  0.13122500459E+02  0.74699996740E+01  0.27767695213E+02  0.31607685946E+02  0.00000000000E+00 0.  1.
<mgrwt>
<rscale>  1 0.30000000E+03</rscale>
<asrwt>0</asrwt>
<pdfrwt beam="1">  1        1 0.21734336E+00 0.30000000E+03</pdfrwt>
<pdfrwt beam="2">0</pdfrwt>
<totfact> 0.84832329E+00</totfact>
</mgrwt>
</event>
<event>
 6    1  0.1939311E-004  0.3000000E+03  0.7818608E-02  0.1093470E+00
          1   -1    0    0  502    0  0.00000000000E+00  0.00000000000E+00  0.27331402190E+02  0.27331402190E+02  0.00000000000E+00 0.  1.
         13   -1    0    0    0    0 -0.00000000000E+00 -0.00000000000E+00 -0.10000000000E+04  0.10000000000E+04  0.00000000000E+00 0.  1.
    9000005    2    1    2  501    0  0.81160554968E+01  0.71057536509E+01 -0.96715541942E+03  0.10152170624E+04  0.30847968564E+03 0.  0.
         13    1    3    3    0    0  0.10274603429E+03 -0.36365604071E+02 -0.85596307287E+03  0.86287425900E+03  0.00000000000E+00 0.  1.
          1    1    3    3  501    0 -0.94629978790E+02  0.43471357722E+02 -0.11119234655E+03  0.15234280344E+03  0.00000000000E+00 0.  1.
         21    1    1    2  502  501 -0.81160554968E+01 -0.71057536509E+01 -0.55131783921E+01  0.12114339757E+02  0.00000000000E+00 0. -1.
<mgrwt>
<rscale>  1 0.30000000E+03</rscale>
<asrwt>0</asrwt>
<pdfrwt beam="1">  1        1 0.99387127E-01 0.30000000E+03</pdfrwt>
<pdfrwt beam="2">0</pdfrwt>
<totfact> 0.34535690E+01</totfact>
</mgrwt>
</event>
<event>
 6    1  0.1939311E-004  0.3000000E+03  0.7818608E-02  0.1093470E+00
          1   -1    0    0  502    0  0.00000000000E+00  0.00000000000E+00  0.44798282810E+02  0.44798282810E+02  0.00000000000E+00 0.  1.
         13   -1    0    0    0    0 -0.00000000000E+00 -0.00000000000E+00 -0.10000000000E+04  0.10000000000E+04  0.00000000000E+00 0.  1.
    9000005    2    1    2  501    0  0.20289176621E+02 -0.79093086501E+02 -0.80244990175E+03  0.87159180447E+03  0.33027119428E+03 0.  0.
         13    1    3    3    0    0 -0.57768134723E+02 -0.19150445408E+03 -0.53478653499E+03  0.57097088484E+03  0.00000000000E+00 0.  1.
          1    1    3    3  501    0  0.78057311343E+02  0.11241136758E+03 -0.26766336676E+03  0.30062091963E+03  0.00000000000E+00 0.  1.
         21    1    1    2  502  501 -0.20289176621E+02  0.79093086501E+02 -0.15275181544E+03  0.17320647834E+03  0.00000000000E+00 0.  1.
<mgrwt>
<rscale>  1 0.30000000E+03</rscale>
<asrwt>0</asrwt>
<pdfrwt beam="1">  1        1 0.16290319E+00 0.30000000E+03</pdfrwt>
<pdfrwt beam="2">0</pdfrwt>
<totfact> 0.15481690E+01</totfact>
</mgrwt>
</event>
<event>
 6    1  0.1939311E-004  0.3000000E+03  0.7818608E-02  0.1093470E+00
          1   -1    0    0  502    0  0.00000000000E+00  0.00000000000E+00  0.35312916442E+02  0.35312916442E+02  0.00000000000E+00 0.  1.
         13   -1    0    0    0    0 -0.00000000000E+00 -0.00000000000E+00 -0.10000000000E+04  0.10000000000E+04  0.00000000000E+00 0.  1.
    9000005    2    1    2  501    0  0.27805133900E+02  0.18395700603E+02 -0.93625480386E+03  0.99149600417E+03  0.32462245959E+03 0.  0.
         13    1    3    3    0    0  0.46086837107E+02 -0.97413714105E+02 -0.99847537884E+02  0.14691139871E+03  0.00000000000E+00 0.  1.
          1    1    3    3  501    0 -0.18281703206E+02  0.11580941471E+03 -0.83640726597E+03  0.84458460546E+03  0.00000000000E+00 0.  1.
         21    1    1    2  502  501 -0.27805133900E+02 -0.18395700603E+02 -0.28432279701E+02  0.43816912270E+02  0.00000000000E+00 0.  1.
<mgrwt>
<rscale>  1 0.30000000E+03</rscale>
<asrwt>0</asrwt>
<pdfrwt beam="1">  1        1 0.12841088E+00 0.30000000E+03</pdfrwt>
<pdfrwt beam="2">0</pdfrwt>
<totfact> 0.23341569E+01</totfact>
</mgrwt>
</event>
<event>
 6    1  0.1939311E-004  0.3000000E+03  0.7818608E-02  0.1093470E+00
          1   -1    0    0  502    0  0.00000000000E+00  0.00000000000E+00  0.36567604264E+02  0.36567604264E+02  0.00000000000E+00 0.  1.
         13   -1    0    0    0    0 -0.00000000000E+00 -0.00000000000E+00 -0.10000000000E+04  0.10000000000E+04  0.00000000000E+00 0.  1.
    9000005    2    1    2  501    0 -0.36531485960E+02 -0.74578602432E+01 -0.92781642572E+03  0.98500534611E+03  0.32863664264E+03 0.  0.
         13    1    3    3    0    0 -0.66546979873E+02  0.39601178482E+01 -0.94583528714E+03  0.94818171964E+03  0.00000000000E+00 0.  1.
          3    1    3    3  501    0  0.30015493913E+02 -0.11417978091E+02  0.18018861428E+02  0.36823626460E+02  0.00000000000E+00 0.  1.
         21    1    1    2  502  501  0.36531485960E+02  0.74578602432E+01 -0.35615970021E+02  0.51562258158E+02  0.00000000000E+00 0. -1.
<mgrwt>
<rscale>  1 0.30000000E+03</rscale>
<asrwt>0</asrwt>
<pdfrwt beam="1">  1        1 0.13297339E+00 0.30000000E+03</pdfrwt>
<pdfrwt beam="2">0</pdfrwt>
<totfact> 0.22047223E+01</totfact>
</mgrwt>
</event>
<event>
 6    1  0.1939311E-004  0.3000000E+03  0.7818608E-02  0.1093470E+00
          1   -1    0    0  502    0  0.00000000000E+00  0.00000000000E+00  0.63925284496E+02  0.63925284496E+02  0.00000000000E+00 0.  1.
         13   -1    0    0    0    0 -0.00000000000E+00 -0.00000000000E+00 -0.10000000000E+04  0.10000000000E+04  0.00000000000E+00 0.  1.
    9000005    2    1    2  501    0  0.26827150335E+02 -0.19882939277E+02 -0.95733820385E+03  0.10243378723E+04  0.36284516363E+03 0.  0.
         13    1    3    3    0    0  0.11748008238E+03  0.50355754779E+02 -0.10812545751E+03  0.16741680428E+03  0.00000000000E+00 0.  1.
          3    1    3    3  501    0 -0.90652932041E+02 -0.70238694056E+02 -0.84921274634E+03  0.85692106800E+03  0.00000000000E+00 0.  1.
         21    1    1    2  502  501 -0.26827150335E+02  0.19882939277E+02  0.21263488345E+02  0.39587412217E+02  0.00000000000E+00 0.  1.
<mgrwt>
<rscale>  1 0.30000000E+03</rscale>
<asrwt>0</asrwt>
<pdfrwt beam="1">  1        1 0.23245607E+00 0.30000000E+03</pdfrwt>
<pdfrwt beam="2">0</pdfrwt>
<totfact> 0.72070999E+00</totfact>
</mgrwt>
</event>
<event>
 6    1  0.1939311E-004  0.3000000E+03  0.7818608E-02  0.1093470E+00
          1   -1    0    0  502    0  0.00000000000E+00  0.00000000000E+00  0.11843305069E+03  0.11843305069E+03  0.00000000000E+00 0.  1.
         13   -1    0    0    0    0 -0.00000000000E+00 -0.00000000000E+00 -0.10000000000E+04  0.10000000000E+04  0.00000000000E+00 0.  1.
    9000005    2    1    2  501    0 -0.21094905279E+03  0.98791702130E+02 -0.70506816129E+03  0.82618123212E+03  0.36220852137E+03 0.  0.
         13    1    3    3    0    0 -0.17310001228E+03 -0.11807772391E+03 -0.37141434488E+03  0.42644410972E+03  0.00000000000E+00 0.  1.
          1    1    3    3  501    0 -0.37849040516E+02  0.21686942604E+03 -0.33365381641E+03  0.39973712240E+03  0.00000000000E+00 0.  1.
         21    1    1    2  502  501  0.21094905279E+03 -0.98791702130E+02 -0.17649878802E+03  0.29225181857E+03  0.00000000000E+00 0.  1.
<mgrwt>
<rscale>  1 0.30000000E+03</rscale>
<asrwt>0</asrwt>
<pdfrwt beam="1">  1        1 0.43066655E+00 0.30000000E+03</pdfrwt>
<pdfrwt beam="2">0</pdfrwt>
<totfact> 0.68795328E-01</totfact>
</mgrwt>
</event>
<event>
 6    1  0.1939311E-004  0.3000000E+03  0.7818608E-02  0.1093470E+00
          1   -1    0    0  502    0  0.00000000000E+00  0.00000000000E+00  0.35951369843E+02  0.35951369843E+02  0.00000000000E+00 0.  1.
         13   -1    0    0    0    0 -0.00000000000E+00 -0.00000000000E+00 -0.10000000000E+04  0.10000000000E+04  0.00000000000E+00 0.  1.
    9000005    2    1    2  501    0  0.10443721416E+02  0.68813231585E-01 -0.97089345595E+03  0.10234642688E+04  0.32362931055E+03 0.  0.
         13    1    3    3    0    0  0.76031592527E+02  0.13814356798E+03 -0.34749569349E+03  0.38159888028E+03  0.00000000000E+00 0.  1.
          3    1    3    3  501    0 -0.65587871111E+02 -0.13807475475E+03 -0.62339776246E+03  0.64186538852E+03  0.00000000000E+00 0.  1.
         21    1    1    2  502  501 -0.10443721416E+02 -0.68813231585E-01  0.68448257946E+01  0.12487101042E+02  0.00000000000E+00 0.  1.
<mgrwt>
<rscale>  1 0.30000000E+03</rscale>
<asrwt>0</asrwt>
<pdfrwt beam="1">  1        1 0.13073253E+00 0.30000000E+03</pdfrwt>
<pdfrwt beam="2">0</pdfrwt>
<totfact> 0.22670903E+01</totfact>
</mgrwt>
</event>
<event>
 6    1  0.1939311E-004  0.3000000E+03  0.7818608E-02  0.1093470E+00
          1   -1    0    0  502    0  0.00000000000E+00  0.00000000000E+00  0.58417452417E+02  0.58417452417E+02  0.00000000000E+00 0.  1.
         13   -1    0    0    0    0 -0.00000000000E+00 -0.00000000000E+00 -0.10000000000E+04  0.10000000000E+04  0.00000000000E+00 0.  1.
    9000005    2    1    2  501    0 -0.36988256261E+02  0.21462070483E+01 -0.97299693970E+03  0.10098417245E+04  0.26773966209E+03 0.  0.
         13    1    3    3    0    0  0.81968072798E+02 -0.51522621101E+02 -0.70654405220E+03  0.71314643878E+03  0.00000000000E+00 0.  1.
          1    1    3    3  501    0 -0.11895632906E+03  0.53668828149E+02 -0.26645288750E+03  0.29669528577E+03  0.00000000000E+00 0.  1.
         21    1    1    2  502  501  0.36988256261E+02 -0.21462070483E+01  0.31414392120E+02  0.48575727871E+02  0.00000000000E+00 0.  1.
<mgrwt>
<rscale>  1 0.30000000E+03</rscale>
<asrwt>0</asrwt>
<pdfrwt beam="1">  1        1 0.21242755E+00 0.30000000E+03</pdfrwt>
<pdfrwt beam="2">0</pdfrwt>
<totfact> 0.89466911E+00</totfact>
</mgrwt>
</event>
<event>
 6    1  0.1939311E-004  0.3000000E+03  0.7818608E-02  0.1093470E+00
          1   -1    0    0  502    0  0.00000000000E+00  0.00000000000E+00  0.34190762913E+02  0.34190762913E+02  0.00000000000E+00 0.  1.
         13   -1    0    0    0    0 -0.00000000000E+00 -0.00000000000E+00 -0.10000000000E+04  0.10000000000E+04  0.00000000000E+00 0.  1.
    9000005    2    1    2  501    0 -0.48570515158E+01 -0.48916692667E+02 -0.78476116368E+03  0.84658788805E+03  0.31375872005E+03 0.  0.
         13    1    3    3    0    0 -0.35985497422E+02 -0.12823101385E+03 -0.73694576906E+03  0.74888397998E+03  0.00000000000E+00 0.  1.
          3    1    3    3  501    0  0.31128445907E+02  0.79314321185E+02 -0.47815394618E+02  0.97703908070E+02  0.00000000000E+00 0.  1.
         21    1    1    2  502  501  0.48570515158E+01  0.48916692667E+02 -0.18104807341E+03  0.18760287486E+03  0.00000000000E+00 0.  1.
<mgrwt>
<rscale>  1 0.30000000E+03</rscale>
<asrwt>0</asrwt>
<pdfrwt beam="1">  1        1 0.12433031E+00 0.30000000E+03</pdfrwt>
<pdfrwt beam="2">0</pdfrwt>
<totfact> 0.24583426E+01</totfact>
</mgrwt>
</event>
<event>
 6    1  0.1939311E-004  0.3000000E+03  0.7818608E-02  0.1093470E+00
          3   -1    0    0  502    0  0.00000000000E+00  0.00000000000E+00  0.38177724361E+02  0.38177724361E+02  0.00000000000E+00 0.  1.
         13   -1    0    0    0    0 -0.00000000000E+00 -0.00000000000E+00 -0.10000000000E+04  0.10000000000E+04  0.00000000000E+00 0.  1.
    9000005    2    1    2  501    0 -0.17357603079E+02 -0.74195230646E+00 -0.96064835586E+03  0.10207646555E+04  0.34469317012E+03 0.  0.
         13    1    3    3    0    0  0.10785131995E+02  0.34607913550E+02  0.18415275340E+02  0.40658936512E+02  0.00000000000E+00 0.  1.
          3    1    3    3  501    0 -0.28142735074E+02 -0.35349865857E+02 -0.97906363120E+03  0.98010571903E+03  0.00000000000E+00 0.  1.
         21    1    1    2  502  501  0.17357603079E+02  0.74195230646E+00 -0.11739197836E+01  0.17413068814E+02  0.00000000000E+00 0. -1.
<mgrwt>
<rscale>  1 0.30000000E+03</rscale>
<asrwt>0</asrwt>
<pdfrwt beam="1">  1        3 0.13882838E+00 0.30000000E+03</pdfrwt>
<pdfrwt beam="2">0</pdfrwt>
<totfact> 0.13852883E+00</totfact>
</mgrwt>
</event>
<event>
 6    1  0.1939311E-004  0.3000000E+03  0.7818608E-02  0.1093470E+00
          1   -1    0    0  502    0  0.00000000000E+00  0.00000000000E+00  0.68591825878E+02  0.68591825878E+02  0.00000000000E+00 0.  1.
         13   -1    0    0    0    0 -0.00000000000E+00 -0.00000000000E+00 -0.10000000000E+04  0.10000000000E+04  0.00000000000E+00 0.  1.
    9000005    2    1    2  501    0 -0.36663547868E+02  0.30248000159E+02 -0.95969193123E+03  0.10132824399E+04  0.32167303737E+03 0.  0.
         13    1    3    3    0    0 -0.89881112865E+02  0.13456154073E+02 -0.95271968895E+03  0.95704466366E+03  0.00000000000E+00 0.  1.
          3    1    3    3  501    0  0.53217564997E+02  0.16791846086E+02 -0.69722422865E+01  0.56237776287E+02  0.00000000000E+00 0.  1.
         21    1    1    2  502  501  0.36663547868E+02 -0.30248000159E+02  0.28283757111E+02  0.55309385932E+02  0.00000000000E+00 0.  1.
<mgrwt>
<rscale>  1 0.30000000E+03</rscale>
<asrwt>0</asrwt>
<pdfrwt beam="1">  1        1 0.24942535E+00 0.30000000E+03</pdfrwt>
<pdfrwt beam="2">0</pdfrwt>
<totfact> 0.60029490E+00</totfact>
</mgrwt>
</event>
<event>
 6    1  0.1939311E-004  0.3000000E+03  0.7818608E-02  0.1093470E+00
          1   -1    0    0  502    0  0.00000000000E+00  0.00000000000E+00  0.27945778738E+02  0.27945778738E+02  0.00000000000E+00 0.  1.
         13   -1    0    0    0    0 -0.00000000000E+00 -0.00000000000E+00 -0.10000000000E+04  0.10000000000E+04  0.00000000000E+00 0.  1.
    9000005    2    1    2  501    0  0.38960745327E+01 -0.80688632697E+01 -0.95554576055E+03  0.10091624024E+04  0.32443915913E+03 0.  0.
         13    1    3    3    0    0 -0.11434233114E+03 -0.11375764166E+03 -0.39629670865E+03  0.42786218694E+03  0.00000000000E+00 0.  1.
          1    1    3    3  501    0  0.11823840567E+03  0.10568877839E+03 -0.55924905191E+03  0.58130021548E+03  0.00000000000E+00 0.  1.
         21    1    1    2  502  501 -0.38960745327E+01  0.80688632697E+01 -0.16508460709E+02  0.18783376326E+02  0.00000000000E+00 0. -1.
<mgrwt>
<rscale>  1 0.30000000E+03</rscale>
<asrwt>0</asrwt>
<pdfrwt beam="1">  1        1 0.10162123E+00 0.30000000E+03</pdfrwt>
<pdfrwt beam="2">0</pdfrwt>
<totfact> 0.33429558E+01</totfact>
</mgrwt>
</event>
<event>
 6    1  0.1939311E-004  0.3000000E+03  0.7818608E-02  0.1093470E+00
          1   -1    0    0  502    0  0.00000000000E+00  0.00000000000E+00  0.40296576464E+02  0.40296576464E+02  0.00000000000E+00 0.  1.
         13   -1    0    0    0    0 -0.00000000000E+00 -0.00000000000E+00 -0.10000000000E+04  0.10000000000E+04  0.00000000000E+00 0.  1.
    9000005    2    1    2  501    0  0.11449408078E+02 -0.84067776024E+01 -0.96856025828E+03  0.10235572104E+04  0.33069415805E+03 0.  0.
         13    1    3    3    0    0  0.16332348318E+03 -0.54379046844E+02 -0.52087594738E+03  0.54858307799E+03  0.00000000000E+00 0.  1.
          3    1    3    3  501    0 -0.15187407510E+03  0.45972269241E+02 -0.44768431089E+03  0.47497413240E+03  0.00000000000E+00 0.  1.
         21    1    1    2  502  501 -0.11449408078E+02  0.84067776024E+01  0.88568347408E+01  0.16739366075E+02  0.00000000000E+00 0.  1.
<mgrwt>
<rscale>  1 0.30000000E+03</rscale>
<asrwt>0</asrwt>
<pdfrwt beam="1">  1        1 0.14653331E+00 0.30000000E+03</pdfrwt>
<pdfrwt beam="2">0</pdfrwt>
<totfact> 0.18712934E+01</totfact>
</mgrwt>
</event>
<event>
 6    1  0.1939311E-004  0.3000000E+03  0.7818608E-02  0.1093470E+00
          1   -1    0    0  502    0  0.00000000000E+00  0.00000000000E+00  0.36149382283E+02  0.36149382283E+02  0.00000000000E+00 0.  1.
         13   -1    0    0    0    0 -0.00000000000E+00 -0.00000000000E+00 -0.10000000000E+04  0.10000000000E+04  0.00000000000E+00 0.  1.
    9000005    2    1    2  501    0  0.25195960087E+02 -0.40834452123E+01 -0.96003443577E+03  0.10103409694E+04  0.31380128379E+03 0.  0.
         13    1    3    3    0    0  0.15261092758E+03 -0.36105999776E+02 -0.31283909329E+03  0.34994576255E+03  0.00000000000E+00 0.  1.
          1    1    3    3  501    0 -0.12741496749E+03  0.32022554564E+02 -0.64719534248E+03  0.66039520688E+03  0.00000000000E+00 0.  1.
         21    1    1    2  502  501 -0.25195960087E+02  0.40834452123E+01 -0.38161819472E+01  0.25808412856E+02  0.00000000000E+00 0.  1.
<mgrwt>
<rscale>  1 0.30000000E+03</rscale>
<asrwt>0</asrwt>
<pdfrwt beam="1">  1        1 0.13145258E+00 0.30000000E+03</pdfrwt>
<pdfrwt beam="2">0</pdfrwt>
<totfact> 0.22468005E+01</totfact>
</mgrwt>
</event>
<event>
 6    1  0.1939311E-004  0.3000000E+03  0.7818608E-02  0.1093470E+00
          1   -1    0    0  502    0  0.00000000000E+00  0.00000000000E+00  0.45913317046E+02  0.45913317046E+02  0.00000000000E+00 0.  1.
         13   -1    0    0    0    0 -0.00000000000E+00 -0.00000000000E+00 -0.10000000000E+04  0.10000000000E+04  0.00000000000E+00 0.  1.
    9000005    2    1    2  501    0  0.13872503906E+02 -0.32193617354E+01 -0.96740862851E+03  0.10264124225E+04  0.34269548568E+03 0.  0.
         13    1    3    3    0    0  0.15451568701E+03 -0.36709002060E+02 -0.74064824911E+03  0.75748430827E+03  0.00000000000E+00 0.  1.
          1    1    3    3  501    0 -0.14064318310E+03  0.33489640324E+02 -0.22676037940E+03  0.26892811424E+03  0.00000000000E+00 0.  1.
         21    1    1    2  502  501 -0.13872503906E+02  0.32193617354E+01  0.13321945554E+02  0.19500894542E+02  0.00000000000E+00 0.  1.
<mgrwt>
<rscale>  1 0.30000000E+03</rscale>
<asrwt>0</asrwt>
<pdfrwt beam="1">  1        1 0.16695787E+00 0.30000000E+03</pdfrwt>
<pdfrwt beam="2">0</pdfrwt>
<totfact> 0.14785905E+01</totfact>
</mgrwt>
</event>
<event>
 6    1  0.1939311E-004  0.3000000E+03  0.7818608E-02  0.1093470E+00
          1   -1    0    0  502    0  0.00000000000E+00  0.00000000000E+00  0.73038126346E+02  0.73038126346E+02  0.00000000000E+00 0.  1.
         13   -1    0    0    0    0 -0.00000000000E+00 -0.00000000000E+00 -0.10000000000E+04  0.10000000000E+04  0.00000000000E+00 0.  1.
    9000005    2    1    2  501    0  0.96432625203E+02  0.22981832383E+02 -0.91490911366E+03  0.97317479551E+03  0.31651710937E+03 0.  0.
         13    1    3    3    0    0 -0.11420685712E+03 -0.21909033405E+02 -0.31582783199E+03  0.33655672838E+03  0.00000000000E+00 0.  1.
          1    1    3    3  501    0  0.21063948232E+03  0.44890865788E+02 -0.59908128167E+03  0.63661806713E+03  0.00000000000E+00 0.  1.
         21    1    1    2  502  501 -0.96432625203E+02 -0.22981832383E+02 -0.12052759994E+02  0.99863330841E+02  0.00000000000E+00 0.  1.
<mgrwt>
<rscale>  1 0.30000000E+03</rscale>
<asrwt>0</asrwt>
<pdfrwt beam="1">  1        1 0.26559375E+00 0.30000000E+03</pdfrwt>
<pdfrwt beam="2">0</pdfrwt>
<totfact> 0.50430780E+00</totfact>
</mgrwt>
</event>
<event>
 6    1  0.1939311E-004  0.3000000E+03  0.7818608E-02  0.1093470E+00
          3   -1    0    0  502    0  0.00000000000E+00  0.00000000000E+00  0.30004363225E+02  0.30004363225E+02  0.00000000000E+00 0.  1.
         13   -1    0    0    0    0 -0.00000000000E+00 -0.00000000000E+00 -0.10000000000E+04  0.10000000000E+04  0.00000000000E+00 0.  1.
    9000005    2    1    2  501    0  0.15494229423E+02  0.44487607139E+01 -0.95888030488E+03  0.10104234230E+04  0.31818892504E+03 0.  0.
         13    1    3    3    0    0 -0.48241550396E+02 -0.95351108385E+02 -0.11013072345E+03  0.15345311109E+03  0.00000000000E+00 0.  1.
          1    1    3    3  501    0  0.63735779819E+02  0.99799869099E+02 -0.84874958144E+03  0.85697031191E+03  0.00000000000E+00 0.  1.
         21    1    1    2  502  501 -0.15494229423E+02 -0.44487607139E+01 -0.11115331891E+02  0.19580940232E+02  0.00000000000E+00 0. -1.
<mgrwt>
<rscale>  1 0.30000000E+03</rscale>
<asrwt>0</asrwt>
<pdfrwt beam="1">  1        3 0.10910701E+00 0.30000000E+03</pdfrwt>
<pdfrwt beam="2">0</pdfrwt>
<totfact> 0.30850696E+00</totfact>
</mgrwt>
</event>
<event>
 6    1  0.1939311E-004  0.3000000E+03  0.7818608E-02  0.1093470E+00
          1   -1    0    0  502    0  0.00000000000E+00  0.00000000000E+00  0.44514102300E+02  0.44514102300E+02  0.00000000000E+00 0.  1.
         13   -1    0    0    0    0 -0.00000000000E+00 -0.00000000000E+00 -0.10000000000E+04  0.10000000000E+04  0.00000000000E+00 0.  1.
    9000005    2    1    2  501    0  0.24948249078E+02 -0.22356373737E+02 -0.94456546106E+03  0.10092794813E+04  0.35400415057E+03 0.  0.
         13    1    3    3    0    0  0.61980921080E+01 -0.16105681932E+03 -0.76402638978E+03  0.78084187879E+03  0.00000000000E+00 0.  1.
          1    1    3    3  501    0  0.18750156970E+02  0.13870044559E+03 -0.18053907128E+03  0.22843760253E+03  0.00000000000E+00 0.  1.
         21    1    1    2  502  501 -0.24948249078E+02  0.22356373737E+02 -0.10920436641E+02  0.35234620974E+02  0.00000000000E+00 0. -1.
<mgrwt>
<rscale>  1 0.30000000E+03</rscale>
<asrwt>0</asrwt>
<pdfrwt beam="1">  1        1 0.16186980E+00 0.30000000E+03</pdfrwt>
<pdfrwt beam="2">0</pdfrwt>
<totfact> 0.15664981E+01</totfact>
</mgrwt>
</event>
<event>
 6    1  0.1939311E-004  0.3000000E+03  0.7818608E-02  0.1093470E+00
          1   -1    0    0  502    0  0.00000000000E+00  0.00000000000E+00  0.31060311573E+02  0.31060311573E+02  0.00000000000E+00 0.  1.
         13   -1    0    0    0    0 -0.00000000000E+00 -0.00000000000E+00 -0.10000000000E+04  0.10000000000E+04  0.00000000000E+00 0.  1.
    9000005    2    1    2  501    0  0.11080182129E+02 -0.41555205065E+01 -0.97508125199E+03  0.10177277353E+04  0.29128380741E+03 0.  0.
         13    1    3    3    0    0  0.11799025742E+03  0.57247502520E+02 -0.25070543132E+03  0.28293495840E+03  0.00000000000E+00 0.  1.
          1    1    3    3  501    0 -0.10691007529E+03 -0.61403023026E+02 -0.72437582067E+03  0.73479277691E+03  0.00000000000E+00 0.  1.
         21    1    1    2  502  501 -0.11080182129E+02  0.41555205065E+01  0.61415635626E+01  0.13332576258E+02  0.00000000000E+00 0.  1.
<mgrwt>
<rscale>  1 0.30000000E+03</rscale>
<asrwt>0</asrwt>
<pdfrwt beam="1">  1        1 0.11294683E+00 0.30000000E+03</pdfrwt>
<pdfrwt beam="2">0</pdfrwt>
<totfact> 0.28541680E+01</totfact>
</mgrwt>
</event>
<event>
 6    1  0.1939311E-004  0.3000000E+03  0.7818608E-02  0.1093470E+00
          1   -1    0    0  502    0  0.00000000000E+00  0.00000000000E+00  0.28941595193E+02  0.28941595193E+02  0.00000000000E+00 0.  1.
         13   -1    0    0    0    0 -0.00000000000E+00 -0.00000000000E+00 -0.10000000000E+04  0.10000000000E+04  0.00000000000E+00 0.  1.
    9000005    2    1    2  501    0  0.17350900309E+02 -0.17717570355E+02 -0.95405187710E+03  0.99887187578E+03  0.29481362586E+03 0.  0.
         13    1    3    3    0    0 -0.10563808330E+03 -0.50910871551E+01 -0.13985651832E+03  0.17534300535E+03  0.00000000000E+00 0.  1.
          1    1    3    3  501    0  0.12298898360E+03 -0.12626483200E+02 -0.81419535878E+03  0.82352887043E+03  0.00000000000E+00 0.  1.
         21    1    1    2  502  501 -0.17350900309E+02  0.17717570355E+02 -0.17006527710E+02  0.30069719413E+02  0.00000000000E+00 0.  1.
<mgrwt>
<rscale>  1 0.30000000E+03</rscale>
<asrwt>0</asrwt>
<pdfrwt beam="1">  1        1 0.10524239E+00 0.30000000E+03</pdfrwt>
<pdfrwt beam="2">0</pdfrwt>
<totfact> 0.31743789E+01</totfact>
</mgrwt>
</event>
<event>
 6    1  0.1939311E-004  0.3000000E+03  0.7818608E-02  0.1093470E+00
          1   -1    0    0  502    0  0.00000000000E+00  0.00000000000E+00  0.42589209644E+02  0.42589209644E+02  0.00000000000E+00 0.  1.
         13   -1    0    0    0    0 -0.00000000000E+00 -0.00000000000E+00 -0.10000000000E+04  0.10000000000E+04  0.00000000000E+00 0.  1.
    9000005    2    1    2  501    0  0.21544737177E+02  0.65451455636E+02 -0.82297059748E+03  0.89151891407E+03  0.33582331825E+03 0.  0.
         13    1    3    3    0    0 -0.12514540579E+03  0.67002390699E+02 -0.64714933057E+03  0.66253524360E+03  0.00000000000E+00 0.  1.
          1    1    3    3  501    0  0.14669014297E+03 -0.15509350626E+01 -0.17582126690E+03  0.22898367047E+03  0.00000000000E+00 0.  1.
         21    1    1    2  502  501 -0.21544737177E+02 -0.65451455636E+02 -0.13444019288E+03  0.15107029558E+03  0.00000000000E+00 0.  1.
<mgrwt>
<rscale>  1 0.30000000E+03</rscale>
<asrwt>0</asrwt>
<pdfrwt beam="1">  1        1 0.15487018E+00 0.30000000E+03</pdfrwt>
<pdfrwt beam="2">0</pdfrwt>
<totfact> 0.16975403E+01</totfact>
</mgrwt>
</event>
<event>
 6    1  0.1939311E-004  0.3000000E+03  0.7818608E-02  0.1093470E+00
          1   -1    0    0  502    0  0.00000000000E+00  0.00000000000E+00  0.44812551768E+02  0.44812551768E+02  0.00000000000E+00 0.  1.
         13   -1    0    0    0    0 -0.00000000000E+00 -0.00000000000E+00 -0.10000000000E+04  0.10000000000E+04  0.00000000000E+00 0.  1.
    9000005    2    1    2  501    0 -0.10909207260E+02 -0.31296930783E+01 -0.97214580632E+03  0.10244068739E+04  0.32282064475E+03 0.  0.
         13    1    3    3    0    0 -0.36225455642E+02  0.23420329368E+02  0.77474495922E+01  0.43827142724E+02  0.00000000000E+00 0.  1.
          3    1    3    3  501    0  0.25316248382E+02 -0.26550022447E+02 -0.97989325592E+03  0.98057973113E+03  0.00000000000E+00 0.  1.
         21    1    1    2  502  501  0.10909207260E+02  0.31296930783E+01  0.16958358091E+02  0.20405677910E+02  0.00000000000E+00 0. -1.
<mgrwt>
<rscale>  1 0.30000000E+03</rscale>
<asrwt>0</asrwt>
<pdfrwt beam="1">  1        1 0.16295508E+00 0.30000000E+03</pdfrwt>
<pdfrwt beam="2">0</pdfrwt>
<totfact> 0.15472552E+01</totfact>
</mgrwt>
</event>
<event>
 6    1  0.1939311E-004  0.3000000E+03  0.7818608E-02  0.1093470E+00
          1   -1    0    0  502    0  0.00000000000E+00  0.00000000000E+00  0.25929774396E+02  0.25929774396E+02  0.00000000000E+00 0.  1.
         13   -1    0    0    0    0 -0.00000000000E+00 -0.00000000000E+00 -0.10000000000E+04  0.10000000000E+04  0.00000000000E+00 0.  1.
    9000005    2    1    2  501    0 -0.24746069459E+01  0.11744125089E+02 -0.93639883087E+03  0.98639267618E+03  0.30981235131E+03 0.  0.
         13    1    3    3    0    0  0.20531360039E+02  0.10891870609E+03 -0.84104982997E+03  0.84832165938E+03  0.00000000000E+00 0.  1.
          1    1    3    3  501    0 -0.23005966985E+02 -0.97174581000E+02 -0.95349000901E+02  0.13807101681E+03  0.00000000000E+00 0.  1.
         21    1    1    2  502  501  0.24746069459E+01 -0.11744125089E+02 -0.37671394738E+02  0.39537098213E+02  0.00000000000E+00 0. -1.
<mgrwt>
<rscale>  1 0.30000000E+03</rscale>
<asrwt>0</asrwt>
<pdfrwt beam="1">  1        1 0.94290288E-01 0.30000000E+03</pdfrwt>
<pdfrwt beam="2">0</pdfrwt>
<totfact> 0.37270861E+01</totfact>
</mgrwt>
</event>
<event>
 6    1  0.1939311E-004  0.3000000E+03  0.7818608E-02  0.1093470E+00
          1   -1    0    0  502    0  0.00000000000E+00  0.00000000000E+00  0.29552938813E+02  0.29552938813E+02  0.00000000000E+00 0.  1.
         13   -1    0    0    0    0 -0.00000000000E+00 -0.00000000000E+00 -0.10000000000E+04  0.10000000000E+04  0.00000000000E+00 0.  1.
    9000005    2    1    2  501    0  0.89244646139E+01 -0.60825679347E+01 -0.95673601967E+03  0.10120991037E+04  0.32997596979E+03 0.  0.
         13    1    3    3    0    0  0.15275826982E+03  0.44129209734E+02 -0.31916435539E+03  0.35657868963E+03  0.00000000000E+00 0.  1.
          3    1    3    3  501    0 -0.14383380521E+03 -0.50211777668E+02 -0.63757166428E+03  0.65552041405E+03  0.00000000000E+00 0.  1.
         21    1    1    2  502  501 -0.89244646139E+01  0.60825679347E+01 -0.13711041519E+02  0.17453835133E+02  0.00000000000E+00 0. -1.
<mgrwt>
<rscale>  1 0.30000000E+03</rscale>
<asrwt>0</asrwt>
<pdfrwt beam="1">  1        1 0.10746546E+00 0.30000000E+03</pdfrwt>
<pdfrwt beam="2">0</pdfrwt>
<totfact> 0.30769245E+01</totfact>
</mgrwt>
</event>
<event>
 6    1  0.1939311E-004  0.3000000E+03  0.7818608E-02  0.1093470E+00
          3   -1    0    0  502    0  0.00000000000E+00  0.00000000000E+00  0.49205738075E+02  0.49205738075E+02  0.00000000000E+00 0.  1.
         13   -1    0    0    0    0 -0.00000000000E+00 -0.00000000000E+00 -0.10000000000E+04  0.10000000000E+04  0.00000000000E+00 0.  1.
    9000005    2    1    2  501    0  0.15681090373E+02 -0.84023202201E+00 -0.97238425886E+03  0.10225087241E+04  0.31582644204E+03 0.  0.
         13    1    3    3    0    0 -0.10808059461E+03  0.10698140904E+03 -0.46621041464E+03  0.49038616164E+03  0.00000000000E+00 0.  1.
          1    1    3    3  501    0  0.12376168499E+03 -0.10782164106E+03 -0.50617384422E+03  0.53212256250E+03  0.00000000000E+00 0.  1.
         21    1    1    2  502  501 -0.15681090373E+02  0.84023202201E+00  0.21589996934E+02  0.26697013929E+02  0.00000000000E+00 0.  1.
<mgrwt>
<rscale>  1 0.30000000E+03</rscale>
<asrwt>0</asrwt>
<pdfrwt beam="1">  1        3 0.17893033E+00 0.30000000E+03</pdfrwt>
<pdfrwt beam="2">0</pdfrwt>
<totfact> 0.34267788E-01</totfact>
</mgrwt>
</event>
<event>
 6    1  0.1939311E-004  0.3000000E+03  0.7818608E-02  0.1093470E+00
          3   -1    0    0  502    0  0.00000000000E+00  0.00000000000E+00  0.31909260664E+02  0.31909260664E+02  0.00000000000E+00 0.  1.
         13   -1    0    0    0    0 -0.00000000000E+00 -0.00000000000E+00 -0.10000000000E+04  0.10000000000E+04  0.00000000000E+00 0.  1.
    9000005    2    1    2  501    0  0.73301919772E+01 -0.18534833911E+02 -0.94267286268E+03  0.99960848302E+03  0.33194535923E+03 0.  0.
         13    1    3    3    0    0  0.13431972941E+03  0.35421904324E+02 -0.74923711981E+03  0.76200574979E+03  0.00000000000E+00 0.  1.
          3    1    3    3  501    0 -0.12698953744E+03 -0.53956738235E+02 -0.19343574287E+03  0.23760273323E+03  0.00000000000E+00 0.  1.
         21    1    1    2  502  501 -0.73301919772E+01  0.18534833911E+02 -0.25417876656E+02  0.32300777641E+02  0.00000000000E+00 0.  1.
<mgrwt>
<rscale>  1 0.30000000E+03</rscale>
<asrwt>0</asrwt>
<pdfrwt beam="1">  1        3 0.11603392E+00 0.30000000E+03</pdfrwt>
<pdfrwt beam="2">0</pdfrwt>
<totfact> 0.25704989E+00</totfact>
</mgrwt>
</event>
<event>
 6    1  0.1939311E-004  0.3000000E+03  0.7818608E-02  0.1093470E+00
          1   -1    0    0  502    0  0.00000000000E+00  0.00000000000E+00  0.39323519369E+02  0.39323519369E+02  0.00000000000E+00 0.  1.
         13   -1    0    0    0    0 -0.00000000000E+00 -0.00000000000E+00 -0.10000000000E+04  0.10000000000E+04  0.00000000000E+00 0.  1.
    9000005    2    1    2  501    0 -0.98215577115E+01 -0.29061453303E+01 -0.97065317622E+03  0.10250251582E+04  0.32924774532E+03 0.  0.
         13    1    3    3    0    0 -0.10603539050E+03 -0.10642072948E+03 -0.73539166686E+03  0.75057962894E+03  0.00000000000E+00 0.  1.
          1    1    3    3  501    0  0.96213832790E+02  0.10351458415E+03 -0.23526150937E+03  0.27444552928E+03  0.00000000000E+00 0.  1.
         21    1    1    2  502  501  0.98215577115E+01  0.29061453303E+01  0.99766955920E+01  0.14298361147E+02  0.00000000000E+00 0. -1.
<mgrwt>
<rscale>  1 0.30000000E+03</rscale>
<asrwt>0</asrwt>
<pdfrwt beam="1">  1        1 0.14299492E+00 0.30000000E+03</pdfrwt>
<pdfrwt beam="2">0</pdfrwt>
<totfact> 0.19517128E+01</totfact>
</mgrwt>
</event>
<event>
 6    1  0.1939311E-004  0.3000000E+03  0.7818608E-02  0.1093470E+00
          1   -1    0    0  502    0  0.00000000000E+00  0.00000000000E+00  0.32370856268E+02  0.32370856268E+02  0.00000000000E+00 0.  1.
         13   -1    0    0    0    0 -0.00000000000E+00 -0.00000000000E+00 -0.10000000000E+04  0.10000000000E+04  0.00000000000E+00 0.  1.
    9000005    2    1    2  501    0  0.36535272371E+01  0.12294019978E+02 -0.95716802643E+03  0.10158201414E+04  0.33993446074E+03 0.  0.
         13    1    3    3    0    0  0.76584863896E+02  0.13145351311E+03 -0.75437111892E+03  0.76955899875E+03  0.00000000000E+00 0.  1.
          3    1    3    3  501    0 -0.72931336659E+02 -0.11915949313E+03 -0.20279690751E+03  0.24626114262E+03  0.00000000000E+00 0.  1.
         21    1    1    2  502  501 -0.36535272371E+01 -0.12294019978E+02 -0.10461117302E+02  0.16550714900E+02  0.00000000000E+00 0.  1.
<mgrwt>
<rscale>  1 0.30000000E+03</rscale>
<asrwt>0</asrwt>
<pdfrwt beam="1">  1        1 0.11771245E+00 0.30000000E+03</pdfrwt>
<pdfrwt beam="2">0</pdfrwt>
<totfact> 0.26786065E+01</totfact>
</mgrwt>
</event>
<event>
 6    1  0.1939311E-004  0.3000000E+03  0.7818608E-02  0.1093470E+00
          1   -1    0    0  502    0  0.00000000000E+00  0.00000000000E+00  0.37251265272E+02  0.37251265272E+02  0.00000000000E+00 0.  1.
         13   -1    0    0    0    0 -0.00000000000E+00 -0.00000000000E+00 -0.10000000000E+04  0.10000000000E+04  0.00000000000E+00 0.  1.
    9000005    2    1    2  501    0 -0.49403619129E+02 -0.17581659138E+02 -0.94014208477E+03  0.98014703650E+03  0.27216032277E+03 0.  0.
         13    1    3    3    0    0  0.11078094984E+02 -0.12571615947E+03 -0.26238779058E+03  0.29116083113E+03  0.00000000000E+00 0.  1.
          3    1    3    3  501    0 -0.60481714112E+02  0.10813450033E+03 -0.67775429419E+03  0.68898620537E+03  0.00000000000E+00 0.  1.
         21    1    1    2  502  501  0.49403619129E+02  0.17581659138E+02 -0.22606649963E+02  0.57104228772E+02  0.00000000000E+00 0.  1.
<mgrwt>
<rscale>  1 0.30000000E+03</rscale>
<asrwt>0</asrwt>
<pdfrwt beam="1">  1        1 0.13545943E+00 0.30000000E+03</pdfrwt>
<pdfrwt beam="2">0</pdfrwt>
<totfact> 0.21381516E+01</totfact>
</mgrwt>
</event>
<event>
 6    1  0.1939311E-004  0.3000000E+03  0.7818608E-02  0.1093470E+00
          1   -1    0    0  502    0  0.00000000000E+00  0.00000000000E+00  0.33788969783E+02  0.33788969783E+02  0.00000000000E+00 0.  1.
         13   -1    0    0    0    0 -0.00000000000E+00 -0.00000000000E+00 -0.10000000000E+04  0.10000000000E+04  0.00000000000E+00 0.  1.
    9000005    2    1    2  501    0  0.20164059457E+02 -0.26455877564E+02 -0.89858877034E+03  0.95842801980E+03  0.33168658129E+03 0.  0.
         13    1    3    3    0    0 -0.78258154458E+02 -0.14138299286E+03 -0.62746064599E+03  0.64793545332E+03  0.00000000000E+00 0.  1.
          3    1    3    3  501    0  0.98422213915E+02  0.11492711530E+03 -0.27112812436E+03  0.31049256648E+03  0.00000000000E+00 0.  1.
         21    1    1    2  502  501 -0.20164059457E+02  0.26455877564E+02 -0.67622259874E+02  0.75360949980E+02  0.00000000000E+00 0. -1.
<mgrwt>
<rscale>  1 0.30000000E+03</rscale>
<asrwt>0</asrwt>
<pdfrwt beam="1">  1        1 0.12286924E+00 0.30000000E+03</pdfrwt>
<pdfrwt beam="2">0</pdfrwt>
<totfact> 0.25048538E+01</totfact>
</mgrwt>
</event>
<event>
 6    1  0.1939311E-004  0.3000000E+03  0.7818608E-02  0.1093470E+00
          1   -1    0    0  502    0  0.00000000000E+00  0.00000000000E+00  0.28348240225E+02  0.28348240225E+02  0.00000000000E+00 0.  1.
         13   -1    0    0    0    0 -0.00000000000E+00 -0.00000000000E+00 -0.10000000000E+04  0.10000000000E+04  0.00000000000E+00 0.  1.
    9000005    2    1    2  501    0  0.96319877821E+01  0.52961744961E+01 -0.95901023666E+03  0.10115961431E+04  0.32172239271E+03 0.  0.
         13    1    3    3    0    0 -0.75213337773E+02 -0.11336477812E+03 -0.22263835355E+03  0.26091465189E+03  0.00000000000E+00 0.  1.
          3    1    3    3  501    0  0.84845325555E+02  0.11866095262E+03 -0.73637188311E+03  0.75068149117E+03  0.00000000000E+00 0.  1.
         21    1    1    2  502  501 -0.96319877821E+01 -0.52961744961E+01 -0.12641523113E+02  0.16752097168E+02  0.00000000000E+00 0. -1.
<mgrwt>
<rscale>  1 0.30000000E+03</rscale>
<asrwt>0</asrwt>
<pdfrwt beam="1">  1        1 0.10308473E+00 0.30000000E+03</pdfrwt>
<pdfrwt beam="2">0</pdfrwt>
<totfact> 0.32732910E+01</totfact>
</mgrwt>
</event>
<event>
 6    1  0.1939311E-004  0.3000000E+03  0.7818608E-02  0.1093470E+00
          1   -1    0    0  502    0  0.00000000000E+00  0.00000000000E+00  0.30710761791E+02  0.30710761791E+02  0.00000000000E+00 0.  1.
         13   -1    0    0    0    0 -0.00000000000E+00 -0.00000000000E+00 -0.10000000000E+04  0.10000000000E+04  0.00000000000E+00 0.  1.
    9000005    2    1    2  501    0 -0.60939504515E+01  0.10993442030E+02 -0.96500894936E+03  0.10174324760E+04  0.32213130701E+03 0.  0.
         13    1    3    3    0    0  0.94648580896E+02 -0.60058400661E+02 -0.81769130551E+03  0.82533898276E+03  0.00000000000E+00 0.  1.
          3    1    3    3  501    0 -0.10074253135E+03  0.71051842692E+02 -0.14731764386E+03  0.19209349329E+03  0.00000000000E+00 0.  1.
         21    1    1    2  502  501  0.60939504515E+01 -0.10993442030E+02 -0.42802888451E+01  0.13278285747E+02  0.00000000000E+00 0.  1.
<mgrwt>
<rscale>  1 0.30000000E+03</rscale>
<asrwt>0</asrwt>
<pdfrwt beam="1">  1        1 0.11167573E+00 0.30000000E+03</pdfrwt>
<pdfrwt beam="2">0</pdfrwt>
<totfact> 0.29037351E+01</totfact>
</mgrwt>
</event>
<event>
 6    1  0.1939311E-004  0.3000000E+03  0.7818608E-02  0.1093470E+00
          1   -1    0    0  502    0  0.00000000000E+00  0.00000000000E+00  0.37228811783E+02  0.37228811783E+02  0.00000000000E+00 0.  1.
         13   -1    0    0    0    0 -0.00000000000E+00 -0.00000000000E+00 -0.10000000000E+04  0.10000000000E+04  0.00000000000E+00 0.  1.
    9000005    2    1    2  501    0 -0.73222460187E+01 -0.27774768547E+02 -0.94872884763E+03  0.10052563176E+04  0.33110237798E+03 0.  0.
         13    1    3    3    0    0 -0.33002922366E+02  0.22926337904E+02  0.12704071934E+02  0.42145026968E+02  0.00000000000E+00 0.  1.
          1    1    3    3  501    0  0.25680676348E+02 -0.50701106450E+02 -0.96143291957E+03  0.96311129064E+03  0.00000000000E+00 0.  1.
         21    1    1    2  502  501  0.73222460187E+01  0.27774768547E+02 -0.14042340584E+02  0.31972494173E+02  0.00000000000E+00 0. -1.
<mgrwt>
<rscale>  1 0.30000000E+03</rscale>
<asrwt>0</asrwt>
<pdfrwt beam="1">  1        1 0.13537778E+00 0.30000000E+03</pdfrwt>
<pdfrwt beam="2">0</pdfrwt>
<totfact> 0.21402952E+01</totfact>
</mgrwt>
</event>
<event>
 6    1  0.1939311E-004  0.3000000E+03  0.7818608E-02  0.1093470E+00
          1   -1    0    0  502    0  0.00000000000E+00  0.00000000000E+00  0.60712667695E+02  0.60712667695E+02  0.00000000000E+00 0.  1.
         13   -1    0    0    0    0 -0.00000000000E+00 -0.00000000000E+00 -0.10000000000E+04  0.10000000000E+04  0.00000000000E+00 0.  1.
    9000005    2    1    2  501    0  0.23380130218E+02  0.10515841521E+03 -0.87344689869E+03  0.93445940842E+03  0.31416552702E+03 0.  0.
         13    1    3    3    0    0  0.44786775124E+02  0.15784314909E+03 -0.86067592680E+03  0.87617541960E+03  0.00000000000E+00 0.  1.
          3    1    3    3  501    0 -0.21406644906E+02 -0.52684733874E+02 -0.12770971893E+02  0.58283988818E+02  0.00000000000E+00 0.  1.
         21    1    1    2  502  501 -0.23380130218E+02 -0.10515841521E+03 -0.65840433612E+02  0.12625325928E+03  0.00000000000E+00 0.  1.
<mgrwt>
<rscale>  1 0.30000000E+03</rscale>
<asrwt>0</asrwt>
<pdfrwt beam="1">  1        1 0.22077380E+00 0.30000000E+03</pdfrwt>
<pdfrwt beam="2">0</pdfrwt>
<totfact> 0.81747112E+00</totfact>
</mgrwt>
</event>
<event>
 6    1  0.1939311E-004  0.3000000E+03  0.7818608E-02  0.1093470E+00
          1   -1    0    0  502    0  0.00000000000E+00  0.00000000000E+00  0.78045227220E+02  0.78045227220E+02  0.00000000000E+00 0.  1.
         13   -1    0    0    0    0 -0.00000000000E+00 -0.00000000000E+00 -0.10000000000E+04  0.10000000000E+04  0.00000000000E+00 0.  1.
    9000005    2    1    2  501    0 -0.88523270765E+01 -0.50919343296E+01 -0.97148808797E+03  0.10274701266E+04  0.33436725987E+03 0.  0.
         13    1    3    3    0    0  0.10712234561E+03 -0.11582311805E+03 -0.32326042631E+03  0.35970473283E+03  0.00000000000E+00 0.  1.
          3    1    3    3  501    0 -0.11597467269E+03  0.11073118372E+03 -0.64822766166E+03  0.66776539376E+03  0.00000000000E+00 0.  1.
         21    1    1    2  502  501  0.88523270765E+01  0.50919343296E+01  0.49533315191E+02  0.50575100630E+02  0.00000000000E+00 0.  1.
<mgrwt>
<rscale>  1 0.30000000E+03</rscale>
<asrwt>0</asrwt>
<pdfrwt beam="1">  1        1 0.28380142E+00 0.30000000E+03</pdfrwt>
<pdfrwt beam="2">0</pdfrwt>
<totfact> 0.41444287E+00</totfact>
</mgrwt>
</event>
<event>
 6    1  0.1939311E-004  0.3000000E+03  0.7818608E-02  0.1093470E+00
          1   -1    0    0  502    0  0.00000000000E+00  0.00000000000E+00  0.34066840463E+02  0.34066840463E+02  0.00000000000E+00 0.  1.
         13   -1    0    0    0    0 -0.00000000000E+00 -0.00000000000E+00 -0.10000000000E+04  0.10000000000E+04  0.00000000000E+00 0.  1.
    9000005    2    1    2  501    0  0.23793042398E+02  0.75394448511E+01 -0.93552415078E+03  0.99472653151E+03  0.33712384030E+03 0.  0.
         13    1    3    3    0    0  0.69253317827E+02 -0.14029929838E+03 -0.66452167323E+03  0.68269244126E+03  0.00000000000E+00 0.  1.
          3    1    3    3  501    0 -0.45460275429E+02  0.14783874323E+03 -0.27100247754E+03  0.31203409025E+03  0.00000000000E+00 0.  1.
         21    1    1    2  502  501 -0.23793042398E+02 -0.75394448511E+01 -0.30409008758E+02  0.39340308957E+02  0.00000000000E+00 0. -1.
<mgrwt>
<rscale>  1 0.30000000E+03</rscale>
<asrwt>0</asrwt>
<pdfrwt beam="1">  1        1 0.12387968E+00 0.30000000E+03</pdfrwt>
<pdfrwt beam="2">0</pdfrwt>
<totfact> 0.24725676E+01</totfact>
</mgrwt>
</event>
<event>
 6    1  0.1939311E-004  0.3000000E+03  0.7818608E-02  0.1093470E+00
          1   -1    0    0  502    0  0.00000000000E+00  0.00000000000E+00  0.23833685367E+02  0.23833685367E+02  0.00000000000E+00 0.  1.
         13   -1    0    0    0    0 -0.00000000000E+00 -0.00000000000E+00 -0.10000000000E+04  0.10000000000E+04  0.00000000000E+00 0.  1.
    9000005    2    1    2  501    0  0.90294035633E+00 -0.59000322783E+02 -0.83368002363E+03  0.86961242706E+03  0.24025307097E+03 0.  0.
         13    1    3    3    0    0  0.66178943663E+02 -0.13232545939E+03 -0.45717439914E+03  0.48051858550E+03  0.00000000000E+00 0.  1.
          3    1    3    3  501    0 -0.65276003306E+02  0.73325136603E+02 -0.37650562449E+03  0.38909384156E+03  0.00000000000E+00 0.  1.
         21    1    1    2  502  501 -0.90294035633E+00  0.59000322783E+02 -0.14248629100E+03  0.15422125831E+03  0.00000000000E+00 0.  1.
<mgrwt>
<rscale>  1 0.30000000E+03</rscale>
<asrwt>0</asrwt>
<pdfrwt beam="1">  1        1 0.86668130E-01 0.30000000E+03</pdfrwt>
<pdfrwt beam="2">0</pdfrwt>
<totfact> 0.42009146E+01</totfact>
</mgrwt>
</event>
<event>
 6    1  0.1939311E-004  0.3000000E+03  0.7818608E-02  0.1093470E+00
          1   -1    0    0  502    0  0.00000000000E+00  0.00000000000E+00  0.43924917957E+02  0.43924917957E+02  0.00000000000E+00 0.  1.
         13   -1    0    0    0    0 -0.00000000000E+00 -0.00000000000E+00 -0.10000000000E+04  0.10000000000E+04  0.00000000000E+00 0.  1.
    9000005    2    1    2  501    0  0.38857624906E+02 -0.13157955491E+02 -0.94758691381E+03  0.10020310544E+04  0.32320616933E+03 0.  0.
         13    1    3    3    0    0 -0.10631360462E+03  0.71838464928E+02 -0.21498830590E+03  0.25036637003E+03  0.00000000000E+00 0.  1.
          1    1    3    3  501    0  0.14517122952E+03 -0.84996420419E+02 -0.73259860792E+03  0.75166468434E+03  0.00000000000E+00 0.  1.
         21    1    1    2  502  501 -0.38857624906E+02  0.13157955491E+02 -0.84881682282E+01  0.41893863582E+02  0.00000000000E+00 0. -1.
<mgrwt>
<rscale>  1 0.30000000E+03</rscale>
<asrwt>0</asrwt>
<pdfrwt beam="1">  1        1 0.15972731E+00 0.30000000E+03</pdfrwt>
<pdfrwt beam="2">0</pdfrwt>
<totfact> 0.16053053E+01</totfact>
</mgrwt>
</event>
<event>
 6    1  0.1939311E-004  0.3000000E+03  0.7818608E-02  0.1093470E+00
          1   -1    0    0  502    0  0.00000000000E+00  0.00000000000E+00  0.59279919448E+02  0.59279919448E+02  0.00000000000E+00 0.  1.
         13   -1    0    0    0    0 -0.00000000000E+00 -0.00000000000E+00 -0.10000000000E+04  0.10000000000E+04  0.00000000000E+00 0.  1.
    9000005    2    1    2  501    0 -0.24289134165E+01 -0.12293414005E+02 -0.97275814146E+03  0.10248783934E+04  0.32242873914E+03 0.  0.
         13    1    3    3    0    0  0.88426857901E+02  0.73123035018E+02 -0.13190739660E+03  0.17483091467E+03  0.00000000000E+00 0.  1.
          3    1    3    3  501    0 -0.90855771318E+02 -0.85416449023E+02 -0.84085074486E+03  0.85004747872E+03  0.00000000000E+00 0.  1.
         21    1    1    2  502  501  0.24289134165E+01  0.12293414005E+02  0.32038060906E+02  0.34401526055E+02  0.00000000000E+00 0.  1.
<mgrwt>
<rscale>  1 0.30000000E+03</rscale>
<asrwt>0</asrwt>
<pdfrwt beam="1">  1        1 0.21556380E+00 0.30000000E+03</pdfrwt>
<pdfrwt beam="2">0</pdfrwt>
<totfact> 0.86480332E+00</totfact>
</mgrwt>
</event>
<event>
 6    1  0.1939311E-004  0.3000000E+03  0.7818608E-02  0.1093470E+00
          1   -1    0    0  502    0  0.00000000000E+00  0.00000000000E+00  0.31388457147E+02  0.31388457147E+02  0.00000000000E+00 0.  1.
         13   -1    0    0    0    0 -0.00000000000E+00 -0.00000000000E+00 -0.10000000000E+04  0.10000000000E+04  0.00000000000E+00 0.  1.
    9000005    2    1    2  501    0 -0.11185187743E+02 -0.11728036029E+02 -0.95334572154E+03  0.10091241235E+04  0.33045540777E+03 0.  0.
         13    1    3    3    0    0 -0.21419597351E+02 -0.15298631880E+03 -0.71815865098E+03  0.73458523050E+03  0.00000000000E+00 0.  1.
          1    1    3    3  501    0  0.10234409608E+02  0.14125828277E+03 -0.23518707057E+03  0.27453889297E+03  0.00000000000E+00 0.  1.
         21    1    1    2  502  501  0.11185187743E+02  0.11728036029E+02 -0.15265821310E+02  0.22264333680E+02  0.00000000000E+00 0.  1.
<mgrwt>
<rscale>  1 0.30000000E+03</rscale>
<asrwt>0</asrwt>
<pdfrwt beam="1">  1        1 0.11414008E+00 0.30000000E+03</pdfrwt>
<pdfrwt beam="2">0</pdfrwt>
<totfact> 0.28087273E+01</totfact>
</mgrwt>
</event>
<event>
 6    1  0.1939311E-004  0.3000000E+03  0.7818608E-02  0.1093470E+00
          1   -1    0    0  502    0  0.00000000000E+00  0.00000000000E+00  0.35821962619E+02  0.35821962619E+02  0.00000000000E+00 0.  1.
         13   -1    0    0    0    0 -0.00000000000E+00 -0.00000000000E+00 -0.10000000000E+04  0.10000000000E+04  0.00000000000E+00 0.  1.
    9000005    2    1    2  501    0  0.82534730756E+01  0.80293621508E+01 -0.97107776062E+03  0.10223982279E+04  0.31964594267E+03 0.  0.
         13    1    3    3    0    0 -0.10123199870E+03  0.10800134593E+03 -0.29263296935E+03  0.32794246909E+03  0.00000000000E+00 0.  1.
          1    1    3    3  501    0  0.10948547177E+03 -0.99971983782E+02 -0.67844479127E+03  0.69445575876E+03  0.00000000000E+00 0.  1.
         21    1    1    2  502  501 -0.82534730756E+01 -0.80293621508E+01  0.68997232400E+01  0.13423734769E+02  0.00000000000E+00 0.  1.
<mgrwt>
<rscale>  1 0.30000000E+03</rscale>
<asrwt>0</asrwt>
<pdfrwt beam="1">  1        1 0.13026196E+00 0.30000000E+03</pdfrwt>
<pdfrwt beam="2">0</pdfrwt>
<totfact> 0.22804797E+01</totfact>
</mgrwt>
</event>
<event>
 6    1  0.1939311E-004  0.3000000E+03  0.7818608E-02  0.1093470E+00
          1   -1    0    0  502    0  0.00000000000E+00  0.00000000000E+00  0.26107932471E+02  0.26107932471E+02  0.00000000000E+00 0.  1.
         13   -1    0    0    0    0 -0.00000000000E+00 -0.00000000000E+00 -0.10000000000E+04  0.10000000000E+04  0.00000000000E+00 0.  1.
    9000005    2    1    2  501    0  0.91685937750E+01  0.89007134250E+01 -0.96410074100E+03  0.10100096131E+04  0.30077548762E+03 0.  0.
         13    1    3    3    0    0  0.11842466467E+03  0.20562538198E+02 -0.82017908062E+03  0.82893965007E+03  0.00000000000E+00 0.  1.
          1    1    3    3  501    0 -0.10925607089E+03 -0.11661824773E+02 -0.14392166038E+03  0.18106996303E+03  0.00000000000E+00 0.  1.
         21    1    1    2  502  501 -0.91685937750E+01 -0.89007134250E+01 -0.97913265287E+01  0.16098319368E+02  0.00000000000E+00 0. -1.
<mgrwt>
<rscale>  1 0.30000000E+03</rscale>
<asrwt>0</asrwt>
<pdfrwt beam="1">  1        1 0.94938136E-01 0.30000000E+03</pdfrwt>
<pdfrwt beam="2">0</pdfrwt>
<totfact> 0.36905683E+01</totfact>
</mgrwt>
</event>
<event>
 6    1  0.1939311E-004  0.3000000E+03  0.7818608E-02  0.1093470E+00
          1   -1    0    0  502    0  0.00000000000E+00  0.00000000000E+00  0.19466978774E+02  0.19466978774E+02  0.00000000000E+00 0.  1.
         13   -1    0    0    0    0 -0.00000000000E+00 -0.00000000000E+00 -0.10000000000E+04  0.10000000000E+04  0.00000000000E+00 0.  1.
    9000005    2    1    2  501    0 -0.11864048872E+01  0.11959478329E+02 -0.97160343101E+03  0.10044945287E+04  0.25465976213E+03 0.  0.
         13    1    3    3    0    0  0.28440095664E+02 -0.11677574529E+03 -0.53554115467E+03  0.54886222504E+03  0.00000000000E+00 0.  1.
          1    1    3    3  501    0 -0.29626500551E+02  0.12873522361E+03 -0.43606227634E+03  0.45563230370E+03  0.00000000000E+00 0.  1.
         21    1    1    2  502  501  0.11864048872E+01 -0.11959478329E+02 -0.89295902153E+01  0.14972450029E+02  0.00000000000E+00 0.  1.
<mgrwt>
<rscale>  1 0.30000000E+03</rscale>
<asrwt>0</asrwt>
<pdfrwt beam="1">  1        1 0.70789163E-01 0.30000000E+03</pdfrwt>
<pdfrwt beam="2">0</pdfrwt>
<totfact> 0.55532381E+01</totfact>
</mgrwt>
</event>
<event>
 6    1  0.1939311E-004  0.3000000E+03  0.7818608E-02  0.1093470E+00
          1   -1    0    0  502    0  0.00000000000E+00  0.00000000000E+00  0.33982454665E+02  0.33982454665E+02  0.00000000000E+00 0.  1.
         13   -1    0    0    0    0 -0.00000000000E+00 -0.00000000000E+00 -0.10000000000E+04  0.10000000000E+04  0.00000000000E+00 0.  1.
    9000005    2    1    2  501    0  0.21542031714E+02 -0.24911044787E+02 -0.91683038371E+03  0.97478789282E+03  0.32946754654E+03 0.  0.
         13    1    3    3    0    0 -0.17381568938E+02 -0.23347688693E+02  0.21161974709E+02  0.35986979307E+02  0.00000000000E+00 0.  1.
          1    1    3    3  501    0  0.38923600652E+02 -0.15633560932E+01 -0.93799235842E+03  0.93880091352E+03  0.00000000000E+00 0.  1.
         21    1    1    2  502  501 -0.21542031714E+02  0.24911044787E+02 -0.49187161627E+02  0.59194561842E+02  0.00000000000E+00 0.  1.
<mgrwt>
<rscale>  1 0.30000000E+03</rscale>
<asrwt>0</asrwt>
<pdfrwt beam="1">  1        1 0.12357282E+00 0.30000000E+03</pdfrwt>
<pdfrwt beam="2">0</pdfrwt>
<totfact> 0.24823151E+01</totfact>
</mgrwt>
</event>
<event>
 6    1  0.1939311E-004  0.3000000E+03  0.7818608E-02  0.1093470E+00
          3   -1    0    0  502    0  0.00000000000E+00  0.00000000000E+00  0.41127681739E+02  0.41127681739E+02  0.00000000000E+00 0.  1.
         13   -1    0    0    0    0 -0.00000000000E+00 -0.00000000000E+00 -0.10000000000E+04  0.10000000000E+04  0.00000000000E+00 0.  1.
    9000005    2    1    2  501    0 -0.30951480489E+01 -0.22033251184E+02 -0.96499197080E+03  0.10180518449E+04  0.32361243963E+03 0.  0.
         13    1    3    3    0    0 -0.97951285218E+02  0.40860640036E+01 -0.77090650381E+02  0.12471615201E+03  0.00000000000E+00 0.  1.
          3    1    3    3  501    0  0.94856137169E+02 -0.26119315188E+02 -0.88790132041E+03  0.89333569288E+03  0.00000000000E+00 0.  1.
         21    1    1    2  502  501  0.30951480489E+01  0.22033251184E+02  0.61196525345E+01  0.23075836850E+02  0.00000000000E+00 0.  1.
<mgrwt>
<rscale>  1 0.30000000E+03</rscale>
<asrwt>0</asrwt>
<pdfrwt beam="1">  1        3 0.14955552E+00 0.30000000E+03</pdfrwt>
<pdfrwt beam="2">0</pdfrwt>
<totfact> 0.10039869E+00</totfact>
</mgrwt>
</event>
<event>
 6    1  0.1939311E-004  0.3000000E+03  0.7818608E-02  0.1093470E+00
          1   -1    0    0  502    0  0.00000000000E+00  0.00000000000E+00  0.52735515406E+02  0.52735515406E+02  0.00000000000E+00 0.  1.
         13   -1    0    0    0    0 -0.00000000000E+00 -0.00000000000E+00 -0.10000000000E+04  0.10000000000E+04  0.00000000000E+00 0.  1.
    9000005    2    1    2  501    0 -0.20024917270E+01  0.55290192998E+02 -0.94292293084E+03  0.99723898845E+03  0.31987643110E+03 0.  0.
         13    1    3    3    0    0  0.14824107051E+03  0.77989805545E+02 -0.40514030847E+03  0.43840220609E+03  0.00000000000E+00 0.  1.
          1    1    3    3  501    0 -0.15024356224E+03 -0.22699612548E+02 -0.53778262236E+03  0.55883678236E+03  0.00000000000E+00 0.  1.
         21    1    1    2  502  501  0.20024917270E+01 -0.55290192998E+02 -0.43415537561E+01  0.55496526953E+02  0.00000000000E+00 0.  1.
<mgrwt>
<rscale>  1 0.30000000E+03</rscale>
<asrwt>0</asrwt>
<pdfrwt beam="1">  1        1 0.19176591E+00 0.30000000E+03</pdfrwt>
<pdfrwt beam="2">0</pdfrwt>
<totfact> 0.11213177E+01</totfact>
</mgrwt>
</event>
<event>
 6    1  0.1939311E-004  0.3000000E+03  0.7818608E-02  0.1093470E+00
          1   -1    0    0  502    0  0.00000000000E+00  0.00000000000E+00  0.58013295115E+02  0.58013295115E+02  0.00000000000E+00 0.  1.
         13   -1    0    0    0    0 -0.00000000000E+00 -0.00000000000E+00 -0.10000000000E+04  0.10000000000E+04  0.00000000000E+00 0.  1.
    9000005    2    1    2  501    0  0.26616965093E+02 -0.55464042851E+02 -0.95078657128E+03  0.99586701181E+03  0.28977798087E+03 0.  0.
         13    1    3    3    0    0  0.18244547975E+02 -0.98753479241E+02 -0.94622593136E+03  0.95154013387E+03  0.00000000000E+00 0.  1.
          1    1    3    3  501    0  0.83724171179E+01  0.43289436390E+02 -0.45606399277E+01  0.44326877940E+02  0.00000000000E+00 0.  1.
         21    1    1    2  502  501 -0.26616965093E+02  0.55464042851E+02  0.87998663979E+01  0.62146283307E+02  0.00000000000E+00 0.  1.
<mgrwt>
<rscale>  1 0.30000000E+03</rscale>
<asrwt>0</asrwt>
<pdfrwt beam="1">  1        1 0.21095788E+00 0.30000000E+03</pdfrwt>
<pdfrwt beam="2">0</pdfrwt>
<totfact> 0.90903628E+00</totfact>
</mgrwt>
</event>
<event>
 6    1  0.1939311E-004  0.3000000E+03  0.7818608E-02  0.1093470E+00
          1   -1    0    0  502    0  0.00000000000E+00  0.00000000000E+00  0.56314178717E+02  0.56314178717E+02  0.00000000000E+00 0.  1.
         13   -1    0    0    0    0 -0.00000000000E+00 -0.00000000000E+00 -0.10000000000E+04  0.10000000000E+04  0.00000000000E+00 0.  1.
    9000005    2    1    2  501    0 -0.25940120490E+01 -0.11202327026E+02 -0.97176778621E+03  0.10259691992E+04  0.32885855061E+03 0.  0.
         13    1    3    3    0    0 -0.64487524852E+02 -0.94779155966E+02 -0.11314146594E+03  0.16106744110E+03  0.00000000000E+00 0.  1.
          1    1    3    3  501    0  0.61893512803E+02  0.83576828940E+02 -0.85862632027E+03  0.86490175807E+03  0.00000000000E+00 0.  1.
         21    1    1    2  502  501  0.25940120490E+01  0.11202327026E+02  0.28081964926E+02  0.30344979543E+02  0.00000000000E+00 0. -1.
<mgrwt>
<rscale>  1 0.30000000E+03</rscale>
<asrwt>0</asrwt>
<pdfrwt beam="1">  1        1 0.20477926E+00 0.30000000E+03</pdfrwt>
<pdfrwt beam="2">0</pdfrwt>
<totfact> 0.97221450E+00</totfact>
</mgrwt>
</event>
<event>
 6    1  0.1939311E-004  0.3000000E+03  0.7818608E-02  0.1093470E+00
          1   -1    0    0  502    0  0.00000000000E+00  0.00000000000E+00  0.46634246197E+02  0.46634246197E+02  0.00000000000E+00 0.  1.
         13   -1    0    0    0    0 -0.00000000000E+00 -0.00000000000E+00 -0.10000000000E+04  0.10000000000E+04  0.00000000000E+00 0.  1.
    9000005    2    1    2  501    0 -0.27995327029E+02  0.77076924858E+02 -0.85568068299E+03  0.91909223845E+03  0.32529451402E+03 0.  0.
         13    1    3    3    0    0 -0.44593174527E+02 -0.34039958948E+02 -0.78360487402E+03  0.78561050694E+03  0.00000000000E+00 0.  1.
          1    1    3    3  501    0  0.16597847498E+02  0.11111688381E+03 -0.72075808966E+02  0.13348173151E+03  0.00000000000E+00 0.  1.
         21    1    1    2  502  501  0.27995327029E+02 -0.77076924858E+02 -0.97685070815E+02  0.12754200775E+03  0.00000000000E+00 0.  1.
<mgrwt>
<rscale>  1 0.30000000E+03</rscale>
<asrwt>0</asrwt>
<pdfrwt beam="1">  1        1 0.16957943E+00 0.30000000E+03</pdfrwt>
<pdfrwt beam="2">0</pdfrwt>
<totfact> 0.14354994E+01</totfact>
</mgrwt>
</event>
<event>
 6    1  0.1939311E-004  0.3000000E+03  0.7818608E-02  0.1093470E+00
          1   -1    0    0  502    0  0.00000000000E+00  0.00000000000E+00  0.32958713273E+02  0.32958713273E+02  0.00000000000E+00 0.  1.
         13   -1    0    0    0    0 -0.00000000000E+00 -0.00000000000E+00 -0.10000000000E+04  0.10000000000E+04  0.00000000000E+00 0.  1.
    9000005    2    1    2  501    0 -0.82628298642E+01 -0.24205728292E+02 -0.94391162881E+03  0.99847432964E+03  0.32454218878E+03 0.  0.
         13    1    3    3    0    0 -0.13708473229E+03 -0.36638901378E+02 -0.76272910753E+03  0.77581590883E+03  0.00000000000E+00 0.  1.
          3    1    3    3  501    0  0.12882190243E+03  0.12433173086E+02 -0.18118252128E+03  0.22265842081E+03  0.00000000000E+00 0.  1.
         21    1    1    2  502  501  0.82628298642E+01  0.24205728292E+02 -0.23129657912E+02  0.34484383634E+02  0.00000000000E+00 0. -1.
<mgrwt>
<rscale>  1 0.30000000E+03</rscale>
<asrwt>0</asrwt>
<pdfrwt beam="1">  1        1 0.11985012E+00 0.30000000E+03</pdfrwt>
<pdfrwt beam="2">0</pdfrwt>
<totfact> 0.26046814E+01</totfact>
</mgrwt>
</event>
<event>
 6    1  0.1939311E-004  0.3000000E+03  0.7818608E-02  0.1093470E+00
          1   -1    0    0  502    0  0.00000000000E+00  0.00000000000E+00  0.32500778967E+02  0.32500778967E+02  0.00000000000E+00 0.  1.
         13   -1    0    0    0    0 -0.00000000000E+00 -0.00000000000E+00 -0.10000000000E+04  0.10000000000E+04  0.00000000000E+00 0.  1.
    9000005    2    1    2  501    0 -0.11070226685E+02 -0.81014259814E+01 -0.96323100243E+03  0.10181341262E+04  0.32953748172E+03 0.  0.
         13    1    3    3    0    0 -0.10305077332E+03 -0.35067547633E+01 -0.90123887079E+03  0.90711810777E+03  0.00000000000E+00 0.  1.
          3    1    3    3  501    0  0.91980546635E+02 -0.45946712181E+01 -0.61992131640E+02  0.11101601843E+03  0.00000000000E+00 0.  1.
         21    1    1    2  502  501  0.11070226685E+02  0.81014259814E+01 -0.42682186001E+01  0.14366652769E+02  0.00000000000E+00 0.  1.
<mgrwt>
<rscale>  1 0.30000000E+03</rscale>
<asrwt>0</asrwt>
<pdfrwt beam="1">  1        1 0.11818490E+00 0.30000000E+03</pdfrwt>
<pdfrwt beam="2">0</pdfrwt>
<totfact> 0.26620253E+01</totfact>
</mgrwt>
</event>
<event>
 6    1  0.1939311E-004  0.3000000E+03  0.7818608E-02  0.1093470E+00
          1   -1    0    0  502    0  0.00000000000E+00  0.00000000000E+00  0.43936426157E+02  0.43936426157E+02  0.00000000000E+00 0.  1.
         13   -1    0    0    0    0 -0.00000000000E+00 -0.00000000000E+00 -0.10000000000E+04  0.10000000000E+04  0.00000000000E+00 0.  1.
    9000005    2    1    2  501    0  0.21521244162E+02  0.22226732938E+02 -0.95888736834E+03  0.10128693146E+04  0.32478003575E+03 0.  0.
         13    1    3    3    0    0 -0.99515451896E+02 -0.72156150702E+02 -0.17353968350E+03  0.21266371811E+03  0.00000000000E+00 0.  1.
          3    1    3    3  501    0  0.12103669606E+03  0.94382883640E+02 -0.78534768484E+03  0.80020559646E+03  0.00000000000E+00 0.  1.
         21    1    1    2  502  501 -0.21521244162E+02 -0.22226732938E+02  0.28237944961E+01  0.31067111593E+02  0.00000000000E+00 0.  1.
<mgrwt>
<rscale>  1 0.30000000E+03</rscale>
<asrwt>0</asrwt>
<pdfrwt beam="1">  1        1 0.15976916E+00 0.30000000E+03</pdfrwt>
<pdfrwt beam="2">0</pdfrwt>
<totfact> 0.16045367E+01</totfact>
</mgrwt>
</event>
<event>
 6    1  0.1939311E-004  0.3000000E+03  0.7818608E-02  0.1093470E+00
          1   -1    0    0  502    0  0.00000000000E+00  0.00000000000E+00  0.29773846510E+02  0.29773846510E+02  0.00000000000E+00 0.  1.
         13   -1    0    0    0    0 -0.00000000000E+00 -0.00000000000E+00 -0.10000000000E+04  0.10000000000E+04  0.00000000000E+00 0.  1.
    9000005    2    1    2  501    0 -0.30549533262E+01  0.12340769985E+02 -0.96046932360E+03  0.10137481461E+04  0.32407152734E+03 0.  0.
         13    1    3    3    0    0 -0.85139164062E+01  0.17306798584E+02 -0.98650155227E+03  0.98669008543E+03  0.00000000000E+00 0.  1.
          3    1    3    3  501    0  0.54589630799E+01 -0.49660285985E+01  0.26032228677E+02  0.27058060681E+02  0.00000000000E+00 0.  1.
         21    1    1    2  502  501  0.30549533262E+01 -0.12340769985E+02 -0.97568298926E+01  0.16025700397E+02  0.00000000000E+00 0. -1.
<mgrwt>
<rscale>  1 0.30000000E+03</rscale>
<asrwt>0</asrwt>
<pdfrwt beam="1">  1        1 0.10826876E+00 0.30000000E+03</pdfrwt>
<pdfrwt beam="2">0</pdfrwt>
<totfact> 0.30427652E+01</totfact>
</mgrwt>
</event>
<event>
 6    1  0.1939311E-004  0.3000000E+03  0.7818608E-02  0.1093470E+00
          1   -1    0    0  502    0  0.00000000000E+00  0.00000000000E+00  0.29564357583E+02  0.29564357583E+02  0.00000000000E+00 0.  1.
         13   -1    0    0    0    0 -0.00000000000E+00 -0.00000000000E+00 -0.10000000000E+04  0.10000000000E+04  0.00000000000E+00 0.  1.
    9000005    2    1    2  501    0 -0.12075387112E+02 -0.24157867343E+00 -0.96271576884E+03  0.10152301404E+04  0.32206321285E+03 0.  0.
         13    1    3    3    0    0 -0.14582814263E+03 -0.26901375630E+02 -0.25923391992E+03  0.29864988938E+03  0.00000000000E+00 0.  1.
          1    1    3    3  501    0  0.13375275552E+03  0.26659796956E+02 -0.70348184893E+03  0.71658025102E+03  0.00000000000E+00 0.  1.
         21    1    1    2  502  501  0.12075387112E+02  0.24157867343E+00 -0.77198735742E+01  0.14334217180E+02  0.00000000000E+00 0.  1.
<mgrwt>
<rscale>  1 0.30000000E+03</rscale>
<asrwt>0</asrwt>
<pdfrwt beam="1">  1        1 0.10750698E+00 0.30000000E+03</pdfrwt>
<pdfrwt beam="2">0</pdfrwt>
<totfact> 0.30751454E+01</totfact>
</mgrwt>
</event>
<event>
 6    1  0.1939311E-004  0.3000000E+03  0.7818608E-02  0.1093470E+00
          1   -1    0    0  502    0  0.00000000000E+00  0.00000000000E+00  0.32733896189E+02  0.32733896189E+02  0.00000000000E+00 0.  1.
         13   -1    0    0    0    0 -0.00000000000E+00 -0.00000000000E+00 -0.10000000000E+04  0.10000000000E+04  0.00000000000E+00 0.  1.
    9000005    2    1    2  501    0 -0.75847571102E+01 -0.76528778748E+01 -0.96484375429E+03  0.10216902167E+04  0.33587398463E+03 0.  0.
         13    1    3    3    0    0  0.90591528468E+01 -0.25310250765E+02  0.21884146242E+02  0.34664000070E+02  0.00000000000E+00 0.  1.
          3    1    3    3  501    0 -0.16643909957E+02  0.17657372891E+02 -0.98672790054E+03  0.98702621660E+03  0.00000000000E+00 0.  1.
         21    1    1    2  502  501  0.75847571102E+01  0.76528778748E+01 -0.24223495170E+01  0.11043679521E+02  0.00000000000E+00 0. -1.
<mgrwt>
<rscale>  1 0.30000000E+03</rscale>
<asrwt>0</asrwt>
<pdfrwt beam="1">  1        1 0.11903260E+00 0.30000000E+03</pdfrwt>
<pdfrwt beam="2">0</pdfrwt>
<totfact> 0.26326227E+01</totfact>
</mgrwt>
</event>
<event>
 6    1  0.1939311E-004  0.3000000E+03  0.7818608E-02  0.1093470E+00
          1   -1    0    0  502    0  0.00000000000E+00  0.00000000000E+00  0.47519751011E+02  0.47519751011E+02  0.00000000000E+00 0.  1.
         13   -1    0    0    0    0 -0.00000000000E+00 -0.00000000000E+00 -0.10000000000E+04  0.10000000000E+04  0.00000000000E+00 0.  1.
    9000005    2    1    2  501    0 -0.13851750792E+02  0.19860604405E+02 -0.96721696460E+03  0.10191739331E+04  0.32034440006E+03 0.  0.
         13    1    3    3    0    0  0.45295394548E+02  0.25418963358E+02 -0.18422126964E+01  0.51972975796E+02  0.00000000000E+00 0.  1.
          3    1    3    3  501    0 -0.59147145340E+02 -0.55583589531E+01 -0.96537475190E+03  0.96720095728E+03  0.00000000000E+00 0.  1.
         21    1    1    2  502  501  0.13851750792E+02 -0.19860604405E+02  0.14736715610E+02  0.28345817933E+02  0.00000000000E+00 0.  1.
<mgrwt>
<rscale>  1 0.30000000E+03</rscale>
<asrwt>0</asrwt>
<pdfrwt beam="1">  1        1 0.17279946E+00 0.30000000E+03</pdfrwt>
<pdfrwt beam="2">0</pdfrwt>
<totfact> 0.13844927E+01</totfact>
</mgrwt>
</event>
<event>
 6    1  0.1939311E-004  0.3000000E+03  0.7818608E-02  0.1093470E+00
          1   -1    0    0  502    0  0.00000000000E+00  0.00000000000E+00  0.49511512351E+02  0.49511512351E+02  0.00000000000E+00 0.  1.
         13   -1    0    0    0    0 -0.00000000000E+00 -0.00000000000E+00 -0.10000000000E+04  0.10000000000E+04  0.00000000000E+00 0.  1.
    9000005    2    1    2  501    0 -0.42298865739E+01 -0.24816325292E+02 -0.96528031861E+03  0.10203132212E+04  0.32960466314E+03 0.  0.
         13    1    3    3    0    0  0.14018090643E+03  0.62710166698E+02 -0.34852014667E+03  0.38085370442E+03  0.00000000000E+00 0.  1.
          1    1    3    3  501    0 -0.14441079301E+03 -0.87526491990E+02 -0.61676017195E+03  0.63945951681E+03  0.00000000000E+00 0.  1.
         21    1    1    2  502  501  0.42298865739E+01  0.24816325292E+02  0.14791830965E+02  0.29198291127E+02  0.00000000000E+00 0.  1.
<mgrwt>
<rscale>  1 0.30000000E+03</rscale>
<asrwt>0</asrwt>
<pdfrwt beam="1">  1        1 0.18004224E+00 0.30000000E+03</pdfrwt>
<pdfrwt beam="2">0</pdfrwt>
<totfact> 0.12768441E+01</totfact>
</mgrwt>
</event>
<event>
 6    1  0.1939311E-004  0.3000000E+03  0.7818608E-02  0.1093470E+00
          1   -1    0    0  502    0  0.00000000000E+00  0.00000000000E+00  0.29649807210E+02  0.29649807210E+02  0.00000000000E+00 0.  1.
         13   -1    0    0    0    0 -0.00000000000E+00 -0.00000000000E+00 -0.10000000000E+04  0.10000000000E+04  0.00000000000E+00 0.  1.
    9000005    2    1    2  501    0 -0.13547542604E+02  0.10802627150E+02 -0.94885730104E+03  0.10020422528E+04  0.32164929042E+03 0.  0.
         13    1    3    3    0    0 -0.14650469615E+03  0.48774550777E+02 -0.70499065597E+03  0.72170243716E+03  0.00000000000E+00 0.  1.
          3    1    3    3  501    0  0.13295715355E+03 -0.37971923627E+02 -0.24386664507E+03  0.28033981566E+03  0.00000000000E+00 0.  1.
         21    1    1    2  502  501  0.13547542604E+02 -0.10802627150E+02 -0.21492891752E+02  0.27607554397E+02  0.00000000000E+00 0.  1.
<mgrwt>
<rscale>  1 0.30000000E+03</rscale>
<asrwt>0</asrwt>
<pdfrwt beam="1">  1        1 0.10781771E+00 0.30000000E+03</pdfrwt>
<pdfrwt beam="2">0</pdfrwt>
<totfact> 0.30618783E+01</totfact>
</mgrwt>
</event>
<event>
 6    1  0.1939311E-004  0.3000000E+03  0.7818608E-02  0.1093470E+00
          1   -1    0    0  502    0  0.00000000000E+00  0.00000000000E+00  0.34250655168E+02  0.34250655168E+02  0.00000000000E+00 0.  1.
         13   -1    0    0    0    0 -0.00000000000E+00 -0.00000000000E+00 -0.10000000000E+04  0.10000000000E+04  0.00000000000E+00 0.  1.
    9000005    2    1    2  501    0  0.36379013209E+02 -0.54659942568E+01 -0.91515129045E+03  0.97169289944E+03  0.32454875859E+03 0.  0.
         13    1    3    3    0    0  0.12591208595E+03  0.11662273180E+03 -0.55742875560E+03  0.58325083157E+03  0.00000000000E+00 0.  1.
          1    1    3    3  501    0 -0.89533072738E+02 -0.12208872606E+03 -0.35772253485E+03  0.38844206787E+03  0.00000000000E+00 0.  1.
         21    1    1    2  502  501 -0.36379013209E+02  0.54659942568E+01 -0.50598054379E+02  0.62557755732E+02  0.00000000000E+00 0.  1.
<mgrwt>
<rscale>  1 0.30000000E+03</rscale>
<asrwt>0</asrwt>
<pdfrwt beam="1">  1        1 0.12454810E+00 0.30000000E+03</pdfrwt>
<pdfrwt beam="2">0</pdfrwt>
<totfact> 0.24515051E+01</totfact>
</mgrwt>
</event>
<event>
 6    1  0.1939311E-004  0.3000000E+03  0.7818608E-02  0.1093470E+00
          1   -1    0    0  502    0  0.00000000000E+00  0.00000000000E+00  0.34248342646E+02  0.34248342646E+02  0.00000000000E+00 0.  1.
         13   -1    0    0    0    0 -0.00000000000E+00 -0.00000000000E+00 -0.10000000000E+04  0.10000000000E+04  0.00000000000E+00 0.  1.
    9000005    2    1    2  501    0  0.16229445405E+02 -0.13988408731E+02 -0.95996438288E+03  0.10120545817E+04  0.31978710036E+03 0.  0.
         13    1    3    3    0    0  0.11541304330E+03  0.61273220471E+02 -0.18120442491E+03  0.22340461436E+03  0.00000000000E+00 0.  1.
          1    1    3    3  501    0 -0.99183597891E+02 -0.75261629203E+02 -0.77875995798E+03  0.78864996739E+03  0.00000000000E+00 0.  1.
         21    1    1    2  502  501 -0.16229445405E+02  0.13988408731E+02 -0.57872744713E+01  0.22193760898E+02  0.00000000000E+00 0.  1.
<mgrwt>
<rscale>  1 0.30000000E+03</rscale>
<asrwt>0</asrwt>
<pdfrwt beam="1">  1        1 0.12453969E+00 0.30000000E+03</pdfrwt>
<pdfrwt beam="2">0</pdfrwt>
<totfact> 0.24517687E+01</totfact>
</mgrwt>
</event>
<event>
 6    1  0.1939311E-004  0.3000000E+03  0.7818608E-02  0.1093470E+00
          1   -1    0    0  502    0  0.00000000000E+00  0.00000000000E+00  0.23995205122E+02  0.23995205122E+02  0.00000000000E+00 0.  1.
         13   -1    0    0    0    0 -0.00000000000E+00 -0.00000000000E+00 -0.10000000000E+04  0.10000000000E+04  0.00000000000E+00 0.  1.
    9000005    2    1    2  501    0  0.20913668940E+02  0.30487082558E+02 -0.84597083406E+03  0.88880765127E+03  0.27008432964E+03 0.  0.
         13    1    3    3    0    0 -0.16730572226E+02  0.71098533003E+02 -0.82708042166E+03  0.83029930587E+03  0.00000000000E+00 0.  1.
          1    1    3    3  501    0  0.37644241166E+02 -0.40611450444E+02 -0.18890412404E+02  0.58508345396E+02  0.00000000000E+00 0.  1.
         21    1    1    2  502  501 -0.20913668940E+02 -0.30487082558E+02 -0.13003396082E+03  0.13518755385E+03  0.00000000000E+00 0. -1.
<mgrwt>
<rscale>  1 0.30000000E+03</rscale>
<asrwt>0</asrwt>
<pdfrwt beam="1">  1        1 0.87255475E-01 0.30000000E+03</pdfrwt>
<pdfrwt beam="2">0</pdfrwt>
<totfact> 0.41612222E+01</totfact>
</mgrwt>
</event>
<event>
 6    1  0.1939311E-004  0.3000000E+03  0.7818608E-02  0.1093470E+00
          1   -1    0    0  502    0  0.00000000000E+00  0.00000000000E+00  0.55690926841E+02  0.55690926841E+02  0.00000000000E+00 0.  1.
         13   -1    0    0    0    0 -0.00000000000E+00 -0.00000000000E+00 -0.10000000000E+04  0.10000000000E+04  0.00000000000E+00 0.  1.
    9000005    2    1    2  501    0  0.17554976672E+02  0.11850015007E+02 -0.97075705528E+03  0.10218073642E+04  0.31823329337E+03 0.  0.
         13    1    3    3    0    0 -0.13988822108E+03 -0.19727950289E+02 -0.29289497294E+03  0.32518513433E+03  0.00000000000E+00 0.  1.
          1    1    3    3  501    0  0.15744319775E+03  0.31577965295E+02 -0.67786208234E+03  0.69662222983E+03  0.00000000000E+00 0.  1.
         21    1    1    2  502  501 -0.17554976672E+02 -0.11850015007E+02  0.26447982122E+02  0.33883562681E+02  0.00000000000E+00 0. -1.
<mgrwt>
<rscale>  1 0.30000000E+03</rscale>
<asrwt>0</asrwt>
<pdfrwt beam="1">  1        1 0.20251289E+00 0.30000000E+03</pdfrwt>
<pdfrwt beam="2">0</pdfrwt>
<totfact> 0.99657170E+00</totfact>
</mgrwt>
</event>
<event>
 6    1  0.1939311E-004  0.3000000E+03  0.7818608E-02  0.1093470E+00
          1   -1    0    0  502    0  0.00000000000E+00  0.00000000000E+00  0.30532800310E+02  0.30532800310E+02  0.00000000000E+00 0.  1.
         13   -1    0    0    0    0 -0.00000000000E+00 -0.00000000000E+00 -0.10000000000E+04  0.10000000000E+04  0.00000000000E+00 0.  1.
    9000005    2    1    2  501    0  0.92423048412E+01 -0.60149351094E+01 -0.95847542225E+03  0.10149629957E+04  0.33369619119E+03 0.  0.
         13    1    3    3    0    0 -0.12723549642E+03 -0.10414650010E+03 -0.42825490348E+03  0.45873481162E+03  0.00000000000E+00 0.  1.
          1    1    3    3  501    0  0.13647780126E+03  0.98131564995E+02 -0.53022051876E+03  0.55622818412E+03  0.00000000000E+00 0.  1.
         21    1    1    2  502  501 -0.92423048412E+01  0.60149351094E+01 -0.10991777441E+02  0.15569804574E+02  0.00000000000E+00 0.  1.
<mgrwt>
<rscale>  1 0.30000000E+03</rscale>
<asrwt>0</asrwt>
<pdfrwt beam="1">  1        1 0.11102860E+00 0.30000000E+03</pdfrwt>
<pdfrwt beam="2">0</pdfrwt>
<totfact> 0.29294399E+01</totfact>
</mgrwt>
</event>
<event>
 6    1  0.1939311E-004  0.3000000E+03  0.7818608E-02  0.1093470E+00
          1   -1    0    0  502    0  0.00000000000E+00  0.00000000000E+00  0.48079108926E+02  0.48079108926E+02  0.00000000000E+00 0.  1.
         13   -1    0    0    0    0 -0.00000000000E+00 -0.00000000000E+00 -0.10000000000E+04  0.10000000000E+04  0.00000000000E+00 0.  1.
    9000005    2    1    2  501    0  0.96895444522E+01 -0.64664556108E+01 -0.96184481516E+03  0.10327759527E+04  0.37595879801E+03 0.  0.
         13    1    3    3    0    0 -0.49460436519E+02  0.11672590439E+03 -0.10360154895E+03  0.16372095920E+03  0.00000000000E+00 0.  1.
          3    1    3    3  501    0  0.59149980971E+02 -0.12319236000E+03 -0.85824326621E+03  0.86905499355E+03  0.00000000000E+00 0.  1.
         21    1    1    2  502  501 -0.96895444522E+01  0.64664556108E+01  0.99239240855E+01  0.15303156181E+02  0.00000000000E+00 0.  1.
<mgrwt>
<rscale>  1 0.30000000E+03</rscale>
<asrwt>0</asrwt>
<pdfrwt beam="1">  1        1 0.17483349E+00 0.30000000E+03</pdfrwt>
<pdfrwt beam="2">0</pdfrwt>
<totfact> 0.13533042E+01</totfact>
</mgrwt>
</event>
<event>
 6    1  0.1939311E-004  0.3000000E+03  0.7818608E-02  0.1093470E+00
          1   -1    0    0  502    0  0.00000000000E+00  0.00000000000E+00  0.55559034254E+02  0.55559034254E+02  0.00000000000E+00 0.  1.
         13   -1    0    0    0    0 -0.00000000000E+00 -0.00000000000E+00 -0.10000000000E+04  0.10000000000E+04  0.00000000000E+00 0.  1.
    9000005    2    1    2  501    0 -0.18643791619E+02 -0.90656663173E+02 -0.87680031945E+03  0.94092274604E+03  0.32861922081E+03 0.  0.
         13    1    3    3    0    0  0.68183133957E+02 -0.12812753357E+03 -0.81529599620E+03  0.82811422282E+03  0.00000000000E+00 0.  1.
          1    1    3    3  501    0 -0.86826925576E+02  0.37470870399E+02 -0.61504323252E+02  0.11280852322E+03  0.00000000000E+00 0.  1.
         21    1    1    2  502  501  0.18643791619E+02  0.90656663173E+02 -0.67640646293E+02  0.11463628821E+03  0.00000000000E+00 0.  1.
<mgrwt>
<rscale>  1 0.30000000E+03</rscale>
<asrwt>0</asrwt>
<pdfrwt beam="1">  1        1 0.20203328E+00 0.30000000E+03</pdfrwt>
<pdfrwt beam="2">0</pdfrwt>
<totfact> 0.10018095E+01</totfact>
</mgrwt>
</event>
<event>
 6    1  0.1939311E-004  0.3000000E+03  0.7818608E-02  0.1093470E+00
          1   -1    0    0  502    0  0.00000000000E+00  0.00000000000E+00  0.54281437072E+02  0.54281437072E+02  0.00000000000E+00 0.  1.
         13   -1    0    0    0    0 -0.00000000000E+00 -0.00000000000E+00 -0.10000000000E+04  0.10000000000E+04  0.00000000000E+00 0.  1.
    9000005    2    1    2  501    0 -0.18035645056E+02  0.90857432839E+01 -0.95865729034E+03  0.10302971528E+04  0.37693578706E+03 0.  0.
         13    1    3    3    0    0 -0.82314371883E+02 -0.41343452787E+02 -0.94253045505E+03  0.94702090558E+03  0.00000000000E+00 0.  1.
          3    1    3    3  501    0  0.64278726827E+02  0.50429196071E+02 -0.16126835294E+02  0.83276247247E+02  0.00000000000E+00 0.  1.
         21    1    1    2  502  501  0.18035645056E+02 -0.90857432839E+01  0.12938727416E+02  0.23984284245E+02  0.00000000000E+00 0.  1.
<mgrwt>
<rscale>  1 0.30000000E+03</rscale>
<asrwt>0</asrwt>
<pdfrwt beam="1">  1        1 0.19738746E+00 0.30000000E+03</pdfrwt>
<pdfrwt beam="2">0</pdfrwt>
<totfact> 0.10540782E+01</totfact>
</mgrwt>
</event>
<event>
 6    1  0.1939311E-004  0.3000000E+03  0.7818608E-02  0.1093470E+00
          1   -1    0    0  502    0  0.00000000000E+00  0.00000000000E+00  0.29419295592E+02  0.29419295592E+02  0.00000000000E+00 0.  1.
         13   -1    0    0    0    0 -0.00000000000E+00 -0.00000000000E+00 -0.10000000000E+04  0.10000000000E+04  0.00000000000E+00 0.  1.
    9000005    2    1    2  501    0 -0.27029003281E+01 -0.25876099477E+02 -0.95660606013E+03  0.99988679016E+03  0.28983022731E+03 0.  0.
         13    1    3    3    0    0  0.11938993282E+03 -0.18354788213E+02 -0.75093593713E+03  0.76058900595E+03  0.00000000000E+00 0.  1.
          1    1    3    3  501    0 -0.12209283315E+03 -0.75213112642E+01 -0.20567012300E+03  0.23929778421E+03  0.00000000000E+00 0.  1.
         21    1    1    2  502  501  0.27029003281E+01  0.25876099477E+02 -0.13974644277E+02  0.29532505430E+02  0.00000000000E+00 0.  1.
<mgrwt>
<rscale>  1 0.30000000E+03</rscale>
<asrwt>0</asrwt>
<pdfrwt beam="1">  1        1 0.10697948E+00 0.30000000E+03</pdfrwt>
<pdfrwt beam="2">0</pdfrwt>
<totfact> 0.30978573E+01</totfact>
</mgrwt>
</event>
<event>
 6    1  0.1939311E-004  0.3000000E+03  0.7818608E-02  0.1093470E+00
          1   -1    0    0  502    0  0.00000000000E+00  0.00000000000E+00  0.59244528156E+02  0.59244528156E+02  0.00000000000E+00 0.  1.
         13   -1    0    0    0    0 -0.00000000000E+00 -0.00000000000E+00 -0.10000000000E+04  0.10000000000E+04  0.00000000000E+00 0.  1.
    9000005    2    1    2  501    0 -0.77413941191E+02  0.46498312091E+02 -0.89512174711E+03  0.95806425265E+03  0.32937692502E+03 0.  0.
         13    1    3    3    0    0  0.12246325698E+03 -0.30663503598E+02 -0.36856859679E+03  0.38958992582E+03  0.00000000000E+00 0.  1.
          3    1    3    3  501    0 -0.19987719817E+03  0.77161815690E+02 -0.52655315032E+03  0.56847432683E+03  0.00000000000E+00 0.  1.
         21    1    1    2  502  501  0.77413941191E+02 -0.46498312091E+02 -0.45633724731E+02  0.10118027550E+03  0.00000000000E+00 0. -1.
<mgrwt>
<rscale>  1 0.30000000E+03</rscale>
<asrwt>0</asrwt>
<pdfrwt beam="1">  1        1 0.21543510E+00 0.30000000E+03</pdfrwt>
<pdfrwt beam="2">0</pdfrwt>
<totfact> 0.86600804E+00</totfact>
</mgrwt>
</event>
<event>
 6    1  0.1939311E-004  0.3000000E+03  0.7818608E-02  0.1093470E+00
          1   -1    0    0  502    0  0.00000000000E+00  0.00000000000E+00  0.31248034451E+02  0.31248034451E+02  0.00000000000E+00 0.  1.
         13   -1    0    0    0    0 -0.00000000000E+00 -0.00000000000E+00 -0.10000000000E+04  0.10000000000E+04  0.00000000000E+00 0.  1.
    9000005    2    1    2  501    0  0.75695552266E+01 -0.13252843998E+02 -0.94365507186E+03  0.10018747453E+04  0.33620704136E+03 0.  0.
         13    1    3    3    0    0  0.13513089945E+03  0.51200559353E+02 -0.73432494029E+03  0.74840829445E+03  0.00000000000E+00 0.  1.
          1    1    3    3  501    0 -0.12756134423E+03 -0.64453403351E+02 -0.20933013156E+03  0.25346645089E+03  0.00000000000E+00 0.  1.
         21    1    1    2  502  501 -0.75695552266E+01  0.13252843998E+02 -0.25096893691E+02  0.29373289113E+02  0.00000000000E+00 0. -1.
<mgrwt>
<rscale>  1 0.30000000E+03</rscale>
<asrwt>0</asrwt>
<pdfrwt beam="1">  1        1 0.11362946E+00 0.30000000E+03</pdfrwt>
<pdfrwt beam="2">0</pdfrwt>
<totfact> 0.28280459E+01</totfact>
</mgrwt>
</event>
<event>
 6    1  0.1939311E-004  0.3000000E+03  0.7818608E-02  0.1093470E+00
          1   -1    0    0  502    0  0.00000000000E+00  0.00000000000E+00  0.42281469330E+02  0.42281469330E+02  0.00000000000E+00 0.  1.
         13   -1    0    0    0    0 -0.00000000000E+00 -0.00000000000E+00 -0.10000000000E+04  0.10000000000E+04  0.00000000000E+00 0.  1.
    9000005    2    1    2  501    0  0.11737692328E+02 -0.68348346968E+01 -0.97267278072E+03  0.10220795392E+04  0.31363953466E+03 0.  0.
         13    1    3    3    0    0  0.98490759849E+02  0.11950603603E+03 -0.58666607412E+03  0.60676124213E+03  0.00000000000E+00 0.  1.
          1    1    3    3  501    0 -0.86753067521E+02 -0.12634087073E+03 -0.38600670660E+03  0.41531829707E+03  0.00000000000E+00 0.  1.
         21    1    1    2  502  501 -0.11737692328E+02  0.68348346968E+01  0.14954250051E+02  0.20201930133E+02  0.00000000000E+00 0.  1.
<mgrwt>
<rscale>  1 0.30000000E+03</rscale>
<asrwt>0</asrwt>
<pdfrwt beam="1">  1        1 0.15375112E+00 0.30000000E+03</pdfrwt>
<pdfrwt beam="2">0</pdfrwt>
<totfact> 0.17196789E+01</totfact>
</mgrwt>
</event>
<event>
 6    1  0.1939311E-004  0.3000000E+03  0.7818608E-02  0.1093470E+00
          1   -1    0    0  502    0  0.00000000000E+00  0.00000000000E+00  0.46496855310E+02  0.46496855310E+02  0.00000000000E+00 0.  1.
         13   -1    0    0    0    0 -0.00000000000E+00 -0.00000000000E+00 -0.10000000000E+04  0.10000000000E+04  0.00000000000E+00 0.  1.
    9000005    2    1    2  501    0  0.33648861851E+02  0.56792793547E+02 -0.90764947906E+03  0.96612132449E+03  0.32435346382E+03 0.  0.
         13    1    3    3    0    0  0.66048344820E+02 -0.87710967253E+02 -0.71370713441E+03  0.72210350459E+03  0.00000000000E+00 0.  1.
          3    1    3    3  501    0 -0.32399482969E+02  0.14450376080E+03 -0.19394234465E+03  0.24401781990E+03  0.00000000000E+00 0.  1.
         21    1    1    2  502  501 -0.33648861851E+02 -0.56792793547E+02 -0.45853665628E+02  0.80375530818E+02  0.00000000000E+00 0.  1.
<mgrwt>
<rscale>  1 0.30000000E+03</rscale>
<asrwt>0</asrwt>
<pdfrwt beam="1">  1        1 0.16907983E+00 0.30000000E+03</pdfrwt>
<pdfrwt beam="2">0</pdfrwt>
<totfact> 0.14436008E+01</totfact>
</mgrwt>
</event>
<event>
 6    1  0.1939311E-004  0.3000000E+03  0.7818608E-02  0.1093470E+00
          1   -1    0    0  502    0  0.00000000000E+00  0.00000000000E+00  0.57466677074E+02  0.57466677074E+02  0.00000000000E+00 0.  1.
         13   -1    0    0    0    0 -0.00000000000E+00 -0.00000000000E+00 -0.10000000000E+04  0.10000000000E+04  0.00000000000E+00 0.  1.
    9000005    2    1    2  501    0 -0.95239029430E+01 -0.40389919934E+01 -0.97518948289E+03  0.10232111233E+04  0.30961178437E+03 0.  0.
         13    1    3    3    0    0  0.13093669898E+03 -0.47459237268E+02 -0.28095412024E+03  0.31357936160E+03  0.00000000000E+00 0.  1.
          1    1    3    3  501    0 -0.14046060192E+03  0.43420245274E+02 -0.69423536265E+03  0.70963176165E+03  0.00000000000E+00 0.  1.
         21    1    1    2  502  501  0.95239029430E+01  0.40389919934E+01  0.32656159967E+02  0.34255553818E+02  0.00000000000E+00 0. -1.
<mgrwt>
<rscale>  1 0.30000000E+03</rscale>
<asrwt>0</asrwt>
<pdfrwt beam="1">  1        1 0.20897018E+00 0.30000000E+03</pdfrwt>
<pdfrwt beam="2">0</pdfrwt>
<totfact> 0.92885788E+00</totfact>
</mgrwt>
</event>
<event>
 6    1  0.1939311E-004  0.3000000E+03  0.7818608E-02  0.1093470E+00
          1   -1    0    0  502    0  0.00000000000E+00  0.00000000000E+00  0.50914733035E+02  0.50914733035E+02  0.00000000000E+00 0.  1.
         13   -1    0    0    0    0 -0.00000000000E+00 -0.00000000000E+00 -0.10000000000E+04  0.10000000000E+04  0.00000000000E+00 0.  1.
    9000005    2    1    2  501    0 -0.29732312718E+02  0.70256232213E+01 -0.95633119093E+03  0.10195161150E+04  0.35200907968E+03 0.  0.
         13    1    3    3    0    0 -0.93932724994E+02  0.11201697514E+03 -0.83138905804E+03  0.84414390086E+03  0.00000000000E+00 0.  1.
          3    1    3    3  501    0  0.64200412276E+02 -0.10499135192E+03 -0.12494213289E+03  0.17537221412E+03  0.00000000000E+00 0.  1.
         21    1    1    2  502  501  0.29732312718E+02 -0.70256232213E+01  0.72459239638E+01  0.31398618048E+02  0.00000000000E+00 0. -1.
<mgrwt>
<rscale>  1 0.30000000E+03</rscale>
<asrwt>0</asrwt>
<pdfrwt beam="1">  1        1 0.18514487E+00 0.30000000E+03</pdfrwt>
<pdfrwt beam="2">0</pdfrwt>
<totfact> 0.12065004E+01</totfact>
</mgrwt>
</event>
<event>
 6    1  0.1939311E-004  0.3000000E+03  0.7818608E-02  0.1093470E+00
          1   -1    0    0  502    0  0.00000000000E+00  0.00000000000E+00  0.36019103468E+02  0.36019103468E+02  0.00000000000E+00 0.  1.
         13   -1    0    0    0    0 -0.00000000000E+00 -0.00000000000E+00 -0.10000000000E+04  0.10000000000E+04  0.00000000000E+00 0.  1.
    9000005    2    1    2  501    0 -0.19621475835E+02  0.66327358972E+01 -0.95241772267E+03  0.10122977526E+04  0.34237147351E+03 0.  0.
         13    1    3    3    0    0 -0.17450359929E+03 -0.30646334122E+02 -0.59861599423E+03  0.62428504107E+03  0.00000000000E+00 0.  1.
          1    1    3    3  501    0  0.15488212345E+03  0.37279070019E+02 -0.35380172844E+03  0.38801271148E+03  0.00000000000E+00 0.  1.
         21    1    1    2  502  501  0.19621475835E+02 -0.66327358972E+01 -0.11563173865E+02  0.23721350916E+02  0.00000000000E+00 0.  1.
<mgrwt>
<rscale>  1 0.30000000E+03</rscale>
<asrwt>0</asrwt>
<pdfrwt beam="1">  1        1 0.13097883E+00 0.30000000E+03</pdfrwt>
<pdfrwt beam="2">0</pdfrwt>
<totfact> 0.22601230E+01</totfact>
</mgrwt>
</event>
<event>
 6    1  0.1939311E-004  0.3000000E+03  0.7818608E-02  0.1093470E+00
          1   -1    0    0  502    0  0.00000000000E+00  0.00000000000E+00  0.45079263498E+02  0.45079263498E+02  0.00000000000E+00 0.  1.
         13   -1    0    0    0    0 -0.00000000000E+00 -0.00000000000E+00 -0.10000000000E+04  0.10000000000E+04  0.00000000000E+00 0.  1.
    9000005    2    1    2  501    0  0.44866690150E+02 -0.54975480425E+02 -0.90586012298E+03  0.95881068792E+03  0.30610463821E+03 0.  0.
         13    1    3    3    0    0  0.91550042369E+02 -0.16817688975E+03 -0.57248405933E+03  0.60365791198E+03  0.00000000000E+00 0.  1.
          3    1    3    3  501    0 -0.46683352219E+02  0.11320140932E+03 -0.33337606365E+03  0.35515277594E+03  0.00000000000E+00 0.  1.
         21    1    1    2  502  501 -0.44866690150E+02  0.54975480425E+02 -0.49060613520E+02  0.86268575576E+02  0.00000000000E+00 0.  1.
<mgrwt>
<rscale>  1 0.30000000E+03</rscale>
<asrwt>0</asrwt>
<pdfrwt beam="1">  1        1 0.16392494E+00 0.30000000E+03</pdfrwt>
<pdfrwt beam="2">0</pdfrwt>
<totfact> 0.15302887E+01</totfact>
</mgrwt>
</event>
<event>
 6    1  0.1939311E-004  0.3000000E+03  0.7818608E-02  0.1093470E+00
          1   -1    0    0  502    0  0.00000000000E+00  0.00000000000E+00  0.38718080081E+02  0.38718080081E+02  0.00000000000E+00 0.  1.
         13   -1    0    0    0    0 -0.00000000000E+00 -0.00000000000E+00 -0.10000000000E+04  0.10000000000E+04  0.00000000000E+00 0.  1.
    9000005    2    1    2  501    0 -0.55701493481E+02 -0.22222213041E+02 -0.85703340898E+03  0.91845073139E+03  0.32472911596E+03 0.  0.
         13    1    3    3    0    0 -0.66499660849E+02  0.10514873308E+03 -0.72149417493E+03  0.73214227130E+03  0.00000000000E+00 0.  1.
          3    1    3    3  501    0  0.10798167368E+02 -0.12737094612E+03 -0.13553923405E+03  0.18630846009E+03  0.00000000000E+00 0.  1.
         21    1    1    2  502  501  0.55701493481E+02  0.22222213041E+02 -0.10424851094E+03  0.12026734869E+03  0.00000000000E+00 0. -1.
<mgrwt>
<rscale>  1 0.30000000E+03</rscale>
<asrwt>0</asrwt>
<pdfrwt beam="1">  1        1 0.14079332E+00 0.30000000E+03</pdfrwt>
<pdfrwt beam="2">0</pdfrwt>
<totfact> 0.20039614E+01</totfact>
</mgrwt>
</event>
<event>
 6    1  0.1939311E-004  0.3000000E+03  0.7818608E-02  0.1093470E+00
          1   -1    0    0  502    0  0.00000000000E+00  0.00000000000E+00  0.26897477600E+02  0.26897477600E+02  0.00000000000E+00 0.  1.
         13   -1    0    0    0    0 -0.00000000000E+00 -0.00000000000E+00 -0.10000000000E+04  0.10000000000E+04  0.00000000000E+00 0.  1.
    9000005    2    1    2  501    0  0.70203754696E+01  0.54429748086E+01 -0.95989142451E+03  0.10109775293E+04  0.31718308002E+03 0.  0.
         13    1    3    3    0    0 -0.12433112823E+03 -0.84883724925E+02 -0.57498171925E+03  0.59436306554E+03  0.00000000000E+00 0.  1.
          1    1    3    3  501    0  0.13135150370E+03  0.90326699734E+02 -0.38490970526E+03  0.41661446376E+03  0.00000000000E+00 0.  1.
         21    1    1    2  502  501 -0.70203754696E+01 -0.54429748086E+01 -0.13211097885E+02  0.15919948299E+02  0.00000000000E+00 0.  1.
<mgrwt>
<rscale>  1 0.30000000E+03</rscale>
<asrwt>0</asrwt>
<pdfrwt beam="1">  1        1 0.97809216E-01 0.30000000E+03</pdfrwt>
<pdfrwt beam="2">0</pdfrwt>
<totfact> 0.35349744E+01</totfact>
</mgrwt>
</event>
<event>
 6    1  0.1939311E-004  0.3000000E+03  0.7818608E-02  0.1093470E+00
          1   -1    0    0  502    0  0.00000000000E+00  0.00000000000E+00  0.34644490852E+02  0.34644490852E+02  0.00000000000E+00 0.  1.
         13   -1    0    0    0    0 -0.00000000000E+00 -0.00000000000E+00 -0.10000000000E+04  0.10000000000E+04  0.00000000000E+00 0.  1.
    9000005    2    1    2  501    0  0.97607391265E+01 -0.32907824570E+02 -0.93077732042E+03  0.98592233899E+03  0.32329281058E+03 0.  0.
         13    1    3    3    0    0  0.15663155064E+03  0.39177577033E+02 -0.45404323687E+03  0.48189582499E+03  0.00000000000E+00 0.  1.
          1    1    3    3  501    0 -0.14687081151E+03 -0.72085401603E+02 -0.47673408354E+03  0.50402651400E+03  0.00000000000E+00 0.  1.
         21    1    1    2  502  501 -0.97607391265E+01  0.32907824570E+02 -0.34578188733E+02  0.48722151864E+02  0.00000000000E+00 0.  1.
<mgrwt>
<rscale>  1 0.30000000E+03</rscale>
<asrwt>0</asrwt>
<pdfrwt beam="1">  1        1 0.12598023E+00 0.30000000E+03</pdfrwt>
<pdfrwt beam="2">0</pdfrwt>
<totfact> 0.24071386E+01</totfact>
</mgrwt>
</event>
<event>
 6    1  0.1939311E-004  0.3000000E+03  0.7818608E-02  0.1093470E+00
          1   -1    0    0  502    0  0.00000000000E+00  0.00000000000E+00  0.25891453815E+02  0.25891453815E+02  0.00000000000E+00 0.  1.
         13   -1    0    0    0    0 -0.00000000000E+00 -0.00000000000E+00 -0.10000000000E+04  0.10000000000E+04  0.00000000000E+00 0.  1.
    9000005    2    1    2  501    0 -0.59901025775E+01  0.18473132084E+02 -0.88969895600E+03  0.93927669264E+03  0.30049847769E+03 0.  0.
         13    1    3    3    0    0  0.46349230154E+01  0.15086771628E+03 -0.31317478126E+03  0.34765067804E+03  0.00000000000E+00 0.  1.
          3    1    3    3  501    0 -0.10625025593E+02 -0.13239458419E+03 -0.57652417473E+03  0.59162601459E+03  0.00000000000E+00 0.  1.
         21    1    1    2  502  501  0.59901025775E+01 -0.18473132084E+02 -0.84409590190E+02  0.86614761178E+02  0.00000000000E+00 0.  1.
<mgrwt>
<rscale>  1 0.30000000E+03</rscale>
<asrwt>0</asrwt>
<pdfrwt beam="1">  1        1 0.94150940E-01 0.30000000E+03</pdfrwt>
<pdfrwt beam="2">0</pdfrwt>
<totfact> 0.37350113E+01</totfact>
</mgrwt>
</event>
<event>
 6    1  0.1939311E-004  0.3000000E+03  0.7818608E-02  0.1093470E+00
          1   -1    0    0  502    0  0.00000000000E+00  0.00000000000E+00  0.36994953686E+02  0.36994953686E+02  0.00000000000E+00 0.  1.
         13   -1    0    0    0    0 -0.00000000000E+00 -0.00000000000E+00 -0.10000000000E+04  0.10000000000E+04  0.00000000000E+00 0.  1.
    9000005    2    1    2  501    0  0.11249787573E+02  0.10475485042E+02 -0.96633536973E+03  0.10212664903E+04  0.33006802913E+03 0.  0.
         13    1    3    3    0    0  0.14533587849E+02 -0.14728145620E+03 -0.27651781954E+03  0.31363220025E+03  0.00000000000E+00 0.  1.
          1    1    3    3  501    0 -0.32838002759E+01  0.15775694124E+03 -0.68981755020E+03  0.70763429002E+03  0.00000000000E+00 0.  1.
         21    1    1    2  502  501 -0.11249787573E+02 -0.10475485042E+02  0.33303234177E+01  0.15728463414E+02  0.00000000000E+00 0.  1.
<mgrwt>
<rscale>  1 0.30000000E+03</rscale>
<asrwt>0</asrwt>
<pdfrwt beam="1">  1        1 0.13452739E+00 0.30000000E+03</pdfrwt>
<pdfrwt beam="2">0</pdfrwt>
<totfact> 0.21627928E+01</totfact>
</mgrwt>
</event>
<event>
 6    1  0.1939311E-004  0.3000000E+03  0.7818608E-02  0.1093470E+00
          1   -1    0    0  502    0  0.00000000000E+00  0.00000000000E+00  0.27726318354E+02  0.27726318354E+02  0.00000000000E+00 0.  1.
         13   -1    0    0    0    0 -0.00000000000E+00 -0.00000000000E+00 -0.10000000000E+04  0.10000000000E+04  0.00000000000E+00 0.  1.
    9000005    2    1    2  501    0  0.10466218849E+02 -0.34017926616E+01 -0.95582541054E+03  0.10079359279E+04  0.31970534164E+03 0.  0.
         13    1    3    3    0    0 -0.35074771005E+02  0.10835791490E+03 -0.12789649905E+03  0.17125767648E+03  0.00000000000E+00 0.  1.
          3    1    3    3  501    0  0.45540989855E+02 -0.11175970756E+03 -0.82792891149E+03  0.83667825146E+03  0.00000000000E+00 0.  1.
         21    1    1    2  502  501 -0.10466218849E+02  0.34017926616E+01 -0.16448271110E+02  0.19790390416E+02  0.00000000000E+00 0.  1.
<mgrwt>
<rscale>  1 0.30000000E+03</rscale>
<asrwt>0</asrwt>
<pdfrwt beam="1">  1        1 0.10082319E+00 0.30000000E+03</pdfrwt>
<pdfrwt beam="2">0</pdfrwt>
<totfact> 0.33818617E+01</totfact>
</mgrwt>
</event>
<event>
 6    1  0.1939311E-004  0.3000000E+03  0.7818608E-02  0.1093470E+00
          1   -1    0    0  502    0  0.00000000000E+00  0.00000000000E+00  0.36343496227E+02  0.36343496227E+02  0.00000000000E+00 0.  1.
         13   -1    0    0    0    0 -0.00000000000E+00 -0.00000000000E+00 -0.10000000000E+04  0.10000000000E+04  0.00000000000E+00 0.  1.
    9000005    2    1    2  501    0  0.46548642859E+02 -0.38391386645E+02 -0.88064796879E+03  0.93372238923E+03  0.30439444887E+03 0.  0.
         13    1    3    3    0    0  0.85210322610E+02 -0.11386342814E+03 -0.18712782797E+03  0.23503723822E+03  0.00000000000E+00 0.  1.
          1    1    3    3  501    0 -0.38661679751E+02  0.75472041497E+02 -0.69352014082E+03  0.69868515102E+03  0.00000000000E+00 0.  1.
         21    1    1    2  502  501 -0.46548642859E+02  0.38391386645E+02 -0.83008534983E+02  0.10262110699E+03  0.00000000000E+00 0.  1.
<mgrwt>
<rscale>  1 0.30000000E+03</rscale>
<asrwt>0</asrwt>
<pdfrwt beam="1">  1        1 0.13215845E+00 0.30000000E+03</pdfrwt>
<pdfrwt beam="2">0</pdfrwt>
<totfact> 0.22271402E+01</totfact>
</mgrwt>
</event>
<event>
 6    1  0.1939311E-004  0.3000000E+03  0.7818608E-02  0.1093470E+00
          1   -1    0    0  502    0  0.00000000000E+00  0.00000000000E+00  0.65744217686E+02  0.65744217686E+02  0.00000000000E+00 0.  1.
         13   -1    0    0    0    0 -0.00000000000E+00 -0.00000000000E+00 -0.10000000000E+04  0.10000000000E+04  0.00000000000E+00 0.  1.
    9000005    2    1    2  501    0  0.35806381336E+02 -0.56433589108E+02 -0.94392386297E+03  0.99821408584E+03  0.31776131790E+03 0.  0.
         13    1    3    3    0    0 -0.81443750057E+02 -0.11572458773E+03 -0.75467050685E+03  0.76782344229E+03  0.00000000000E+00 0.  1.
          3    1    3    3  501    0  0.11725013139E+03  0.59290998619E+02 -0.18925335612E+03  0.23039064354E+03  0.00000000000E+00 0.  1.
         21    1    1    2  502  501 -0.35806381336E+02  0.56433589108E+02  0.96680806573E+01  0.67530131849E+02  0.00000000000E+00 0.  1.
<mgrwt>
<rscale>  1 0.30000000E+03</rscale>
<asrwt>0</asrwt>
<pdfrwt beam="1">  1        1 0.23907039E+00 0.30000000E+03</pdfrwt>
<pdfrwt beam="2">0</pdfrwt>
<totfact> 0.67108585E+00</totfact>
</mgrwt>
</event>
<event>
 6    1  0.1939311E-004  0.3000000E+03  0.7818608E-02  0.1093470E+00
          1   -1    0    0  502    0  0.00000000000E+00  0.00000000000E+00  0.52535016741E+02  0.52535016741E+02  0.00000000000E+00 0.  1.
         13   -1    0    0    0    0 -0.00000000000E+00 -0.00000000000E+00 -0.10000000000E+04  0.10000000000E+04  0.00000000000E+00 0.  1.
    9000005    2    1    2  501    0 -0.17017211005E+02  0.26139018913E+01 -0.95754612368E+03  0.10325838928E+04  0.38605504630E+03 0.  0.
         13    1    3    3    0    0 -0.80432345339E+02 -0.17655689009E+03 -0.54063126052E+03  0.57438998726E+03  0.00000000000E+00 0.  1.
          3    1    3    3  501    0  0.63415134334E+02  0.17917079198E+03 -0.41691486317E+03  0.45819390556E+03  0.00000000000E+00 0.  1.
         21    1    1    2  502  501  0.17017211005E+02 -0.26139018913E+01  0.10081140425E+02  0.19951123922E+02  0.00000000000E+00 0.  1.
<mgrwt>
<rscale>  1 0.30000000E+03</rscale>
<asrwt>0</asrwt>
<pdfrwt beam="1">  1        1 0.19103683E+00 0.30000000E+03</pdfrwt>
<pdfrwt beam="2">0</pdfrwt>
<totfact> 0.11303784E+01</totfact>
</mgrwt>
</event>
<event>
 6    1  0.1939311E-004  0.3000000E+03  0.7818608E-02  0.1093470E+00
          1   -1    0    0  502    0  0.00000000000E+00  0.00000000000E+00  0.13411327530E+03  0.13411327530E+03  0.00000000000E+00 0.  1.
         13   -1    0    0    0    0 -0.00000000000E+00 -0.00000000000E+00 -0.10000000000E+04  0.10000000000E+04  0.00000000000E+00 0.  1.
    9000005    2    1    2  501    0 -0.89763859857E+01  0.32168185302E+02 -0.97173806227E+03  0.10231183506E+04  0.31840372161E+03 0.  0.
         13    1    3    3    0    0 -0.40507599103E+02 -0.82091263613E+02 -0.74336171145E+02  0.11792246388E+03  0.00000000000E+00 0.  1.
          3    1    3    3  501    0  0.31531213117E+02  0.11425944892E+03 -0.89740189113E+03  0.90519588668E+03  0.00000000000E+00 0.  1.
         21    1    1    2  502  501  0.89763859857E+01 -0.32168185302E+02  0.10585133758E+03  0.11099492474E+03  0.00000000000E+00 0.  1.
<mgrwt>
<rscale>  1 0.30000000E+03</rscale>
<asrwt>0</asrwt>
<pdfrwt beam="1">  1        1 0.48768567E+00 0.30000000E+03</pdfrwt>
<pdfrwt beam="2">0</pdfrwt>
<totfact> 0.28104504E-01</totfact>
</mgrwt>
</event>
<event>
 6    1  0.1939311E-004  0.3000000E+03  0.7818608E-02  0.1093470E+00
          1   -1    0    0  502    0  0.00000000000E+00  0.00000000000E+00  0.49573056877E+02  0.49573056877E+02  0.00000000000E+00 0.  1.
         13   -1    0    0    0    0 -0.00000000000E+00 -0.00000000000E+00 -0.10000000000E+04  0.10000000000E+04  0.00000000000E+00 0.  1.
    9000005    2    1    2  501    0 -0.74687513849E+02 -0.46429209564E+02 -0.86380377370E+03  0.92613291063E+03  0.32222866486E+03 0.  0.
         13    1    3    3    0    0 -0.90571383832E+02 -0.16526680424E+03 -0.68795402373E+03  0.71330009878E+03  0.00000000000E+00 0.  1.
          3    1    3    3  501    0  0.15883869983E+02  0.11883759467E+03 -0.17584974998E+03  0.21283281185E+03  0.00000000000E+00 0.  1.
         21    1    1    2  502  501  0.74687513849E+02  0.46429209564E+02 -0.86623169420E+02  0.12344014625E+03  0.00000000000E+00 0.  1.
<mgrwt>
<rscale>  1 0.30000000E+03</rscale>
<asrwt>0</asrwt>
<pdfrwt beam="1">  1        1 0.18026604E+00 0.30000000E+03</pdfrwt>
<pdfrwt beam="2">0</pdfrwt>
<totfact> 0.12736661E+01</totfact>
</mgrwt>
</event>
<event>
 6    1  0.1939311E-004  0.3000000E+03  0.7818608E-02  0.1093470E+00
          1   -1    0    0  502    0  0.00000000000E+00  0.00000000000E+00  0.42150340873E+02  0.42150340873E+02  0.00000000000E+00 0.  1.
         13   -1    0    0    0    0 -0.00000000000E+00 -0.00000000000E+00 -0.10000000000E+04  0.10000000000E+04  0.00000000000E+00 0.  1.
    9000005    2    1    2  501    0 -0.18758966713E+02 -0.49316605283E+02 -0.89736766791E+03  0.96188766181E+03  0.34230851018E+03 0.  0.
         13    1    3    3    0    0  0.37018236150E+02  0.11270896471E+03 -0.13158642391E+03  0.17716841561E+03  0.00000000000E+00 0.  1.
          3    1    3    3  501    0 -0.55777202863E+02 -0.16202556999E+03 -0.76578124400E+03  0.78471924620E+03  0.00000000000E+00 0.  1.
         21    1    1    2  502  501  0.18758966713E+02  0.49316605283E+02 -0.60481991220E+02  0.80262679065E+02  0.00000000000E+00 0. -1.
<mgrwt>
<rscale>  1 0.30000000E+03</rscale>
<asrwt>0</asrwt>
<pdfrwt beam="1">  1        1 0.15327429E+00 0.30000000E+03</pdfrwt>
<pdfrwt beam="2">0</pdfrwt>
<totfact> 0.17292181E+01</totfact>
</mgrwt>
</event>
<event>
 6    1  0.1939311E-004  0.3000000E+03  0.7818608E-02  0.1093470E+00
          1   -1    0    0  502    0  0.00000000000E+00  0.00000000000E+00  0.45358463413E+02  0.45358463413E+02  0.00000000000E+00 0.  1.
         13   -1    0    0    0    0 -0.00000000000E+00 -0.00000000000E+00 -0.10000000000E+04  0.10000000000E+04  0.00000000000E+00 0.  1.
    9000005    2    1    2  501    0 -0.23027825991E+02  0.29797514698E+01 -0.96722629835E+03  0.10189475581E+04  0.31966897617E+03 0.  0.
         13    1    3    3    0    0 -0.16465826928E+03 -0.45244944150E+02 -0.53021981313E+03  0.55703904787E+03  0.00000000000E+00 0.  1.
          1    1    3    3  501    0  0.14163044329E+03  0.48224695620E+02 -0.43700648522E+03  0.46190851027E+03  0.00000000000E+00 0.  1.
         21    1    1    2  502  501  0.23027825991E+02 -0.29797514698E+01  0.12584761766E+02  0.26410905274E+02  0.00000000000E+00 0.  1.
<mgrwt>
<rscale>  1 0.30000000E+03</rscale>
<asrwt>0</asrwt>
<pdfrwt beam="1">  1        1 0.16494021E+00 0.30000000E+03</pdfrwt>
<pdfrwt beam="2">0</pdfrwt>
<totfact> 0.15127561E+01</totfact>
</mgrwt>
</event>
<event>
 6    1  0.1939311E-004  0.3000000E+03  0.7818608E-02  0.1093470E+00
          1   -1    0    0  502    0  0.00000000000E+00  0.00000000000E+00  0.31648320965E+02  0.31648320965E+02  0.00000000000E+00 0.  1.
         13   -1    0    0    0    0 -0.00000000000E+00 -0.00000000000E+00 -0.10000000000E+04  0.10000000000E+04  0.00000000000E+00 0.  1.
    9000005    2    1    2  501    0  0.31176976485E+02  0.11649030158E+02 -0.90173693367E+03  0.95718203284E+03  0.31931213990E+03 0.  0.
         13    1    3    3    0    0 -0.13722666434E+03  0.18892145764E+02 -0.54950746943E+03  0.56669791736E+03  0.00000000000E+00 0.  1.
          3    1    3    3  501    0  0.16840364083E+03 -0.72431156060E+01 -0.35222946424E+03  0.39048411549E+03  0.00000000000E+00 0.  1.
         21    1    1    2  502  501 -0.31176976485E+02 -0.11649030158E+02 -0.66614745364E+02  0.74466288120E+02  0.00000000000E+00 0.  1.
<mgrwt>
<rscale>  1 0.30000000E+03</rscale>
<asrwt>0</asrwt>
<pdfrwt beam="1">  1        1 0.11508505E+00 0.30000000E+03</pdfrwt>
<pdfrwt beam="2">0</pdfrwt>
<totfact> 0.27734649E+01</totfact>
</mgrwt>
</event>
<event>
 6    1  0.1939311E-004  0.3000000E+03  0.7818608E-02  0.1093470E+00
          1   -1    0    0  502    0  0.00000000000E+00  0.00000000000E+00  0.24751902342E+02  0.24751902342E+02  0.00000000000E+00 0.  1.
         13   -1    0    0    0    0 -0.00000000000E+00 -0.00000000000E+00 -0.10000000000E+04  0.10000000000E+04  0.00000000000E+00 0.  1.
    9000005    2    1    2  501    0  0.94661412208E+01  0.22599486594E+02 -0.96346670394E+03  0.99756466523E+03  0.25742343927E+03 0.  0.
         13    1    3    3    0    0 -0.19734375074E+01 -0.87863482178E+02 -0.76589293126E+03  0.77091884664E+03  0.00000000000E+00 0.  1.
          1    1    3    3  501    0  0.11439578728E+02  0.11046296877E+03 -0.19757377268E+03  0.22664581859E+03  0.00000000000E+00 0.  1.
         21    1    1    2  502  501 -0.94661412208E+01 -0.22599486594E+02 -0.11781393716E+02  0.27187237112E+02  0.00000000000E+00 0.  1.
<mgrwt>
<rscale>  1 0.30000000E+03</rscale>
<asrwt>0</asrwt>
<pdfrwt beam="1">  1        1 0.90007107E-01 0.30000000E+03</pdfrwt>
<pdfrwt beam="2">0</pdfrwt>
<totfact> 0.39827404E+01</totfact>
</mgrwt>
</event>
<event>
 6    1  0.1939311E-004  0.3000000E+03  0.7818608E-02  0.1093470E+00
          1   -1    0    0  502    0  0.00000000000E+00  0.00000000000E+00  0.29208228525E+02  0.29208228525E+02  0.00000000000E+00 0.  1.
         13   -1    0    0    0    0 -0.00000000000E+00 -0.00000000000E+00 -0.10000000000E+04  0.10000000000E+04  0.00000000000E+00 0.  1.
    9000005    2    1    2  501    0  0.15380644736E+02 -0.25638296575E+01 -0.94394281351E+03  0.99815981474E+03  0.32411702072E+03 0.  0.
         13    1    3    3    0    0 -0.13309261674E+02 -0.15678969995E+03 -0.34810301649E+03  0.38201551872E+03  0.00000000000E+00 0.  1.
          1    1    3    3  501    0  0.28689906410E+02  0.15422587029E+03 -0.59583979702E+03  0.61614429602E+03  0.00000000000E+00 0.  1.
         21    1    1    2  502  501 -0.15380644736E+02  0.25638296575E+01 -0.26848957962E+02  0.31048413786E+02  0.00000000000E+00 0. -1.
<mgrwt>
<rscale>  1 0.30000000E+03</rscale>
<asrwt>0</asrwt>
<pdfrwt beam="1">  1        1 0.10621196E+00 0.30000000E+03</pdfrwt>
<pdfrwt beam="2">0</pdfrwt>
<totfact> 0.31313362E+01</totfact>
</mgrwt>
</event>
<event>
 6    1  0.1939311E-004  0.3000000E+03  0.7818608E-02  0.1093470E+00
          1   -1    0    0  502    0  0.00000000000E+00  0.00000000000E+00  0.75512942489E+02  0.75512942489E+02  0.00000000000E+00 0.  1.
         13   -1    0    0    0    0 -0.00000000000E+00 -0.00000000000E+00 -0.10000000000E+04  0.10000000000E+04  0.00000000000E+00 0.  1.
    9000005    2    1    2  501    0 -0.17346858141E+02  0.29678937013E+02 -0.94877720678E+03  0.10334206137E+04  0.40816445700E+03 0.  0.
         13    1    3    3    0    0 -0.27027559546E+02 -0.98380064409E+02 -0.30898621461E+02  0.10660136423E+03  0.00000000000E+00 0.  1.
          3    1    3    3  501    0  0.96807014050E+01  0.12805900142E+03 -0.91787858532E+03  0.92681924949E+03  0.00000000000E+00 0.  1.
         21    1    1    2  502  501  0.17346858141E+02 -0.29678937013E+02  0.24290149272E+02  0.42092328770E+02  0.00000000000E+00 0. -1.
<mgrwt>
<rscale>  1 0.30000000E+03</rscale>
<asrwt>0</asrwt>
<pdfrwt beam="1">  1        1 0.27459310E+00 0.30000000E+03</pdfrwt>
<pdfrwt beam="2">0</pdfrwt>
<totfact> 0.45762751E+00</totfact>
</mgrwt>
</event>
<event>
 6    1  0.1939311E-004  0.3000000E+03  0.7818608E-02  0.1093470E+00
          1   -1    0    0  502    0  0.00000000000E+00  0.00000000000E+00  0.37838681593E+02  0.37838681593E+02  0.00000000000E+00 0.  1.
         13   -1    0    0    0    0 -0.00000000000E+00 -0.00000000000E+00 -0.10000000000E+04  0.10000000000E+04  0.00000000000E+00 0.  1.
    9000005    2    1    2  501    0  0.22523152904E+02  0.22553457153E+02 -0.94760650247E+03  0.10027987970E+04  0.32654462615E+03 0.  0.
         13    1    3    3    0    0  0.37765799768E+02  0.17238541359E+03 -0.47170942221E+03  0.50363951935E+03  0.00000000000E+00 0.  1.
          1    1    3    3  501    0 -0.15242646864E+02 -0.14983195643E+03 -0.47589708026E+03  0.49915927764E+03  0.00000000000E+00 0.  1.
         21    1    1    2  502  501 -0.22523152904E+02 -0.22553457153E+02 -0.14554815939E+02  0.35039884607E+02  0.00000000000E+00 0.  1.
<mgrwt>
<rscale>  1 0.30000000E+03</rscale>
<asrwt>0</asrwt>
<pdfrwt beam="1">  1        1 0.13759550E+00 0.30000000E+03</pdfrwt>
<pdfrwt beam="2">0</pdfrwt>
<totfact> 0.20830662E+01</totfact>
</mgrwt>
</event>
<event>
 6    1  0.1939311E-004  0.3000000E+03  0.7818608E-02  0.1093470E+00
          1   -1    0    0  502    0  0.00000000000E+00  0.00000000000E+00  0.37663510026E+02  0.37663510026E+02  0.00000000000E+00 0.  1.
         13   -1    0    0    0    0 -0.00000000000E+00 -0.00000000000E+00 -0.10000000000E+04  0.10000000000E+04  0.00000000000E+00 0.  1.
    9000005    2    1    2  501    0  0.29484725282E+02 -0.68096232122E+01 -0.95478337458E+03  0.10064742563E+04  0.31695964461E+03 0.  0.
         13    1    3    3    0    0  0.10727672316E+03  0.12222948068E+03 -0.40540659283E+03  0.43680985198E+03  0.00000000000E+00 0.  1.
          3    1    3    3  501    0 -0.77791997881E+02 -0.12903910389E+03 -0.54937678175E+03  0.56966440436E+03  0.00000000000E+00 0.  1.
         21    1    1    2  502  501 -0.29484725282E+02  0.68096232122E+01 -0.75531153934E+01  0.31189253684E+02  0.00000000000E+00 0. -1.
<mgrwt>
<rscale>  1 0.30000000E+03</rscale>
<asrwt>0</asrwt>
<pdfrwt beam="1">  1        1 0.13695851E+00 0.30000000E+03</pdfrwt>
<pdfrwt beam="2">0</pdfrwt>
<totfact> 0.20992978E+01</totfact>
</mgrwt>
</event>
<event>
 6    1  0.1939311E-004  0.3000000E+03  0.7818608E-02  0.1093470E+00
          1   -1    0    0  502    0  0.00000000000E+00  0.00000000000E+00  0.28211360542E+02  0.28211360542E+02  0.00000000000E+00 0.  1.
         13   -1    0    0    0    0 -0.00000000000E+00 -0.00000000000E+00 -0.10000000000E+04  0.10000000000E+04  0.00000000000E+00 0.  1.
    9000005    2    1    2  501    0  0.12884072060E+02  0.58025166122E+01 -0.95224439306E+03  0.10040940207E+04  0.31817565881E+03 0.  0.
         13    1    3    3    0    0  0.34518966952E+02  0.11502294009E+03 -0.14085106685E+03  0.18509689046E+03  0.00000000000E+00 0.  1.
          3    1    3    3  501    0 -0.21634894892E+02 -0.10922042348E+03 -0.81139332621E+03  0.81899713028E+03  0.00000000000E+00 0.  1.
         21    1    1    2  502  501 -0.12884072060E+02 -0.58025166122E+01 -0.19544246400E+02  0.24117339804E+02  0.00000000000E+00 0.  1.
<mgrwt>
<rscale>  1 0.30000000E+03</rscale>
<asrwt>0</asrwt>
<pdfrwt beam="1">  1        1 0.10258698E+00 0.30000000E+03</pdfrwt>
<pdfrwt beam="2">0</pdfrwt>
<totfact> 0.32967445E+01</totfact>
</mgrwt>
</event>
<event>
 6    1  0.1939311E-004  0.3000000E+03  0.7818608E-02  0.1093470E+00
          1   -1    0    0  502    0  0.00000000000E+00  0.00000000000E+00  0.33099463595E+02  0.33099463595E+02  0.00000000000E+00 0.  1.
         13   -1    0    0    0    0 -0.00000000000E+00 -0.00000000000E+00 -0.10000000000E+04  0.10000000000E+04  0.00000000000E+00 0.  1.
    9000005    2    1    2  501    0  0.14436698792E+02  0.40660833567E+02 -0.92852825427E+03  0.97535733257E+03  0.29545809445E+03 0.  0.
         13    1    3    3    0    0  0.82099375309E+02  0.12215519975E+03 -0.77489579740E+03  0.78874945140E+03  0.00000000000E+00 0.  1.
          3    1    3    3  501    0 -0.67662676518E+02 -0.81494366187E+02 -0.15363245687E+03  0.18660788118E+03  0.00000000000E+00 0.  1.
         21    1    1    2  502  501 -0.14436698792E+02 -0.40660833567E+02 -0.38372282137E+02  0.57742131020E+02  0.00000000000E+00 0. -1.
<mgrwt>
<rscale>  1 0.30000000E+03</rscale>
<asrwt>0</asrwt>
<pdfrwt beam="1">  1        1 0.12036194E+00 0.30000000E+03</pdfrwt>
<pdfrwt beam="2">0</pdfrwt>
<totfact> 0.25873909E+01</totfact>
</mgrwt>
</event>
<event>
 6    1  0.1939311E-004  0.3000000E+03  0.7818608E-02  0.1093470E+00
          1   -1    0    0  502    0  0.00000000000E+00  0.00000000000E+00  0.67449731378E+02  0.67449731378E+02  0.00000000000E+00 0.  1.
         13   -1    0    0    0    0 -0.00000000000E+00 -0.00000000000E+00 -0.10000000000E+04  0.10000000000E+04  0.00000000000E+00 0.  1.
    9000005    2    1    2  501    0  0.43616789106E+02 -0.14119804254E+03 -0.74475378769E+03  0.82847937808E+03  0.33148237375E+03 0.  0.
         13    1    3    3    0    0  0.11069012182E+03 -0.21880090100E+03 -0.62153136375E+03  0.66815220831E+03  0.00000000000E+00 0.  1.
          1    1    3    3  501    0 -0.67073332716E+02  0.77602858459E+02 -0.12322242394E+03  0.16032716976E+03  0.00000000000E+00 0.  1.
         21    1    1    2  502  501 -0.43616789106E+02  0.14119804254E+03 -0.18779648093E+03  0.23897035330E+03  0.00000000000E+00 0. -1.
<mgrwt>
<rscale>  1 0.30000000E+03</rscale>
<asrwt>0</asrwt>
<pdfrwt beam="1">  1        1 0.24527227E+00 0.30000000E+03</pdfrwt>
<pdfrwt beam="2">0</pdfrwt>
<totfact> 0.62767160E+00</totfact>
</mgrwt>
</event>
<event>
 6    1  0.1939311E-004  0.3000000E+03  0.7818608E-02  0.1093470E+00
          1   -1    0    0  502    0  0.00000000000E+00  0.00000000000E+00  0.32087054205E+02  0.32087054205E+02  0.00000000000E+00 0.  1.
         13   -1    0    0    0    0 -0.00000000000E+00 -0.00000000000E+00 -0.10000000000E+04  0.10000000000E+04  0.00000000000E+00 0.  1.
    9000005    2    1    2  501    0  0.14030347157E+02  0.69904968759E+01 -0.95573567807E+03  0.10122375319E+04  0.33308920260E+03 0.  0.
         13    1    3    3    0    0 -0.11701564407E+03  0.10783410369E+03 -0.58580488811E+03  0.60703230706E+03  0.00000000000E+00 0.  1.
          1    1    3    3  501    0  0.13104599123E+03 -0.10084360681E+03 -0.36993078996E+03  0.40520522481E+03  0.00000000000E+00 0.  1.
         21    1    1    2  502  501 -0.14030347157E+02 -0.69904968759E+01 -0.12177267724E+02  0.19849522341E+02  0.00000000000E+00 0. -1.
<mgrwt>
<rscale>  1 0.30000000E+03</rscale>
<asrwt>0</asrwt>
<pdfrwt beam="1">  1        1 0.11668044E+00 0.30000000E+03</pdfrwt>
<pdfrwt beam="2">0</pdfrwt>
<totfact> 0.27153219E+01</totfact>
</mgrwt>
</event>
<event>
 6    1  0.1939311E-004  0.3000000E+03  0.7818608E-02  0.1093470E+00
          1   -1    0    0  502    0  0.00000000000E+00  0.00000000000E+00  0.38301990692E+02  0.38301990692E+02  0.00000000000E+00 0.  1.
         13   -1    0    0    0    0 -0.00000000000E+00 -0.00000000000E+00 -0.10000000000E+04  0.10000000000E+04  0.00000000000E+00 0.  1.
    9000005    2    1    2  501    0 -0.10870599482E+02  0.51729346479E+00 -0.97046504664E+03  0.10243270678E+04  0.32760509399E+03 0.  0.
         13    1    3    3    0    0 -0.62778860827E+02  0.80171622545E+02 -0.90061008108E+03  0.90634827333E+03  0.00000000000E+00 0.  1.
          1    1    3    3  501    0  0.51908261345E+02 -0.79654329080E+02 -0.69854965559E+02  0.11797879449E+03  0.00000000000E+00 0.  1.
         21    1    1    2  502  501  0.10870599482E+02 -0.51729346479E+00  0.87670373294E+01  0.13974922868E+02  0.00000000000E+00 0.  1.
<mgrwt>
<rscale>  1 0.30000000E+03</rscale>
<asrwt>0</asrwt>
<pdfrwt beam="1">  1        1 0.13928026E+00 0.30000000E+03</pdfrwt>
<pdfrwt beam="2">0</pdfrwt>
<totfact> 0.20409031E+01</totfact>
</mgrwt>
</event>
<event>
 6    1  0.1939311E-004  0.3000000E+03  0.7818608E-02  0.1093470E+00
          1   -1    0    0  502    0  0.00000000000E+00  0.00000000000E+00  0.47062191843E+02  0.47062191843E+02  0.00000000000E+00 0.  1.
         13   -1    0    0    0    0 -0.00000000000E+00 -0.00000000000E+00 -0.10000000000E+04  0.10000000000E+04  0.00000000000E+00 0.  1.
    9000005    2    1    2  501    0  0.26612901516E+02 -0.76699922760E+01 -0.96425354088E+03  0.10171436171E+04  0.32253553504E+03 0.  0.
         13    1    3    3    0    0  0.12809189320E+03 -0.35390585149E+02 -0.85578486126E+03  0.86604142821E+03  0.00000000000E+00 0.  1.
          3    1    3    3  501    0 -0.10147899169E+03  0.27720592873E+02 -0.10846867962E+03  0.15110218887E+03  0.00000000000E+00 0.  1.
         21    1    1    2  502  501 -0.26612901516E+02  0.76699922760E+01  0.11315732722E+02  0.29918574760E+02  0.00000000000E+00 0.  1.
<mgrwt>
<rscale>  1 0.30000000E+03</rscale>
<asrwt>0</asrwt>
<pdfrwt beam="1">  1        1 0.17113560E+00 0.30000000E+03</pdfrwt>
<pdfrwt beam="2">0</pdfrwt>
<totfact> 0.14105909E+01</totfact>
</mgrwt>
</event>
<event>
 6    1  0.1939311E-004  0.3000000E+03  0.7818608E-02  0.1093470E+00
          1   -1    0    0  502    0  0.00000000000E+00  0.00000000000E+00  0.38965769865E+02  0.38965769865E+02  0.00000000000E+00 0.  1.
         13   -1    0    0    0    0 -0.00000000000E+00 -0.00000000000E+00 -0.10000000000E+04  0.10000000000E+04  0.00000000000E+00 0.  1.
    9000005    2    1    2  501    0  0.20001297261E+02  0.39933656653E+01 -0.92424003094E+03  0.99689663681E+03  0.37305129786E+03 0.  0.
         13    1    3    3    0    0 -0.76188671378E+02 -0.68496987926E+02 -0.84839690098E+03  0.85456061961E+03  0.00000000000E+00 0.  1.
          1    1    3    3  501    0  0.96189968639E+02  0.72490353591E+02 -0.75843129965E+02  0.14233601720E+03  0.00000000000E+00 0.  1.
         21    1    1    2  502  501 -0.20001297261E+02 -0.39933656653E+01 -0.36794199195E+02  0.42069133053E+02  0.00000000000E+00 0. -1.
<mgrwt>
<rscale>  1 0.30000000E+03</rscale>
<asrwt>0</asrwt>
<pdfrwt beam="1">  1        1 0.14169401E+00 0.30000000E+03</pdfrwt>
<pdfrwt beam="2">0</pdfrwt>
<totfact> 0.19823742E+01</totfact>
</mgrwt>
</event>
<event>
 6    1  0.1939311E-004  0.3000000E+03  0.7818608E-02  0.1093470E+00
          1   -1    0    0  502    0  0.00000000000E+00  0.00000000000E+00  0.42649010034E+02  0.42649010034E+02  0.00000000000E+00 0.  1.
         13   -1    0    0    0    0 -0.00000000000E+00 -0.00000000000E+00 -0.10000000000E+04  0.10000000000E+04  0.00000000000E+00 0.  1.
    9000005    2    1    2  501    0 -0.59739020245E+02 -0.37160406409E+02 -0.82231480719E+03  0.89038471020E+03  0.33411621286E+03 0.  0.
         13    1    3    3    0    0  0.22288671760E+02  0.10546553298E+03 -0.62148082654E+03  0.63076000293E+03  0.00000000000E+00 0.  1.
          1    1    3    3  501    0 -0.82027692005E+02 -0.14262593939E+03 -0.20083398065E+03  0.25962470727E+03  0.00000000000E+00 0.  1.
         21    1    1    2  502  501  0.59739020245E+02  0.37160406409E+02 -0.13503618278E+03  0.15226429983E+03  0.00000000000E+00 0. -1.
<mgrwt>
<rscale>  1 0.30000000E+03</rscale>
<asrwt>0</asrwt>
<pdfrwt beam="1">  1        1 0.15508764E+00 0.30000000E+03</pdfrwt>
<pdfrwt beam="2">0</pdfrwt>
<totfact> 0.16932783E+01</totfact>
</mgrwt>
</event>
<event>
 6    1  0.1939311E-004  0.3000000E+03  0.7818608E-02  0.1093470E+00
          3   -1    0    0  502    0  0.00000000000E+00  0.00000000000E+00  0.40520041561E+02  0.40520041561E+02  0.00000000000E+00 0.  1.
         13   -1    0    0    0    0 -0.00000000000E+00 -0.00000000000E+00 -0.10000000000E+04  0.10000000000E+04  0.00000000000E+00 0.  1.
    9000005    2    1    2  501    0  0.21806611373E+00  0.10266061532E+02 -0.97134248952E+03  0.10248305796E+04  0.32659768126E+03 0.  0.
         13    1    3    3    0    0  0.15693251160E+03  0.20605527141E+02 -0.35311770109E+03  0.38696836016E+03  0.00000000000E+00 0.  1.
          1    1    3    3  501    0 -0.15671444549E+03 -0.10339465609E+02 -0.61822478844E+03  0.63786221946E+03  0.00000000000E+00 0.  1.
         21    1    1    2  502  501 -0.21806611373E+00 -0.10266061532E+02  0.11862531085E+02  0.15689461939E+02  0.00000000000E+00 0. -1.
<mgrwt>
<rscale>  1 0.30000000E+03</rscale>
<asrwt>0</asrwt>
<pdfrwt beam="1">  1        3 0.14734592E+00 0.30000000E+03</pdfrwt>
<pdfrwt beam="2">0</pdfrwt>
<totfact> 0.10754110E+00</totfact>
</mgrwt>
</event>
<event>
 6    1  0.1939311E-004  0.3000000E+03  0.7818608E-02  0.1093470E+00
          1   -1    0    0  502    0  0.00000000000E+00  0.00000000000E+00  0.65025673984E+02  0.65025673984E+02  0.00000000000E+00 0.  1.
         13   -1    0    0    0    0 -0.00000000000E+00 -0.00000000000E+00 -0.10000000000E+04  0.10000000000E+04  0.00000000000E+00 0.  1.
    9000005    2    1    2  501    0 -0.35034287992E+01  0.11128006548E+02 -0.97169887451E+03  0.10264925842E+04  0.33068446629E+03 0.  0.
         13    1    3    3    0    0  0.91721960574E+01  0.17050856179E+03 -0.52178822592E+03  0.54901753299E+03  0.00000000000E+00 0.  1.
          3    1    3    3  501    0 -0.12675624857E+02 -0.15938055524E+03 -0.44991064859E+03  0.47747505125E+03  0.00000000000E+00 0.  1.
         21    1    1    2  502  501  0.35034287992E+01 -0.11128006548E+02  0.36724548491E+02  0.38533089741E+02  0.00000000000E+00 0. -1.
<mgrwt>
<rscale>  1 0.30000000E+03</rscale>
<asrwt>0</asrwt>
<pdfrwt beam="1">  1        1 0.23645749E+00 0.30000000E+03</pdfrwt>
<pdfrwt beam="2">0</pdfrwt>
<totfact> 0.69028392E+00</totfact>
</mgrwt>
</event>
<event>
 6    1  0.1939311E-004  0.3000000E+03  0.7818608E-02  0.1093470E+00
          1   -1    0    0  502    0  0.00000000000E+00  0.00000000000E+00  0.33563864826E+02  0.33563864826E+02  0.00000000000E+00 0.  1.
         13   -1    0    0    0    0 -0.00000000000E+00 -0.00000000000E+00 -0.10000000000E+04  0.10000000000E+04  0.00000000000E+00 0.  1.
    9000005    2    1    2  501    0  0.30270654882E+02 -0.30001192243E+02 -0.88891671769E+03  0.94510119377E+03  0.31816183209E+03 0.  0.
         13    1    3    3    0    0  0.16280793149E+03 -0.59519036782E+02 -0.62099813324E+03  0.64473841190E+03  0.00000000000E+00 0.  1.
          3    1    3    3  501    0 -0.13253727661E+03  0.29517844538E+02 -0.26791858445E+03  0.30036278187E+03  0.00000000000E+00 0.  1.
         21    1    1    2  502  501 -0.30270654882E+02  0.30001192243E+02 -0.77519417487E+02  0.88462671057E+02  0.00000000000E+00 0.  1.
<mgrwt>
<rscale>  1 0.30000000E+03</rscale>
<asrwt>0</asrwt>
<pdfrwt beam="1">  1        1 0.12205067E+00 0.30000000E+03</pdfrwt>
<pdfrwt beam="2">0</pdfrwt>
<totfact> 0.25314132E+01</totfact>
</mgrwt>
</event>
<event>
 6    1  0.1939311E-004  0.3000000E+03  0.7818608E-02  0.1093470E+00
          1   -1    0    0  502    0  0.00000000000E+00  0.00000000000E+00  0.78395272177E+02  0.78395272177E+02  0.00000000000E+00 0.  1.
         13   -1    0    0    0    0 -0.00000000000E+00 -0.00000000000E+00 -0.10000000000E+04  0.10000000000E+04  0.00000000000E+00 0.  1.
    9000005    2    1    2  501    0 -0.12661980879E+02  0.74254046481E+02 -0.69524955826E+03  0.83983573670E+03  0.46505712251E+03 0.  0.
         13    1    3    3    0    0  0.80917203191E+02 -0.20363677848E+02 -0.70166021325E+03  0.70660408151E+03  0.00000000000E+00 0.  1.
          1    1    3    3  501    0 -0.93579184070E+02  0.94617724329E+02  0.64106549878E+01  0.13323165519E+03  0.00000000000E+00 0.  1.
         21    1    1    2  502  501  0.12661980879E+02 -0.74254046481E+02 -0.22635516956E+03  0.23855953548E+03  0.00000000000E+00 0.  1.
<mgrwt>
<rscale>  1 0.30000000E+03</rscale>
<asrwt>0</asrwt>
<pdfrwt beam="1">  1        1 0.28507432E+00 0.30000000E+03</pdfrwt>
<pdfrwt beam="2">0</pdfrwt>
<totfact> 0.40876675E+00</totfact>
</mgrwt>
</event>
<event>
 6    1  0.1939311E-004  0.3000000E+03  0.7818608E-02  0.1093470E+00
          1   -1    0    0  502    0  0.00000000000E+00  0.00000000000E+00  0.27740648602E+02  0.27740648602E+02  0.00000000000E+00 0.  1.
         13   -1    0    0    0    0 -0.00000000000E+00 -0.00000000000E+00 -0.10000000000E+04  0.10000000000E+04  0.00000000000E+00 0.  1.
    9000005    2    1    2  501    0  0.13515839451E+02  0.10183525436E+02 -0.96087785613E+03  0.10073465185E+04  0.30195094288E+03 0.  0.
         13    1    3    3    0    0  0.90718767786E+01 -0.85510008656E+02 -0.68762243438E+02  0.11010225543E+03  0.00000000000E+00 0.  1.
          3    1    3    3  501    0  0.44439626726E+01  0.95693534093E+02 -0.89211561269E+03  0.89724426311E+03  0.00000000000E+00 0.  1.
         21    1    1    2  502  501 -0.13515839451E+02 -0.10183525436E+02 -0.11381495268E+02  0.20394130060E+02  0.00000000000E+00 0.  1.
<mgrwt>
<rscale>  1 0.30000000E+03</rscale>
<asrwt>0</asrwt>
<pdfrwt beam="1">  1        1 0.10087530E+00 0.30000000E+03</pdfrwt>
<pdfrwt beam="2">0</pdfrwt>
<totfact> 0.33793010E+01</totfact>
</mgrwt>
</event>
<event>
 6    1  0.1939311E-004  0.3000000E+03  0.7818608E-02  0.1093470E+00
          1   -1    0    0  502    0  0.00000000000E+00  0.00000000000E+00  0.29004851855E+02  0.29004851855E+02  0.00000000000E+00 0.  1.
         13   -1    0    0    0    0 -0.00000000000E+00 -0.00000000000E+00 -0.10000000000E+04  0.10000000000E+04  0.00000000000E+00 0.  1.
    9000005    2    1    2  501    0 -0.13577571731E+02 -0.76607553101E+01 -0.93800007475E+03  0.99251221569E+03  0.32402672797E+03 0.  0.
         13    1    3    3    0    0  0.11359310429E+03 -0.45125958847E+02 -0.15026521093E+03  0.19369919752E+03  0.00000000000E+00 0.  1.
          3    1    3    3  501    0 -0.12717067602E+03  0.37465203537E+02 -0.78773486382E+03  0.79881301817E+03  0.00000000000E+00 0.  1.
         21    1    1    2  502  501  0.13577571731E+02  0.76607553101E+01 -0.32995073397E+02  0.36492636168E+02  0.00000000000E+00 0.  1.
<mgrwt>
<rscale>  1 0.30000000E+03</rscale>
<asrwt>0</asrwt>
<pdfrwt beam="1">  1        1 0.10547241E+00 0.30000000E+03</pdfrwt>
<pdfrwt beam="2">0</pdfrwt>
<totfact> 0.31640904E+01</totfact>
</mgrwt>
</event>
<event>
 6    1  0.1939311E-004  0.3000000E+03  0.7818608E-02  0.1093470E+00
          1   -1    0    0  502    0  0.00000000000E+00  0.00000000000E+00  0.27515748392E+02  0.27515748392E+02  0.00000000000E+00 0.  1.
         13   -1    0    0    0    0 -0.00000000000E+00 -0.00000000000E+00 -0.10000000000E+04  0.10000000000E+04  0.00000000000E+00 0.  1.
    9000005    2    1    2  501    0  0.12496272098E+02 -0.64940463677E+01 -0.96067242428E+03  0.10091350868E+04  0.30864832293E+03 0.  0.
         13    1    3    3    0    0 -0.60608142697E+01 -0.13739233052E+03 -0.24151171815E+03  0.27792318356E+03  0.00000000000E+00 0.  1.
          1    1    3    3  501    0  0.18557086368E+02  0.13089828415E+03 -0.71916070613E+03  0.73121190327E+03  0.00000000000E+00 0.  1.
         21    1    1    2  502  501 -0.12496272098E+02  0.64940463677E+01 -0.11811827327E+02  0.18380661560E+02  0.00000000000E+00 0.  1.
<mgrwt>
<rscale>  1 0.30000000E+03</rscale>
<asrwt>0</asrwt>
<pdfrwt beam="1">  1        1 0.10005748E+00 0.30000000E+03</pdfrwt>
<pdfrwt beam="2">0</pdfrwt>
<totfact> 0.34198203E+01</totfact>
</mgrwt>
</event>
<event>
 6    1  0.1939311E-004  0.3000000E+03  0.7818608E-02  0.1093470E+00
          1   -1    0    0  502    0  0.00000000000E+00  0.00000000000E+00  0.30532932635E+02  0.30532932635E+02  0.00000000000E+00 0.  1.
         13   -1    0    0    0    0 -0.00000000000E+00 -0.00000000000E+00 -0.10000000000E+04  0.10000000000E+04  0.00000000000E+00 0.  1.
    9000005    2    1    2  501    0 -0.17767717955E+01  0.22157852559E+02 -0.94331656514E+03  0.99621127599E+03  0.31952564373E+03 0.  0.
         13    1    3    3    0    0 -0.15169750968E+03  0.19914999605E+02 -0.31416506122E+03  0.34944016276E+03  0.00000000000E+00 0.  1.
          1    1    3    3  501    0  0.14992073789E+03  0.22428529537E+01 -0.62915150392E+03  0.64677111324E+03  0.00000000000E+00 0.  1.
         21    1    1    2  502  501  0.17767717955E+01 -0.22157852559E+02 -0.26150502225E+02  0.34321656642E+02  0.00000000000E+00 0. -1.
<mgrwt>
<rscale>  1 0.30000000E+03</rscale>
<asrwt>0</asrwt>
<pdfrwt beam="1">  1        1 0.11102908E+00 0.30000000E+03</pdfrwt>
<pdfrwt beam="2">0</pdfrwt>
<totfact> 0.29294207E+01</totfact>
</mgrwt>
</event>
<event>
 6    1  0.1939311E-004  0.3000000E+03  0.7818608E-02  0.1093470E+00
          1   -1    0    0  502    0  0.00000000000E+00  0.00000000000E+00  0.30536775081E+02  0.30536775081E+02  0.00000000000E+00 0.  1.
         13   -1    0    0    0    0 -0.00000000000E+00 -0.00000000000E+00 -0.10000000000E+04  0.10000000000E+04  0.00000000000E+00 0.  1.
    9000005    2    1    2  501    0  0.16448166232E+02  0.11550271759E+02 -0.89392710119E+03  0.95237248056E+03  0.32787761213E+03 0.  0.
         13    1    3    3    0    0  0.12800062263E+03  0.14963357083E+02 -0.14021521616E+03  0.19044255903E+03  0.00000000000E+00 0.  1.
          1    1    3    3  501    0 -0.11155245640E+03 -0.34130853238E+01 -0.75371188503E+03  0.76192992152E+03  0.00000000000E+00 0.  1.
         21    1    1    2  502  501 -0.16448166232E+02 -0.11550271759E+02 -0.75536123731E+02  0.78164294523E+02  0.00000000000E+00 0.  1.
<mgrwt>
<rscale>  1 0.30000000E+03</rscale>
<asrwt>0</asrwt>
<pdfrwt beam="1">  1        1 0.11104305E+00 0.30000000E+03</pdfrwt>
<pdfrwt beam="2">0</pdfrwt>
<totfact> 0.29288623E+01</totfact>
</mgrwt>
</event>
<event>
 6    1  0.1939311E-004  0.3000000E+03  0.7818608E-02  0.1093470E+00
          3   -1    0    0  502    0  0.00000000000E+00  0.00000000000E+00  0.27919545910E+02  0.27919545910E+02  0.00000000000E+00 0.  1.
         13   -1    0    0    0    0 -0.00000000000E+00 -0.00000000000E+00 -0.10000000000E+04  0.10000000000E+04  0.00000000000E+00 0.  1.
    9000005    2    1    2  501    0  0.42202993538E+01 -0.98610592776E+01 -0.95934999956E+03  0.10112727477E+04  0.31969531941E+03 0.  0.
         13    1    3    3    0    0  0.14110915416E+03 -0.48594303581E+02 -0.69734423397E+03  0.71313545725E+03  0.00000000000E+00 0.  1.
          3    1    3    3  501    0 -0.13688885480E+03  0.38733244304E+02 -0.26200576558E+03  0.29813729049E+03  0.00000000000E+00 0.  1.
         21    1    1    2  502  501 -0.42202993538E+01  0.98610592776E+01 -0.12730454534E+02  0.16646798171E+02  0.00000000000E+00 0.  1.
<mgrwt>
<rscale>  1 0.30000000E+03</rscale>
<asrwt>0</asrwt>
<pdfrwt beam="1">  1        3 0.10152584E+00 0.30000000E+03</pdfrwt>
<pdfrwt beam="2">0</pdfrwt>
<totfact> 0.37633758E+00</totfact>
</mgrwt>
</event>
<event>
 6    1  0.1939311E-004  0.3000000E+03  0.7818608E-02  0.1093470E+00
          1   -1    0    0  502    0  0.00000000000E+00  0.00000000000E+00  0.27920475790E+02  0.27920475790E+02  0.00000000000E+00 0.  1.
         13   -1    0    0    0    0 -0.00000000000E+00 -0.00000000000E+00 -0.10000000000E+04  0.10000000000E+04  0.00000000000E+00 0.  1.
    9000005    2    1    2  501    0 -0.42178059096E+01  0.14150849863E+02 -0.91871617161E+03  0.97255185797E+03  0.31874704081E+03 0.  0.
         13    1    3    3    0    0  0.10247087754E+02 -0.43178577740E+02  0.70198218994E+01  0.44929614761E+02  0.00000000000E+00 0.  1.
          3    1    3    3  501    0 -0.14464893663E+02  0.57329427603E+02 -0.92573599351E+03  0.92762224321E+03  0.00000000000E+00 0.  1.
         21    1    1    2  502  501  0.42178059096E+01 -0.14150849863E+02 -0.53363352603E+02  0.55368617823E+02  0.00000000000E+00 0. -1.
<mgrwt>
<rscale>  1 0.30000000E+03</rscale>
<asrwt>0</asrwt>
<pdfrwt beam="1">  1        1 0.10152922E+00 0.30000000E+03</pdfrwt>
<pdfrwt beam="2">0</pdfrwt>
<totfact> 0.33474079E+01</totfact>
</mgrwt>
</event>
<event>
 6    1  0.1939311E-004  0.3000000E+03  0.7818608E-02  0.1093470E+00
          1   -1    0    0  502    0  0.00000000000E+00  0.00000000000E+00  0.76997084286E+02  0.76997084286E+02  0.00000000000E+00 0.  1.
         13   -1    0    0    0    0 -0.00000000000E+00 -0.00000000000E+00 -0.10000000000E+04  0.10000000000E+04  0.00000000000E+00 0.  1.
    9000005    2    1    2  501    0  0.24189541875E+02  0.53255788592E+02 -0.95514093630E+03  0.10102575509E+04  0.32389010163E+03 0.  0.
         13    1    3    3    0    0  0.12944677195E+03  0.13950059450E+03 -0.49140206090E+03  0.52696571814E+03  0.00000000000E+00 0.  1.
          1    1    3    3  501    0 -0.10525723007E+03 -0.86244805904E+02 -0.46373887539E+03  0.48329183273E+03  0.00000000000E+00 0.  1.
         21    1    1    2  502  501 -0.24189541875E+02 -0.53255788592E+02  0.32138020581E+02  0.66739533424E+02  0.00000000000E+00 0.  1.
<mgrwt>
<rscale>  1 0.30000000E+03</rscale>
<asrwt>0</asrwt>
<pdfrwt beam="1">  1        1 0.27998999E+00 0.30000000E+03</pdfrwt>
<pdfrwt beam="2">0</pdfrwt>
<totfact> 0.43184748E+00</totfact>
</mgrwt>
</event>
<event>
 6    1  0.1939311E-004  0.3000000E+03  0.7818608E-02  0.1093470E+00
          1   -1    0    0  502    0  0.00000000000E+00  0.00000000000E+00  0.32073350876E+02  0.32073350876E+02  0.00000000000E+00 0.  1.
         13   -1    0    0    0    0 -0.00000000000E+00 -0.00000000000E+00 -0.10000000000E+04  0.10000000000E+04  0.00000000000E+00 0.  1.
    9000005    2    1    2  501    0  0.12738596472E+02  0.24701913236E+02 -0.93545344856E+03  0.98933033843E+03  0.32082535400E+03 0.  0.
         13    1    3    3    0    0  0.39416910251E+01  0.87518880892E+01  0.25994404818E+02  0.27709954079E+02  0.00000000000E+00 0.  1.
          1    1    3    3  501    0  0.87969054472E+01  0.15950025146E+02 -0.96144785337E+03  0.96162038435E+03  0.00000000000E+00 0.  1.
         21    1    1    2  502  501 -0.12738596472E+02 -0.24701913236E+02 -0.32473200569E+02  0.42743012444E+02  0.00000000000E+00 0. -1.
<mgrwt>
<rscale>  1 0.30000000E+03</rscale>
<asrwt>0</asrwt>
<pdfrwt beam="1">  1        1 0.11663061E+00 0.30000000E+03</pdfrwt>
<pdfrwt beam="2">0</pdfrwt>
<totfact> 0.27171122E+01</totfact>
</mgrwt>
</event>
<event>
 6    1  0.1939311E-004  0.3000000E+03  0.7818608E-02  0.1093470E+00
          1   -1    0    0  502    0  0.00000000000E+00  0.00000000000E+00  0.34085701258E+02  0.34085701258E+02  0.00000000000E+00 0.  1.
         13   -1    0    0    0    0 -0.00000000000E+00 -0.00000000000E+00 -0.10000000000E+04  0.10000000000E+04  0.00000000000E+00 0.  1.
    9000005    2    1    2  501    0  0.18841777449E+02  0.36155660250E+02 -0.89757494133E+03  0.95450861840E+03  0.32215474999E+03 0.  0.
         13    1    3    3    0    0  0.12919571199E+03 -0.39691974628E+02 -0.18302243789E+03  0.22751746662E+03  0.00000000000E+00 0.  1.
          1    1    3    3  501    0 -0.11035393454E+03  0.75847634878E+02 -0.71455250345E+03  0.72699115178E+03  0.00000000000E+00 0.  1.
         21    1    1    2  502  501 -0.18841777449E+02 -0.36155660250E+02 -0.68339357408E+02  0.79577082860E+02  0.00000000000E+00 0.  1.
<mgrwt>
<rscale>  1 0.30000000E+03</rscale>
<asrwt>0</asrwt>
<pdfrwt beam="1">  1        1 0.12394827E+00 0.30000000E+03</pdfrwt>
<pdfrwt beam="2">0</pdfrwt>
<totfact> 0.24703957E+01</totfact>
</mgrwt>
</event>
<event>
 6    1  0.1939311E-004  0.3000000E+03  0.7818608E-02  0.1093470E+00
          1   -1    0    0  502    0  0.00000000000E+00  0.00000000000E+00  0.36777587835E+02  0.36777587835E+02  0.00000000000E+00 0.  1.
         13   -1    0    0    0    0 -0.00000000000E+00 -0.00000000000E+00 -0.10000000000E+04  0.10000000000E+04  0.00000000000E+00 0.  1.
    9000005    2    1    2  501    0 -0.25623775160E+02 -0.56622607861E+01 -0.95192326021E+03  0.10082064506E+04  0.33110982250E+03 0.  0.
         13    1    3    3    0    0 -0.21223261649E+02  0.12455086908E+03 -0.15159823307E+03  0.19734581347E+03  0.00000000000E+00 0.  1.
          3    1    3    3  501    0 -0.44005135111E+01 -0.13021312987E+03 -0.80032502714E+03  0.81086063708E+03  0.00000000000E+00 0.  1.
         21    1    1    2  502  501  0.25623775160E+02  0.56622607861E+01 -0.11299151956E+02  0.28571137282E+02  0.00000000000E+00 0.  1.
<mgrwt>
<rscale>  1 0.30000000E+03</rscale>
<asrwt>0</asrwt>
<pdfrwt beam="1">  1        1 0.13373697E+00 0.30000000E+03</pdfrwt>
<pdfrwt beam="2">0</pdfrwt>
<totfact> 0.21839865E+01</totfact>
</mgrwt>
</event>
<event>
 6    1  0.1939311E-004  0.3000000E+03  0.7818608E-02  0.1093470E+00
          1   -1    0    0  502    0  0.00000000000E+00  0.00000000000E+00  0.34353598785E+02  0.34353598785E+02  0.00000000000E+00 0.  1.
         13   -1    0    0    0    0 -0.00000000000E+00 -0.00000000000E+00 -0.10000000000E+04  0.10000000000E+04  0.00000000000E+00 0.  1.
    9000005    2    1    2  501    0  0.23029886188E+02  0.30580836370E+02 -0.76151750357E+03  0.82666592447E+03  0.31937764358E+03 0.  0.
         13    1    3    3    0    0  0.16349056955E+03 -0.25935196087E+02 -0.32672504996E+03  0.36626637711E+03  0.00000000000E+00 0.  1.
          3    1    3    3  501    0 -0.14046068336E+03  0.56516032457E+02 -0.43479245361E+03  0.46039954736E+03  0.00000000000E+00 0.  1.
         21    1    1    2  502  501 -0.23029886188E+02 -0.30580836370E+02 -0.20412889764E+03  0.20768767432E+03  0.00000000000E+00 0.  1.
<mgrwt>
<rscale>  1 0.30000000E+03</rscale>
<asrwt>0</asrwt>
<pdfrwt beam="1">  1        1 0.12492244E+00 0.30000000E+03</pdfrwt>
<pdfrwt beam="2">0</pdfrwt>
<totfact> 0.24398089E+01</totfact>
</mgrwt>
</event>
<event>
 6    1  0.1939311E-004  0.3000000E+03  0.7818608E-02  0.1093470E+00
          1   -1    0    0  502    0  0.00000000000E+00  0.00000000000E+00  0.33693312222E+02  0.33693312222E+02  0.00000000000E+00 0.  1.
         13   -1    0    0    0    0 -0.00000000000E+00 -0.00000000000E+00 -0.10000000000E+04  0.10000000000E+04  0.00000000000E+00 0.  1.
    9000005    2    1    2  501    0  0.13620698625E+02  0.16013544920E+02 -0.95402690016E+03  0.10093468497E+04  0.32889478527E+03 0.  0.
         13    1    3    3    0    0 -0.15027409560E+03  0.37010462028E+02 -0.34164319414E+03  0.37506286168E+03  0.00000000000E+00 0.  1.
          1    1    3    3  501    0  0.16389479422E+03 -0.20996917109E+02 -0.61238370602E+03  0.63428398805E+03  0.00000000000E+00 0.  1.
         21    1    1    2  502  501 -0.13620698625E+02 -0.16013544920E+02 -0.12279787620E+02  0.24346462493E+02  0.00000000000E+00 0.  1.
<mgrwt>
<rscale>  1 0.30000000E+03</rscale>
<asrwt>0</asrwt>
<pdfrwt beam="1">  1        1 0.12252139E+00 0.30000000E+03</pdfrwt>
<pdfrwt beam="2">0</pdfrwt>
<totfact> 0.25160953E+01</totfact>
</mgrwt>
</event>
<event>
 6    1  0.1939311E-004  0.3000000E+03  0.7818608E-02  0.1093470E+00
          1   -1    0    0  502    0  0.00000000000E+00  0.00000000000E+00  0.46305037811E+02  0.46305037811E+02  0.00000000000E+00 0.  1.
         13   -1    0    0    0    0 -0.00000000000E+00 -0.00000000000E+00 -0.10000000000E+04  0.10000000000E+04  0.00000000000E+00 0.  1.
    9000005    2    1    2  501    0 -0.64346924940E+01  0.35445259107E+02 -0.95292419762E+03  0.10102721953E+04  0.33359797744E+03 0.  0.
         13    1    3    3    0    0 -0.87405887863E+02 -0.11192290814E+03 -0.25001562030E+03  0.28753145392E+03  0.00000000000E+00 0.  1.
          3    1    3    3  501    0  0.80971195369E+02  0.14736816725E+03 -0.70290857732E+03  0.72274074139E+03  0.00000000000E+00 0.  1.
         21    1    1    2  502  501  0.64346924940E+01 -0.35445259107E+02 -0.77076457110E+00  0.36032842500E+02  0.00000000000E+00 0.  1.
<mgrwt>
<rscale>  1 0.30000000E+03</rscale>
<asrwt>0</asrwt>
<pdfrwt beam="1">  1        1 0.16838231E+00 0.30000000E+03</pdfrwt>
<pdfrwt beam="2">0</pdfrwt>
<totfact> 0.14549980E+01</totfact>
</mgrwt>
</event>
<event>
 6    1  0.1939311E-004  0.3000000E+03  0.7818608E-02  0.1093470E+00
          3   -1    0    0  502    0  0.00000000000E+00  0.00000000000E+00  0.41243573905E+02  0.41243573905E+02  0.00000000000E+00 0.  1.
         13   -1    0    0    0    0 -0.00000000000E+00 -0.00000000000E+00 -0.10000000000E+04  0.10000000000E+04  0.00000000000E+00 0.  1.
    9000005    2    1    2  501    0 -0.11237339310E+02 -0.26660141070E+01 -0.96713234989E+03  0.10269767759E+04  0.34525777414E+03 0.  0.
         13    1    3    3    0    0  0.64620427242E+02  0.66628162053E+02 -0.52589283542E+02  0.10668057152E+03  0.00000000000E+00 0.  1.
          3    1    3    3  501    0 -0.75857766552E+02 -0.69294176160E+02 -0.91454306635E+03  0.92029620438E+03  0.00000000000E+00 0.  1.
         21    1    1    2  502  501  0.11237339310E+02  0.26660141070E+01  0.83759237944E+01  0.14266798008E+02  0.00000000000E+00 0.  1.
<mgrwt>
<rscale>  1 0.30000000E+03</rscale>
<asrwt>0</asrwt>
<pdfrwt beam="1">  1        3 0.14997695E+00 0.30000000E+03</pdfrwt>
<pdfrwt beam="2">0</pdfrwt>
<totfact> 0.99070687E-01</totfact>
</mgrwt>
</event>
<event>
 6    1  0.1939311E-004  0.3000000E+03  0.7818608E-02  0.1093470E+00
          1   -1    0    0  502    0  0.00000000000E+00  0.00000000000E+00  0.29799450271E+02  0.29799450271E+02  0.00000000000E+00 0.  1.
         13   -1    0    0    0    0 -0.00000000000E+00 -0.00000000000E+00 -0.10000000000E+04  0.10000000000E+04  0.00000000000E+00 0.  1.
    9000005    2    1    2  501    0 -0.15162314159E+02 -0.88372968197E+01 -0.96196170969E+03  0.10104120298E+04  0.30863270330E+03 0.  0.
         13    1    3    3    0    0  0.67016957777E+01 -0.31665297967E+02 -0.97549183510E+03  0.97602864926E+03  0.00000000000E+00 0.  1.
          3    1    3    3  501    0 -0.21864009936E+02  0.22828001147E+02  0.13530125408E+02  0.34383380585E+02  0.00000000000E+00 0.  1.
         21    1    1    2  502  501  0.15162314159E+02  0.88372968197E+01 -0.82388400349E+01  0.19387420428E+02  0.00000000000E+00 0. -1.
<mgrwt>
<rscale>  1 0.30000000E+03</rscale>
<asrwt>0</asrwt>
<pdfrwt beam="1">  1        1 0.10836187E+00 0.30000000E+03</pdfrwt>
<pdfrwt beam="2">0</pdfrwt>
<totfact> 0.30388411E+01</totfact>
</mgrwt>
</event>
<event>
 6    1  0.1939311E-004  0.3000000E+03  0.7818608E-02  0.1093470E+00
          1   -1    0    0  502    0  0.00000000000E+00  0.00000000000E+00  0.26183780247E+02  0.26183780247E+02  0.00000000000E+00 0.  1.
         13   -1    0    0    0    0 -0.00000000000E+00 -0.00000000000E+00 -0.10000000000E+04  0.10000000000E+04  0.00000000000E+00 0.  1.
    9000005    2    1    2  501    0 -0.11255171756E+02  0.68508146739E+01 -0.95421207295E+03  0.10025631299E+04  0.30730853654E+03 0.  0.
         13    1    3    3    0    0  0.19221431817E+02 -0.33602310342E+02 -0.95102694951E+03  0.95181449736E+03  0.00000000000E+00 0.  1.
          1    1    3    3  501    0 -0.30476603572E+02  0.40453125016E+02 -0.31851234443E+01  0.50748632496E+02  0.00000000000E+00 0.  1.
         21    1    1    2  502  501  0.11255171756E+02 -0.68508146739E+01 -0.19604146802E+02  0.23620650388E+02  0.00000000000E+00 0. -1.
<mgrwt>
<rscale>  1 0.30000000E+03</rscale>
<asrwt>0</asrwt>
<pdfrwt beam="1">  1        1 0.95213947E-01 0.30000000E+03</pdfrwt>
<pdfrwt beam="2">0</pdfrwt>
<totfact> 0.36751834E+01</totfact>
</mgrwt>
</event>
<event>
 6    1  0.1939311E-004  0.3000000E+03  0.7818608E-02  0.1093470E+00
          1   -1    0    0  502    0  0.00000000000E+00  0.00000000000E+00  0.39829736919E+02  0.39829736919E+02  0.00000000000E+00 0.  1.
         13   -1    0    0    0    0 -0.00000000000E+00 -0.00000000000E+00 -0.10000000000E+04  0.10000000000E+04  0.00000000000E+00 0.  1.
    9000005    2    1    2  501    0 -0.16864251141E+02  0.21516534251E+02 -0.95349815607E+03  0.10116893527E+04  0.33705971058E+03 0.  0.
         13    1    3    3    0    0 -0.17706682350E+01  0.27495610846E+02 -0.98012033585E+03  0.98050753013E+03  0.00000000000E+00 0.  1.
          1    1    3    3  501    0 -0.15093582906E+02 -0.59790765948E+01  0.26622179782E+02  0.31181822561E+02  0.00000000000E+00 0.  1.
         21    1    1    2  502  501  0.16864251141E+02 -0.21516534251E+02 -0.66721070098E+01  0.28140384231E+02  0.00000000000E+00 0.  1.
<mgrwt>
<rscale>  1 0.30000000E+03</rscale>
<asrwt>0</asrwt>
<pdfrwt beam="1">  1        1 0.14483571E+00 0.30000000E+03</pdfrwt>
<pdfrwt beam="2">0</pdfrwt>
<totfact> 0.19093441E+01</totfact>
</mgrwt>
</event>
<event>
 6    1  0.1939311E-004  0.3000000E+03  0.7818608E-02  0.1093470E+00
          1   -1    0    0  502    0  0.00000000000E+00  0.00000000000E+00  0.73907948271E+02  0.73907948271E+02  0.00000000000E+00 0.  1.
         13   -1    0    0    0    0 -0.00000000000E+00 -0.00000000000E+00 -0.10000000000E+04  0.10000000000E+04  0.00000000000E+00 0.  1.
    9000005    2    1    2  501    0  0.19436213933E+02  0.25552394259E+02 -0.97199087526E+03  0.10178955098E+04  0.30052340339E+03 0.  0.
         13    1    3    3    0    0  0.14358343693E+02 -0.40954142424E+02  0.22052634366E+00  0.43398760894E+02  0.00000000000E+00 0.  1.
          3    1    3    3  501    0  0.50778702401E+01  0.66506536683E+02 -0.97221140160E+03  0.97449674889E+03  0.00000000000E+00 0.  1.
         21    1    1    2  502  501 -0.19436213933E+02 -0.25552394259E+02  0.45898823529E+02  0.56012438491E+02  0.00000000000E+00 0.  1.
<mgrwt>
<rscale>  1 0.30000000E+03</rscale>
<asrwt>0</asrwt>
<pdfrwt beam="1">  1        1 0.26875674E+00 0.30000000E+03</pdfrwt>
<pdfrwt beam="2">0</pdfrwt>
<totfact> 0.48731586E+00</totfact>
</mgrwt>
</event>
<event>
 6    1  0.1939311E-004  0.3000000E+03  0.7818608E-02  0.1093470E+00
          1   -1    0    0  502    0  0.00000000000E+00  0.00000000000E+00  0.47197194808E+02  0.47197194808E+02  0.00000000000E+00 0.  1.
         13   -1    0    0    0    0 -0.00000000000E+00 -0.00000000000E+00 -0.10000000000E+04  0.10000000000E+04  0.00000000000E+00 0.  1.
    9000005    2    1    2  501    0 -0.64436550925E+00 -0.27829152420E+02 -0.96911855243E+03  0.10149314151E+04  0.30020015288E+03 0.  0.
         13    1    3    3    0    0  0.13988430943E+03 -0.10141813660E+02 -0.30249627732E+03  0.33342836442E+03  0.00000000000E+00 0.  1.
          3    1    3    3  501    0 -0.14052867494E+03 -0.17687338760E+02 -0.66662227511E+03  0.68150305069E+03  0.00000000000E+00 0.  1.
         21    1    1    2  502  501  0.64436550925E+00  0.27829152420E+02  0.16315747238E+02  0.32265779694E+02  0.00000000000E+00 0.  1.
<mgrwt>
<rscale>  1 0.30000000E+03</rscale>
<asrwt>0</asrwt>
<pdfrwt beam="1">  1        1 0.17162652E+00 0.30000000E+03</pdfrwt>
<pdfrwt beam="2">0</pdfrwt>
<totfact> 0.14028339E+01</totfact>
</mgrwt>
</event>
<event>
 6    1  0.1939311E-004  0.3000000E+03  0.7818608E-02  0.1093470E+00
          1   -1    0    0  502    0  0.00000000000E+00  0.00000000000E+00  0.35466154916E+02  0.35466154916E+02  0.00000000000E+00 0.  1.
         13   -1    0    0    0    0 -0.00000000000E+00 -0.00000000000E+00 -0.10000000000E+04  0.10000000000E+04  0.00000000000E+00 0.  1.
    9000005    2    1    2  501    0  0.40899754233E+02  0.16406664751E+01 -0.76931016344E+03  0.83599744169E+03  0.32461995203E+03 0.  0.
         13    1    3    3    0    0 -0.10610075410E+03 -0.99348436476E+02 -0.28570292802E+03  0.32055209394E+03  0.00000000000E+00 0.  1.
          3    1    3    3  501    0  0.14700050833E+03  0.10098910295E+03 -0.48360723543E+03  0.51544534775E+03  0.00000000000E+00 0.  1.
         21    1    1    2  502  501 -0.40899754233E+02 -0.16406664751E+01 -0.19522368164E+03  0.19946871322E+03  0.00000000000E+00 0.  1.
<mgrwt>
<rscale>  1 0.30000000E+03</rscale>
<asrwt>0</asrwt>
<pdfrwt beam="1">  1        1 0.12896811E+00 0.30000000E+03</pdfrwt>
<pdfrwt beam="2">0</pdfrwt>
<totfact> 0.23178279E+01</totfact>
</mgrwt>
</event>
<event>
 6    1  0.1939311E-004  0.3000000E+03  0.7818608E-02  0.1093470E+00
          1   -1    0    0  502    0  0.00000000000E+00  0.00000000000E+00  0.49116123233E+02  0.49116123233E+02  0.00000000000E+00 0.  1.
         13   -1    0    0    0    0 -0.00000000000E+00 -0.00000000000E+00 -0.10000000000E+04  0.10000000000E+04  0.00000000000E+00 0.  1.
    9000005    2    1    2  501    0 -0.16808161894E+02  0.68298944978E+01 -0.97620246179E+03  0.10179682098E+04  0.28802581125E+03 0.  0.
         13    1    3    3    0    0 -0.73628083605E+02 -0.11814565626E+03 -0.34538285308E+03  0.37238260699E+03  0.00000000000E+00 0.  1.
          1    1    3    3  501    0  0.56819921712E+02  0.12497555076E+03 -0.63081960871E+03  0.64558560278E+03  0.00000000000E+00 0.  1.
         21    1    1    2  502  501  0.16808161894E+02 -0.68298944978E+01  0.25318585023E+02  0.31147913456E+02  0.00000000000E+00 0.  1.
<mgrwt>
<rscale>  1 0.30000000E+03</rscale>
<asrwt>0</asrwt>
<pdfrwt beam="1">  1        1 0.17860446E+00 0.30000000E+03</pdfrwt>
<pdfrwt beam="2">0</pdfrwt>
<totfact> 0.12974693E+01</totfact>
</mgrwt>
</event>
<event>
 6    1  0.1939311E-004  0.3000000E+03  0.7818608E-02  0.1093470E+00
          1   -1    0    0  502    0  0.00000000000E+00  0.00000000000E+00  0.32223994306E+02  0.32223994306E+02  0.00000000000E+00 0.  1.
         13   -1    0    0    0    0 -0.00000000000E+00 -0.00000000000E+00 -0.10000000000E+04  0.10000000000E+04  0.00000000000E+00 0.  1.
    9000005    2    1    2  501    0  0.35321639514E+01  0.15004022289E+02 -0.96309486901E+03  0.10161146831E+04  0.32357336976E+03 0.  0.
         13    1    3    3    0    0  0.66553552569E+02 -0.10752732761E+03 -0.17410607979E+03  0.21518463831E+03  0.00000000000E+00 0.  1.
          3    1    3    3  501    0 -0.63021388617E+02  0.12253134990E+03 -0.78898878922E+03  0.80093004479E+03  0.00000000000E+00 0.  1.
         21    1    1    2  502  501 -0.35321639514E+01 -0.15004022289E+02 -0.46811366841E+01  0.16109311210E+02  0.00000000000E+00 0.  1.
<mgrwt>
<rscale>  1 0.30000000E+03</rscale>
<asrwt>0</asrwt>
<pdfrwt beam="1">  1        1 0.11717841E+00 0.30000000E+03</pdfrwt>
<pdfrwt beam="2">0</pdfrwt>
<totfact> 0.26975202E+01</totfact>
</mgrwt>
</event>
<event>
 6    1  0.1939311E-004  0.3000000E+03  0.7818608E-02  0.1093470E+00
          1   -1    0    0  502    0  0.00000000000E+00  0.00000000000E+00  0.33009298243E+02  0.33009298243E+02  0.00000000000E+00 0.  1.
         13   -1    0    0    0    0 -0.00000000000E+00 -0.00000000000E+00 -0.10000000000E+04  0.10000000000E+04  0.00000000000E+00 0.  1.
    9000005    2    1    2  501    0 -0.14833743059E+02 -0.54208299308E+01 -0.92108415685E+03  0.98446204089E+03  0.34715999286E+03 0.  0.
         13    1    3    3    0    0 -0.24813600702E+02 -0.14257458231E+02  0.25171250513E+02  0.38112750457E+02  0.00000000000E+00 0.  1.
          3    1    3    3  501    0  0.99798576434E+01  0.88366283001E+01 -0.94625540736E+03  0.94634929044E+03  0.00000000000E+00 0.  1.
         21    1    1    2  502  501  0.14833743059E+02  0.54208299308E+01 -0.45906544912E+02  0.48547257348E+02  0.00000000000E+00 0.  1.
<mgrwt>
<rscale>  1 0.30000000E+03</rscale>
<asrwt>0</asrwt>
<pdfrwt beam="1">  1        1 0.12003406E+00 0.30000000E+03</pdfrwt>
<pdfrwt beam="2">0</pdfrwt>
<totfact> 0.25984495E+01</totfact>
</mgrwt>
</event>
<event>
 6    1  0.1939311E-004  0.3000000E+03  0.7818608E-02  0.1093470E+00
          1   -1    0    0  502    0  0.00000000000E+00  0.00000000000E+00  0.35880675149E+02  0.35880675149E+02  0.00000000000E+00 0.  1.
         13   -1    0    0    0    0 -0.00000000000E+00 -0.00000000000E+00 -0.10000000000E+04  0.10000000000E+04  0.00000000000E+00 0.  1.
    9000005    2    1    2  501    0  0.45709462625E+01 -0.17918355102E+02 -0.96260276398E+03  0.10173264046E+04  0.32864414075E+03 0.  0.
         13    1    3    3    0    0  0.14737963448E+03  0.67899729753E+02 -0.45380599567E+03  0.48194502972E+03  0.00000000000E+00 0.  1.
          1    1    3    3  501    0 -0.14280868822E+03 -0.85818084855E+02 -0.50879676830E+03  0.53538137487E+03  0.00000000000E+00 0.  1.
         21    1    1    2  502  501 -0.45709462625E+01  0.17918355102E+02 -0.15165608750E+01  0.18554270565E+02  0.00000000000E+00 0. -1.
<mgrwt>
<rscale>  1 0.30000000E+03</rscale>
<asrwt>0</asrwt>
<pdfrwt beam="1">  1        1 0.13047546E+00 0.30000000E+03</pdfrwt>
<pdfrwt beam="2">0</pdfrwt>
<totfact> 0.22743922E+01</totfact>
</mgrwt>
</event>
<event>
 6    1  0.1939311E-004  0.3000000E+03  0.7818608E-02  0.1093470E+00
          3   -1    0    0  502    0  0.00000000000E+00  0.00000000000E+00  0.40451505097E+02  0.40451505097E+02  0.00000000000E+00 0.  1.
         13   -1    0    0    0    0 -0.00000000000E+00 -0.00000000000E+00 -0.10000000000E+04  0.10000000000E+04  0.00000000000E+00 0.  1.
    9000005    2    1    2  501    0 -0.17822249845E+01 -0.18516887694E+02 -0.96649553658E+03  0.10205941930E+04  0.32734207351E+03 0.  0.
         13    1    3    3    0    0 -0.39789129248E+02  0.95170263927E+02 -0.92922131370E+02  0.13883470906E+03  0.00000000000E+00 0.  1.
          1    1    3    3  501    0  0.38006904264E+02 -0.11368715162E+03 -0.87357340521E+03  0.88175948393E+03  0.00000000000E+00 0.  1.
         21    1    1    2  502  501  0.17822249845E+01  0.18516887694E+02  0.69470416786E+01  0.19857312100E+02  0.00000000000E+00 0. -1.
<mgrwt>
<rscale>  1 0.30000000E+03</rscale>
<asrwt>0</asrwt>
<pdfrwt beam="1">  1        3 0.14709669E+00 0.30000000E+03</pdfrwt>
<pdfrwt beam="2">0</pdfrwt>
<totfact> 0.10836858E+00</totfact>
</mgrwt>
</event>
<event>
 6    1  0.1939311E-004  0.3000000E+03  0.7818608E-02  0.1093470E+00
          1   -1    0    0  502    0  0.00000000000E+00  0.00000000000E+00  0.12297873802E+02  0.12297873802E+02  0.00000000000E+00 0.  1.
         13   -1    0    0    0    0 -0.00000000000E+00 -0.00000000000E+00 -0.10000000000E+04  0.10000000000E+04  0.00000000000E+00 0.  1.
    9000005    2    1    2  501    0  0.10894090259E+02 -0.28059107147E+02 -0.95811815923E+03  0.97009353992E+03  0.14894654901E+03 0.  0.
         13    1    3    3    0    0  0.61043782680E+02 -0.64153666546E+02 -0.49314808806E+03  0.50103599979E+03  0.00000000000E+00 0.  1.
          1    1    3    3  501    0 -0.50149692421E+02  0.36094559399E+02 -0.46497007117E+03  0.46905754013E+03  0.00000000000E+00 0.  1.
         21    1    1    2  502  501 -0.10894090259E+02  0.28059107147E+02 -0.29583966972E+02  0.42204333880E+02  0.00000000000E+00 0.  1.
<mgrwt>
<rscale>  1 0.30000000E+03</rscale>
<asrwt>0</asrwt>
<pdfrwt beam="1">  1        1 0.44719635E-01 0.30000000E+03</pdfrwt>
<pdfrwt beam="2">0</pdfrwt>
<totfact> 0.10215235E+02</totfact>
</mgrwt>
</event>
<event>
 6    1  0.1939311E-004  0.3000000E+03  0.7818608E-02  0.1093470E+00
          1   -1    0    0  502    0  0.00000000000E+00  0.00000000000E+00  0.28831343980E+02  0.28831343980E+02  0.00000000000E+00 0.  1.
         13   -1    0    0    0    0 -0.00000000000E+00 -0.00000000000E+00 -0.10000000000E+04  0.10000000000E+04  0.00000000000E+00 0.  1.
    9000005    2    1    2  501    0 -0.44431740105E+01 -0.10903283670E+02 -0.93618418217E+03  0.99191878784E+03  0.32760255698E+03 0.  0.
         13    1    3    3    0    0 -0.64450213690E+02  0.12480377010E+03 -0.69259141162E+03  0.70669135733E+03  0.00000000000E+00 0.  1.
          3    1    3    3  501    0  0.60007039679E+02 -0.13570705377E+03 -0.24359277055E+03  0.28522743051E+03  0.00000000000E+00 0.  1.
         21    1    1    2  502  501  0.44431740105E+01  0.10903283670E+02 -0.34984473848E+02  0.36912556136E+02  0.00000000000E+00 0. -1.
<mgrwt>
<rscale>  1 0.30000000E+03</rscale>
<asrwt>0</asrwt>
<pdfrwt beam="1">  1        1 0.10484147E+00 0.30000000E+03</pdfrwt>
<pdfrwt beam="2">0</pdfrwt>
<totfact> 0.31924268E+01</totfact>
</mgrwt>
</event>
<event>
 6    1  0.1939311E-004  0.3000000E+03  0.7818608E-02  0.1093470E+00
          1   -1    0    0  502    0  0.00000000000E+00  0.00000000000E+00  0.33684819082E+02  0.33684819082E+02  0.00000000000E+00 0.  1.
         13   -1    0    0    0    0 -0.00000000000E+00 -0.00000000000E+00 -0.10000000000E+04  0.10000000000E+04  0.00000000000E+00 0.  1.
    9000005    2    1    2  501    0  0.69778724209E+01  0.10263503579E+02 -0.96605848759E+03  0.10212712740E+04  0.33101659099E+03 0.  0.
         13    1    3    3    0    0  0.12202322515E+03 -0.95792593927E+02 -0.65442981495E+03  0.67256544011E+03  0.00000000000E+00 0.  1.
          3    1    3    3  501    0 -0.11504535273E+03  0.10605609751E+03 -0.31162867264E+03  0.34870583392E+03  0.00000000000E+00 0.  1.
         21    1    1    2  502  501 -0.69778724209E+01 -0.10263503579E+02 -0.25669332849E+00  0.12413545049E+02  0.00000000000E+00 0.  1.
<mgrwt>
<rscale>  1 0.30000000E+03</rscale>
<asrwt>0</asrwt>
<pdfrwt beam="1">  1        1 0.12249051E+00 0.30000000E+03</pdfrwt>
<pdfrwt beam="2">0</pdfrwt>
<totfact> 0.25170966E+01</totfact>
</mgrwt>
</event>
<event>
 6    1  0.1939311E-004  0.3000000E+03  0.7818608E-02  0.1093470E+00
          1   -1    0    0  502    0  0.00000000000E+00  0.00000000000E+00  0.45225108374E+02  0.45225108374E+02  0.00000000000E+00 0.  1.
         13   -1    0    0    0    0 -0.00000000000E+00 -0.00000000000E+00 -0.10000000000E+04  0.10000000000E+04  0.00000000000E+00 0.  1.
    9000005    2    1    2  501    0  0.62719180262E+02  0.48763737646E+02 -0.83040470366E+03  0.89764617581E+03  0.33148919651E+03 0.  0.
         13    1    3    3    0    0 -0.11934275769E+03 -0.54110495754E+02 -0.34874336289E+03  0.37254875214E+03  0.00000000000E+00 0.  1.
          1    1    3    3  501    0  0.18206193795E+03  0.10287423340E+03 -0.48166134077E+03  0.52509742367E+03  0.00000000000E+00 0.  1.
         21    1    1    2  502  501 -0.62719180262E+02 -0.48763737646E+02 -0.12437018796E+03  0.14757893256E+03  0.00000000000E+00 0. -1.
<mgrwt>
<rscale>  1 0.30000000E+03</rscale>
<asrwt>0</asrwt>
<pdfrwt beam="1">  1        1 0.16445529E+00 0.30000000E+03</pdfrwt>
<pdfrwt beam="2">0</pdfrwt>
<totfact> 0.15211014E+01</totfact>
</mgrwt>
</event>
<event>
 6    1  0.1939311E-004  0.3000000E+03  0.7818608E-02  0.1093470E+00
          1   -1    0    0  502    0  0.00000000000E+00  0.00000000000E+00  0.34769150488E+02  0.34769150488E+02  0.00000000000E+00 0.  1.
         13   -1    0    0    0    0 -0.00000000000E+00 -0.00000000000E+00 -0.10000000000E+04  0.10000000000E+04  0.00000000000E+00 0.  1.
    9000005    2    1    2  501    0 -0.93822832065E+01 -0.12890256718E+02 -0.96705624440E+03  0.10187217824E+04  0.31990952490E+03 0.  0.
         13    1    3    3    0    0 -0.72194634571E+02  0.13847297925E+03 -0.49260107273E+03  0.51676169372E+03  0.00000000000E+00 0.  1.
          1    1    3    3  501    0  0.62812351365E+02 -0.15136323597E+03 -0.47445517167E+03  0.50196008867E+03  0.00000000000E+00 0.  1.
         21    1    1    2  502  501  0.93822832065E+01  0.12890256718E+02  0.18253948886E+01  0.16047368100E+02  0.00000000000E+00 0.  1.
<mgrwt>
<rscale>  1 0.30000000E+03</rscale>
<asrwt>0</asrwt>
<pdfrwt beam="1">  1        1 0.12643354E+00 0.30000000E+03</pdfrwt>
<pdfrwt beam="2">0</pdfrwt>
<totfact> 0.23933084E+01</totfact>
</mgrwt>
</event>
<event>
 6    1  0.1939311E-004  0.3000000E+03  0.7818608E-02  0.1093470E+00
          1   -1    0    0  502    0  0.00000000000E+00  0.00000000000E+00  0.40933820648E+02  0.40933820648E+02  0.00000000000E+00 0.  1.
         13   -1    0    0    0    0 -0.00000000000E+00 -0.00000000000E+00 -0.10000000000E+04  0.10000000000E+04  0.00000000000E+00 0.  1.
    9000005    2    1    2  501    0 -0.58191286404E+02  0.42154210904E+02 -0.83551856037E+03  0.89801000364E+03  0.32119697791E+03 0.  0.
         13    1    3    3    0    0 -0.77860632392E+02  0.95138322648E+02 -0.95072911338E+02  0.15541054335E+03  0.00000000000E+00 0.  1.
          3    1    3    3  501    0  0.19669345988E+02 -0.52984111744E+02 -0.74044564903E+03  0.74259946030E+03  0.00000000000E+00 0.  1.
         21    1    1    2  502  501  0.58191286404E+02 -0.42154210904E+02 -0.12354761898E+03  0.14292381700E+03  0.00000000000E+00 0.  1.
<mgrwt>
<rscale>  1 0.30000000E+03</rscale>
<asrwt>0</asrwt>
<pdfrwt beam="1">  1        1 0.14885057E+00 0.30000000E+03</pdfrwt>
<pdfrwt beam="2">0</pdfrwt>
<totfact> 0.18208754E+01</totfact>
</mgrwt>
</event>
<event>
 6    1  0.1939311E-004  0.3000000E+03  0.7818608E-02  0.1093470E+00
          1   -1    0    0  502    0  0.00000000000E+00  0.00000000000E+00  0.57082197845E+02  0.57082197845E+02  0.00000000000E+00 0.  1.
         13   -1    0    0    0    0 -0.00000000000E+00 -0.00000000000E+00 -0.10000000000E+04  0.10000000000E+04  0.00000000000E+00 0.  1.
    9000005    2    1    2  501    0  0.19275442829E+02 -0.23688514954E+02 -0.96506095863E+03  0.10193594220E+04  0.32683067324E+03 0.  0.
         13    1    3    3    0    0  0.75387486833E+02 -0.77143813230E+02 -0.92657271558E+03  0.93282980138E+03  0.00000000000E+00 0.  1.
          3    1    3    3  501    0 -0.56112044003E+02  0.53455298276E+02 -0.38488243047E+02  0.86529620645E+02  0.00000000000E+00 0.  1.
         21    1    1    2  502  501 -0.19275442829E+02  0.23688514954E+02  0.22143156470E+02  0.37722775819E+02  0.00000000000E+00 0.  1.
<mgrwt>
<rscale>  1 0.30000000E+03</rscale>
<asrwt>0</asrwt>
<pdfrwt beam="1">  1        1 0.20757207E+00 0.30000000E+03</pdfrwt>
<pdfrwt beam="2">0</pdfrwt>
<totfact> 0.94308192E+00</totfact>
</mgrwt>
</event>
<event>
 6    1  0.1939311E-004  0.3000000E+03  0.7818608E-02  0.1093470E+00
          1   -1    0    0  502    0  0.00000000000E+00  0.00000000000E+00  0.35613073818E+02  0.35613073818E+02  0.00000000000E+00 0.  1.
         13   -1    0    0    0    0 -0.00000000000E+00 -0.00000000000E+00 -0.10000000000E+04  0.10000000000E+04  0.00000000000E+00 0.  1.
    9000005    2    1    2  501    0 -0.72823885381E+01 -0.13566380709E+02 -0.95925283927E+03  0.10193822785E+04  0.34458255933E+03 0.  0.
         13    1    3    3    0    0  0.10282035217E+03 -0.13645991693E+03 -0.37149604910E+03  0.40890420424E+03  0.00000000000E+00 0.  1.
          3    1    3    3  501    0 -0.11010274070E+03  0.12289353622E+03 -0.58775679017E+03  0.61047807426E+03  0.00000000000E+00 0.  1.
         21    1    1    2  502  501  0.72823885381E+01  0.13566380709E+02 -0.51340869085E+01  0.16230795321E+02  0.00000000000E+00 0.  1.
<mgrwt>
<rscale>  1 0.30000000E+03</rscale>
<asrwt>0</asrwt>
<pdfrwt beam="1">  1        1 0.12950236E+00 0.30000000E+03</pdfrwt>
<pdfrwt beam="2">0</pdfrwt>
<totfact> 0.23023107E+01</totfact>
</mgrwt>
</event>
<event>
 6    1  0.1939311E-004  0.3000000E+03  0.7818608E-02  0.1093470E+00
          1   -1    0    0  502    0  0.00000000000E+00  0.00000000000E+00  0.33299786237E+02  0.33299786237E+02  0.00000000000E+00 0.  1.
         13   -1    0    0    0    0 -0.00000000000E+00 -0.00000000000E+00 -0.10000000000E+04  0.10000000000E+04  0.00000000000E+00 0.  1.
    9000005    2    1    2  501    0  0.25046607589E+02 -0.58567614758E+02 -0.75620891500E+03  0.81338142660E+03  0.29271133214E+03 0.  0.
         13    1    3    3    0    0  0.87487234117E+02 -0.15691286893E+03 -0.39706240939E+03  0.43581443473E+03  0.00000000000E+00 0.  1.
          3    1    3    3  501    0 -0.62440626527E+02  0.98345254167E+02 -0.35914650561E+03  0.37756699187E+03  0.00000000000E+00 0.  1.
         21    1    1    2  502  501 -0.25046607589E+02  0.58567614758E+02 -0.21049129876E+03  0.21991835964E+03  0.00000000000E+00 0.  1.
<mgrwt>
<rscale>  1 0.30000000E+03</rscale>
<asrwt>0</asrwt>
<pdfrwt beam="1">  1        1 0.12109039E+00 0.30000000E+03</pdfrwt>
<pdfrwt beam="2">0</pdfrwt>
<totfact> 0.25630453E+01</totfact>
</mgrwt>
</event>
<event>
 6    1  0.1939311E-004  0.3000000E+03  0.7818608E-02  0.1093470E+00
          1   -1    0    0  502    0  0.00000000000E+00  0.00000000000E+00  0.42412741592E+02  0.42412741592E+02  0.00000000000E+00 0.  1.
         13   -1    0    0    0    0 -0.00000000000E+00 -0.00000000000E+00 -0.10000000000E+04  0.10000000000E+04  0.00000000000E+00 0.  1.
    9000005    2    1    2  501    0  0.14725222171E+02  0.72056674549E+01 -0.96937658286E+03  0.10222201196E+04  0.32399731436E+03 0.  0.
         13    1    3    3    0    0  0.15750531265E+03  0.47257882774E+02 -0.64368319439E+03  0.66435629427E+03  0.00000000000E+00 0.  1.
          3    1    3    3  501    0 -0.14278009048E+03 -0.40052215319E+02 -0.32569338848E+03  0.35786382534E+03  0.00000000000E+00 0.  1.
         21    1    1    2  502  501 -0.14725222171E+02 -0.72056674549E+01  0.11789324457E+02  0.20192621984E+02  0.00000000000E+00 0.  1.
<mgrwt>
<rscale>  1 0.30000000E+03</rscale>
<asrwt>0</asrwt>
<pdfrwt beam="1">  1        1 0.15422848E+00 0.30000000E+03</pdfrwt>
<pdfrwt beam="2">0</pdfrwt>
<totfact> 0.17101929E+01</totfact>
</mgrwt>
</event>
<event>
 6    1  0.1939311E-004  0.3000000E+03  0.7818608E-02  0.1093470E+00
          1   -1    0    0  502    0  0.00000000000E+00  0.00000000000E+00  0.52516333662E+02  0.52516333662E+02  0.00000000000E+00 0.  1.
         13   -1    0    0    0    0 -0.00000000000E+00 -0.00000000000E+00 -0.10000000000E+04  0.10000000000E+04  0.00000000000E+00 0.  1.
    9000005    2    1    2  501    0 -0.35770509707E+02  0.10837972350E+03 -0.66431106692E+03  0.74720925072E+03  0.32246980774E+03 0.  0.
         13    1    3    3    0    0 -0.81460705851E+02  0.82679638057E+02 -0.68205888180E+03  0.69186421167E+03  0.00000000000E+00 0.  1.
          1    1    3    3  501    0  0.45690196144E+02  0.25700085444E+02  0.17747814876E+02  0.55345039058E+02  0.00000000000E+00 0.  1.
         21    1    1    2  502  501  0.35770509707E+02 -0.10837972350E+03 -0.28317259942E+03  0.30530708294E+03  0.00000000000E+00 0.  1.
<mgrwt>
<rscale>  1 0.30000000E+03</rscale>
<asrwt>0</asrwt>
<pdfrwt beam="1">  1        1 0.19096889E+00 0.30000000E+03</pdfrwt>
<pdfrwt beam="2">0</pdfrwt>
<totfact> 0.11312267E+01</totfact>
</mgrwt>
</event>
<event>
 6    1  0.1939311E-004  0.3000000E+03  0.7818608E-02  0.1093470E+00
          1   -1    0    0  502    0  0.00000000000E+00  0.00000000000E+00  0.27139080239E+02  0.27139080239E+02  0.00000000000E+00 0.  1.
         13   -1    0    0    0    0 -0.00000000000E+00 -0.00000000000E+00 -0.10000000000E+04  0.10000000000E+04  0.00000000000E+00 0.  1.
    9000005    2    1    2  501    0  0.10266075952E+02  0.14398978916E+02 -0.95360169573E+03  0.10009925581E+04  0.30383743084E+03 0.  0.
         13    1    3    3    0    0 -0.77360812646E+02  0.13329254064E+03 -0.42226234588E+03  0.44950760335E+03  0.00000000000E+00 0.  1.
          3    1    3    3  501    0  0.87626888597E+02 -0.11889356172E+03 -0.53133934985E+03  0.55148495476E+03  0.00000000000E+00 0.  1.
         21    1    1    2  502  501 -0.10266075952E+02 -0.14398978916E+02 -0.19259224036E+02  0.26146522134E+02  0.00000000000E+00 0.  1.
<mgrwt>
<rscale>  1 0.30000000E+03</rscale>
<asrwt>0</asrwt>
<pdfrwt beam="1">  1        1 0.98687773E-01 0.30000000E+03</pdfrwt>
<pdfrwt beam="2">0</pdfrwt>
<totfact> 0.34893038E+01</totfact>
</mgrwt>
</event>
<event>
 6    1  0.1939311E-004  0.3000000E+03  0.7818608E-02  0.1093470E+00
          1   -1    0    0  502    0  0.00000000000E+00  0.00000000000E+00  0.43195254826E+02  0.43195254826E+02  0.00000000000E+00 0.  1.
         13   -1    0    0    0    0 -0.00000000000E+00 -0.00000000000E+00 -0.10000000000E+04  0.10000000000E+04  0.00000000000E+00 0.  1.
    9000005    2    1    2  501    0 -0.42477784794E+02 -0.52207427458E+01 -0.93792909965E+03  0.99642017225E+03  0.33363235057E+03 0.  0.
         13    1    3    3    0    0 -0.14733274846E+03  0.44803503127E+02 -0.80621764861E+03  0.82079302482E+03  0.00000000000E+00 0.  1.
          1    1    3    3  501    0  0.10485496367E+03 -0.50024245872E+02 -0.13171145104E+03  0.17562714744E+03  0.00000000000E+00 0.  1.
         21    1    1    2  502  501  0.42477784794E+02  0.52207427458E+01 -0.18875645524E+02  0.46775082573E+02  0.00000000000E+00 0.  1.
<mgrwt>
<rscale>  1 0.30000000E+03</rscale>
<asrwt>0</asrwt>
<pdfrwt beam="1">  1        1 0.15707399E+00 0.30000000E+03</pdfrwt>
<pdfrwt beam="2">0</pdfrwt>
<totfact> 0.16549332E+01</totfact>
</mgrwt>
</event>
<event>
 6    1  0.1939311E-004  0.3000000E+03  0.7818608E-02  0.1093470E+00
          1   -1    0    0  502    0  0.00000000000E+00  0.00000000000E+00  0.42897439210E+02  0.42897439210E+02  0.00000000000E+00 0.  1.
         13   -1    0    0    0    0 -0.00000000000E+00 -0.00000000000E+00 -0.10000000000E+04  0.10000000000E+04  0.00000000000E+00 0.  1.
    9000005    2    1    2  501    0 -0.28975528210E+02  0.23241833810E+02 -0.95109366141E+03  0.10052693786E+04  0.32343099217E+03 0.  0.
         13    1    3    3    0    0 -0.93052026612E+02  0.15333106295E+03 -0.56815168382E+03  0.59578975348E+03  0.00000000000E+00 0.  1.
          3    1    3    3  501    0  0.64076498402E+02 -0.13008922914E+03 -0.38294197759E+03  0.40947962511E+03  0.00000000000E+00 0.  1.
         21    1    1    2  502  501  0.28975528210E+02 -0.23241833810E+02 -0.60088993823E+01  0.37628060615E+02  0.00000000000E+00 0. -1.
<mgrwt>
<rscale>  1 0.30000000E+03</rscale>
<asrwt>0</asrwt>
<pdfrwt beam="1">  1        1 0.15599102E+00 0.30000000E+03</pdfrwt>
<pdfrwt beam="2">0</pdfrwt>
<totfact> 0.16757091E+01</totfact>
</mgrwt>
</event>
<event>
 6    1  0.1939311E-004  0.3000000E+03  0.7818608E-02  0.1093470E+00
          1   -1    0    0  502    0  0.00000000000E+00  0.00000000000E+00  0.51335951208E+02  0.51335951208E+02  0.00000000000E+00 0.  1.
         13   -1    0    0    0    0 -0.00000000000E+00 -0.00000000000E+00 -0.10000000000E+04  0.10000000000E+04  0.00000000000E+00 0.  1.
    9000005    2    1    2  501    0  0.18187137851E+01 -0.10070140697E+02 -0.97558438248E+03  0.10225363016E+04  0.30612233701E+03 0.  0.
         13    1    3    3    0    0 -0.16453438518E+02 -0.10313103347E+03 -0.88581523410E+03  0.89195030953E+03  0.00000000000E+00 0.  1.
          1    1    3    3  501    0  0.18272152303E+02  0.93060892776E+02 -0.89769148382E+02  0.13058599203E+03  0.00000000000E+00 0.  1.
         21    1    1    2  502  501 -0.18187137851E+01  0.10070140697E+02  0.26920333693E+02  0.28799649644E+02  0.00000000000E+00 0. -1.
<mgrwt>
<rscale>  1 0.30000000E+03</rscale>
<asrwt>0</asrwt>
<pdfrwt beam="1">  1        1 0.18667658E+00 0.30000000E+03</pdfrwt>
<pdfrwt beam="2">0</pdfrwt>
<totfact> 0.11862131E+01</totfact>
</mgrwt>
</event>
<event>
 6    1  0.1939311E-004  0.3000000E+03  0.7818608E-02  0.1093470E+00
          1   -1    0    0  502    0  0.00000000000E+00  0.00000000000E+00  0.28564615228E+02  0.28564615228E+02  0.00000000000E+00 0.  1.
         13   -1    0    0    0    0 -0.00000000000E+00 -0.00000000000E+00 -0.10000000000E+04  0.10000000000E+04  0.00000000000E+00 0.  1.
    9000005    2    1    2  501    0  0.12104818675E+02 -0.87531842235E+01 -0.96613857868E+03  0.10127152927E+04  0.30322494294E+03 0.  0.
         13    1    3    3    0    0  0.10639553526E+03 -0.11817081728E+03 -0.49077612736E+03  0.51589297259E+03  0.00000000000E+00 0.  1.
          3    1    3    3  501    0 -0.94290716580E+02  0.10941763305E+03 -0.47536245132E+03  0.49682232013E+03  0.00000000000E+00 0.  1.
         21    1    1    2  502  501 -0.12104818675E+02  0.87531842235E+01 -0.52968060925E+01  0.15849322509E+02  0.00000000000E+00 0.  1.
<mgrwt>
<rscale>  1 0.30000000E+03</rscale>
<asrwt>0</asrwt>
<pdfrwt beam="1">  1        1 0.10387155E+00 0.30000000E+03</pdfrwt>
<pdfrwt beam="2">0</pdfrwt>
<totfact> 0.32367095E+01</totfact>
</mgrwt>
</event>
<event>
 6    1  0.1939311E-004  0.3000000E+03  0.7818608E-02  0.1093470E+00
          1   -1    0    0  502    0  0.00000000000E+00  0.00000000000E+00  0.30396493325E+02  0.30396493325E+02  0.00000000000E+00 0.  1.
         13   -1    0    0    0    0 -0.00000000000E+00 -0.00000000000E+00 -0.10000000000E+04  0.10000000000E+04  0.00000000000E+00 0.  1.
    9000005    2    1    2  501    0  0.25039599646E+02 -0.17268055171E+02 -0.85884260056E+03  0.91553507420E+03  0.31570348790E+03 0.  0.
         13    1    3    3    0    0 -0.58512221945E+02 -0.97825919444E+02 -0.74250313952E+03  0.75120203862E+03  0.00000000000E+00 0.  1.
          1    1    3    3  501    0  0.83551821591E+02  0.80557864273E+02 -0.11633946104E+03  0.16433303558E+03  0.00000000000E+00 0.  1.
         21    1    1    2  502  501 -0.25039599646E+02  0.17268055171E+02 -0.11076090612E+03  0.11486141913E+03  0.00000000000E+00 0.  1.
<mgrwt>
<rscale>  1 0.30000000E+03</rscale>
<asrwt>0</asrwt>
<pdfrwt beam="1">  1        1 0.11053294E+00 0.30000000E+03</pdfrwt>
<pdfrwt beam="2">0</pdfrwt>
<totfact> 0.29493463E+01</totfact>
</mgrwt>
</event>
<event>
 6    1  0.1939311E-004  0.3000000E+03  0.7818608E-02  0.1093470E+00
          1   -1    0    0  502    0  0.00000000000E+00  0.00000000000E+00  0.62301980221E+02  0.62301980221E+02  0.00000000000E+00 0.  1.
         13   -1    0    0    0    0 -0.00000000000E+00 -0.00000000000E+00 -0.10000000000E+04  0.10000000000E+04  0.00000000000E+00 0.  1.
    9000005    2    1    2  501    0 -0.12657549323E+02 -0.11338251507E+02 -0.96981358143E+03  0.10259677154E+04  0.33433905060E+03 0.  0.
         13    1    3    3    0    0  0.69220045254E+02  0.97552856084E+02 -0.13609131661E+03  0.18118725356E+03  0.00000000000E+00 0.  1.
          3    1    3    3  501    0 -0.81877594577E+02 -0.10889110759E+03 -0.83372226482E+03  0.84478046181E+03  0.00000000000E+00 0.  1.
         21    1    1    2  502  501  0.12657549323E+02  0.11338251507E+02  0.32115561650E+02  0.36334264850E+02  0.00000000000E+00 0. -1.
<mgrwt>
<rscale>  1 0.30000000E+03</rscale>
<asrwt>0</asrwt>
<pdfrwt beam="1">  1        1 0.22655313E+00 0.30000000E+03</pdfrwt>
<pdfrwt beam="2">0</pdfrwt>
<totfact> 0.76806302E+00</totfact>
</mgrwt>
</event>
<event>
 6    1  0.1939311E-004  0.3000000E+03  0.7818608E-02  0.1093470E+00
          1   -1    0    0  502    0  0.00000000000E+00  0.00000000000E+00  0.48492787188E+02  0.48492787188E+02  0.00000000000E+00 0.  1.
         13   -1    0    0    0    0 -0.00000000000E+00 -0.00000000000E+00 -0.10000000000E+04  0.10000000000E+04  0.00000000000E+00 0.  1.
    9000005    2    1    2  501    0 -0.76661712171E+01  0.19536584634E+02 -0.96007366918E+03  0.10258249136E+04  0.36074208889E+03 0.  0.
         13    1    3    3    0    0 -0.14154763472E+03  0.12313793169E+03 -0.42390693587E+03  0.46356852071E+03  0.00000000000E+00 0.  1.
          1    1    3    3  501    0  0.13388146350E+03 -0.10360134706E+03 -0.53616673331E+03  0.56225639285E+03  0.00000000000E+00 0.  1.
         21    1    1    2  502  501  0.76661712171E+01 -0.19536584634E+02  0.85664563697E+01  0.22667873633E+02  0.00000000000E+00 0.  1.
<mgrwt>
<rscale>  1 0.30000000E+03</rscale>
<asrwt>0</asrwt>
<pdfrwt beam="1">  1        1 0.17633778E+00 0.30000000E+03</pdfrwt>
<pdfrwt beam="2">0</pdfrwt>
<totfact> 0.13307252E+01</totfact>
</mgrwt>
</event>
<event>
 6    1  0.1939311E-004  0.3000000E+03  0.7818608E-02  0.1093470E+00
          1   -1    0    0  502    0  0.00000000000E+00  0.00000000000E+00  0.33406055920E+02  0.33406055920E+02  0.00000000000E+00 0.  1.
         13   -1    0    0    0    0 -0.00000000000E+00 -0.00000000000E+00 -0.10000000000E+04  0.10000000000E+04  0.00000000000E+00 0.  1.
    9000005    2    1    2  501    0 -0.55422661324E+01  0.10964839133E+02 -0.96865451179E+03  0.10209485140E+04  0.32232493021E+03 0.  0.
         13    1    3    3    0    0 -0.74272400339E+02  0.14700548157E+03 -0.40917993086E+03  0.44108413810E+03  0.00000000000E+00 0.  1.
          1    1    3    3  501    0  0.68730134206E+02 -0.13604064244E+03 -0.55947458094E+03  0.57986437592E+03  0.00000000000E+00 0.  1.
         21    1    1    2  502  501  0.55422661324E+01 -0.10964839133E+02  0.20605677146E+01  0.12457541908E+02  0.00000000000E+00 0.  1.
<mgrwt>
<rscale>  1 0.30000000E+03</rscale>
<asrwt>0</asrwt>
<pdfrwt beam="1">  1        1 0.12147682E+00 0.30000000E+03</pdfrwt>
<pdfrwt beam="2">0</pdfrwt>
<totfact> 0.25502536E+01</totfact>
</mgrwt>
</event>
<event>
 6    1  0.1939311E-004  0.3000000E+03  0.7818608E-02  0.1093470E+00
          1   -1    0    0  502    0  0.00000000000E+00  0.00000000000E+00  0.33943174255E+02  0.33943174255E+02  0.00000000000E+00 0.  1.
         13   -1    0    0    0    0 -0.00000000000E+00 -0.00000000000E+00 -0.10000000000E+04  0.10000000000E+04  0.00000000000E+00 0.  1.
    9000005    2    1    2  501    0 -0.32463335944E+02  0.56064130756E+01 -0.93555799851E+03  0.98904909323E+03  0.31916146415E+03 0.  0.
         13    1    3    3    0    0  0.55202840927E+02 -0.32799078213E+02 -0.18240556245E+02  0.66752161539E+02  0.00000000000E+00 0.  1.
          1    1    3    3  501    0 -0.87666176871E+02  0.38405491289E+02 -0.91731744226E+03  0.92229693169E+03  0.00000000000E+00 0.  1.
         21    1    1    2  502  501  0.32463335944E+02 -0.56064130756E+01 -0.30498827236E+02  0.44894081023E+02  0.00000000000E+00 0.  1.
<mgrwt>
<rscale>  1 0.30000000E+03</rscale>
<asrwt>0</asrwt>
<pdfrwt beam="1">  1        1 0.12342998E+00 0.30000000E+03</pdfrwt>
<pdfrwt beam="2">0</pdfrwt>
<totfact> 0.24868694E+01</totfact>
</mgrwt>
</event>
<event>
 6    1  0.1939311E-004  0.3000000E+03  0.7818608E-02  0.1093470E+00
          1   -1    0    0  502    0  0.00000000000E+00  0.00000000000E+00  0.28941120284E+02  0.28941120284E+02  0.00000000000E+00 0.  1.
         13   -1    0    0    0    0 -0.00000000000E+00 -0.00000000000E+00 -0.10000000000E+04  0.10000000000E+04  0.00000000000E+00 0.  1.
    9000005    2    1    2  501    0  0.92402037809E+01  0.62078882203E+01 -0.94593558484E+03  0.10014620521E+04  0.32864599787E+03 0.  0.
         13    1    3    3    0    0 -0.13212192156E+03  0.74227885205E+02 -0.63943138531E+03  0.65714418327E+03  0.00000000000E+00 0.  1.
          3    1    3    3  501    0  0.14136212534E+03 -0.68019996985E+02 -0.30650419953E+03  0.34431786884E+03  0.00000000000E+00 0.  1.
         21    1    1    2  502  501 -0.92402037809E+01 -0.62078882203E+01 -0.25123294877E+02  0.27479068171E+02  0.00000000000E+00 0.  1.
<mgrwt>
<rscale>  1 0.30000000E+03</rscale>
<asrwt>0</asrwt>
<pdfrwt beam="1">  1        1 0.10524066E+00 0.30000000E+03</pdfrwt>
<pdfrwt beam="2">0</pdfrwt>
<totfact> 0.31744563E+01</totfact>
</mgrwt>
</event>
<event>
 6    1  0.1939311E-004  0.3000000E+03  0.7818608E-02  0.1093470E+00
          3   -1    0    0  502    0  0.00000000000E+00  0.00000000000E+00  0.31128222058E+02  0.31128222058E+02  0.00000000000E+00 0.  1.
         13   -1    0    0    0    0 -0.00000000000E+00 -0.00000000000E+00 -0.10000000000E+04  0.10000000000E+04  0.00000000000E+00 0.  1.
    9000005    2    1    2  501    0  0.12522490114E+02 -0.64241329655E+01 -0.96348831333E+03  0.10160595813E+04  0.32228754333E+03 0.  0.
         13    1    3    3    0    0  0.81250116870E+01  0.57585423607E+02 -0.94835775224E+03  0.95013921246E+03  0.00000000000E+00 0.  1.
          1    1    3    3  501    0  0.43974784268E+01 -0.64009556573E+02 -0.15130561095E+02  0.65920368842E+02  0.00000000000E+00 0.  1.
         21    1    1    2  502  501 -0.12522490114E+02  0.64241329655E+01 -0.53834646080E+01  0.15068640755E+02  0.00000000000E+00 0.  1.
<mgrwt>
<rscale>  1 0.30000000E+03</rscale>
<asrwt>0</asrwt>
<pdfrwt beam="1">  1        3 0.11319377E+00 0.30000000E+03</pdfrwt>
<pdfrwt beam="2">0</pdfrwt>
<totfact> 0.27709844E+00</totfact>
</mgrwt>
</event>
<event>
 6    1  0.1939311E-004  0.3000000E+03  0.7818608E-02  0.1093470E+00
          1   -1    0    0  502    0  0.00000000000E+00  0.00000000000E+00  0.28796566649E+02  0.28796566649E+02  0.00000000000E+00 0.  1.
         13   -1    0    0    0    0 -0.00000000000E+00 -0.00000000000E+00 -0.10000000000E+04  0.10000000000E+04  0.00000000000E+00 0.  1.
    9000005    2    1    2  501    0  0.12781645636E+02  0.14872138260E+01 -0.93475047206E+03  0.99013908798E+03  0.32626888644E+03 0.  0.
         13    1    3    3    0    0 -0.60396595325E+02  0.10747111517E+03 -0.14664442632E+03  0.19157864467E+03  0.00000000000E+00 0.  1.
          3    1    3    3  501    0  0.73178240961E+02 -0.10598390134E+03 -0.78810604574E+03  0.79856044331E+03  0.00000000000E+00 0.  1.
         21    1    1    2  502  501 -0.12781645636E+02 -0.14872138260E+01 -0.36452961292E+02  0.38657478670E+02  0.00000000000E+00 0.  1.
<mgrwt>
<rscale>  1 0.30000000E+03</rscale>
<asrwt>0</asrwt>
<pdfrwt beam="1">  1        1 0.10471501E+00 0.30000000E+03</pdfrwt>
<pdfrwt beam="2">0</pdfrwt>
<totfact> 0.31981506E+01</totfact>
</mgrwt>
</event>
<event>
 6    1  0.1939311E-004  0.3000000E+03  0.7818608E-02  0.1093470E+00
          1   -1    0    0  502    0  0.00000000000E+00  0.00000000000E+00  0.24528342338E+02  0.24528342338E+02  0.00000000000E+00 0.  1.
         13   -1    0    0    0    0 -0.00000000000E+00 -0.00000000000E+00 -0.10000000000E+04  0.10000000000E+04  0.00000000000E+00 0.  1.
    9000005    2    1    2  501    0  0.48243054999E+01 -0.57984719503E+01 -0.95172469644E+03  0.99961219561E+03  0.30559408960E+03 0.  0.
         13    1    3    3    0    0 -0.13980169699E+03  0.35614303624E+02 -0.33386211647E+03  0.36369878460E+03  0.00000000000E+00 0.  1.
          3    1    3    3  501    0  0.14462600249E+03 -0.41412775575E+02 -0.61786257997E+03  0.63591341101E+03  0.00000000000E+00 0.  1.
         21    1    1    2  502  501 -0.48243054999E+01  0.57984719503E+01 -0.23746961223E+02  0.24916146729E+02  0.00000000000E+00 0.  1.
<mgrwt>
<rscale>  1 0.30000000E+03</rscale>
<asrwt>0</asrwt>
<pdfrwt beam="1">  1        1 0.89194160E-01 0.30000000E+03</pdfrwt>
<pdfrwt beam="2">0</pdfrwt>
<totfact> 0.40342393E+01</totfact>
</mgrwt>
</event>
<event>
 6    1  0.1939311E-004  0.3000000E+03  0.7818608E-02  0.1093470E+00
          3   -1    0    0  502    0  0.00000000000E+00  0.00000000000E+00  0.35958841283E+02  0.35958841283E+02  0.00000000000E+00 0.  1.
         13   -1    0    0    0    0 -0.00000000000E+00 -0.00000000000E+00 -0.10000000000E+04  0.10000000000E+04  0.00000000000E+00 0.  1.
    9000005    2    1    2  501    0 -0.28294757764E+02  0.19542781379E+02 -0.91925758383E+03  0.97949573651E+03  0.33644446613E+03 0.  0.
         13    1    3    3    0    0  0.86678016557E+02 -0.10139582042E+03 -0.19498123701E+03  0.23624536765E+03  0.00000000000E+00 0.  1.
          1    1    3    3  501    0 -0.11497277432E+03  0.12093860180E+03 -0.72427634683E+03  0.74325036886E+03  0.00000000000E+00 0.  1.
         21    1    1    2  502  501  0.28294757764E+02 -0.19542781379E+02 -0.44783574884E+02  0.56463104770E+02  0.00000000000E+00 0. -1.
<mgrwt>
<rscale>  1 0.30000000E+03</rscale>
<asrwt>0</asrwt>
<pdfrwt beam="1">  1        3 0.13075970E+00 0.30000000E+03</pdfrwt>
<pdfrwt beam="2">0</pdfrwt>
<totfact> 0.17334488E+00</totfact>
</mgrwt>
</event>
<event>
 6    1  0.1939311E-004  0.3000000E+03  0.7818608E-02  0.1093470E+00
          3   -1    0    0  502    0  0.00000000000E+00  0.00000000000E+00  0.33146417076E+02  0.33146417076E+02  0.00000000000E+00 0.  1.
         13   -1    0    0    0    0 -0.00000000000E+00 -0.00000000000E+00 -0.10000000000E+04  0.10000000000E+04  0.00000000000E+00 0.  1.
    9000005    2    1    2  501    0  0.18815303857E+02  0.16200455175E+02 -0.94134784657E+03  0.99755129109E+03  0.32917524162E+03 0.  0.
         13    1    3    3    0    0  0.74440625231E+02  0.11532854870E+03 -0.17300395712E+03  0.22084485506E+03  0.00000000000E+00 0.  1.
          3    1    3    3  501    0 -0.55625321373E+02 -0.99128093520E+02 -0.76834388946E+03  0.77670643603E+03  0.00000000000E+00 0.  1.
         21    1    1    2  502  501 -0.18815303857E+02 -0.16200455175E+02 -0.25505736350E+02  0.35595125985E+02  0.00000000000E+00 0.  1.
<mgrwt>
<rscale>  1 0.30000000E+03</rscale>
<asrwt>0</asrwt>
<pdfrwt beam="1">  1        3 0.12053268E+00 0.30000000E+03</pdfrwt>
<pdfrwt beam="2">0</pdfrwt>
<totfact> 0.22803209E+00</totfact>
</mgrwt>
</event>
<event>
 6    1  0.1939311E-004  0.3000000E+03  0.7818608E-02  0.1093470E+00
          1   -1    0    0  502    0  0.00000000000E+00  0.00000000000E+00  0.40695537291E+02  0.40695537291E+02  0.00000000000E+00 0.  1.
         13   -1    0    0    0    0 -0.00000000000E+00 -0.00000000000E+00 -0.10000000000E+04  0.10000000000E+04  0.00000000000E+00 0.  1.
    9000005    2    1    2  501    0 -0.61657368752E+02  0.30752490070E+02 -0.86149374159E+03  0.92105322065E+03  0.31846541679E+03 0.  0.
         13    1    3    3    0    0  0.34486575968E+02 -0.30227720602E+02  0.58844125466E+01  0.46234892947E+02  0.00000000000E+00 0.  1.
          3    1    3    3  501    0 -0.96143944721E+02  0.60980210672E+02 -0.86737815414E+03  0.87481832770E+03  0.00000000000E+00 0.  1.
         21    1    1    2  502  501  0.61657368752E+02 -0.30752490070E+02 -0.97810721115E+02  0.11964231664E+03  0.00000000000E+00 0.  1.
<mgrwt>
<rscale>  1 0.30000000E+03</rscale>
<asrwt>0</asrwt>
<pdfrwt beam="1">  1        1 0.14798408E+00 0.30000000E+03</pdfrwt>
<pdfrwt beam="2">0</pdfrwt>
<totfact> 0.18395268E+01</totfact>
</mgrwt>
</event>
<event>
 6    1  0.1939311E-004  0.3000000E+03  0.7818608E-02  0.1093470E+00
          1   -1    0    0  502    0  0.00000000000E+00  0.00000000000E+00  0.32891341816E+02  0.32891341816E+02  0.00000000000E+00 0.  1.
         13   -1    0    0    0    0 -0.00000000000E+00 -0.00000000000E+00 -0.10000000000E+04  0.10000000000E+04  0.00000000000E+00 0.  1.
    9000005    2    1    2  501    0  0.13619603310E+01 -0.10054417710E+02 -0.96771626527E+03  0.10227269216E+04  0.33074558183E+03 0.  0.
         13    1    3    3    0    0 -0.17559947455E+02  0.10299711977E+03 -0.91019996890E+02  0.13856911008E+03  0.00000000000E+00 0.  1.
          3    1    3    3  501    0  0.18921907786E+02 -0.11305153748E+03 -0.87669626838E+03  0.88415781154E+03  0.00000000000E+00 0.  1.
         21    1    1    2  502  501 -0.13619603310E+01  0.10054417710E+02  0.60760708590E+00  0.10164420190E+02  0.00000000000E+00 0. -1.
<mgrwt>
<rscale>  1 0.30000000E+03</rscale>
<asrwt>0</asrwt>
<pdfrwt beam="1">  1        1 0.11960513E+00 0.30000000E+03</pdfrwt>
<pdfrwt beam="2">0</pdfrwt>
<totfact> 0.26130126E+01</totfact>
</mgrwt>
</event>
<event>
 6    1  0.1939311E-004  0.3000000E+03  0.7818608E-02  0.1093470E+00
          1   -1    0    0  502    0  0.00000000000E+00  0.00000000000E+00  0.40092795474E+02  0.40092795474E+02  0.00000000000E+00 0.  1.
         13   -1    0    0    0    0 -0.00000000000E+00 -0.00000000000E+00 -0.10000000000E+04  0.10000000000E+04  0.00000000000E+00 0.  1.
    9000005    2    1    2  501    0 -0.17641778609E+02 -0.93163482478E+01 -0.96834445361E+03  0.10184314504E+04  0.31482314350E+03 0.  0.
         13    1    3    3    0    0  0.14396051076E+03 -0.14723048105E+02 -0.57978179562E+03  0.59756868002E+03  0.00000000000E+00 0.  1.
          3    1    3    3  501    0 -0.16160228937E+03  0.54066998572E+01 -0.38856265799E+03  0.42086277041E+03  0.00000000000E+00 0.  1.
         21    1    1    2  502  501  0.17641778609E+02  0.93163482478E+01  0.84372490830E+01  0.21661345048E+02  0.00000000000E+00 0.  1.
<mgrwt>
<rscale>  1 0.30000000E+03</rscale>
<asrwt>0</asrwt>
<pdfrwt beam="1">  1        1 0.14579229E+00 0.30000000E+03</pdfrwt>
<pdfrwt beam="2">0</pdfrwt>
<totfact> 0.18877847E+01</totfact>
</mgrwt>
</event>
<event>
 6    1  0.1939311E-004  0.3000000E+03  0.7818608E-02  0.1093470E+00
          1   -1    0    0  502    0  0.00000000000E+00  0.00000000000E+00  0.29824312167E+02  0.29824312167E+02  0.00000000000E+00 0.  1.
         13   -1    0    0    0    0 -0.00000000000E+00 -0.00000000000E+00 -0.10000000000E+04  0.10000000000E+04  0.00000000000E+00 0.  1.
    9000005    2    1    2  501    0 -0.81861845270E+01  0.32564890424E+01 -0.95161118114E+03  0.10092753646E+04  0.33614774006E+03 0.  0.
         13    1    3    3    0    0 -0.15051326607E+03  0.66819161393E+02 -0.33529296752E+03  0.37355109110E+03  0.00000000000E+00 0.  1.
          3    1    3    3  501    0  0.14232708155E+03 -0.63562672350E+02 -0.61631821361E+03  0.63572427348E+03  0.00000000000E+00 0.  1.
         21    1    1    2  502  501  0.81861845270E+01 -0.32564890424E+01 -0.18564506696E+02  0.20548947585E+02  0.00000000000E+00 0. -1.
<mgrwt>
<rscale>  1 0.30000000E+03</rscale>
<asrwt>0</asrwt>
<pdfrwt beam="1">  1        1 0.10845227E+00 0.30000000E+03</pdfrwt>
<pdfrwt beam="2">0</pdfrwt>
<totfact> 0.30350377E+01</totfact>
</mgrwt>
</event>
<event>
 6    1  0.1939311E-004  0.3000000E+03  0.7818608E-02  0.1093470E+00
          3   -1    0    0  502    0  0.00000000000E+00  0.00000000000E+00  0.27448266150E+02  0.27448266150E+02  0.00000000000E+00 0.  1.
         13   -1    0    0    0    0 -0.00000000000E+00 -0.00000000000E+00 -0.10000000000E+04  0.10000000000E+04  0.00000000000E+00 0.  1.
    9000005    2    1    2  501    0 -0.86047744134E+01 -0.11922212284E+02 -0.96038745777E+03  0.10083655279E+04  0.30698662418E+03 0.  0.
         13    1    3    3    0    0 -0.55555410577E+02 -0.58630748694E+02 -0.93333932743E+03  0.93682776884E+03  0.00000000000E+00 0.  1.
          1    1    3    3  501    0  0.46950636164E+02  0.46708536411E+02 -0.27048130340E+02  0.71537759014E+02  0.00000000000E+00 0.  1.
         21    1    1    2  502  501  0.86047744134E+01  0.11922212284E+02 -0.12164276077E+02  0.19082738297E+02  0.00000000000E+00 0. -1.
<mgrwt>
<rscale>  1 0.30000000E+03</rscale>
<asrwt>0</asrwt>
<pdfrwt beam="1">  1        3 0.99812087E-01 0.30000000E+03</pdfrwt>
<pdfrwt beam="2">0</pdfrwt>
<totfact> 0.39364200E+00</totfact>
</mgrwt>
</event>
<event>
 6    1  0.1939311E-004  0.3000000E+03  0.7818608E-02  0.1093470E+00
          1   -1    0    0  502    0  0.00000000000E+00  0.00000000000E+00  0.28387276298E+02  0.28387276298E+02  0.00000000000E+00 0.  1.
         13   -1    0    0    0    0 -0.00000000000E+00 -0.00000000000E+00 -0.10000000000E+04  0.10000000000E+04  0.00000000000E+00 0.  1.
    9000005    2    1    2  501    0 -0.13692252064E+02 -0.23708932768E+01 -0.94733745425E+03  0.10004160838E+04  0.32123354378E+03 0.  0.
         13    1    3    3    0    0  0.14545624000E+03  0.29406806364E+02 -0.58259134696E+03  0.60119460707E+03  0.00000000000E+00 0.  1.
          1    1    3    3  501    0 -0.15914849206E+03 -0.31777699640E+02 -0.36474610728E+03  0.39922147675E+03  0.00000000000E+00 0.  1.
         21    1    1    2  502  501  0.13692252064E+02  0.23708932768E+01 -0.24275269453E+02  0.27971192476E+02  0.00000000000E+00 0.  1.
<mgrwt>
<rscale>  1 0.30000000E+03</rscale>
<asrwt>0</asrwt>
<pdfrwt beam="1">  1        1 0.10322668E+00 0.30000000E+03</pdfrwt>
<pdfrwt beam="2">0</pdfrwt>
<totfact> 0.32666470E+01</totfact>
</mgrwt>
</event>
<event>
 6    1  0.1939311E-004  0.3000000E+03  0.7818608E-02  0.1093470E+00
          1   -1    0    0  502    0  0.00000000000E+00  0.00000000000E+00  0.56115559685E+02  0.56115559685E+02  0.00000000000E+00 0.  1.
         13   -1    0    0    0    0 -0.00000000000E+00 -0.00000000000E+00 -0.10000000000E+04  0.10000000000E+04  0.00000000000E+00 0.  1.
    9000005    2    1    2  501    0 -0.96892798701E+01 -0.15488553514E+02 -0.97118538906E+03  0.10232656094E+04  0.32177269917E+03 0.  0.
         13    1    3    3    0    0 -0.15258632809E+03 -0.52723755995E+02 -0.36078514158E+03  0.39525725844E+03  0.00000000000E+00 0.  1.
          3    1    3    3  501    0  0.14289704822E+03  0.37235202481E+02 -0.61040024748E+03  0.62800835091E+03  0.00000000000E+00 0.  1.
         21    1    1    2  502  501  0.96892798701E+01  0.15488553514E+02  0.27300948744E+02  0.32849950330E+02  0.00000000000E+00 0. -1.
<mgrwt>
<rscale>  1 0.30000000E+03</rscale>
<asrwt>0</asrwt>
<pdfrwt beam="1">  1        1 0.20405701E+00 0.30000000E+03</pdfrwt>
<pdfrwt beam="2">0</pdfrwt>
<totfact> 0.97990647E+00</totfact>
</mgrwt>
</event>
<event>
 6    1  0.1939311E-004  0.3000000E+03  0.7818608E-02  0.1093470E+00
          1   -1    0    0  502    0  0.00000000000E+00  0.00000000000E+00  0.35487366787E+02  0.35487366787E+02  0.00000000000E+00 0.  1.
         13   -1    0    0    0    0 -0.00000000000E+00 -0.00000000000E+00 -0.10000000000E+04  0.10000000000E+04  0.00000000000E+00 0.  1.
    9000005    2    1    2  501    0  0.27700826596E+02  0.15386407659E+02 -0.93889393954E+03  0.99473942451E+03  0.32707891345E+03 0.  0.
         13    1    3    3    0    0 -0.19800861642E+00 -0.11362310774E+03 -0.11993046717E+03  0.16520764745E+03  0.00000000000E+00 0.  1.
          1    1    3    3  501    0  0.27898835212E+02  0.12900951540E+03 -0.81896347237E+03  0.82953177706E+03  0.00000000000E+00 0.  1.
         21    1    1    2  502  501 -0.27700826596E+02 -0.15386407659E+02 -0.25618693670E+02  0.40747942280E+02  0.00000000000E+00 0.  1.
<mgrwt>
<rscale>  1 0.30000000E+03</rscale>
<asrwt>0</asrwt>
<pdfrwt beam="1">  1        1 0.12904524E+00 0.30000000E+03</pdfrwt>
<pdfrwt beam="2">0</pdfrwt>
<totfact> 0.23155792E+01</totfact>
</mgrwt>
</event>
<event>
 6    1  0.1939311E-004  0.3000000E+03  0.7818608E-02  0.1093470E+00
          1   -1    0    0  502    0  0.00000000000E+00  0.00000000000E+00  0.44443292044E+02  0.44443292044E+02  0.00000000000E+00 0.  1.
         13   -1    0    0    0    0 -0.00000000000E+00 -0.00000000000E+00 -0.10000000000E+04  0.10000000000E+04  0.00000000000E+00 0.  1.
    9000005    2    1    2  501    0 -0.23420350107E+02 -0.36943564999E+01 -0.96678842788E+03  0.10182075797E+04  0.31859794416E+03 0.  0.
         13    1    3    3    0    0 -0.21655039766E+02  0.99661525478E+02 -0.92056979344E+02  0.13738940226E+03  0.00000000000E+00 0.  1.
          1    1    3    3  501    0 -0.17653103410E+01 -0.10335588198E+03 -0.87473144854E+03  0.88081817745E+03  0.00000000000E+00 0.  1.
         21    1    1    2  502  501  0.23420350107E+02  0.36943564999E+01  0.11231719928E+02  0.26235712333E+02  0.00000000000E+00 0. -1.
<mgrwt>
<rscale>  1 0.30000000E+03</rscale>
<asrwt>0</asrwt>
<pdfrwt beam="1">  1        1 0.16161231E+00 0.30000000E+03</pdfrwt>
<pdfrwt beam="2">0</pdfrwt>
<totfact> 0.15711042E+01</totfact>
</mgrwt>
</event>
<event>
 6    1  0.1939311E-004  0.3000000E+03  0.7818608E-02  0.1093470E+00
          1   -1    0    0  502    0  0.00000000000E+00  0.00000000000E+00  0.59493901803E+02  0.59493901803E+02  0.00000000000E+00 0.  1.
         13   -1    0    0    0    0 -0.00000000000E+00 -0.00000000000E+00 -0.10000000000E+04  0.10000000000E+04  0.00000000000E+00 0.  1.
    9000005    2    1    2  501    0  0.59455339881E+02  0.38218348581E+02 -0.92926056363E+03  0.98792546144E+03  0.32783523701E+03 0.  0.
         13    1    3    3    0    0  0.11566181337E+03 -0.10647130795E+03 -0.28764804976E+03  0.32780359214E+03  0.00000000000E+00 0.  1.
          3    1    3    3  501    0 -0.56206473490E+02  0.14468965653E+03 -0.64161251387E+03  0.66012186929E+03  0.00000000000E+00 0.  1.
         21    1    1    2  502  501 -0.59455339881E+02 -0.38218348581E+02 -0.11245534565E+02  0.71568440365E+02  0.00000000000E+00 0.  1.
<mgrwt>
<rscale>  1 0.30000000E+03</rscale>
<asrwt>0</asrwt>
<pdfrwt beam="1">  1        1 0.21634192E+00 0.30000000E+03</pdfrwt>
<pdfrwt beam="2">0</pdfrwt>
<totfact> 0.85755660E+00</totfact>
</mgrwt>
</event>
<event>
 6    1  0.1939311E-004  0.3000000E+03  0.7818608E-02  0.1093470E+00
          1   -1    0    0  502    0  0.00000000000E+00  0.00000000000E+00  0.49268150922E+02  0.49268150922E+02  0.00000000000E+00 0.  1.
         13   -1    0    0    0    0 -0.00000000000E+00 -0.00000000000E+00 -0.10000000000E+04  0.10000000000E+04  0.00000000000E+00 0.  1.
    9000005    2    1    2  501    0  0.29591818713E+02  0.16999107673E+01 -0.96469008700E+03  0.10165054002E+04  0.31902617317E+03 0.  0.
         13    1    3    3    0    0  0.11465542995E+03 -0.73194904980E+02 -0.82726678579E+03  0.83837562978E+03  0.00000000000E+00 0.  1.
          3    1    3    3  501    0 -0.85063611232E+02  0.74894815748E+02 -0.13742330121E+03  0.17812977038E+03  0.00000000000E+00 0.  1.
         21    1    1    2  502  501 -0.29591818713E+02 -0.16999107673E+01  0.13958237924E+02  0.32762750760E+02  0.00000000000E+00 0. -1.
<mgrwt>
<rscale>  1 0.30000000E+03</rscale>
<asrwt>0</asrwt>
<pdfrwt beam="1">  1        1 0.17915729E+00 0.30000000E+03</pdfrwt>
<pdfrwt beam="2">0</pdfrwt>
<totfact> 0.12894962E+01</totfact>
</mgrwt>
</event>
<event>
 6    1  0.1939311E-004  0.3000000E+03  0.7818608E-02  0.1093470E+00
          1   -1    0    0  502    0  0.00000000000E+00  0.00000000000E+00  0.33198808148E+02  0.33198808148E+02  0.00000000000E+00 0.  1.
         13   -1    0    0    0    0 -0.00000000000E+00 -0.00000000000E+00 -0.10000000000E+04  0.10000000000E+04  0.00000000000E+00 0.  1.
    9000005    2    1    2  501    0 -0.46302103663E+02  0.32666073488E+02 -0.92282205131E+03  0.96146930262E+03  0.26384033872E+03 0.  0.
         13    1    3    3    0    0 -0.90114834979E+02  0.13130942620E+03 -0.61445060756E+03  0.63475380898E+03  0.00000000000E+00 0.  1.
          3    1    3    3  501    0  0.43812731315E+02 -0.98643352711E+02 -0.30837144375E+03  0.32671549363E+03  0.00000000000E+00 0.  1.
         21    1    1    2  502  501  0.46302103663E+02 -0.32666073488E+02 -0.43979140546E+02  0.71729505533E+02  0.00000000000E+00 0.  1.
<mgrwt>
<rscale>  1 0.30000000E+03</rscale>
<asrwt>0</asrwt>
<pdfrwt beam="1">  1        1 0.12072319E+00 0.30000000E+03</pdfrwt>
<pdfrwt beam="2">0</pdfrwt>
<totfact> 0.25752790E+01</totfact>
</mgrwt>
</event>
<event>
 6    1  0.1939311E-004  0.3000000E+03  0.7818608E-02  0.1093470E+00
          1   -1    0    0  502    0  0.00000000000E+00  0.00000000000E+00  0.25545169796E+02  0.25545169796E+02  0.00000000000E+00 0.  1.
         13   -1    0    0    0    0 -0.00000000000E+00 -0.00000000000E+00 -0.10000000000E+04  0.10000000000E+04  0.00000000000E+00 0.  1.
    9000005    2    1    2  501    0  0.37550292625E+02  0.52175612331E+01 -0.87896006032E+03  0.92280034756E+03  0.27848239872E+03 0.  0.
         13    1    3    3    0    0  0.13806916867E+03 -0.49592272800E+02 -0.65551521784E+03  0.67173111412E+03  0.00000000000E+00 0.  1.
          3    1    3    3  501    0 -0.10051887605E+03  0.54809834033E+02 -0.22344484248E+03  0.25106923344E+03  0.00000000000E+00 0.  1.
         21    1    1    2  502  501 -0.37550292625E+02 -0.52175612331E+01 -0.95494769887E+02  0.10274482224E+03  0.00000000000E+00 0. -1.
<mgrwt>
<rscale>  1 0.30000000E+03</rscale>
<asrwt>0</asrwt>
<pdfrwt beam="1">  1        1 0.92891722E-01 0.30000000E+03</pdfrwt>
<pdfrwt beam="2">0</pdfrwt>
<totfact> 0.38077852E+01</totfact>
</mgrwt>
</event>
<event>
 6    1  0.1939311E-004  0.3000000E+03  0.7818608E-02  0.1093470E+00
          3   -1    0    0  502    0  0.00000000000E+00  0.00000000000E+00  0.35712255336E+02  0.35712255336E+02  0.00000000000E+00 0.  1.
         13   -1    0    0    0    0 -0.00000000000E+00 -0.00000000000E+00 -0.10000000000E+04  0.10000000000E+04  0.00000000000E+00 0.  1.
    9000005    2    1    2  501    0 -0.16878261881E+02 -0.14675048996E+02 -0.96098830949E+03  0.10131043129E+04  0.31997122547E+03 0.  0.
         13    1    3    3    0    0  0.90424972510E+02 -0.97412633516E+02 -0.19993438624E+03  0.24008260167E+03  0.00000000000E+00 0.  1.
          1    1    3    3  501    0 -0.10730323439E+03  0.82737584520E+02 -0.76105392324E+03  0.77302171126E+03  0.00000000000E+00 0.  1.
         21    1    1    2  502  501  0.16878261881E+02  0.14675048996E+02 -0.32994351782E+01  0.22607942402E+02  0.00000000000E+00 0.  1.
<mgrwt>
<rscale>  1 0.30000000E+03</rscale>
<asrwt>0</asrwt>
<pdfrwt beam="1">  1        3 0.12986302E+00 0.30000000E+03</pdfrwt>
<pdfrwt beam="2">0</pdfrwt>
<totfact> 0.17759539E+00</totfact>
</mgrwt>
</event>
<event>
 6    1  0.1939311E-004  0.3000000E+03  0.7818608E-02  0.1093470E+00
          3   -1    0    0  502    0  0.00000000000E+00  0.00000000000E+00  0.33829798168E+02  0.33829798168E+02  0.00000000000E+00 0.  1.
         13   -1    0    0    0    0 -0.00000000000E+00 -0.00000000000E+00 -0.10000000000E+04  0.10000000000E+04  0.00000000000E+00 0.  1.
    9000005    2    1    2  501    0  0.21571012450E+01 -0.17460869354E+02 -0.96052537391E+03  0.10153528091E+04  0.32866821856E+03 0.  0.
         13    1    3    3    0    0  0.41374094005E+02  0.20986066709E+02 -0.95929860104E+03  0.96041971898E+03  0.00000000000E+00 0.  1.
          3    1    3    3  501    0 -0.39216992760E+02 -0.38446936063E+02 -0.12267728712E+01  0.54933090077E+02  0.00000000000E+00 0.  1.
         21    1    1    2  502  501 -0.21571012450E+01  0.17460869354E+02 -0.56448279240E+01  0.18476989113E+02  0.00000000000E+00 0.  1.
<mgrwt>
<rscale>  1 0.30000000E+03</rscale>
<asrwt>0</asrwt>
<pdfrwt beam="1">  1        3 0.12301771E+00 0.30000000E+03</pdfrwt>
<pdfrwt beam="2">0</pdfrwt>
<totfact> 0.21337195E+00</totfact>
</mgrwt>
</event>
<event>
 6    1  0.1939311E-004  0.3000000E+03  0.7818608E-02  0.1093470E+00
          1   -1    0    0  502    0  0.00000000000E+00  0.00000000000E+00  0.30362045329E+02  0.30362045329E+02  0.00000000000E+00 0.  1.
         13   -1    0    0    0    0 -0.00000000000E+00 -0.00000000000E+00 -0.10000000000E+04  0.10000000000E+04  0.00000000000E+00 0.  1.
    9000005    2    1    2  501    0  0.23084305451E+02  0.21071690360E+02 -0.91888956603E+03  0.97076086881E+03  0.31151521401E+03 0.  0.
         13    1    3    3    0    0  0.14979092436E+03  0.63162502998E+02 -0.34266641008E+03  0.37927179094E+03  0.00000000000E+00 0.  1.
          1    1    3    3  501    0 -0.12670661891E+03 -0.42090812638E+02 -0.57622315596E+03  0.59148907787E+03  0.00000000000E+00 0.  1.
         21    1    1    2  502  501 -0.23084305451E+02 -0.21071690360E+02 -0.50748388639E+02  0.59601176517E+02  0.00000000000E+00 0.  1.
<mgrwt>
<rscale>  1 0.30000000E+03</rscale>
<asrwt>0</asrwt>
<pdfrwt beam="1">  1        1 0.11040767E+00 0.30000000E+03</pdfrwt>
<pdfrwt beam="2">0</pdfrwt>
<totfact> 0.29544075E+01</totfact>
</mgrwt>
</event>
<event>
 6    1  0.1939311E-004  0.3000000E+03  0.7818608E-02  0.1093470E+00
          1   -1    0    0  502    0  0.00000000000E+00  0.00000000000E+00  0.27320298775E+02  0.27320298775E+02  0.00000000000E+00 0.  1.
         13   -1    0    0    0    0 -0.00000000000E+00 -0.00000000000E+00 -0.10000000000E+04  0.10000000000E+04  0.00000000000E+00 0.  1.
    9000005    2    1    2  501    0  0.15724885003E+01  0.10148161292E+02 -0.95337674103E+03  0.10054556659E+04  0.31923099456E+03 0.  0.
         13    1    3    3    0    0  0.14260061430E+03 -0.46872779501E+02 -0.31123690944E+03  0.34554363900E+03  0.00000000000E+00 0.  1.
          3    1    3    3  501    0 -0.14102812580E+03  0.57020940793E+02 -0.64213983159E+03  0.65991202691E+03  0.00000000000E+00 0.  1.
         21    1    1    2  502  501 -0.15724885003E+01 -0.10148161292E+02 -0.19302960197E+02  0.21864632859E+02  0.00000000000E+00 0. -1.
<mgrwt>
<rscale>  1 0.30000000E+03</rscale>
<asrwt>0</asrwt>
<pdfrwt beam="1">  1        1 0.99346750E-01 0.30000000E+03</pdfrwt>
<pdfrwt beam="2">0</pdfrwt>
<totfact> 0.34556174E+01</totfact>
</mgrwt>
</event>
<event>
 6    1  0.1939311E-004  0.3000000E+03  0.7818608E-02  0.1093470E+00
          1   -1    0    0  502    0  0.00000000000E+00  0.00000000000E+00  0.27996641910E+02  0.27996641910E+02  0.00000000000E+00 0.  1.
         13   -1    0    0    0    0 -0.00000000000E+00 -0.00000000000E+00 -0.10000000000E+04  0.10000000000E+04  0.00000000000E+00 0.  1.
    9000005    2    1    2  501    0  0.13149259177E+02  0.55462911428E+01 -0.94446461440E+03  0.99697976318E+03  0.31898522845E+03 0.  0.
         13    1    3    3    0    0 -0.53865357576E+02  0.86170252575E+02 -0.84940166934E+03  0.85545893241E+03  0.00000000000E+00 0.  1.
          3    1    3    3  501    0  0.67014616753E+02 -0.80623961432E+02 -0.95062945064E+02  0.14152083076E+03  0.00000000000E+00 0.  1.
         21    1    1    2  502  501 -0.13149259177E+02 -0.55462911428E+01 -0.27538743690E+02  0.31016878734E+02  0.00000000000E+00 0. -1.
<mgrwt>
<rscale>  1 0.30000000E+03</rscale>
<asrwt>0</asrwt>
<pdfrwt beam="1">  1        1 0.10180619E+00 0.30000000E+03</pdfrwt>
<pdfrwt beam="2">0</pdfrwt>
<totfact> 0.33340325E+01</totfact>
</mgrwt>
</event>
<event>
 6    1  0.1939311E-004  0.3000000E+03  0.7818608E-02  0.1093470E+00
          1   -1    0    0  502    0  0.00000000000E+00  0.00000000000E+00  0.31634530638E+02  0.31634530638E+02  0.00000000000E+00 0.  1.
         13   -1    0    0    0    0 -0.00000000000E+00 -0.00000000000E+00 -0.10000000000E+04  0.10000000000E+04  0.00000000000E+00 0.  1.
    9000005    2    1    2  501    0  0.25336248892E+02 -0.14371939188E+00 -0.90967942361E+03  0.96771271801E+03  0.32910379017E+03 0.  0.
         13    1    3    3    0    0 -0.79288566122E+02 -0.12225090256E+03 -0.25617591110E+03  0.29471691048E+03  0.00000000000E+00 0.  1.
          1    1    3    3  501    0  0.10462481501E+03  0.12210718317E+03 -0.65350351251E+03  0.67299580754E+03  0.00000000000E+00 0.  1.
         21    1    1    2  502  501 -0.25336248892E+02  0.14371939188E+00 -0.58686045751E+02  0.63921812624E+02  0.00000000000E+00 0.  1.
<mgrwt>
<rscale>  1 0.30000000E+03</rscale>
<asrwt>0</asrwt>
<pdfrwt beam="1">  1        1 0.11503490E+00 0.30000000E+03</pdfrwt>
<pdfrwt beam="2">0</pdfrwt>
<totfact> 0.27753205E+01</totfact>
</mgrwt>
</event>
<event>
 6    1  0.1939311E-004  0.3000000E+03  0.7818608E-02  0.1093470E+00
          1   -1    0    0  502    0  0.00000000000E+00  0.00000000000E+00  0.32287787817E+02  0.32287787817E+02  0.00000000000E+00 0.  1.
         13   -1    0    0    0    0 -0.00000000000E+00 -0.00000000000E+00 -0.10000000000E+04  0.10000000000E+04  0.00000000000E+00 0.  1.
    9000005    2    1    2  501    0  0.20769328862E+02 -0.64606137447E+01 -0.93244180508E+03  0.99084980803E+03  0.33445854402E+03 0.  0.
         13    1    3    3    0    0  0.16624729302E+03  0.57921321078E+02 -0.49632451165E+03  0.52662231507E+03  0.00000000000E+00 0.  1.
          3    1    3    3  501    0 -0.14547796416E+03 -0.64381934823E+02 -0.43611729343E+03  0.46422749296E+03  0.00000000000E+00 0.  1.
         21    1    1    2  502  501 -0.20769328862E+02  0.64606137447E+01 -0.35270407104E+02  0.41437979785E+02  0.00000000000E+00 0. -1.
<mgrwt>
<rscale>  1 0.30000000E+03</rscale>
<asrwt>0</asrwt>
<pdfrwt beam="1">  1        1 0.11741039E+00 0.30000000E+03</pdfrwt>
<pdfrwt beam="2">0</pdfrwt>
<totfact> 0.26892820E+01</totfact>
</mgrwt>
</event>
<event>
 6    1  0.1939311E-004  0.3000000E+03  0.7818608E-02  0.1093470E+00
          1   -1    0    0  502    0  0.00000000000E+00  0.00000000000E+00  0.32155174903E+02  0.32155174903E+02  0.00000000000E+00 0.  1.
         13   -1    0    0    0    0 -0.00000000000E+00 -0.00000000000E+00 -0.10000000000E+04  0.10000000000E+04  0.00000000000E+00 0.  1.
    9000005    2    1    2  501    0  0.94950356334E+01 -0.19546459172E+02 -0.94024746166E+03  0.99702919824E+03  0.33095273562E+03 0.  0.
         13    1    3    3    0    0 -0.14384311945E+03  0.59264994859E+02 -0.37251291569E+03  0.40369425929E+03  0.00000000000E+00 0.  1.
          1    1    3    3  501    0  0.15333815508E+03 -0.78811454031E+02 -0.56773454597E+03  0.59333493895E+03  0.00000000000E+00 0.  1.
         21    1    1    2  502  501 -0.94950356334E+01  0.19546459172E+02 -0.27597363437E+02  0.35125976663E+02  0.00000000000E+00 0. -1.
<mgrwt>
<rscale>  1 0.30000000E+03</rscale>
<asrwt>0</asrwt>
<pdfrwt beam="1">  1        1 0.11692816E+00 0.30000000E+03</pdfrwt>
<pdfrwt beam="2">0</pdfrwt>
<totfact> 0.27064463E+01</totfact>
</mgrwt>
</event>
<event>
 6    1  0.1939311E-004  0.3000000E+03  0.7818608E-02  0.1093470E+00
          1   -1    0    0  502    0  0.00000000000E+00  0.00000000000E+00  0.18891762502E+02  0.18891762502E+02  0.00000000000E+00 0.  1.
         13   -1    0    0    0    0 -0.00000000000E+00 -0.00000000000E+00 -0.10000000000E+04  0.10000000000E+04  0.00000000000E+00 0.  1.
    9000005    2    1    2  501    0 -0.13354727539E+02  0.31089258606E+01 -0.96406123162E+03  0.99701450086E+03  0.25384216048E+03 0.  0.
         13    1    3    3    0    0  0.74719706535E+02  0.91694637855E+02 -0.32491880936E+03  0.34577908241E+03  0.00000000000E+00 0.  1.
          1    1    3    3  501    0 -0.88074434074E+02 -0.88585711994E+02 -0.63914242227E+03  0.65123541845E+03  0.00000000000E+00 0.  1.
         21    1    1    2  502  501  0.13354727539E+02 -0.31089258606E+01 -0.17047005874E+02  0.21877261641E+02  0.00000000000E+00 0.  1.
<mgrwt>
<rscale>  1 0.30000000E+03</rscale>
<asrwt>0</asrwt>
<pdfrwt beam="1">  1        1 0.68697463E-01 0.30000000E+03</pdfrwt>
<pdfrwt beam="2">0</pdfrwt>
<totfact> 0.57838270E+01</totfact>
</mgrwt>
</event>
<event>
 6    1  0.1939311E-004  0.3000000E+03  0.7818608E-02  0.1093470E+00
          1   -1    0    0  502    0  0.00000000000E+00  0.00000000000E+00  0.35740288869E+02  0.35740288869E+02  0.00000000000E+00 0.  1.
         13   -1    0    0    0    0 -0.00000000000E+00 -0.00000000000E+00 -0.10000000000E+04  0.10000000000E+04  0.00000000000E+00 0.  1.
    9000005    2    1    2  501    0 -0.71503307913E+01 -0.69183625277E+01 -0.96686192822E+03  0.10254561990E+04  0.34152516287E+03 0.  0.
         13    1    3    3    0    0 -0.43781312457E+02  0.14596348348E+03 -0.26038709409E+03  0.30170114451E+03  0.00000000000E+00 0.  1.
          3    1    3    3  501    0  0.36630981666E+02 -0.15288184601E+03 -0.70647483413E+03  0.72375505450E+03  0.00000000000E+00 0.  1.
         21    1    1    2  502  501  0.71503307913E+01  0.69183625277E+01  0.26022170882E+01  0.10284089861E+02  0.00000000000E+00 0.  1.
<mgrwt>
<rscale>  1 0.30000000E+03</rscale>
<asrwt>0</asrwt>
<pdfrwt beam="1">  1        1 0.12996496E+00 0.30000000E+03</pdfrwt>
<pdfrwt beam="2">0</pdfrwt>
<totfact> 0.22889833E+01</totfact>
</mgrwt>
</event>
<event>
 6    1  0.1939311E-004  0.3000000E+03  0.7818608E-02  0.1093470E+00
          1   -1    0    0  502    0  0.00000000000E+00  0.00000000000E+00  0.34135264441E+02  0.34135264441E+02  0.00000000000E+00 0.  1.
         13   -1    0    0    0    0 -0.00000000000E+00 -0.00000000000E+00 -0.10000000000E+04  0.10000000000E+04  0.00000000000E+00 0.  1.
    9000005    2    1    2  501    0 -0.91622083599E+01 -0.39770159812E+01 -0.97132405734E+03  0.10227525182E+04  0.32008206192E+03 0.  0.
         13    1    3    3    0    0 -0.29803316182E+00 -0.76242097613E+02 -0.35503005195E+02  0.84103565026E+02  0.00000000000E+00 0.  1.
          3    1    3    3  501    0 -0.88641751981E+01  0.72265081632E+02 -0.93582105214E+03  0.93864895315E+03  0.00000000000E+00 0.  1.
         21    1    1    2  502  501  0.91622083599E+01  0.39770159812E+01  0.54593217779E+01  0.11382746260E+02  0.00000000000E+00 0.  1.
<mgrwt>
<rscale>  1 0.30000000E+03</rscale>
<asrwt>0</asrwt>
<pdfrwt beam="1">  1        1 0.12412850E+00 0.30000000E+03</pdfrwt>
<pdfrwt beam="2">0</pdfrwt>
<totfact> 0.24647001E+01</totfact>
</mgrwt>
</event>
<event>
 6    1  0.1939311E-004  0.3000000E+03  0.7818608E-02  0.1093470E+00
          1   -1    0    0  502    0  0.00000000000E+00  0.00000000000E+00  0.65523951230E+02  0.65523951230E+02  0.00000000000E+00 0.  1.
         13   -1    0    0    0    0 -0.00000000000E+00 -0.00000000000E+00 -0.10000000000E+04  0.10000000000E+04  0.00000000000E+00 0.  1.
    9000005    2    1    2  501    0  0.74123702553E+01  0.91217027665E+01 -0.96780223549E+03  0.10301858215E+04  0.35285055055E+03 0.  0.
         13    1    3    3    0    0  0.16123855932E+03  0.36149743034E+02 -0.28220033415E+03  0.32701942684E+03  0.00000000000E+00 0.  1.
          3    1    3    3  501    0 -0.15382618907E+03 -0.27028040268E+02 -0.68560190134E+03  0.70316639462E+03  0.00000000000E+00 0.  1.
         21    1    1    2  502  501 -0.74123702553E+01 -0.91217027665E+01  0.33326186722E+02  0.35338129769E+02  0.00000000000E+00 0.  1.
<mgrwt>
<rscale>  1 0.30000000E+03</rscale>
<asrwt>0</asrwt>
<pdfrwt beam="1">  1        1 0.23826942E+00 0.30000000E+03</pdfrwt>
<pdfrwt beam="2">0</pdfrwt>
<totfact> 0.67691439E+00</totfact>
</mgrwt>
</event>
<event>
 6    1  0.1939311E-004  0.3000000E+03  0.7818608E-02  0.1093470E+00
          3   -1    0    0  502    0  0.00000000000E+00  0.00000000000E+00  0.36743095260E+02  0.36743095260E+02  0.00000000000E+00 0.  1.
         13   -1    0    0    0    0 -0.00000000000E+00 -0.00000000000E+00 -0.10000000000E+04  0.10000000000E+04  0.00000000000E+00 0.  1.
    9000005    2    1    2  501    0  0.56989109874E+01  0.12559501396E+02 -0.96414660247E+03  0.10229224504E+04  0.34146954456E+03 0.  0.
         13    1    3    3    0    0 -0.37217384545E+02  0.14776951370E+03 -0.23484184935E+03  0.27994938309E+03  0.00000000000E+00 0.  1.
          1    1    3    3  501    0  0.42916295533E+02 -0.13521001230E+03 -0.72930475312E+03  0.74297306733E+03  0.00000000000E+00 0.  1.
         21    1    1    2  502  501 -0.56989109874E+01 -0.12559501396E+02  0.88969772679E+00  0.13820644841E+02  0.00000000000E+00 0. -1.
<mgrwt>
<rscale>  1 0.30000000E+03</rscale>
<asrwt>0</asrwt>
<pdfrwt beam="1">  1        3 0.13361154E+00 0.30000000E+03</pdfrwt>
<pdfrwt beam="2">0</pdfrwt>
<totfact> 0.16037838E+00</totfact>
</mgrwt>
</event>
<event>
 6    1  0.1939311E-004  0.3000000E+03  0.7818608E-02  0.1093470E+00
          1   -1    0    0  502    0  0.00000000000E+00  0.00000000000E+00  0.25504405103E+02  0.25504405103E+02  0.00000000000E+00 0.  1.
         13   -1    0    0    0    0 -0.00000000000E+00 -0.00000000000E+00 -0.10000000000E+04  0.10000000000E+04  0.00000000000E+00 0.  1.
    9000005    2    1    2  501    0  0.24401412047E+02 -0.15429387415E+01 -0.93765652371E+03  0.98128985167E+03  0.28832656304E+03 0.  0.
         13    1    3    3    0    0  0.45490686067E+01  0.52419872883E+02 -0.12153276580E+02  0.54002215046E+02  0.00000000000E+00 0.  1.
          3    1    3    3  501    0  0.19852343440E+02 -0.53962811625E+02 -0.92550324713E+03  0.92728763662E+03  0.00000000000E+00 0.  1.
         21    1    1    2  502  501 -0.24401412047E+02  0.15429387415E+01 -0.36839071185E+02  0.44214553437E+02  0.00000000000E+00 0.  1.
<mgrwt>
<rscale>  1 0.30000000E+03</rscale>
<asrwt>0</asrwt>
<pdfrwt beam="1">  1        1 0.92743487E-01 0.30000000E+03</pdfrwt>
<pdfrwt beam="2">0</pdfrwt>
<totfact> 0.38164917E+01</totfact>
</mgrwt>
</event>
<event>
 6    1  0.1939311E-004  0.3000000E+03  0.7818608E-02  0.1093470E+00
          1   -1    0    0  502    0  0.00000000000E+00  0.00000000000E+00  0.36022669117E+02  0.36022669117E+02  0.00000000000E+00 0.  1.
         13   -1    0    0    0    0 -0.00000000000E+00 -0.00000000000E+00 -0.10000000000E+04  0.10000000000E+04  0.00000000000E+00 0.  1.
    9000005    2    1    2  501    0 -0.42945567161E+02 -0.22285166534E+02 -0.88121682922E+03  0.94015687218E+03  0.32405384403E+03 0.  0.
         13    1    3    3    0    0  0.10955422868E+03 -0.41968731166E+02 -0.66244471810E+03  0.67275293233E+03  0.00000000000E+00 0.  1.
          3    1    3    3  501    0 -0.15249979584E+03  0.19683564632E+02 -0.21877211112E+03  0.26740393986E+03  0.00000000000E+00 0.  1.
         21    1    1    2  502  501  0.42945567161E+02  0.22285166534E+02 -0.82760501664E+02  0.95865796934E+02  0.00000000000E+00 0. -1.
<mgrwt>
<rscale>  1 0.30000000E+03</rscale>
<asrwt>0</asrwt>
<pdfrwt beam="1">  1        1 0.13099180E+00 0.30000000E+03</pdfrwt>
<pdfrwt beam="2">0</pdfrwt>
<totfact> 0.22597570E+01</totfact>
</mgrwt>
</event>
<event>
 6    1  0.1939311E-004  0.3000000E+03  0.7818608E-02  0.1093470E+00
          1   -1    0    0  502    0  0.00000000000E+00  0.00000000000E+00  0.24644601830E+02  0.24644601830E+02  0.00000000000E+00 0.  1.
         13   -1    0    0    0    0 -0.00000000000E+00 -0.00000000000E+00 -0.10000000000E+04  0.10000000000E+04  0.00000000000E+00 0.  1.
    9000005    2    1    2  501    0  0.11811710424E+02 -0.13325055627E+00 -0.97175752738E+03  0.10122963658E+04  0.28335791136E+03 0.  0.
         13    1    3    3    0    0  0.88114370128E+02 -0.10946687133E+03 -0.36623351000E+03  0.39226792119E+03  0.00000000000E+00 0.  1.
          1    1    3    3  501    0 -0.76302659705E+02  0.10933362078E+03 -0.60552401737E+03  0.62002844461E+03  0.00000000000E+00 0.  1.
         21    1    1    2  502  501 -0.11811710424E+02  0.13325055627E+00 -0.35978707913E+01  0.12348236031E+02  0.00000000000E+00 0.  1.
<mgrwt>
<rscale>  1 0.30000000E+03</rscale>
<asrwt>0</asrwt>
<pdfrwt beam="1">  1        1 0.89616923E-01 0.30000000E+03</pdfrwt>
<pdfrwt beam="2">0</pdfrwt>
<totfact> 0.40073331E+01</totfact>
</mgrwt>
</event>
<event>
 6    1  0.1939311E-004  0.3000000E+03  0.7818608E-02  0.1093470E+00
          1   -1    0    0  502    0  0.00000000000E+00  0.00000000000E+00  0.39894115003E+02  0.39894115003E+02  0.00000000000E+00 0.  1.
         13   -1    0    0    0    0 -0.00000000000E+00 -0.00000000000E+00 -0.10000000000E+04  0.10000000000E+04  0.00000000000E+00 0.  1.
    9000005    2    1    2  501    0  0.21141590780E+02  0.53034030114E+02 -0.90098452774E+03  0.95770585493E+03  0.31963699742E+03 0.  0.
         13    1    3    3    0    0  0.27705265402E+02  0.81014450756E+02 -0.37049669447E+02  0.93293091751E+02  0.00000000000E+00 0.  1.
          1    1    3    3  501    0 -0.65636746217E+01 -0.27980420643E+02 -0.86393485829E+03  0.86441276317E+03  0.00000000000E+00 0.  1.
         21    1    1    2  502  501 -0.21141590780E+02 -0.53034030114E+02 -0.59121357256E+02  0.82188260077E+02  0.00000000000E+00 0.  1.
<mgrwt>
<rscale>  1 0.30000000E+03</rscale>
<asrwt>0</asrwt>
<pdfrwt beam="1">  1        1 0.14506982E+00 0.30000000E+03</pdfrwt>
<pdfrwt beam="2">0</pdfrwt>
<totfact> 0.19040394E+01</totfact>
</mgrwt>
</event>
<event>
 6    1  0.1939311E-004  0.3000000E+03  0.7818608E-02  0.1093470E+00
          1   -1    0    0  502    0  0.00000000000E+00  0.00000000000E+00  0.45301559399E+02  0.45301559399E+02  0.00000000000E+00 0.  1.
         13   -1    0    0    0    0 -0.00000000000E+00 -0.00000000000E+00 -0.10000000000E+04  0.10000000000E+04  0.00000000000E+00 0.  1.
    9000005    2    1    2  501    0 -0.10974553189E+02 -0.86126045860E+01 -0.97211441526E+03  0.10229871258E+04  0.31827913118E+03 0.  0.
         13    1    3    3    0    0 -0.22170287716E+02  0.46765332915E+02 -0.96460445944E+03  0.96599186394E+03  0.00000000000E+00 0.  1.
          1    1    3    3  501    0  0.11195734527E+02 -0.55377937501E+02 -0.75099558129E+01  0.56995261819E+02  0.00000000000E+00 0.  1.
         21    1    1    2  502  501  0.10974553189E+02  0.86126045860E+01  0.17415974655E+02  0.22314433640E+02  0.00000000000E+00 0. -1.
<mgrwt>
<rscale>  1 0.30000000E+03</rscale>
<asrwt>0</asrwt>
<pdfrwt beam="1">  1        1 0.16473329E+00 0.30000000E+03</pdfrwt>
<pdfrwt beam="2">0</pdfrwt>
<totfact> 0.15163107E+01</totfact>
</mgrwt>
</event>
<event>
 6    1  0.1939311E-004  0.3000000E+03  0.7818608E-02  0.1093470E+00
          1   -1    0    0  502    0  0.00000000000E+00  0.00000000000E+00  0.30857617930E+02  0.30857617930E+02  0.00000000000E+00 0.  1.
         13   -1    0    0    0    0 -0.00000000000E+00 -0.00000000000E+00 -0.10000000000E+04  0.10000000000E+04  0.00000000000E+00 0.  1.
    9000005    2    1    2  501    0 -0.19459223197E+02 -0.88641680656E+01 -0.93215610240E+03  0.98813502758E+03  0.32716753909E+03 0.  0.
         13    1    3    3    0    0  0.97167898272E+02  0.92597555515E+02 -0.67399868717E+03  0.68723368519E+03  0.00000000000E+00 0.  1.
          3    1    3    3  501    0 -0.11662712147E+03 -0.10146172358E+03 -0.25815741523E+03  0.30090134239E+03  0.00000000000E+00 0.  1.
         21    1    1    2  502  501  0.19459223197E+02  0.88641680656E+01 -0.36986279668E+02  0.42722590354E+02  0.00000000000E+00 0. -1.
<mgrwt>
<rscale>  1 0.30000000E+03</rscale>
<asrwt>0</asrwt>
<pdfrwt beam="1">  1        1 0.11220976E+00 0.30000000E+03</pdfrwt>
<pdfrwt beam="2">0</pdfrwt>
<totfact> 0.28827621E+01</totfact>
</mgrwt>
</event>
<event>
 6    1  0.1939311E-004  0.3000000E+03  0.7818608E-02  0.1093470E+00
          1   -1    0    0  502    0  0.00000000000E+00  0.00000000000E+00  0.30250934411E+02  0.30250934411E+02  0.00000000000E+00 0.  1.
         13   -1    0    0    0    0 -0.00000000000E+00 -0.00000000000E+00 -0.10000000000E+04  0.10000000000E+04  0.00000000000E+00 0.  1.
    9000005    2    1    2  501    0  0.34885766872E+01  0.89270791905E+01 -0.95896052262E+03  0.10158198717E+04  0.33495203386E+03 0.  0.
         13    1    3    3    0    0  0.15156226316E+02  0.15585345521E+03 -0.70506886191E+03  0.72224795655E+03  0.00000000000E+00 0.  1.
          1    1    3    3  501    0 -0.11667649628E+02 -0.14692637602E+03 -0.25389166071E+03  0.29357191520E+03  0.00000000000E+00 0.  1.
         21    1    1    2  502  501 -0.34885766872E+01 -0.89270791905E+01 -0.10788542971E+02  0.14431062664E+02  0.00000000000E+00 0.  1.
<mgrwt>
<rscale>  1 0.30000000E+03</rscale>
<asrwt>0</asrwt>
<pdfrwt beam="1">  1        1 0.11000363E+00 0.30000000E+03</pdfrwt>
<pdfrwt beam="2">0</pdfrwt>
<totfact> 0.29708162E+01</totfact>
</mgrwt>
</event>
<event>
 6    1  0.1939311E-004  0.3000000E+03  0.7818608E-02  0.1093470E+00
          1   -1    0    0  502    0  0.00000000000E+00  0.00000000000E+00  0.25454456478E+02  0.25454456478E+02  0.00000000000E+00 0.  1.
         13   -1    0    0    0    0 -0.00000000000E+00 -0.00000000000E+00 -0.10000000000E+04  0.10000000000E+04  0.00000000000E+00 0.  1.
    9000005    2    1    2  501    0  0.65495217751E+01  0.47736991770E+02 -0.83848568235E+03  0.88111457134E+03  0.26642622189E+03 0.  0.
         13    1    3    3    0    0  0.18305114249E+02 -0.10939531533E+03 -0.29163997843E+03  0.31201969368E+03  0.00000000000E+00 0.  1.
          3    1    3    3  501    0 -0.11755592474E+02  0.15713230710E+03 -0.54684570391E+03  0.56909487766E+03  0.00000000000E+00 0.  1.
         21    1    1    2  502  501 -0.65495217751E+01 -0.47736991770E+02 -0.13605986117E+03  0.14433988514E+03  0.00000000000E+00 0.  1.
<mgrwt>
<rscale>  1 0.30000000E+03</rscale>
<asrwt>0</asrwt>
<pdfrwt beam="1">  1        1 0.92561855E-01 0.30000000E+03</pdfrwt>
<pdfrwt beam="2">0</pdfrwt>
<totfact> 0.38272004E+01</totfact>
</mgrwt>
</event>
<event>
 6    1  0.1939311E-004  0.3000000E+03  0.7818608E-02  0.1093470E+00
          1   -1    0    0  502    0  0.00000000000E+00  0.00000000000E+00  0.64417514390E+02  0.64417514390E+02  0.00000000000E+00 0.  1.
         13   -1    0    0    0    0 -0.00000000000E+00 -0.00000000000E+00 -0.10000000000E+04  0.10000000000E+04  0.00000000000E+00 0.  1.
    9000005    2    1    2  501    0  0.10047273674E+02 -0.10541428561E+02 -0.96569555169E+03  0.10309680574E+04  0.36071480063E+03 0.  0.
         13    1    3    3    0    0 -0.89319713104E+02  0.14532347741E+03 -0.55431697746E+03  0.57996916792E+03  0.00000000000E+00 0.  1.
          1    1    3    3  501    0  0.99366986778E+02 -0.15586490597E+03 -0.41137857423E+03  0.45099888948E+03  0.00000000000E+00 0.  1.
         21    1    1    2  502  501 -0.10047273674E+02  0.10541428561E+02  0.30113066081E+02  0.33449456994E+02  0.00000000000E+00 0.  1.
<mgrwt>
<rscale>  1 0.30000000E+03</rscale>
<asrwt>0</asrwt>
<pdfrwt beam="1">  1        1 0.23424600E+00 0.30000000E+03</pdfrwt>
<pdfrwt beam="2">0</pdfrwt>
<totfact> 0.70694485E+00</totfact>
</mgrwt>
</event>
<event>
 6    1  0.1939311E-004  0.3000000E+03  0.7818608E-02  0.1093470E+00
          1   -1    0    0  502    0  0.00000000000E+00  0.00000000000E+00  0.31237868707E+02  0.31237868707E+02  0.00000000000E+00 0.  1.
         13   -1    0    0    0    0 -0.00000000000E+00 -0.00000000000E+00 -0.10000000000E+04  0.10000000000E+04  0.00000000000E+00 0.  1.
    9000005    2    1    2  501    0  0.11013059137E+02  0.60778453255E+01 -0.95575543999E+03  0.10131436239E+04  0.33590670426E+03 0.  0.
         13    1    3    3    0    0  0.15515182690E+03  0.24315623228E+01 -0.72208289658E+03  0.73856733709E+03  0.00000000000E+00 0.  1.
          3    1    3    3  501    0 -0.14413876776E+03  0.36462830027E+01 -0.23367254341E+03  0.27457628684E+03  0.00000000000E+00 0.  1.
         21    1    1    2  502  501 -0.11013059137E+02 -0.60778453255E+01 -0.13006691302E+02  0.18094244775E+02  0.00000000000E+00 0. -1.
<mgrwt>
<rscale>  1 0.30000000E+03</rscale>
<asrwt>0</asrwt>
<pdfrwt beam="1">  1        1 0.11359249E+00 0.30000000E+03</pdfrwt>
<pdfrwt beam="2">0</pdfrwt>
<totfact> 0.28294518E+01</totfact>
</mgrwt>
</event>
<event>
 6    1  0.1939311E-004  0.3000000E+03  0.7818608E-02  0.1093470E+00
          1   -1    0    0  502    0  0.00000000000E+00  0.00000000000E+00  0.30579671511E+02  0.30579671511E+02  0.00000000000E+00 0.  1.
         13   -1    0    0    0    0 -0.00000000000E+00 -0.00000000000E+00 -0.10000000000E+04  0.10000000000E+04  0.00000000000E+00 0.  1.
    9000005    2    1    2  501    0 -0.17687650189E+02  0.11467795645E+02 -0.95447912420E+03  0.10047416590E+04  0.31309908886E+03 0.  0.
         13    1    3    3    0    0  0.50024603213E+01  0.12974379597E+03 -0.18571977189E+03  0.22660606981E+03  0.00000000000E+00 0.  1.
          3    1    3    3  501    0 -0.22690110510E+02 -0.11827600033E+03 -0.76875935230E+03  0.77813558916E+03  0.00000000000E+00 0.  1.
         21    1    1    2  502  501  0.17687650189E+02 -0.11467795645E+02 -0.14941204294E+02  0.25838012538E+02  0.00000000000E+00 0.  1.
<mgrwt>
<rscale>  1 0.30000000E+03</rscale>
<asrwt>0</asrwt>
<pdfrwt beam="1">  1        1 0.11119904E+00 0.30000000E+03</pdfrwt>
<pdfrwt beam="2">0</pdfrwt>
<totfact> 0.29226388E+01</totfact>
</mgrwt>
</event>
<event>
 6    1  0.1939311E-004  0.3000000E+03  0.7818608E-02  0.1093470E+00
          1   -1    0    0  502    0  0.00000000000E+00  0.00000000000E+00  0.34134198479E+02  0.34134198479E+02  0.00000000000E+00 0.  1.
         13   -1    0    0    0    0 -0.00000000000E+00 -0.00000000000E+00 -0.10000000000E+04  0.10000000000E+04  0.00000000000E+00 0.  1.
    9000005    2    1    2  501    0  0.19678018744E+02 -0.47964673743E+01 -0.95839827051E+03  0.10125472918E+04  0.32605910917E+03 0.  0.
         13    1    3    3    0    0  0.14362504608E+03  0.20493397844E+02 -0.22092277382E+03  0.26430097467E+03  0.00000000000E+00 0.  1.
          3    1    3    3  501    0 -0.12394702734E+03 -0.25289865218E+02 -0.73747549669E+03  0.74824631712E+03  0.00000000000E+00 0.  1.
         21    1    1    2  502  501 -0.19678018744E+02  0.47964673743E+01 -0.74675310075E+01  0.21586906687E+02  0.00000000000E+00 0. -1.
<mgrwt>
<rscale>  1 0.30000000E+03</rscale>
<asrwt>0</asrwt>
<pdfrwt beam="1">  1        1 0.12412462E+00 0.30000000E+03</pdfrwt>
<pdfrwt beam="2">0</pdfrwt>
<totfact> 0.24648225E+01</totfact>
</mgrwt>
</event>
<event>
 6    1  0.1939311E-004  0.3000000E+03  0.7818608E-02  0.1093470E+00
          1   -1    0    0  502    0  0.00000000000E+00  0.00000000000E+00  0.27548643119E+02  0.27548643119E+02  0.00000000000E+00 0.  1.
         13   -1    0    0    0    0 -0.00000000000E+00 -0.00000000000E+00 -0.10000000000E+04  0.10000000000E+04  0.00000000000E+00 0.  1.
    9000005    2    1    2  501    0 -0.56330294882E+01  0.11513426280E+02 -0.93182253173E+03  0.98494592679E+03  0.31884315587E+03 0.  0.
         13    1    3    3    0    0  0.45276127276E+02 -0.13830409891E+03 -0.29750142739E+03  0.33118733486E+03  0.00000000000E+00 0.  1.
          3    1    3    3  501    0 -0.50909156764E+02  0.14981752519E+03 -0.63432110435E+03  0.65375859193E+03  0.00000000000E+00 0.  1.
         21    1    1    2  502  501  0.56330294882E+01 -0.11513426280E+02 -0.40628825147E+02  0.42602716331E+02  0.00000000000E+00 0. -1.
<mgrwt>
<rscale>  1 0.30000000E+03</rscale>
<asrwt>0</asrwt>
<pdfrwt beam="1">  1        1 0.10017710E+00 0.30000000E+03</pdfrwt>
<pdfrwt beam="2">0</pdfrwt>
<totfact> 0.34138493E+01</totfact>
</mgrwt>
</event>
<event>
 6    1  0.1939311E-004  0.3000000E+03  0.7818608E-02  0.1093470E+00
          1   -1    0    0  502    0  0.00000000000E+00  0.00000000000E+00  0.40197013866E+02  0.40197013866E+02  0.00000000000E+00 0.  1.
         13   -1    0    0    0    0 -0.00000000000E+00 -0.00000000000E+00 -0.10000000000E+04  0.10000000000E+04  0.00000000000E+00 0.  1.
    9000005    2    1    2  501    0  0.40857034121E-01  0.38721975479E+02 -0.94621178426E+03  0.99915905799E+03  0.31859486724E+03 0.  0.
         13    1    3    3    0    0  0.11687245847E+03 -0.23273313751E+02 -0.76821434619E+03  0.77740214842E+03  0.00000000000E+00 0.  1.
          1    1    3    3  501    0 -0.11683160143E+03  0.61995289230E+02 -0.17799743807E+03  0.22175690957E+03  0.00000000000E+00 0.  1.
         21    1    1    2  502  501 -0.40857034121E-01 -0.38721975479E+02 -0.13591201874E+02  0.41037955878E+02  0.00000000000E+00 0.  1.
<mgrwt>
<rscale>  1 0.30000000E+03</rscale>
<asrwt>0</asrwt>
<pdfrwt beam="1">  1        1 0.14617127E+00 0.30000000E+03</pdfrwt>
<pdfrwt beam="2">0</pdfrwt>
<totfact> 0.18793280E+01</totfact>
</mgrwt>
</event>
<event>
 6    1  0.1939311E-004  0.3000000E+03  0.7818608E-02  0.1093470E+00
          1   -1    0    0  502    0  0.00000000000E+00  0.00000000000E+00  0.41251155363E+02  0.41251155363E+02  0.00000000000E+00 0.  1.
         13   -1    0    0    0    0 -0.00000000000E+00 -0.00000000000E+00 -0.10000000000E+04  0.10000000000E+04  0.00000000000E+00 0.  1.
    9000005    2    1    2  501    0 -0.39644410909E+02 -0.43827223190E+02 -0.88121485401E+03  0.94376256879E+03  0.33264945892E+03 0.  0.
         13    1    3    3    0    0  0.10013700993E+02 -0.14538259929E+03 -0.17128553938E+03  0.22488910686E+03  0.00000000000E+00 0.  1.
          3    1    3    3  501    0 -0.49658111902E+02  0.10155537610E+03 -0.70992931464E+03  0.71887346193E+03  0.00000000000E+00 0.  1.
         21    1    1    2  502  501  0.39644410909E+02  0.43827223190E+02 -0.77533990626E+02  0.97488586569E+02  0.00000000000E+00 0.  1.
<mgrwt>
<rscale>  1 0.30000000E+03</rscale>
<asrwt>0</asrwt>
<pdfrwt beam="1">  1        1 0.15000452E+00 0.30000000E+03</pdfrwt>
<pdfrwt beam="2">0</pdfrwt>
<totfact> 0.17964005E+01</totfact>
</mgrwt>
</event>
<event>
 6    1  0.1939311E-004  0.3000000E+03  0.7818608E-02  0.1093470E+00
          1   -1    0    0  502    0  0.00000000000E+00  0.00000000000E+00  0.37246008544E+02  0.37246008544E+02  0.00000000000E+00 0.  1.
         13   -1    0    0    0    0 -0.00000000000E+00 -0.00000000000E+00 -0.10000000000E+04  0.10000000000E+04  0.00000000000E+00 0.  1.
    9000005    2    1    2  501    0  0.23175702192E+02 -0.92464947778E+01 -0.95758013482E+03  0.10117630803E+04  0.32570263321E+03 0.  0.
         13    1    3    3    0    0 -0.29086696982E+02  0.11342250999E+03 -0.13612664406E+03  0.17955824943E+03  0.00000000000E+00 0.  1.
          3    1    3    3  501    0  0.52262399174E+02 -0.12266900477E+03 -0.82145349076E+03  0.83220483091E+03  0.00000000000E+00 0.  1.
         21    1    1    2  502  501 -0.23175702192E+02  0.92464947778E+01 -0.51738566334E+01  0.25482928212E+02  0.00000000000E+00 0. -1.
<mgrwt>
<rscale>  1 0.30000000E+03</rscale>
<asrwt>0</asrwt>
<pdfrwt beam="1">  1        1 0.13544032E+00 0.30000000E+03</pdfrwt>
<pdfrwt beam="2">0</pdfrwt>
<totfact> 0.21386532E+01</totfact>
</mgrwt>
</event>
<event>
 6    1  0.1939311E-004  0.3000000E+03  0.7818608E-02  0.1093470E+00
          1   -1    0    0  502    0  0.00000000000E+00  0.00000000000E+00  0.73251623111E+02  0.73251623111E+02  0.00000000000E+00 0.  1.
         13   -1    0    0    0    0 -0.00000000000E+00 -0.00000000000E+00 -0.10000000000E+04  0.10000000000E+04  0.00000000000E+00 0.  1.
    9000005    2    1    2  501    0 -0.14621742315E+03 -0.18557575919E+02 -0.84189678289E+03  0.90318189781E+03  0.29193052091E+03 0.  0.
         13    1    3    3    0    0 -0.29398036653E+02  0.13225011402E+03 -0.38085885857E+03  0.40423731566E+03  0.00000000000E+00 0.  1.
          1    1    3    3  501    0 -0.11681938650E+03 -0.15080768993E+03 -0.46103792432E+03  0.49894458216E+03  0.00000000000E+00 0.  1.
         21    1    1    2  502  501  0.14621742315E+03  0.18557575919E+02 -0.84851593999E+02  0.17006972530E+03  0.00000000000E+00 0. -1.
<mgrwt>
<rscale>  1 0.30000000E+03</rscale>
<asrwt>0</asrwt>
<pdfrwt beam="1">  1        1 0.26637010E+00 0.30000000E+03</pdfrwt>
<pdfrwt beam="2">0</pdfrwt>
<totfact> 0.50007880E+00</totfact>
</mgrwt>
</event>
<event>
 6    1  0.1939311E-004  0.3000000E+03  0.7818608E-02  0.1093470E+00
          1   -1    0    0  502    0  0.00000000000E+00  0.00000000000E+00  0.52592710041E+02  0.52592710041E+02  0.00000000000E+00 0.  1.
         13   -1    0    0    0    0 -0.00000000000E+00 -0.00000000000E+00 -0.10000000000E+04  0.10000000000E+04  0.00000000000E+00 0.  1.
    9000005    2    1    2  501    0  0.34726963043E+02 -0.20214085339E+02 -0.95491088044E+03  0.10117163712E+04  0.33181418736E+03 0.  0.
         13    1    3    3    0    0  0.78422600031E+02  0.68741463569E+02 -0.80589867982E+02  0.13179612980E+03  0.00000000000E+00 0.  1.
          1    1    3    3  501    0 -0.43695636988E+02 -0.88955548907E+02 -0.87432101246E+03  0.87992024138E+03  0.00000000000E+00 0.  1.
         21    1    1    2  502  501 -0.34726963043E+02  0.20214085339E+02  0.75035904797E+01  0.40876338857E+02  0.00000000000E+00 0.  1.
<mgrwt>
<rscale>  1 0.30000000E+03</rscale>
<asrwt>0</asrwt>
<pdfrwt beam="1">  1        1 0.19124662E+00 0.30000000E+03</pdfrwt>
<pdfrwt beam="2">0</pdfrwt>
<totfact> 0.11277631E+01</totfact>
</mgrwt>
</event>
<event>
 6    1  0.1939311E-004  0.3000000E+03  0.7818608E-02  0.1093470E+00
          3   -1    0    0  502    0  0.00000000000E+00  0.00000000000E+00  0.31228948562E+02  0.31228948562E+02  0.00000000000E+00 0.  1.
         13   -1    0    0    0    0 -0.00000000000E+00 -0.00000000000E+00 -0.10000000000E+04  0.10000000000E+04  0.00000000000E+00 0.  1.
    9000005    2    1    2  501    0 -0.11148759119E+02 -0.22496097773E+01 -0.95398189103E+03  0.10125721846E+04  0.33925156616E+03 0.  0.
         13    1    3    3    0    0  0.50957392667E+02 -0.86607377253E+02 -0.87658926927E+03  0.88233000667E+03  0.00000000000E+00 0.  1.
          1    1    3    3  501    0 -0.62106151786E+02  0.84357767475E+02 -0.77392621751E+02  0.13024217798E+03  0.00000000000E+00 0.  1.
         21    1    1    2  502  501  0.11148759119E+02  0.22496097773E+01 -0.14789160412E+02  0.18656763914E+02  0.00000000000E+00 0. -1.
<mgrwt>
<rscale>  1 0.30000000E+03</rscale>
<asrwt>0</asrwt>
<pdfrwt beam="1">  1        3 0.11356005E+00 0.30000000E+03</pdfrwt>
<pdfrwt beam="2">0</pdfrwt>
<totfact> 0.27443515E+00</totfact>
</mgrwt>
</event>
<event>
 6    1  0.1939311E-004  0.3000000E+03  0.7818608E-02  0.1093470E+00
          1   -1    0    0  502    0  0.00000000000E+00  0.00000000000E+00  0.44144129532E+02  0.44144129532E+02  0.00000000000E+00 0.  1.
         13   -1    0    0    0    0 -0.00000000000E+00 -0.00000000000E+00 -0.10000000000E+04  0.10000000000E+04  0.00000000000E+00 0.  1.
    9000005    2    1    2  501    0  0.16506507980E+02  0.15176034818E+02 -0.96554751340E+03  0.10197165881E+04  0.32716531379E+03 0.  0.
         13    1    3    3    0    0  0.92356627811E+02  0.12479999922E+02 -0.59662472236E+02  0.11065761470E+03  0.00000000000E+00 0.  1.
          1    1    3    3  501    0 -0.75850119831E+02  0.26960348962E+01 -0.90588504116E+03  0.90905897338E+03  0.00000000000E+00 0.  1.
         21    1    1    2  502  501 -0.16506507980E+02 -0.15176034818E+02  0.96916429303E+01  0.24427541448E+02  0.00000000000E+00 0. -1.
<mgrwt>
<rscale>  1 0.30000000E+03</rscale>
<asrwt>0</asrwt>
<pdfrwt beam="1">  1        1 0.16052445E+00 0.30000000E+03</pdfrwt>
<pdfrwt beam="2">0</pdfrwt>
<totfact> 0.15907378E+01</totfact>
</mgrwt>
</event>
<event>
 6    1  0.1939311E-004  0.3000000E+03  0.7818608E-02  0.1093470E+00
          1   -1    0    0  502    0  0.00000000000E+00  0.00000000000E+00  0.41322206834E+02  0.41322206834E+02  0.00000000000E+00 0.  1.
         13   -1    0    0    0    0 -0.00000000000E+00 -0.00000000000E+00 -0.10000000000E+04  0.10000000000E+04  0.00000000000E+00 0.  1.
    9000005    2    1    2  501    0  0.14978756247E+02 -0.51228128202E+01 -0.96237356347E+03  0.10250659752E+04  0.35262837582E+03 0.  0.
         13    1    3    3    0    0 -0.15966673318E+03  0.38330123980E+02 -0.57391320470E+03  0.59694139630E+03  0.00000000000E+00 0.  1.
          1    1    3    3  501    0  0.17464548943E+03 -0.43452936801E+02 -0.38846035877E+03  0.42812457887E+03  0.00000000000E+00 0.  1.
         21    1    1    2  502  501 -0.14978756247E+02  0.51228128202E+01  0.36957703008E+01  0.16256231667E+02  0.00000000000E+00 0.  1.
<mgrwt>
<rscale>  1 0.30000000E+03</rscale>
<asrwt>0</asrwt>
<pdfrwt beam="1">  1        1 0.15026289E+00 0.30000000E+03</pdfrwt>
<pdfrwt beam="2">0</pdfrwt>
<totfact> 0.17909765E+01</totfact>
</mgrwt>
</event>
<event>
 6    1  0.1939311E-004  0.3000000E+03  0.7818608E-02  0.1093470E+00
          1   -1    0    0  502    0  0.00000000000E+00  0.00000000000E+00  0.39032563244E+02  0.39032563244E+02  0.00000000000E+00 0.  1.
         13   -1    0    0    0    0 -0.00000000000E+00 -0.00000000000E+00 -0.10000000000E+04  0.10000000000E+04  0.00000000000E+00 0.  1.
    9000005    2    1    2  501    0 -0.32191287061E+02  0.45084699677E+00 -0.95381105289E+03  0.10060523259E+04  0.31835400986E+03 0.  0.
         13    1    3    3    0    0  0.13241823671E+03  0.36409552212E+02 -0.28526914358E+03  0.31660500499E+03  0.00000000000E+00 0.  1.
          1    1    3    3  501    0 -0.16460952377E+03 -0.35958705215E+02 -0.66854190931E+03  0.68944732090E+03  0.00000000000E+00 0.  1.
         21    1    1    2  502  501  0.32191287061E+02 -0.45084699677E+00 -0.71563838641E+01  0.32980237351E+02  0.00000000000E+00 0.  1.
<mgrwt>
<rscale>  1 0.30000000E+03</rscale>
<asrwt>0</asrwt>
<pdfrwt beam="1">  1        1 0.14193689E+00 0.30000000E+03</pdfrwt>
<pdfrwt beam="2">0</pdfrwt>
<totfact> 0.19766035E+01</totfact>
</mgrwt>
</event>
<event>
 6    1  0.1939311E-004  0.3000000E+03  0.7818608E-02  0.1093470E+00
          3   -1    0    0  502    0  0.00000000000E+00  0.00000000000E+00  0.36428097285E+02  0.36428097285E+02  0.00000000000E+00 0.  1.
         13   -1    0    0    0    0 -0.00000000000E+00 -0.00000000000E+00 -0.10000000000E+04  0.10000000000E+04  0.00000000000E+00 0.  1.
    9000005    2    1    2  501    0  0.10106831411E+02 -0.92758597093E+01 -0.97154104175E+03  0.10205631425E+04  0.31220016389E+03 0.  0.
         13    1    3    3    0    0  0.15084949064E+03  0.38965840476E+02 -0.61052920865E+03  0.63009508820E+03  0.00000000000E+00 0.  1.
          3    1    3    3  501    0 -0.14074265923E+03 -0.48241700186E+02 -0.36101183310E+03  0.39046805427E+03  0.00000000000E+00 0.  1.
         21    1    1    2  502  501 -0.10106831411E+02  0.92758597093E+01  0.79691390372E+01  0.15864954822E+02  0.00000000000E+00 0. -1.
<mgrwt>
<rscale>  1 0.30000000E+03</rscale>
<asrwt>0</asrwt>
<pdfrwt beam="1">  1        3 0.13246609E+00 0.30000000E+03</pdfrwt>
<pdfrwt beam="2">0</pdfrwt>
<totfact> 0.16549023E+00</totfact>
</mgrwt>
</event>
<event>
 6    1  0.1939311E-004  0.3000000E+03  0.7818608E-02  0.1093470E+00
          1   -1    0    0  502    0  0.00000000000E+00  0.00000000000E+00  0.37841889005E+02  0.37841889005E+02  0.00000000000E+00 0.  1.
         13   -1    0    0    0    0 -0.00000000000E+00 -0.00000000000E+00 -0.10000000000E+04  0.10000000000E+04  0.00000000000E+00 0.  1.
    9000005    2    1    2  501    0 -0.46730975794E+02 -0.26165383100E+02 -0.89703076541E+03  0.95352117675E+03  0.31885738044E+03 0.  0.
         13    1    3    3    0    0 -0.26937100090E+02  0.56875601309E+02 -0.11609279317E+02  0.63993880581E+02  0.00000000000E+00 0.  1.
          3    1    3    3  501    0 -0.19793875704E+02 -0.83040984409E+02 -0.88542148609E+03  0.88952729617E+03  0.00000000000E+00 0.  1.
         21    1    1    2  502  501  0.46730975794E+02  0.26165383100E+02 -0.65127345589E+02  0.84320712253E+02  0.00000000000E+00 0.  1.
<mgrwt>
<rscale>  1 0.30000000E+03</rscale>
<asrwt>0</asrwt>
<pdfrwt beam="1">  1        1 0.13760716E+00 0.30000000E+03</pdfrwt>
<pdfrwt beam="2">0</pdfrwt>
<totfact> 0.20827705E+01</totfact>
</mgrwt>
</event>
<event>
 6    1  0.1939311E-004  0.3000000E+03  0.7818608E-02  0.1093470E+00
          1   -1    0    0  502    0  0.00000000000E+00  0.00000000000E+00  0.38391753134E+02  0.38391753134E+02  0.00000000000E+00 0.  1.
         13   -1    0    0    0    0 -0.00000000000E+00 -0.00000000000E+00 -0.10000000000E+04  0.10000000000E+04  0.00000000000E+00 0.  1.
    9000005    2    1    2  501    0 -0.53239409107E+01 -0.13250222547E+02 -0.97007743927E+03  0.10217893447E+04  0.32062332119E+03 0.  0.
         13    1    3    3    0    0  0.13538776960E+03  0.46012679283E+02 -0.67014955874E+03  0.68523532155E+03  0.00000000000E+00 0.  1.
          3    1    3    3  501    0 -0.14071171051E+03 -0.59262901830E+02 -0.29992788053E+03  0.33655402320E+03  0.00000000000E+00 0.  1.
         21    1    1    2  502  501  0.53239409107E+01  0.13250222547E+02  0.84691924089E+01  0.16602408392E+02  0.00000000000E+00 0.  1.
<mgrwt>
<rscale>  1 0.30000000E+03</rscale>
<asrwt>0</asrwt>
<pdfrwt beam="1">  1        1 0.13960667E+00 0.30000000E+03</pdfrwt>
<pdfrwt beam="2">0</pdfrwt>
<totfact> 0.20328608E+01</totfact>
</mgrwt>
</event>
<event>
 6    1  0.1939311E-004  0.3000000E+03  0.7818608E-02  0.1093470E+00
          1   -1    0    0  502    0  0.00000000000E+00  0.00000000000E+00  0.45802743327E+02  0.45802743327E+02  0.00000000000E+00 0.  1.
         13   -1    0    0    0    0 -0.00000000000E+00 -0.00000000000E+00 -0.10000000000E+04  0.10000000000E+04  0.00000000000E+00 0.  1.
    9000005    2    1    2  501    0  0.40287363941E+01  0.20882842829E+02 -0.96107694634E+03  0.10234498023E+04  0.35118125983E+03 0.  0.
         13    1    3    3    0    0  0.17581145026E+02  0.18375032876E+03 -0.43420722608E+03  0.47181478904E+03  0.00000000000E+00 0.  1.
          1    1    3    3  501    0 -0.13552408632E+02 -0.16286748593E+03 -0.52686972026E+03  0.55163501328E+03  0.00000000000E+00 0.  1.
         21    1    1    2  502  501 -0.40287363941E+01 -0.20882842829E+02  0.68796896650E+01  0.22352941002E+02  0.00000000000E+00 0.  1.
<mgrwt>
<rscale>  1 0.30000000E+03</rscale>
<asrwt>0</asrwt>
<pdfrwt beam="1">  1        1 0.16655578E+00 0.30000000E+03</pdfrwt>
<pdfrwt beam="2">0</pdfrwt>
<totfact> 0.14853284E+01</totfact>
</mgrwt>
</event>
<event>
 6    1  0.1939311E-004  0.3000000E+03  0.7818608E-02  0.1093470E+00
          1   -1    0    0  502    0  0.00000000000E+00  0.00000000000E+00  0.48499630987E+02  0.48499630987E+02  0.00000000000E+00 0.  1.
         13   -1    0    0    0    0 -0.00000000000E+00 -0.00000000000E+00 -0.10000000000E+04  0.10000000000E+04  0.00000000000E+00 0.  1.
    9000005    2    1    2  501    0 -0.12153797549E+02 -0.58374373705E+01 -0.97178637212E+03  0.10241416263E+04  0.32297914365E+03 0.  0.
         13    1    3    3    0    0 -0.10298470219E+03  0.12540380615E+03 -0.53717478026E+03  0.56114945249E+03  0.00000000000E+00 0.  1.
          1    1    3    3  501    0  0.90830904646E+02 -0.13124124352E+03 -0.43461159186E+03  0.46299217382E+03  0.00000000000E+00 0.  1.
         21    1    1    2  502  501  0.12153797549E+02  0.58374373705E+01  0.20286003106E+02  0.24358004679E+02  0.00000000000E+00 0. -1.
<mgrwt>
<rscale>  1 0.30000000E+03</rscale>
<asrwt>0</asrwt>
<pdfrwt beam="1">  1        1 0.17636267E+00 0.30000000E+03</pdfrwt>
<pdfrwt beam="2">0</pdfrwt>
<totfact> 0.13303551E+01</totfact>
</mgrwt>
</event>
<event>
 6    1  0.1939311E-004  0.3000000E+03  0.7818608E-02  0.1093470E+00
          1   -1    0    0  502    0  0.00000000000E+00  0.00000000000E+00  0.31158765294E+02  0.31158765294E+02  0.00000000000E+00 0.  1.
         13   -1    0    0    0    0 -0.00000000000E+00 -0.00000000000E+00 -0.10000000000E+04  0.10000000000E+04  0.00000000000E+00 0.  1.
    9000005    2    1    2  501    0 -0.38993776556E-01 -0.19150569676E+02 -0.95719318085E+03  0.10087439711E+04  0.31777172303E+03 0.  0.
         13    1    3    3    0    0 -0.97234160617E+02 -0.99756292309E+02 -0.21705626452E+03  0.25791320597E+03  0.00000000000E+00 0.  1.
          1    1    3    3  501    0  0.97195166841E+02  0.80605722633E+02 -0.74013691633E+03  0.75083076514E+03  0.00000000000E+00 0.  1.
         21    1    1    2  502  501  0.38993776556E-01  0.19150569676E+02 -0.11648053859E+02  0.22414794179E+02  0.00000000000E+00 0.  1.
<mgrwt>
<rscale>  1 0.30000000E+03</rscale>
<asrwt>0</asrwt>
<pdfrwt beam="1">  1        1 0.11330484E+00 0.30000000E+03</pdfrwt>
<pdfrwt beam="2">0</pdfrwt>
<totfact> 0.28404253E+01</totfact>
</mgrwt>
</event>
<event>
 6    1  0.1939311E-004  0.3000000E+03  0.7818608E-02  0.1093470E+00
          1   -1    0    0  502    0  0.00000000000E+00  0.00000000000E+00  0.48420640431E+02  0.48420640431E+02  0.00000000000E+00 0.  1.
         13   -1    0    0    0    0 -0.00000000000E+00 -0.00000000000E+00 -0.10000000000E+04  0.10000000000E+04  0.00000000000E+00 0.  1.
    9000005    2    1    2  501    0 -0.76955081548E+02  0.59212165085E+02 -0.52467438380E+03  0.61061243653E+03  0.29687737124E+03 0.  0.
         13    1    3    3    0    0  0.71660519262E+02  0.12394472518E+03 -0.18227259902E+03  0.23177753401E+03  0.00000000000E+00 0.  1.
          3    1    3    3  501    0 -0.14861560081E+03 -0.64732560092E+02 -0.34240178479E+03  0.37883490252E+03  0.00000000000E+00 0.  1.
         21    1    1    2  502  501  0.76955081548E+02 -0.59212165085E+02 -0.42690497577E+03  0.43780820390E+03  0.00000000000E+00 0. -1.
<mgrwt>
<rscale>  1 0.30000000E+03</rscale>
<asrwt>0</asrwt>
<pdfrwt beam="1">  1        1 0.17607543E+00 0.30000000E+03</pdfrwt>
<pdfrwt beam="2">0</pdfrwt>
<totfact> 0.13346336E+01</totfact>
</mgrwt>
</event>
<event>
 6    1  0.1939311E-004  0.3000000E+03  0.7818608E-02  0.1093470E+00
          1   -1    0    0  502    0  0.00000000000E+00  0.00000000000E+00  0.67878183695E+02  0.67878183695E+02  0.00000000000E+00 0.  1.
         13   -1    0    0    0    0 -0.00000000000E+00 -0.00000000000E+00 -0.10000000000E+04  0.10000000000E+04  0.00000000000E+00 0.  1.
    9000005    2    1    2  501    0 -0.22751137813E+02 -0.40257659401E+02 -0.95949859850E+03  0.10141401002E+04  0.32512196012E+03 0.  0.
         13    1    3    3    0    0  0.40288378013E+02  0.10070620223E+03 -0.72691553644E+03  0.73496332540E+03  0.00000000000E+00 0.  1.
          3    1    3    3  501    0 -0.63039515827E+02 -0.14096386163E+03 -0.23258306206E+03  0.27917677482E+03  0.00000000000E+00 0.  1.
         21    1    1    2  502  501  0.22751137813E+02  0.40257659401E+02  0.27376782191E+02  0.53738083473E+02  0.00000000000E+00 0.  1.
<mgrwt>
<rscale>  1 0.30000000E+03</rscale>
<asrwt>0</asrwt>
<pdfrwt beam="1">  1        1 0.24683028E+00 0.30000000E+03</pdfrwt>
<pdfrwt beam="2">0</pdfrwt>
<totfact> 0.61724688E+00</totfact>
</mgrwt>
</event>
<event>
 6    1  0.1939311E-004  0.3000000E+03  0.7818608E-02  0.1093470E+00
          1   -1    0    0  502    0  0.00000000000E+00  0.00000000000E+00  0.32929908903E+02  0.32929908903E+02  0.00000000000E+00 0.  1.
         13   -1    0    0    0    0 -0.00000000000E+00 -0.00000000000E+00 -0.10000000000E+04  0.10000000000E+04  0.00000000000E+00 0.  1.
    9000005    2    1    2  501    0  0.20036557778E+02 -0.20959981772E+02 -0.90254632948E+03  0.96219024325E+03  0.33223395802E+03 0.  0.
         13    1    3    3    0    0 -0.58941859857E+02 -0.40442547382E+02 -0.87257580847E+03  0.87549887722E+03  0.00000000000E+00 0.  1.
          3    1    3    3  501    0  0.78978417635E+02  0.19482565610E+02 -0.29970521010E+02  0.86691366032E+02  0.00000000000E+00 0.  1.
         21    1    1    2  502  501 -0.20036557778E+02  0.20959981772E+02 -0.64523761617E+02  0.70739665653E+02  0.00000000000E+00 0.  1.
<mgrwt>
<rscale>  1 0.30000000E+03</rscale>
<asrwt>0</asrwt>
<pdfrwt beam="1">  1        1 0.11974538E+00 0.30000000E+03</pdfrwt>
<pdfrwt beam="2">0</pdfrwt>
<totfact> 0.26082390E+01</totfact>
</mgrwt>
</event>
<event>
 6    1  0.1939311E-004  0.3000000E+03  0.7818608E-02  0.1093470E+00
          1   -1    0    0  502    0  0.00000000000E+00  0.00000000000E+00  0.40561900772E+02  0.40561900772E+02  0.00000000000E+00 0.  1.
         13   -1    0    0    0    0 -0.00000000000E+00 -0.00000000000E+00 -0.10000000000E+04  0.10000000000E+04  0.00000000000E+00 0.  1.
    9000005    2    1    2  501    0  0.28645381033E+02 -0.16505423204E+02 -0.95547681440E+03  0.10072650747E+04  0.31710250863E+03 0.  0.
         13    1    3    3    0    0  0.32067301552E+02 -0.16341952087E+03 -0.59813384697E+03  0.62088513472E+03  0.00000000000E+00 0.  1.
          3    1    3    3  501    0 -0.34219205194E+01  0.14691409767E+03 -0.35734296743E+03  0.38637993997E+03  0.00000000000E+00 0.  1.
         21    1    1    2  502  501 -0.28645381033E+02  0.16505423204E+02 -0.39612848241E+01  0.33296826082E+02  0.00000000000E+00 0.  1.
<mgrwt>
<rscale>  1 0.30000000E+03</rscale>
<asrwt>0</asrwt>
<pdfrwt beam="1">  1        1 0.14749813E+00 0.30000000E+03</pdfrwt>
<pdfrwt beam="2">0</pdfrwt>
<totfact> 0.18500917E+01</totfact>
</mgrwt>
</event>
<event>
 6    1  0.1939311E-004  0.3000000E+03  0.7818608E-02  0.1093470E+00
          1   -1    0    0  502    0  0.00000000000E+00  0.00000000000E+00  0.62003814647E+02  0.62003814647E+02  0.00000000000E+00 0.  1.
         13   -1    0    0    0    0 -0.00000000000E+00 -0.00000000000E+00 -0.10000000000E+04  0.10000000000E+04  0.00000000000E+00 0.  1.
    9000005    2    1    2  501    0  0.14853866834E+02  0.85839258387E+01 -0.96942912918E+03  0.10261938845E+04  0.33613498900E+03 0.  0.
         13    1    3    3    0    0 -0.49179804797E+02 -0.15395069915E+03 -0.48619096500E+03  0.51234863659E+03  0.00000000000E+00 0.  1.
          3    1    3    3  501    0  0.64033671631E+02  0.16253462499E+03 -0.48323816419E+03  0.51384524786E+03  0.00000000000E+00 0.  1.
         21    1    1    2  502  501 -0.14853866834E+02 -0.85839258387E+01  0.31432943832E+02  0.35809930196E+02  0.00000000000E+00 0.  1.
<mgrwt>
<rscale>  1 0.30000000E+03</rscale>
<asrwt>0</asrwt>
<pdfrwt beam="1">  1        1 0.22546889E+00 0.30000000E+03</pdfrwt>
<pdfrwt beam="2">0</pdfrwt>
<totfact> 0.77709729E+00</totfact>
</mgrwt>
</event>
<event>
 6    1  0.1939311E-004  0.3000000E+03  0.7818608E-02  0.1093470E+00
          1   -1    0    0  502    0  0.00000000000E+00  0.00000000000E+00  0.28721429652E+02  0.28721429652E+02  0.00000000000E+00 0.  1.
         13   -1    0    0    0    0 -0.00000000000E+00 -0.00000000000E+00 -0.10000000000E+04  0.10000000000E+04  0.00000000000E+00 0.  1.
    9000005    2    1    2  501    0 -0.25628629799E+02 -0.23605484715E+01 -0.86021574372E+03  0.91471550738E+03  0.30995311717E+03 0.  0.
         13    1    3    3    0    0  0.12343410943E+03  0.64134105161E+02 -0.50476219168E+03  0.52357810589E+03  0.00000000000E+00 0.  1.
          3    1    3    3  501    0 -0.14906273923E+03 -0.66494653632E+02 -0.35545355204E+03  0.39113740149E+03  0.00000000000E+00 0.  1.
         21    1    1    2  502  501  0.25628629799E+02  0.23605484715E+01 -0.11106282663E+03  0.11400592227E+03  0.00000000000E+00 0.  1.
<mgrwt>
<rscale>  1 0.30000000E+03</rscale>
<asrwt>0</asrwt>
<pdfrwt beam="1">  1        1 0.10444178E+00 0.30000000E+03</pdfrwt>
<pdfrwt beam="2">0</pdfrwt>
<totfact> 0.32105679E+01</totfact>
</mgrwt>
</event>
<event>
 6    1  0.1939311E-004  0.3000000E+03  0.7818608E-02  0.1093470E+00
          1   -1    0    0  502    0  0.00000000000E+00  0.00000000000E+00  0.31617599439E+02  0.31617599439E+02  0.00000000000E+00 0.  1.
         13   -1    0    0    0    0 -0.00000000000E+00 -0.00000000000E+00 -0.10000000000E+04  0.10000000000E+04  0.00000000000E+00 0.  1.
    9000005    2    1    2  501    0 -0.11847234217E+02 -0.11599308258E+02 -0.95581125870E+03  0.10108105209E+04  0.32846285322E+03 0.  0.
         13    1    3    3    0    0 -0.13138554273E+03 -0.93865940315E+02 -0.31736310552E+03  0.35607908719E+03  0.00000000000E+00 0.  1.
          3    1    3    3  501    0  0.11953830852E+03  0.82266632056E+02 -0.63844815318E+03  0.65473143368E+03  0.00000000000E+00 0.  1.
         21    1    1    2  502  501  0.11847234217E+02  0.11599308258E+02 -0.12571141863E+02  0.20807078565E+02  0.00000000000E+00 0. -1.
<mgrwt>
<rscale>  1 0.30000000E+03</rscale>
<asrwt>0</asrwt>
<pdfrwt beam="1">  1        1 0.11497333E+00 0.30000000E+03</pdfrwt>
<pdfrwt beam="2">0</pdfrwt>
<totfact> 0.27776011E+01</totfact>
</mgrwt>
</event>
<event>
 6    1  0.1939311E-004  0.3000000E+03  0.7818608E-02  0.1093470E+00
          1   -1    0    0  502    0  0.00000000000E+00  0.00000000000E+00  0.34442755979E+02  0.34442755979E+02  0.00000000000E+00 0.  1.
         13   -1    0    0    0    0 -0.00000000000E+00 -0.00000000000E+00 -0.10000000000E+04  0.10000000000E+04  0.00000000000E+00 0.  1.
    9000005    2    1    2  501    0 -0.64809186194E+01  0.23462950024E+02 -0.94567279307E+03  0.10030118203E+04  0.33338141477E+03 0.  0.
         13    1    3    3    0    0 -0.10262421871E+03 -0.76136292164E+02 -0.15770431108E+03  0.20297565120E+03  0.00000000000E+00 0.  1.
          3    1    3    3  501    0  0.96143300087E+02  0.99599242189E+02 -0.78796848199E+03  0.80003616906E+03  0.00000000000E+00 0.  1.
         21    1    1    2  502  501  0.64809186194E+01 -0.23462950024E+02 -0.19884450951E+02  0.31430935710E+02  0.00000000000E+00 0. -1.
<mgrwt>
<rscale>  1 0.30000000E+03</rscale>
<asrwt>0</asrwt>
<pdfrwt beam="1">  1        1 0.12524665E+00 0.30000000E+03</pdfrwt>
<pdfrwt beam="2">0</pdfrwt>
<totfact> 0.24297361E+01</totfact>
</mgrwt>
</event>
<event>
 6    1  0.1939311E-004  0.3000000E+03  0.7818608E-02  0.1093470E+00
          1   -1    0    0  502    0  0.00000000000E+00  0.00000000000E+00  0.28506518829E+02  0.28506518829E+02  0.00000000000E+00 0.  1.
         13   -1    0    0    0    0 -0.00000000000E+00 -0.00000000000E+00 -0.10000000000E+04  0.10000000000E+04  0.00000000000E+00 0.  1.
    9000005    2    1    2  501    0  0.61024467664E+01 -0.85411943097E+01 -0.95556683243E+03  0.10094316664E+04  0.32516784273E+03 0.  0.
         13    1    3    3    0    0 -0.91750856771E+02 -0.60875489305E+02 -0.84720480575E+03  0.85433016323E+03  0.00000000000E+00 0.  1.
          3    1    3    3  501    0  0.97853303537E+02  0.52334294995E+02 -0.10836202667E+03  0.15510150312E+03  0.00000000000E+00 0.  1.
         21    1    1    2  502  501 -0.61024467664E+01  0.85411943097E+01 -0.15926648745E+02  0.19074852477E+02  0.00000000000E+00 0. -1.
<mgrwt>
<rscale>  1 0.30000000E+03</rscale>
<asrwt>0</asrwt>
<pdfrwt beam="1">  1        1 0.10366029E+00 0.30000000E+03</pdfrwt>
<pdfrwt beam="2">0</pdfrwt>
<totfact> 0.32464730E+01</totfact>
</mgrwt>
</event>
<event>
 6    1  0.1939311E-004  0.3000000E+03  0.7818608E-02  0.1093470E+00
          1   -1    0    0  502    0  0.00000000000E+00  0.00000000000E+00  0.40619601265E+02  0.40619601265E+02  0.00000000000E+00 0.  1.
         13   -1    0    0    0    0 -0.00000000000E+00 -0.00000000000E+00 -0.10000000000E+04  0.10000000000E+04  0.00000000000E+00 0.  1.
    9000005    2    1    2  501    0  0.45813483413E+02 -0.29212648074E+02 -0.71771111511E+03  0.79291756915E+03  0.33265112751E+03 0.  0.
         13    1    3    3    0    0 -0.51453892364E+02 -0.85146818141E+02 -0.42057497483E+02  0.10801072527E+03  0.00000000000E+00 0.  1.
          1    1    3    3  501    0  0.97267375776E+02  0.55934170066E+02 -0.67565361763E+03  0.68490684388E+03  0.00000000000E+00 0.  1.
         21    1    1    2  502  501 -0.45813483413E+02  0.29212648074E+02 -0.24166928362E+03  0.24770203212E+03  0.00000000000E+00 0.  1.
<mgrwt>
<rscale>  1 0.30000000E+03</rscale>
<asrwt>0</asrwt>
<pdfrwt beam="1">  1        1 0.14770795E+00 0.30000000E+03</pdfrwt>
<pdfrwt beam="2">0</pdfrwt>
<totfact> 0.18455208E+01</totfact>
</mgrwt>
</event>
<event>
 6    1  0.1939311E-004  0.3000000E+03  0.7818608E-02  0.1093470E+00
          1   -1    0    0  502    0  0.00000000000E+00  0.00000000000E+00  0.32898708558E+02  0.32898708558E+02  0.00000000000E+00 0.  1.
         13   -1    0    0    0    0 -0.00000000000E+00 -0.00000000000E+00 -0.10000000000E+04  0.10000000000E+04  0.00000000000E+00 0.  1.
    9000005    2    1    2  501    0  0.86683529975E+01  0.51175648642E+01 -0.96872372175E+03  0.10227025282E+04  0.32770944797E+03 0.  0.
         13    1    3    3    0    0 -0.67569710800E+02  0.34973560355E+02 -0.92826166981E+03  0.93137454516E+03  0.00000000000E+00 0.  1.
          3    1    3    3  501    0  0.76238063798E+02 -0.29855995491E+02 -0.40462051943E+02  0.91327983038E+02  0.00000000000E+00 0.  1.
         21    1    1    2  502  501 -0.86683529975E+01 -0.51175648642E+01  0.16224303071E+01  0.10196180360E+02  0.00000000000E+00 0.  1.
<mgrwt>
<rscale>  1 0.30000000E+03</rscale>
<asrwt>0</asrwt>
<pdfrwt beam="1">  1        1 0.11963192E+00 0.30000000E+03</pdfrwt>
<pdfrwt beam="2">0</pdfrwt>
<totfact> 0.26120999E+01</totfact>
</mgrwt>
</event>
<event>
 6    1  0.1939311E-004  0.3000000E+03  0.7818608E-02  0.1093470E+00
          1   -1    0    0  502    0  0.00000000000E+00  0.00000000000E+00  0.31458746130E+02  0.31458746130E+02  0.00000000000E+00 0.  1.
         13   -1    0    0    0    0 -0.00000000000E+00 -0.00000000000E+00 -0.10000000000E+04  0.10000000000E+04  0.00000000000E+00 0.  1.
    9000005    2    1    2  501    0  0.68991963309E+01 -0.79915099154E+01 -0.96920792076E+03  0.10208801080E+04  0.32050076135E+03 0.  0.
         13    1    3    3    0    0  0.92204604982E+02 -0.27939076575E+02 -0.74228088744E+02  0.12162273775E+03  0.00000000000E+00 0.  1.
          3    1    3    3  501    0 -0.85305408651E+02  0.19947566660E+02 -0.89497983202E+03  0.89925737021E+03  0.00000000000E+00 0.  1.
         21    1    1    2  502  501 -0.68991963309E+01  0.79915099154E+01  0.66666688972E+00  0.10578638168E+02  0.00000000000E+00 0.  1.
<mgrwt>
<rscale>  1 0.30000000E+03</rscale>
<asrwt>0</asrwt>
<pdfrwt beam="1">  1        1 0.11439568E+00 0.30000000E+03</pdfrwt>
<pdfrwt beam="2">0</pdfrwt>
<totfact> 0.27991274E+01</totfact>
</mgrwt>
</event>
<event>
 6    1  0.1939311E-004  0.3000000E+03  0.7818608E-02  0.1093470E+00
          1   -1    0    0  502    0  0.00000000000E+00  0.00000000000E+00  0.29962607049E+02  0.29962607049E+02  0.00000000000E+00 0.  1.
         13   -1    0    0    0    0 -0.00000000000E+00 -0.00000000000E+00 -0.10000000000E+04  0.10000000000E+04  0.00000000000E+00 0.  1.
    9000005    2    1    2  501    0 -0.88387621385E+01  0.75825789877E+01 -0.95948444226E+03  0.10142468828E+04  0.32855855660E+03 0.  0.
         13    1    3    3    0    0 -0.16208698237E+03 -0.18713645788E+02 -0.36581787863E+03  0.40055600198E+03  0.00000000000E+00 0.  1.
          3    1    3    3  501    0  0.15324822023E+03  0.26296224775E+02 -0.59366656363E+03  0.61369088083E+03  0.00000000000E+00 0.  1.
         21    1    1    2  502  501  0.88387621385E+01 -0.75825789877E+01 -0.10552950692E+02  0.15715724245E+02  0.00000000000E+00 0.  1.
<mgrwt>
<rscale>  1 0.30000000E+03</rscale>
<asrwt>0</asrwt>
<pdfrwt beam="1">  1        1 0.10895516E+00 0.30000000E+03</pdfrwt>
<pdfrwt beam="2">0</pdfrwt>
<totfact> 0.30140047E+01</totfact>
</mgrwt>
</event>
<event>
 6    1  0.1939311E-004  0.3000000E+03  0.7818608E-02  0.1093470E+00
          1   -1    0    0  502    0  0.00000000000E+00  0.00000000000E+00  0.28796962021E+02  0.28796962021E+02  0.00000000000E+00 0.  1.
         13   -1    0    0    0    0 -0.00000000000E+00 -0.00000000000E+00 -0.10000000000E+04  0.10000000000E+04  0.00000000000E+00 0.  1.
    9000005    2    1    2  501    0  0.93294620819E+01  0.64601716209E+01 -0.96774008905E+03  0.10169325322E+04  0.31225329842E+03 0.  0.
         13    1    3    3    0    0  0.10169455398E+03  0.12407074122E+03 -0.43652289254E+03  0.46506727131E+03  0.00000000000E+00 0.  1.
          1    1    3    3  501    0 -0.92365091902E+02 -0.11761056960E+03 -0.53121719652E+03  0.55186526087E+03  0.00000000000E+00 0.  1.
         21    1    1    2  502  501 -0.93294620819E+01 -0.64601716209E+01 -0.34629489255E+01  0.11864429838E+02  0.00000000000E+00 0. -1.
<mgrwt>
<rscale>  1 0.30000000E+03</rscale>
<asrwt>0</asrwt>
<pdfrwt beam="1">  1        1 0.10471645E+00 0.30000000E+03</pdfrwt>
<pdfrwt beam="2">0</pdfrwt>
<totfact> 0.31980855E+01</totfact>
</mgrwt>
</event>
<event>
 6    1  0.1939311E-004  0.3000000E+03  0.7818608E-02  0.1093470E+00
          1   -1    0    0  502    0  0.00000000000E+00  0.00000000000E+00  0.41095487476E+02  0.41095487476E+02  0.00000000000E+00 0.  1.
         13   -1    0    0    0    0 -0.00000000000E+00 -0.00000000000E+00 -0.10000000000E+04  0.10000000000E+04  0.00000000000E+00 0.  1.
    9000005    2    1    2  501    0 -0.31694694214E+01  0.45835407949E+02 -0.93264645484E+03  0.98817653292E+03  0.32334582156E+03 0.  0.
         13    1    3    3    0    0  0.56684383220E+02  0.15889022067E+03 -0.31405191025E+03  0.35649379217E+03  0.00000000000E+00 0.  1.
          3    1    3    3  501    0 -0.59853852641E+02 -0.11305481272E+03 -0.61859454459E+03  0.63168274074E+03  0.00000000000E+00 0.  1.
         21    1    1    2  502  501  0.31694694214E+01 -0.45835407949E+02 -0.26258057684E+02  0.52918954559E+02  0.00000000000E+00 0.  1.
<mgrwt>
<rscale>  1 0.30000000E+03</rscale>
<asrwt>0</asrwt>
<pdfrwt beam="1">  1        1 0.14943845E+00 0.30000000E+03</pdfrwt>
<pdfrwt beam="2">0</pdfrwt>
<totfact> 0.18083552E+01</totfact>
</mgrwt>
</event>
<event>
 6    1  0.1939311E-004  0.3000000E+03  0.7818608E-02  0.1093470E+00
          1   -1    0    0  502    0  0.00000000000E+00  0.00000000000E+00  0.44575021795E+02  0.44575021795E+02  0.00000000000E+00 0.  1.
         13   -1    0    0    0    0 -0.00000000000E+00 -0.00000000000E+00 -0.10000000000E+04  0.10000000000E+04  0.00000000000E+00 0.  1.
    9000005    2    1    2  501    0 -0.44316968449E+02 -0.23980351890E+02 -0.92934713962E+03  0.98783786788E+03  0.33105663613E+03 0.  0.
         13    1    3    3    0    0  0.53222578154E+02 -0.85259589642E+02 -0.74106061668E+02  0.12487413194E+03  0.00000000000E+00 0.  1.
          1    1    3    3  501    0 -0.97539546603E+02  0.61279237753E+02 -0.85524107795E+03  0.86296373594E+03  0.00000000000E+00 0.  1.
         21    1    1    2  502  501  0.44316968449E+02  0.23980351890E+02 -0.26077838585E+02  0.56737153917E+02  0.00000000000E+00 0.  1.
<mgrwt>
<rscale>  1 0.30000000E+03</rscale>
<asrwt>0</asrwt>
<pdfrwt beam="1">  1        1 0.16209133E+00 0.30000000E+03</pdfrwt>
<pdfrwt beam="2">0</pdfrwt>
<totfact> 0.15625479E+01</totfact>
</mgrwt>
</event>
<event>
 6    1  0.1939311E-004  0.3000000E+03  0.7818608E-02  0.1093470E+00
          1   -1    0    0  502    0  0.00000000000E+00  0.00000000000E+00  0.37956993904E+02  0.37956993904E+02  0.00000000000E+00 0.  1.
         13   -1    0    0    0    0 -0.00000000000E+00 -0.00000000000E+00 -0.10000000000E+04  0.10000000000E+04  0.00000000000E+00 0.  1.
    9000005    2    1    2  501    0 -0.25709030616E+02 -0.41830086545E+01 -0.94665757933E+03  0.10077053299E+04  0.34442852327E+03 0.  0.
         13    1    3    3    0    0  0.16629687758E+02 -0.16777272362E+03 -0.57953609403E+03  0.60356136191E+03  0.00000000000E+00 0.  1.
          3    1    3    3  501    0 -0.42338718374E+02  0.16358971497E+03 -0.36712148530E+03  0.40414396802E+03  0.00000000000E+00 0.  1.
         21    1    1    2  502  501  0.25709030616E+02  0.41830086545E+01 -0.15385426766E+02  0.30251663977E+02  0.00000000000E+00 0. -1.
<mgrwt>
<rscale>  1 0.30000000E+03</rscale>
<asrwt>0</asrwt>
<pdfrwt beam="1">  1        1 0.13802572E+00 0.30000000E+03</pdfrwt>
<pdfrwt beam="2">0</pdfrwt>
<totfact> 0.20721942E+01</totfact>
</mgrwt>
</event>
<event>
 6    1  0.1939311E-004  0.3000000E+03  0.7818608E-02  0.1093470E+00
          1   -1    0    0  502    0  0.00000000000E+00  0.00000000000E+00  0.55695291833E+02  0.55695291833E+02  0.00000000000E+00 0.  1.
         13   -1    0    0    0    0 -0.00000000000E+00 -0.00000000000E+00 -0.10000000000E+04  0.10000000000E+04  0.00000000000E+00 0.  1.
    9000005    2    1    2  501    0  0.24096408878E+02 -0.52271780835E+02 -0.88109170524E+03  0.97020342245E+03  0.40206854128E+03 0.  0.
         13    1    3    3    0    0 -0.57054401847E+01  0.71204911363E+02  0.81851972213E+01  0.71900548701E+02  0.00000000000E+00 0.  1.
          1    1    3    3  501    0  0.29801849063E+02 -0.12347669220E+03 -0.88927690246E+03  0.89830287375E+03  0.00000000000E+00 0.  1.
         21    1    1    2  502  501 -0.24096408878E+02  0.52271780835E+02 -0.63213002924E+02  0.85491869386E+02  0.00000000000E+00 0.  1.
<mgrwt>
<rscale>  1 0.30000000E+03</rscale>
<asrwt>0</asrwt>
<pdfrwt beam="1">  1        1 0.20252876E+00 0.30000000E+03</pdfrwt>
<pdfrwt beam="2">0</pdfrwt>
<totfact> 0.99639886E+00</totfact>
</mgrwt>
</event>
<event>
 6    1  0.1939311E-004  0.3000000E+03  0.7818608E-02  0.1093470E+00
          1   -1    0    0  502    0  0.00000000000E+00  0.00000000000E+00  0.47316730053E+02  0.47316730053E+02  0.00000000000E+00 0.  1.
         13   -1    0    0    0    0 -0.00000000000E+00 -0.00000000000E+00 -0.10000000000E+04  0.10000000000E+04  0.00000000000E+00 0.  1.
    9000005    2    1    2  501    0 -0.55571364875E+02  0.21202251672E+02 -0.92719486870E+03  0.98260683384E+03  0.31982519178E+03 0.  0.
         13    1    3    3    0    0 -0.73180860619E+02  0.23716765648E+02 -0.95032174915E+03  0.95343030696E+03  0.00000000000E+00 0.  1.
          1    1    3    3  501    0  0.17609495744E+02 -0.25145139761E+01  0.23126880452E+02  0.29176526872E+02  0.00000000000E+00 0.  1.
         21    1    1    2  502  501  0.55571364875E+02 -0.21202251672E+02 -0.25488401251E+02  0.64709896217E+02  0.00000000000E+00 0.  1.
<mgrwt>
<rscale>  1 0.30000000E+03</rscale>
<asrwt>0</asrwt>
<pdfrwt beam="1">  1        1 0.17206120E+00 0.30000000E+03</pdfrwt>
<pdfrwt beam="2">0</pdfrwt>
<totfact> 0.13960054E+01</totfact>
</mgrwt>
</event>
<event>
 6    1  0.1939311E-004  0.3000000E+03  0.7818608E-02  0.1093470E+00
          1   -1    0    0  502    0  0.00000000000E+00  0.00000000000E+00  0.27929563261E+02  0.27929563261E+02  0.00000000000E+00 0.  1.
         13   -1    0    0    0    0 -0.00000000000E+00 -0.00000000000E+00 -0.10000000000E+04  0.10000000000E+04  0.00000000000E+00 0.  1.
    9000005    2    1    2  501    0 -0.72607100358E+01 -0.41159117339E+01 -0.95357156821E+03  0.10076350621E+04  0.32551501360E+03 0.  0.
         13    1    3    3    0    0  0.20645461120E+02 -0.33818113500E+02  0.11848133081E+02  0.41355508981E+02  0.00000000000E+00 0.  1.
          3    1    3    3  501    0 -0.27906171156E+02  0.29702201766E+02 -0.96541970130E+03  0.96627955315E+03  0.00000000000E+00 0.  1.
         21    1    1    2  502  501  0.72607100358E+01  0.41159117339E+01 -0.18498868524E+02  0.20294501134E+02  0.00000000000E+00 0.  1.
<mgrwt>
<rscale>  1 0.30000000E+03</rscale>
<asrwt>0</asrwt>
<pdfrwt beam="1">  1        1 0.10156226E+00 0.30000000E+03</pdfrwt>
<pdfrwt beam="2">0</pdfrwt>
<totfact> 0.33458080E+01</totfact>
</mgrwt>
</event>
<event>
 6    1  0.1939311E-004  0.3000000E+03  0.7818608E-02  0.1093470E+00
          1   -1    0    0  502    0  0.00000000000E+00  0.00000000000E+00  0.37914907942E+02  0.37914907942E+02  0.00000000000E+00 0.  1.
         13   -1    0    0    0    0 -0.00000000000E+00 -0.00000000000E+00 -0.10000000000E+04  0.10000000000E+04  0.00000000000E+00 0.  1.
    9000005    2    1    2  501    0  0.23476091594E+02 -0.10541667190E+02 -0.94477236430E+03  0.10068990384E+04  0.34725869244E+03 0.  0.
         13    1    3    3    0    0  0.14871674097E+03  0.76373497719E+02 -0.69032078375E+03  0.71027625941E+03  0.00000000000E+00 0.  1.
          1    1    3    3  501    0 -0.12524064938E+03 -0.86915164909E+02 -0.25445158055E+03  0.29662277895E+03  0.00000000000E+00 0.  1.
         21    1    1    2  502  501 -0.23476091594E+02  0.10541667190E+02 -0.17312727757E+02  0.31015869584E+02  0.00000000000E+00 0.  1.
<mgrwt>
<rscale>  1 0.30000000E+03</rscale>
<asrwt>0</asrwt>
<pdfrwt beam="1">  1        1 0.13787268E+00 0.30000000E+03</pdfrwt>
<pdfrwt beam="2">0</pdfrwt>
<totfact> 0.20760533E+01</totfact>
</mgrwt>
</event>
<event>
 6    1  0.1939311E-004  0.3000000E+03  0.7818608E-02  0.1093470E+00
          1   -1    0    0  502    0  0.00000000000E+00  0.00000000000E+00  0.37039301871E+02  0.37039301871E+02  0.00000000000E+00 0.  1.
         13   -1    0    0    0    0 -0.00000000000E+00 -0.00000000000E+00 -0.10000000000E+04  0.10000000000E+04  0.00000000000E+00 0.  1.
    9000005    2    1    2  501    0  0.31570315878E+02  0.20302460017E+02 -0.94345577999E+03  0.99473898794E+03  0.31303030300E+03 0.  0.
         13    1    3    3    0    0  0.12432129225E+03 -0.48028445810E+02 -0.18741586257E+03  0.22997221758E+03  0.00000000000E+00 0.  1.
          1    1    3    3  501    0 -0.92750976377E+02  0.68330905827E+02 -0.75603991742E+03  0.76476677036E+03  0.00000000000E+00 0.  1.
         21    1    1    2  502  501 -0.31570315878E+02 -0.20302460017E+02 -0.19504918137E+02  0.42300313933E+02  0.00000000000E+00 0.  1.
<mgrwt>
<rscale>  1 0.30000000E+03</rscale>
<asrwt>0</asrwt>
<pdfrwt beam="1">  1        1 0.13468865E+00 0.30000000E+03</pdfrwt>
<pdfrwt beam="2">0</pdfrwt>
<totfact> 0.21585023E+01</totfact>
</mgrwt>
</event>
<event>
 6    1  0.1939311E-004  0.3000000E+03  0.7818608E-02  0.1093470E+00
          1   -1    0    0  502    0  0.00000000000E+00  0.00000000000E+00  0.14429779366E+02  0.14429779366E+02  0.00000000000E+00 0.  1.
         13   -1    0    0    0    0 -0.00000000000E+00 -0.00000000000E+00 -0.10000000000E+04  0.10000000000E+04  0.00000000000E+00 0.  1.
    9000005    2    1    2  501    0 -0.17287238233E+02 -0.24395716150E+02 -0.92416089309E+03  0.94612820485E+03  0.20047749031E+03 0.  0.
         13    1    3    3    0    0  0.53748816120E+02 -0.25445729830E+02 -0.83726354485E+02  0.10269626496E+03  0.00000000000E+00 0.  1.
          1    1    3    3  501    0 -0.71036054353E+02  0.10500136793E+01 -0.84043453861E+03  0.84343193989E+03  0.00000000000E+00 0.  1.
         21    1    1    2  502  501  0.17287238233E+02  0.24395716150E+02 -0.61409327539E+02  0.68301574514E+02  0.00000000000E+00 0.  1.
<mgrwt>
<rscale>  1 0.30000000E+03</rscale>
<asrwt>0</asrwt>
<pdfrwt beam="1">  1        1 0.52472036E-01 0.30000000E+03</pdfrwt>
<pdfrwt beam="2">0</pdfrwt>
<totfact> 0.82818004E+01</totfact>
</mgrwt>
</event>
<event>
 6    1  0.1939311E-004  0.3000000E+03  0.7818608E-02  0.1093470E+00
          1   -1    0    0  502    0  0.00000000000E+00  0.00000000000E+00  0.29418781295E+02  0.29418781295E+02  0.00000000000E+00 0.  1.
         13   -1    0    0    0    0 -0.00000000000E+00 -0.00000000000E+00 -0.10000000000E+04  0.10000000000E+04  0.00000000000E+00 0.  1.
    9000005    2    1    2  501    0 -0.13421835545E+02  0.42618692496E+01 -0.95572792423E+03  0.10089510126E+04  0.32306032171E+03 0.  0.
         13    1    3    3    0    0 -0.40315737892E+02  0.68189925208E+02 -0.36691084519E+02  0.87300975394E+02  0.00000000000E+00 0.  1.
          3    1    3    3  501    0  0.26893902347E+02 -0.63928055958E+02 -0.91903683971E+03  0.92165003720E+03  0.00000000000E+00 0.  1.
         21    1    1    2  502  501  0.13421835545E+02 -0.42618692496E+01 -0.14853294477E+02  0.20467768705E+02  0.00000000000E+00 0.  1.
<mgrwt>
<rscale>  1 0.30000000E+03</rscale>
<asrwt>0</asrwt>
<pdfrwt beam="1">  1        1 0.10697761E+00 0.30000000E+03</pdfrwt>
<pdfrwt beam="2">0</pdfrwt>
<totfact> 0.30979382E+01</totfact>
</mgrwt>
</event>
<event>
 6    1  0.1939311E-004  0.3000000E+03  0.7818608E-02  0.1093470E+00
          1   -1    0    0  502    0  0.00000000000E+00  0.00000000000E+00  0.36196447487E+02  0.36196447487E+02  0.00000000000E+00 0.  1.
         13   -1    0    0    0    0 -0.00000000000E+00 -0.00000000000E+00 -0.10000000000E+04  0.10000000000E+04  0.00000000000E+00 0.  1.
    9000005    2    1    2  501    0 -0.60550663856E+01 -0.47544075287E+02 -0.84450937154E+03  0.90763438257E+03  0.32910027479E+03 0.  0.
         13    1    3    3    0    0 -0.48821524092E+02  0.38849050339E+01 -0.83910069326E+03  0.84052876639E+03  0.00000000000E+00 0.  1.
          1    1    3    3  501    0  0.42766457706E+02 -0.51428980320E+02 -0.54086782846E+01  0.67105616176E+02  0.00000000000E+00 0.  1.
         21    1    1    2  502  501  0.60550663856E+01  0.47544075287E+02 -0.11929418097E+03  0.12856206492E+03  0.00000000000E+00 0.  1.
<mgrwt>
<rscale>  1 0.30000000E+03</rscale>
<asrwt>0</asrwt>
<pdfrwt beam="1">  1        1 0.13162372E+00 0.30000000E+03</pdfrwt>
<pdfrwt beam="2">0</pdfrwt>
<totfact> 0.22420128E+01</totfact>
</mgrwt>
</event>
<event>
 6    1  0.1939311E-004  0.3000000E+03  0.7818608E-02  0.1093470E+00
          1   -1    0    0  502    0  0.00000000000E+00  0.00000000000E+00  0.33831096085E+02  0.33831096085E+02  0.00000000000E+00 0.  1.
         13   -1    0    0    0    0 -0.00000000000E+00 -0.00000000000E+00 -0.10000000000E+04  0.10000000000E+04  0.00000000000E+00 0.  1.
    9000005    2    1    2  501    0  0.16054328678E+02 -0.15913247789E+01 -0.95160823578E+03  0.10120989347E+04  0.34427568218E+03 0.  0.
         13    1    3    3    0    0  0.34716970501E+02 -0.17046455488E+03 -0.51560351734E+03  0.54416028852E+03  0.00000000000E+00 0.  1.
          3    1    3    3  501    0 -0.18662641823E+02  0.16887323010E+03 -0.43600471845E+03  0.46793864614E+03  0.00000000000E+00 0.  1.
         21    1    1    2  502  501 -0.16054328678E+02  0.15913247789E+01 -0.14560668133E+02  0.21732161428E+02  0.00000000000E+00 0.  1.
<mgrwt>
<rscale>  1 0.30000000E+03</rscale>
<asrwt>0</asrwt>
<pdfrwt beam="1">  1        1 0.12302243E+00 0.30000000E+03</pdfrwt>
<pdfrwt beam="2">0</pdfrwt>
<totfact> 0.24999240E+01</totfact>
</mgrwt>
</event>
<event>
 6    1  0.1939311E-004  0.3000000E+03  0.7818608E-02  0.1093470E+00
          1   -1    0    0  502    0  0.00000000000E+00  0.00000000000E+00  0.39532918476E+02  0.39532918476E+02  0.00000000000E+00 0.  1.
         13   -1    0    0    0    0 -0.00000000000E+00 -0.00000000000E+00 -0.10000000000E+04  0.10000000000E+04  0.00000000000E+00 0.  1.
    9000005    2    1    2  501    0  0.63117903794E+01  0.98593182273E+01 -0.97049598845E+03  0.10241178665E+04  0.32683007207E+03 0.  0.
         13    1    3    3    0    0  0.13761069939E+02 -0.47385874116E+02  0.25038357298E+01  0.49407057238E+02  0.00000000000E+00 0.  1.
          3    1    3    3  501    0 -0.74492795597E+01  0.57245192343E+02 -0.97299982418E+03  0.97471080925E+03  0.00000000000E+00 0.  1.
         21    1    1    2  502  501 -0.63117903794E+01 -0.98593182273E+01  0.10028906925E+02  0.15415051989E+02  0.00000000000E+00 0. -1.
<mgrwt>
<rscale>  1 0.30000000E+03</rscale>
<asrwt>0</asrwt>
<pdfrwt beam="1">  1        1 0.14375637E+00 0.30000000E+03</pdfrwt>
<pdfrwt beam="2">0</pdfrwt>
<totfact> 0.19340443E+01</totfact>
</mgrwt>
</event>
<event>
 6    1  0.1939311E-004  0.3000000E+03  0.7818608E-02  0.1093470E+00
          3   -1    0    0  502    0  0.00000000000E+00  0.00000000000E+00  0.18542182902E+02  0.18542182902E+02  0.00000000000E+00 0.  1.
         13   -1    0    0    0    0 -0.00000000000E+00 -0.00000000000E+00 -0.10000000000E+04  0.10000000000E+04  0.00000000000E+00 0.  1.
    9000005    2    1    2  501    0  0.80357144754E+01 -0.10652845954E+02 -0.96964056994E+03  0.10007179532E+04  0.24709417467E+03 0.  0.
         13    1    3    3    0    0 -0.71874571698E+02 -0.91921692328E+02 -0.30859564297E+03  0.32991941810E+03  0.00000000000E+00 0.  1.
          3    1    3    3  501    0  0.79910286173E+02  0.81268846374E+02 -0.66104492696E+03  0.67079853510E+03  0.00000000000E+00 0.  1.
         21    1    1    2  502  501 -0.80357144754E+01  0.10652845954E+02 -0.11817247161E+02  0.17824229704E+02  0.00000000000E+00 0.  1.
<mgrwt>
<rscale>  1 0.30000000E+03</rscale>
<asrwt>0</asrwt>
<pdfrwt beam="1">  1        3 0.67426262E-01 0.30000000E+03</pdfrwt>
<pdfrwt beam="2">0</pdfrwt>
<totfact> 0.96447348E+00</totfact>
</mgrwt>
</event>
<event>
 6    1  0.1939311E-004  0.3000000E+03  0.7818608E-02  0.1093470E+00
          1   -1    0    0  502    0  0.00000000000E+00  0.00000000000E+00  0.25724432651E+02  0.25724432651E+02  0.00000000000E+00 0.  1.
         13   -1    0    0    0    0 -0.00000000000E+00 -0.00000000000E+00 -0.10000000000E+04  0.10000000000E+04  0.00000000000E+00 0.  1.
    9000005    2    1    2  501    0  0.57130050844E+01 -0.92515617657E+01 -0.95377266282E+03  0.10025166987E+04  0.30860850435E+03 0.  0.
         13    1    3    3    0    0  0.23138081751E+02  0.14478920438E+03 -0.35701403135E+03  0.38595116675E+03  0.00000000000E+00 0.  1.
          3    1    3    3  501    0 -0.17425076667E+02 -0.15404076614E+03 -0.59675863147E+03  0.61656553193E+03  0.00000000000E+00 0.  1.
         21    1    1    2  502  501 -0.57130050844E+01  0.92515617657E+01 -0.20502904527E+02  0.23207733975E+02  0.00000000000E+00 0. -1.
<mgrwt>
<rscale>  1 0.30000000E+03</rscale>
<asrwt>0</asrwt>
<pdfrwt beam="1">  1        1 0.93543589E-01 0.30000000E+03</pdfrwt>
<pdfrwt beam="2">0</pdfrwt>
<totfact> 0.37698495E+01</totfact>
</mgrwt>
</event>
<event>
 6    1  0.1939311E-004  0.3000000E+03  0.7818608E-02  0.1093470E+00
          1   -1    0    0  502    0  0.00000000000E+00  0.00000000000E+00  0.27523150574E+02  0.27523150574E+02  0.00000000000E+00 0.  1.
         13   -1    0    0    0    0 -0.00000000000E+00 -0.00000000000E+00 -0.10000000000E+04  0.10000000000E+04  0.00000000000E+00 0.  1.
    9000005    2    1    2  501    0 -0.13687045744E+02  0.41165822494E+00 -0.93791929249E+03  0.99035152934E+03  0.31767286280E+03 0.  0.
         13    1    3    3    0    0  0.69359824209E+02 -0.54416015056E+02 -0.85854679525E+03  0.86306111460E+03  0.00000000000E+00 0.  1.
          1    1    3    3  501    0 -0.83046869953E+02  0.54827673281E+02 -0.79372497247E+02  0.12729041474E+03  0.00000000000E+00 0.  1.
         21    1    1    2  502  501  0.13687045744E+02 -0.41165822494E+00 -0.34557556933E+02  0.37171621230E+02  0.00000000000E+00 0. -1.
<mgrwt>
<rscale>  1 0.30000000E+03</rscale>
<asrwt>0</asrwt>
<pdfrwt beam="1">  1        1 0.10008439E+00 0.30000000E+03</pdfrwt>
<pdfrwt beam="2">0</pdfrwt>
<totfact> 0.34184753E+01</totfact>
</mgrwt>
</event>
<event>
 6    1  0.1939311E-004  0.3000000E+03  0.7818608E-02  0.1093470E+00
          1   -1    0    0  502    0  0.00000000000E+00  0.00000000000E+00  0.41334297087E+02  0.41334297087E+02  0.00000000000E+00 0.  1.
         13   -1    0    0    0    0 -0.00000000000E+00 -0.00000000000E+00 -0.10000000000E+04  0.10000000000E+04  0.00000000000E+00 0.  1.
    9000005    2    1    2  501    0 -0.99251157329E+01  0.55412799926E+01 -0.97252473868E+03  0.10234098284E+04  0.31848719877E+03 0.  0.
         13    1    3    3    0    0 -0.35348006217E+02  0.90775718577E+02 -0.78871731715E+02  0.12534138459E+03  0.00000000000E+00 0.  1.
          1    1    3    3  501    0  0.25422890485E+02 -0.85234438584E+02 -0.89365300696E+03  0.89806844379E+03  0.00000000000E+00 0.  1.
         21    1    1    2  502  501  0.99251157329E+01 -0.55412799926E+01  0.13859035762E+02  0.17924468709E+02  0.00000000000E+00 0.  1.
<mgrwt>
<rscale>  1 0.30000000E+03</rscale>
<asrwt>0</asrwt>
<pdfrwt beam="1">  1        1 0.15030685E+00 0.30000000E+03</pdfrwt>
<pdfrwt beam="2">0</pdfrwt>
<totfact> 0.17900555E+01</totfact>
</mgrwt>
</event>
<event>
 6    1  0.1939311E-004  0.3000000E+03  0.7818608E-02  0.1093470E+00
          1   -1    0    0  502    0  0.00000000000E+00  0.00000000000E+00  0.24065427714E+02  0.24065427714E+02  0.00000000000E+00 0.  1.
         13   -1    0    0    0    0 -0.00000000000E+00 -0.00000000000E+00 -0.10000000000E+04  0.10000000000E+04  0.00000000000E+00 0.  1.
    9000005    2    1    2  501    0 -0.69434083842E+00 -0.79319981291E+01 -0.94998194597E+03  0.99691883463E+03  0.30218879275E+03 0.  0.
         13    1    3    3    0    0  0.70216532703E+02  0.82051667311E+02 -0.13015087357E+03  0.16912151686E+03  0.00000000000E+00 0.  1.
          3    1    3    3  501    0 -0.70910873542E+02 -0.89983665440E+02 -0.81983107240E+03  0.82779731777E+03  0.00000000000E+00 0.  1.
         21    1    1    2  502  501  0.69434083842E+00  0.79319981291E+01 -0.25952626314E+02  0.27146593085E+02  0.00000000000E+00 0. -1.
<mgrwt>
<rscale>  1 0.30000000E+03</rscale>
<asrwt>0</asrwt>
<pdfrwt beam="1">  1        1 0.87510831E-01 0.30000000E+03</pdfrwt>
<pdfrwt beam="2">0</pdfrwt>
<totfact> 0.41441468E+01</totfact>
</mgrwt>
</event>
<event>
 6    1  0.1939311E-004  0.3000000E+03  0.7818608E-02  0.1093470E+00
          1   -1    0    0  502    0  0.00000000000E+00  0.00000000000E+00  0.36292173881E+02  0.36292173881E+02  0.00000000000E+00 0.  1.
         13   -1    0    0    0    0 -0.00000000000E+00 -0.00000000000E+00 -0.10000000000E+04  0.10000000000E+04  0.00000000000E+00 0.  1.
    9000005    2    1    2  501    0 -0.56340318821E+01 -0.46080424920E+02 -0.88686016593E+03  0.94651071280E+03  0.32742392654E+03 0.  0.
         13    1    3    3    0    0 -0.52617240748E+02  0.13276094928E+03 -0.32459948036E+03  0.35462496574E+03  0.00000000000E+00 0.  1.
          1    1    3    3  501    0  0.46983208866E+02 -0.17884137420E+03 -0.56226068557E+03  0.59188574706E+03  0.00000000000E+00 0.  1.
         21    1    1    2  502  501  0.56340318821E+01  0.46080424920E+02 -0.76847660193E+02  0.89781461077E+02  0.00000000000E+00 0.  1.
<mgrwt>
<rscale>  1 0.30000000E+03</rscale>
<asrwt>0</asrwt>
<pdfrwt beam="1">  1        1 0.13197182E+00 0.30000000E+03</pdfrwt>
<pdfrwt beam="2">0</pdfrwt>
<totfact> 0.22323162E+01</totfact>
</mgrwt>
</event>
<event>
 6    1  0.1939311E-004  0.3000000E+03  0.7818608E-02  0.1093470E+00
          1   -1    0    0  502    0  0.00000000000E+00  0.00000000000E+00  0.32669762620E+02  0.32669762620E+02  0.00000000000E+00 0.  1.
         13   -1    0    0    0    0 -0.00000000000E+00 -0.00000000000E+00 -0.10000000000E+04  0.10000000000E+04  0.00000000000E+00 0.  1.
    9000005    2    1    2  501    0  0.17009722501E+02  0.32669443256E+02 -0.87089212677E+03  0.92943734349E+03  0.32255860834E+03 0.  0.
         13    1    3    3    0    0  0.27844797560E+02 -0.14989253556E+02 -0.87927956679E+03  0.87984803634E+03  0.00000000000E+00 0.  1.
          1    1    3    3  501    0 -0.10835075059E+02  0.47658696812E+02  0.83874400200E+01  0.49589307149E+02  0.00000000000E+00 0.  1.
         21    1    1    2  502  501 -0.17009722501E+02 -0.32669443256E+02 -0.96438110608E+02  0.10323241913E+03  0.00000000000E+00 0. -1.
<mgrwt>
<rscale>  1 0.30000000E+03</rscale>
<asrwt>0</asrwt>
<pdfrwt beam="1">  1        1 0.11879939E+00 0.30000000E+03</pdfrwt>
<pdfrwt beam="2">0</pdfrwt>
<totfact> 0.26406676E+01</totfact>
</mgrwt>
</event>
<event>
 6    1  0.1939311E-004  0.3000000E+03  0.7818608E-02  0.1093470E+00
          1   -1    0    0  502    0  0.00000000000E+00  0.00000000000E+00  0.33945894083E+02  0.33945894083E+02  0.00000000000E+00 0.  1.
         13   -1    0    0    0    0 -0.00000000000E+00 -0.00000000000E+00 -0.10000000000E+04  0.10000000000E+04  0.00000000000E+00 0.  1.
    9000005    2    1    2  501    0 -0.95040190313E+01  0.31532696064E+01 -0.97209058368E+03  0.10222536509E+04  0.31613629086E+03 0.  0.
         13    1    3    3    0    0  0.24896699671E+02  0.14752300858E+03 -0.31656216311E+03  0.35013495517E+03  0.00000000000E+00 0.  1.
          3    1    3    3  501    0 -0.34400718703E+02 -0.14436973897E+03 -0.65552842057E+03  0.67211869573E+03  0.00000000000E+00 0.  1.
         21    1    1    2  502  501  0.95040190313E+01 -0.31532696064E+01  0.60364777633E+01  0.11692243187E+02  0.00000000000E+00 0.  1.
<mgrwt>
<rscale>  1 0.30000000E+03</rscale>
<asrwt>0</asrwt>
<pdfrwt beam="1">  1        1 0.12343988E+00 0.30000000E+03</pdfrwt>
<pdfrwt beam="2">0</pdfrwt>
<totfact> 0.24865537E+01</totfact>
</mgrwt>
</event>
<event>
 6    1  0.1939311E-004  0.3000000E+03  0.7818608E-02  0.1093470E+00
          1   -1    0    0  502    0  0.00000000000E+00  0.00000000000E+00  0.52059440113E+02  0.52059440113E+02  0.00000000000E+00 0.  1.
         13   -1    0    0    0    0 -0.00000000000E+00 -0.00000000000E+00 -0.10000000000E+04  0.10000000000E+04  0.00000000000E+00 0.  1.
    9000005    2    1    2  501    0 -0.39025836109E+01  0.96075375174E+02 -0.84669260079E+03  0.91242829353E+03  0.32617682740E+03 0.  0.
         13    1    3    3    0    0 -0.48934246160E+02 -0.95064294934E+02 -0.52307674341E+03  0.53389236754E+03  0.00000000000E+00 0.  1.
          3    1    3    3  501    0  0.45031662549E+02  0.19113967011E+03 -0.32361585738E+03  0.37853592599E+03  0.00000000000E+00 0.  1.
         21    1    1    2  502  501  0.39025836109E+01 -0.96075375174E+02 -0.10124795910E+03  0.13963114658E+03  0.00000000000E+00 0. -1.
<mgrwt>
<rscale>  1 0.30000000E+03</rscale>
<asrwt>0</asrwt>
<pdfrwt beam="1">  1        1 0.18930745E+00 0.30000000E+03</pdfrwt>
<pdfrwt beam="2">0</pdfrwt>
<totfact> 0.11521851E+01</totfact>
</mgrwt>
</event>
<event>
 6    1  0.1939311E-004  0.3000000E+03  0.7818608E-02  0.1093470E+00
          1   -1    0    0  502    0  0.00000000000E+00  0.00000000000E+00  0.36722484582E+02  0.36722484582E+02  0.00000000000E+00 0.  1.
         13   -1    0    0    0    0 -0.00000000000E+00 -0.00000000000E+00 -0.10000000000E+04  0.10000000000E+04  0.00000000000E+00 0.  1.
    9000005    2    1    2  501    0 -0.15601106251E+02 -0.13759009946E+02 -0.96461738598E+03  0.10158778180E+04  0.31794391793E+03 0.  0.
         13    1    3    3    0    0 -0.57423185585E+02 -0.12535890854E+03 -0.20556510543E+03  0.24752634357E+03  0.00000000000E+00 0.  1.
          3    1    3    3  501    0  0.41822079333E+02  0.11159989859E+03 -0.75905228055E+03  0.76835147445E+03  0.00000000000E+00 0.  1.
         21    1    1    2  502  501  0.15601106251E+02  0.13759009946E+02  0.13398705582E+01  0.20844666562E+02  0.00000000000E+00 0.  1.
<mgrwt>
<rscale>  1 0.30000000E+03</rscale>
<asrwt>0</asrwt>
<pdfrwt beam="1">  1        1 0.13353659E+00 0.30000000E+03</pdfrwt>
<pdfrwt beam="2">0</pdfrwt>
<totfact> 0.21894029E+01</totfact>
</mgrwt>
</event>
<event>
 6    1  0.1939311E-004  0.3000000E+03  0.7818608E-02  0.1093470E+00
          1   -1    0    0  502    0  0.00000000000E+00  0.00000000000E+00  0.25517264922E+02  0.25517264922E+02  0.00000000000E+00 0.  1.
         13   -1    0    0    0    0 -0.00000000000E+00 -0.00000000000E+00 -0.10000000000E+04  0.10000000000E+04  0.00000000000E+00 0.  1.
    9000005    2    1    2  501    0 -0.66165856825E+01  0.97394768083E+01 -0.96079557567E+03  0.10074624886E+04  0.30284301402E+03 0.  0.
         13    1    3    3    0    0 -0.54701870043E+02 -0.13250397427E+03 -0.34440985009E+03  0.37305193020E+03  0.00000000000E+00 0.  1.
          3    1    3    3  501    0  0.48085284360E+02  0.14224345108E+03 -0.61638572557E+03  0.63441055842E+03  0.00000000000E+00 0.  1.
         21    1    1    2  502  501  0.66165856825E+01 -0.97394768083E+01 -0.13687159412E+02  0.18054776304E+02  0.00000000000E+00 0.  1.
<mgrwt>
<rscale>  1 0.30000000E+03</rscale>
<asrwt>0</asrwt>
<pdfrwt beam="1">  1        1 0.92790250E-01 0.30000000E+03</pdfrwt>
<pdfrwt beam="2">0</pdfrwt>
<totfact> 0.38137418E+01</totfact>
</mgrwt>
</event>
<event>
 6    1  0.1939311E-004  0.3000000E+03  0.7818608E-02  0.1093470E+00
          1   -1    0    0  502    0  0.00000000000E+00  0.00000000000E+00  0.36517081652E+02  0.36517081652E+02  0.00000000000E+00 0.  1.
         13   -1    0    0    0    0 -0.00000000000E+00 -0.00000000000E+00 -0.10000000000E+04  0.10000000000E+04  0.00000000000E+00 0.  1.
    9000005    2    1    2  501    0  0.25930552818E+01 -0.18440873900E+02 -0.95376322862E+03  0.10155108413E+04  0.34821140524E+03 0.  0.
         13    1    3    3    0    0  0.93128891423E+02 -0.83308793784E+01 -0.47858723420E+02  0.10503738085E+03  0.00000000000E+00 0.  1.
          1    1    3    3  501    0 -0.90535836141E+02 -0.10109994522E+02 -0.90590450520E+03  0.91047346043E+03  0.00000000000E+00 0.  1.
         21    1    1    2  502  501 -0.25930552818E+01  0.18440873900E+02 -0.97196897313E+01  0.21006240367E+02  0.00000000000E+00 0. -1.
<mgrwt>
<rscale>  1 0.30000000E+03</rscale>
<asrwt>0</asrwt>
<pdfrwt beam="1">  1        1 0.13278967E+00 0.30000000E+03</pdfrwt>
<pdfrwt beam="2">0</pdfrwt>
<totfact> 0.22097501E+01</totfact>
</mgrwt>
</event>
<event>
 6    1  0.1939311E-004  0.3000000E+03  0.7818608E-02  0.1093470E+00
          1   -1    0    0  502    0  0.00000000000E+00  0.00000000000E+00  0.47996624901E+02  0.47996624901E+02  0.00000000000E+00 0.  1.
         13   -1    0    0    0    0 -0.00000000000E+00 -0.00000000000E+00 -0.10000000000E+04  0.10000000000E+04  0.00000000000E+00 0.  1.
    9000005    2    1    2  501    0  0.59498242064E+02  0.25474704754E+02 -0.90587127280E+03  0.96851598415E+03  0.33649880726E+03 0.  0.
         13    1    3    3    0    0 -0.55673000350E+02 -0.35842002311E+02 -0.14675599934E+02  0.67819652985E+02  0.00000000000E+00 0.  1.
          1    1    3    3  501    0  0.11517124241E+03  0.61316707064E+02 -0.89119567287E+03  0.90069633117E+03  0.00000000000E+00 0.  1.
         21    1    1    2  502  501 -0.59498242064E+02 -0.25474704754E+02 -0.46132102298E+02  0.79480640746E+02  0.00000000000E+00 0.  1.
<mgrwt>
<rscale>  1 0.30000000E+03</rscale>
<asrwt>0</asrwt>
<pdfrwt beam="1">  1        1 0.17453355E+00 0.30000000E+03</pdfrwt>
<pdfrwt beam="2">0</pdfrwt>
<totfact> 0.13578555E+01</totfact>
</mgrwt>
</event>
<event>
 6    1  0.1939311E-004  0.3000000E+03  0.7818608E-02  0.1093470E+00
          1   -1    0    0  502    0  0.00000000000E+00  0.00000000000E+00  0.35172714880E+02  0.35172714880E+02  0.00000000000E+00 0.  1.
         13   -1    0    0    0    0 -0.00000000000E+00 -0.00000000000E+00 -0.10000000000E+04  0.10000000000E+04  0.00000000000E+00 0.  1.
    9000005    2    1    2  501    0  0.10578223843E+02  0.15795355150E+02 -0.96435077886E+03  0.10161564292E+04  0.31975001453E+03 0.  0.
         13    1    3    3    0    0 -0.13433512075E+03  0.57754550528E+02 -0.28577589250E+03  0.32101304258E+03  0.00000000000E+00 0.  1.
          1    1    3    3  501    0  0.14491334459E+03 -0.41959195378E+02 -0.67857488636E+03  0.69514338659E+03  0.00000000000E+00 0.  1.
         21    1    1    2  502  501 -0.10578223843E+02 -0.15795355150E+02 -0.47650625937E+00  0.19016285710E+02  0.00000000000E+00 0.  1.
<mgrwt>
<rscale>  1 0.30000000E+03</rscale>
<asrwt>0</asrwt>
<pdfrwt beam="1">  1        1 0.12790105E+00 0.30000000E+03</pdfrwt>
<pdfrwt beam="2">0</pdfrwt>
<totfact> 0.23492269E+01</totfact>
</mgrwt>
</event>
<event>
 6    1  0.1939311E-004  0.3000000E+03  0.7818608E-02  0.1093470E+00
          1   -1    0    0  502    0  0.00000000000E+00  0.00000000000E+00  0.24282692678E+02  0.24282692678E+02  0.00000000000E+00 0.  1.
         13   -1    0    0    0    0 -0.00000000000E+00 -0.00000000000E+00 -0.10000000000E+04  0.10000000000E+04  0.00000000000E+00 0.  1.
    9000005    2    1    2  501    0  0.13021533117E+02 -0.14823976410E+02 -0.92729935615E+03  0.97199876975E+03  0.29070294439E+03 0.  0.
         13    1    3    3    0    0  0.12341808650E+03 -0.22078041669E+02 -0.76728964424E+03  0.77746566623E+03  0.00000000000E+00 0.  1.
          1    1    3    3  501    0 -0.11039655338E+03  0.72540652593E+01 -0.16000971191E+03  0.19453310352E+03  0.00000000000E+00 0.  1.
         21    1    1    2  502  501 -0.13021533117E+02  0.14823976410E+02 -0.48417951169E+02  0.52283922927E+02  0.00000000000E+00 0. -1.
<mgrwt>
<rscale>  1 0.30000000E+03</rscale>
<asrwt>0</asrwt>
<pdfrwt beam="1">  1        1 0.88300887E-01 0.30000000E+03</pdfrwt>
<pdfrwt beam="2">0</pdfrwt>
<totfact> 0.40919983E+01</totfact>
</mgrwt>
</event>
<event>
 6    1  0.1939311E-004  0.3000000E+03  0.7818608E-02  0.1093470E+00
          1   -1    0    0  502    0  0.00000000000E+00  0.00000000000E+00  0.33130261594E+02  0.33130261594E+02  0.00000000000E+00 0.  1.
         13   -1    0    0    0    0 -0.00000000000E+00 -0.00000000000E+00 -0.10000000000E+04  0.10000000000E+04  0.00000000000E+00 0.  1.
    9000005    2    1    2  501    0 -0.15446020885E+02  0.16868523905E+02 -0.95251371164E+03  0.10061261477E+04  0.32324035588E+03 0.  0.
         13    1    3    3    0    0  0.74444578003E+02 -0.42401619123E+02 -0.54190212347E+02  0.10137293333E+03  0.00000000000E+00 0.  1.
          3    1    3    3  501    0 -0.89890598887E+02  0.59270143028E+02 -0.89832349929E+03  0.90475321442E+03  0.00000000000E+00 0.  1.
         21    1    1    2  502  501  0.15446020885E+02 -0.16868523905E+02 -0.14356026771E+02  0.27004113845E+02  0.00000000000E+00 0. -1.
<mgrwt>
<rscale>  1 0.30000000E+03</rscale>
<asrwt>0</asrwt>
<pdfrwt beam="1">  1        1 0.12047393E+00 0.30000000E+03</pdfrwt>
<pdfrwt beam="2">0</pdfrwt>
<totfact> 0.25836279E+01</totfact>
</mgrwt>
</event>
<event>
 6    1  0.1939311E-004  0.3000000E+03  0.7818608E-02  0.1093470E+00
          1   -1    0    0  502    0  0.00000000000E+00  0.00000000000E+00  0.56571085668E+02  0.56571085668E+02  0.00000000000E+00 0.  1.
         13   -1    0    0    0    0 -0.00000000000E+00 -0.00000000000E+00 -0.10000000000E+04  0.10000000000E+04  0.00000000000E+00 0.  1.
    9000005    2    1    2  501    0 -0.50307590870E+02 -0.11595448992E+02 -0.94634120049E+03  0.10048623867E+04  0.33394826000E+03 0.  0.
         13    1    3    3    0    0  0.12721908112E+03  0.18798599038E+02 -0.20533915367E+03  0.24228547203E+03  0.00000000000E+00 0.  1.
          3    1    3    3  501    0 -0.17752667199E+03 -0.30394048030E+02 -0.74100204682E+03  0.76257691469E+03  0.00000000000E+00 0.  1.
         21    1    1    2  502  501  0.50307590870E+02  0.11595448992E+02  0.29122861600E+01  0.51708698950E+02  0.00000000000E+00 0.  1.
<mgrwt>
<rscale>  1 0.30000000E+03</rscale>
<asrwt>0</asrwt>
<pdfrwt beam="1">  1        1 0.20571347E+00 0.30000000E+03</pdfrwt>
<pdfrwt beam="2">0</pdfrwt>
<totfact> 0.96236191E+00</totfact>
</mgrwt>
</event>
<event>
 6    1  0.1939311E-004  0.3000000E+03  0.7818608E-02  0.1093470E+00
          1   -1    0    0  502    0  0.00000000000E+00  0.00000000000E+00  0.11803885609E+02  0.11803885609E+02  0.00000000000E+00 0.  1.
         13   -1    0    0    0    0 -0.00000000000E+00 -0.00000000000E+00 -0.10000000000E+04  0.10000000000E+04  0.00000000000E+00 0.  1.
    9000005    2    1    2  501    0 -0.13823775347E+02  0.92664391736E+01 -0.97526172198E+03  0.99072635808E+03  0.17356937106E+03 0.  0.
         13    1    3    3    0    0 -0.57475636680E+02 -0.29659343974E+02 -0.14943351658E+03  0.16282966982E+03  0.00000000000E+00 0.  1.
          3    1    3    3  501    0  0.43651861332E+02  0.38925783148E+02 -0.82582820540E+03  0.82789668826E+03  0.00000000000E+00 0.  1.
         21    1    1    2  502  501  0.13823775347E+02 -0.92664391736E+01 -0.12934392410E+02  0.21077527531E+02  0.00000000000E+00 0.  1.
<mgrwt>
<rscale>  1 0.30000000E+03</rscale>
<asrwt>0</asrwt>
<pdfrwt beam="1">  1        1 0.42923311E-01 0.30000000E+03</pdfrwt>
<pdfrwt beam="2">0</pdfrwt>
<totfact> 0.10778447E+02</totfact>
</mgrwt>
</event>
<event>
 6    1  0.1939311E-004  0.3000000E+03  0.7818608E-02  0.1093470E+00
          1   -1    0    0  502    0  0.00000000000E+00  0.00000000000E+00  0.55892637232E+02  0.55892637232E+02  0.00000000000E+00 0.  1.
         13   -1    0    0    0    0 -0.00000000000E+00 -0.00000000000E+00 -0.10000000000E+04  0.10000000000E+04  0.00000000000E+00 0.  1.
    9000005    2    1    2  501    0 -0.10092785633E+02  0.12551606345E+02 -0.97210488767E+03  0.10235929694E+04  0.32014878912E+03 0.  0.
         13    1    3    3    0    0 -0.25860311063E+01 -0.23154851547E+02 -0.98471330203E+03  0.98498889430E+03  0.00000000000E+00 0.  1.
          1    1    3    3  501    0 -0.75067545264E+01  0.35706457893E+02  0.12608414365E+02  0.38604075064E+02  0.00000000000E+00 0.  1.
         21    1    1    2  502  501  0.10092785633E+02 -0.12551606345E+02  0.27997524898E+02  0.32299667863E+02  0.00000000000E+00 0.  1.
<mgrwt>
<rscale>  1 0.30000000E+03</rscale>
<asrwt>0</asrwt>
<pdfrwt beam="1">  1        1 0.20324638E+00 0.30000000E+03</pdfrwt>
<pdfrwt beam="2">0</pdfrwt>
<totfact> 0.98861775E+00</totfact>
</mgrwt>
</event>
<event>
 6    1  0.1939311E-004  0.3000000E+03  0.7818608E-02  0.1093470E+00
          1   -1    0    0  502    0  0.00000000000E+00  0.00000000000E+00  0.76745520969E+02  0.76745520969E+02  0.00000000000E+00 0.  1.
         13   -1    0    0    0    0 -0.00000000000E+00 -0.00000000000E+00 -0.10000000000E+04  0.10000000000E+04  0.00000000000E+00 0.  1.
    9000005    2    1    2  501    0  0.50941899223E+02  0.13600789425E+03 -0.82659876301E+03  0.90228764114E+03  0.33130687880E+03 0.  0.
         13    1    3    3    0    0 -0.41115591184E+02 -0.81486171290E+02 -0.43912453016E+03  0.44850957731E+03  0.00000000000E+00 0.  1.
          1    1    3    3  501    0  0.92057490407E+02  0.21749406554E+03 -0.38747423285E+03  0.45377806383E+03  0.00000000000E+00 0.  1.
         21    1    1    2  502  501 -0.50941899223E+02 -0.13600789425E+03 -0.96655716017E+02  0.17445787983E+03  0.00000000000E+00 0.  1.
<mgrwt>
<rscale>  1 0.30000000E+03</rscale>
<asrwt>0</asrwt>
<pdfrwt beam="1">  1        1 0.27907521E+00 0.30000000E+03</pdfrwt>
<pdfrwt beam="2">0</pdfrwt>
<totfact> 0.43611808E+00</totfact>
</mgrwt>
</event>
<event>
 6    1  0.1939311E-004  0.3000000E+03  0.7818608E-02  0.1093470E+00
          1   -1    0    0  502    0  0.00000000000E+00  0.00000000000E+00  0.29279789519E+02  0.29279789519E+02  0.00000000000E+00 0.  1.
         13   -1    0    0    0    0 -0.00000000000E+00 -0.00000000000E+00 -0.10000000000E+04  0.10000000000E+04  0.00000000000E+00 0.  1.
    9000005    2    1    2  501    0  0.56219080697E+00  0.12819946901E+02 -0.97112579106E+03  0.10164411139E+04  0.29983757068E+03 0.  0.
         13    1    3    3    0    0  0.41562256229E+02 -0.94667564834E+02 -0.12358892718E+03  0.16113221867E+03  0.00000000000E+00 0.  1.
          3    1    3    3  501    0 -0.41000065422E+02  0.10748751173E+03 -0.84753686388E+03  0.85530889519E+03  0.00000000000E+00 0.  1.
         21    1    1    2  502  501 -0.56219080697E+00 -0.12819946901E+02  0.40558057914E+00  0.12838675658E+02  0.00000000000E+00 0.  1.
<mgrwt>
<rscale>  1 0.30000000E+03</rscale>
<asrwt>0</asrwt>
<pdfrwt beam="1">  1        1 0.10647219E+00 0.30000000E+03</pdfrwt>
<pdfrwt beam="2">0</pdfrwt>
<totfact> 0.31199273E+01</totfact>
</mgrwt>
</event>
<event>
 6    1  0.1939311E-004  0.3000000E+03  0.7818608E-02  0.1093470E+00
          1   -1    0    0  502    0  0.00000000000E+00  0.00000000000E+00  0.31832935570E+02  0.31832935570E+02  0.00000000000E+00 0.  1.
         13   -1    0    0    0    0 -0.00000000000E+00 -0.00000000000E+00 -0.10000000000E+04  0.10000000000E+04  0.00000000000E+00 0.  1.
    9000005    2    1    2  501    0 -0.97043491329E+01 -0.20539997970E+02 -0.93378266295E+03  0.99062185728E+03  0.32994777857E+03 0.  0.
         13    1    3    3    0    0  0.10508260423E+03  0.24928871888E+01 -0.82219388702E+03  0.82888561096E+03  0.00000000000E+00 0.  1.
          3    1    3    3  501    0 -0.11478695336E+03 -0.23032885159E+02 -0.11158877593E+03  0.16173624632E+03  0.00000000000E+00 0.  1.
         21    1    1    2  502  501  0.97043491329E+01  0.20539997970E+02 -0.34384401479E+02  0.41211078290E+02  0.00000000000E+00 0. -1.
<mgrwt>
<rscale>  1 0.30000000E+03</rscale>
<asrwt>0</asrwt>
<pdfrwt beam="1">  1        1 0.11575637E+00 0.30000000E+03</pdfrwt>
<pdfrwt beam="2">0</pdfrwt>
<totfact> 0.27487897E+01</totfact>
</mgrwt>
</event>
<event>
 6    1  0.1939311E-004  0.3000000E+03  0.7818608E-02  0.1093470E+00
          1   -1    0    0  502    0  0.00000000000E+00  0.00000000000E+00  0.30372090367E+02  0.30372090367E+02  0.00000000000E+00 0.  1.
         13   -1    0    0    0    0 -0.00000000000E+00 -0.00000000000E+00 -0.10000000000E+04  0.10000000000E+04  0.00000000000E+00 0.  1.
    9000005    2    1    2  501    0  0.59993405047E+01  0.14835304759E+02 -0.95796670229E+03  0.10105715320E+04  0.32140090277E+03 0.  0.
         13    1    3    3    0    0  0.48591271376E+02 -0.14442395695E+03 -0.37594350035E+03  0.40565121280E+03  0.00000000000E+00 0.  1.
          3    1    3    3  501    0 -0.42591930871E+02  0.15925926171E+03 -0.58202320194E+03  0.60492031922E+03  0.00000000000E+00 0.  1.
         21    1    1    2  502  501 -0.59993405047E+01 -0.14835304759E+02 -0.11661207346E+02  0.19800558339E+02  0.00000000000E+00 0.  1.
<mgrwt>
<rscale>  1 0.30000000E+03</rscale>
<asrwt>0</asrwt>
<pdfrwt beam="1">  1        1 0.11044420E+00 0.30000000E+03</pdfrwt>
<pdfrwt beam="2">0</pdfrwt>
<totfact> 0.29529304E+01</totfact>
</mgrwt>
</event>
<event>
 6    1  0.1939311E-004  0.3000000E+03  0.7818608E-02  0.1093470E+00
          1   -1    0    0  502    0  0.00000000000E+00  0.00000000000E+00  0.62738653851E+02  0.62738653851E+02  0.00000000000E+00 0.  1.
         13   -1    0    0    0    0 -0.00000000000E+00 -0.00000000000E+00 -0.10000000000E+04  0.10000000000E+04  0.00000000000E+00 0.  1.
    9000005    2    1    2  501    0  0.37931470123E+02 -0.10551510310E+02 -0.96767173855E+03  0.10129900583E+04  0.29700190873E+03 0.  0.
         13    1    3    3    0    0  0.80220225083E+02  0.72738415791E+02 -0.87407002382E+03  0.88075227402E+03  0.00000000000E+00 0.  1.
          1    1    3    3  501    0 -0.42288754960E+02 -0.83289926101E+02 -0.93601714726E+02  0.13223778426E+03  0.00000000000E+00 0.  1.
         21    1    1    2  502  501 -0.37931470123E+02  0.10551510310E+02  0.30410392400E+02  0.49748595572E+02  0.00000000000E+00 0.  1.
<mgrwt>
<rscale>  1 0.30000000E+03</rscale>
<asrwt>0</asrwt>
<pdfrwt beam="1">  1        1 0.22814104E+00 0.30000000E+03</pdfrwt>
<pdfrwt beam="2">0</pdfrwt>
<totfact> 0.75502316E+00</totfact>
</mgrwt>
</event>
<event>
 6    1  0.1939311E-004  0.3000000E+03  0.7818608E-02  0.1093470E+00
          1   -1    0    0  502    0  0.00000000000E+00  0.00000000000E+00  0.45683266612E+02  0.45683266612E+02  0.00000000000E+00 0.  1.
         13   -1    0    0    0    0 -0.00000000000E+00 -0.00000000000E+00 -0.10000000000E+04  0.10000000000E+04  0.00000000000E+00 0.  1.
    9000005    2    1    2  501    0 -0.33887089673E+02  0.66020937543E+02 -0.89095251241E+03  0.94810189779E+03  0.31558474328E+03 0.  0.
         13    1    3    3    0    0  0.93105948956E+01  0.74518497789E+02 -0.22306254377E+02  0.78340683392E+02  0.00000000000E+00 0.  1.
          1    1    3    3  501    0 -0.43197684568E+02 -0.84975602453E+01 -0.86864625803E+03  0.86976121440E+03  0.00000000000E+00 0.  1.
         21    1    1    2  502  501  0.33887089673E+02 -0.66020937543E+02 -0.63364220979E+02  0.97581368820E+02  0.00000000000E+00 0.  1.
<mgrwt>
<rscale>  1 0.30000000E+03</rscale>
<asrwt>0</asrwt>
<pdfrwt beam="1">  1        1 0.16612132E+00 0.30000000E+03</pdfrwt>
<pdfrwt beam="2">0</pdfrwt>
<totfact> 0.14926482E+01</totfact>
</mgrwt>
</event>
<event>
 6    1  0.1939311E-004  0.3000000E+03  0.7818608E-02  0.1093470E+00
          1   -1    0    0  502    0  0.00000000000E+00  0.00000000000E+00  0.33439979270E+02  0.33439979270E+02  0.00000000000E+00 0.  1.
         13   -1    0    0    0    0 -0.00000000000E+00 -0.00000000000E+00 -0.10000000000E+04  0.10000000000E+04  0.00000000000E+00 0.  1.
    9000005    2    1    2  501    0  0.16051173421E+02  0.31050540886E+02 -0.91666390836E+03  0.97251873267E+03  0.32295230027E+03 0.  0.
         13    1    3    3    0    0 -0.57202116184E+02 -0.11758633880E+03 -0.61091422152E+03  0.62475180290E+03  0.00000000000E+00 0.  1.
          3    1    3    3  501    0  0.73253289605E+02  0.14863687969E+03 -0.30574968684E+03  0.34776692977E+03  0.00000000000E+00 0.  1.
         21    1    1    2  502  501 -0.16051173421E+02 -0.31050540886E+02 -0.49896112372E+02  0.60921246600E+02  0.00000000000E+00 0. -1.
<mgrwt>
<rscale>  1 0.30000000E+03</rscale>
<asrwt>0</asrwt>
<pdfrwt beam="1">  1        1 0.12160018E+00 0.30000000E+03</pdfrwt>
<pdfrwt beam="2">0</pdfrwt>
<totfact> 0.25461880E+01</totfact>
</mgrwt>
</event>
<event>
 6    1  0.1939311E-004  0.3000000E+03  0.7818608E-02  0.1093470E+00
          1   -1    0    0  502    0  0.00000000000E+00  0.00000000000E+00  0.30712850301E+02  0.30712850301E+02  0.00000000000E+00 0.  1.
         13   -1    0    0    0    0 -0.00000000000E+00 -0.00000000000E+00 -0.10000000000E+04  0.10000000000E+04  0.00000000000E+00 0.  1.
    9000005    2    1    2  501    0 -0.50054525491E-01  0.15402334679E+02 -0.95966577872E+03  0.10125523107E+04  0.32259346033E+03 0.  0.
         13    1    3    3    0    0 -0.70518299330E+02  0.13536269866E+03 -0.28103519763E+03  0.31980724356E+03  0.00000000000E+00 0.  1.
          3    1    3    3  501    0  0.70468244804E+02 -0.11996036399E+03 -0.67863058109E+03  0.69274506714E+03  0.00000000000E+00 0.  1.
         21    1    1    2  502  501  0.50054525491E-01 -0.15402334679E+02 -0.96213709815E+01  0.18160539600E+02  0.00000000000E+00 0.  1.
<mgrwt>
<rscale>  1 0.30000000E+03</rscale>
<asrwt>0</asrwt>
<pdfrwt beam="1">  1        1 0.11168333E+00 0.30000000E+03</pdfrwt>
<pdfrwt beam="2">0</pdfrwt>
<totfact> 0.29034353E+01</totfact>
</mgrwt>
</event>
<event>
 6    1  0.1939311E-004  0.3000000E+03  0.7818608E-02  0.1093470E+00
          1   -1    0    0  502    0  0.00000000000E+00  0.00000000000E+00  0.29744891180E+02  0.29744891180E+02  0.00000000000E+00 0.  1.
         13   -1    0    0    0    0 -0.00000000000E+00 -0.00000000000E+00 -0.10000000000E+04  0.10000000000E+04  0.00000000000E+00 0.  1.
    9000005    2    1    2  501    0  0.29246657119E+02 -0.31664728057E+01 -0.90829400290E+03  0.96115500746E+03  0.31297852825E+03 0.  0.
         13    1    3    3    0    0 -0.10802749735E+03  0.96067974513E+02 -0.44270499145E+03  0.46571096763E+03  0.00000000000E+00 0.  1.
          1    1    3    3  501    0  0.13727415447E+03 -0.99234447319E+02 -0.46558901145E+03  0.49544403983E+03  0.00000000000E+00 0.  1.
         21    1    1    2  502  501 -0.29246657119E+02  0.31664728057E+01 -0.61961105919E+02  0.68589883725E+02  0.00000000000E+00 0.  1.
<mgrwt>
<rscale>  1 0.30000000E+03</rscale>
<asrwt>0</asrwt>
<pdfrwt beam="1">  1        1 0.10816347E+00 0.30000000E+03</pdfrwt>
<pdfrwt beam="2">0</pdfrwt>
<totfact> 0.30472116E+01</totfact>
</mgrwt>
</event>
<event>
 6    1  0.1939311E-004  0.3000000E+03  0.7818608E-02  0.1093470E+00
          1   -1    0    0  502    0  0.00000000000E+00  0.00000000000E+00  0.32750163202E+02  0.32750163202E+02  0.00000000000E+00 0.  1.
         13   -1    0    0    0    0 -0.00000000000E+00 -0.00000000000E+00 -0.10000000000E+04  0.10000000000E+04  0.00000000000E+00 0.  1.
    9000005    2    1    2  501    0  0.28783323040E+02  0.12649851122E+02 -0.91388825542E+03  0.97081506180E+03  0.32603932647E+03 0.  0.
         13    1    3    3    0    0 -0.42342013992E+02 -0.13740091153E+03 -0.27041930030E+03  0.30626533368E+03  0.00000000000E+00 0.  1.
          1    1    3    3  501    0  0.71125337032E+02  0.15005076265E+03 -0.64346895512E+03  0.66454972812E+03  0.00000000000E+00 0.  1.
         21    1    1    2  502  501 -0.28783323040E+02 -0.12649851122E+02 -0.53361581378E+02  0.61935101403E+02  0.00000000000E+00 0. -1.
<mgrwt>
<rscale>  1 0.30000000E+03</rscale>
<asrwt>0</asrwt>
<pdfrwt beam="1">  1        1 0.11909175E+00 0.30000000E+03</pdfrwt>
<pdfrwt beam="2">0</pdfrwt>
<totfact> 0.26305874E+01</totfact>
</mgrwt>
</event>
<event>
 6    1  0.1939311E-004  0.3000000E+03  0.7818608E-02  0.1093470E+00
          1   -1    0    0  502    0  0.00000000000E+00  0.00000000000E+00  0.89891147584E+02  0.89891147584E+02  0.00000000000E+00 0.  1.
         13   -1    0    0    0    0 -0.00000000000E+00 -0.00000000000E+00 -0.10000000000E+04  0.10000000000E+04  0.00000000000E+00 0.  1.
    9000005    2    1    2  501    0  0.91240989501E+02  0.64280896733E+02 -0.91574305127E+03  0.97813831296E+03  0.32513423609E+03 0.  0.
         13    1    3    3    0    0  0.10375619501E+03  0.17544989048E+03 -0.75682191942E+03  0.78379042466E+03  0.00000000000E+00 0.  1.
          1    1    3    3  501    0 -0.12515205510E+02 -0.11116899374E+03 -0.15892113185E+03  0.19434788830E+03  0.00000000000E+00 0.  1.
         21    1    1    2  502  501 -0.91240989501E+02 -0.64280896733E+02  0.56341988538E+01  0.11175283462E+03  0.00000000000E+00 0.  1.
<mgrwt>
<rscale>  1 0.30000000E+03</rscale>
<asrwt>0</asrwt>
<pdfrwt beam="1">  1        1 0.32687759E+00 0.30000000E+03</pdfrwt>
<pdfrwt beam="2">0</pdfrwt>
<totfact> 0.25764265E+00</totfact>
</mgrwt>
</event>
<event>
 6    1  0.1939311E-004  0.3000000E+03  0.7818608E-02  0.1093470E+00
          1   -1    0    0  502    0  0.00000000000E+00  0.00000000000E+00  0.30293132546E+02  0.30293132546E+02  0.00000000000E+00 0.  1.
         13   -1    0    0    0    0 -0.00000000000E+00 -0.00000000000E+00 -0.10000000000E+04  0.10000000000E+04  0.00000000000E+00 0.  1.
    9000005    2    1    2  501    0  0.14506026550E+02  0.50317637716E+01 -0.92806456574E+03  0.98591042482E+03  0.33238499385E+03 0.  0.
         13    1    3    3    0    0 -0.55918270829E+02 -0.10148665047E+03 -0.11632528729E+03  0.16418881113E+03  0.00000000000E+00 0.  1.
          3    1    3    3  501    0  0.70424297379E+02  0.10651841424E+03 -0.81173927845E+03  0.82172161369E+03  0.00000000000E+00 0.  1.
         21    1    1    2  502  501 -0.14506026550E+02 -0.50317637716E+01 -0.41642301715E+02  0.44382707725E+02  0.00000000000E+00 0.  1.
<mgrwt>
<rscale>  1 0.30000000E+03</rscale>
<asrwt>0</asrwt>
<pdfrwt beam="1">  1        1 0.11015708E+00 0.30000000E+03</pdfrwt>
<pdfrwt beam="2">0</pdfrwt>
<totfact> 0.29645692E+01</totfact>
</mgrwt>
</event>
<event>
 6    1  0.1939311E-004  0.3000000E+03  0.7818608E-02  0.1093470E+00
          1   -1    0    0  502    0  0.00000000000E+00  0.00000000000E+00  0.30804720252E+02  0.30804720252E+02  0.00000000000E+00 0.  1.
         13   -1    0    0    0    0 -0.00000000000E+00 -0.00000000000E+00 -0.10000000000E+04  0.10000000000E+04  0.00000000000E+00 0.  1.
    9000005    2    1    2  501    0  0.14397838987E+02 -0.14941229246E+01 -0.96635130332E+03  0.10160528264E+04  0.31355856615E+03 0.  0.
         13    1    3    3    0    0 -0.78526893954E+02 -0.87498800520E+02 -0.15325434242E+03  0.19315643048E+03  0.00000000000E+00 0.  1.
          3    1    3    3  501    0  0.92924732940E+02  0.86004677596E+02 -0.81309696090E+03  0.82289639590E+03  0.00000000000E+00 0.  1.
         21    1    1    2  502  501 -0.14397838987E+02  0.14941229246E+01 -0.28439764275E+01  0.14751893869E+02  0.00000000000E+00 0.  1.
<mgrwt>
<rscale>  1 0.30000000E+03</rscale>
<asrwt>0</asrwt>
<pdfrwt beam="1">  1        1 0.11201740E+00 0.30000000E+03</pdfrwt>
<pdfrwt beam="2">0</pdfrwt>
<totfact> 0.28902919E+01</totfact>
</mgrwt>
</event>
<event>
 6    1  0.1939311E-004  0.3000000E+03  0.7818608E-02  0.1093470E+00
          1   -1    0    0  502    0  0.00000000000E+00  0.00000000000E+00  0.54167585042E+02  0.54167585042E+02  0.00000000000E+00 0.  1.
         13   -1    0    0    0    0 -0.00000000000E+00 -0.00000000000E+00 -0.10000000000E+04  0.10000000000E+04  0.00000000000E+00 0.  1.
    9000005    2    1    2  501    0  0.32800280392E+02 -0.53000090008E+02 -0.92890072129E+03  0.98958004611E+03  0.33545081565E+03 0.  0.
         13    1    3    3    0    0  0.96678158121E+02  0.93893512469E+02 -0.68257808663E+03  0.69575534658E+03  0.00000000000E+00 0.  1.
          3    1    3    3  501    0 -0.63877877729E+02 -0.14689360248E+03 -0.24632263465E+03  0.29382469953E+03  0.00000000000E+00 0.  1.
         21    1    1    2  502  501 -0.32800280392E+02  0.53000090008E+02 -0.16931693671E+02  0.64587538932E+02  0.00000000000E+00 0.  1.
<mgrwt>
<rscale>  1 0.30000000E+03</rscale>
<asrwt>0</asrwt>
<pdfrwt beam="1">  1        1 0.19697345E+00 0.30000000E+03</pdfrwt>
<pdfrwt beam="2">0</pdfrwt>
<totfact> 0.10588731E+01</totfact>
</mgrwt>
</event>
<event>
 6    1  0.1939311E-004  0.3000000E+03  0.7818608E-02  0.1093470E+00
          1   -1    0    0  502    0  0.00000000000E+00  0.00000000000E+00  0.26614501746E+02  0.26614501746E+02  0.00000000000E+00 0.  1.
         13   -1    0    0    0    0 -0.00000000000E+00 -0.00000000000E+00 -0.10000000000E+04  0.10000000000E+04  0.00000000000E+00 0.  1.
    9000005    2    1    2  501    0 -0.14088439472E+02  0.21276945537E+01 -0.93290368806E+03  0.98369844220E+03  0.31168946528E+03 0.  0.
         13    1    3    3    0    0  0.10496147469E+03 -0.10248908490E+03 -0.55149179333E+03  0.57066988864E+03  0.00000000000E+00 0.  1.
          3    1    3    3  501    0 -0.11904991416E+03  0.10461677946E+03 -0.38141189474E+03  0.41302855356E+03  0.00000000000E+00 0.  1.
         21    1    1    2  502  501  0.14088439472E+02 -0.21276945537E+01 -0.40481810191E+02  0.42916059549E+02  0.00000000000E+00 0.  1.
<mgrwt>
<rscale>  1 0.30000000E+03</rscale>
<asrwt>0</asrwt>
<pdfrwt beam="1">  1        1 0.96780210E-01 0.30000000E+03</pdfrwt>
<pdfrwt beam="2">0</pdfrwt>
<totfact> 0.35895999E+01</totfact>
</mgrwt>
</event>
<event>
 6    1  0.1939311E-004  0.3000000E+03  0.7818608E-02  0.1093470E+00
          1   -1    0    0  502    0  0.00000000000E+00  0.00000000000E+00  0.32471094798E+02  0.32471094798E+02  0.00000000000E+00 0.  1.
         13   -1    0    0    0    0 -0.00000000000E+00 -0.00000000000E+00 -0.10000000000E+04  0.10000000000E+04  0.00000000000E+00 0.  1.
    9000005    2    1    2  501    0 -0.43035830867E+01 -0.12558787452E+02 -0.96790813290E+03  0.10191899885E+04  0.31894487777E+03 0.  0.
         13    1    3    3    0    0  0.38154172877E+02 -0.16058457232E+03 -0.48401594019E+03  0.51138495884E+03  0.00000000000E+00 0.  1.
          1    1    3    3  501    0 -0.42457755964E+02  0.14802578487E+03 -0.48389219271E+03  0.50780502970E+03  0.00000000000E+00 0.  1.
         21    1    1    2  502  501  0.43035830867E+01  0.12558787452E+02  0.37922769293E+00  0.13281106253E+02  0.00000000000E+00 0.  1.
<mgrwt>
<rscale>  1 0.30000000E+03</rscale>
<asrwt>0</asrwt>
<pdfrwt beam="1">  1        1 0.11807696E+00 0.30000000E+03</pdfrwt>
<pdfrwt beam="2">0</pdfrwt>
<totfact> 0.26658013E+01</totfact>
</mgrwt>
</event>
<event>
 6    1  0.1939311E-004  0.3000000E+03  0.7818608E-02  0.1093470E+00
          3   -1    0    0  502    0  0.00000000000E+00  0.00000000000E+00  0.28292976491E+02  0.28292976491E+02  0.00000000000E+00 0.  1.
         13   -1    0    0    0    0 -0.00000000000E+00 -0.00000000000E+00 -0.10000000000E+04  0.10000000000E+04  0.00000000000E+00 0.  1.
    9000005    2    1    2  501    0  0.13015860005E+02 -0.27841880240E+01 -0.95366718917E+03  0.10058742357E+04  0.31956956375E+03 0.  0.
         13    1    3    3    0    0  0.15742242019E+03  0.23932966486E+02 -0.64029839153E+03  0.65980045124E+03  0.00000000000E+00 0.  1.
          3    1    3    3  501    0 -0.14440656019E+03 -0.26717154510E+02 -0.31336879764E+03  0.34607378448E+03  0.00000000000E+00 0.  1.
         21    1    1    2  502  501 -0.13015860005E+02  0.27841880240E+01 -0.18039834343E+02  0.22418740771E+02  0.00000000000E+00 0. -1.
<mgrwt>
<rscale>  1 0.30000000E+03</rscale>
<asrwt>0</asrwt>
<pdfrwt beam="1">  1        3 0.10288377E+00 0.30000000E+03</pdfrwt>
<pdfrwt beam="2">0</pdfrwt>
<totfact> 0.36317493E+00</totfact>
</mgrwt>
</event>
<event>
 6    1  0.1939311E-004  0.3000000E+03  0.7818608E-02  0.1093470E+00
          1   -1    0    0  502    0  0.00000000000E+00  0.00000000000E+00  0.34036397222E+02  0.34036397222E+02  0.00000000000E+00 0.  1.
         13   -1    0    0    0    0 -0.00000000000E+00 -0.00000000000E+00 -0.10000000000E+04  0.10000000000E+04  0.00000000000E+00 0.  1.
    9000005    2    1    2  501    0  0.39990338241E+02  0.40282057006E+01 -0.79552292381E+03  0.85892078215E+03  0.32136075385E+03 0.  0.
         13    1    3    3    0    0 -0.32006891250E+02 -0.38684819250E+02 -0.76966985353E+03  0.77130580171E+03  0.00000000000E+00 0.  1.
          1    1    3    3  501    0  0.71997229491E+02  0.42713024950E+02 -0.25853070286E+02  0.87614980443E+02  0.00000000000E+00 0.  1.
         21    1    1    2  502  501 -0.39990338241E+02 -0.40282057006E+01 -0.17044067897E+03  0.17511561507E+03  0.00000000000E+00 0.  1.
<mgrwt>
<rscale>  1 0.30000000E+03</rscale>
<asrwt>0</asrwt>
<pdfrwt beam="1">  1        1 0.12376898E+00 0.30000000E+03</pdfrwt>
<pdfrwt beam="2">0</pdfrwt>
<totfact> 0.24760784E+01</totfact>
</mgrwt>
</event>
<event>
 6    1  0.1939311E-004  0.3000000E+03  0.7818608E-02  0.1093470E+00
          1   -1    0    0  502    0  0.00000000000E+00  0.00000000000E+00  0.33147530223E+02  0.33147530223E+02  0.00000000000E+00 0.  1.
         13   -1    0    0    0    0 -0.00000000000E+00 -0.00000000000E+00 -0.10000000000E+04  0.10000000000E+04  0.00000000000E+00 0.  1.
    9000005    2    1    2  501    0 -0.18653059620E+02 -0.86897605165E+01 -0.95814562098E+03  0.10108034530E+04  0.32133649189E+03 0.  0.
         13    1    3    3    0    0 -0.16665521209E+03 -0.44085988229E+01 -0.39997160548E+03  0.43332514427E+03  0.00000000000E+00 0.  1.
          1    1    3    3  501    0  0.14800215247E+03 -0.42811616936E+01 -0.55817401550E+03  0.57747830873E+03  0.00000000000E+00 0.  1.
         21    1    1    2  502  501  0.18653059620E+02  0.86897605165E+01 -0.87068487973E+01  0.22344077224E+02  0.00000000000E+00 0.  1.
<mgrwt>
<rscale>  1 0.30000000E+03</rscale>
<asrwt>0</asrwt>
<pdfrwt beam="1">  1        1 0.12053673E+00 0.30000000E+03</pdfrwt>
<pdfrwt beam="2">0</pdfrwt>
<totfact> 0.25815212E+01</totfact>
</mgrwt>
</event>
<event>
 6    1  0.1939311E-004  0.3000000E+03  0.7818608E-02  0.1093470E+00
          1   -1    0    0  502    0  0.00000000000E+00  0.00000000000E+00  0.32081485220E+02  0.32081485220E+02  0.00000000000E+00 0.  1.
         13   -1    0    0    0    0 -0.00000000000E+00 -0.00000000000E+00 -0.10000000000E+04  0.10000000000E+04  0.00000000000E+00 0.  1.
    9000005    2    1    2  501    0 -0.15309943966E+02  0.97359851143E+01 -0.95722534160E+03  0.10110213869E+04  0.32489183783E+03 0.  0.
         13    1    3    3    0    0 -0.12615697217E+03  0.10328966099E+03 -0.34128523225E+03  0.37823266047E+03  0.00000000000E+00 0.  1.
          3    1    3    3  501    0  0.11084702821E+03 -0.93553675876E+02 -0.61594010936E+03  0.63278872639E+03  0.00000000000E+00 0.  1.
         21    1    1    2  502  501  0.15309943966E+02 -0.97359851143E+01 -0.10693173176E+02  0.21060098361E+02  0.00000000000E+00 0.  1.
<mgrwt>
<rscale>  1 0.30000000E+03</rscale>
<asrwt>0</asrwt>
<pdfrwt beam="1">  1        1 0.11666019E+00 0.30000000E+03</pdfrwt>
<pdfrwt beam="2">0</pdfrwt>
<totfact> 0.27160493E+01</totfact>
</mgrwt>
</event>
<event>
 6    1  0.1939311E-004  0.3000000E+03  0.7818608E-02  0.1093470E+00
          1   -1    0    0  502    0  0.00000000000E+00  0.00000000000E+00  0.31620800708E+02  0.31620800708E+02  0.00000000000E+00 0.  1.
         13   -1    0    0    0    0 -0.00000000000E+00 -0.00000000000E+00 -0.10000000000E+04  0.10000000000E+04  0.00000000000E+00 0.  1.
    9000005    2    1    2  501    0 -0.14126208430E+02 -0.61955889554E+01 -0.95832308053E+03  0.10132072022E+04  0.32858449862E+03 0.  0.
         13    1    3    3    0    0  0.13163029258E+03 -0.90754417562E+02 -0.43724731910E+03  0.46556215083E+03  0.00000000000E+00 0.  1.
          1    1    3    3  501    0 -0.14575650101E+03  0.84558828607E+02 -0.52107576143E+03  0.54764505132E+03  0.00000000000E+00 0.  1.
         21    1    1    2  502  501  0.14126208430E+02  0.61955889554E+01 -0.10056118763E+02  0.18413598553E+02  0.00000000000E+00 0.  1.
<mgrwt>
<rscale>  1 0.30000000E+03</rscale>
<asrwt>0</asrwt>
<pdfrwt beam="1">  1        1 0.11498497E+00 0.30000000E+03</pdfrwt>
<pdfrwt beam="2">0</pdfrwt>
<totfact> 0.27771697E+01</totfact>
</mgrwt>
</event>
<event>
 6    1  0.1939311E-004  0.3000000E+03  0.7818608E-02  0.1093470E+00
          1   -1    0    0  502    0  0.00000000000E+00  0.00000000000E+00  0.53232620154E+02  0.53232620154E+02  0.00000000000E+00 0.  1.
         13   -1    0    0    0    0 -0.00000000000E+00 -0.00000000000E+00 -0.10000000000E+04  0.10000000000E+04  0.00000000000E+00 0.  1.
    9000005    2    1    2  501    0 -0.26823886608E+02  0.41841077514E+02 -0.94864667498E+03  0.10034960299E+04  0.32342475385E+03 0.  0.
         13    1    3    3    0    0 -0.15503554454E+03  0.30285072958E+02 -0.27056372471E+03  0.31330166748E+03  0.00000000000E+00 0.  1.
          1    1    3    3  501    0  0.12821165793E+03  0.11556004556E+02 -0.67808295027E+03  0.69019436242E+03  0.00000000000E+00 0.  1.
         21    1    1    2  502  501  0.26823886608E+02 -0.41841077514E+02  0.18792951347E+01  0.49736590258E+02  0.00000000000E+00 0.  1.
<mgrwt>
<rscale>  1 0.30000000E+03</rscale>
<asrwt>0</asrwt>
<pdfrwt beam="1">  1        1 0.19357357E+00 0.30000000E+03</pdfrwt>
<pdfrwt beam="2">0</pdfrwt>
<totfact> 0.10991915E+01</totfact>
</mgrwt>
</event>
<event>
 6    1  0.1939311E-004  0.3000000E+03  0.7818608E-02  0.1093470E+00
          1   -1    0    0  502    0  0.00000000000E+00  0.00000000000E+00  0.49856580586E+02  0.49856580586E+02  0.00000000000E+00 0.  1.
         13   -1    0    0    0    0 -0.00000000000E+00 -0.00000000000E+00 -0.10000000000E+04  0.10000000000E+04  0.00000000000E+00 0.  1.
    9000005    2    1    2  501    0  0.24809897591E+02  0.74205660622E+01 -0.96800941660E+03  0.10183956576E+04  0.31530443858E+03 0.  0.
         13    1    3    3    0    0  0.95723634891E+02  0.54604370715E+02 -0.90688539289E+03  0.91355665802E+03  0.00000000000E+00 0.  1.
          1    1    3    3  501    0 -0.70913737300E+02 -0.47183804653E+02 -0.61124023709E+02  0.10483899958E+03  0.00000000000E+00 0.  1.
         21    1    1    2  502  501 -0.24809897591E+02 -0.74205660622E+01  0.17865997187E+02  0.31460922979E+02  0.00000000000E+00 0. -1.
<mgrwt>
<rscale>  1 0.30000000E+03</rscale>
<asrwt>0</asrwt>
<pdfrwt beam="1">  1        1 0.18129704E+00 0.30000000E+03</pdfrwt>
<pdfrwt beam="2">0</pdfrwt>
<totfact> 0.12591367E+01</totfact>
</mgrwt>
</event>
<event>
 6    1  0.1939311E-004  0.3000000E+03  0.7818608E-02  0.1093470E+00
          1   -1    0    0  502    0  0.00000000000E+00  0.00000000000E+00  0.31289631712E+02  0.31289631712E+02  0.00000000000E+00 0.  1.
         13   -1    0    0    0    0 -0.00000000000E+00 -0.00000000000E+00 -0.10000000000E+04  0.10000000000E+04  0.00000000000E+00 0.  1.
    9000005    2    1    2  501    0  0.43160974183E+02 -0.59190937485E+01 -0.80022096891E+03  0.85725922326E+03  0.30437127232E+03 0.  0.
         13    1    3    3    0    0 -0.90955304915E+02 -0.10605356396E+03 -0.34282567903E+03  0.37020220438E+03  0.00000000000E+00 0.  1.
          3    1    3    3  501    0  0.13411627910E+03  0.10013447021E+03 -0.45739528988E+03  0.48705701889E+03  0.00000000000E+00 0.  1.
         21    1    1    2  502  501 -0.43160974183E+02  0.59190937485E+01 -0.16848939937E+03  0.17403040845E+03  0.00000000000E+00 0. -1.
<mgrwt>
<rscale>  1 0.30000000E+03</rscale>
<asrwt>0</asrwt>
<pdfrwt beam="1">  1        1 0.11378072E+00 0.30000000E+03</pdfrwt>
<pdfrwt beam="2">0</pdfrwt>
<totfact> 0.28223036E+01</totfact>
</mgrwt>
</event>
<event>
 6    1  0.1939311E-004  0.3000000E+03  0.7818608E-02  0.1093470E+00
          1   -1    0    0  502    0  0.00000000000E+00  0.00000000000E+00  0.42232728847E+02  0.42232728847E+02  0.00000000000E+00 0.  1.
         13   -1    0    0    0    0 -0.00000000000E+00 -0.00000000000E+00 -0.10000000000E+04  0.10000000000E+04  0.00000000000E+00 0.  1.
    9000005    2    1    2  501    0  0.27902300999E+02 -0.26197710399E+02 -0.94912825974E+03  0.10029963815E+04  0.32201308906E+03 0.  0.
         13    1    3    3    0    0 -0.13745964949E+03  0.28642657605E+02 -0.30579756673E+03  0.33649325238E+03  0.00000000000E+00 0.  1.
          1    1    3    3  501    0  0.16536195049E+03 -0.54840368004E+02 -0.64333069301E+03  0.66650312917E+03  0.00000000000E+00 0.  1.
         21    1    1    2  502  501 -0.27902300999E+02  0.26197710399E+02 -0.86390114124E+01  0.39236347299E+02  0.00000000000E+00 0.  1.
<mgrwt>
<rscale>  1 0.30000000E+03</rscale>
<asrwt>0</asrwt>
<pdfrwt beam="1">  1        1 0.15357388E+00 0.30000000E+03</pdfrwt>
<pdfrwt beam="2">0</pdfrwt>
<totfact> 0.17232171E+01</totfact>
</mgrwt>
</event>
<event>
 6    1  0.1939311E-004  0.3000000E+03  0.7818608E-02  0.1093470E+00
          1   -1    0    0  502    0  0.00000000000E+00  0.00000000000E+00  0.60160967615E+02  0.60160967615E+02  0.00000000000E+00 0.  1.
         13   -1    0    0    0    0 -0.00000000000E+00 -0.00000000000E+00 -0.10000000000E+04  0.10000000000E+04  0.00000000000E+00 0.  1.
    9000005    2    1    2  501    0 -0.68953918000E+02 -0.96839703528E+02 -0.83238018849E+03  0.89991124338E+03  0.32070375236E+03 0.  0.
         13    1    3    3    0    0 -0.12865044785E+03 -0.71899686237E+02 -0.13602622488E+03  0.20055831189E+03  0.00000000000E+00 0.  1.
          1    1    3    3  501    0  0.59696529855E+02 -0.24940017291E+02 -0.69635396361E+03  0.69935293149E+03  0.00000000000E+00 0.  1.
         21    1    1    2  502  501  0.68953918000E+02  0.96839703528E+02 -0.10745884389E+03  0.16024972423E+03  0.00000000000E+00 0.  1.
<mgrwt>
<rscale>  1 0.30000000E+03</rscale>
<asrwt>0</asrwt>
<pdfrwt beam="1">  1        1 0.21876762E+00 0.30000000E+03</pdfrwt>
<pdfrwt beam="2">0</pdfrwt>
<totfact> 0.83536975E+00</totfact>
</mgrwt>
</event>
<event>
 6    1  0.1939311E-004  0.3000000E+03  0.7818608E-02  0.1093470E+00
          1   -1    0    0  502    0  0.00000000000E+00  0.00000000000E+00  0.29614808801E+02  0.29614808801E+02  0.00000000000E+00 0.  1.
         13   -1    0    0    0    0 -0.00000000000E+00 -0.00000000000E+00 -0.10000000000E+04  0.10000000000E+04  0.00000000000E+00 0.  1.
    9000005    2    1    2  501    0 -0.14768220080E+02  0.18298593748E+02 -0.91150540465E+03  0.96621316749E+03  0.31964487084E+03 0.  0.
         13    1    3    3    0    0  0.67399433432E+02  0.27461652278E+02 -0.26652273559E+02  0.77505933055E+02  0.00000000000E+00 0.  1.
          3    1    3    3  501    0 -0.82167653512E+02 -0.91630585299E+01 -0.88485313109E+03  0.88870723443E+03  0.00000000000E+00 0.  1.
         21    1    1    2  502  501  0.14768220080E+02 -0.18298593748E+02 -0.58879786547E+02  0.63401641314E+02  0.00000000000E+00 0. -1.
<mgrwt>
<rscale>  1 0.30000000E+03</rscale>
<asrwt>0</asrwt>
<pdfrwt beam="1">  1        1 0.10769044E+00 0.30000000E+03</pdfrwt>
<pdfrwt beam="2">0</pdfrwt>
<totfact> 0.30673023E+01</totfact>
</mgrwt>
</event>
<event>
 6    1  0.1939311E-004  0.3000000E+03  0.7818608E-02  0.1093470E+00
          1   -1    0    0  502    0  0.00000000000E+00  0.00000000000E+00  0.61074958491E+02  0.61074958491E+02  0.00000000000E+00 0.  1.
         13   -1    0    0    0    0 -0.00000000000E+00 -0.00000000000E+00 -0.10000000000E+04  0.10000000000E+04  0.00000000000E+00 0.  1.
    9000005    2    1    2  501    0  0.13987380348E+02  0.32887372201E+01 -0.97390167211E+03  0.10232619014E+04  0.31364628046E+03 0.  0.
         13    1    3    3    0    0  0.12840220516E+03 -0.78153643117E+02 -0.30814354146E+03  0.34285209693E+03  0.00000000000E+00 0.  1.
          3    1    3    3  501    0 -0.11441482482E+03  0.81442380338E+02 -0.66575813064E+03  0.68040980443E+03  0.00000000000E+00 0.  1.
         21    1    1    2  502  501 -0.13987380348E+02 -0.32887372201E+01  0.34976630596E+02  0.37813057128E+02  0.00000000000E+00 0.  1.
<mgrwt>
<rscale>  1 0.30000000E+03</rscale>
<asrwt>0</asrwt>
<pdfrwt beam="1">  1        1 0.22209123E+00 0.30000000E+03</pdfrwt>
<pdfrwt beam="2">0</pdfrwt>
<totfact> 0.80593344E+00</totfact>
</mgrwt>
</event>
<event>
 6    1  0.1939311E-004  0.3000000E+03  0.7818608E-02  0.1093470E+00
          1   -1    0    0  502    0  0.00000000000E+00  0.00000000000E+00  0.31519328850E+02  0.31519328850E+02  0.00000000000E+00 0.  1.
         13   -1    0    0    0    0 -0.00000000000E+00 -0.00000000000E+00 -0.10000000000E+04  0.10000000000E+04  0.00000000000E+00 0.  1.
    9000005    2    1    2  501    0  0.12612393732E+02  0.64363707377E+00 -0.96814605450E+03  0.10188860904E+04  0.31727369211E+03 0.  0.
         13    1    3    3    0    0  0.67344603875E+02  0.14577880006E+03 -0.43775540652E+03  0.46627947645E+03  0.00000000000E+00 0.  1.
          1    1    3    3  501    0 -0.54732210143E+02 -0.14513516299E+03 -0.53039064798E+03  0.55260661400E+03  0.00000000000E+00 0.  1.
         21    1    1    2  502  501 -0.12612393732E+02 -0.64363707377E+00 -0.33461664535E+00  0.12633238406E+02  0.00000000000E+00 0. -1.
<mgrwt>
<rscale>  1 0.30000000E+03</rscale>
<asrwt>0</asrwt>
<pdfrwt beam="1">  1        1 0.11461598E+00 0.30000000E+03</pdfrwt>
<pdfrwt beam="2">0</pdfrwt>
<totfact> 0.27908902E+01</totfact>
</mgrwt>
</event>
<event>
 6    1  0.1939311E-004  0.3000000E+03  0.7818608E-02  0.1093470E+00
          1   -1    0    0  502    0  0.00000000000E+00  0.00000000000E+00  0.32284555122E+02  0.32284555122E+02  0.00000000000E+00 0.  1.
         13   -1    0    0    0    0 -0.00000000000E+00 -0.00000000000E+00 -0.10000000000E+04  0.10000000000E+04  0.00000000000E+00 0.  1.
    9000005    2    1    2  501    0  0.19430125927E+02  0.98494217464E+01 -0.89441995085E+03  0.95582037823E+03  0.33634952961E+03 0.  0.
         13    1    3    3    0    0  0.22633173910E+02 -0.15408588617E+03 -0.58815937662E+03  0.60842926720E+03  0.00000000000E+00 0.  1.
          1    1    3    3  501    0 -0.32030479826E+01  0.16393530792E+03 -0.30626057423E+03  0.34739111103E+03  0.00000000000E+00 0.  1.
         21    1    1    2  502  501 -0.19430125927E+02 -0.98494217464E+01 -0.73295494032E+02  0.76464176892E+02  0.00000000000E+00 0.  1.
<mgrwt>
<rscale>  1 0.30000000E+03</rscale>
<asrwt>0</asrwt>
<pdfrwt beam="1">  1        1 0.11739863E+00 0.30000000E+03</pdfrwt>
<pdfrwt beam="2">0</pdfrwt>
<totfact> 0.26896987E+01</totfact>
</mgrwt>
</event>
<event>
 6    1  0.1939311E-004  0.3000000E+03  0.7818608E-02  0.1093470E+00
          1   -1    0    0  502    0  0.00000000000E+00  0.00000000000E+00  0.28759521680E+02  0.28759521680E+02  0.00000000000E+00 0.  1.
         13   -1    0    0    0    0 -0.00000000000E+00 -0.00000000000E+00 -0.10000000000E+04  0.10000000000E+04  0.00000000000E+00 0.  1.
    9000005    2    1    2  501    0  0.64756430804E+00 -0.14666349810E+02 -0.94613169933E+03  0.99967392492E+03  0.32243951765E+03 0.  0.
         13    1    3    3    0    0 -0.33428570110E+02  0.30316447665E+02  0.63052793285E+01  0.45566575975E+02  0.00000000000E+00 0.  1.
          1    1    3    3  501    0  0.34076134418E+02 -0.44982797475E+02 -0.95243697866E+03  0.95410734895E+03  0.00000000000E+00 0.  1.
         21    1    1    2  502  501 -0.64756430804E+00  0.14666349810E+02 -0.25108778993E+02  0.29085596758E+02  0.00000000000E+00 0. -1.
<mgrwt>
<rscale>  1 0.30000000E+03</rscale>
<asrwt>0</asrwt>
<pdfrwt beam="1">  1        1 0.10458030E+00 0.30000000E+03</pdfrwt>
<pdfrwt beam="2">0</pdfrwt>
<totfact> 0.32042640E+01</totfact>
</mgrwt>
</event>
<event>
 6    1  0.1939311E-004  0.3000000E+03  0.7818608E-02  0.1093470E+00
          1   -1    0    0  502    0  0.00000000000E+00  0.00000000000E+00  0.33679809773E+02  0.33679809773E+02  0.00000000000E+00 0.  1.
         13   -1    0    0    0    0 -0.00000000000E+00 -0.00000000000E+00 -0.10000000000E+04  0.10000000000E+04  0.00000000000E+00 0.  1.
    9000005    2    1    2  501    0  0.85340391670E+01  0.78227534696E+01 -0.96660528197E+03  0.10220993705E+04  0.33200501015E+03 0.  0.
         13    1    3    3    0    0  0.87100322391E+02  0.14462546849E+03 -0.59269053848E+03  0.61626704172E+03  0.00000000000E+00 0.  1.
          1    1    3    3  501    0 -0.78566283224E+02 -0.13680271502E+03 -0.37391474348E+03  0.40583232879E+03  0.00000000000E+00 0.  1.
         21    1    1    2  502  501 -0.85340391670E+01 -0.78227534696E+01  0.28509173861E+00  0.11580439268E+02  0.00000000000E+00 0. -1.
<mgrwt>
<rscale>  1 0.30000000E+03</rscale>
<asrwt>0</asrwt>
<pdfrwt beam="1">  1        1 0.12247229E+00 0.30000000E+03</pdfrwt>
<pdfrwt beam="2">0</pdfrwt>
<totfact> 0.25176874E+01</totfact>
</mgrwt>
</event>
<event>
 6    1  0.1939311E-004  0.3000000E+03  0.7818608E-02  0.1093470E+00
          1   -1    0    0  502    0  0.00000000000E+00  0.00000000000E+00  0.35264223245E+02  0.35264223245E+02  0.00000000000E+00 0.  1.
         13   -1    0    0    0    0 -0.00000000000E+00 -0.00000000000E+00 -0.10000000000E+04  0.10000000000E+04  0.00000000000E+00 0.  1.
    9000005    2    1    2  501    0 -0.21820839234E+02  0.15608134641E+02 -0.94970407537E+03  0.10045117447E+04  0.32616905359E+03 0.  0.
         13    1    3    3    0    0  0.60603097035E+02 -0.13094030614E+03 -0.59098580005E+03  0.60834391178E+03  0.00000000000E+00 0.  1.
          1    1    3    3  501    0 -0.82423936269E+02  0.14654844079E+03 -0.35871827532E+03  0.39616783289E+03  0.00000000000E+00 0.  1.
         21    1    1    2  502  501  0.21820839234E+02 -0.15608134641E+02 -0.15031701386E+02  0.30752478573E+02  0.00000000000E+00 0. -1.
<mgrwt>
<rscale>  1 0.30000000E+03</rscale>
<asrwt>0</asrwt>
<pdfrwt beam="1">  1        1 0.12823381E+00 0.30000000E+03</pdfrwt>
<pdfrwt beam="2">0</pdfrwt>
<totfact> 0.23393766E+01</totfact>
</mgrwt>
</event>
<event>
 6    1  0.1939311E-004  0.3000000E+03  0.7818608E-02  0.1093470E+00
          1   -1    0    0  502    0  0.00000000000E+00  0.00000000000E+00  0.30724901372E+02  0.30724901372E+02  0.00000000000E+00 0.  1.
         13   -1    0    0    0    0 -0.00000000000E+00 -0.00000000000E+00 -0.10000000000E+04  0.10000000000E+04  0.00000000000E+00 0.  1.
    9000005    2    1    2  501    0 -0.21547438728E+02 -0.34302263183E+02 -0.86315583713E+03  0.91713689569E+03  0.30734532513E+03 0.  0.
         13    1    3    3    0    0 -0.13130457381E+03  0.70328938137E+02 -0.54008359062E+03  0.56024756626E+03  0.00000000000E+00 0.  1.
          3    1    3    3  501    0  0.10975713508E+03 -0.10463120132E+03 -0.32307224652E+03  0.35688932943E+03  0.00000000000E+00 0.  1.
         21    1    1    2  502  501  0.21547438728E+02  0.34302263183E+02 -0.10611926150E+03  0.11358800569E+03  0.00000000000E+00 0.  1.
<mgrwt>
<rscale>  1 0.30000000E+03</rscale>
<asrwt>0</asrwt>
<pdfrwt beam="1">  1        1 0.11172715E+00 0.30000000E+03</pdfrwt>
<pdfrwt beam="2">0</pdfrwt>
<totfact> 0.29017064E+01</totfact>
</mgrwt>
</event>
<event>
 6    1  0.1939311E-004  0.3000000E+03  0.7818608E-02  0.1093470E+00
          1   -1    0    0  502    0  0.00000000000E+00  0.00000000000E+00  0.51869153563E+02  0.51869153563E+02  0.00000000000E+00 0.  1.
         13   -1    0    0    0    0 -0.00000000000E+00 -0.00000000000E+00 -0.10000000000E+04  0.10000000000E+04  0.00000000000E+00 0.  1.
    9000005    2    1    2  501    0  0.96703179393E+01  0.51392142179E+02 -0.94718141270E+03  0.99956648871E+03  0.31503312437E+03 0.  0.
         13    1    3    3    0    0  0.26655963548E+02 -0.10650523482E+03 -0.14532507759E+03  0.18213534422E+03  0.00000000000E+00 0.  1.
          3    1    3    3  501    0 -0.16985645609E+02  0.15789737700E+03 -0.80185633511E+03  0.81743114448E+03  0.00000000000E+00 0.  1.
         21    1    1    2  502  501 -0.96703179393E+01 -0.51392142179E+02 -0.94943373595E+00  0.52302664858E+02  0.00000000000E+00 0.  1.
<mgrwt>
<rscale>  1 0.30000000E+03</rscale>
<asrwt>0</asrwt>
<pdfrwt beam="1">  1        1 0.18861550E+00 0.30000000E+03</pdfrwt>
<pdfrwt beam="2">0</pdfrwt>
<totfact> 0.11610349E+01</totfact>
</mgrwt>
</event>
<event>
 6    1  0.1939311E-004  0.3000000E+03  0.7818608E-02  0.1093470E+00
          1   -1    0    0  502    0  0.00000000000E+00  0.00000000000E+00  0.44518200455E+02  0.44518200455E+02  0.00000000000E+00 0.  1.
         13   -1    0    0    0    0 -0.00000000000E+00 -0.00000000000E+00 -0.10000000000E+04  0.10000000000E+04  0.00000000000E+00 0.  1.
    9000005    2    1    2  501    0  0.84058655227E+02  0.10826545850E+02 -0.79090246074E+03  0.85939815731E+03  0.32535429729E+03 0.  0.
         13    1    3    3    0    0  0.68888549820E+02  0.47760657092E+02 -0.81056722543E+03  0.81489013959E+03  0.00000000000E+00 0.  1.
          3    1    3    3  501    0  0.15170105407E+02 -0.36934111242E+02  0.19664764684E+02  0.44508017720E+02  0.00000000000E+00 0.  1.
         21    1    1    2  502  501 -0.84058655227E+02 -0.10826545850E+02 -0.16457933880E+03  0.18512004314E+03  0.00000000000E+00 0.  1.
<mgrwt>
<rscale>  1 0.30000000E+03</rscale>
<asrwt>0</asrwt>
<pdfrwt beam="1">  1        1 0.16188471E+00 0.30000000E+03</pdfrwt>
<pdfrwt beam="2">0</pdfrwt>
<totfact> 0.15662320E+01</totfact>
</mgrwt>
</event>
<event>
 6    1  0.1939311E-004  0.3000000E+03  0.7818608E-02  0.1093470E+00
          1   -1    0    0  502    0  0.00000000000E+00  0.00000000000E+00  0.28324808996E+02  0.28324808996E+02  0.00000000000E+00 0.  1.
         13   -1    0    0    0    0 -0.00000000000E+00 -0.00000000000E+00 -0.10000000000E+04  0.10000000000E+04  0.00000000000E+00 0.  1.
    9000005    2    1    2  501    0 -0.12772474710E+02 -0.25206246016E+01 -0.94302486750E+03  0.99685528890E+03  0.32288554723E+03 0.  0.
         13    1    3    3    0    0  0.13776863346E+03  0.38865217652E+02 -0.64184779782E+03  0.65761637531E+03  0.00000000000E+00 0.  1.
          3    1    3    3  501    0 -0.15054110817E+03 -0.41385842254E+02 -0.30117706968E+03  0.33923891358E+03  0.00000000000E+00 0.  1.
         21    1    1    2  502  501  0.12772474710E+02  0.25206246016E+01 -0.28650323501E+02  0.31469520100E+02  0.00000000000E+00 0.  1.
<mgrwt>
<rscale>  1 0.30000000E+03</rscale>
<asrwt>0</asrwt>
<pdfrwt beam="1">  1        1 0.10299952E+00 0.30000000E+03</pdfrwt>
<pdfrwt beam="2">0</pdfrwt>
<totfact> 0.32772885E+01</totfact>
</mgrwt>
</event>
<event>
 6    1  0.1939311E-004  0.3000000E+03  0.7818608E-02  0.1093470E+00
          1   -1    0    0  502    0  0.00000000000E+00  0.00000000000E+00  0.71546813357E+02  0.71546813357E+02  0.00000000000E+00 0.  1.
         13   -1    0    0    0    0 -0.00000000000E+00 -0.00000000000E+00 -0.10000000000E+04  0.10000000000E+04  0.00000000000E+00 0.  1.
    9000005    2    1    2  501    0  0.62776644034E+02  0.34358149632E+02 -0.93748998601E+03  0.99941462065E+03  0.33885206303E+03 0.  0.
         13    1    3    3    0    0 -0.34009567055E+02  0.17068905890E+03 -0.39254979916E+03  0.42940278329E+03  0.00000000000E+00 0.  1.
          3    1    3    3  501    0  0.96786211089E+02 -0.13633090927E+03 -0.54494018685E+03  0.57001183736E+03  0.00000000000E+00 0.  1.
         21    1    1    2  502  501 -0.62776644034E+02 -0.34358149632E+02  0.90367993656E+01  0.72132192710E+02  0.00000000000E+00 0.  1.
<mgrwt>
<rscale>  1 0.30000000E+03</rscale>
<asrwt>0</asrwt>
<pdfrwt beam="1">  1        1 0.26017078E+00 0.30000000E+03</pdfrwt>
<pdfrwt beam="2">0</pdfrwt>
<totfact> 0.53484305E+00</totfact>
</mgrwt>
</event>
<event>
 6    1  0.1939311E-004  0.3000000E+03  0.7818608E-02  0.1093470E+00
          3   -1    0    0  502    0  0.00000000000E+00  0.00000000000E+00  0.25301669659E+02  0.25301669659E+02  0.00000000000E+00 0.  1.
         13   -1    0    0    0    0 -0.00000000000E+00 -0.00000000000E+00 -0.10000000000E+04  0.10000000000E+04  0.00000000000E+00 0.  1.
    9000005    2    1    2  501    0  0.10572475950E+02 -0.79519462293E+00 -0.95624948966E+03  0.10040232932E+04  0.30583864575E+03 0.  0.
         13    1    3    3    0    0 -0.68422683005E+02 -0.11406389612E+03 -0.70392572137E+03  0.71638234006E+03  0.00000000000E+00 0.  1.
          1    1    3    3  501    0  0.78995158955E+02  0.11326870150E+03 -0.25232376829E+03  0.28764095314E+03  0.00000000000E+00 0.  1.
         21    1    1    2  502  501 -0.10572475950E+02  0.79519462293E+00 -0.18448840683E+02  0.21278376459E+02  0.00000000000E+00 0.  1.
<mgrwt>
<rscale>  1 0.30000000E+03</rscale>
<asrwt>0</asrwt>
<pdfrwt beam="1">  1        3 0.92006266E-01 0.30000000E+03</pdfrwt>
<pdfrwt beam="2">0</pdfrwt>
<totfact> 0.48362602E+00</totfact>
</mgrwt>
</event>
<event>
 6    1  0.1939311E-004  0.3000000E+03  0.7818608E-02  0.1093470E+00
          1   -1    0    0  502    0  0.00000000000E+00  0.00000000000E+00  0.30047936919E+02  0.30047936919E+02  0.00000000000E+00 0.  1.
         13   -1    0    0    0    0 -0.00000000000E+00 -0.00000000000E+00 -0.10000000000E+04  0.10000000000E+04  0.00000000000E+00 0.  1.
    9000005    2    1    2  501    0  0.17042560256E+02 -0.37999569710E+01 -0.97278096699E+03  0.10123592052E+04  0.27975607598E+03 0.  0.
         13    1    3    3    0    0 -0.12934112464E+03  0.45357803412E+01 -0.54473515173E+03  0.55989828125E+03  0.00000000000E+00 0.  1.
          3    1    3    3  501    0  0.14638368489E+03 -0.83357373122E+01 -0.42804581526E+03  0.45246092393E+03  0.00000000000E+00 0.  1.
         21    1    1    2  502  501 -0.17042560256E+02  0.37999569710E+01  0.28289039089E+01  0.17688731734E+02  0.00000000000E+00 0.  1.
<mgrwt>
<rscale>  1 0.30000000E+03</rscale>
<asrwt>0</asrwt>
<pdfrwt beam="1">  1        1 0.10926546E+00 0.30000000E+03</pdfrwt>
<pdfrwt beam="2">0</pdfrwt>
<totfact> 0.30011306E+01</totfact>
</mgrwt>
</event>
<event>
 6    1  0.1939311E-004  0.3000000E+03  0.7818608E-02  0.1093470E+00
          1   -1    0    0  502    0  0.00000000000E+00  0.00000000000E+00  0.72566615179E+02  0.72566615179E+02  0.00000000000E+00 0.  1.
         13   -1    0    0    0    0 -0.00000000000E+00 -0.00000000000E+00 -0.10000000000E+04  0.10000000000E+04  0.00000000000E+00 0.  1.
    9000005    2    1    2  501    0  0.13685636184E+02 -0.21640891468E+02 -0.95965604073E+03  0.10314093026E+04  0.37710715754E+03 0.  0.
         13    1    3    3    0    0 -0.13303385871E+02  0.10965990302E+03 -0.67962087598E+02  0.12969625961E+03  0.00000000000E+00 0.  1.
          1    1    3    3  501    0  0.26989022055E+02 -0.13130079449E+03 -0.89169395313E+03  0.90171304304E+03  0.00000000000E+00 0.  1.
         21    1    1    2  502  501 -0.13685636184E+02  0.21640891468E+02  0.32222655904E+02  0.41157312531E+02  0.00000000000E+00 0.  1.
<mgrwt>
<rscale>  1 0.30000000E+03</rscale>
<asrwt>0</asrwt>
<pdfrwt beam="1">  1        1 0.26387916E+00 0.30000000E+03</pdfrwt>
<pdfrwt beam="2">0</pdfrwt>
<totfact> 0.51377774E+00</totfact>
</mgrwt>
</event>
<event>
 6    1  0.1939311E-004  0.3000000E+03  0.7818608E-02  0.1093470E+00
          1   -1    0    0  502    0  0.00000000000E+00  0.00000000000E+00  0.31175573769E+02  0.31175573769E+02  0.00000000000E+00 0.  1.
         13   -1    0    0    0    0 -0.00000000000E+00 -0.00000000000E+00 -0.10000000000E+04  0.10000000000E+04  0.00000000000E+00 0.  1.
    9000005    2    1    2  501    0  0.12342959285E+02  0.11602581150E+02 -0.95544190788E+03  0.10095871433E+04  0.32574528704E+03 0.  0.
         13    1    3    3    0    0  0.16812920229E+03  0.18970532737E+02 -0.53707642543E+03  0.56309714662E+03  0.00000000000E+00 0.  1.
          3    1    3    3  501    0 -0.15578624301E+03 -0.73679515870E+01 -0.41836548245E+03  0.44648999667E+03  0.00000000000E+00 0.  1.
         21    1    1    2  502  501 -0.12342959285E+02 -0.11602581150E+02 -0.13382518352E+02  0.21588430483E+02  0.00000000000E+00 0.  1.
<mgrwt>
<rscale>  1 0.30000000E+03</rscale>
<asrwt>0</asrwt>
<pdfrwt beam="1">  1        1 0.11336596E+00 0.30000000E+03</pdfrwt>
<pdfrwt beam="2">0</pdfrwt>
<totfact> 0.28380885E+01</totfact>
</mgrwt>
</event>
<event>
 6    1  0.1939311E-004  0.3000000E+03  0.7818608E-02  0.1093470E+00
          1   -1    0    0  502    0  0.00000000000E+00  0.00000000000E+00  0.41217445709E+02  0.41217445709E+02  0.00000000000E+00 0.  1.
         13   -1    0    0    0    0 -0.00000000000E+00 -0.00000000000E+00 -0.10000000000E+04  0.10000000000E+04  0.00000000000E+00 0.  1.
    9000005    2    1    2  501    0  0.17893324396E+01  0.11172719746E+02 -0.96974912343E+03  0.10254600025E+04  0.33320687720E+03 0.  0.
         13    1    3    3    0    0 -0.91656992033E+02 -0.92930538551E+02 -0.17404153289E+03  0.21754894703E+03  0.00000000000E+00 0.  1.
          1    1    3    3  501    0  0.93446324473E+02  0.10410325830E+03 -0.79570759054E+03  0.80791105550E+03  0.00000000000E+00 0.  1.
         21    1    1    2  502  501 -0.17893324396E+01 -0.11172719746E+02  0.10966569137E+02  0.15757443185E+02  0.00000000000E+00 0.  1.
<mgrwt>
<rscale>  1 0.30000000E+03</rscale>
<asrwt>0</asrwt>
<pdfrwt beam="1">  1        1 0.14988194E+00 0.30000000E+03</pdfrwt>
<pdfrwt beam="2">0</pdfrwt>
<totfact> 0.17989809E+01</totfact>
</mgrwt>
</event>
<event>
 6    1  0.1939311E-004  0.3000000E+03  0.7818608E-02  0.1093470E+00
          1   -1    0    0  502    0  0.00000000000E+00  0.00000000000E+00  0.35368153419E+02  0.35368153419E+02  0.00000000000E+00 0.  1.
         13   -1    0    0    0    0 -0.00000000000E+00 -0.00000000000E+00 -0.10000000000E+04  0.10000000000E+04  0.00000000000E+00 0.  1.
    9000005    2    1    2  501    0  0.12356635127E+02  0.55950407656E+00 -0.96851772537E+03  0.10224028331E+04  0.32730409309E+03 0.  0.
         13    1    3    3    0    0  0.15598595154E+03  0.22695693261E+02 -0.30690939640E+03  0.34502186767E+03  0.00000000000E+00 0.  1.
          1    1    3    3  501    0 -0.14362931641E+03 -0.22136189184E+02 -0.66160832897E+03  0.67738096546E+03  0.00000000000E+00 0.  1.
         21    1    1    2  502  501 -0.12356635127E+02 -0.55950407656E+00  0.38858787844E+01  0.12965320297E+02  0.00000000000E+00 0. -1.
<mgrwt>
<rscale>  1 0.30000000E+03</rscale>
<asrwt>0</asrwt>
<pdfrwt beam="1">  1        1 0.12861174E+00 0.30000000E+03</pdfrwt>
<pdfrwt beam="2">0</pdfrwt>
<totfact> 0.23282538E+01</totfact>
</mgrwt>
</event>
