<event>
 6    1  0.3609478E-003  0.6544352E+03  0.7818608E-02  0.9798492E-01
          1   -1    0    0  502    0  0.00000000000E+00  0.00000000000E+00  0.10746026498E+03  0.10746026498E+03  0.00000000000E+00 0.  1.
         13   -1    0    0    0    0 -0.00000000000E+00 -0.00000000000E+00 -0.10000000000E+04  0.10000000000E+04  0.00000000000E+00 0.  1.
    9000005    2    1    2  501    0  0.37747579509E-01  0.27383543474E-01 -0.89292709697E+03  0.11070701060E+04  0.65443518927E+03 0.  0.
         13    1    3    3    0    0  0.12668799573E+03  0.24070880551E+03 -0.75421806422E+03  0.80177020755E+03  0.00000000000E+00 0.  1.
          1    1    3    3  501    0 -0.12665024815E+03 -0.24068142197E+03 -0.13870903275E+03  0.30529989846E+03  0.00000000000E+00 0.  1.
         21    1    1    2  502  501 -0.37747579509E-01 -0.27383543474E-01  0.38736194657E+00  0.39015896230E+00  0.00000000000E+00 0.  1.
<mgrwt>
<rscale>  1 0.65443519E+03</rscale>
<asrwt>0</asrwt>
<pdfrwt beam="1">  1        1 0.39076542E+00 0.65443519E+03</pdfrwt>
<pdfrwt beam="2">0</pdfrwt>
<totfact> 0.14693189E+00</totfact>
</mgrwt>
</event>
<event>
 6    1  0.3609478E-003  0.6504633E+03  0.7818608E-02  0.9805910E-01
          1   -1    0    0  502    0  0.00000000000E+00  0.00000000000E+00  0.10581184035E+03  0.10581184035E+03  0.00000000000E+00 0.  1.
         13   -1    0    0    0    0 -0.00000000000E+00 -0.00000000000E+00 -0.10000000000E+04  0.10000000000E+04  0.00000000000E+00 0.  1.
    9000005    2    1    2  501    0  0.39151873490E-02 -0.49801391525E-02 -0.89422406129E+03  0.11057753841E+04  0.65046331813E+03 0.  0.
         13    1    3    3    0    0  0.25253543831E+03  0.12939807905E+03 -0.17693891939E+03  0.33440303775E+03  0.00000000000E+00 0.  1.
          3    1    3    3  501    0 -0.25253152313E+03 -0.12940305919E+03 -0.71728514191E+03  0.77137234634E+03  0.00000000000E+00 0.  1.
         21    1    1    2  502  501 -0.39151873490E-02  0.49801391526E-02  0.35901644780E-01  0.36456255648E-01  0.00000000000E+00 0. -1.
<mgrwt>
<rscale>  1 0.65046332E+03</rscale>
<asrwt>0</asrwt>
<pdfrwt beam="1">  1        1 0.38477114E+00 0.65046332E+03</pdfrwt>
<pdfrwt beam="2">0</pdfrwt>
<totfact> 0.15631020E+00</totfact>
</mgrwt>
</event>
<event>
 6    1  0.3609478E-003  0.6551619E+03  0.7818608E-02  0.9797141E-01
          1   -1    0    0  502    0  0.00000000000E+00  0.00000000000E+00  0.10730992648E+03  0.10730992648E+03  0.00000000000E+00 0.  1.
         13   -1    0    0    0    0 -0.00000000000E+00 -0.00000000000E+00 -0.10000000000E+04  0.10000000000E+04  0.00000000000E+00 0.  1.
    9000005    2    1    2  501    0  0.73779174883E-04 -0.10274427822E-04 -0.89269071762E+03  0.11073092781E+04  0.65516190367E+03 0.  0.
         13    1    3    3    0    0 -0.42675361016E+02 -0.78685148265E+02 -0.97892896140E+03  0.98301294522E+03  0.00000000000E+00 0.  1.
          3    1    3    3  501    0  0.42675434795E+02  0.78685137990E+02  0.86238243781E+02  0.12429633287E+03  0.00000000000E+00 0.  1.
         21    1    1    2  502  501 -0.73779174880E-04  0.10274427824E-04  0.64409327334E-03  0.64838651689E-03  0.00000000000E+00 0.  1.
<mgrwt>
<rscale>  1 0.65516190E+03</rscale>
<asrwt>0</asrwt>
<pdfrwt beam="1">  1        1 0.39021874E+00 0.65516190E+03</pdfrwt>
<pdfrwt beam="2">0</pdfrwt>
<totfact> 0.14773470E+00</totfact>
</mgrwt>
</event>
<event>
 6    1  0.3609478E-003  0.6493473E+03  0.7818608E-02  0.9808005E-01
          1   -1    0    0  502    0  0.00000000000E+00  0.00000000000E+00  0.10577676716E+03  0.10577676716E+03  0.00000000000E+00 0.  1.
         13   -1    0    0    0    0 -0.00000000000E+00 -0.00000000000E+00 -0.10000000000E+04  0.10000000000E+04  0.00000000000E+00 0.  1.
    9000005    2    1    2  501    0  0.20739931045E-01  0.16215320356E-01 -0.89458649034E+03  0.11054125569E+04  0.64934731201E+03 0.  0.
         13    1    3    3    0    0 -0.27047675751E+03 -0.17236761158E+03 -0.36154234343E+03  0.48330232357E+03  0.00000000000E+00 0.  1.
          1    1    3    3  501    0  0.27049749744E+03  0.17238382690E+03 -0.53304414691E+03  0.62211023336E+03  0.00000000000E+00 0.  1.
         21    1    1    2  502  501 -0.20739931045E-01 -0.16215320356E-01  0.36325749917E+00  0.36421023057E+00  0.00000000000E+00 0.  1.
<mgrwt>
<rscale>  1 0.64934731E+03</rscale>
<asrwt>0</asrwt>
<pdfrwt beam="1">  1        1 0.38464360E+00 0.64934731E+03</pdfrwt>
<pdfrwt beam="2">0</pdfrwt>
<totfact> 0.15654560E+00</totfact>
</mgrwt>
</event>
<event>
 6    1  0.3609478E-003  0.6297513E+03  0.7818608E-02  0.9845534E-01
          1   -1    0    0  502    0  0.00000000000E+00  0.00000000000E+00  0.99330455200E+02  0.99330455200E+02  0.00000000000E+00 0.  1.
         13   -1    0    0    0    0 -0.00000000000E+00 -0.00000000000E+00 -0.10000000000E+04  0.10000000000E+04  0.00000000000E+00 0.  1.
    9000005    2    1    2  501    0 -0.38720948289E-02 -0.16077198204E-02 -0.90085331366E+03  0.10991466385E+04  0.62975125265E+03 0.  0.
         13    1    3    3    0    0  0.12435458609E+03 -0.22702212983E+03 -0.13750682169E+03  0.29310618644E+03  0.00000000000E+00 0.  1.
          1    1    3    3  501    0 -0.12435845819E+03  0.22702052211E+03 -0.76334649197E+03  0.80604045208E+03  0.00000000000E+00 0.  1.
         21    1    1    2  502  501  0.38720948289E-02  0.16077198204E-02  0.18376886314E+00  0.18381668298E+00  0.00000000000E+00 0. -1.
<mgrwt>
<rscale>  1 0.62975125E+03</rscale>
<asrwt>0</asrwt>
<pdfrwt beam="1">  1        1 0.36120242E+00 0.62975125E+03</pdfrwt>
<pdfrwt beam="2">0</pdfrwt>
<totfact> 0.19919997E+00</totfact>
</mgrwt>
</event>
<event>
 6    1  0.3609478E-003  0.6653983E+03  0.7818608E-02  0.9778307E-01
          3   -1    0    0  502    0  0.00000000000E+00  0.00000000000E+00  0.11315201558E+03  0.11315201558E+03  0.00000000000E+00 0.  1.
         13   -1    0    0    0    0 -0.00000000000E+00 -0.00000000000E+00 -0.10000000000E+04  0.10000000000E+04  0.00000000000E+00 0.  1.
    9000005    2    1    2  501    0  0.27263443187E+01  0.53594883917E+01 -0.88415230011E+03  0.11065623431E+04  0.66537115384E+03 0.  0.
         13    1    3    3    0    0  0.26288141393E+03  0.41571903620E+02 -0.77973342864E+03  0.82390477648E+03  0.00000000000E+00 0.  1.
          3    1    3    3  501    0 -0.26015506962E+03 -0.36212415228E+02 -0.10441887147E+03  0.28265756664E+03  0.00000000000E+00 0.  1.
         21    1    1    2  502  501 -0.27263443187E+01 -0.53594883917E+01 -0.26956843138E+01  0.65896724565E+01  0.00000000000E+00 0.  1.
<mgrwt>
<rscale>  1 0.66539832E+03</rscale>
<asrwt>0</asrwt>
<pdfrwt beam="1">  1        3 0.41146274E+00 0.66539832E+03</pdfrwt>
<pdfrwt beam="2">0</pdfrwt>
<totfact> 0.51472544E-02</totfact>
</mgrwt>
</event>
<event>
 6    1  0.3609478E-003  0.6370491E+03  0.7818608E-02  0.9831389E-01
          1   -1    0    0  502    0  0.00000000000E+00  0.00000000000E+00  0.10183483749E+03  0.10183483749E+03  0.00000000000E+00 0.  1.
         13   -1    0    0    0    0 -0.00000000000E+00 -0.00000000000E+00 -0.10000000000E+04  0.10000000000E+04  0.00000000000E+00 0.  1.
    9000005    2    1    2  501    0 -0.37244434951E-02  0.88333219570E-02 -0.89854203647E+03  0.11014578416E+04  0.63704912328E+03 0.  0.
         13    1    3    3    0    0 -0.67438694333E+02 -0.26420068927E+03 -0.73392633060E+03  0.78294178612E+03  0.00000000000E+00 0.  1.
          3    1    3    3  501    0  0.67434969890E+02  0.26420952259E+03 -0.16461570587E+03  0.31851605550E+03  0.00000000000E+00 0.  1.
         21    1    1    2  502  501  0.37244434951E-02 -0.88333219570E-02  0.37687396122E+00  0.37699586431E+00  0.00000000000E+00 0. -1.
<mgrwt>
<rscale>  1 0.63704912E+03</rscale>
<asrwt>0</asrwt>
<pdfrwt beam="1">  1        1 0.37030928E+00 0.63704912E+03</pdfrwt>
<pdfrwt beam="2">0</pdfrwt>
<totfact> 0.18146454E+00</totfact>
</mgrwt>
</event>
<event>
 6    1  0.3609478E-003  0.6487002E+03  0.7818608E-02  0.9809221E-01
          1   -1    0    0  502    0  0.00000000000E+00  0.00000000000E+00  0.10537045180E+03  0.10537045180E+03  0.00000000000E+00 0.  1.
         13   -1    0    0    0    0 -0.00000000000E+00 -0.00000000000E+00 -0.10000000000E+04  0.10000000000E+04  0.00000000000E+00 0.  1.
    9000005    2    1    2  501    0 -0.94286560284E-01  0.35904811178E-01 -0.89478006497E+03  0.11051892491E+04  0.64870016305E+03 0.  0.
         13    1    3    3    0    0  0.20463516279E+03  0.21242294425E+03 -0.21757272277E+03  0.36652004963E+03  0.00000000000E+00 0.  1.
          1    1    3    3  501    0 -0.20472944935E+03 -0.21238703944E+03 -0.67720734220E+03  0.73866919949E+03  0.00000000000E+00 0.  1.
         21    1    1    2  502  501  0.94286560284E-01 -0.35904811178E-01  0.15051676835E+00  0.18120267236E+00  0.00000000000E+00 0. -1.
<mgrwt>
<rscale>  1 0.64870017E+03</rscale>
<asrwt>0</asrwt>
<pdfrwt beam="1">  1        1 0.38316609E+00 0.64870017E+03</pdfrwt>
<pdfrwt beam="2">0</pdfrwt>
<totfact> 0.15893677E+00</totfact>
</mgrwt>
</event>
<event>
 6    1  0.3609478E-003  0.6577062E+03  0.7818608E-02  0.9792426E-01
          1   -1    0    0  502    0  0.00000000000E+00  0.00000000000E+00  0.10814889647E+03  0.10814889647E+03  0.00000000000E+00 0.  1.
         13   -1    0    0    0    0 -0.00000000000E+00 -0.00000000000E+00 -0.10000000000E+04  0.10000000000E+04  0.00000000000E+00 0.  1.
    9000005    2    1    2  501    0  0.49134628537E-03  0.64088171670E-03 -0.89185561386E+03  0.11081443144E+04  0.65770615445E+03 0.  0.
         13    1    3    3    0    0 -0.15560603301E+03 -0.45432601514E+02 -0.92800695388E+03  0.94205852537E+03  0.00000000000E+00 0.  1.
          3    1    3    3  501    0  0.15560652435E+03  0.45433242396E+02  0.36151340017E+02  0.16608578904E+03  0.00000000000E+00 0.  1.
         21    1    1    2  502  501 -0.49134628536E-03 -0.64088171669E-03  0.45103288887E-02  0.45820538224E-02  0.00000000000E+00 0.  1.
<mgrwt>
<rscale>  1 0.65770615E+03</rscale>
<asrwt>0</asrwt>
<pdfrwt beam="1">  1        1 0.39326954E+00 0.65770615E+03</pdfrwt>
<pdfrwt beam="2">0</pdfrwt>
<totfact> 0.14313142E+00</totfact>
</mgrwt>
</event>
<event>
 6    1  0.5104950E-003  0.5941057E+03  0.7818608E-02  0.9917711E-01
          1   -1    0    0  502    0  0.00000000000E+00  0.00000000000E+00  0.88240390265E+02  0.88240390265E+02  0.00000000000E+00 0.  1.
         13   -1    0    0    0    0 -0.00000000000E+00 -0.00000000000E+00 -0.10000000000E+04  0.10000000000E+04  0.00000000000E+00 0.  1.
    9000005    2    1    2  501    0  0.84261483266E-05 -0.14382312870E-05 -0.91175961377E+03  0.10882403808E+04  0.59410565821E+03 0.  0.
         13    1    3    3    0    0  0.29051147148E+03 -0.60329852660E+02 -0.42973162930E+03  0.52221248491E+03  0.00000000000E+00 0.  1.
          3    1    3    3  501    0 -0.29051146305E+03  0.60329851222E+02 -0.48202798448E+03  0.56602789590E+03  0.00000000000E+00 0.  1.
         21    1    1    2  502  501 -0.84261483206E-05  0.14382312830E-05  0.40397146580E-05  0.94545110536E-05  0.00000000000E+00 0. -1.
<mgrwt>
<rscale>  1 0.59410566E+03</rscale>
<asrwt>0</asrwt>
<pdfrwt beam="1">  1        1 0.32087482E+00 0.59410566E+03</pdfrwt>
<pdfrwt beam="2">0</pdfrwt>
<totfact> 0.30013689E+00</totfact>
</mgrwt>
</event>
<event>
 6    1  0.3609478E-003  0.6322474E+03  0.7818608E-02  0.9840673E-01
          1   -1    0    0  502    0  0.00000000000E+00  0.00000000000E+00  0.99935534997E+02  0.99935534997E+02  0.00000000000E+00 0.  1.
         13   -1    0    0    0    0 -0.00000000000E+00 -0.00000000000E+00 -0.10000000000E+04  0.10000000000E+04  0.00000000000E+00 0.  1.
    9000005    2    1    2  501    0  0.12432622350E-02  0.13937242464E-02 -0.90006506834E+03  0.10999335723E+04  0.63224736949E+03 0.  0.
         13    1    3    3    0    0 -0.21972875278E+03 -0.15895918384E+03 -0.73262188385E+03  0.78120648463E+03  0.00000000000E+00 0.  1.
          3    1    3    3  501    0  0.21972999605E+03  0.15896057757E+03 -0.16744318448E+03  0.31872708767E+03  0.00000000000E+00 0.  1.
         21    1    1    2  502  501 -0.12432622350E-02 -0.13937242464E-02  0.60333548075E-03  0.19626976238E-02  0.00000000000E+00 0.  1.
<mgrwt>
<rscale>  1 0.63224737E+03</rscale>
<asrwt>0</asrwt>
<pdfrwt beam="1">  1        1 0.36340271E+00 0.63224737E+03</pdfrwt>
<pdfrwt beam="2">0</pdfrwt>
<totfact> 0.19474282E+00</totfact>
</mgrwt>
</event>
<event>
 6    1  0.3609478E-003  0.6334652E+03  0.7818608E-02  0.9838310E-01
          1   -1    0    0  502    0  0.00000000000E+00  0.00000000000E+00  0.10116207518E+03  0.10116207518E+03  0.00000000000E+00 0.  1.
         13   -1    0    0    0    0 -0.00000000000E+00 -0.00000000000E+00 -0.10000000000E+04  0.10000000000E+04  0.00000000000E+00 0.  1.
    9000005    2    1    2  501    0 -0.50358432138E+00 -0.25310556088E+01 -0.89616190065E+03  0.10974444220E+04  0.63345990197E+03 0.  0.
         13    1    3    3    0    0 -0.18854211227E+03  0.25292709903E+03 -0.47432897952E+03  0.56965623523E+03  0.00000000000E+00 0.  1.
          3    1    3    3  501    0  0.18803852795E+03 -0.25545815464E+03 -0.42183292114E+03  0.52778818680E+03  0.00000000000E+00 0.  1.
         21    1    1    2  502  501  0.50358432138E+00  0.25310556088E+01 -0.26760241672E+01  0.37176531585E+01  0.00000000000E+00 0.  1.
<mgrwt>
<rscale>  1 0.63346516E+03</rscale>
<asrwt>0</asrwt>
<pdfrwt beam="1">  1        1 0.36786287E+00 0.63346516E+03</pdfrwt>
<pdfrwt beam="2">0</pdfrwt>
<totfact> 0.18612938E+00</totfact>
</mgrwt>
</event>
<event>
 6    1  0.3609478E-003  0.6440527E+03  0.7818608E-02  0.9818003E-01
          1   -1    0    0  502    0  0.00000000000E+00  0.00000000000E+00  0.10370096400E+03  0.10370096400E+03  0.00000000000E+00 0.  1.
         13   -1    0    0    0    0 -0.00000000000E+00 -0.00000000000E+00 -0.10000000000E+04  0.10000000000E+04  0.00000000000E+00 0.  1.
    9000005    2    1    2  501    0  0.20892654220E-05 -0.51683909650E-05 -0.89629904432E+03  0.11037009540E+04  0.64405265232E+03 0.  0.
         13    1    3    3    0    0 -0.28781823786E+03  0.97269003256E+01 -0.20119501042E+03  0.35130240940E+03  0.00000000000E+00 0.  1.
          1    1    3    3  501    0  0.28781823995E+03 -0.97269054940E+01 -0.69510403391E+03  0.75239854458E+03  0.00000000000E+00 0.  1.
         21    1    1    2  502  501 -0.20892654122E-05  0.51683909654E-05  0.83211572934E-05  0.10015934996E-04  0.00000000000E+00 0. -1.
<mgrwt>
<rscale>  1 0.64405265E+03</rscale>
<asrwt>0</asrwt>
<pdfrwt beam="1">  1        1 0.37709521E+00 0.64405265E+03</pdfrwt>
<pdfrwt beam="2">0</pdfrwt>
<totfact> 0.16919340E+00</totfact>
</mgrwt>
</event>
<event>
 6    1  0.3609478E-003  0.6497775E+03  0.7818608E-02  0.9807197E-01
          1   -1    0    0  502    0  0.00000000000E+00  0.00000000000E+00  0.10555542731E+03  0.10555542731E+03  0.00000000000E+00 0.  1.
         13   -1    0    0    0    0 -0.00000000000E+00 -0.00000000000E+00 -0.10000000000E+04  0.10000000000E+04  0.00000000000E+00 0.  1.
    9000005    2    1    2  501    0 -0.88289788778E-03  0.31457171128E-02 -0.89444618574E+03  0.11055517836E+04  0.64977747492E+03 0.  0.
         13    1    3    3    0    0 -0.15474238710E+03  0.69850672757E+02  0.24071799614E+02  0.17147528798E+03  0.00000000000E+00 0.  1.
          1    1    3    3  501    0  0.15474150421E+03 -0.69847527040E+02 -0.91851798535E+03  0.93407649557E+03  0.00000000000E+00 0.  1.
         21    1    1    2  502  501  0.88289788777E-03 -0.31457171128E-02  0.16130502011E-02  0.36437584697E-02  0.00000000000E+00 0. -1.
<mgrwt>
<rscale>  1 0.64977747E+03</rscale>
<asrwt>0</asrwt>
<pdfrwt beam="1">  1        1 0.38383873E+00 0.64977747E+03</pdfrwt>
<pdfrwt beam="2">0</pdfrwt>
<totfact> 0.15782113E+00</totfact>
</mgrwt>
</event>
<event>
 6    1  0.3609478E-003  0.6188919E+03  0.7818608E-02  0.9866968E-01
          1   -1    0    0  502    0  0.00000000000E+00  0.00000000000E+00  0.99043395104E+02  0.99043395104E+02  0.00000000000E+00 0.  1.
         13   -1    0    0    0    0 -0.00000000000E+00 -0.00000000000E+00 -0.10000000000E+04  0.10000000000E+04  0.00000000000E+00 0.  1.
    9000005    2    1    2  501    0 -0.29537118510E+00 -0.17778079626E+01 -0.90397049549E+03  0.10955317884E+04  0.61888932352E+03 0.  0.
         13    1    3    3    0    0  0.26146743942E+03 -0.16956801022E+02 -0.16070690747E+03  0.30737512112E+03  0.00000000000E+00 0.  1.
          3    1    3    3  501    0 -0.26176281061E+03  0.15178993059E+02 -0.74326358803E+03  0.78815666725E+03  0.00000000000E+00 0.  1.
         21    1    1    2  502  501  0.29537118510E+00  0.17778079626E+01  0.30138905972E+01  0.35116067292E+01  0.00000000000E+00 0. -1.
<mgrwt>
<rscale>  1 0.61889195E+03</rscale>
<asrwt>0</asrwt>
<pdfrwt beam="1">  1        1 0.36015856E+00 0.61889195E+03</pdfrwt>
<pdfrwt beam="2">0</pdfrwt>
<totfact> 0.20170334E+00</totfact>
</mgrwt>
</event>
<event>
 6    1  0.3609478E-003  0.5832876E+03  0.7818608E-02  0.9940699E-01
          1   -1    0    0  502    0  0.00000000000E+00  0.00000000000E+00  0.85074015827E+02  0.85074015827E+02  0.00000000000E+00 0.  1.
         13   -1    0    0    0    0 -0.00000000000E+00 -0.00000000000E+00 -0.10000000000E+04  0.10000000000E+04  0.00000000000E+00 0.  1.
    9000005    2    1    2  501    0  0.45331742712E-02  0.19219996616E-02 -0.91494352150E+03  0.10850558004E+04  0.58328761553E+03 0.  0.
         13    1    3    3    0    0 -0.19942289204E+03  0.17807993387E+03 -0.24074137388E+03  0.35977543248E+03  0.00000000000E+00 0.  1.
          3    1    3    3  501    0  0.19942742522E+03 -0.17807801187E+03 -0.67420214762E+03  0.72528036792E+03  0.00000000000E+00 0.  1.
         21    1    1    2  502  501 -0.45331742712E-02 -0.19219996617E-02  0.17537329249E-01  0.18215423928E-01  0.00000000000E+00 0.  1.
<mgrwt>
<rscale>  1 0.58328762E+03</rscale>
<asrwt>0</asrwt>
<pdfrwt beam="1">  1        1 0.30936071E+00 0.58328762E+03</pdfrwt>
<pdfrwt beam="2">0</pdfrwt>
<totfact> 0.33721117E+00</totfact>
</mgrwt>
</event>
<event>
 6    1  0.3609478E-003  0.6432702E+03  0.7818608E-02  0.9819490E-01
          1   -1    0    0  502    0  0.00000000000E+00  0.00000000000E+00  0.10452347200E+03  0.10452347200E+03  0.00000000000E+00 0.  1.
         13   -1    0    0    0    0 -0.00000000000E+00 -0.00000000000E+00 -0.10000000000E+04  0.10000000000E+04  0.00000000000E+00 0.  1.
    9000005    2    1    2  501    0  0.14043249235E+01 -0.20072859861E+01 -0.89471511051E+03  0.11019581100E+04  0.64326553298E+03 0.  0.
         13    1    3    3    0    0 -0.27185605534E+03 -0.13540894527E+03 -0.62755351007E+03  0.69718340864E+03  0.00000000000E+00 0.  1.
          3    1    3    3  501    0  0.27326038026E+03  0.13340165928E+03 -0.26716160044E+03  0.40477470137E+03  0.00000000000E+00 0.  1.
         21    1    1    2  502  501 -0.14043249235E+01  0.20072859861E+01 -0.76141749593E+00  0.25653619870E+01  0.00000000000E+00 0.  1.
<mgrwt>
<rscale>  1 0.64327020E+03</rscale>
<asrwt>0</asrwt>
<pdfrwt beam="1">  1        1 0.38008615E+00 0.64327020E+03</pdfrwt>
<pdfrwt beam="2">0</pdfrwt>
<totfact> 0.16415680E+00</totfact>
</mgrwt>
</event>
<event>
 6    1  0.3609478E-003  0.6838957E+03  0.7818608E-02  0.9745176E-01
          1   -1    0    0  502    0  0.00000000000E+00  0.00000000000E+00  0.11692838773E+03  0.11692838773E+03  0.00000000000E+00 0.  1.
         13   -1    0    0    0    0 -0.00000000000E+00 -0.00000000000E+00 -0.10000000000E+04  0.10000000000E+04  0.00000000000E+00 0.  1.
    9000005    2    1    2  501    0  0.11210201620E-04  0.25295812804E-04 -0.88307166423E+03  0.11169283289E+04  0.68389569940E+03 0.  0.
         13    1    3    3    0    0  0.13666806715E+03 -0.26317436636E+03 -0.16346514822E+03  0.33861447455E+03  0.00000000000E+00 0.  1.
          3    1    3    3  501    0 -0.13666805594E+03  0.26317439166E+03 -0.71960651600E+03  0.77831385431E+03  0.00000000000E+00 0.  1.
         21    1    1    2  502  501 -0.11210201613E-04 -0.25295812804E-04  0.51956595512E-04  0.58864544360E-04  0.00000000000E+00 0. -1.
<mgrwt>
<rscale>  1 0.68389570E+03</rscale>
<asrwt>0</asrwt>
<pdfrwt beam="1">  1        1 0.42519503E+00 0.68389570E+03</pdfrwt>
<pdfrwt beam="2">0</pdfrwt>
<totfact> 0.10242704E+00</totfact>
</mgrwt>
</event>
<event>
 6    1  0.3609478E-003  0.6494869E+03  0.7818608E-02  0.9807742E-01
          1   -1    0    0  502    0  0.00000000000E+00  0.00000000000E+00  0.10546141925E+03  0.10546141925E+03  0.00000000000E+00 0.  1.
         13   -1    0    0    0    0 -0.00000000000E+00 -0.00000000000E+00 -0.10000000000E+04  0.10000000000E+04  0.00000000000E+00 0.  1.
    9000005    2    1    2  501    0  0.43793468368E-03  0.60615013894E-03 -0.89454164310E+03  0.11054582669E+04  0.64948689645E+03 0.  0.
         13    1    3    3    0    0  0.18806550557E+02  0.31536663838E+03 -0.31934891703E+03  0.44921435168E+03  0.00000000000E+00 0.  1.
          1    1    3    3  501    0 -0.18806112622E+02 -0.31536603223E+03 -0.57519272607E+03  0.65624391523E+03  0.00000000000E+00 0.  1.
         21    1    1    2  502  501 -0.43793468368E-03 -0.60615013898E-03  0.30623518853E-02  0.31523330800E-02  0.00000000000E+00 0. -1.
<mgrwt>
<rscale>  1 0.64948690E+03</rscale>
<asrwt>0</asrwt>
<pdfrwt beam="1">  1        1 0.38349688E+00 0.64948690E+03</pdfrwt>
<pdfrwt beam="2">0</pdfrwt>
<totfact> 0.15837968E+00</totfact>
</mgrwt>
</event>
<event>
 6    1  0.3609478E-003  0.6448105E+03  0.7818608E-02  0.9816566E-01
          3   -1    0    0  502    0  0.00000000000E+00  0.00000000000E+00  0.10395287019E+03  0.10395287019E+03  0.00000000000E+00 0.  1.
         13   -1    0    0    0    0 -0.00000000000E+00 -0.00000000000E+00 -0.10000000000E+04  0.10000000000E+04  0.00000000000E+00 0.  1.
    9000005    2    1    2  501    0 -0.11192973154E-01 -0.57347685283E-02 -0.89604873636E+03  0.11039401914E+04  0.64481052113E+03 0.  0.
         13    1    3    3    0    0  0.24286571879E+03  0.10829779495E+03 -0.76010459373E+03  0.80527707229E+03  0.00000000000E+00 0.  1.
          3    1    3    3  501    0 -0.24287691176E+03 -0.10830352972E+03 -0.13594414263E+03  0.29866311913E+03  0.00000000000E+00 0.  1.
         21    1    1    2  502  501  0.11192973154E-01  0.57347685283E-02  0.16065497154E-02  0.12678770449E-01  0.00000000000E+00 0.  1.
<mgrwt>
<rscale>  1 0.64481052E+03</rscale>
<asrwt>0</asrwt>
<pdfrwt beam="1">  1        3 0.37801123E+00 0.64481052E+03</pdfrwt>
<pdfrwt beam="2">0</pdfrwt>
<totfact> 0.77394144E-02</totfact>
</mgrwt>
</event>
<event>
 6    1  0.3609478E-003  0.6488526E+03  0.7818608E-02  0.9808935E-01
          1   -1    0    0  502    0  0.00000000000E+00  0.00000000000E+00  0.10525242312E+03  0.10525242312E+03  0.00000000000E+00 0.  1.
         13   -1    0    0    0    0 -0.00000000000E+00 -0.00000000000E+00 -0.10000000000E+04  0.10000000000E+04  0.00000000000E+00 0.  1.
    9000005    2    1    2  501    0 -0.65028169161E-05  0.53125945101E-05 -0.89474757791E+03  0.11052524147E+04  0.64885258105E+03 0.  0.
         13    1    3    3    0    0 -0.24746108733E+03  0.17154808293E+03 -0.24164562902E+03  0.38608074871E+03  0.00000000000E+00 0.  1.
          1    1    3    3  501    0  0.24746108082E+03 -0.17154807762E+03 -0.65310194890E+03  0.71917166595E+03  0.00000000000E+00 0.  1.
         21    1    1    2  502  501  0.65028169306E-05 -0.53125944964E-05  0.10335957603E-05  0.84604142045E-05  0.00000000000E+00 0. -1.
<mgrwt>
<rscale>  1 0.64885258E+03</rscale>
<asrwt>0</asrwt>
<pdfrwt beam="1">  1        1 0.38273689E+00 0.64885258E+03</pdfrwt>
<pdfrwt beam="2">0</pdfrwt>
<totfact> 0.15962785E+00</totfact>
</mgrwt>
</event>
<event>
 6    1  0.3609478E-003  0.6493805E+03  0.7818608E-02  0.9807942E-01
          1   -1    0    0  502    0  0.00000000000E+00  0.00000000000E+00  0.10542398340E+03  0.10542398340E+03  0.00000000000E+00 0.  1.
         13   -1    0    0    0    0 -0.00000000000E+00 -0.00000000000E+00 -0.10000000000E+04  0.10000000000E+04  0.00000000000E+00 0.  1.
    9000005    2    1    2  501    0  0.23832624213E-03  0.38542711654E-03 -0.89457597055E+03  0.11054235279E+04  0.64938048089E+03 0.  0.
         13    1    3    3    0    0 -0.10667946551E+01 -0.79946359868E+02  0.88404391101E+02  0.11919687443E+03  0.00000000000E+00 0.  1.
          1    1    3    3  501    0  0.10670329814E+01  0.79946745295E+02 -0.98298036165E+03  0.98622665348E+03  0.00000000000E+00 0.  1.
         21    1    1    2  502  501 -0.23832624213E-03 -0.38542711653E-03 -0.46053614644E-04  0.45549357324E-03  0.00000000000E+00 0.  1.
<mgrwt>
<rscale>  1 0.64938048E+03</rscale>
<asrwt>0</asrwt>
<pdfrwt beam="1">  1        1 0.38336075E+00 0.64938048E+03</pdfrwt>
<pdfrwt beam="2">0</pdfrwt>
<totfact> 0.15860236E+00</totfact>
</mgrwt>
</event>
<event>
 6    1  0.3609478E-003  0.6448453E+03  0.7818608E-02  0.9816500E-01
          1   -1    0    0  502    0  0.00000000000E+00  0.00000000000E+00  0.10395690258E+03  0.10395690258E+03  0.00000000000E+00 0.  1.
         13   -1    0    0    0    0 -0.00000000000E+00 -0.00000000000E+00 -0.10000000000E+04  0.10000000000E+04  0.00000000000E+00 0.  1.
    9000005    2    1    2  501    0  0.37328437986E-03  0.18396770821E-03 -0.89604353962E+03  0.11039562954E+04  0.64484531257E+03 0.  0.
         13    1    3    3    0    0  0.20481977845E+03 -0.20178489207E+03 -0.69780609375E+03  0.75471956964E+03  0.00000000000E+00 0.  1.
          1    1    3    3  501    0 -0.20481940516E+03  0.20178507604E+03 -0.19823744587E+03  0.34923672572E+03  0.00000000000E+00 0.  1.
         21    1    1    2  502  501 -0.37328437987E-03 -0.18396770821E-03  0.44220242937E-03  0.60723005069E-03  0.00000000000E+00 0. -1.
<mgrwt>
<rscale>  1 0.64484531E+03</rscale>
<asrwt>0</asrwt>
<pdfrwt beam="1">  1        1 0.37802590E+00 0.64484531E+03</pdfrwt>
<pdfrwt beam="2">0</pdfrwt>
<totfact> 0.16757865E+00</totfact>
</mgrwt>
</event>
<event>
 6    1  0.3609478E-003  0.6530739E+03  0.7818608E-02  0.9801028E-01
          1   -1    0    0  502    0  0.00000000000E+00  0.00000000000E+00  0.10675471396E+03  0.10675471396E+03  0.00000000000E+00 0.  1.
         13   -1    0    0    0    0 -0.00000000000E+00 -0.00000000000E+00 -0.10000000000E+04  0.10000000000E+04  0.00000000000E+00 0.  1.
    9000005    2    1    2  501    0  0.64054528865E-02  0.47433735176E-02 -0.89337348762E+03  0.11066262648E+04  0.65307388679E+03 0.  0.
         13    1    3    3    0    0 -0.11976111249E+03 -0.29200063273E+03 -0.58862668173E+03  0.66789854321E+03  0.00000000000E+00 0.  1.
          1    1    3    3  501    0  0.11976751794E+03  0.29200537611E+03 -0.30474680589E+03  0.43872772163E+03  0.00000000000E+00 0.  1.
         21    1    1    2  502  501 -0.64054528865E-02 -0.47433735176E-02  0.12820157538E+00  0.12844910801E+00  0.00000000000E+00 0. -1.
<mgrwt>
<rscale>  1 0.65307389E+03</rscale>
<asrwt>0</asrwt>
<pdfrwt beam="1">  1        1 0.38819978E+00 0.65307389E+03</pdfrwt>
<pdfrwt beam="2">0</pdfrwt>
<totfact> 0.15086915E+00</totfact>
</mgrwt>
</event>
<event>
 6    1  0.3609478E-003  0.6734076E+03  0.7818608E-02  0.9763821E-01
          1   -1    0    0  502    0  0.00000000000E+00  0.00000000000E+00  0.11342941932E+03  0.11342941932E+03  0.00000000000E+00 0.  1.
         13   -1    0    0    0    0 -0.00000000000E+00 -0.00000000000E+00 -0.10000000000E+04  0.10000000000E+04  0.00000000000E+00 0.  1.
    9000005    2    1    2  501    0 -0.24323963259E-02 -0.12142313340E-02 -0.88663051114E+03  0.11133694272E+04  0.67340761669E+03 0.  0.
         13    1    3    3    0    0  0.12511225092E+03 -0.11663150522E+03 -0.92282047306E+03  0.93853801672E+03  0.00000000000E+00 0.  1.
          1    1    3    3  501    0 -0.12511468331E+03  0.11663029099E+03  0.36189961922E+02  0.17483141051E+03  0.00000000000E+00 0.  1.
         21    1    1    2  502  501  0.24323963259E-02  0.12142313340E-02  0.59930460055E-01  0.59992090745E-01  0.00000000000E+00 0.  1.
<mgrwt>
<rscale>  1 0.67340762E+03</rscale>
<asrwt>0</asrwt>
<pdfrwt beam="1">  1        1 0.41247149E+00 0.67340762E+03</pdfrwt>
<pdfrwt beam="2">0</pdfrwt>
<totfact> 0.11713318E+00</totfact>
</mgrwt>
</event>
<event>
 6    1  0.3609478E-003  0.6450502E+03  0.7818608E-02  0.9816112E-01
          1   -1    0    0  502    0  0.00000000000E+00  0.00000000000E+00  0.10409522089E+03  0.10409522089E+03  0.00000000000E+00 0.  1.
         13   -1    0    0    0    0 -0.00000000000E+00 -0.00000000000E+00 -0.10000000000E+04  0.10000000000E+04  0.00000000000E+00 0.  1.
    9000005    2    1    2  501    0 -0.89247203271E-01  0.12314421472E-01 -0.89594544580E+03  0.11039963751E+04  0.64505018897E+03 0.  0.
         13    1    3    3    0    0 -0.18135609767E+03  0.26452651215E+03 -0.50674556125E+03  0.59971274261E+03  0.00000000000E+00 0.  1.
          1    1    3    3  501    0  0.18126685047E+03 -0.26451419773E+03 -0.38919988455E+03  0.50428363251E+03  0.00000000000E+00 0.  1.
         21    1    1    2  502  501  0.89247203270E-01 -0.12314421472E-01  0.40666695869E-01  0.98845780996E-01  0.00000000000E+00 0. -1.
<mgrwt>
<rscale>  1 0.64505020E+03</rscale>
<asrwt>0</asrwt>
<pdfrwt beam="1">  1        1 0.37852887E+00 0.64505020E+03</pdfrwt>
<pdfrwt beam="2">0</pdfrwt>
<totfact> 0.16671894E+00</totfact>
</mgrwt>
</event>
<event>
 6    1  0.3609478E-003  0.6541849E+03  0.7818608E-02  0.9798958E-01
          1   -1    0    0  502    0  0.00000000000E+00  0.00000000000E+00  0.10699957212E+03  0.10699957212E+03  0.00000000000E+00 0.  1.
         13   -1    0    0    0    0 -0.00000000000E+00 -0.00000000000E+00 -0.10000000000E+04  0.10000000000E+04  0.00000000000E+00 0.  1.
    9000005    2    1    2  501    0  0.99889072806E-02 -0.34265935816E-02 -0.89300738515E+03  0.11069869260E+04  0.65418488546E+03 0.  0.
         13    1    3    3    0    0 -0.29038554646E+03  0.60789107398E+02 -0.67954471538E+03  0.74148506484E+03  0.00000000000E+00 0.  1.
          3    1    3    3  501    0  0.29039553537E+03 -0.60792533991E+02 -0.21346266977E+03  0.36550186120E+03  0.00000000000E+00 0.  1.
         21    1    1    2  502  501 -0.99889072805E-02  0.34265935816E-02  0.69572784907E-02  0.12646087784E-01  0.00000000000E+00 0. -1.
<mgrwt>
<rscale>  1 0.65418489E+03</rscale>
<asrwt>0</asrwt>
<pdfrwt beam="1">  1        1 0.38909017E+00 0.65418489E+03</pdfrwt>
<pdfrwt beam="2">0</pdfrwt>
<totfact> 0.14947384E+00</totfact>
</mgrwt>
</event>
<event>
 6    1  0.3609478E-003  0.6508275E+03  0.7818608E-02  0.9805228E-01
          1   -1    0    0  502    0  0.00000000000E+00  0.00000000000E+00  0.10589443986E+03  0.10589443986E+03  0.00000000000E+00 0.  1.
         13   -1    0    0    0    0 -0.00000000000E+00 -0.00000000000E+00 -0.10000000000E+04  0.10000000000E+04  0.00000000000E+00 0.  1.
    9000005    2    1    2  501    0 -0.17089641091E-04 -0.54956031505E-04 -0.89410590453E+03  0.11058940907E+04  0.65082745125E+03 0.  0.
         13    1    3    3    0    0  0.23395615524E+03  0.20160159491E+03 -0.27280788607E+03  0.41207138744E+03  0.00000000000E+00 0.  1.
          3    1    3    3  501    0 -0.23395617233E+03 -0.20160164987E+03 -0.62129801846E+03  0.69382270325E+03  0.00000000000E+00 0.  1.
         21    1    1    2  502  501  0.17089641080E-04  0.54956031518E-04  0.34439050865E-03  0.34916621211E-03  0.00000000000E+00 0.  1.
<mgrwt>
<rscale>  1 0.65082745E+03</rscale>
<asrwt>0</asrwt>
<pdfrwt beam="1">  1        1 0.38507150E+00 0.65082745E+03</pdfrwt>
<pdfrwt beam="2">0</pdfrwt>
<totfact> 0.15582230E+00</totfact>
</mgrwt>
</event>
<event>
 6    1  0.3609478E-003  0.6444234E+03  0.7818608E-02  0.9817300E-01
          1   -1    0    0  502    0  0.00000000000E+00  0.00000000000E+00  0.10425957975E+03  0.10425957975E+03  0.00000000000E+00 0.  1.
         13   -1    0    0    0    0 -0.00000000000E+00 -0.00000000000E+00 -0.10000000000E+04  0.10000000000E+04  0.00000000000E+00 0.  1.
    9000005    2    1    2  501    0 -0.38477018074E+00  0.25477978500E+00 -0.89604175618E+03  0.11037084317E+04  0.64442319978E+03 0.  0.
         13    1    3    3    0    0 -0.12460436257E+03 -0.27803997357E+03 -0.62731460923E+03  0.69739235229E+03  0.00000000000E+00 0.  1.
          1    1    3    3  501    0  0.12421959239E+03  0.27829475335E+03 -0.26872714695E+03  0.40631607941E+03  0.00000000000E+00 0.  1.
         21    1    1    2  502  501  0.38477018074E+00 -0.25477978500E+00  0.30133593140E+00  0.55114805124E+00  0.00000000000E+00 0.  1.
<mgrwt>
<rscale>  1 0.64442337E+03</rscale>
<asrwt>0</asrwt>
<pdfrwt beam="1">  1        1 0.37912654E+00 0.64442337E+03</pdfrwt>
<pdfrwt beam="2">0</pdfrwt>
<totfact> 0.16572936E+00</totfact>
</mgrwt>
</event>
<event>
 6    1  0.3609478E-003  0.6319519E+03  0.7818608E-02  0.9841247E-01
          1   -1    0    0  502    0  0.00000000000E+00  0.00000000000E+00  0.13076739580E+03  0.13076739580E+03  0.00000000000E+00 0.  1.
         13   -1    0    0    0    0 -0.00000000000E+00 -0.00000000000E+00 -0.10000000000E+04  0.10000000000E+04  0.00000000000E+00 0.  1.
    9000005    2    1    2  501    0  0.23483131298E+02  0.31574147168E+02 -0.88576050831E+03  0.10880877070E+04  0.63072561050E+03 0.  0.
         13    1    3    3    0    0 -0.15852852308E+02 -0.27847242061E+03 -0.61218694238E+03  0.67273401459E+03  0.00000000000E+00 0.  1.
          1    1    3    3  501    0  0.39335983606E+02  0.31004656777E+03 -0.27357356593E+03  0.41535369237E+03  0.00000000000E+00 0.  1.
         21    1    1    2  502  501 -0.23483131298E+02 -0.31574147168E+02  0.16527904115E+02  0.42679688838E+02  0.00000000000E+00 0.  1.
<mgrwt>
<rscale>  1 0.63195188E+03</rscale>
<asrwt>0</asrwt>
<pdfrwt beam="1">  1        1 0.47551881E+00 0.63195188E+03</pdfrwt>
<pdfrwt beam="2">0</pdfrwt>
<totfact> 0.60687472E-01</totfact>
</mgrwt>
</event>
<event>
 6    1  0.3609478E-003  0.6527961E+03  0.7818608E-02  0.9801547E-01
          1   -1    0    0  502    0  0.00000000000E+00  0.00000000000E+00  0.10657060411E+03  0.10657060411E+03  0.00000000000E+00 0.  1.
         13   -1    0    0    0    0 -0.00000000000E+00 -0.00000000000E+00 -0.10000000000E+04  0.10000000000E+04  0.00000000000E+00 0.  1.
    9000005    2    1    2  501    0 -0.97119553310E-01 -0.19605902531E-01 -0.89335144271E+03  0.11064445355E+04  0.65279606318E+03 0.  0.
         13    1    3    3    0    0 -0.24288113037E+03  0.20741448636E+03 -0.56096032613E+03  0.64551413627E+03  0.00000000000E+00 0.  1.
          3    1    3    3  501    0  0.24278401081E+03 -0.20743409226E+03 -0.33239111658E+03  0.46093039922E+03  0.00000000000E+00 0.  1.
         21    1    1    2  502  501  0.97119553310E-01  0.19605902531E-01 -0.77953181335E-01  0.12606862230E+00  0.00000000000E+00 0. -1.
<mgrwt>
<rscale>  1 0.65279607E+03</rscale>
<asrwt>0</asrwt>
<pdfrwt beam="1">  1        1 0.38753029E+00 0.65279607E+03</pdfrwt>
<pdfrwt beam="2">0</pdfrwt>
<totfact> 0.15191074E+00</totfact>
</mgrwt>
</event>
<event>
 6    1  0.3609478E-003  0.6549617E+03  0.7818608E-02  0.9797513E-01
          1   -1    0    0  502    0  0.00000000000E+00  0.00000000000E+00  0.10724549210E+03  0.10724549210E+03  0.00000000000E+00 0.  1.
         13   -1    0    0    0    0 -0.00000000000E+00 -0.00000000000E+00 -0.10000000000E+04  0.10000000000E+04  0.00000000000E+00 0.  1.
    9000005    2    1    2  501    0 -0.27828472625E-02 -0.10386715358E-02 -0.89275480757E+03  0.11072425067E+04  0.65496169514E+03 0.  0.
         13    1    3    3    0    0 -0.55932979368E+02 -0.56322849806E+02  0.90734691001E+02  0.12055515643E+03  0.00000000000E+00 0.  1.
          1    1    3    3  501    0  0.55930196520E+02  0.56321811134E+02 -0.98348949857E+03  0.98668735023E+03  0.00000000000E+00 0.  1.
         21    1    1    2  502  501  0.27828472625E-02  0.10386715358E-02  0.29967442263E-03  0.29854450599E-02  0.00000000000E+00 0. -1.
<mgrwt>
<rscale>  1 0.65496170E+03</rscale>
<asrwt>0</asrwt>
<pdfrwt beam="1">  1        1 0.38998443E+00 0.65496170E+03</pdfrwt>
<pdfrwt beam="2">0</pdfrwt>
<totfact> 0.14809412E+00</totfact>
</mgrwt>
</event>
<event>
 6    1  0.3609478E-003  0.6607139E+03  0.7818608E-02  0.9786881E-01
          1   -1    0    0  502    0  0.00000000000E+00  0.00000000000E+00  0.10931946867E+03  0.10931946867E+03  0.00000000000E+00 0.  1.
         13   -1    0    0    0    0 -0.00000000000E+00 -0.00000000000E+00 -0.10000000000E+04  0.10000000000E+04  0.00000000000E+00 0.  1.
    9000005    2    1    2  501    0 -0.47680115050E-02 -0.21616238898E-02 -0.89086426038E+03  0.11091356651E+04  0.66071385111E+03 0.  0.
         13    1    3    3    0    0 -0.29970699040E+03 -0.12964020610E+03 -0.36139118409E+03  0.48706719358E+03  0.00000000000E+00 0.  1.
          1    1    3    3  501    0  0.29970222239E+03  0.12963804447E+03 -0.52947307629E+03  0.62206847147E+03  0.00000000000E+00 0.  1.
         21    1    1    2  502  501  0.47680115050E-02  0.21616238898E-02  0.18372904732E+00  0.18380361634E+00  0.00000000000E+00 0.  1.
<mgrwt>
<rscale>  1 0.66071385E+03</rscale>
<asrwt>0</asrwt>
<pdfrwt beam="1">  1        1 0.39752618E+00 0.66071385E+03</pdfrwt>
<pdfrwt beam="2">0</pdfrwt>
<totfact> 0.13694904E+00</totfact>
</mgrwt>
</event>
<event>
 6    1  0.3609478E-003  0.6542231E+03  0.7818608E-02  0.9798887E-01
          1   -1    0    0  502    0  0.00000000000E+00  0.00000000000E+00  0.10700501350E+03  0.10700501350E+03  0.00000000000E+00 0.  1.
         13   -1    0    0    0    0 -0.00000000000E+00 -0.00000000000E+00 -0.10000000000E+04  0.10000000000E+04  0.00000000000E+00 0.  1.
    9000005    2    1    2  501    0 -0.29106219154E-03  0.51148145193E-03 -0.89299801469E+03  0.11070019287E+04  0.65422306273E+03 0.  0.
         13    1    3    3    0    0  0.12580214947E+03  0.28527223197E+02 -0.95514459606E+03  0.96381594854E+03  0.00000000000E+00 0.  1.
          1    1    3    3  501    0 -0.12580244053E+03 -0.28526711715E+02  0.62146581375E+02  0.14318598012E+03  0.00000000000E+00 0.  1.
         21    1    1    2  502  501  0.29106219154E-03 -0.51148145194E-03  0.30281858808E-02  0.30848403855E-02  0.00000000000E+00 0.  1.
<mgrwt>
<rscale>  1 0.65422306E+03</rscale>
<asrwt>0</asrwt>
<pdfrwt beam="1">  1        1 0.38910996E+00 0.65422306E+03</pdfrwt>
<pdfrwt beam="2">0</pdfrwt>
<totfact> 0.14944260E+00</totfact>
</mgrwt>
</event>
<event>
 6    1  0.3609478E-003  0.6450932E+03  0.7818608E-02  0.9816030E-01
          1   -1    0    0  502    0  0.00000000000E+00  0.00000000000E+00  0.10418293409E+03  0.10418293409E+03  0.00000000000E+00 0.  1.
         13   -1    0    0    0    0 -0.00000000000E+00 -0.00000000000E+00 -0.10000000000E+04  0.10000000000E+04  0.00000000000E+00 0.  1.
    9000005    2    1    2  501    0  0.27665950537E-01  0.19771428448E-01 -0.89596152678E+03  0.11040345250E+04  0.64509315122E+03 0.  0.
         13    1    3    3    0    0  0.23995504388E+03 -0.11245177018E+03 -0.76271220967E+03  0.80743652288E+03  0.00000000000E+00 0.  1.
          3    1    3    3  501    0 -0.23992737792E+03  0.11247154161E+03 -0.13324931711E+03  0.29659800212E+03  0.00000000000E+00 0.  1.
         21    1    1    2  502  501 -0.27665950537E-01 -0.19771428448E-01  0.14446087777E+00  0.14840909476E+00  0.00000000000E+00 0.  1.
<mgrwt>
<rscale>  1 0.64509315E+03</rscale>
<asrwt>0</asrwt>
<pdfrwt beam="1">  1        1 0.37884783E+00 0.64509315E+03</pdfrwt>
<pdfrwt beam="2">0</pdfrwt>
<totfact> 0.16617860E+00</totfact>
</mgrwt>
</event>
<event>
 6    1  0.3609478E-003  0.6460530E+03  0.7818608E-02  0.9814214E-01
          1   -1    0    0  502    0  0.00000000000E+00  0.00000000000E+00  0.10434633778E+03  0.10434633778E+03  0.00000000000E+00 0.  1.
         13   -1    0    0    0    0 -0.00000000000E+00 -0.00000000000E+00 -0.10000000000E+04  0.10000000000E+04  0.00000000000E+00 0.  1.
    9000005    2    1    2  501    0  0.49644515300E-04 -0.34292082688E-04 -0.89565388393E+03  0.11043461080E+04  0.64605297496E+03 0.  0.
         13    1    3    3    0    0  0.12794904481E+03 -0.21755610905E+03 -0.79244500769E+03  0.83166742684E+03  0.00000000000E+00 0.  1.
          3    1    3    3  501    0 -0.12794899517E+03  0.21755607476E+03 -0.10320887625E+03  0.27267868117E+03  0.00000000000E+00 0.  1.
         21    1    1    2  502  501 -0.49644515292E-04  0.34292082697E-04  0.22171455112E-03  0.22977786449E-03  0.00000000000E+00 0.  1.
<mgrwt>
<rscale>  1 0.64605297E+03</rscale>
<asrwt>0</asrwt>
<pdfrwt beam="1">  1        1 0.37944203E+00 0.64605297E+03</pdfrwt>
<pdfrwt beam="2">0</pdfrwt>
<totfact> 0.16514974E+00</totfact>
</mgrwt>
</event>
<event>
 6    1  0.3609478E-003  0.6462001E+03  0.7818608E-02  0.9813936E-01
          1   -1    0    0  502    0  0.00000000000E+00  0.00000000000E+00  0.10440347880E+03  0.10440347880E+03  0.00000000000E+00 0.  1.
         13   -1    0    0    0    0 -0.00000000000E+00 -0.00000000000E+00 -0.10000000000E+04  0.10000000000E+04  0.00000000000E+00 0.  1.
    9000005    2    1    2  501    0  0.24413142643E-01  0.17889627988E-02 -0.89558528474E+03  0.11043765444E+04  0.64620008439E+03 0.  0.
         13    1    3    3    0    0 -0.19386135113E+03 -0.15109430019E+03 -0.80617744079E+03  0.84281301429E+03  0.00000000000E+00 0.  1.
          1    1    3    3  501    0  0.19388576428E+03  0.15109608915E+03 -0.89407843952E+02  0.26156353016E+03  0.00000000000E+00 0.  1.
         21    1    1    2  502  501 -0.24413142643E-01 -0.17889627988E-02 -0.11236453215E-01  0.26934360999E-01  0.00000000000E+00 0. -1.
<mgrwt>
<rscale>  1 0.64620008E+03</rscale>
<asrwt>0</asrwt>
<pdfrwt beam="1">  1        1 0.37964981E+00 0.64620008E+03</pdfrwt>
<pdfrwt beam="2">0</pdfrwt>
<totfact> 0.16479710E+00</totfact>
</mgrwt>
</event>
<event>
 6    1  0.3609478E-003  0.6492791E+03  0.7818608E-02  0.9808133E-01
          1   -1    0    0  502    0  0.00000000000E+00  0.00000000000E+00  0.10656899296E+03  0.10656899296E+03  0.00000000000E+00 0.  1.
         13   -1    0    0    0    0 -0.00000000000E+00 -0.00000000000E+00 -0.10000000000E+04  0.10000000000E+04  0.00000000000E+00 0.  1.
    9000005    2    1    2  501    0  0.27839043574E+00 -0.87172811290E+00 -0.89440952596E+03  0.11052292503E+04  0.64927841344E+03 0.  0.
         13    1    3    3    0    0 -0.28981098465E+03  0.18273058932E+02 -0.69349785461E+03  0.75184013318E+03  0.00000000000E+00 0.  1.
          1    1    3    3  501    0  0.29008937509E+03 -0.19144787044E+02 -0.20091167135E+03  0.35338911711E+03  0.00000000000E+00 0.  1.
         21    1    1    2  502  501 -0.27839043574E+00  0.87172811290E+00  0.97851891958E+00  0.13397426669E+01  0.00000000000E+00 0.  1.
<mgrwt>
<rscale>  1 0.64927906E+03</rscale>
<asrwt>0</asrwt>
<pdfrwt beam="1">  1        1 0.38752443E+00 0.64927906E+03</pdfrwt>
<pdfrwt beam="2">0</pdfrwt>
<totfact> 0.15201892E+00</totfact>
</mgrwt>
</event>
<event>
 6    1  0.3609478E-003  0.6490489E+03  0.7818608E-02  0.9808565E-01
          1   -1    0    0  502    0  0.00000000000E+00  0.00000000000E+00  0.10534234177E+03  0.10534234177E+03  0.00000000000E+00 0.  1.
         13   -1    0    0    0    0 -0.00000000000E+00 -0.00000000000E+00 -0.10000000000E+04  0.10000000000E+04  0.00000000000E+00 0.  1.
    9000005    2    1    2  501    0  0.10308001090E-02  0.15992296421E-02 -0.89468384154E+03  0.11053160894E+04  0.64904890509E+03 0.  0.
         13    1    3    3    0    0 -0.70604636407E+02  0.24633480688E+03 -0.78644737035E+03  0.82714286438E+03  0.00000000000E+00 0.  1.
          3    1    3    3  501    0  0.70605667207E+02 -0.24633320765E+03 -0.10823647120E+03  0.27817322504E+03  0.00000000000E+00 0.  1.
         21    1    1    2  502  501 -0.10308001090E-02 -0.15992296421E-02  0.26183309550E-01  0.26252348149E-01  0.00000000000E+00 0. -1.
<mgrwt>
<rscale>  1 0.64904891E+03</rscale>
<asrwt>0</asrwt>
<pdfrwt beam="1">  1        1 0.38306387E+00 0.64904891E+03</pdfrwt>
<pdfrwt beam="2">0</pdfrwt>
<totfact> 0.15909194E+00</totfact>
</mgrwt>
</event>
<event>
 6    1  0.3609478E-003  0.6452535E+03  0.7818608E-02  0.9815727E-01
          1   -1    0    0  502    0  0.00000000000E+00  0.00000000000E+00  0.13849955194E+03  0.13849955194E+03  0.00000000000E+00 0.  1.
         13   -1    0    0    0    0 -0.00000000000E+00 -0.00000000000E+00 -0.10000000000E+04  0.10000000000E+04  0.00000000000E+00 0.  1.
    9000005    2    1    2  501    0 -0.19523664837E+02 -0.96975836835E+01 -0.89205809786E+03  0.11009630819E+04  0.64488513801E+03 0.  0.
         13    1    3    3    0    0 -0.22164359350E+02 -0.27915858992E+03 -0.16374617429E+03  0.32439726686E+03  0.00000000000E+00 0.  1.
          1    1    3    3  501    0  0.26406945130E+01  0.26946100623E+03 -0.72831192357E+03  0.77656581509E+03  0.00000000000E+00 0.  1.
         21    1    1    2  502  501  0.19523664837E+02  0.96975836835E+01  0.30557649802E+02  0.37536469991E+02  0.00000000000E+00 0. -1.
<mgrwt>
<rscale>  1 0.64525348E+03</rscale>
<asrwt>0</asrwt>
<pdfrwt beam="1">  1        1 0.50363580E+00 0.64525348E+03</pdfrwt>
<pdfrwt beam="2">0</pdfrwt>
<totfact> 0.44457411E-01</totfact>
</mgrwt>
</event>
<event>
 6    1  0.3609478E-003  0.6803744E+03  0.7818608E-02  0.9751396E-01
          1   -1    0    0  502    0  0.00000000000E+00  0.00000000000E+00  0.11572733174E+03  0.11572733174E+03  0.00000000000E+00 0.  1.
         13   -1    0    0    0    0 -0.00000000000E+00 -0.00000000000E+00 -0.10000000000E+04  0.10000000000E+04  0.00000000000E+00 0.  1.
    9000005    2    1    2  501    0 -0.51514576995E-05  0.89483551164E-05 -0.88427268216E+03  0.11157273144E+04  0.68037435558E+03 0.  0.
         13    1    3    3    0    0  0.85444330066E+02  0.32369602009E+03 -0.54117530741E+03  0.63635725840E+03  0.00000000000E+00 0.  1.
          3    1    3    3  501    0 -0.85444335217E+02 -0.32369601114E+03 -0.34309737475E+03  0.47937005602E+03  0.00000000000E+00 0.  1.
         21    1    1    2  502  501  0.51514576996E-05 -0.89483551178E-05  0.13899323759E-04  0.17314784917E-04  0.00000000000E+00 0.  1.
<mgrwt>
<rscale>  1 0.68037436E+03</rscale>
<asrwt>0</asrwt>
<pdfrwt beam="1">  1        1 0.42082755E+00 0.68037436E+03</pdfrwt>
<pdfrwt beam="2">0</pdfrwt>
<totfact> 0.10726626E+00</totfact>
</mgrwt>
</event>
<event>
 6    1  0.3609478E-003  0.6546442E+03  0.7818608E-02  0.9798103E-01
          1   -1    0    0  502    0  0.00000000000E+00  0.00000000000E+00  0.11128878084E+03  0.11128878084E+03  0.00000000000E+00 0.  1.
         13   -1    0    0    0    0 -0.00000000000E+00 -0.00000000000E+00 -0.10000000000E+04  0.10000000000E+04  0.00000000000E+00 0.  1.
    9000005    2    1    2  501    0 -0.66552378244E-01  0.76150687905E-02 -0.89285993566E+03  0.11071395236E+04  0.65464422054E+03 0.  0.
         13    1    3    3    0    0 -0.38153723198E+02 -0.15864764160E+03  0.33454229635E+02  0.16656520122E+03  0.00000000000E+00 0.  1.
          1    1    3    3  501    0  0.38087170820E+02  0.15865525667E+03 -0.92631416530E+03  0.94057432236E+03  0.00000000000E+00 0.  1.
         21    1    1    2  502  501  0.66552378244E-01 -0.76150687905E-02  0.41487164995E+01  0.41492572590E+01  0.00000000000E+00 0. -1.
<mgrwt>
<rscale>  1 0.65464422E+03</rscale>
<asrwt>0</asrwt>
<pdfrwt beam="1">  1        1 0.40468733E+00 0.65464422E+03</pdfrwt>
<pdfrwt beam="2">0</pdfrwt>
<totfact> 0.12738230E+00</totfact>
</mgrwt>
</event>
<event>
 6    1  0.3609478E-003  0.6754622E+03  0.7818608E-02  0.9760140E-01
          1   -1    0    0  502    0  0.00000000000E+00  0.00000000000E+00  0.11825312517E+03  0.11825312517E+03  0.00000000000E+00 0.  1.
         13   -1    0    0    0    0 -0.00000000000E+00 -0.00000000000E+00 -0.10000000000E+04  0.10000000000E+04  0.00000000000E+00 0.  1.
    9000005    2    1    2  501    0 -0.40718866367E+01 -0.26412410605E+01 -0.88430687950E+03  0.11127658636E+04  0.67544478216E+03 0.  0.
         13    1    3    3    0    0  0.27086748531E+03  0.10264787829E+03 -0.16001387241E+03  0.33092328549E+03  0.00000000000E+00 0.  1.
          1    1    3    3  501    0 -0.27493937194E+03 -0.10528911935E+03 -0.72429300709E+03  0.78184257816E+03  0.00000000000E+00 0.  1.
         21    1    1    2  502  501  0.40718866367E+01  0.26412410605E+01  0.25600046758E+01  0.54872615267E+01  0.00000000000E+00 0. -1.
<mgrwt>
<rscale>  1 0.67546222E+03</rscale>
<asrwt>0</asrwt>
<pdfrwt beam="1">  1        1 0.43001227E+00 0.67546222E+03</pdfrwt>
<pdfrwt beam="2">0</pdfrwt>
<totfact> 0.97558700E-01</totfact>
</mgrwt>
</event>
<event>
 6    1  0.3609478E-003  0.6705410E+03  0.7818608E-02  0.9768981E-01
          1   -1    0    0  502    0  0.00000000000E+00  0.00000000000E+00  0.11951053808E+03  0.11951053808E+03  0.00000000000E+00 0.  1.
         13   -1    0    0    0    0 -0.00000000000E+00 -0.00000000000E+00 -0.10000000000E+04  0.10000000000E+04  0.00000000000E+00 0.  1.
    9000005    2    1    2  501    0 -0.46511392632E+01  0.51951620453E+01 -0.88563533185E+03  0.11108443519E+04  0.67050474298E+03 0.  0.
         13    1    3    3    0    0 -0.10078656516E+02  0.26761731399E+03 -0.10567454310E+03  0.28790226661E+03  0.00000000000E+00 0.  1.
          1    1    3    3  501    0  0.54275172533E+01 -0.26242215194E+03 -0.77996078876E+03  0.82294208531E+03  0.00000000000E+00 0.  1.
         21    1    1    2  502  501  0.46511392632E+01 -0.51951620453E+01  0.51458699338E+01  0.86661861564E+01  0.00000000000E+00 0.  1.
<mgrwt>
<rscale>  1 0.67054100E+03</rscale>
<asrwt>0</asrwt>
<pdfrwt beam="1">  1        1 0.43458469E+00 0.67054100E+03</pdfrwt>
<pdfrwt beam="2">0</pdfrwt>
<totfact> 0.93084983E-01</totfact>
</mgrwt>
</event>
<event>
 6    1  0.3609478E-003  0.6547999E+03  0.7818608E-02  0.9797814E-01
          1   -1    0    0  502    0  0.00000000000E+00  0.00000000000E+00  0.10719186507E+03  0.10719186507E+03  0.00000000000E+00 0.  1.
         13   -1    0    0    0    0 -0.00000000000E+00 -0.00000000000E+00 -0.10000000000E+04  0.10000000000E+04  0.00000000000E+00 0.  1.
    9000005    2    1    2  501    0 -0.11656400716E-05  0.10304663260E-03 -0.89280926902E+03  0.11071907263E+04  0.65479990345E+03 0.  0.
         13    1    3    3    0    0 -0.17866743094E+03 -0.24605933464E+03 -0.65157687752E+03  0.71904080160E+03  0.00000000000E+00 0.  1.
          1    1    3    3  501    0  0.17866742978E+03  0.24605943769E+03 -0.24123239150E+03  0.38814992470E+03  0.00000000000E+00 0.  1.
         21    1    1    2  502  501  0.11656400856E-05 -0.10304663259E-03  0.11340965122E-02  0.11387690135E-02  0.00000000000E+00 0.  1.
<mgrwt>
<rscale>  1 0.65479990E+03</rscale>
<asrwt>0</asrwt>
<pdfrwt beam="1">  1        1 0.38978942E+00 0.65479990E+03</pdfrwt>
<pdfrwt beam="2">0</pdfrwt>
<totfact> 0.14839375E+00</totfact>
</mgrwt>
</event>
<event>
 6    1  0.3609478E-003  0.6172477E+03  0.7818608E-02  0.9870255E-01
          1   -1    0    0  502    0  0.00000000000E+00  0.00000000000E+00  0.95551666659E+02  0.95551666659E+02  0.00000000000E+00 0.  1.
         13   -1    0    0    0    0 -0.00000000000E+00 -0.00000000000E+00 -0.10000000000E+04  0.10000000000E+04  0.00000000000E+00 0.  1.
    9000005    2    1    2  501    0  0.15328516002E+00  0.76348005568E+00 -0.90406993333E+03  0.10946858811E+04  0.61724721744E+03 0.  0.
         13    1    3    3    0    0  0.29668634902E+02 -0.20009610496E+03 -0.38867317235E+02  0.20598385244E+03  0.00000000000E+00 0.  1.
          1    1    3    3  501    0 -0.29515349742E+02  0.20085958502E+03 -0.86520261610E+03  0.88870202862E+03  0.00000000000E+00 0.  1.
         21    1    1    2  502  501 -0.15328516002E+00 -0.76348005568E+00 -0.37840000863E+00  0.86578559831E+00  0.00000000000E+00 0.  1.
<mgrwt>
<rscale>  1 0.61724771E+03</rscale>
<asrwt>0</asrwt>
<pdfrwt beam="1">  1        1 0.34746134E+00 0.61724771E+03</pdfrwt>
<pdfrwt beam="2">0</pdfrwt>
<totfact> 0.22920962E+00</totfact>
</mgrwt>
</event>
<event>
 6    1  0.3609478E-003  0.6642135E+03  0.7818608E-02  0.9780468E-01
          1   -1    0    0  502    0  0.00000000000E+00  0.00000000000E+00  0.11029750479E+03  0.11029750479E+03  0.00000000000E+00 0.  1.
         13   -1    0    0    0    0 -0.00000000000E+00 -0.00000000000E+00 -0.10000000000E+04  0.10000000000E+04  0.00000000000E+00 0.  1.
    9000005    2    1    2  501    0  0.30589909606E-03 -0.44073718578E-03 -0.88970507723E+03  0.11102948676E+04  0.66421349628E+03 0.  0.
         13    1    3    3    0    0  0.10370896124E+03 -0.31040041936E+03 -0.53928076713E+03  0.63081511933E+03  0.00000000000E+00 0.  1.
          3    1    3    3  501    0 -0.10370865534E+03  0.31039997862E+03 -0.35042431009E+03  0.47947974829E+03  0.00000000000E+00 0.  1.
         21    1    1    2  502  501 -0.30589909606E-03  0.44073718578E-03  0.25820164859E-02  0.26371637525E-02  0.00000000000E+00 0.  1.
<mgrwt>
<rscale>  1 0.66421350E+03</rscale>
<asrwt>0</asrwt>
<pdfrwt beam="1">  1        1 0.40108268E+00 0.66421350E+03</pdfrwt>
<pdfrwt beam="2">0</pdfrwt>
<totfact> 0.13195369E+00</totfact>
</mgrwt>
</event>
<event>
 6    1  0.3609478E-003  0.6528338E+03  0.7818608E-02  0.9801476E-01
          1   -1    0    0  502    0  0.00000000000E+00  0.00000000000E+00  0.20829492315E+03  0.20829492315E+03  0.00000000000E+00 0.  1.
         13   -1    0    0    0    0 -0.00000000000E+00 -0.00000000000E+00 -0.10000000000E+04  0.10000000000E+04  0.00000000000E+00 0.  1.
    9000005    2    1    2  501    0 -0.25711357400E+01  0.19599970546E+02 -0.89238838170E+03  0.11056893801E+04  0.65253445270E+03 0.  0.
         13    1    3    3    0    0  0.26028268439E+03 -0.17655336272E+03 -0.33912891695E+03  0.46252198650E+03  0.00000000000E+00 0.  1.
          3    1    3    3  501    0 -0.26285382013E+03  0.19615333326E+03 -0.55325946474E+03  0.64316739363E+03  0.00000000000E+00 0.  1.
         21    1    1    2  502  501  0.25711357400E+01 -0.19599970546E+02  0.10068330484E+03  0.10260554302E+03  0.00000000000E+00 0.  1.
<mgrwt>
<rscale>  1 0.65283381E+03</rscale>
<asrwt>0</asrwt>
<pdfrwt beam="1">  1        1 0.75743768E+00 0.65283381E+03</pdfrwt>
<pdfrwt beam="2">0</pdfrwt>
<totfact> 0.13972720E-02</totfact>
</mgrwt>
</event>
<event>
 6    1  0.3609478E-003  0.6509361E+03  0.7818608E-02  0.9805024E-01
          1   -1    0    0  502    0  0.00000000000E+00  0.00000000000E+00  0.10599839846E+03  0.10599839846E+03  0.00000000000E+00 0.  1.
         13   -1    0    0    0    0 -0.00000000000E+00 -0.00000000000E+00 -0.10000000000E+04  0.10000000000E+04  0.00000000000E+00 0.  1.
    9000005    2    1    2  501    0 -0.18507997004E-01 -0.44822989322E-02 -0.89406910032E+03  0.11059282649E+04  0.65093607251E+03 0.  0.
         13    1    3    3    0    0  0.76935132606E+02 -0.31522556148E+03 -0.49012513959E+03  0.58779998443E+03  0.00000000000E+00 0.  1.
          3    1    3    3  501    0 -0.76953640603E+02  0.31522107918E+03 -0.40394396074E+03  0.51812828043E+03  0.00000000000E+00 0.  1.
         21    1    1    2  502  501  0.18507997004E-01  0.44822989322E-02  0.67498779185E-01  0.70133602134E-01  0.00000000000E+00 0.  1.
<mgrwt>
<rscale>  1 0.65093607E+03</rscale>
<asrwt>0</asrwt>
<pdfrwt beam="1">  1        1 0.38544953E+00 0.65093607E+03</pdfrwt>
<pdfrwt beam="2">0</pdfrwt>
<totfact> 0.15522031E+00</totfact>
</mgrwt>
</event>
<event>
 6    1  0.3609478E-003  0.6481596E+03  0.7818608E-02  0.9810239E-01
          1   -1    0    0  502    0  0.00000000000E+00  0.00000000000E+00  0.10502779585E+03  0.10502779585E+03  0.00000000000E+00 0.  1.
         13   -1    0    0    0    0 -0.00000000000E+00 -0.00000000000E+00 -0.10000000000E+04  0.10000000000E+04  0.00000000000E+00 0.  1.
    9000005    2    1    2  501    0  0.18986618275E-03 -0.64311074681E-04 -0.89497212981E+03  0.11050275821E+04  0.64815958217E+03 0.  0.
         13    1    3    3    0    0 -0.19950590252E+03  0.25404352394E+03 -0.49216978447E+03  0.58870350258E+03  0.00000000000E+00 0.  1.
          1    1    3    3  501    0  0.19950609239E+03 -0.25404358825E+03 -0.40280234534E+03  0.51632407948E+03  0.00000000000E+00 0.  1.
         21    1    1    2  502  501 -0.18986618275E-03  0.64311074668E-04 -0.74333126433E-04  0.21380012948E-03  0.00000000000E+00 0.  1.
<mgrwt>
<rscale>  1 0.64815958E+03</rscale>
<asrwt>0</asrwt>
<pdfrwt beam="1">  1        1 0.38192006E+00 0.64815958E+03</pdfrwt>
<pdfrwt beam="2">0</pdfrwt>
<totfact> 0.16098013E+00</totfact>
</mgrwt>
</event>
<event>
 6    1  0.3609478E-003  0.6481871E+03  0.7818608E-02  0.9810187E-01
          1   -1    0    0  502    0  0.00000000000E+00  0.00000000000E+00  0.10504329235E+03  0.10504329235E+03  0.00000000000E+00 0.  1.
         13   -1    0    0    0    0 -0.00000000000E+00 -0.00000000000E+00 -0.10000000000E+04  0.10000000000E+04  0.00000000000E+00 0.  1.
    9000005    2    1    2  501    0  0.17847380014E-01 -0.90256129171E-02 -0.89493618220E+03  0.11050146343E+04  0.64818714223E+03 0.  0.
         13    1    3    3    0    0  0.18938179697E+03 -0.14611548200E+03 -0.82029903661E+03  0.85446223356E+03  0.00000000000E+00 0.  1.
          3    1    3    3  501    0 -0.18936394959E+03  0.14610645639E+03 -0.74637145587E+02  0.25055240072E+03  0.00000000000E+00 0.  1.
         21    1    1    2  502  501 -0.17847380014E-01  0.90256129171E-02 -0.20525454311E-01  0.28658069310E-01  0.00000000000E+00 0.  1.
<mgrwt>
<rscale>  1 0.64818714E+03</rscale>
<asrwt>0</asrwt>
<pdfrwt beam="1">  1        1 0.38197641E+00 0.64818714E+03</pdfrwt>
<pdfrwt beam="2">0</pdfrwt>
<totfact> 0.16088709E+00</totfact>
</mgrwt>
</event>
<event>
 6    1  0.3609478E-003  0.6525829E+03  0.7818608E-02  0.9801945E-01
          1   -1    0    0  502    0  0.00000000000E+00  0.00000000000E+00  0.10647168432E+03  0.10647168432E+03  0.00000000000E+00 0.  1.
         13   -1    0    0    0    0 -0.00000000000E+00 -0.00000000000E+00 -0.10000000000E+04  0.10000000000E+04  0.00000000000E+00 0.  1.
    9000005    2    1    2  501    0 -0.23693186762E-04  0.26398033225E-03 -0.89353387239E+03  0.11064661213E+04  0.65258294221E+03 0.  0.
         13    1    3    3    0    0 -0.22554471579E+03 -0.17467998540E+03 -0.71529412011E+03  0.77008388789E+03  0.00000000000E+00 0.  1.
          1    1    3    3  501    0  0.22554469210E+03  0.17468024938E+03 -0.17823975228E+03  0.33638223340E+03  0.00000000000E+00 0.  1.
         21    1    1    2  502  501  0.23693186757E-04 -0.26398033225E-03  0.55567054752E-02  0.55630228042E-02  0.00000000000E+00 0. -1.
<mgrwt>
<rscale>  1 0.65258294E+03</rscale>
<asrwt>0</asrwt>
<pdfrwt beam="1">  1        1 0.38717058E+00 0.65258294E+03</pdfrwt>
<pdfrwt beam="2">0</pdfrwt>
<totfact> 0.15247499E+00</totfact>
</mgrwt>
</event>
<event>
 6    1  0.3609478E-003  0.6260425E+03  0.7818608E-02  0.9852802E-01
          1   -1    0    0  502    0  0.00000000000E+00  0.00000000000E+00  0.98335920891E+02  0.98335920891E+02  0.00000000000E+00 0.  1.
         13   -1    0    0    0    0 -0.00000000000E+00 -0.00000000000E+00 -0.10000000000E+04  0.10000000000E+04  0.00000000000E+00 0.  1.
    9000005    2    1    2  501    0 -0.28842753547E+00 -0.71876298366E-01 -0.90194789160E+03  0.10979249389E+04  0.62604239791E+03 0.  0.
         13    1    3    3    0    0  0.18951246627E+02  0.29111360004E+03 -0.25211449246E+03  0.38557488921E+03  0.00000000000E+00 0.  1.
          3    1    3    3  501    0 -0.19239674163E+02 -0.29118547634E+03 -0.64983339914E+03  0.71235004972E+03  0.00000000000E+00 0.  1.
         21    1    1    2  502  501  0.28842753547E+00  0.71876298366E-01  0.28381249508E+00  0.41098196779E+00  0.00000000000E+00 0.  1.
<mgrwt>
<rscale>  1 0.62604247E+03</rscale>
<asrwt>0</asrwt>
<pdfrwt beam="1">  1        1 0.35758592E+00 0.62604247E+03</pdfrwt>
<pdfrwt beam="2">0</pdfrwt>
<totfact> 0.20672472E+00</totfact>
</mgrwt>
</event>
<event>
 6    1  0.3609478E-003  0.6499489E+03  0.7818608E-02  0.9806875E-01
          1   -1    0    0  502    0  0.00000000000E+00  0.00000000000E+00  0.10560844696E+03  0.10560844696E+03  0.00000000000E+00 0.  1.
         13   -1    0    0    0    0 -0.00000000000E+00 -0.00000000000E+00 -0.10000000000E+04  0.10000000000E+04  0.00000000000E+00 0.  1.
    9000005    2    1    2  501    0 -0.20491470707E-04 -0.14168342901E-04 -0.89439158869E+03  0.11056084035E+04  0.64994894253E+03 0.  0.
         13    1    3    3    0    0 -0.29295770785E+03  0.87267230253E+02 -0.25954828846E+03  0.40100511482E+03  0.00000000000E+00 0.  1.
          1    1    3    3  501    0  0.29295768736E+03 -0.87267244421E+02 -0.63484330023E+03  0.70460328865E+03  0.00000000000E+00 0.  1.
         21    1    1    2  502  501  0.20491470667E-04  0.14168342901E-04  0.35649672816E-04  0.43491855359E-04  0.00000000000E+00 0.  1.
<mgrwt>
<rscale>  1 0.64994894E+03</rscale>
<asrwt>0</asrwt>
<pdfrwt beam="1">  1        1 0.38403153E+00 0.64994894E+03</pdfrwt>
<pdfrwt beam="2">0</pdfrwt>
<totfact> 0.15750671E+00</totfact>
</mgrwt>
</event>
<event>
 6    1  0.3609478E-003  0.6577994E+03  0.7818608E-02  0.9792253E-01
          1   -1    0    0  502    0  0.00000000000E+00  0.00000000000E+00  0.11230396745E+03  0.11230396745E+03  0.00000000000E+00 0.  1.
         13   -1    0    0    0    0 -0.00000000000E+00 -0.00000000000E+00 -0.10000000000E+04  0.10000000000E+04  0.00000000000E+00 0.  1.
    9000005    2    1    2  501    0  0.91275690863E-01  0.37021938457E+00 -0.89181524520E+03  0.11081671442E+04  0.65779924183E+03 0.  0.
         13    1    3    3    0    0  0.25039756004E+03  0.21302964688E+03 -0.46970851471E+03  0.57332944920E+03  0.00000000000E+00 0.  1.
          1    1    3    3  501    0 -0.25030628435E+03 -0.21265942749E+03 -0.42210673049E+03  0.53483769501E+03  0.00000000000E+00 0.  1.
         21    1    1    2  502  501 -0.91275690863E-01 -0.37021938457E+00  0.41192126458E+01  0.41368232336E+01  0.00000000000E+00 0.  1.
<mgrwt>
<rscale>  1 0.65779935E+03</rscale>
<asrwt>0</asrwt>
<pdfrwt beam="1">  1        1 0.40837892E+00 0.65779935E+03</pdfrwt>
<pdfrwt beam="2">0</pdfrwt>
<totfact> 0.12255441E+00</totfact>
</mgrwt>
</event>
<event>
 6    1  0.3609478E-003  0.6635871E+03  0.7818608E-02  0.9781613E-01
          1   -1    0    0  502    0  0.00000000000E+00  0.00000000000E+00  0.11009385753E+03  0.11009385753E+03  0.00000000000E+00 0.  1.
         13   -1    0    0    0    0 -0.00000000000E+00 -0.00000000000E+00 -0.10000000000E+04  0.10000000000E+04  0.00000000000E+00 0.  1.
    9000005    2    1    2  501    0  0.13427664412E-02  0.98000814120E-04 -0.88991298156E+03  0.11100868872E+04  0.66358705709E+03 0.  0.
         13    1    3    3    0    0 -0.28486353758E+03  0.13887407917E+03 -0.60931633174E+03  0.68680392911E+03  0.00000000000E+00 0.  1.
          3    1    3    3  501    0  0.28486488035E+03 -0.13887398117E+03 -0.28059664982E+03  0.42328295807E+03  0.00000000000E+00 0.  1.
         21    1    1    2  502  501 -0.13427664412E-02 -0.98000814112E-04  0.68390925777E-02  0.69703524417E-02  0.00000000000E+00 0.  1.
<mgrwt>
<rscale>  1 0.66358706E+03</rscale>
<asrwt>0</asrwt>
<pdfrwt beam="1">  1        1 0.40034214E+00 0.66358706E+03</pdfrwt>
<pdfrwt beam="2">0</pdfrwt>
<totfact> 0.13297687E+00</totfact>
</mgrwt>
</event>
<event>
 6    1  0.5283201E-003  0.6537124E+03  0.7818608E-02  0.9799838E-01
          1   -1    0    0  502    0  0.00000000000E+00  0.00000000000E+00  0.10683499209E+03  0.10683499209E+03  0.00000000000E+00 0.  1.
         13   -1    0    0    0    0 -0.00000000000E+00 -0.00000000000E+00 -0.10000000000E+04  0.10000000000E+04  0.00000000000E+00 0.  1.
    9000005    2    1    2  501    0  0.18283434713E-04 -0.22798719613E-04 -0.89316498493E+03  0.11068349549E+04  0.65371241927E+03 0.  0.
         13    1    3    3    0    0  0.14537022822E+03 -0.13477487354E+03 -0.88660099631E+03  0.90849221045E+03  0.00000000000E+00 0.  1.
          1    1    3    3  501    0 -0.14537020994E+03  0.13477485074E+03 -0.65639886126E+01  0.19834274445E+03  0.00000000000E+00 0.  1.
         21    1    1    2  502  501 -0.18283434723E-04  0.22798719615E-04 -0.22986562693E-04  0.37181281121E-04  0.00000000000E+00 0.  1.
<mgrwt>
<rscale>  1 0.65371242E+03</rscale>
<asrwt>0</asrwt>
<pdfrwt beam="1">  1        1 0.38849170E+00 0.65371242E+03</pdfrwt>
<pdfrwt beam="2">0</pdfrwt>
<totfact> 0.15040270E+00</totfact>
</mgrwt>
</event>
<event>
 6    1  0.3609478E-003  0.6456171E+03  0.7818608E-02  0.9815038E-01
          1   -1    0    0  502    0  0.00000000000E+00  0.00000000000E+00  0.10421950681E+03  0.10421950681E+03  0.00000000000E+00 0.  1.
         13   -1    0    0    0    0 -0.00000000000E+00 -0.00000000000E+00 -0.10000000000E+04  0.10000000000E+04  0.00000000000E+00 0.  1.
    9000005    2    1    2  501    0  0.31070337330E-01 -0.14895710993E-01 -0.89576606643E+03  0.11041821520E+04  0.64561705206E+03 0.  0.
         13    1    3    3    0    0  0.20304720023E+03  0.62782025227E+02 -0.86346293610E+03  0.88923449677E+03  0.00000000000E+00 0.  1.
          1    1    3    3  501    0 -0.20301612989E+03 -0.62796920938E+02 -0.32303130329E+02  0.21494765527E+03  0.00000000000E+00 0.  1.
         21    1    1    2  502  501 -0.31070337330E-01  0.14895710993E-01 -0.14426756808E-01  0.37354777202E-01  0.00000000000E+00 0.  1.
<mgrwt>
<rscale>  1 0.64561705E+03</rscale>
<asrwt>0</asrwt>
<pdfrwt beam="1">  1        1 0.37898082E+00 0.64561705E+03</pdfrwt>
<pdfrwt beam="2">0</pdfrwt>
<totfact> 0.16593838E+00</totfact>
</mgrwt>
</event>
<event>
 6    1  0.3609478E-003  0.6577549E+03  0.7818608E-02  0.9792336E-01
          1   -1    0    0  502    0  0.00000000000E+00  0.00000000000E+00  0.10818787397E+03  0.10818787397E+03  0.00000000000E+00 0.  1.
         13   -1    0    0    0    0 -0.00000000000E+00 -0.00000000000E+00 -0.10000000000E+04  0.10000000000E+04  0.00000000000E+00 0.  1.
    9000005    2    1    2  501    0  0.26138790409E-02 -0.23404206433E-03 -0.89183955584E+03  0.11081603189E+04  0.65775489281E+03 0.  0.
         13    1    3    3    0    0  0.10880871261E+03  0.27654188452E+03 -0.20857893953E+03  0.36307013626E+03  0.00000000000E+00 0.  1.
          1    1    3    3  501    0 -0.10880609873E+03 -0.27654211856E+03 -0.68326061631E+03  0.74509018264E+03  0.00000000000E+00 0.  1.
         21    1    1    2  502  501 -0.26138790409E-02  0.23404206433E-03  0.27429816876E-01  0.27555072005E-01  0.00000000000E+00 0.  1.
<mgrwt>
<rscale>  1 0.65775489E+03</rscale>
<asrwt>0</asrwt>
<pdfrwt beam="1">  1        1 0.39341128E+00 0.65775489E+03</pdfrwt>
<pdfrwt beam="2">0</pdfrwt>
<totfact> 0.14292274E+00</totfact>
</mgrwt>
</event>
<event>
 6    1  0.3609478E-003  0.6464508E+03  0.7818608E-02  0.9813462E-01
          1   -1    0    0  502    0  0.00000000000E+00  0.00000000000E+00  0.10721283807E+03  0.10721283807E+03  0.00000000000E+00 0.  1.
         13   -1    0    0    0    0 -0.00000000000E+00 -0.00000000000E+00 -0.10000000000E+04  0.10000000000E+04  0.00000000000E+00 0.  1.
    9000005    2    1    2  501    0 -0.16167464461E+00 -0.12528674881E+00 -0.89552111084E+03  0.11044712487E+04  0.64645080050E+03 0.  0.
         13    1    3    3    0    0  0.22575943699E+03 -0.19677486609E+03 -0.65541030477E+03  0.72059027118E+03  0.00000000000E+00 0.  1.
          3    1    3    3  501    0 -0.22592111163E+03  0.19664957934E+03 -0.24011080607E+03  0.38388097755E+03  0.00000000000E+00 0.  1.
         21    1    1    2  502  501  0.16167464461E+00  0.12528674881E+00  0.27339489165E+01  0.27415893453E+01  0.00000000000E+00 0.  1.
<mgrwt>
<rscale>  1 0.64645083E+03</rscale>
<asrwt>0</asrwt>
<pdfrwt beam="1">  1        1 0.38986569E+00 0.64645083E+03</pdfrwt>
<pdfrwt beam="2">0</pdfrwt>
<totfact> 0.14850918E+00</totfact>
</mgrwt>
</event>
<event>
 6    1  0.3609478E-003  0.6328118E+03  0.7818608E-02  0.9839577E-01
          1   -1    0    0  502    0  0.00000000000E+00  0.00000000000E+00  0.10954544910E+03  0.10954544910E+03  0.00000000000E+00 0.  1.
         13   -1    0    0    0    0 -0.00000000000E+00 -0.00000000000E+00 -0.10000000000E+04  0.10000000000E+04  0.00000000000E+00 0.  1.
    9000005    2    1    2  501    0 -0.56805477491E+01 -0.10528384121E+02 -0.89552910072E+03  0.10965505828E+04  0.63269873941E+03 0.  0.
         13    1    3    3    0    0  0.12267616389E+03 -0.29543012855E+03 -0.43250082135E+03  0.53794550144E+03  0.00000000000E+00 0.  1.
          3    1    3    3  501    0 -0.12835671164E+03  0.28490174443E+03 -0.46302827937E+03  0.55860508134E+03  0.00000000000E+00 0.  1.
         21    1    1    2  502  501  0.56805477491E+01  0.10528384121E+02  0.50745498209E+01  0.12994866325E+02  0.00000000000E+00 0.  1.
<mgrwt>
<rscale>  1 0.63281183E+03</rscale>
<asrwt>0</asrwt>
<pdfrwt beam="1">  1        1 0.39834793E+00 0.63281183E+03</pdfrwt>
<pdfrwt beam="2">0</pdfrwt>
<totfact> 0.13652370E+00</totfact>
</mgrwt>
</event>
<event>
 6    1  0.3609478E-003  0.6245164E+03  0.7818608E-02  0.9855808E-01
          1   -1    0    0  502    0  0.00000000000E+00  0.00000000000E+00  0.97533229798E+02  0.97533229798E+02  0.00000000000E+00 0.  1.
         13   -1    0    0    0    0 -0.00000000000E+00 -0.00000000000E+00 -0.10000000000E+04  0.10000000000E+04  0.00000000000E+00 0.  1.
    9000005    2    1    2  501    0  0.13182353231E-02 -0.10681755310E-03 -0.90249479343E+03  0.10975051754E+04  0.62451641918E+03 0.  0.
         13    1    3    3    0    0 -0.11261715886E+03 -0.22425137493E+03 -0.77782340350E+03  0.81730077124E+03  0.00000000000E+00 0.  1.
          1    1    3    3  501    0  0.11261847710E+03  0.22425126812E+03 -0.12467138993E+03  0.28020440414E+03  0.00000000000E+00 0.  1.
         21    1    1    2  502  501 -0.13182353231E-02  0.10681755310E-03  0.28023225675E-01  0.28054417328E-01  0.00000000000E+00 0.  1.
<mgrwt>
<rscale>  1 0.62451642E+03</rscale>
<asrwt>0</asrwt>
<pdfrwt beam="1">  1        1 0.35466704E+00 0.62451642E+03</pdfrwt>
<pdfrwt beam="2">0</pdfrwt>
<totfact> 0.21294049E+00</totfact>
</mgrwt>
</event>
<event>
 6    1  0.3609478E-003  0.6478912E+03  0.7818608E-02  0.9810744E-01
          1   -1    0    0  502    0  0.00000000000E+00  0.00000000000E+00  0.10537223892E+03  0.10537223892E+03  0.00000000000E+00 0.  1.
         13   -1    0    0    0    0 -0.00000000000E+00 -0.00000000000E+00 -0.10000000000E+04  0.10000000000E+04  0.00000000000E+00 0.  1.
    9000005    2    1    2  501    0  0.18717569825E+00 -0.16146628644E+00 -0.89501978743E+03  0.11049087837E+04  0.64789114769E+03 0.  0.
         13    1    3    3    0    0  0.13100092901E+02 -0.16820408255E+03 -0.91928005206E+03  0.93463363942E+03  0.00000000000E+00 0.  1.
          3    1    3    3  501    0 -0.12912917203E+02  0.16804261626E+03  0.24260264637E+02  0.17027514426E+03  0.00000000000E+00 0.  1.
         21    1    1    2  502  501 -0.18717569825E+00  0.16146628644E+00  0.39202634807E+00  0.46345524191E+00  0.00000000000E+00 0.  1.
<mgrwt>
<rscale>  1 0.64789119E+03</rscale>
<asrwt>0</asrwt>
<pdfrwt beam="1">  1        1 0.38317259E+00 0.64789119E+03</pdfrwt>
<pdfrwt beam="2">0</pdfrwt>
<totfact> 0.15894999E+00</totfact>
</mgrwt>
</event>
<event>
 6    1  0.3609478E-003  0.6590410E+03  0.7818608E-02  0.9789961E-01
          1   -1    0    0  502    0  0.00000000000E+00  0.00000000000E+00  0.10858393538E+03  0.10858393538E+03  0.00000000000E+00 0.  1.
         13   -1    0    0    0    0 -0.00000000000E+00 -0.00000000000E+00 -0.10000000000E+04  0.10000000000E+04  0.00000000000E+00 0.  1.
    9000005    2    1    2  501    0 -0.84563945322E-04 -0.15245221418E-03 -0.89141621164E+03  0.11085837073E+04  0.65904095001E+03 0.  0.
         13    1    3    3    0    0  0.88521542737E+02  0.10099641922E+02  0.87938374773E+02  0.12518475967E+03  0.00000000000E+00 0.  1.
          3    1    3    3  501    0 -0.88521627301E+02 -0.10099794374E+02 -0.97935458641E+03  0.98339894766E+03  0.00000000000E+00 0.  1.
         21    1    1    2  502  501  0.84563945332E-04  0.15245221418E-03  0.14701617806E-03  0.22804932596E-03  0.00000000000E+00 0. -1.
<mgrwt>
<rscale>  1 0.65904095E+03</rscale>
<asrwt>0</asrwt>
<pdfrwt beam="1">  1        1 0.39485151E+00 0.65904095E+03</pdfrwt>
<pdfrwt beam="2">0</pdfrwt>
<totfact> 0.14079785E+00</totfact>
</mgrwt>
</event>
<event>
 6    1  0.3609478E-003  0.6440545E+03  0.7818608E-02  0.9818000E-01
          1   -1    0    0  502    0  0.00000000000E+00  0.00000000000E+00  0.10370157095E+03  0.10370157095E+03  0.00000000000E+00 0.  1.
         13   -1    0    0    0    0 -0.00000000000E+00 -0.00000000000E+00 -0.10000000000E+04  0.10000000000E+04  0.00000000000E+00 0.  1.
    9000005    2    1    2  501    0  0.10899283382E-04  0.27437769958E-05 -0.89629845498E+03  0.11037015427E+04  0.64405448135E+03 0.  0.
         13    1    3    3    0    0  0.29746845713E+03  0.57327380318E+02 -0.63530629929E+03  0.70383805342E+03  0.00000000000E+00 0.  1.
          1    1    3    3  501    0 -0.29746844623E+03 -0.57327377574E+02 -0.26099215569E+03  0.39986348928E+03  0.00000000000E+00 0.  1.
         21    1    1    2  502  501 -0.10899283385E-04 -0.27437769948E-05  0.25924431371E-04  0.28255952159E-04  0.00000000000E+00 0.  1.
<mgrwt>
<rscale>  1 0.64405448E+03</rscale>
<asrwt>0</asrwt>
<pdfrwt beam="1">  1        1 0.37709742E+00 0.64405448E+03</pdfrwt>
<pdfrwt beam="2">0</pdfrwt>
<totfact> 0.16918955E+00</totfact>
</mgrwt>
</event>
<event>
 6    1  0.3609478E-003  0.6494815E+03  0.7818608E-02  0.9807753E-01
          1   -1    0    0  502    0  0.00000000000E+00  0.00000000000E+00  0.10554743884E+03  0.10554743884E+03  0.00000000000E+00 0.  1.
         13   -1    0    0    0    0 -0.00000000000E+00 -0.00000000000E+00 -0.10000000000E+04  0.10000000000E+04  0.00000000000E+00 0.  1.
    9000005    2    1    2  501    0  0.14487010322E-01 -0.65494791633E-01 -0.89452954887E+03  0.11054453284E+04  0.64948152839E+03 0.  0.
         13    1    3    3    0    0  0.15475077277E+03  0.28035132037E+03 -0.53882166766E+03  0.62679618222E+03  0.00000000000E+00 0.  1.
          3    1    3    3  501    0 -0.15473628576E+03 -0.28041681516E+03 -0.35570788121E+03  0.47864914615E+03  0.00000000000E+00 0.  1.
         21    1    1    2  502  501 -0.14487010322E-01  0.65494791633E-01  0.76987703349E-01  0.10211046796E+00  0.00000000000E+00 0.  1.
<mgrwt>
<rscale>  1 0.64948153E+03</rscale>
<asrwt>0</asrwt>
<pdfrwt beam="1">  1        1 0.38380968E+00 0.64948153E+03</pdfrwt>
<pdfrwt beam="2">0</pdfrwt>
<totfact> 0.15787641E+00</totfact>
</mgrwt>
</event>
<event>
 6    1  0.3609478E-003  0.6544127E+03  0.7818608E-02  0.9798534E-01
          1   -1    0    0  502    0  0.00000000000E+00  0.00000000000E+00  0.10769792789E+03  0.10769792789E+03  0.00000000000E+00 0.  1.
         13   -1    0    0    0    0 -0.00000000000E+00 -0.00000000000E+00 -0.10000000000E+04  0.10000000000E+04  0.00000000000E+00 0.  1.
    9000005    2    1    2  501    0 -0.47364462525E-01  0.29505741284E-02 -0.89293502625E+03  0.11070631972E+04  0.65441268267E+03 0.  0.
         13    1    3    3    0    0  0.22793054828E+03 -0.19130071048E+03 -0.67656544166E+03  0.73911372164E+03  0.00000000000E+00 0.  1.
          1    1    3    3  501    0 -0.22797791274E+03  0.19130366105E+03 -0.21636958460E+03  0.36794947556E+03  0.00000000000E+00 0.  1.
         21    1    1    2  502  501  0.47364462525E-01 -0.29505741284E-02  0.63295414055E+00  0.63473068481E+00  0.00000000000E+00 0.  1.
<mgrwt>
<rscale>  1 0.65441268E+03</rscale>
<asrwt>0</asrwt>
<pdfrwt beam="1">  1        1 0.39162965E+00 0.65441268E+03</pdfrwt>
<pdfrwt beam="2">0</pdfrwt>
<totfact> 0.14564076E+00</totfact>
</mgrwt>
</event>
<event>
 6    1  0.3609478E-003  0.6462031E+03  0.7818608E-02  0.9813930E-01
          1   -1    0    0  502    0  0.00000000000E+00  0.00000000000E+00  0.10545921637E+03  0.10545921637E+03  0.00000000000E+00 0.  1.
         13   -1    0    0    0    0 -0.00000000000E+00 -0.00000000000E+00 -0.10000000000E+04  0.10000000000E+04  0.00000000000E+00 0.  1.
    9000005    2    1    2  501    0 -0.14564593680E+01  0.14563633855E+00 -0.89501917858E+03  0.11039192990E+04  0.64620147490E+03 0.  0.
         13    1    3    3    0    0 -0.30057976058E+03  0.10502887396E+03 -0.34787813148E+03  0.47159140280E+03  0.00000000000E+00 0.  1.
          1    1    3    3  501    0  0.29912330121E+03 -0.10488323762E+03 -0.54714104710E+03  0.63232789618E+03  0.00000000000E+00 0.  1.
         21    1    1    2  502  501  0.14564593680E+01 -0.14563633855E+00  0.47839494467E+00  0.15399173864E+01  0.00000000000E+00 0.  1.
<mgrwt>
<rscale>  1 0.64620313E+03</rscale>
<asrwt>0</asrwt>
<pdfrwt beam="1">  1        1 0.38348887E+00 0.64620313E+03</pdfrwt>
<pdfrwt beam="2">0</pdfrwt>
<totfact> 0.15848870E+00</totfact>
</mgrwt>
</event>
<event>
 6    1  0.3609478E-003  0.6451087E+03  0.7818608E-02  0.9816001E-01
          1   -1    0    0  502    0  0.00000000000E+00  0.00000000000E+00  0.10404135660E+03  0.10404135660E+03  0.00000000000E+00 0.  1.
         13   -1    0    0    0    0 -0.00000000000E+00 -0.00000000000E+00 -0.10000000000E+04  0.10000000000E+04  0.00000000000E+00 0.  1.
    9000005    2    1    2  501    0 -0.88802673588E-05  0.42238146193E-04 -0.89595869234E+03  0.11040412913E+04  0.64510866884E+03 0.  0.
         13    1    3    3    0    0 -0.11515569469E+03 -0.29910622317E+03 -0.51006153990E+03  0.60240197646E+03  0.00000000000E+00 0.  1.
          1    1    3    3  501    0  0.11515568581E+03  0.29910626540E+03 -0.38589715245E+03  0.50163931489E+03  0.00000000000E+00 0.  1.
         21    1    1    2  502  501  0.88802673516E-05 -0.42238146180E-04  0.48945227240E-04  0.65257608066E-04  0.00000000000E+00 0.  1.
<mgrwt>
<rscale>  1 0.64510867E+03</rscale>
<asrwt>0</asrwt>
<pdfrwt beam="1">  1        1 0.37833300E+00 0.64510867E+03</pdfrwt>
<pdfrwt beam="2">0</pdfrwt>
<totfact> 0.16704899E+00</totfact>
</mgrwt>
</event>
<event>
 6    1  0.3609478E-003  0.6332556E+03  0.7818608E-02  0.9838716E-01
          1   -1    0    0  502    0  0.00000000000E+00  0.00000000000E+00  0.10258944614E+03  0.10258944614E+03  0.00000000000E+00 0.  1.
         13   -1    0    0    0    0 -0.00000000000E+00 -0.00000000000E+00 -0.10000000000E+04  0.10000000000E+04  0.00000000000E+00 0.  1.
    9000005    2    1    2  501    0 -0.26923438615E-01 -0.40776536779E-01 -0.89974654146E+03  0.11002529475E+04  0.63325564137E+03 0.  0.
         13    1    3    3    0    0  0.26130051460E+03 -0.63980707994E+02 -0.15976949093E+03  0.31288620960E+03  0.00000000000E+00 0.  1.
          1    1    3    3  501    0 -0.26132743804E+03  0.63939931457E+02 -0.73997705053E+03  0.78736673795E+03  0.00000000000E+00 0.  1.
         21    1    1    2  502  501  0.26923438615E-01  0.40776536779E-01  0.23359876015E+01  0.23364985924E+01  0.00000000000E+00 0.  1.
<mgrwt>
<rscale>  1 0.63325564E+03</rscale>
<asrwt>0</asrwt>
<pdfrwt beam="1">  1        1 0.37305332E+00 0.63325564E+03</pdfrwt>
<pdfrwt beam="2">0</pdfrwt>
<totfact> 0.17661821E+00</totfact>
</mgrwt>
</event>
<event>
 6    1  0.3609478E-003  0.6507745E+03  0.7818608E-02  0.9805327E-01
          1   -1    0    0  502    0  0.00000000000E+00  0.00000000000E+00  0.10599446245E+03  0.10599446245E+03  0.00000000000E+00 0.  1.
         13   -1    0    0    0    0 -0.00000000000E+00 -0.00000000000E+00 -0.10000000000E+04  0.10000000000E+04  0.00000000000E+00 0.  1.
    9000005    2    1    2  501    0  0.87983467982E-02  0.48846754871E-01 -0.89411732920E+03  0.11058721481E+04  0.65077446723E+03 0.  0.
         13    1    3    3    0    0  0.26201211728E+03  0.92276893558E+02 -0.73504732230E+03  0.78578619275E+03  0.00000000000E+00 0.  1.
          3    1    3    3  501    0 -0.26200331893E+03 -0.92228046803E+02 -0.15907000690E+03  0.32008595540E+03  0.00000000000E+00 0.  1.
         21    1    1    2  502  501 -0.87983467982E-02 -0.48846754871E-01  0.11179165489E+00  0.12231431016E+00  0.00000000000E+00 0.  1.
<mgrwt>
<rscale>  1 0.65077447E+03</rscale>
<asrwt>0</asrwt>
<pdfrwt beam="1">  1        1 0.38543522E+00 0.65077447E+03</pdfrwt>
<pdfrwt beam="2">0</pdfrwt>
<totfact> 0.15524758E+00</totfact>
</mgrwt>
</event>
<event>
 6    1  0.3609478E-003  0.6536032E+03  0.7818608E-02  0.9800041E-01
          1   -1    0    0  502    0  0.00000000000E+00  0.00000000000E+00  0.10679940625E+03  0.10679940625E+03  0.00000000000E+00 0.  1.
         13   -1    0    0    0    0 -0.00000000000E+00 -0.00000000000E+00 -0.10000000000E+04  0.10000000000E+04  0.00000000000E+00 0.  1.
    9000005    2    1    2  501    0  0.59817465342E-04  0.21615550139E-04 -0.89320071456E+03  0.11067992697E+04  0.65360317239E+03 0.  0.
         13    1    3    3    0    0 -0.14163108308E+03  0.25223169622E+03 -0.70407827564E+03  0.76118750022E+03  0.00000000000E+00 0.  1.
          3    1    3    3  501    0  0.14163114289E+03 -0.25223167460E+03 -0.18912243892E+03  0.34561176950E+03  0.00000000000E+00 0.  1.
         21    1    1    2  502  501 -0.59817465324E-04 -0.21615550130E-04  0.12080920666E-03  0.13652921145E-03  0.00000000000E+00 0. -1.
<mgrwt>
<rscale>  1 0.65360317E+03</rscale>
<asrwt>0</asrwt>
<pdfrwt beam="1">  1        1 0.38836230E+00 0.65360317E+03</pdfrwt>
<pdfrwt beam="2">0</pdfrwt>
<totfact> 0.15060445E+00</totfact>
</mgrwt>
</event>
<event>
 6    1  0.3609478E-003  0.6508688E+03  0.7818608E-02  0.9805150E-01
          1   -1    0    0  502    0  0.00000000000E+00  0.00000000000E+00  0.10590755163E+03  0.10590755163E+03  0.00000000000E+00 0.  1.
         13   -1    0    0    0    0 -0.00000000000E+00 -0.00000000000E+00 -0.10000000000E+04  0.10000000000E+04  0.00000000000E+00 0.  1.
    9000005    2    1    2  501    0 -0.16274068173E-04  0.16952783426E-05 -0.89409246004E+03  0.11059075315E+04  0.65086875881E+03 0.  0.
         13    1    3    3    0    0 -0.28439492521E+03  0.11031357271E+03 -0.25437725878E+03  0.39718679181E+03  0.00000000000E+00 0.  1.
          1    1    3    3  501    0  0.28439490893E+03 -0.11031357101E+03 -0.63971520127E+03  0.70872073972E+03  0.00000000000E+00 0.  1.
         21    1    1    2  502  501  0.16274068187E-04 -0.16952783519E-05  0.11677916851E-04  0.20102064720E-04  0.00000000000E+00 0.  1.
<mgrwt>
<rscale>  1 0.65086876E+03</rscale>
<asrwt>0</asrwt>
<pdfrwt beam="1">  1        1 0.38511918E+00 0.65086876E+03</pdfrwt>
<pdfrwt beam="2">0</pdfrwt>
<totfact> 0.15574546E+00</totfact>
</mgrwt>
</event>
<event>
 6    1  0.3609478E-003  0.6501746E+03  0.7818608E-02  0.9806452E-01
          3   -1    0    0  502    0  0.00000000000E+00  0.00000000000E+00  0.10579547237E+03  0.10579547237E+03  0.00000000000E+00 0.  1.
         13   -1    0    0    0    0 -0.00000000000E+00 -0.00000000000E+00 -0.10000000000E+04  0.10000000000E+04  0.00000000000E+00 0.  1.
    9000005    2    1    2  501    0 -0.41909685006E-01  0.11500800545E-02 -0.89431394656E+03  0.11056782962E+04  0.65017463655E+03 0.  0.
         13    1    3    3    0    0  0.23474985944E+02 -0.25199696035E+03 -0.10018897741E+03  0.27219730745E+03  0.00000000000E+00 0.  1.
          3    1    3    3  501    0 -0.23516895629E+02  0.25199811043E+03 -0.79412496915E+03  0.83348098879E+03  0.00000000000E+00 0.  1.
         21    1    1    2  502  501  0.41909685006E-01 -0.11500800544E-02  0.10941892855E+00  0.11717613369E+00  0.00000000000E+00 0.  1.
<mgrwt>
<rscale>  1 0.65017464E+03</rscale>
<asrwt>0</asrwt>
<pdfrwt beam="1">  1        3 0.38471162E+00 0.65017464E+03</pdfrwt>
<pdfrwt beam="2">0</pdfrwt>
<totfact> 0.71276835E-02</totfact>
</mgrwt>
</event>
<event>
 6    1  0.3609478E-003  0.6668651E+03  0.7818608E-02  0.9775638E-01
          1   -1    0    0  502    0  0.00000000000E+00  0.00000000000E+00  0.11117898346E+03  0.11117898346E+03  0.00000000000E+00 0.  1.
         13   -1    0    0    0    0 -0.00000000000E+00 -0.00000000000E+00 -0.10000000000E+04  0.10000000000E+04  0.00000000000E+00 0.  1.
    9000005    2    1    2  501    0 -0.80586062077E-03 -0.17764826003E-03 -0.88882261942E+03  0.11111771806E+04  0.66686511228E+03 0.  0.
         13    1    3    3    0    0  0.13092732795E+03  0.29720836667E+03 -0.31858464427E+03  0.45494060490E+03  0.00000000000E+00 0.  1.
          1    1    3    3  501    0 -0.13092813381E+03 -0.29720854431E+03 -0.57023797514E+03  0.65623657573E+03  0.00000000000E+00 0.  1.
         21    1    1    2  502  501  0.80586062078E-03  0.17764826004E-03  0.16028767341E-02  0.18028266886E-02  0.00000000000E+00 0.  1.
<mgrwt>
<rscale>  1 0.66686511E+03</rscale>
<asrwt>0</asrwt>
<pdfrwt beam="1">  1        1 0.40428807E+00 0.66686511E+03</pdfrwt>
<pdfrwt beam="2">0</pdfrwt>
<totfact> 0.12761139E+00</totfact>
</mgrwt>
</event>
<event>
 6    1  0.3609478E-003  0.6666817E+03  0.7818608E-02  0.9775971E-01
          3   -1    0    0  502    0  0.00000000000E+00  0.00000000000E+00  0.11116572935E+03  0.11116572935E+03  0.00000000000E+00 0.  1.
         13   -1    0    0    0    0 -0.00000000000E+00 -0.00000000000E+00 -0.10000000000E+04  0.10000000000E+04  0.00000000000E+00 0.  1.
    9000005    2    1    2  501    0 -0.37601031235E-01 -0.96215036428E-01 -0.88881441003E+03  0.11110605361E+04  0.66668166975E+03 0.  0.
         13    1    3    3    0    0 -0.14536801910E+03 -0.83251374412E+02 -0.92475704214E+03  0.93980755440E+03  0.00000000000E+00 0.  1.
          1    1    3    3  501    0  0.14533041807E+03  0.83155159375E+02  0.35942632107E+02  0.17125298173E+03  0.00000000000E+00 0.  1.
         21    1    1    2  502  501  0.37601031235E-01  0.96215036428E-01 -0.19860615527E-01  0.10519322618E+00  0.00000000000E+00 0.  1.
<mgrwt>
<rscale>  1 0.66668168E+03</rscale>
<asrwt>0</asrwt>
<pdfrwt beam="1">  1        3 0.40423987E+00 0.66668168E+03</pdfrwt>
<pdfrwt beam="2">0</pdfrwt>
<totfact> 0.56127712E-02</totfact>
</mgrwt>
</event>
<event>
 6    1  0.3609478E-003  0.6544842E+03  0.7818608E-02  0.9798401E-01
          1   -1    0    0  502    0  0.00000000000E+00  0.00000000000E+00  0.10710166469E+03  0.10710166469E+03  0.00000000000E+00 0.  1.
         13   -1    0    0    0    0 -0.00000000000E+00 -0.00000000000E+00 -0.10000000000E+04  0.10000000000E+04  0.00000000000E+00 0.  1.
    9000005    2    1    2  501    0 -0.23089268962E-02  0.80932266627E-03 -0.89291248780E+03  0.11070873023E+04  0.65448421216E+03 0.  0.
         13    1    3    3    0    0  0.10362367899E+03 -0.28201153170E+03 -0.66582518529E+03  0.73047350960E+03  0.00000000000E+00 0.  1.
          3    1    3    3  501    0 -0.10362598792E+03  0.28201234103E+03 -0.22708730251E+03  0.37661379266E+03  0.00000000000E+00 0.  1.
         21    1    1    2  502  501  0.23089268962E-02 -0.80932266627E-03  0.14152495267E-01  0.14362425591E-01  0.00000000000E+00 0.  1.
<mgrwt>
<rscale>  1 0.65448421E+03</rscale>
<asrwt>0</asrwt>
<pdfrwt beam="1">  1        1 0.38946142E+00 0.65448421E+03</pdfrwt>
<pdfrwt beam="2">0</pdfrwt>
<totfact> 0.14890022E+00</totfact>
</mgrwt>
</event>
<event>
 6    1  0.3609478E-003  0.5494844E+03  0.7818608E-02  0.1001613E+00
          1   -1    0    0  502    0  0.00000000000E+00  0.00000000000E+00  0.75490890298E+02  0.75490890298E+02  0.00000000000E+00 0.  1.
         13   -1    0    0    0    0 -0.00000000000E+00 -0.00000000000E+00 -0.10000000000E+04  0.10000000000E+04  0.00000000000E+00 0.  1.
    9000005    2    1    2  501    0  0.21581387891E-02 -0.13233863797E-02 -0.92451648878E+03  0.10754830890E+04  0.54948442814E+03 0.  0.
         13    1    3    3    0    0  0.15986784981E+03 -0.13942989423E+03 -0.12052124182E+03  0.24397498753E+03  0.00000000000E+00 0.  1.
          1    1    3    3  501    0 -0.15986569167E+03  0.13942857085E+03 -0.80399524696E+03  0.83150810151E+03  0.00000000000E+00 0.  1.
         21    1    1    2  502  501 -0.21581387891E-02  0.13233863797E-02  0.73790765848E-02  0.78012618073E-02  0.00000000000E+00 0. -1.
<mgrwt>
<rscale>  1 0.54948443E+03</rscale>
<asrwt>0</asrwt>
<pdfrwt beam="1">  1        1 0.27451291E+00 0.54948443E+03</pdfrwt>
<pdfrwt beam="2">0</pdfrwt>
<totfact> 0.47955581E+00</totfact>
</mgrwt>
</event>
<event>
 6    1  0.3609478E-003  0.6313411E+03  0.7818608E-02  0.9842435E-01
          1   -1    0    0  502    0  0.00000000000E+00  0.00000000000E+00  0.10792966378E+03  0.10792966378E+03  0.00000000000E+00 0.  1.
         13   -1    0    0    0    0 -0.00000000000E+00 -0.00000000000E+00 -0.10000000000E+04  0.10000000000E+04  0.00000000000E+00 0.  1.
    9000005    2    1    2  501    0  0.53981282887E+01 -0.18167954959E+01 -0.89926212735E+03  0.10987556573E+04  0.63131543643E+03 0.  0.
         13    1    3    3    0    0  0.19167543496E+03  0.68087189356E+02 -0.28313537157E+02  0.20537038274E+03  0.00000000000E+00 0.  1.
          1    1    3    3  501    0 -0.18627730667E+03 -0.69903984852E+02 -0.87094859019E+03  0.89338527458E+03  0.00000000000E+00 0.  1.
         21    1    1    2  502  501 -0.53981282887E+01  0.18167954959E+01  0.71917911300E+01  0.91740064614E+01  0.00000000000E+00 0.  1.
<mgrwt>
<rscale>  1 0.63134113E+03</rscale>
<asrwt>0</asrwt>
<pdfrwt beam="1">  1        1 0.39247233E+00 0.63134113E+03</pdfrwt>
<pdfrwt beam="2">0</pdfrwt>
<totfact> 0.14502385E+00</totfact>
</mgrwt>
</event>
<event>
 6    1  0.3609478E-003  0.6512237E+03  0.7818608E-02  0.9804486E-01
          1   -1    0    0  502    0  0.00000000000E+00  0.00000000000E+00  0.11346801364E+03  0.11346801364E+03  0.00000000000E+00 0.  1.
         13   -1    0    0    0    0 -0.00000000000E+00 -0.00000000000E+00 -0.10000000000E+04  0.10000000000E+04  0.00000000000E+00 0.  1.
    9000005    2    1    2  501    0  0.31923847518E+00  0.62922130991E-01 -0.89397297694E+03  0.11060199123E+04  0.65122366134E+03 0.  0.
         13    1    3    3    0    0  0.11962435201E+03  0.21368409271E+03 -0.81176610145E+03  0.84790039541E+03  0.00000000000E+00 0.  1.
          1    1    3    3  501    0 -0.11930511353E+03 -0.21362117058E+03 -0.82206875486E+02  0.25811951691E+03  0.00000000000E+00 0.  1.
         21    1    1    2  502  501 -0.31923847518E+00 -0.62922130991E-01  0.74409905754E+01  0.74481013112E+01  0.00000000000E+00 0. -1.
<mgrwt>
<rscale>  1 0.65122374E+03</rscale>
<asrwt>0</asrwt>
<pdfrwt beam="1">  1        1 0.41261183E+00 0.65122374E+03</pdfrwt>
<pdfrwt beam="2">0</pdfrwt>
<totfact> 0.11746197E+00</totfact>
</mgrwt>
</event>
<event>
 6    1  0.3609478E-003  0.6631134E+03  0.7818608E-02  0.9782479E-01
          1   -1    0    0  502    0  0.00000000000E+00  0.00000000000E+00  0.14532554394E+03  0.14532554394E+03  0.00000000000E+00 0.  1.
         13   -1    0    0    0    0 -0.00000000000E+00 -0.00000000000E+00 -0.10000000000E+04  0.10000000000E+04  0.00000000000E+00 0.  1.
    9000005    2    1    2  501    0  0.48834838582E+01 -0.30872986156E+01 -0.88980828597E+03  0.11097198445E+04  0.66308820508E+03 0.  0.
         13    1    3    3    0    0  0.12531669855E+03 -0.83354496293E+02 -0.94344150787E+03  0.95537119789E+03  0.00000000000E+00 0.  1.
          3    1    3    3  501    0 -0.12043321469E+03  0.80267197678E+02  0.53633221905E+02  0.15434864663E+03  0.00000000000E+00 0.  1.
         21    1    1    2  502  501 -0.48834838582E+01  0.30872986156E+01  0.35133829908E+02  0.35605699423E+02  0.00000000000E+00 0.  1.
<mgrwt>
<rscale>  1 0.66311337E+03</rscale>
<asrwt>0</asrwt>
<pdfrwt beam="1">  1        1 0.52845764E+00 0.66311337E+03</pdfrwt>
<pdfrwt beam="2">0</pdfrwt>
<totfact> 0.33478485E-01</totfact>
</mgrwt>
</event>
<event>
 6    1  0.3609478E-003  0.6408725E+03  0.7818608E-02  0.9824059E-01
          1   -1    0    0  502    0  0.00000000000E+00  0.00000000000E+00  0.10271214309E+03  0.10271214309E+03  0.00000000000E+00 0.  1.
         13   -1    0    0    0    0 -0.00000000000E+00 -0.00000000000E+00 -0.10000000000E+04  0.10000000000E+04  0.00000000000E+00 0.  1.
    9000005    2    1    2  501    0  0.50227272762E-02  0.38262289092E-02 -0.89732028556E+03  0.11026791055E+04  0.64087246368E+03 0.  0.
         13    1    3    3    0    0 -0.98786447423E+02 -0.28037409679E+03 -0.65447712946E+03  0.71882453306E+03  0.00000000000E+00 0.  1.
          3    1    3    3  501    0  0.98791470150E+02  0.28037792301E+03 -0.24284315610E+03  0.38385457240E+03  0.00000000000E+00 0.  1.
         21    1    1    2  502  501 -0.50227272762E-02 -0.38262289092E-02  0.32428645062E-01  0.33037627601E-01  0.00000000000E+00 0. -1.
<mgrwt>
<rscale>  1 0.64087246E+03</rscale>
<asrwt>0</asrwt>
<pdfrwt beam="1">  1        1 0.37349949E+00 0.64087246E+03</pdfrwt>
<pdfrwt beam="2">0</pdfrwt>
<totfact> 0.17557635E+00</totfact>
</mgrwt>
</event>
<event>
 6    1  0.3609478E-003  0.6566941E+03  0.7818608E-02  0.9794299E-01
          1   -1    0    0  502    0  0.00000000000E+00  0.00000000000E+00  0.10781180096E+03  0.10781180096E+03  0.00000000000E+00 0.  1.
         13   -1    0    0    0    0 -0.00000000000E+00 -0.00000000000E+00 -0.10000000000E+04  0.10000000000E+04  0.00000000000E+00 0.  1.
    9000005    2    1    2  501    0 -0.94355680460E-05  0.11572157689E-04 -0.89218820011E+03  0.11078117860E+04  0.65669412116E+03 0.  0.
         13    1    3    3    0    0  0.14075305809E+03 -0.29250417478E+03 -0.52945193962E+03  0.62103902614E+03  0.00000000000E+00 0.  1.
          1    1    3    3  501    0 -0.14075306753E+03  0.29250418636E+03 -0.36273626049E+03  0.48677275984E+03  0.00000000000E+00 0.  1.
         21    1    1    2  502  501  0.94355680370E-05 -0.11572157715E-04  0.10664094304E-05  0.14969368973E-04  0.00000000000E+00 0. -1.
<mgrwt>
<rscale>  1 0.65669412E+03</rscale>
<asrwt>0</asrwt>
<pdfrwt beam="1">  1        1 0.39204374E+00 0.65669412E+03</pdfrwt>
<pdfrwt beam="2">0</pdfrwt>
<totfact> 0.14496415E+00</totfact>
</mgrwt>
</event>
<event>
 6    1  0.3609478E-003  0.6456065E+03  0.7818608E-02  0.9815058E-01
          1   -1    0    0  502    0  0.00000000000E+00  0.00000000000E+00  0.10472456805E+03  0.10472456805E+03  0.00000000000E+00 0.  1.
         13   -1    0    0    0    0 -0.00000000000E+00 -0.00000000000E+00 -0.10000000000E+04  0.10000000000E+04  0.00000000000E+00 0.  1.
    9000005    2    1    2  501    0  0.91805775725E-01 -0.28436172228E-01 -0.89579319458E+03  0.11041979609E+04  0.64560644378E+03 0.  0.
         13    1    3    3    0    0  0.25076715713E+03 -0.54505875801E+02 -0.78297892891E+03  0.82396059415E+03  0.00000000000E+00 0.  1.
          1    1    3    3  501    0 -0.25067535136E+03  0.54477439629E+02 -0.11281426567E+03  0.28023736679E+03  0.00000000000E+00 0.  1.
         21    1    1    2  502  501 -0.91805775725E-01  0.28436172228E-01  0.51776262880E+00  0.52660711743E+00  0.00000000000E+00 0. -1.
<mgrwt>
<rscale>  1 0.64560645E+03</rscale>
<asrwt>0</asrwt>
<pdfrwt beam="1">  1        1 0.38081741E+00 0.64560645E+03</pdfrwt>
<pdfrwt beam="2">0</pdfrwt>
<totfact> 0.16287139E+00</totfact>
</mgrwt>
</event>
<event>
 6    1  0.3609478E-003  0.6353449E+03  0.7818608E-02  0.9834674E-01
          1   -1    0    0  502    0  0.00000000000E+00  0.00000000000E+00  0.10200307253E+03  0.10200307253E+03  0.00000000000E+00 0.  1.
         13   -1    0    0    0    0 -0.00000000000E+00 -0.00000000000E+00 -0.10000000000E+04  0.10000000000E+04  0.00000000000E+00 0.  1.
    9000005    2    1    2  501    0  0.10752290089E+01  0.18124785607E+01 -0.89782635133E+03  0.10998887660E+04  0.63534140366E+03 0.  0.
         13    1    3    3    0    0 -0.31555065879E+03  0.22865115261E+02 -0.48775696476E+03  0.58137929825E+03  0.00000000000E+00 0.  1.
          3    1    3    3  501    0  0.31662588780E+03 -0.21052636701E+02 -0.41006938657E+03  0.51850946774E+03  0.00000000000E+00 0.  1.
         21    1    1    2  502  501 -0.10752290089E+01 -0.18124785607E+01 -0.17057613740E+00  0.21143065467E+01  0.00000000000E+00 0. -1.
<mgrwt>
<rscale>  1 0.63534490E+03</rscale>
<asrwt>0</asrwt>
<pdfrwt beam="1">  1        1 0.37092105E+00 0.63534490E+03</pdfrwt>
<pdfrwt beam="2">0</pdfrwt>
<totfact> 0.18040135E+00</totfact>
</mgrwt>
</event>
<event>
 6    1  0.3609478E-003  0.6488102E+03  0.7818608E-02  0.9809014E-01
          1   -1    0    0  502    0  0.00000000000E+00  0.00000000000E+00  0.10524425221E+03  0.10524425221E+03  0.00000000000E+00 0.  1.
         13   -1    0    0    0    0 -0.00000000000E+00 -0.00000000000E+00 -0.10000000000E+04  0.10000000000E+04  0.00000000000E+00 0.  1.
    9000005    2    1    2  501    0 -0.93215439776E-02  0.59263267991E-02 -0.89475450693E+03  0.11052331368E+04  0.64881018712E+03 0.  0.
         13    1    3    3    0    0 -0.29021392202E+03 -0.88206159778E+02 -0.64336614601E+03  0.71128366000E+03  0.00000000000E+00 0.  1.
          1    1    3    3  501    0  0.29020460047E+03  0.88212086104E+02 -0.25138836092E+03  0.39394947680E+03  0.00000000000E+00 0.  1.
         21    1    1    2  502  501  0.93215439776E-02 -0.59263267991E-02 -0.12408589294E-02  0.11115406531E-01  0.00000000000E+00 0.  1.
<mgrwt>
<rscale>  1 0.64881019E+03</rscale>
<asrwt>0</asrwt>
<pdfrwt beam="1">  1        1 0.38270718E+00 0.64881019E+03</pdfrwt>
<pdfrwt beam="2">0</pdfrwt>
<totfact> 0.15967736E+00</totfact>
</mgrwt>
</event>
<event>
 6    1  0.3609478E-003  0.6660402E+03  0.7818608E-02  0.9777138E-01
          1   -1    0    0  502    0  0.00000000000E+00  0.00000000000E+00  0.11201156055E+03  0.11201156055E+03  0.00000000000E+00 0.  1.
         13   -1    0    0    0    0 -0.00000000000E+00 -0.00000000000E+00 -0.10000000000E+04  0.10000000000E+04  0.00000000000E+00 0.  1.
    9000005    2    1    2  501    0 -0.31842000153E-01 -0.73764773604E-02 -0.88909733548E+03  0.11109021829E+04  0.66604022925E+03 0.  0.
         13    1    3    3    0    0 -0.22156846598E+03 -0.23295925180E+03 -0.29965311235E+03  0.43949355610E+03  0.00000000000E+00 0.  1.
          3    1    3    3  501    0  0.22153662398E+03  0.23295187532E+03 -0.58944422313E+03  0.67140862681E+03  0.00000000000E+00 0.  1.
         21    1    1    2  502  501  0.31842000153E-01  0.73764773604E-02  0.11088960351E+01  0.11093776372E+01  0.00000000000E+00 0. -1.
<mgrwt>
<rscale>  1 0.66604023E+03</rscale>
<asrwt>0</asrwt>
<pdfrwt beam="1">  1        1 0.40731562E+00 0.66604023E+03</pdfrwt>
<pdfrwt beam="2">0</pdfrwt>
<totfact> 0.12371168E+00</totfact>
</mgrwt>
</event>
<event>
 6    1  0.3609478E-003  0.6453222E+03  0.7818608E-02  0.9815596E-01
          1   -1    0    0  502    0  0.00000000000E+00  0.00000000000E+00  0.10418846093E+03  0.10418846093E+03  0.00000000000E+00 0.  1.
         13   -1    0    0    0    0 -0.00000000000E+00 -0.00000000000E+00 -0.10000000000E+04  0.10000000000E+04  0.00000000000E+00 0.  1.
    9000005    2    1    2  501    0 -0.54034329423E-04  0.15682260679E-02 -0.89588979527E+03  0.11041101890E+04  0.64532223284E+03 0.  0.
         13    1    3    3    0    0 -0.28330943822E+03 -0.14498428393E+03 -0.35700163485E+03  0.47826232097E+03  0.00000000000E+00 0.  1.
          3    1    3    3  501    0  0.28330938418E+03  0.14498585216E+03 -0.53888816042E+03  0.62584786804E+03  0.00000000000E+00 0.  1.
         21    1    1    2  502  501  0.54034329448E-04 -0.15682260679E-02  0.78256196263E-01  0.78271926680E-01  0.00000000000E+00 0.  1.
<mgrwt>
<rscale>  1 0.64532223E+03</rscale>
<asrwt>0</asrwt>
<pdfrwt beam="1">  1        1 0.37886793E+00 0.64532223E+03</pdfrwt>
<pdfrwt beam="2">0</pdfrwt>
<totfact> 0.16613770E+00</totfact>
</mgrwt>
</event>
<event>
 6    1  0.3609478E-003  0.6566058E+03  0.7818608E-02  0.9794462E-01
          1   -1    0    0  502    0  0.00000000000E+00  0.00000000000E+00  0.11044172200E+03  0.11044172200E+03  0.00000000000E+00 0.  1.
         13   -1    0    0    0    0 -0.00000000000E+00 -0.00000000000E+00 -0.10000000000E+04  0.10000000000E+04  0.00000000000E+00 0.  1.
    9000005    2    1    2  501    0  0.15197126322E-01  0.70361842189E-01 -0.89221667989E+03  0.11077823457E+04  0.65660575413E+03 0.  0.
         13    1    3    3    0    0 -0.12987550433E+03  0.15854303126E+03 -0.87886478596E+03  0.90244492984E+03  0.00000000000E+00 0.  1.
          3    1    3    3  501    0  0.12989070146E+03 -0.15847266942E+03 -0.13351893931E+02  0.20533741585E+03  0.00000000000E+00 0.  1.
         21    1    1    2  502  501 -0.15197126322E-01 -0.70361842189E-01  0.26584018955E+01  0.26593763140E+01  0.00000000000E+00 0. -1.
<mgrwt>
<rscale>  1 0.65660576E+03</rscale>
<asrwt>0</asrwt>
<pdfrwt beam="1">  1        1 0.40160711E+00 0.65660576E+03</pdfrwt>
<pdfrwt beam="2">0</pdfrwt>
<totfact> 0.13143262E+00</totfact>
</mgrwt>
</event>
<event>
 6    1  0.3609478E-003  0.6478809E+03  0.7818608E-02  0.9810764E-01
          1   -1    0    0  502    0  0.00000000000E+00  0.00000000000E+00  0.10500747034E+03  0.10500747034E+03  0.00000000000E+00 0.  1.
         13   -1    0    0    0    0 -0.00000000000E+00 -0.00000000000E+00 -0.10000000000E+04  0.10000000000E+04  0.00000000000E+00 0.  1.
    9000005    2    1    2  501    0 -0.28190150355E-02  0.78909982120E-02 -0.89506230067E+03  0.11049371980E+04  0.64788092213E+03 0.  0.
         13    1    3    3    0    0 -0.81444386369E+02 -0.23815664820E+03 -0.79530835874E+03  0.83418652748E+03  0.00000000000E+00 0.  1.
          1    1    3    3  501    0  0.81441567354E+02  0.23816453920E+03 -0.99753941932E+02  0.27075067047E+03  0.00000000000E+00 0.  1.
         21    1    1    2  502  501  0.28190150355E-02 -0.78909982119E-02  0.69771009814E-01  0.70272387955E-01  0.00000000000E+00 0.  1.
<mgrwt>
<rscale>  1 0.64788092E+03</rscale>
<asrwt>0</asrwt>
<pdfrwt beam="1">  1        1 0.38184615E+00 0.64788092E+03</pdfrwt>
<pdfrwt beam="2">0</pdfrwt>
<totfact> 0.16110944E+00</totfact>
</mgrwt>
</event>
<event>
 6    1  0.3609478E-003  0.6486431E+03  0.7818608E-02  0.9809329E-01
          1   -1    0    0  502    0  0.00000000000E+00  0.00000000000E+00  0.10518524669E+03  0.10518524669E+03  0.00000000000E+00 0.  1.
         13   -1    0    0    0    0 -0.00000000000E+00 -0.00000000000E+00 -0.10000000000E+04  0.10000000000E+04  0.00000000000E+00 0.  1.
    9000005    2    1    2  501    0  0.54326646591E-04 -0.40835576865E-04 -0.89481553350E+03  0.11051844636E+04  0.64864309099E+03 0.  0.
         13    1    3    3    0    0 -0.26812008198E+03 -0.20690448400E+02 -0.13850947241E+03  0.30249189570E+03  0.00000000000E+00 0.  1.
          1    1    3    3  501    0  0.26812013630E+03  0.20690407564E+02 -0.75630606108E+03  0.80269256785E+03  0.00000000000E+00 0.  1.
         21    1    1    2  502  501 -0.54326646605E-04  0.40835576866E-04  0.78018685638E-03  0.78314140468E-03  0.00000000000E+00 0.  1.
<mgrwt>
<rscale>  1 0.64864309E+03</rscale>
<asrwt>0</asrwt>
<pdfrwt beam="1">  1        1 0.38249261E+00 0.64864309E+03</pdfrwt>
<pdfrwt beam="2">0</pdfrwt>
<totfact> 0.16003119E+00</totfact>
</mgrwt>
</event>
<event>
 6    1  0.3609478E-003  0.6502998E+03  0.7818608E-02  0.9806217E-01
          1   -1    0    0  502    0  0.00000000000E+00  0.00000000000E+00  0.13520923946E+03  0.13520923946E+03  0.00000000000E+00 0.  1.
         13   -1    0    0    0    0 -0.00000000000E+00 -0.00000000000E+00 -0.10000000000E+04  0.10000000000E+04  0.00000000000E+00 0.  1.
    9000005    2    1    2  501    0  0.33692827796E+00  0.64517727377E+00 -0.89427258794E+03  0.11057184287E+04  0.65029935581E+03 0.  0.
         13    1    3    3    0    0 -0.29931780548E+03  0.79927809644E+02 -0.61443590296E+03  0.68812141536E+03  0.00000000000E+00 0.  1.
          1    1    3    3  501    0  0.29965473376E+03 -0.79282632370E+02 -0.27983668499E+03  0.41759701331E+03  0.00000000000E+00 0.  1.
         21    1    1    2  502  501 -0.33692827796E+00 -0.64517727377E+00  0.29481827408E+02  0.29490810801E+02  0.00000000000E+00 0.  1.
<mgrwt>
<rscale>  1 0.65029976E+03</rscale>
<asrwt>0</asrwt>
<pdfrwt beam="1">  1        1 0.49167100E+00 0.65029976E+03</pdfrwt>
<pdfrwt beam="2">0</pdfrwt>
<totfact> 0.50681784E-01</totfact>
</mgrwt>
</event>
<event>
 6    1  0.3609478E-003  0.6410531E+03  0.7818608E-02  0.9823714E-01
          1   -1    0    0  502    0  0.00000000000E+00  0.00000000000E+00  0.10349483366E+03  0.10349483366E+03  0.00000000000E+00 0.  1.
         13   -1    0    0    0    0 -0.00000000000E+00 -0.00000000000E+00 -0.10000000000E+04  0.10000000000E+04  0.00000000000E+00 0.  1.
    9000005    2    1    2  501    0 -0.16996384958E+01  0.44103839045E+00 -0.89591792163E+03  0.11016433094E+04  0.64105068090E+03 0.  0.
         13    1    3    3    0    0  0.15189542827E+03 -0.52892485789E+02  0.28231643390E+02  0.16329991387E+03  0.00000000000E+00 0.  1.
          1    1    3    3  501    0 -0.15359506677E+03  0.53333524179E+02 -0.92414956502E+03  0.93834339549E+03  0.00000000000E+00 0.  1.
         21    1    1    2  502  501  0.16996384958E+01 -0.44103839045E+00 -0.58724470493E+00  0.18515242968E+01  0.00000000000E+00 0. -1.
<mgrwt>
<rscale>  1 0.64105309E+03</rscale>
<asrwt>0</asrwt>
<pdfrwt beam="1">  1        1 0.37634564E+00 0.64105309E+03</pdfrwt>
<pdfrwt beam="2">0</pdfrwt>
<totfact> 0.17057854E+00</totfact>
</mgrwt>
</event>
<event>
 6    1  0.3609478E-003  0.6494250E+03  0.7818608E-02  0.9807859E-01
          1   -1    0    0  502    0  0.00000000000E+00  0.00000000000E+00  0.12333841751E+03  0.12333841751E+03  0.00000000000E+00 0.  1.
         13   -1    0    0    0    0 -0.00000000000E+00 -0.00000000000E+00 -0.10000000000E+04  0.10000000000E+04  0.00000000000E+00 0.  1.
    9000005    2    1    2  501    0 -0.87375739193E+00  0.91567701075E+00 -0.89453706521E+03  0.11054181832E+04  0.64942374205E+03 0.  0.
         13    1    3    3    0    0  0.60141483149E+02  0.25142041144E+03 -0.78286734591E+03  0.82444557284E+03  0.00000000000E+00 0.  1.
          1    1    3    3  501    0 -0.61015240541E+02 -0.25050473443E+03 -0.11166971930E+03  0.28097261033E+03  0.00000000000E+00 0.  1.
         21    1    1    2  502  501  0.87375739193E+00 -0.91567701075E+00  0.17875482716E+02  0.17920234337E+02  0.00000000000E+00 0. -1.
<mgrwt>
<rscale>  1 0.64942498E+03</rscale>
<asrwt>0</asrwt>
<pdfrwt beam="1">  1        1 0.44850428E+00 0.64942498E+03</pdfrwt>
<pdfrwt beam="2">0</pdfrwt>
<totfact> 0.80726796E-01</totfact>
</mgrwt>
</event>
<event>
 6    1  0.3609478E-003  0.6534035E+03  0.7818608E-02  0.9800414E-01
          1   -1    0    0  502    0  0.00000000000E+00  0.00000000000E+00  0.10740566609E+03  0.10740566609E+03  0.00000000000E+00 0.  1.
         13   -1    0    0    0    0 -0.00000000000E+00 -0.00000000000E+00 -0.10000000000E+04  0.10000000000E+04  0.00000000000E+00 0.  1.
    9000005    2    1    2  501    0  0.17640774730E-01 -0.11611828954E-01 -0.89326577831E+03  0.11067338896E+04  0.65340351339E+03 0.  0.
         13    1    3    3    0    0  0.23535715360E+03 -0.11685593062E+03 -0.77548241887E+03  0.81879257462E+03  0.00000000000E+00 0.  1.
          3    1    3    3  501    0 -0.23533951282E+03  0.11684431879E+03 -0.11778335944E+03  0.28794131501E+03  0.00000000000E+00 0.  1.
         21    1    1    2  502  501 -0.17640774730E-01  0.11611828954E-01  0.67144439517E+00  0.67177645635E+00  0.00000000000E+00 0. -1.
<mgrwt>
<rscale>  1 0.65340351E+03</rscale>
<asrwt>0</asrwt>
<pdfrwt beam="1">  1        1 0.39056688E+00 0.65340351E+03</pdfrwt>
<pdfrwt beam="2">0</pdfrwt>
<totfact> 0.14725841E+00</totfact>
</mgrwt>
</event>
<event>
 6    1  0.4418434E-003  0.6531912E+03  0.7818608E-02  0.9800809E-01
          1   -1    0    0  502    0  0.00000000000E+00  0.00000000000E+00  0.10666470592E+03  0.10666470592E+03  0.00000000000E+00 0.  1.
         13   -1    0    0    0    0 -0.00000000000E+00 -0.00000000000E+00 -0.10000000000E+04  0.10000000000E+04  0.00000000000E+00 0.  1.
    9000005    2    1    2  501    0  0.75032619407E-06  0.18947954004E-04 -0.89333529051E+03  0.11066646866E+04  0.65319123337E+03 0.  0.
         13    1    3    3    0    0 -0.27933091000E+03 -0.16876770106E+03 -0.46785578684E+03  0.57043608887E+03  0.00000000000E+00 0.  1.
          3    1    3    3  501    0  0.27933091075E+03  0.16876772001E+03 -0.42547950367E+03  0.53622859776E+03  0.00000000000E+00 0.  1.
         21    1    1    2  502  501 -0.75032616186E-06 -0.18947954006E-04 -0.35668793236E-05  0.19295351214E-04  0.00000000000E+00 0. -1.
<mgrwt>
<rscale>  1 0.65319123E+03</rscale>
<asrwt>0</asrwt>
<pdfrwt beam="1">  1        1 0.38787248E+00 0.65319123E+03</pdfrwt>
<pdfrwt beam="2">0</pdfrwt>
<totfact> 0.15137042E+00</totfact>
</mgrwt>
</event>
<event>
 6    1  0.3609478E-003  0.6561576E+03  0.7818608E-02  0.9795293E-01
          1   -1    0    0  502    0  0.00000000000E+00  0.00000000000E+00  0.10803600169E+03  0.10803600169E+03  0.00000000000E+00 0.  1.
         13   -1    0    0    0    0 -0.00000000000E+00 -0.00000000000E+00 -0.10000000000E+04  0.10000000000E+04  0.00000000000E+00 0.  1.
    9000005    2    1    2  501    0  0.26993026607E+00 -0.17845112617E+00 -0.89229054175E+03  0.11075762868E+04  0.65615753862E+03 0.  0.
         13    1    3    3    0    0 -0.12260684150E+02 -0.32683878754E+03 -0.40106821661E+03  0.51752259061E+03  0.00000000000E+00 0.  1.
          3    1    3    3  501    0  0.12530614416E+02  0.32666033641E+03 -0.49122232514E+03  0.59005369620E+03  0.00000000000E+00 0.  1.
         21    1    1    2  502  501 -0.26993026607E+00  0.17845112617E+00  0.32654343801E+00  0.45971487890E+00  0.00000000000E+00 0.  1.
<mgrwt>
<rscale>  1 0.65615762E+03</rscale>
<asrwt>0</asrwt>
<pdfrwt beam="1">  1        1 0.39285902E+00 0.65615762E+03</pdfrwt>
<pdfrwt beam="2">0</pdfrwt>
<totfact> 0.14377509E+00</totfact>
</mgrwt>
</event>
<event>
 6    1  0.3609478E-003  0.6640840E+03  0.7818608E-02  0.9780705E-01
          1   -1    0    0  502    0  0.00000000000E+00  0.00000000000E+00  0.11025227331E+03  0.11025227331E+03  0.00000000000E+00 0.  1.
         13   -1    0    0    0    0 -0.00000000000E+00 -0.00000000000E+00 -0.10000000000E+04  0.10000000000E+04  0.00000000000E+00 0.  1.
    9000005    2    1    2  501    0  0.70187417151E-04  0.26515125671E-03 -0.88974804246E+03  0.11102518550E+04  0.66408403277E+03 0.  0.
         13    1    3    3    0    0  0.20883969597E+03  0.22016505777E+03 -0.67020456740E+03  0.73570431115E+03  0.00000000000E+00 0.  1.
          3    1    3    3  501    0 -0.20883962578E+03 -0.22016479262E+03 -0.21954347506E+03  0.37454754390E+03  0.00000000000E+00 0.  1.
         21    1    1    2  502  501 -0.70187417160E-04 -0.26515125673E-03  0.31577585916E-03  0.41826529345E-03  0.00000000000E+00 0. -1.
<mgrwt>
<rscale>  1 0.66408403E+03</rscale>
<asrwt>0</asrwt>
<pdfrwt beam="1">  1        1 0.40091820E+00 0.66408403E+03</pdfrwt>
<pdfrwt beam="2">0</pdfrwt>
<totfact> 0.13218006E+00</totfact>
</mgrwt>
</event>
<event>
 6    1  0.3609478E-003  0.6476373E+03  0.7818608E-02  0.9811223E-01
          1   -1    0    0  502    0  0.00000000000E+00  0.00000000000E+00  0.10495616551E+03  0.10495616551E+03  0.00000000000E+00 0.  1.
         13   -1    0    0    0    0 -0.00000000000E+00 -0.00000000000E+00 -0.10000000000E+04  0.10000000000E+04  0.00000000000E+00 0.  1.
    9000005    2    1    2  501    0 -0.76699324349E-02  0.10930722973E-02 -0.89514131558E+03  0.11048583770E+04  0.64763728921E+03 0.  0.
         13    1    3    3    0    0 -0.15318749788E+03  0.57505803229E+02  0.29145784557E+02  0.16620109407E+03  0.00000000000E+00 0.  1.
          1    1    3    3  501    0  0.15317982795E+03 -0.57504710157E+02 -0.92428710014E+03  0.93865728297E+03  0.00000000000E+00 0.  1.
         21    1    1    2  502  501  0.76699324349E-02 -0.10930722973E-02  0.97481096612E-01  0.97788480238E-01  0.00000000000E+00 0. -1.
<mgrwt>
<rscale>  1 0.64763729E+03</rscale>
<asrwt>0</asrwt>
<pdfrwt beam="1">  1        1 0.38165959E+00 0.64763729E+03</pdfrwt>
<pdfrwt beam="2">0</pdfrwt>
<totfact> 0.16142260E+00</totfact>
</mgrwt>
</event>
<event>
 6    1  0.3609478E-003  0.6711392E+03  0.7818608E-02  0.9767902E-01
          1   -1    0    0  502    0  0.00000000000E+00  0.00000000000E+00  0.12712813247E+03  0.12712813247E+03  0.00000000000E+00 0.  1.
         13   -1    0    0    0    0 -0.00000000000E+00 -0.00000000000E+00 -0.10000000000E+04  0.10000000000E+04  0.00000000000E+00 0.  1.
    9000005    2    1    2  501    0  0.15258285949E+01 -0.50072082294E+00 -0.88734361563E+03  0.11125675567E+04  0.67113731613E+03 0.  0.
         13    1    3    3    0    0 -0.62668665952E+02  0.32639352922E+03 -0.51516394555E+03  0.61306931779E+03  0.00000000000E+00 0.  1.
          1    1    3    3  501    0  0.64194494547E+02 -0.32689425004E+03 -0.37217967008E+03  0.49949823890E+03  0.00000000000E+00 0.  1.
         21    1    1    2  502  501 -0.15258285949E+01  0.50072082294E+00  0.14471748104E+02  0.14560575793E+02  0.00000000000E+00 0.  1.
<mgrwt>
<rscale>  1 0.67113924E+03</rscale>
<asrwt>0</asrwt>
<pdfrwt beam="1">  1        1 0.46228509E+00 0.67113924E+03</pdfrwt>
<pdfrwt beam="2">0</pdfrwt>
<totfact> 0.69392053E-01</totfact>
</mgrwt>
</event>
<event>
 6    1  0.3609478E-003  0.6441852E+03  0.7818608E-02  0.9817752E-01
          1   -1    0    0  502    0  0.00000000000E+00  0.00000000000E+00  0.10408810167E+03  0.10408810167E+03  0.00000000000E+00 0.  1.
         13   -1    0    0    0    0 -0.00000000000E+00 -0.00000000000E+00 -0.10000000000E+04  0.10000000000E+04  0.00000000000E+00 0.  1.
    9000005    2    1    2  501    0  0.41623522560E-02  0.32912226992E-02 -0.89625634070E+03  0.11037436184E+04  0.64418518063E+03 0.  0.
         13    1    3    3    0    0 -0.94759442711E+02  0.51945012402E+02 -0.96801184984E+03  0.97402493691E+03  0.00000000000E+00 0.  1.
          1    1    3    3  501    0  0.94763605064E+02 -0.51941721180E+02  0.71755509137E+02  0.12971868152E+03  0.00000000000E+00 0.  1.
         21    1    1    2  502  501 -0.41623522561E-02 -0.32912226991E-02  0.34444237276E+00  0.34448324411E+00  0.00000000000E+00 0.  1.
<mgrwt>
<rscale>  1 0.64418518E+03</rscale>
<asrwt>0</asrwt>
<pdfrwt beam="1">  1        1 0.37850299E+00 0.64418518E+03</pdfrwt>
<pdfrwt beam="2">0</pdfrwt>
<totfact> 0.16678926E+00</totfact>
</mgrwt>
</event>
<event>
 6    1  0.3609478E-003  0.6504017E+03  0.7818608E-02  0.9806026E-01
          1   -1    0    0  502    0  0.00000000000E+00  0.00000000000E+00  0.11126927346E+03  0.11126927346E+03  0.00000000000E+00 0.  1.
         13   -1    0    0    0    0 -0.00000000000E+00 -0.00000000000E+00 -0.10000000000E+04  0.10000000000E+04  0.00000000000E+00 0.  1.
    9000005    2    1    2  501    0  0.79087792405E-02  0.16883941296E+00 -0.89424298947E+03  0.11057544197E+04  0.65040163278E+03 0.  0.
         13    1    3    3    0    0  0.16957857865E+03 -0.16862690073E+03 -0.82161542246E+03  0.85571246831E+03  0.00000000000E+00 0.  1.
          1    1    3    3  501    0 -0.16957066987E+03  0.16879574014E+03 -0.72627567007E+02  0.25004195140E+03  0.00000000000E+00 0.  1.
         21    1    1    2  502  501 -0.79087792405E-02 -0.16883941296E+00  0.55122629247E+01  0.55148537466E+01  0.00000000000E+00 0. -1.
<mgrwt>
<rscale>  1 0.65040165E+03</rscale>
<asrwt>0</asrwt>
<pdfrwt beam="1">  1        1 0.40461639E+00 0.65040165E+03</pdfrwt>
<pdfrwt beam="2">0</pdfrwt>
<totfact> 0.12757886E+00</totfact>
</mgrwt>
</event>
<event>
 6    1  0.3609478E-003  0.6881462E+03  0.7818608E-02  0.9737721E-01
          1   -1    0    0  502    0  0.00000000000E+00  0.00000000000E+00  0.11838634050E+03  0.11838634050E+03  0.00000000000E+00 0.  1.
         13   -1    0    0    0    0 -0.00000000000E+00 -0.00000000000E+00 -0.10000000000E+04  0.10000000000E+04  0.00000000000E+00 0.  1.
    9000005    2    1    2  501    0 -0.10679943728E-04  0.27370942327E-04 -0.88161370562E+03  0.11183862858E+04  0.68814617513E+03 0.  0.
         13    1    3    3    0    0 -0.27448927001E+03 -0.62963461458E+01 -0.77782782427E+03  0.82486370240E+03  0.00000000000E+00 0.  1.
          1    1    3    3  501    0  0.27448925933E+03  0.62963735167E+01 -0.10378588136E+03  0.29352258342E+03  0.00000000000E+00 0.  1.
         21    1    1    2  502  501  0.10679943693E-04 -0.27370942327E-04  0.46124299555E-04  0.54687116313E-04  0.00000000000E+00 0.  1.
<mgrwt>
<rscale>  1 0.68814618E+03</rscale>
<asrwt>0</asrwt>
<pdfrwt beam="1">  1        1 0.43049669E+00 0.68814618E+03</pdfrwt>
<pdfrwt beam="2">0</pdfrwt>
<totfact> 0.96827729E-01</totfact>
</mgrwt>
</event>
<event>
 6    1  0.3609478E-003  0.6500057E+03  0.7818608E-02  0.9806769E-01
          1   -1    0    0  502    0  0.00000000000E+00  0.00000000000E+00  0.10562686101E+03  0.10562686101E+03  0.00000000000E+00 0.  1.
         13   -1    0    0    0    0 -0.00000000000E+00 -0.00000000000E+00 -0.10000000000E+04  0.10000000000E+04  0.00000000000E+00 0.  1.
    9000005    2    1    2  501    0  0.28239752908E-04 -0.15160051873E-04 -0.89437307500E+03  0.11056267895E+04  0.65000569249E+03 0.  0.
         13    1    3    3    0    0 -0.29086174253E+03 -0.12202477586E+03 -0.31394403974E+03  0.44502972853E+03  0.00000000000E+00 0.  1.
          3    1    3    3  501    0  0.29086177077E+03  0.12202476070E+03 -0.58042903526E+03  0.66059706092E+03  0.00000000000E+00 0.  1.
         21    1    1    2  502  501 -0.28239752924E-04  0.15160051871E-04 -0.63980788594E-04  0.71560129451E-04  0.00000000000E+00 0. -1.
<mgrwt>
<rscale>  1 0.65000569E+03</rscale>
<asrwt>0</asrwt>
<pdfrwt beam="1">  1        1 0.38409849E+00 0.65000569E+03</pdfrwt>
<pdfrwt beam="2">0</pdfrwt>
<totfact> 0.15739773E+00</totfact>
</mgrwt>
</event>
<event>
 6    1  0.3609478E-003  0.6586385E+03  0.7818608E-02  0.9790703E-01
          1   -1    0    0  502    0  0.00000000000E+00  0.00000000000E+00  0.10853298513E+03  0.10853298513E+03  0.00000000000E+00 0.  1.
         13   -1    0    0    0    0 -0.00000000000E+00 -0.00000000000E+00 -0.10000000000E+04  0.10000000000E+04  0.00000000000E+00 0.  1.
    9000005    2    1    2  501    0  0.19630386137E-01  0.17338780789E-01 -0.89154649356E+03  0.11084493021E+04  0.65863852338E+03 0.  0.
         13    1    3    3    0    0  0.15441846866E+03  0.28413098661E+03 -0.55066868985E+03  0.63860119558E+03  0.00000000000E+00 0.  1.
          3    1    3    3  501    0 -0.15439883828E+03 -0.28411364783E+03 -0.34087780372E+03  0.46984810653E+03  0.00000000000E+00 0.  1.
         21    1    1    2  502  501 -0.19630386137E-01 -0.17338780789E-01  0.79478691884E-01  0.83683020038E-01  0.00000000000E+00 0. -1.
<mgrwt>
<rscale>  1 0.65863852E+03</rscale>
<asrwt>0</asrwt>
<pdfrwt beam="1">  1        1 0.39466623E+00 0.65863852E+03</pdfrwt>
<pdfrwt beam="2">0</pdfrwt>
<totfact> 0.14107574E+00</totfact>
</mgrwt>
</event>
<event>
 6    1  0.3609478E-003  0.6466326E+03  0.7818608E-02  0.9813119E-01
          3   -1    0    0  502    0  0.00000000000E+00  0.00000000000E+00  0.10453367752E+03  0.10453367752E+03  0.00000000000E+00 0.  1.
         13   -1    0    0    0    0 -0.00000000000E+00 -0.00000000000E+00 -0.10000000000E+04  0.10000000000E+04  0.00000000000E+00 0.  1.
    9000005    2    1    2  501    0  0.50933057366E-04 -0.55735726221E-04 -0.89546657210E+03  0.11045334167E+04  0.64663257491E+03 0.  0.
         13    1    3    3    0    0 -0.15433119322E+03  0.25552524481E+03 -0.23560744303E+03  0.38029217077E+03  0.00000000000E+00 0.  1.
          1    1    3    3  501    0  0.15433124415E+03 -0.25552530055E+03 -0.65985912907E+03  0.72424124597E+03  0.00000000000E+00 0.  1.
         21    1    1    2  502  501 -0.50933057359E-04  0.55735726236E-04  0.24961634884E-03  0.26078529314E-03  0.00000000000E+00 0. -1.
<mgrwt>
<rscale>  1 0.64663257E+03</rscale>
<asrwt>0</asrwt>
<pdfrwt beam="1">  1        3 0.38012327E+00 0.64663257E+03</pdfrwt>
<pdfrwt beam="2">0</pdfrwt>
<totfact> 0.75408084E-02</totfact>
</mgrwt>
</event>
<event>
 6    1  0.3609478E-003  0.6527393E+03  0.7818608E-02  0.9801653E-01
          1   -1    0    0  502    0  0.00000000000E+00  0.00000000000E+00  0.10651716726E+03  0.10651716726E+03  0.00000000000E+00 0.  1.
         13   -1    0    0    0    0 -0.00000000000E+00 -0.00000000000E+00 -0.10000000000E+04  0.10000000000E+04  0.00000000000E+00 0.  1.
    9000005    2    1    2  501    0 -0.72456993507E-05 -0.12948679569E-05 -0.89348283660E+03  0.11065171589E+04  0.65273933829E+03 0.  0.
         13    1    3    3    0    0 -0.25130794215E+03 -0.15467303613E+03 -0.68308356764E+03  0.74409850845E+03  0.00000000000E+00 0.  1.
          3    1    3    3  501    0  0.25130793490E+03  0.15467303484E+03 -0.21039926896E+03  0.36241865050E+03  0.00000000000E+00 0.  1.
         21    1    1    2  502  501  0.72456993356E-05  0.12948679412E-05  0.38570807443E-05  0.83098684535E-05  0.00000000000E+00 0. -1.
<mgrwt>
<rscale>  1 0.65273934E+03</rscale>
<asrwt>0</asrwt>
<pdfrwt beam="1">  1        1 0.38733597E+00 0.65273934E+03</pdfrwt>
<pdfrwt beam="2">0</pdfrwt>
<totfact> 0.15221366E+00</totfact>
</mgrwt>
</event>
<event>
 6    1  0.3609478E-003  0.6486782E+03  0.7818608E-02  0.9809263E-01
          1   -1    0    0  502    0  0.00000000000E+00  0.00000000000E+00  0.10534118680E+03  0.10534118680E+03  0.00000000000E+00 0.  1.
         13   -1    0    0    0    0 -0.00000000000E+00 -0.00000000000E+00 -0.10000000000E+04  0.10000000000E+04  0.00000000000E+00 0.  1.
    9000005    2    1    2  501    0  0.21443422434E-02 -0.38133058998E-01 -0.89480138446E+03  0.11051935884E+04  0.64867815496E+03 0.  0.
         13    1    3    3    0    0 -0.13450145871E+03 -0.29331307580E+03 -0.39134105962E+03  0.50721891504E+03  0.00000000000E+00 0.  1.
          3    1    3    3  501    0  0.13450360305E+03  0.29327494274E+03 -0.50346032484E+03  0.59797467335E+03  0.00000000000E+00 0.  1.
         21    1    1    2  502  501 -0.21443422434E-02  0.38133058998E-01  0.14257125417E+00  0.14759841093E+00  0.00000000000E+00 0. -1.
<mgrwt>
<rscale>  1 0.64867816E+03</rscale>
<asrwt>0</asrwt>
<pdfrwt beam="1">  1        1 0.38305967E+00 0.64867816E+03</pdfrwt>
<pdfrwt beam="2">0</pdfrwt>
<totfact> 0.15910961E+00</totfact>
</mgrwt>
</event>
<event>
 6    1  0.3609478E-003  0.6585835E+03  0.7818608E-02  0.9790805E-01
          1   -1    0    0  502    0  0.00000000000E+00  0.00000000000E+00  0.11694744117E+03  0.11694744117E+03  0.00000000000E+00 0.  1.
         13   -1    0    0    0    0 -0.00000000000E+00 -0.00000000000E+00 -0.10000000000E+04  0.10000000000E+04  0.00000000000E+00 0.  1.
    9000005    2    1    2  501    0  0.19517718598E+02  0.10946973441E+02 -0.86958237711E+03  0.10908280353E+04  0.65820324710E+03 0.  0.
         13    1    3    3    0    0 -0.23662783498E+02 -0.28267094127E+03 -0.16951134039E+03  0.33044951639E+03  0.00000000000E+00 0.  1.
          3    1    3    3  501    0  0.43180502095E+02  0.29361791471E+03 -0.70007103671E+03  0.76037851893E+03  0.00000000000E+00 0.  1.
         21    1    1    2  502  501 -0.19517718598E+02 -0.10946973441E+02 -0.13470181720E+02  0.26119405858E+02  0.00000000000E+00 0.  1.
<mgrwt>
<rscale>  1 0.65858355E+03</rscale>
<asrwt>0</asrwt>
<pdfrwt beam="1">  1        1 0.42526432E+00 0.65858355E+03</pdfrwt>
<pdfrwt beam="2">0</pdfrwt>
<totfact> 0.10285719E+00</totfact>
</mgrwt>
</event>
<event>
 6    1  0.3609478E-003  0.6552918E+03  0.7818608E-02  0.9796900E-01
          1   -1    0    0  502    0  0.00000000000E+00  0.00000000000E+00  0.10920364510E+03  0.10920364510E+03  0.00000000000E+00 0.  1.
         13   -1    0    0    0    0 -0.00000000000E+00 -0.00000000000E+00 -0.10000000000E+04  0.10000000000E+04  0.00000000000E+00 0.  1.
    9000005    2    1    2  501    0  0.14187700831E+00  0.14489090849E+00 -0.89264202853E+03  0.11073468647E+04  0.65529172622E+03 0.  0.
         13    1    3    3    0    0  0.20154246768E+03 -0.25772601477E+03 -0.47562008984E+03  0.57728375590E+03  0.00000000000E+00 0.  1.
          1    1    3    3  501    0 -0.20140059068E+03  0.25787090568E+03 -0.41702193869E+03  0.53006310876E+03  0.00000000000E+00 0.  1.
         21    1    1    2  502  501 -0.14187700831E+00 -0.14489090849E+00  0.18456736334E+01  0.18567804452E+01  0.00000000000E+00 0. -1.
<mgrwt>
<rscale>  1 0.65529176E+03</rscale>
<asrwt>0</asrwt>
<pdfrwt beam="1">  1        1 0.39710500E+00 0.65529176E+03</pdfrwt>
<pdfrwt beam="2">0</pdfrwt>
<totfact> 0.13768137E+00</totfact>
</mgrwt>
</event>
<event>
 6    1  0.3609478E-003  0.6496009E+03  0.7818608E-02  0.9807528E-01
          1   -1    0    0  502    0  0.00000000000E+00  0.00000000000E+00  0.10551158597E+03  0.10551158597E+03  0.00000000000E+00 0.  1.
         13   -1    0    0    0    0 -0.00000000000E+00 -0.00000000000E+00 -0.10000000000E+04  0.10000000000E+04  0.00000000000E+00 0.  1.
    9000005    2    1    2  501    0  0.47717525553E-02  0.94966591492E-02 -0.89450273322E+03  0.11054937535E+04  0.64960087689E+03 0.  0.
         13    1    3    3    0    0  0.16790430719E+03  0.38070884859E+02  0.21454292270E+02  0.17349794034E+03  0.00000000000E+00 0.  1.
          1    1    3    3  501    0 -0.16789953543E+03 -0.38061388200E+02 -0.91595702549E+03  0.93199581320E+03  0.00000000000E+00 0.  1.
         21    1    1    2  502  501 -0.47717525553E-02 -0.94966591493E-02  0.14319194149E-01  0.17832427724E-01  0.00000000000E+00 0. -1.
<mgrwt>
<rscale>  1 0.64960088E+03</rscale>
<asrwt>0</asrwt>
<pdfrwt beam="1">  1        1 0.38367930E+00 0.64960088E+03</pdfrwt>
<pdfrwt beam="2">0</pdfrwt>
<totfact> 0.15808258E+00</totfact>
</mgrwt>
</event>
<event>
 6    1  0.3609478E-003  0.6583630E+03  0.7818608E-02  0.9791212E-01
          1   -1    0    0  502    0  0.00000000000E+00  0.00000000000E+00  0.10844968284E+03  0.10844968284E+03  0.00000000000E+00 0.  1.
         13   -1    0    0    0    0 -0.00000000000E+00 -0.00000000000E+00 -0.10000000000E+04  0.10000000000E+04  0.00000000000E+00 0.  1.
    9000005    2    1    2  501    0 -0.33530373501E-01  0.37584810210E-01 -0.89163157564E+03  0.11083540803E+04  0.65836304432E+03 0.  0.
         13    1    3    3    0    0 -0.76717201582E+02 -0.36776519584E+02  0.89533715450E+02  0.12350841110E+03  0.00000000000E+00 0.  1.
          3    1    3    3  501    0  0.76683671208E+02  0.36814104394E+02 -0.98116529109E+03  0.98484566920E+03  0.00000000000E+00 0.  1.
         21    1    1    2  502  501  0.33530373501E-01 -0.37584810210E-01  0.81258482960E-01  0.95602536361E-01  0.00000000000E+00 0. -1.
<mgrwt>
<rscale>  1 0.65836305E+03</rscale>
<asrwt>0</asrwt>
<pdfrwt beam="1">  1        1 0.39436331E+00 0.65836305E+03</pdfrwt>
<pdfrwt beam="2">0</pdfrwt>
<totfact> 0.14152112E+00</totfact>
</mgrwt>
</event>
<event>
 6    1  0.3609478E-003  0.6446730E+03  0.7818608E-02  0.9816827E-01
          1   -1    0    0  502    0  0.00000000000E+00  0.00000000000E+00  0.10390095421E+03  0.10390095421E+03  0.00000000000E+00 0.  1.
         13   -1    0    0    0    0 -0.00000000000E+00 -0.00000000000E+00 -0.10000000000E+04  0.10000000000E+04  0.00000000000E+00 0.  1.
    9000005    2    1    2  501    0  0.69841144153E-04  0.34618494993E-04 -0.89609917129E+03  0.11039008065E+04  0.64467299133E+03 0.  0.
         13    1    3    3    0    0 -0.23707790731E+03 -0.19909960519E+03 -0.60172408268E+03  0.67669672572E+03  0.00000000000E+00 0.  1.
          3    1    3    3  501    0  0.23707797715E+03  0.19909963981E+03 -0.29437508861E+03  0.42720408076E+03  0.00000000000E+00 0.  1.
         21    1    1    2  502  501 -0.69841144161E-04 -0.34618494991E-04  0.12549347966E-03  0.14773232229E-03  0.00000000000E+00 0. -1.
<mgrwt>
<rscale>  1 0.64467299E+03</rscale>
<asrwt>0</asrwt>
<pdfrwt beam="1">  1        1 0.37782245E+00 0.64467299E+03</pdfrwt>
<pdfrwt beam="2">0</pdfrwt>
<totfact> 0.16793034E+00</totfact>
</mgrwt>
</event>
<event>
 6    1  0.3609478E-003  0.6516191E+03  0.7818608E-02  0.9803746E-01
          1   -1    0    0  502    0  0.00000000000E+00  0.00000000000E+00  0.10620528465E+03  0.10620528465E+03  0.00000000000E+00 0.  1.
         13   -1    0    0    0    0 -0.00000000000E+00 -0.00000000000E+00 -0.10000000000E+04  0.10000000000E+04  0.00000000000E+00 0.  1.
    9000005    2    1    2  501    0  0.78919347867E-02 -0.41013830721E-01 -0.89383894099E+03  0.11061444544E+04  0.65161913703E+03 0.  0.
         13    1    3    3    0    0 -0.56839718859E+02 -0.11484388794E+03  0.61584498347E+02  0.14217075182E+03  0.00000000000E+00 0.  1.
          3    1    3    3  501    0  0.56847610794E+02  0.11480287411E+03 -0.95542343933E+03  0.96397370254E+03  0.00000000000E+00 0.  1.
         21    1    1    2  502  501 -0.78919347867E-02  0.41013830721E-01  0.44225634031E-01  0.60830285636E-01  0.00000000000E+00 0.  1.
<mgrwt>
<rscale>  1 0.65161914E+03</rscale>
<asrwt>0</asrwt>
<pdfrwt beam="1">  1        1 0.38620185E+00 0.65161914E+03</pdfrwt>
<pdfrwt beam="2">0</pdfrwt>
<totfact> 0.15401558E+00</totfact>
</mgrwt>
</event>
<event>
 6    1  0.3609478E-003  0.5961749E+03  0.7818608E-02  0.9913374E-01
          1   -1    0    0  502    0  0.00000000000E+00  0.00000000000E+00  0.88856187559E+02  0.88856187559E+02  0.00000000000E+00 0.  1.
         13   -1    0    0    0    0 -0.00000000000E+00 -0.00000000000E+00 -0.10000000000E+04  0.10000000000E+04  0.00000000000E+00 0.  1.
    9000005    2    1    2  501    0 -0.47420152562E-04  0.47915412040E-04 -0.91114383267E+03  0.10888561172E+04  0.59617494086E+03 0.  0.
         13    1    3    3    0    0  0.45827305430E+02  0.16929487828E+03 -0.89578920935E+03  0.91279746128E+03  0.00000000000E+00 0.  1.
          1    1    3    3  501    0 -0.45827352850E+02 -0.16929483037E+03 -0.15354623314E+02  0.17605865589E+03  0.00000000000E+00 0.  1.
         21    1    1    2  502  501  0.47420152562E-04 -0.47915412017E-04  0.20225100139E-04  0.70381902883E-04  0.00000000000E+00 0. -1.
<mgrwt>
<rscale>  1 0.59617494E+03</rscale>
<asrwt>0</asrwt>
<pdfrwt beam="1">  1        1 0.32311409E+00 0.59617494E+03</pdfrwt>
<pdfrwt beam="2">0</pdfrwt>
<totfact> 0.29340878E+00</totfact>
</mgrwt>
</event>
<event>
 6    1  0.3609478E-003  0.6556878E+03  0.7818608E-02  0.9796165E-01
          1   -1    0    0  502    0  0.00000000000E+00  0.00000000000E+00  0.10748635909E+03  0.10748635909E+03  0.00000000000E+00 0.  1.
         13   -1    0    0    0    0 -0.00000000000E+00 -0.00000000000E+00 -0.10000000000E+04  0.10000000000E+04  0.00000000000E+00 0.  1.
    9000005    2    1    2  501    0 -0.17335830165E-03 -0.53244597524E-04 -0.89251837258E+03  0.11074816239E+04  0.65568780834E+03 0.  0.
         13    1    3    3    0    0  0.22656808714E+03 -0.14503429623E+03 -0.76276135647E+03  0.80880957716E+03  0.00000000000E+00 0.  1.
          3    1    3    3  501    0 -0.22656826050E+03  0.14503424298E+03 -0.12975701611E+03  0.29867204679E+03  0.00000000000E+00 0.  1.
         21    1    1    2  502  501  0.17335830164E-03  0.53244597539E-04  0.47316672489E-02  0.47351412906E-02  0.00000000000E+00 0. -1.
<mgrwt>
<rscale>  1 0.65568781E+03</rscale>
<asrwt>0</asrwt>
<pdfrwt beam="1">  1        1 0.39086031E+00 0.65568781E+03</pdfrwt>
<pdfrwt beam="2">0</pdfrwt>
<totfact> 0.14675540E+00</totfact>
</mgrwt>
</event>
<event>
 6    1  0.3609478E-003  0.6461627E+03  0.7818608E-02  0.9814006E-01
          1   -1    0    0  502    0  0.00000000000E+00  0.00000000000E+00  0.10438219035E+03  0.10438219035E+03  0.00000000000E+00 0.  1.
         13   -1    0    0    0    0 -0.00000000000E+00 -0.00000000000E+00 -0.10000000000E+04  0.10000000000E+04  0.00000000000E+00 0.  1.
    9000005    2    1    2  501    0 -0.50759369242E-03 -0.22284323211E-03 -0.89561831667E+03  0.11043814391E+04  0.64616266826E+03 0.  0.
         13    1    3    3    0    0 -0.40717313520E+02 -0.25778120143E+03 -0.12229773754E+03  0.28821135307E+03  0.00000000000E+00 0.  1.
          3    1    3    3  501    0  0.40716805927E+02  0.25778097859E+03 -0.77332057914E+03  0.81617008603E+03  0.00000000000E+00 0.  1.
         21    1    1    2  502  501  0.50759369242E-03  0.22284323210E-03  0.50702286942E-03  0.75125405343E-03  0.00000000000E+00 0.  1.
<mgrwt>
<rscale>  1 0.64616267E+03</rscale>
<asrwt>0</asrwt>
<pdfrwt beam="1">  1        1 0.37957240E+00 0.64616267E+03</pdfrwt>
<pdfrwt beam="2">0</pdfrwt>
<totfact> 0.16492787E+00</totfact>
</mgrwt>
</event>
<event>
 6    1  0.3609478E-003  0.6488734E+03  0.7818608E-02  0.9808896E-01
          1   -1    0    0  502    0  0.00000000000E+00  0.00000000000E+00  0.10526282987E+03  0.10526282987E+03  0.00000000000E+00 0.  1.
         13   -1    0    0    0    0 -0.00000000000E+00 -0.00000000000E+00 -0.10000000000E+04  0.10000000000E+04  0.00000000000E+00 0.  1.
    9000005    2    1    2  501    0 -0.19392603828E-02 -0.16707815149E-03 -0.89474055367E+03  0.11052589264E+04  0.64887335899E+03 0.  0.
         13    1    3    3    0    0  0.38014826960E+02 -0.32163771671E+03 -0.47983196795E+03  0.57890816659E+03  0.00000000000E+00 0.  1.
          3    1    3    3  501    0 -0.38016766221E+02  0.32163754963E+03 -0.41490858573E+03  0.52635075981E+03  0.00000000000E+00 0.  1.
         21    1    1    2  502  501  0.19392603828E-02  0.16707815150E-03  0.33835448902E-02  0.39034628171E-02  0.00000000000E+00 0.  1.
<mgrwt>
<rscale>  1 0.64887336E+03</rscale>
<asrwt>0</asrwt>
<pdfrwt beam="1">  1        1 0.38277473E+00 0.64887336E+03</pdfrwt>
<pdfrwt beam="2">0</pdfrwt>
<totfact> 0.15956580E+00</totfact>
</mgrwt>
</event>
<event>
 6    1  0.3609478E-003  0.6463844E+03  0.7818608E-02  0.9813587E-01
          1   -1    0    0  502    0  0.00000000000E+00  0.00000000000E+00  0.10849461315E+03  0.10849461315E+03  0.00000000000E+00 0.  1.
         13   -1    0    0    0    0 -0.00000000000E+00 -0.00000000000E+00 -0.10000000000E+04  0.10000000000E+04  0.00000000000E+00 0.  1.
    9000005    2    1    2  501    0 -0.26411519676E-01  0.70840665624E-01 -0.89554642361E+03  0.11044528692E+04  0.64638435759E+03 0.  0.
         13    1    3    3    0    0 -0.76974315339E+02 -0.29600865744E+03 -0.62602464995E+03  0.69674459657E+03  0.00000000000E+00 0.  1.
          3    1    3    3  501    0  0.76947903819E+02  0.29607949811E+03 -0.26952177366E+03  0.40770827264E+03  0.00000000000E+00 0.  1.
         21    1    1    2  502  501  0.26411519676E-01 -0.70840665624E-01  0.40410367642E+01  0.40417439426E+01  0.00000000000E+00 0. -1.
<mgrwt>
<rscale>  1 0.64638436E+03</rscale>
<asrwt>0</asrwt>
<pdfrwt beam="1">  1        1 0.39452670E+00 0.64638436E+03</pdfrwt>
<pdfrwt beam="2">0</pdfrwt>
<totfact> 0.14160265E+00</totfact>
</mgrwt>
</event>
<event>
 6    1  0.3609478E-003  0.6328322E+03  0.7818608E-02  0.9839538E-01
          1   -1    0    0  502    0  0.00000000000E+00  0.00000000000E+00  0.10013124646E+03  0.10013124646E+03  0.00000000000E+00 0.  1.
         13   -1    0    0    0    0 -0.00000000000E+00 -0.00000000000E+00 -0.10000000000E+04  0.10000000000E+04  0.00000000000E+00 0.  1.
    9000005    2    1    2  501    0 -0.36467896855E-03 -0.53459565305E-03 -0.89988085156E+03  0.11001191311E+04  0.63283217025E+03 0.  0.
         13    1    3    3    0    0  0.95511642153E+02 -0.31728491955E+02  0.71552243023E+02  0.12348641411E+03  0.00000000000E+00 0.  1.
          1    1    3    3  501    0 -0.95512006832E+02  0.31727957360E+02 -0.97143309458E+03  0.97663271703E+03  0.00000000000E+00 0.  1.
         21    1    1    2  502  501  0.36467896855E-03  0.53459565305E-03  0.12098020401E-01  0.12115315963E-01  0.00000000000E+00 0.  1.
<mgrwt>
<rscale>  1 0.63283217E+03</rscale>
<asrwt>0</asrwt>
<pdfrwt beam="1">  1        1 0.36411439E+00 0.63283217E+03</pdfrwt>
<pdfrwt beam="2">0</pdfrwt>
<totfact> 0.19332955E+00</totfact>
</mgrwt>
</event>
<event>
 6    1  0.3609478E-003  0.6482271E+03  0.7818608E-02  0.9810112E-01
          1   -1    0    0  502    0  0.00000000000E+00  0.00000000000E+00  0.10506091147E+03  0.10506091147E+03  0.00000000000E+00 0.  1.
         13   -1    0    0    0    0 -0.00000000000E+00 -0.00000000000E+00 -0.10000000000E+04  0.10000000000E+04  0.00000000000E+00 0.  1.
    9000005    2    1    2  501    0 -0.12578769550E-01  0.12774012160E-01 -0.89494197728E+03  0.11050427526E+04  0.64822707595E+03 0.  0.
         13    1    3    3    0    0 -0.13862575794E+03 -0.80107092081E+02  0.32930884244E+02  0.16345852716E+03  0.00000000000E+00 0.  1.
          3    1    3    3  501    0  0.13861317917E+03  0.80119866093E+02 -0.92787286152E+03  0.94158422540E+03  0.00000000000E+00 0.  1.
         21    1    1    2  502  501  0.12578769550E-01 -0.12774012160E-01  0.28887467504E-02  0.18158901063E-01  0.00000000000E+00 0.  1.
<mgrwt>
<rscale>  1 0.64822708E+03</rscale>
<asrwt>0</asrwt>
<pdfrwt beam="1">  1        1 0.38204048E+00 0.64822708E+03</pdfrwt>
<pdfrwt beam="2">0</pdfrwt>
<totfact> 0.16078112E+00</totfact>
</mgrwt>
</event>
<event>
 6    1  0.3609478E-003  0.6586214E+03  0.7818608E-02  0.9790735E-01
          1   -1    0    0  502    0  0.00000000000E+00  0.00000000000E+00  0.10847629713E+03  0.10847629713E+03  0.00000000000E+00 0.  1.
         13   -1    0    0    0    0 -0.00000000000E+00 -0.00000000000E+00 -0.10000000000E+04  0.10000000000E+04  0.00000000000E+00 0.  1.
    9000005    2    1    2  501    0 -0.11139168823E-02  0.12849142341E-02 -0.89155442429E+03  0.11084455287E+04  0.65862143798E+03 0.  0.
         13    1    3    3    0    0  0.27284555174E+03 -0.31660157675E+02 -0.14005692547E+03  0.30832288767E+03  0.00000000000E+00 0.  1.
          1    1    3    3  501    0 -0.27284666566E+03  0.31661442589E+02 -0.75149749883E+03  0.80012264101E+03  0.00000000000E+00 0.  1.
         21    1    1    2  502  501  0.11139168823E-02 -0.12849142341E-02  0.30721428860E-01  0.30768457983E-01  0.00000000000E+00 0. -1.
<mgrwt>
<rscale>  1 0.65862144E+03</rscale>
<asrwt>0</asrwt>
<pdfrwt beam="1">  1        1 0.39446009E+00 0.65862144E+03</pdfrwt>
<pdfrwt beam="2">0</pdfrwt>
<totfact> 0.14137420E+00</totfact>
</mgrwt>
</event>
<event>
 6    1  0.3609478E-003  0.6339003E+03  0.7818608E-02  0.9837467E-01
          1   -1    0    0  502    0  0.00000000000E+00  0.00000000000E+00  0.10045749179E+03  0.10045749179E+03  0.00000000000E+00 0.  1.
         13   -1    0    0    0    0 -0.00000000000E+00 -0.00000000000E+00 -0.10000000000E+04  0.10000000000E+04  0.00000000000E+00 0.  1.
    9000005    2    1    2  501    0  0.23230339196E-03 -0.26048492344E-04 -0.89954238012E+03  0.11004572252E+04  0.63390031626E+03 0.  0.
         13    1    3    3    0    0 -0.11918935553E+02 -0.19563325310E+03 -0.17358433726E+02  0.19676317227E+03  0.00000000000E+00 0.  1.
          1    1    3    3  501    0  0.11919167856E+02  0.19563322705E+03 -0.88218394639E+03  0.90369405296E+03  0.00000000000E+00 0.  1.
         21    1    1    2  502  501 -0.23230339196E-03  0.26048492362E-04 -0.12809128508E-03  0.26655349779E-03  0.00000000000E+00 0. -1.
<mgrwt>
<rscale>  1 0.63390032E+03</rscale>
<asrwt>0</asrwt>
<pdfrwt beam="1">  1        1 0.36530074E+00 0.63390032E+03</pdfrwt>
<pdfrwt beam="2">0</pdfrwt>
<totfact> 0.19099226E+00</totfact>
</mgrwt>
</event>
<event>
 6    1  0.3609478E-003  0.6580721E+03  0.7818608E-02  0.9791749E-01
          1   -1    0    0  502    0  0.00000000000E+00  0.00000000000E+00  0.12878048639E+03  0.12878048639E+03  0.00000000000E+00 0.  1.
         13   -1    0    0    0    0 -0.00000000000E+00 -0.00000000000E+00 -0.10000000000E+04  0.10000000000E+04  0.00000000000E+00 0.  1.
    9000005    2    1    2  501    0  0.13988057435E+02 -0.31941943741E+01 -0.88891638809E+03  0.11059978615E+04  0.65791569073E+03 0.  0.
         13    1    3    3    0    0 -0.30713767426E+03  0.69056879585E+02 -0.32108848767E+03  0.44966678828E+03  0.00000000000E+00 0.  1.
          1    1    3    3  501    0  0.32112573169E+03 -0.72251073959E+02 -0.56782790042E+03  0.65633107327E+03  0.00000000000E+00 0.  1.
         21    1    1    2  502  501 -0.13988057435E+02  0.31941943741E+01  0.17696874478E+02  0.22782624845E+02  0.00000000000E+00 0.  1.
<mgrwt>
<rscale>  1 0.65807213E+03</rscale>
<asrwt>0</asrwt>
<pdfrwt beam="1">  1        1 0.46829367E+00 0.65807213E+03</pdfrwt>
<pdfrwt beam="2">0</pdfrwt>
<totfact> 0.65235432E-01</totfact>
</mgrwt>
</event>
<event>
 6    1  0.3609478E-003  0.6493227E+03  0.7818608E-02  0.9808051E-01
          1   -1    0    0  502    0  0.00000000000E+00  0.00000000000E+00  0.11831035276E+03  0.11831035276E+03  0.00000000000E+00 0.  1.
         13   -1    0    0    0    0 -0.00000000000E+00 -0.00000000000E+00 -0.10000000000E+04  0.10000000000E+04  0.00000000000E+00 0.  1.
    9000005    2    1    2  501    0 -0.70586853440E+00  0.11197615853E+00 -0.89458405467E+03  0.11053961539E+04  0.64932235093E+03 0.  0.
         13    1    3    3    0    0  0.18757463915E+03  0.25946092131E+03 -0.53710899639E+03  0.62529216286E+03  0.00000000000E+00 0.  1.
          3    1    3    3  501    0 -0.18828050768E+03 -0.25934894515E+03 -0.35747505828E+03  0.48010399104E+03  0.00000000000E+00 0.  1.
         21    1    1    2  502  501  0.70586853440E+00 -0.11197615853E+00  0.12894407432E+02  0.12914198855E+02  0.00000000000E+00 0.  1.
<mgrwt>
<rscale>  1 0.64932274E+03</rscale>
<asrwt>0</asrwt>
<pdfrwt beam="1">  1        1 0.43022037E+00 0.64932274E+03</pdfrwt>
<pdfrwt beam="2">0</pdfrwt>
<totfact> 0.97852063E-01</totfact>
</mgrwt>
</event>
<event>
 6    1  0.3609478E-003  0.6548670E+03  0.7818608E-02  0.9797689E-01
          3   -1    0    0  502    0  0.00000000000E+00  0.00000000000E+00  0.10721304999E+03  0.10721304999E+03  0.00000000000E+00 0.  1.
         13   -1    0    0    0    0 -0.00000000000E+00 -0.00000000000E+00 -0.10000000000E+04  0.10000000000E+04  0.00000000000E+00 0.  1.
    9000005    2    1    2  501    0 -0.26192638614E-04 -0.58783623643E-04 -0.89278731472E+03  0.11072126796E+04  0.65486695492E+03 0.  0.
         13    1    3    3    0    0  0.10921722496E+03 -0.19355539027E+03 -0.39838710263E+02  0.22578577051E+03  0.00000000000E+00 0.  1.
          3    1    3    3  501    0 -0.10921725115E+03  0.19355533149E+03 -0.85294860446E+03  0.88142690913E+03  0.00000000000E+00 0.  1.
         21    1    1    2  502  501  0.26192638616E-04  0.58783623647E-04  0.36471425794E-03  0.37034856375E-03  0.00000000000E+00 0.  1.
<mgrwt>
<rscale>  1 0.65486695E+03</rscale>
<asrwt>0</asrwt>
<pdfrwt beam="1">  1        3 0.38986646E+00 0.65486695E+03</pdfrwt>
<pdfrwt beam="2">0</pdfrwt>
<totfact> 0.66904597E-02</totfact>
</mgrwt>
</event>
<event>
 6    1  0.3609478E-003  0.6465164E+03  0.7818608E-02  0.9813338E-01
          1   -1    0    0  502    0  0.00000000000E+00  0.00000000000E+00  0.11410791574E+03  0.11410791574E+03  0.00000000000E+00 0.  1.
         13   -1    0    0    0    0 -0.00000000000E+00 -0.00000000000E+00 -0.10000000000E+04  0.10000000000E+04  0.00000000000E+00 0.  1.
    9000005    2    1    2  501    0 -0.99170151538E+01  0.15411410977E+02 -0.88468440964E+03  0.10957417170E+04  0.64625656435E+03 0.  0.
         13    1    3    3    0    0 -0.15320333386E+03  0.25944656730E+03 -0.21924772611E+03  0.37263031035E+03  0.00000000000E+00 0.  1.
          1    1    3    3  501    0  0.14328631871E+03 -0.24403515632E+03 -0.66543668353E+03  0.72311140666E+03  0.00000000000E+00 0.  1.
         21    1    1    2  502  501  0.99170151538E+01 -0.15411410977E+02 -0.12076746119E+01  0.18366198731E+02  0.00000000000E+00 0.  1.
<mgrwt>
<rscale>  1 0.64651636E+03</rscale>
<asrwt>0</asrwt>
<pdfrwt beam="1">  1        1 0.41493875E+00 0.64651636E+03</pdfrwt>
<pdfrwt beam="2">0</pdfrwt>
<totfact> 0.11477400E+00</totfact>
</mgrwt>
</event>
<event>
 6    1  0.3609478E-003  0.4768618E+03  0.7818608E-02  0.1020001E+00
          1   -1    0    0  502    0  0.00000000000E+00  0.00000000000E+00  0.56853895436E+02  0.56853895436E+02  0.00000000000E+00 0.  1.
         13   -1    0    0    0    0 -0.00000000000E+00 -0.00000000000E+00 -0.10000000000E+04  0.10000000000E+04  0.00000000000E+00 0.  1.
    9000005    2    1    2  501    0  0.22145614865E-02 -0.87086349383E-03 -0.94315038286E+03  0.10568489999E+04  0.47686178694E+03 0.  0.
         13    1    3    3    0    0  0.21163435134E+03 -0.24070498132E+02 -0.70905108685E+03  0.74035257230E+03  0.00000000000E+00 0.  1.
          1    1    3    3  501    0 -0.21163213678E+03  0.24069627269E+02 -0.23409929601E+03  0.31649642758E+03  0.00000000000E+00 0.  1.
         21    1    1    2  502  501 -0.22145614865E-02  0.87086349382E-03  0.42782963133E-02  0.48955597378E-02  0.00000000000E+00 0. -1.
<mgrwt>
<rscale>  1 0.47686179E+03</rscale>
<asrwt>0</asrwt>
<pdfrwt beam="1">  1        1 0.20674187E+00 0.47686179E+03</pdfrwt>
<pdfrwt beam="2">0</pdfrwt>
<totfact> 0.96196915E+00</totfact>
</mgrwt>
</event>
<event>
 6    1  0.3609478E-003  0.6468842E+03  0.7818608E-02  0.9812643E-01
          1   -1    0    0  502    0  0.00000000000E+00  0.00000000000E+00  0.10589589532E+03  0.10589589532E+03  0.00000000000E+00 0.  1.
         13   -1    0    0    0    0 -0.00000000000E+00 -0.00000000000E+00 -0.10000000000E+04  0.10000000000E+04  0.00000000000E+00 0.  1.
    9000005    2    1    2  501    0  0.31532592303E-02  0.37691500647E-01 -0.89538490297E+03  0.11046145387E+04  0.64688418835E+03 0.  0.
         13    1    3    3    0    0  0.10442515587E+02  0.14604456528E+03 -0.94019676077E+03  0.95152930073E+03  0.00000000000E+00 0.  1.
          3    1    3    3  501    0 -0.10439362328E+02 -0.14600687378E+03  0.44811857798E+02  0.15308523794E+03  0.00000000000E+00 0.  1.
         21    1    1    2  502  501 -0.31532592303E-02 -0.37691500647E-01  0.12807982924E+01  0.12813566475E+01  0.00000000000E+00 0. -1.
<mgrwt>
<rscale>  1 0.64688419E+03</rscale>
<asrwt>0</asrwt>
<pdfrwt beam="1">  1        1 0.38507679E+00 0.64688419E+03</pdfrwt>
<pdfrwt beam="2">0</pdfrwt>
<totfact> 0.15592765E+00</totfact>
</mgrwt>
</event>
<event>
 6    1  0.3609478E-003  0.6305237E+03  0.7818608E-02  0.9844027E-01
          1   -1    0    0  502    0  0.00000000000E+00  0.00000000000E+00  0.10320909310E+03  0.10320909310E+03  0.00000000000E+00 0.  1.
         13   -1    0    0    0    0 -0.00000000000E+00 -0.00000000000E+00 -0.10000000000E+04  0.10000000000E+04  0.00000000000E+00 0.  1.
    9000005    2    1    2  501    0  0.22026755796E+01 -0.46932379074E+01 -0.89857729867E+03  0.10977255306E+04  0.63050241923E+03 0.  0.
         13    1    3    3    0    0 -0.15903902011E+03  0.18320360940E+03 -0.79171604576E+03  0.82805269732E+03  0.00000000000E+00 0.  1.
          1    1    3    3  501    0  0.16124169569E+03 -0.18789684730E+03 -0.10686125291E+03  0.26967283332E+03  0.00000000000E+00 0.  1.
         21    1    1    2  502  501 -0.22026755796E+01  0.46932379074E+01  0.17863917660E+01  0.54835624649E+01  0.00000000000E+00 0.  1.
<mgrwt>
<rscale>  1 0.63052373E+03</rscale>
<asrwt>0</asrwt>
<pdfrwt beam="1">  1        1 0.37530658E+00 0.63052373E+03</pdfrwt>
<pdfrwt beam="2">0</pdfrwt>
<totfact> 0.17272059E+00</totfact>
</mgrwt>
</event>
<event>
 6    1  0.3609478E-003  0.6480345E+03  0.7818608E-02  0.9810474E-01
          1   -1    0    0  502    0  0.00000000000E+00  0.00000000000E+00  0.10498955315E+03  0.10498955315E+03  0.00000000000E+00 0.  1.
         13   -1    0    0    0    0 -0.00000000000E+00 -0.00000000000E+00 -0.10000000000E+04  0.10000000000E+04  0.00000000000E+00 0.  1.
    9000005    2    1    2  501    0  0.25143411219E-02 -0.10109985566E-02 -0.89501193746E+03  0.11049864603E+04  0.64803449689E+03 0.  0.
         13    1    3    3    0    0  0.13609863896E+03  0.28400482445E+03 -0.31758359146E+03  0.44725934020E+03  0.00000000000E+00 0.  1.
          1    1    3    3  501    0 -0.13609612461E+03 -0.28400583544E+03 -0.57742834600E+03  0.65772712006E+03  0.00000000000E+00 0.  1.
         21    1    1    2  502  501 -0.25143411219E-02  0.10109985566E-02  0.14906136260E-02  0.30928883492E-02  0.00000000000E+00 0. -1.
<mgrwt>
<rscale>  1 0.64803450E+03</rscale>
<asrwt>0</asrwt>
<pdfrwt beam="1">  1        1 0.38178100E+00 0.64803450E+03</pdfrwt>
<pdfrwt beam="2">0</pdfrwt>
<totfact> 0.16121165E+00</totfact>
</mgrwt>
</event>
<event>
 6    1  0.3609478E-003  0.6615430E+03  0.7818608E-02  0.9785358E-01
          1   -1    0    0  502    0  0.00000000000E+00  0.00000000000E+00  0.10954518060E+03  0.10954518060E+03  0.00000000000E+00 0.  1.
         13   -1    0    0    0    0 -0.00000000000E+00 -0.00000000000E+00 -0.10000000000E+04  0.10000000000E+04  0.00000000000E+00 0.  1.
    9000005    2    1    2  501    0 -0.12841246651E+00 -0.22117295452E+00 -0.89043976378E+03  0.11092889894E+04  0.66154291151E+03 0.  0.
         13    1    3    3    0    0  0.13999616993E+03  0.69714295252E+02  0.43483423340E+02  0.16232627225E+03  0.00000000000E+00 0.  1.
          1    1    3    3  501    0 -0.14012458240E+03 -0.69935468207E+02 -0.93392318712E+03  0.94696271719E+03  0.00000000000E+00 0.  1.
         21    1    1    2  502  501  0.12841246651E+00  0.22117295452E+00 -0.15055624843E-01  0.25619115755E+00  0.00000000000E+00 0.  1.
<mgrwt>
<rscale>  1 0.66154296E+03</rscale>
<asrwt>0</asrwt>
<pdfrwt beam="1">  1        1 0.39834695E+00 0.66154296E+03</pdfrwt>
<pdfrwt beam="2">0</pdfrwt>
<totfact> 0.13578005E+00</totfact>
</mgrwt>
</event>
<event>
 6    1  0.3609478E-003  0.6626510E+03  0.7818608E-02  0.9783326E-01
          1   -1    0    0  502    0  0.00000000000E+00  0.00000000000E+00  0.10993847753E+03  0.10993847753E+03  0.00000000000E+00 0.  1.
         13   -1    0    0    0    0 -0.00000000000E+00 -0.00000000000E+00 -0.10000000000E+04  0.10000000000E+04  0.00000000000E+00 0.  1.
    9000005    2    1    2  501    0  0.82724005214E-02  0.15865718052E-01 -0.89022286975E+03  0.11097761412E+04  0.66265098306E+03 0.  0.
         13    1    3    3    0    0  0.17401876475E+03  0.20635481887E+03 -0.12333989885E+03  0.29677865895E+03  0.00000000000E+00 0.  1.
          3    1    3    3  501    0 -0.17401049235E+03 -0.20633895316E+03 -0.76688297089E+03  0.81299748221E+03  0.00000000000E+00 0.  1.
         21    1    1    2  502  501 -0.82724005214E-02 -0.15865718052E-01  0.16134727327E+00  0.16233636750E+00  0.00000000000E+00 0. -1.
<mgrwt>
<rscale>  1 0.66265098E+03</rscale>
<asrwt>0</asrwt>
<pdfrwt beam="1">  1        1 0.39977712E+00 0.66265098E+03</pdfrwt>
<pdfrwt beam="2">0</pdfrwt>
<totfact> 0.13377404E+00</totfact>
</mgrwt>
</event>
<event>
 6    1  0.3609478E-003  0.6562302E+03  0.7818608E-02  0.9795158E-01
          1   -1    0    0  502    0  0.00000000000E+00  0.00000000000E+00  0.10783807921E+03  0.10783807921E+03  0.00000000000E+00 0.  1.
         13   -1    0    0    0    0 -0.00000000000E+00 -0.00000000000E+00 -0.10000000000E+04  0.10000000000E+04  0.00000000000E+00 0.  1.
    9000005    2    1    2  501    0 -0.66811598518E-03 -0.42701600748E-02 -0.89234045836E+03  0.11076594893E+04  0.65623018116E+03 0.  0.
         13    1    3    3    0    0 -0.79076926315E+01 -0.32788616985E+03 -0.43024527829E+03  0.54100172964E+03  0.00000000000E+00 0.  1.
          1    1    3    3  501    0  0.79070245155E+01  0.32788189969E+03 -0.46209518007E+03  0.56665775969E+03  0.00000000000E+00 0.  1.
         21    1    1    2  502  501  0.66811598518E-03  0.42701600748E-02  0.17853756952E+00  0.17858987759E+00  0.00000000000E+00 0. -1.
<mgrwt>
<rscale>  1 0.65623018E+03</rscale>
<asrwt>0</asrwt>
<pdfrwt beam="1">  1        1 0.39213930E+00 0.65623018E+03</pdfrwt>
<pdfrwt beam="2">0</pdfrwt>
<totfact> 0.14483509E+00</totfact>
</mgrwt>
</event>
<event>
 6    1  0.3609478E-003  0.6641897E+03  0.7818608E-02  0.9780512E-01
          1   -1    0    0  502    0  0.00000000000E+00  0.00000000000E+00  0.11042121988E+03  0.11042121988E+03  0.00000000000E+00 0.  1.
         13   -1    0    0    0    0 -0.00000000000E+00 -0.00000000000E+00 -0.10000000000E+04  0.10000000000E+04  0.00000000000E+00 0.  1.
    9000005    2    1    2  501    0 -0.27006985851E+00 -0.20016274527E+00 -0.88941253061E+03  0.11100461975E+04  0.66418957992E+03 0.  0.
         13    1    3    3    0    0  0.11560670423E+03  0.14945515021E+03 -0.90082685961E+03  0.92042967302E+03  0.00000000000E+00 0.  1.
          3    1    3    3  501    0 -0.11587677408E+03 -0.14965531295E+03  0.11414328997E+02  0.18961652453E+03  0.00000000000E+00 0.  1.
         21    1    1    2  502  501  0.27006985851E+00  0.20016274527E+00 -0.16624950816E+00  0.37502233538E+00  0.00000000000E+00 0. -1.
<mgrwt>
<rscale>  1 0.66418966E+03</rscale>
<asrwt>0</asrwt>
<pdfrwt beam="1">  1        1 0.40153256E+00 0.66418966E+03</pdfrwt>
<pdfrwt beam="2">0</pdfrwt>
<totfact> 0.13134568E+00</totfact>
</mgrwt>
</event>
<event>
 6    1  0.3609478E-003  0.6509456E+03  0.7818608E-02  0.9805006E-01
          1   -1    0    0  502    0  0.00000000000E+00  0.00000000000E+00  0.10593262503E+03  0.10593262503E+03  0.00000000000E+00 0.  1.
         13   -1    0    0    0    0 -0.00000000000E+00 -0.00000000000E+00 -0.10000000000E+04  0.10000000000E+04  0.00000000000E+00 0.  1.
    9000005    2    1    2  501    0 -0.46664544612E-04 -0.34119461221E-04 -0.89406743501E+03  0.11059325417E+04  0.65094562631E+03 0.  0.
         13    1    3    3    0    0 -0.21435024719E+03 -0.79965404032E+01 -0.86292443959E+03  0.88918421127E+03  0.00000000000E+00 0.  1.
          3    1    3    3  501    0  0.21435020052E+03  0.79965062838E+01 -0.31142995421E+02  0.21674833042E+03  0.00000000000E+00 0.  1.
         21    1    1    2  502  501  0.46664544587E-04  0.34119461221E-04  0.60039973242E-04  0.83345760194E-04  0.00000000000E+00 0. -1.
<mgrwt>
<rscale>  1 0.65094563E+03</rscale>
<asrwt>0</asrwt>
<pdfrwt beam="1">  1        1 0.38521036E+00 0.65094563E+03</pdfrwt>
<pdfrwt beam="2">0</pdfrwt>
<totfact> 0.15559868E+00</totfact>
</mgrwt>
</event>
<event>
 6    1  0.3609478E-003  0.6105676E+03  0.7818608E-02  0.9883721E-01
          1   -1    0    0  502    0  0.00000000000E+00  0.00000000000E+00  0.99737147175E+02  0.99737147175E+02  0.00000000000E+00 0.  1.
         13   -1    0    0    0    0 -0.00000000000E+00 -0.00000000000E+00 -0.10000000000E+04  0.10000000000E+04  0.00000000000E+00 0.  1.
    9000005    2    1    2  501    0  0.12446653231E+00 -0.24059881968E+00 -0.90679873284E+03  0.10931956560E+04  0.61056754497E+03 0.  0.
         13    1    3    3    0    0 -0.15560035472E+03  0.20509137098E+03 -0.15981805965E+03  0.30301114341E+03  0.00000000000E+00 0.  1.
          3    1    3    3  501    0  0.15572482125E+03 -0.20533196980E+03 -0.74698067319E+03  0.79018451256E+03  0.00000000000E+00 0.  1.
         21    1    1    2  502  501 -0.12446653231E+00  0.24059881968E+00  0.65358800107E+01  0.65414912079E+01  0.00000000000E+00 0.  1.
<mgrwt>
<rscale>  1 0.61056761E+03</rscale>
<asrwt>0</asrwt>
<pdfrwt beam="1">  1        1 0.36268130E+00 0.61056761E+03</pdfrwt>
<pdfrwt beam="2">0</pdfrwt>
<totfact> 0.19694666E+00</totfact>
</mgrwt>
</event>
<event>
 6    1  0.4196528E-003  0.6545738E+03  0.7818608E-02  0.9798234E-01
          1   -1    0    0  502    0  0.00000000000E+00  0.00000000000E+00  0.10711671516E+03  0.10711671516E+03  0.00000000000E+00 0.  1.
         13   -1    0    0    0    0 -0.00000000000E+00 -0.00000000000E+00 -0.10000000000E+04  0.10000000000E+04  0.00000000000E+00 0.  1.
    9000005    2    1    2  501    0  0.83931859081E-05  0.41197121163E-05 -0.89288328402E+03  0.11071167058E+04  0.65457378600E+03 0.  0.
         13    1    3    3    0    0 -0.26310354825E+03  0.17499975640E+03 -0.59063714489E+03  0.66985119898E+03  0.00000000000E+00 0.  1.
          1    1    3    3  501    0  0.26310355664E+03 -0.17499975228E+03 -0.30224613913E+03  0.43726550680E+03  0.00000000000E+00 0.  1.
         21    1    1    2  502  501 -0.83931859376E-05 -0.41197121202E-05 -0.81704806510E-06  0.93853697678E-05  0.00000000000E+00 0.  1.
<mgrwt>
<rscale>  1 0.65457379E+03</rscale>
<asrwt>0</asrwt>
<pdfrwt beam="1">  1        1 0.38951615E+00 0.65457379E+03</pdfrwt>
<pdfrwt beam="2">0</pdfrwt>
<totfact> 0.14881458E+00</totfact>
</mgrwt>
</event>
<event>
 6    1  0.3609478E-003  0.6518213E+03  0.7818608E-02  0.9803368E-01
          1   -1    0    0  502    0  0.00000000000E+00  0.00000000000E+00  0.10622008443E+03  0.10622008443E+03  0.00000000000E+00 0.  1.
         13   -1    0    0    0    0 -0.00000000000E+00 -0.00000000000E+00 -0.10000000000E+04  0.10000000000E+04  0.00000000000E+00 0.  1.
    9000005    2    1    2  501    0  0.30211519178E-02  0.23354876974E-03 -0.89378109194E+03  0.11062168339E+04  0.65182132779E+03 0.  0.
         13    1    3    3    0    0  0.29019937317E+03 -0.47646377914E+02 -0.20849263882E+03  0.36049276547E+03  0.00000000000E+00 0.  1.
          3    1    3    3  501    0 -0.29019635202E+03  0.47646611463E+02 -0.68528845311E+03  0.74572406846E+03  0.00000000000E+00 0.  1.
         21    1    1    2  502  501 -0.30211519178E-02 -0.23354876974E-03  0.11763683175E-02  0.32504994011E-02  0.00000000000E+00 0. -1.
<mgrwt>
<rscale>  1 0.65182133E+03</rscale>
<asrwt>0</asrwt>
<pdfrwt beam="1">  1        1 0.38625567E+00 0.65182133E+03</pdfrwt>
<pdfrwt beam="2">0</pdfrwt>
<totfact> 0.15392538E+00</totfact>
</mgrwt>
</event>
<event>
 6    1  0.3609478E-003  0.6528066E+03  0.7818608E-02  0.9801527E-01
          1   -1    0    0  502    0  0.00000000000E+00  0.00000000000E+00  0.10656395027E+03  0.10656395027E+03  0.00000000000E+00 0.  1.
         13   -1    0    0    0    0 -0.00000000000E+00 -0.00000000000E+00 -0.10000000000E+04  0.10000000000E+04  0.00000000000E+00 0.  1.
    9000005    2    1    2  501    0  0.21221705694E-03  0.53643106406E-03 -0.89346089620E+03  0.11065390971E+04  0.65280655662E+03 0.  0.
         13    1    3    3    0    0  0.14697821023E+03 -0.27338175406E+03 -0.61791175038E+03  0.69148760582E+03  0.00000000000E+00 0.  1.
          3    1    3    3  501    0 -0.14697799801E+03  0.27338229049E+03 -0.27554914582E+03  0.41505149128E+03  0.00000000000E+00 0.  1.
         21    1    1    2  502  501 -0.21221705694E-03 -0.53643106403E-03  0.24846477906E-01  0.24853174017E-01  0.00000000000E+00 0.  1.
<mgrwt>
<rscale>  1 0.65280656E+03</rscale>
<asrwt>0</asrwt>
<pdfrwt beam="1">  1        1 0.38750609E+00 0.65280656E+03</pdfrwt>
<pdfrwt beam="2">0</pdfrwt>
<totfact> 0.15194793E+00</totfact>
</mgrwt>
</event>
<event>
 6    1  0.3609478E-003  0.6511576E+03  0.7818608E-02  0.9804609E-01
          1   -1    0    0  502    0  0.00000000000E+00  0.00000000000E+00  0.10601117088E+03  0.10601117088E+03  0.00000000000E+00 0.  1.
         13   -1    0    0    0    0 -0.00000000000E+00 -0.00000000000E+00 -0.10000000000E+04  0.10000000000E+04  0.00000000000E+00 0.  1.
    9000005    2    1    2  501    0 -0.41547667044E-03 -0.59208717124E-03 -0.89399842951E+03  0.11060015433E+04  0.65115760132E+03 0.  0.
         13    1    3    3    0    0  0.14730054430E+03 -0.28809033693E+03 -0.38556639476E+03  0.50334375664E+03  0.00000000000E+00 0.  1.
          1    1    3    3  501    0 -0.14730095977E+03  0.28808974484E+03 -0.50843203476E+03  0.60265778664E+03  0.00000000000E+00 0.  1.
         21    1    1    2  502  501  0.41547667045E-03  0.59208717127E-03  0.96003952703E-02  0.96276049685E-02  0.00000000000E+00 0.  1.
<mgrwt>
<rscale>  1 0.65115760E+03</rscale>
<asrwt>0</asrwt>
<pdfrwt beam="1">  1        1 0.38549598E+00 0.65115760E+03</pdfrwt>
<pdfrwt beam="2">0</pdfrwt>
<totfact> 0.15514054E+00</totfact>
</mgrwt>
</event>
<event>
 6    1  0.3609478E-003  0.6386456E+03  0.7818608E-02  0.9828321E-01
          1   -1    0    0  502    0  0.00000000000E+00  0.00000000000E+00  0.10206291669E+03  0.10206291669E+03  0.00000000000E+00 0.  1.
         13   -1    0    0    0    0 -0.00000000000E+00 -0.00000000000E+00 -0.10000000000E+04  0.10000000000E+04  0.00000000000E+00 0.  1.
    9000005    2    1    2  501    0 -0.11029348821E-02  0.68488175998E-03 -0.89803293868E+03  0.11019670525E+04  0.63864561841E+03 0.  0.
         13    1    3    3    0    0 -0.14136287337E+03  0.24563438020E+03 -0.70288885985E+03  0.75787364383E+03  0.00000000000E+00 0.  1.
          3    1    3    3  501    0  0.14136177043E+03 -0.24563369532E+03 -0.19514407882E+03  0.34409340871E+03  0.00000000000E+00 0.  1.
         21    1    1    2  502  501  0.11029348821E-02 -0.68488175996E-03  0.95855365223E-01  0.95864156860E-01  0.00000000000E+00 0. -1.
<mgrwt>
<rscale>  1 0.63864562E+03</rscale>
<asrwt>0</asrwt>
<pdfrwt beam="1">  1        1 0.37113866E+00 0.63864562E+03</pdfrwt>
<pdfrwt beam="2">0</pdfrwt>
<totfact> 0.17989608E+00</totfact>
</mgrwt>
</event>
<event>
 6    1  0.3609478E-003  0.6481574E+03  0.7818608E-02  0.9810243E-01
          1   -1    0    0  502    0  0.00000000000E+00  0.00000000000E+00  0.10506306622E+03  0.10506306622E+03  0.00000000000E+00 0.  1.
         13   -1    0    0    0    0 -0.00000000000E+00 -0.00000000000E+00 -0.10000000000E+04  0.10000000000E+04  0.00000000000E+00 0.  1.
    9000005    2    1    2  501    0 -0.60199791629E-01 -0.72782162514E-01 -0.89488360998E+03  0.11049546011E+04  0.64815737760E+03 0.  0.
         13    1    3    3    0    0  0.27993500249E+03 -0.30484310715E+02 -0.72080835631E+03  0.77385889240E+03  0.00000000000E+00 0.  1.
          3    1    3    3  501    0 -0.27999520228E+03  0.30411528552E+02 -0.17407525366E+03  0.33109570868E+03  0.00000000000E+00 0.  1.
         21    1    1    2  502  501  0.60199791629E-01  0.72782162514E-01 -0.53323798451E-01  0.10846513529E+00  0.00000000000E+00 0. -1.
<mgrwt>
<rscale>  1 0.64815738E+03</rscale>
<asrwt>0</asrwt>
<pdfrwt beam="1">  1        1 0.38204832E+00 0.64815738E+03</pdfrwt>
<pdfrwt beam="2">0</pdfrwt>
<totfact> 0.16077037E+00</totfact>
</mgrwt>
</event>
