<event>
 6    1  0.3813560E-003  0.6518317E+03  0.7818608E-02  0.9803348E-01
          1   -1    0    0  502    0  0.00000000000E+00  0.00000000000E+00  0.10653630432E+03  0.10653630432E+03  0.00000000000E+00 0.  1.
         13   -1    0    0    0    0 -0.00000000000E+00 -0.00000000000E+00 -0.10000000000E+04  0.10000000000E+04  0.00000000000E+00 0.  1.
    9000005    2    1    2  501    0  0.40097890230E-01 -0.97418069621E-01 -0.89376909194E+03  0.11062132486E+04  0.65183168885E+03 0.  0.
         13    1    3    3    0    0  0.18536374561E+03 -0.22736171597E+03 -0.20575980978E+03  0.35831573701E+03  0.00000000000E+00 0.  1.
          3    1    3    3  501    0 -0.18532364772E+03  0.22726429790E+03 -0.68800928216E+03  0.74789751159E+03  0.00000000000E+00 0.  1.
         21    1    1    2  502  501 -0.40097890230E-01  0.97418069621E-01  0.30539626121E+00  0.32305571880E+00  0.00000000000E+00 0. -1.
<mgrwt>
<rscale>  1 0.65183170E+03</rscale>
<asrwt>0</asrwt>
<pdfrwt beam="1">  1        1 0.38740556E+00 0.65183170E+03</pdfrwt>
<pdfrwt beam="2">0</pdfrwt>
<totfact> 0.15213124E+00</totfact>
</mgrwt>
</event>
<event>
 6    1  0.3813560E-003  0.5525640E+03  0.7818608E-02  0.1000902E+00
          1   -1    0    0  502    0  0.00000000000E+00  0.00000000000E+00  0.76341815737E+02  0.76341815737E+02  0.00000000000E+00 0.  1.
         13   -1    0    0    0    0 -0.00000000000E+00 -0.00000000000E+00 -0.10000000000E+04  0.10000000000E+04  0.00000000000E+00 0.  1.
    9000005    2    1    2  501    0 -0.15424829409E-03  0.30367927593E-04 -0.92366826467E+03  0.10763317341E+04  0.55256396796E+03 0.  0.
         13    1    3    3    0    0 -0.14678737216E+02 -0.27211720236E+03 -0.37324294024E+03  0.46214016227E+03  0.00000000000E+00 0.  1.
          1    1    3    3  501    0  0.14678582968E+02  0.27211723272E+03 -0.55042532443E+03  0.61419157184E+03  0.00000000000E+00 0.  1.
         21    1    1    2  502  501  0.15424829409E-03 -0.30367927613E-04  0.10080404859E-01  0.10081630665E-01  0.00000000000E+00 0. -1.
<mgrwt>
<rscale>  1 0.55256397E+03</rscale>
<asrwt>0</asrwt>
<pdfrwt beam="1">  1        1 0.27760719E+00 0.55256397E+03</pdfrwt>
<pdfrwt beam="2">0</pdfrwt>
<totfact> 0.46477610E+00</totfact>
</mgrwt>
</event>
<event>
 6    1  0.3813560E-003  0.5371368E+03  0.7818608E-02  0.1004516E+00
          1   -1    0    0  502    0  0.00000000000E+00  0.00000000000E+00  0.74803278194E+02  0.74803278194E+02  0.00000000000E+00 0.  1.
         13   -1    0    0    0    0 -0.00000000000E+00 -0.00000000000E+00 -0.10000000000E+04  0.10000000000E+04  0.00000000000E+00 0.  1.
    9000005    2    1    2  501    0 -0.29015294691E-01 -0.26293836507E-01 -0.92787085656E+03  0.10721288568E+04  0.53713681455E+03 0.  0.
         13    1    3    3    0    0  0.12665894438E+03 -0.89759259388E+02 -0.90136405408E+03  0.91463455589E+03  0.00000000000E+00 0.  1.
          3    1    3    3  501    0 -0.12668795968E+03  0.89732965552E+02 -0.26506802475E+02  0.15749430088E+03  0.00000000000E+00 0.  1.
         21    1    1    2  502  501  0.29015294691E-01  0.26293836507E-01  0.26741347518E+01  0.26744214185E+01  0.00000000000E+00 0.  1.
<mgrwt>
<rscale>  1 0.53713682E+03</rscale>
<asrwt>0</asrwt>
<pdfrwt beam="1">  1        1 0.27201249E+00 0.53713682E+03</pdfrwt>
<pdfrwt beam="2">0</pdfrwt>
<totfact> 0.49267816E+00</totfact>
</mgrwt>
</event>
<event>
 6    1  0.3813560E-003  0.6160739E+03  0.7818608E-02  0.9872608E-01
          1   -1    0    0  502    0  0.00000000000E+00  0.00000000000E+00  0.10208191641E+03  0.10208191641E+03  0.00000000000E+00 0.  1.
         13   -1    0    0    0    0 -0.00000000000E+00 -0.00000000000E+00 -0.10000000000E+04  0.10000000000E+04  0.00000000000E+00 0.  1.
    9000005    2    1    2  501    0  0.33219458305E+00 -0.14634944379E+01 -0.90502745716E+03  0.10948158747E+04  0.61607211361E+03 0.  0.
         13    1    3    3    0    0  0.12648625158E+03  0.27455295856E+03 -0.55136178122E+03  0.62879083381E+03  0.00000000000E+00 0.  1.
          3    1    3    3  501    0 -0.12615405700E+03 -0.27601645299E+03 -0.35366567594E+03  0.46602504092E+03  0.00000000000E+00 0.  1.
         21    1    1    2  502  501 -0.33219458305E+00  0.14634944379E+01  0.71093735729E+01  0.72660416878E+01  0.00000000000E+00 0. -1.
<mgrwt>
<rscale>  1 0.61607394E+03</rscale>
<asrwt>0</asrwt>
<pdfrwt beam="1">  1        1 0.37120775E+00 0.61607394E+03</pdfrwt>
<pdfrwt beam="2">0</pdfrwt>
<totfact> 0.18052389E+00</totfact>
</mgrwt>
</event>
<event>
 6    1  0.3813560E-003  0.6417268E+03  0.7818608E-02  0.9822428E-01
          1   -1    0    0  502    0  0.00000000000E+00  0.00000000000E+00  0.10315898515E+03  0.10315898515E+03  0.00000000000E+00 0.  1.
         13   -1    0    0    0    0 -0.00000000000E+00 -0.00000000000E+00 -0.10000000000E+04  0.10000000000E+04  0.00000000000E+00 0.  1.
    9000005    2    1    2  501    0 -0.38490478149E-01 -0.88648913739E-02 -0.89704458001E+03  0.11029516234E+04  0.64172681383E+03 0.  0.
         13    1    3    3    0    0  0.30684274837E+01 -0.29256910099E+03 -0.22214023013E+03  0.36735864756E+03  0.00000000000E+00 0.  1.
          1    1    3    3  501    0 -0.31069179618E+01  0.29256023609E+03 -0.67490434988E+03  0.73559297588E+03  0.00000000000E+00 0.  1.
         21    1    1    2  502  501  0.38490478149E-01  0.88648913739E-02  0.20356515272E+00  0.20736169996E+00  0.00000000000E+00 0. -1.
<mgrwt>
<rscale>  1 0.64172682E+03</rscale>
<asrwt>0</asrwt>
<pdfrwt beam="1">  1        1 0.37512437E+00 0.64172682E+03</pdfrwt>
<pdfrwt beam="2">0</pdfrwt>
<totfact> 0.17268239E+00</totfact>
</mgrwt>
</event>
<event>
 6    1  0.3813560E-003  0.6538037E+03  0.7818608E-02  0.9799668E-01
          1   -1    0    0  502    0  0.00000000000E+00  0.00000000000E+00  0.10829313301E+03  0.10829313301E+03  0.00000000000E+00 0.  1.
         13   -1    0    0    0    0 -0.00000000000E+00 -0.00000000000E+00 -0.10000000000E+04  0.10000000000E+04  0.00000000000E+00 0.  1.
    9000005    2    1    2  501    0 -0.18966924330E+01 -0.13174185368E+01 -0.89201734898E+03  0.11059630187E+04  0.65379959831E+03 0.  0.
         13    1    3    3    0    0  0.14458687574E+03  0.26383135394E+03 -0.65685519450E+03  0.72247567053E+03  0.00000000000E+00 0.  1.
          1    1    3    3  501    0 -0.14648356817E+03 -0.26514877247E+03 -0.23516215448E+03  0.38348734814E+03  0.00000000000E+00 0.  1.
         21    1    1    2  502  501  0.18966924330E+01  0.13174185368E+01  0.31048199168E+00  0.23301143435E+01  0.00000000000E+00 0.  1.
<mgrwt>
<rscale>  1 0.65380368E+03</rscale>
<asrwt>0</asrwt>
<pdfrwt beam="1">  1        1 0.39379404E+00 0.65380368E+03</pdfrwt>
<pdfrwt beam="2">0</pdfrwt>
<totfact> 0.14246911E+00</totfact>
</mgrwt>
</event>
<event>
 6    1  0.3813560E-003  0.6474660E+03  0.7818608E-02  0.9811546E-01
          1   -1    0    0  502    0  0.00000000000E+00  0.00000000000E+00  0.10480499049E+03  0.10480499049E+03  0.00000000000E+00 0.  1.
         13   -1    0    0    0    0 -0.00000000000E+00 -0.00000000000E+00 -0.10000000000E+04  0.10000000000E+04  0.00000000000E+00 0.  1.
    9000005    2    1    2  501    0  0.31024234646E-02 -0.10442788910E-02 -0.89519529277E+03  0.11048017048E+04  0.64746597959E+03 0.  0.
         13    1    3    3    0    0 -0.83167941290E+02 -0.28315593716E+03 -0.67466948104E+03  0.73639194717E+03  0.00000000000E+00 0.  1.
          3    1    3    3  501    0  0.83171043713E+02  0.28315489288E+03 -0.22052581172E+03  0.36840975762E+03  0.00000000000E+00 0.  1.
         21    1    1    2  502  501 -0.31024234646E-02  0.10442788910E-02  0.28325598436E-03  0.32856937941E-02  0.00000000000E+00 0. -1.
<mgrwt>
<rscale>  1 0.64746598E+03</rscale>
<asrwt>0</asrwt>
<pdfrwt beam="1">  1        1 0.38110986E+00 0.64746598E+03</pdfrwt>
<pdfrwt beam="2">0</pdfrwt>
<totfact> 0.16233240E+00</totfact>
</mgrwt>
</event>
<event>
 6    1  0.3813560E-003  0.6761932E+03  0.7818608E-02  0.9758834E-01
          1   -1    0    0  502    0  0.00000000000E+00  0.00000000000E+00  0.11519330365E+03  0.11519330365E+03  0.00000000000E+00 0.  1.
         13   -1    0    0    0    0 -0.00000000000E+00 -0.00000000000E+00 -0.10000000000E+04  0.10000000000E+04  0.00000000000E+00 0.  1.
    9000005    2    1    2  501    0  0.63650012925E+00 -0.44630019928E+00 -0.88549583212E+03  0.11141544464E+04  0.67619276645E+03 0.  0.
         13    1    3    3    0    0 -0.54774472749E+02  0.68609144008E+02  0.95182150708E+02  0.12948783464E+03  0.00000000000E+00 0.  1.
          3    1    3    3  501    0  0.55410972878E+02 -0.69055444207E+02 -0.98067798283E+03  0.98466661175E+03  0.00000000000E+00 0.  1.
         21    1    1    2  502  501 -0.63650012925E+00  0.44630019928E+00  0.68913577155E+00  0.10388572539E+01  0.00000000000E+00 0. -1.
<mgrwt>
<rscale>  1 0.67619321E+03</rscale>
<asrwt>0</asrwt>
<pdfrwt beam="1">  1        1 0.41888562E+00 0.67619321E+03</pdfrwt>
<pdfrwt beam="2">0</pdfrwt>
<totfact> 0.10954052E+00</totfact>
</mgrwt>
</event>
<event>
 6    1  0.3813560E-003  0.6551939E+03  0.7818608E-02  0.9797082E-01
          3   -1    0    0  502    0  0.00000000000E+00  0.00000000000E+00  0.10732047515E+03  0.10732047515E+03  0.00000000000E+00 0.  1.
         13   -1    0    0    0    0 -0.00000000000E+00 -0.00000000000E+00 -0.10000000000E+04  0.10000000000E+04  0.00000000000E+00 0.  1.
    9000005    2    1    2  501    0  0.20835135672E-04 -0.40293906807E-05 -0.89268023602E+03  0.11073197637E+04  0.65519390657E+03 0.  0.
         13    1    3    3    0    0 -0.19023283985E+03  0.21836980135E+03 -0.70512340589E+03  0.76228139229E+03  0.00000000000E+00 0.  1.
          1    1    3    3  501    0  0.19023286069E+03 -0.21836980538E+03 -0.18755683013E+03  0.34503837137E+03  0.00000000000E+00 0.  1.
         21    1    1    2  502  501 -0.20835135673E-04  0.40293906782E-05  0.71117170713E-03  0.71148825421E-03  0.00000000000E+00 0.  1.
<mgrwt>
<rscale>  1 0.65519391E+03</rscale>
<asrwt>0</asrwt>
<pdfrwt beam="1">  1        3 0.39025710E+00 0.65519391E+03</pdfrwt>
<pdfrwt beam="2">0</pdfrwt>
<totfact> 0.66585071E-02</totfact>
</mgrwt>
</event>
<event>
 6    1  0.3813560E-003  0.6344092E+03  0.7818608E-02  0.9836482E-01
          1   -1    0    0  502    0  0.00000000000E+00  0.00000000000E+00  0.10061899031E+03  0.10061899031E+03  0.00000000000E+00 0.  1.
         13   -1    0    0    0    0 -0.00000000000E+00 -0.00000000000E+00 -0.10000000000E+04  0.10000000000E+04  0.00000000000E+00 0.  1.
    9000005    2    1    2  501    0 -0.39256880200E-04  0.48212225649E-03 -0.89938092425E+03  0.11006184991E+04  0.63440920048E+03 0.  0.
         13    1    3    3    0    0 -0.17100624730E+03 -0.11594602114E+03 -0.32122607197E+02  0.20908964185E+03  0.00000000000E+00 0.  1.
          1    1    3    3  501    0  0.17100620805E+03  0.11594650327E+03 -0.86725831706E+03  0.89152885725E+03  0.00000000000E+00 0.  1.
         21    1    1    2  502  501  0.39256880199E-04 -0.48212225648E-03 -0.85438840623E-04  0.49120542375E-03  0.00000000000E+00 0.  1.
<mgrwt>
<rscale>  1 0.63440920E+03</rscale>
<asrwt>0</asrwt>
<pdfrwt beam="1">  1        1 0.36588801E+00 0.63440920E+03</pdfrwt>
<pdfrwt beam="2">0</pdfrwt>
<totfact> 0.18984598E+00</totfact>
</mgrwt>
</event>
<event>
 6    1  0.3813560E-003  0.6502111E+03  0.7818608E-02  0.9806383E-01
          1   -1    0    0  502    0  0.00000000000E+00  0.00000000000E+00  0.10569361187E+03  0.10569361187E+03  0.00000000000E+00 0.  1.
         13   -1    0    0    0    0 -0.00000000000E+00 -0.00000000000E+00 -0.10000000000E+04  0.10000000000E+04  0.00000000000E+00 0.  1.
    9000005    2    1    2  501    0 -0.48625593081E-05 -0.73587707803E-05 -0.89430639202E+03  0.11056936022E+04  0.65021105743E+03 0.  0.
         13    1    3    3    0    0  0.31944039550E+03  0.58874570224E+02 -0.42400984504E+03  0.53412800899E+03  0.00000000000E+00 0.  1.
          3    1    3    3  501    0 -0.31944040037E+03 -0.58874577583E+02 -0.47029654698E+03  0.57156559324E+03  0.00000000000E+00 0.  1.
         21    1    1    2  502  501  0.48625593192E-05  0.73587707776E-05  0.38960365732E-05  0.96423592274E-05  0.00000000000E+00 0. -1.
<mgrwt>
<rscale>  1 0.65021106E+03</rscale>
<asrwt>0</asrwt>
<pdfrwt beam="1">  1        1 0.38434122E+00 0.65021106E+03</pdfrwt>
<pdfrwt beam="2">0</pdfrwt>
<totfact> 0.15700330E+00</totfact>
</mgrwt>
</event>
<event>
 6    1  0.3813560E-003  0.6304703E+03  0.7818608E-02  0.9844131E-01
          3   -1    0    0  502    0  0.00000000000E+00  0.00000000000E+00  0.10816552134E+03  0.10816552134E+03  0.00000000000E+00 0.  1.
         13   -1    0    0    0    0 -0.00000000000E+00 -0.00000000000E+00 -0.10000000000E+04  0.10000000000E+04  0.00000000000E+00 0.  1.
    9000005    2    1    2  501    0 -0.43527651578E+00  0.68598436893E+00 -0.90060615027E+03  0.10993563067E+04  0.63046981774E+03 0.  0.
         13    1    3    3    0    0  0.29498467642E+03 -0.91158548160E+02 -0.34158837703E+03  0.46044376372E+03  0.00000000000E+00 0.  1.
          1    1    3    3  501    0 -0.29541995294E+03  0.91844532529E+02 -0.55901777324E+03  0.63891254296E+03  0.00000000000E+00 0.  1.
         21    1    1    2  502  501  0.43527651578E+00 -0.68598436893E+00  0.87716716073E+01  0.88092146634E+01  0.00000000000E+00 0.  1.
<mgrwt>
<rscale>  1 0.63047034E+03</rscale>
<asrwt>0</asrwt>
<pdfrwt beam="1">  1        3 0.39333000E+00 0.63047034E+03</pdfrwt>
<pdfrwt beam="2">0</pdfrwt>
<totfact> 0.64425830E-02</totfact>
</mgrwt>
</event>
<event>
 6    1  0.3813560E-003  0.6545809E+03  0.7818608E-02  0.9798221E-01
          1   -1    0    0  502    0  0.00000000000E+00  0.00000000000E+00  0.12489437053E+03  0.12489437053E+03  0.00000000000E+00 0.  1.
         13   -1    0    0    0    0 -0.00000000000E+00 -0.00000000000E+00 -0.10000000000E+04  0.10000000000E+04  0.00000000000E+00 0.  1.
    9000005    2    1    2  501    0 -0.18862719434E+01  0.33594163118E+01 -0.89264954589E+03  0.11069323912E+04  0.65456952503E+03 0.  0.
         13    1    3    3    0    0 -0.12292216142E+02 -0.21129326430E+03 -0.25067259598E+02  0.21312979524E+03  0.00000000000E+00 0.  1.
          1    1    3    3  501    0  0.10405944199E+02  0.21465268061E+03 -0.86758228629E+03  0.89380259591E+03  0.00000000000E+00 0.  1.
         21    1    1    2  502  501  0.18862719434E+01 -0.33594163118E+01  0.17543916425E+02  0.17961979383E+02  0.00000000000E+00 0.  1.
<mgrwt>
<rscale>  1 0.65458086E+03</rscale>
<asrwt>0</asrwt>
<pdfrwt beam="1">  1        1 0.45416231E+00 0.65458086E+03</pdfrwt>
<pdfrwt beam="2">0</pdfrwt>
<totfact> 0.75939386E-01</totfact>
</mgrwt>
</event>
<event>
 6    1  0.3813560E-003  0.6473110E+03  0.7818608E-02  0.9811838E-01
          1   -1    0    0  502    0  0.00000000000E+00  0.00000000000E+00  0.10475858765E+03  0.10475858765E+03  0.00000000000E+00 0.  1.
         13   -1    0    0    0    0 -0.00000000000E+00 -0.00000000000E+00 -0.10000000000E+04  0.10000000000E+04  0.00000000000E+00 0.  1.
    9000005    2    1    2  501    0 -0.99862564923E-04  0.15229931356E-03 -0.89524710912E+03  0.11047528880E+04  0.64731102036E+03 0.  0.
         13    1    3    3    0    0  0.25948256575E+03  0.18806182241E+03 -0.52498044725E+03  0.61506334712E+03  0.00000000000E+00 0.  1.
          1    1    3    3  501    0 -0.25948266562E+03 -0.18806167011E+03 -0.37026666187E+03  0.48968954084E+03  0.00000000000E+00 0.  1.
         21    1    1    2  502  501  0.99862564932E-04 -0.15229931357E-03  0.56967676071E-02  0.56996779542E-02  0.00000000000E+00 0. -1.
<mgrwt>
<rscale>  1 0.64731102E+03</rscale>
<asrwt>0</asrwt>
<pdfrwt beam="1">  1        1 0.38094112E+00 0.64731102E+03</pdfrwt>
<pdfrwt beam="2">0</pdfrwt>
<totfact> 0.16261570E+00</totfact>
</mgrwt>
</event>
<event>
 6    1  0.3813560E-003  0.5409049E+03  0.7818608E-02  0.1003621E+00
          1   -1    0    0  502    0  0.00000000000E+00  0.00000000000E+00  0.75951137154E+02  0.75951137154E+02  0.00000000000E+00 0.  1.
         13   -1    0    0    0    0 -0.00000000000E+00 -0.00000000000E+00 -0.10000000000E+04  0.10000000000E+04  0.00000000000E+00 0.  1.
    9000005    2    1    2  501    0  0.20549995273E+01 -0.88911793690E+01 -0.91600104127E+03  0.10637838233E+04  0.54082792002E+03 0.  0.
         13    1    3    3    0    0 -0.15213515338E+03  0.21455416797E+03 -0.53251825462E+03  0.59393121436E+03  0.00000000000E+00 0.  1.
          3    1    3    3  501    0  0.15419015290E+03 -0.22344534734E+03 -0.38348278664E+03  0.46985260896E+03  0.00000000000E+00 0.  1.
         21    1    1    2  502  501 -0.20549995273E+01  0.88911793690E+01 -0.80478215776E+01  0.12167313827E+02  0.00000000000E+00 0.  1.
<mgrwt>
<rscale>  1 0.54090490E+03</rscale>
<asrwt>0</asrwt>
<pdfrwt beam="1">  1        1 0.27618654E+00 0.54090490E+03</pdfrwt>
<pdfrwt beam="2">0</pdfrwt>
<totfact> 0.47233687E+00</totfact>
</mgrwt>
</event>
<event>
 6    1  0.3813560E-003  0.6468894E+03  0.7818608E-02  0.9812634E-01
          1   -1    0    0  502    0  0.00000000000E+00  0.00000000000E+00  0.10606913688E+03  0.10606913688E+03  0.00000000000E+00 0.  1.
         13   -1    0    0    0    0 -0.00000000000E+00 -0.00000000000E+00 -0.10000000000E+04  0.10000000000E+04  0.00000000000E+00 0.  1.
    9000005    2    1    2  501    0  0.35544014793E+00  0.20726112764E+01 -0.89449083118E+03  0.11038929890E+04  0.64688597305E+03 0.  0.
         13    1    3    3    0    0  0.31362113073E+03 -0.77204267007E+02 -0.42031706077E+03  0.53008031850E+03  0.00000000000E+00 0.  1.
          3    1    3    3  501    0 -0.31326569058E+03  0.79276878284E+02 -0.47417377041E+03  0.57381267054E+03  0.00000000000E+00 0.  1.
         21    1    1    2  502  501 -0.35544014793E+00 -0.20726112764E+01  0.55996805800E+00  0.21761478414E+01  0.00000000000E+00 0. -1.
<mgrwt>
<rscale>  1 0.64688939E+03</rscale>
<asrwt>0</asrwt>
<pdfrwt beam="1">  1        1 0.38570677E+00 0.64688939E+03</pdfrwt>
<pdfrwt beam="2">0</pdfrwt>
<totfact> 0.15493018E+00</totfact>
</mgrwt>
</event>
<event>
 6    1  0.3813560E-003  0.6506373E+03  0.7818608E-02  0.9805584E-01
          1   -1    0    0  502    0  0.00000000000E+00  0.00000000000E+00  0.10628840912E+03  0.10628840912E+03  0.00000000000E+00 0.  1.
         13   -1    0    0    0    0 -0.00000000000E+00 -0.00000000000E+00 -0.10000000000E+04  0.10000000000E+04  0.00000000000E+00 0.  1.
    9000005    2    1    2  501    0 -0.55396790390E+00 -0.17514021399E+00 -0.89395356674E+03  0.11056590389E+04  0.65063706726E+03 0.  0.
         13    1    3    3    0    0  0.20746014077E+03  0.24330743836E+03 -0.54626037249E+03  0.63296019948E+03  0.00000000000E+00 0.  1.
          1    1    3    3  501    0 -0.20801410868E+03 -0.24348257857E+03 -0.34769319425E+03  0.47269883944E+03  0.00000000000E+00 0.  1.
         21    1    1    2  502  501  0.55396790390E+00  0.17514021399E+00  0.24197585719E+00  0.62937019994E+00  0.00000000000E+00 0. -1.
<mgrwt>
<rscale>  1 0.65063733E+03</rscale>
<asrwt>0</asrwt>
<pdfrwt beam="1">  1        1 0.38650412E+00 0.65063733E+03</pdfrwt>
<pdfrwt beam="2">0</pdfrwt>
<totfact> 0.15356972E+00</totfact>
</mgrwt>
</event>
<event>
 6    1  0.3813560E-003  0.6559950E+03  0.7818608E-02  0.9795595E-01
          1   -1    0    0  502    0  0.00000000000E+00  0.00000000000E+00  0.10759571260E+03  0.10759571260E+03  0.00000000000E+00 0.  1.
         13   -1    0    0    0    0 -0.00000000000E+00 -0.00000000000E+00 -0.10000000000E+04  0.10000000000E+04  0.00000000000E+00 0.  1.
    9000005    2    1    2  501    0  0.28041038408E-03  0.36751333369E-04 -0.89241764231E+03  0.11075823547E+04  0.65599498787E+03 0.  0.
         13    1    3    3    0    0 -0.10198052127E+03 -0.28023869139E+03 -0.67677631505E+03  0.73956739482E+03  0.00000000000E+00 0.  1.
          1    1    3    3  501    0  0.10198080168E+03  0.28023872814E+03 -0.21564132727E+03  0.36801495987E+03  0.00000000000E+00 0.  1.
         21    1    1    2  502  501 -0.28041038408E-03 -0.36751333374E-04  0.13354915361E-01  0.13357909452E-01  0.00000000000E+00 0. -1.
<mgrwt>
<rscale>  1 0.65599499E+03</rscale>
<asrwt>0</asrwt>
<pdfrwt beam="1">  1        1 0.39125796E+00 0.65599499E+03</pdfrwt>
<pdfrwt beam="2">0</pdfrwt>
<totfact> 0.14615202E+00</totfact>
</mgrwt>
</event>
<event>
 6    1  0.3813560E-003  0.6472422E+03  0.7818608E-02  0.9811968E-01
          3   -1    0    0  502    0  0.00000000000E+00  0.00000000000E+00  0.10831212708E+03  0.10831212708E+03  0.00000000000E+00 0.  1.
         13   -1    0    0    0    0 -0.00000000000E+00 -0.00000000000E+00 -0.10000000000E+04  0.10000000000E+04  0.00000000000E+00 0.  1.
    9000005    2    1    2  501    0 -0.24223768484E+00  0.12834688007E+00 -0.89526357334E+03  0.11047259333E+04  0.64724218565E+03 0.  0.
         13    1    3    3    0    0  0.12416922140E+03 -0.29873356131E+03 -0.45015596175E+03  0.55434657579E+03  0.00000000000E+00 0.  1.
          1    1    3    3  501    0 -0.12441145909E+03  0.29886190819E+03 -0.44510761160E+03  0.55037935755E+03  0.00000000000E+00 0.  1.
         21    1    1    2  502  501  0.24223768484E+00 -0.12834688007E+00  0.35757004222E+01  0.35861937380E+01  0.00000000000E+00 0. -1.
<mgrwt>
<rscale>  1 0.64724224E+03</rscale>
<asrwt>0</asrwt>
<pdfrwt beam="1">  1        3 0.39386311E+00 0.64724224E+03</pdfrwt>
<pdfrwt beam="2">0</pdfrwt>
<totfact> 0.63827209E-02</totfact>
</mgrwt>
</event>
<event>
 6    1  0.3813560E-003  0.6473359E+03  0.7818608E-02  0.9811791E-01
          1   -1    0    0  502    0  0.00000000000E+00  0.00000000000E+00  0.10476133558E+03  0.10476133558E+03  0.00000000000E+00 0.  1.
         13   -1    0    0    0    0 -0.00000000000E+00 -0.00000000000E+00 -0.10000000000E+04  0.10000000000E+04  0.00000000000E+00 0.  1.
    9000005    2    1    2  501    0  0.17851750111E-03 -0.24984604683E-03 -0.89523900493E+03  0.11047608771E+04  0.64733586302E+03 0.  0.
         13    1    3    3    0    0  0.12021449759E+03 -0.72962369586E+01 -0.96033585027E+03  0.96785830875E+03  0.00000000000E+00 0.  1.
          3    1    3    3  501    0 -0.12021431907E+03  0.72959871126E+01  0.65096845342E+02  0.13690256832E+03  0.00000000000E+00 0.  1.
         21    1    1    2  502  501 -0.17851750111E-03  0.24984604683E-03  0.34050244187E-03  0.45851222256E-03  0.00000000000E+00 0. -1.
<mgrwt>
<rscale>  1 0.64733586E+03</rscale>
<asrwt>0</asrwt>
<pdfrwt beam="1">  1        1 0.38095111E+00 0.64733586E+03</pdfrwt>
<pdfrwt beam="2">0</pdfrwt>
<totfact> 0.16259844E+00</totfact>
</mgrwt>
</event>
<event>
 6    1  0.3813560E-003  0.4918910E+03  0.7818608E-02  0.1015917E+00
          1   -1    0    0  502    0  0.00000000000E+00  0.00000000000E+00  0.60490149462E+02  0.60490149462E+02  0.00000000000E+00 0.  1.
         13   -1    0    0    0    0 -0.00000000000E+00 -0.00000000000E+00 -0.10000000000E+04  0.10000000000E+04  0.00000000000E+00 0.  1.
    9000005    2    1    2  501    0  0.24766162335E-03 -0.22068729180E-04 -0.93951078172E+03  0.10604891857E+04  0.49189104882E+03 0.  0.
         13    1    3    3    0    0  0.18787658691E+03  0.12755155472E+03 -0.67340073396E+03  0.71065853933E+03  0.00000000000E+00 0.  1.
          3    1    3    3  501    0 -0.18787633925E+03 -0.12755157678E+03 -0.26611004776E+03  0.34983064632E+03  0.00000000000E+00 0.  1.
         21    1    1    2  502  501 -0.24766162334E-03  0.22068729182E-04  0.93118465082E-03  0.96380919399E-03  0.00000000000E+00 0. -1.
<mgrwt>
<rscale>  1 0.49189105E+03</rscale>
<asrwt>0</asrwt>
<pdfrwt beam="1">  1        1 0.21996464E+00 0.49189105E+03</pdfrwt>
<pdfrwt beam="2">0</pdfrwt>
<totfact> 0.83765912E+00</totfact>
</mgrwt>
</event>
<event>
 6    1  0.3813560E-003  0.6363956E+03  0.7818608E-02  0.9832647E-01
          1   -1    0    0  502    0  0.00000000000E+00  0.00000000000E+00  0.10202087559E+03  0.10202087559E+03  0.00000000000E+00 0.  1.
         13   -1    0    0    0    0 -0.00000000000E+00 -0.00000000000E+00 -0.10000000000E+04  0.10000000000E+04  0.00000000000E+00 0.  1.
    9000005    2    1    2  501    0  0.68320531689E-02 -0.96864210620E-02 -0.89875010263E+03  0.11012498063E+04  0.63639562276E+03 0.  0.
         13    1    3    3    0    0 -0.60352307087E+02 -0.51571655308E+01 -0.98992957542E+03  0.99178100487E+03  0.00000000000E+00 0.  1.
          3    1    3    3  501    0  0.60359139141E+02  0.51474791097E+01  0.91179472791E+02  0.10946880139E+03  0.00000000000E+00 0.  1.
         21    1    1    2  502  501 -0.68320531689E-02  0.96864210620E-02  0.77097822045E+00  0.77106933548E+00  0.00000000000E+00 0.  1.
<mgrwt>
<rscale>  1 0.63639562E+03</rscale>
<asrwt>0</asrwt>
<pdfrwt beam="1">  1        1 0.37098578E+00 0.63639562E+03</pdfrwt>
<pdfrwt beam="2">0</pdfrwt>
<totfact> 0.18024858E+00</totfact>
</mgrwt>
</event>
<event>
 6    1  0.3813560E-003  0.6462390E+03  0.7818608E-02  0.9813862E-01
          1   -1    0    0  502    0  0.00000000000E+00  0.00000000000E+00  0.10440626091E+03  0.10440626091E+03  0.00000000000E+00 0.  1.
         13   -1    0    0    0    0 -0.00000000000E+00 -0.00000000000E+00 -0.10000000000E+04  0.10000000000E+04  0.00000000000E+00 0.  1.
    9000005    2    1    2  501    0  0.31537675227E-06  0.20957940947E-05 -0.89559377548E+03  0.11044062245E+04  0.64623904087E+03 0.  0.
         13    1    3    3    0    0 -0.23250643528E+03  0.17026672396E+02 -0.83015330736E+03  0.86226658507E+03  0.00000000000E+00 0.  1.
          3    1    3    3  501    0  0.23250643559E+03 -0.17026670301E+02 -0.65440468125E+02  0.24213963938E+03  0.00000000000E+00 0.  1.
         21    1    1    2  502  501 -0.31537675962E-06 -0.20957940924E-05  0.36390386578E-04  0.36452051392E-04  0.00000000000E+00 0. -1.
<mgrwt>
<rscale>  1 0.64623904E+03</rscale>
<asrwt>0</asrwt>
<pdfrwt beam="1">  1        1 0.37965993E+00 0.64623904E+03</pdfrwt>
<pdfrwt beam="2">0</pdfrwt>
<totfact> 0.16477898E+00</totfact>
</mgrwt>
</event>
<event>
 6    1  0.3813560E-003  0.6534684E+03  0.7818608E-02  0.9800293E-01
          1   -1    0    0  502    0  0.00000000000E+00  0.00000000000E+00  0.10676240282E+03  0.10676240282E+03  0.00000000000E+00 0.  1.
         13   -1    0    0    0    0 -0.00000000000E+00 -0.00000000000E+00 -0.10000000000E+04  0.10000000000E+04  0.00000000000E+00 0.  1.
    9000005    2    1    2  501    0  0.10579629678E-02  0.46066791015E-03 -0.89324472712E+03  0.11067551801E+04  0.65346835132E+03 0.  0.
         13    1    3    3    0    0 -0.24522740299E+02 -0.20233379244E+03 -0.87913594686E+03  0.90245240396E+03  0.00000000000E+00 0.  1.
          3    1    3    3  501    0  0.24523798262E+02  0.20233425311E+03 -0.14108780255E+02  0.20430277615E+03  0.00000000000E+00 0.  1.
         21    1    1    2  502  501 -0.10579629678E-02 -0.46066791017E-03  0.71299352812E-02  0.72227057035E-02  0.00000000000E+00 0. -1.
<mgrwt>
<rscale>  1 0.65346835E+03</rscale>
<asrwt>0</asrwt>
<pdfrwt beam="1">  1        1 0.38822774E+00 0.65346835E+03</pdfrwt>
<pdfrwt beam="2">0</pdfrwt>
<totfact> 0.15081511E+00</totfact>
</mgrwt>
</event>
<event>
 6    1  0.3813560E-003  0.6457020E+03  0.7818608E-02  0.9814878E-01
          1   -1    0    0  502    0  0.00000000000E+00  0.00000000000E+00  0.10423285358E+03  0.10423285358E+03  0.00000000000E+00 0.  1.
         13   -1    0    0    0    0 -0.00000000000E+00 -0.00000000000E+00 -0.10000000000E+04  0.10000000000E+04  0.00000000000E+00 0.  1.
    9000005    2    1    2  501    0  0.16547984387E-05 -0.11274662597E-04 -0.89576722934E+03  0.11042327699E+04  0.64570200630E+03 0.  0.
         13    1    3    3    0    0 -0.15214925513E+03 -0.25815429107E+03 -0.65338188945E+03  0.71881912001E+03  0.00000000000E+00 0.  1.
          1    1    3    3  501    0  0.15214925678E+03  0.25815427980E+03 -0.24238533989E+03  0.38541364988E+03  0.00000000000E+00 0.  1.
         21    1    1    2  502  501 -0.16547984428E-05  0.11274662556E-04  0.82915623606E-04  0.83695023816E-04  0.00000000000E+00 0. -1.
<mgrwt>
<rscale>  1 0.64570201E+03</rscale>
<asrwt>0</asrwt>
<pdfrwt beam="1">  1        1 0.37902936E+00 0.64570201E+03</pdfrwt>
<pdfrwt beam="2">0</pdfrwt>
<totfact> 0.16585403E+00</totfact>
</mgrwt>
</event>
<event>
 6    1  0.3813560E-003  0.6504626E+03  0.7818608E-02  0.9805912E-01
          1   -1    0    0  502    0  0.00000000000E+00  0.00000000000E+00  0.10635041689E+03  0.10635041689E+03  0.00000000000E+00 0.  1.
         13   -1    0    0    0    0 -0.00000000000E+00 -0.00000000000E+00 -0.10000000000E+04  0.10000000000E+04  0.00000000000E+00 0.  1.
    9000005    2    1    2  501    0  0.16102856137E-01  0.14100662865E-01 -0.89422439747E+03  0.11057752042E+04  0.65046254977E+03 0.  0.
         13    1    3    3    0    0  0.54476989655E+02  0.30819220713E+02 -0.98967091340E+03  0.99164816523E+03  0.00000000000E+00 0.  1.
          1    1    3    3  501    0 -0.54460886799E+02 -0.30805120050E+02  0.95446515931E+02  0.11412703893E+03  0.00000000000E+00 0.  1.
         21    1    1    2  502  501 -0.16102856137E-01 -0.14100662865E-01  0.57481436374E+00  0.57521272885E+00  0.00000000000E+00 0. -1.
<mgrwt>
<rscale>  1 0.65046255E+03</rscale>
<asrwt>0</asrwt>
<pdfrwt beam="1">  1        1 0.38672960E+00 0.65046255E+03</pdfrwt>
<pdfrwt beam="2">0</pdfrwt>
<totfact> 0.15322213E+00</totfact>
</mgrwt>
</event>
<event>
 6    1  0.3813560E-003  0.6407361E+03  0.7818608E-02  0.9824319E-01
          1   -1    0    0  502    0  0.00000000000E+00  0.00000000000E+00  0.10263578877E+03  0.10263578877E+03  0.00000000000E+00 0.  1.
         13   -1    0    0    0    0 -0.00000000000E+00 -0.00000000000E+00 -0.10000000000E+04  0.10000000000E+04  0.00000000000E+00 0.  1.
    9000005    2    1    2  501    0  0.29857369441E-04 -0.44511952268E-04 -0.89736429646E+03  0.11026356881E+04  0.64073612361E+03 0.  0.
         13    1    3    3    0    0 -0.72551908063E+02 -0.24215813530E+03 -0.11000632537E+03  0.27569137360E+03  0.00000000000E+00 0.  1.
          3    1    3    3  501    0  0.72551937921E+02  0.24215809079E+03 -0.78735797109E+03  0.82694431449E+03  0.00000000000E+00 0.  1.
         21    1    1    2  502  501 -0.29857369447E-04  0.44511952287E-04  0.85227206131E-04  0.10067995367E-03  0.00000000000E+00 0.  1.
<mgrwt>
<rscale>  1 0.64073612E+03</rscale>
<asrwt>0</asrwt>
<pdfrwt beam="1">  1        1 0.37322184E+00 0.64073612E+03</pdfrwt>
<pdfrwt beam="2">0</pdfrwt>
<totfact> 0.17607516E+00</totfact>
</mgrwt>
</event>
<event>
 6    1  0.3813560E-003  0.6624231E+03  0.7818608E-02  0.9783743E-01
          1   -1    0    0  502    0  0.00000000000E+00  0.00000000000E+00  0.11273789111E+03  0.11273789111E+03  0.00000000000E+00 0.  1.
         13   -1    0    0    0    0 -0.00000000000E+00 -0.00000000000E+00 -0.10000000000E+04  0.10000000000E+04  0.00000000000E+00 0.  1.
    9000005    2    1    2  501    0 -0.21302337336E+00  0.55326052729E+00 -0.89026676553E+03  0.11096753043E+04  0.66242283762E+03 0.  0.
         13    1    3    3    0    0  0.26233707702E+03  0.20180719443E+03 -0.42098181162E+03  0.53551150447E+03  0.00000000000E+00 0.  1.
          1    1    3    3  501    0 -0.26255010040E+03 -0.20125393390E+03 -0.46928495390E+03  0.57416379988E+03  0.00000000000E+00 0.  1.
         21    1    1    2  502  501  0.21302337336E+00 -0.55326052729E+00  0.30046566342E+01  0.30625867593E+01  0.00000000000E+00 0.  1.
<mgrwt>
<rscale>  1 0.66242310E+03</rscale>
<asrwt>0</asrwt>
<pdfrwt beam="1">  1        1 0.40995683E+00 0.66242310E+03</pdfrwt>
<pdfrwt beam="2">0</pdfrwt>
<totfact> 0.12046838E+00</totfact>
</mgrwt>
</event>
<event>
 6    1  0.3813560E-003  0.6490404E+03  0.7818608E-02  0.9808581E-01
          1   -1    0    0  502    0  0.00000000000E+00  0.00000000000E+00  0.10829693150E+03  0.10829693150E+03  0.00000000000E+00 0.  1.
         13   -1    0    0    0    0 -0.00000000000E+00 -0.00000000000E+00 -0.10000000000E+04  0.10000000000E+04  0.00000000000E+00 0.  1.
    9000005    2    1    2  501    0 -0.27656341223E-01  0.51078653758E-01 -0.89468631293E+03  0.11053131216E+04  0.64904044171E+03 0.  0.
         13    1    3    3    0    0  0.19109933010E+03 -0.19592165451E+03 -0.15041334041E+03  0.31229540765E+03  0.00000000000E+00 0.  1.
          1    1    3    3  501    0 -0.19112698644E+03  0.19597273316E+03 -0.74427297252E+03  0.79301771400E+03  0.00000000000E+00 0.  1.
         21    1    1    2  502  501  0.27656341223E-01 -0.51078653758E-01  0.29832444276E+01  0.29838098493E+01  0.00000000000E+00 0.  1.
<mgrwt>
<rscale>  1 0.64904044E+03</rscale>
<asrwt>0</asrwt>
<pdfrwt beam="1">  1        1 0.39380785E+00 0.64904044E+03</pdfrwt>
<pdfrwt beam="2">0</pdfrwt>
<totfact> 0.14257637E+00</totfact>
</mgrwt>
</event>
<event>
 6    1  0.3813560E-003  0.6330378E+03  0.7818608E-02  0.9839139E-01
          3   -1    0    0  502    0  0.00000000000E+00  0.00000000000E+00  0.10022109475E+03  0.10022109475E+03  0.00000000000E+00 0.  1.
         13   -1    0    0    0    0 -0.00000000000E+00 -0.00000000000E+00 -0.10000000000E+04  0.10000000000E+04  0.00000000000E+00 0.  1.
    9000005    2    1    2  501    0 -0.17723764140E-02 -0.16014516680E-02 -0.89981575688E+03  0.11001841658E+04  0.63303775741E+03 0.  0.
         13    1    3    3    0    0  0.13223193915E+03 -0.23107028492E+03 -0.15239179585E+03  0.30676052834E+03  0.00000000000E+00 0.  1.
          1    1    3    3  501    0 -0.13223371152E+03  0.23106868347E+03 -0.74742396103E+03  0.79342363745E+03  0.00000000000E+00 0.  1.
         21    1    1    2  502  501  0.17723764140E-02  0.16014516680E-02  0.36851631902E-01  0.36928968838E-01  0.00000000000E+00 0.  1.
<mgrwt>
<rscale>  1 0.63303776E+03</rscale>
<asrwt>0</asrwt>
<pdfrwt beam="1">  1        3 0.36444111E+00 0.63303776E+03</pdfrwt>
<pdfrwt beam="2">0</pdfrwt>
<totfact> 0.91497341E-02</totfact>
</mgrwt>
</event>
<event>
 6    1  0.3813560E-003  0.6507714E+03  0.7818608E-02  0.9805333E-01
          1   -1    0    0  502    0  0.00000000000E+00  0.00000000000E+00  0.10587991898E+03  0.10587991898E+03  0.00000000000E+00 0.  1.
         13   -1    0    0    0    0 -0.00000000000E+00 -0.00000000000E+00 -0.10000000000E+04  0.10000000000E+04  0.00000000000E+00 0.  1.
    9000005    2    1    2  501    0  0.14043300622E-02  0.38297419383E-03 -0.89412399388E+03  0.11058757441E+04  0.65077142305E+03 0.  0.
         13    1    3    3    0    0 -0.18308908611E+02 -0.32004831664E+03 -0.35230100617E+03  0.47632146715E+03  0.00000000000E+00 0.  1.
          3    1    3    3  501    0  0.18310312941E+02  0.32004869961E+03 -0.54182298770E+03  0.62955427700E+03  0.00000000000E+00 0.  1.
         21    1    1    2  502  501 -0.14043300622E-02 -0.38297419382E-03  0.39128599088E-02  0.41748394966E-02  0.00000000000E+00 0.  1.
<mgrwt>
<rscale>  1 0.65077142E+03</rscale>
<asrwt>0</asrwt>
<pdfrwt beam="1">  1        1 0.38501870E+00 0.65077142E+03</pdfrwt>
<pdfrwt beam="2">0</pdfrwt>
<totfact> 0.15590774E+00</totfact>
</mgrwt>
</event>
<event>
 6    1  0.3813560E-003  0.6503451E+03  0.7818608E-02  0.9806132E-01
          1   -1    0    0  502    0  0.00000000000E+00  0.00000000000E+00  0.10573781341E+03  0.10573781341E+03  0.00000000000E+00 0.  1.
         13   -1    0    0    0    0 -0.00000000000E+00 -0.00000000000E+00 -0.10000000000E+04  0.10000000000E+04  0.00000000000E+00 0.  1.
    9000005    2    1    2  501    0 -0.77094272228E-05  0.20530003943E-03 -0.89426280892E+03  0.11057371580E+04  0.65034505554E+03 0.  0.
         13    1    3    3    0    0 -0.14373062055E+03 -0.18494268063E+03 -0.83062625982E+03  0.86301927551E+03  0.00000000000E+00 0.  1.
          3    1    3    3  501    0  0.14373061284E+03  0.18494288593E+03 -0.63636549106E+02  0.24271788254E+03  0.00000000000E+00 0.  1.
         21    1    1    2  502  501  0.77094272141E-05 -0.20530003943E-03  0.62233452663E-03  0.65536844942E-03  0.00000000000E+00 0.  1.
<mgrwt>
<rscale>  1 0.65034506E+03</rscale>
<asrwt>0</asrwt>
<pdfrwt beam="1">  1        1 0.38450195E+00 0.65034506E+03</pdfrwt>
<pdfrwt beam="2">0</pdfrwt>
<totfact> 0.15674269E+00</totfact>
</mgrwt>
</event>
<event>
 6    1  0.3813560E-003  0.6463082E+03  0.7818608E-02  0.9813731E-01
          1   -1    0    0  502    0  0.00000000000E+00  0.00000000000E+00  0.10443076328E+03  0.10443076328E+03  0.00000000000E+00 0.  1.
         13   -1    0    0    0    0 -0.00000000000E+00 -0.00000000000E+00 -0.10000000000E+04  0.10000000000E+04  0.00000000000E+00 0.  1.
    9000005    2    1    2  501    0 -0.42865739337E-02  0.38459074747E-02 -0.89555352982E+03  0.11044140339E+04  0.64630815671E+03 0.  0.
         13    1    3    3    0    0 -0.64378023280E+02 -0.24111202238E+03 -0.79859401648E+03  0.83667911434E+03  0.00000000000E+00 0.  1.
          3    1    3    3  501    0  0.64373736706E+02  0.24111586829E+03 -0.96959513346E+02  0.26773491955E+03  0.00000000000E+00 0.  1.
         21    1    1    2  502  501  0.42865739337E-02 -0.38459074747E-02 -0.15706901610E-01  0.16729389666E-01  0.00000000000E+00 0.  1.
<mgrwt>
<rscale>  1 0.64630816E+03</rscale>
<asrwt>0</asrwt>
<pdfrwt beam="1">  1        1 0.37974903E+00 0.64630816E+03</pdfrwt>
<pdfrwt beam="2">0</pdfrwt>
<totfact> 0.16462782E+00</totfact>
</mgrwt>
</event>
<event>
 6    1  0.3813560E-003  0.6340134E+03  0.7818608E-02  0.9837248E-01
          1   -1    0    0  502    0  0.00000000000E+00  0.00000000000E+00  0.10050238519E+03  0.10050238519E+03  0.00000000000E+00 0.  1.
         13   -1    0    0    0    0 -0.00000000000E+00 -0.00000000000E+00 -0.10000000000E+04  0.10000000000E+04  0.00000000000E+00 0.  1.
    9000005    2    1    2  501    0  0.47357494421E-03 -0.35851861561E-03 -0.89950675072E+03  0.11004932300E+04  0.63401337105E+03 0.  0.
         13    1    3    3    0    0 -0.18718436772E+03 -0.50729356082E+02 -0.88501560589E+03  0.90601549532E+03  0.00000000000E+00 0.  1.
          1    1    3    3  501    0  0.18718484130E+03  0.50728997564E+02 -0.14491144830E+02  0.19447773467E+03  0.00000000000E+00 0.  1.
         21    1    1    2  502  501 -0.47357494421E-03  0.35851861561E-03  0.91359054127E-02  0.91551939650E-02  0.00000000000E+00 0. -1.
<mgrwt>
<rscale>  1 0.63401337E+03</rscale>
<asrwt>0</asrwt>
<pdfrwt beam="1">  1        1 0.36546399E+00 0.63401337E+03</pdfrwt>
<pdfrwt beam="2">0</pdfrwt>
<totfact> 0.19067393E+00</totfact>
</mgrwt>
</event>
<event>
 6    1  0.3813560E-003  0.6471039E+03  0.7818608E-02  0.9812229E-01
          1   -1    0    0  502    0  0.00000000000E+00  0.00000000000E+00  0.10471800021E+03  0.10471800021E+03  0.00000000000E+00 0.  1.
         13   -1    0    0    0    0 -0.00000000000E+00 -0.00000000000E+00 -0.10000000000E+04  0.10000000000E+04  0.00000000000E+00 0.  1.
    9000005    2    1    2  501    0  0.24467300133E-04  0.50450433235E-03 -0.89531413422E+03  0.11046858618E+04  0.64710389764E+03 0.  0.
         13    1    3    3    0    0 -0.96537859758E+01 -0.13187390147E+03  0.56455838187E+02  0.14377476531E+03  0.00000000000E+00 0.  1.
          3    1    3    3  501    0  0.96538104431E+01  0.13187440598E+03 -0.95176997241E+03  0.96091109650E+03  0.00000000000E+00 0.  1.
         21    1    1    2  502  501 -0.24467300133E-04 -0.50450433237E-03  0.32134433135E-01  0.32138402515E-01  0.00000000000E+00 0.  1.
<mgrwt>
<rscale>  1 0.64710390E+03</rscale>
<asrwt>0</asrwt>
<pdfrwt beam="1">  1        1 0.38079353E+00 0.64710390E+03</pdfrwt>
<pdfrwt beam="2">0</pdfrwt>
<totfact> 0.16286603E+00</totfact>
</mgrwt>
</event>
<event>
 6    1  0.3813560E-003  0.6419380E+03  0.7818608E-02  0.9822026E-01
          1   -1    0    0  502    0  0.00000000000E+00  0.00000000000E+00  0.10307317443E+03  0.10307317443E+03  0.00000000000E+00 0.  1.
         13   -1    0    0    0    0 -0.00000000000E+00 -0.00000000000E+00 -0.10000000000E+04  0.10000000000E+04  0.00000000000E+00 0.  1.
    9000005    2    1    2  501    0 -0.56639085530E-01  0.17238534176E-01 -0.89695966592E+03  0.11030054718E+04  0.64193802279E+03 0.  0.
         13    1    3    3    0    0 -0.32879502275E+02  0.19637971958E+03 -0.15915968649E+02  0.19974827656E+03  0.00000000000E+00 0.  1.
          3    1    3    3  501    0  0.32822863189E+02 -0.19636248105E+03 -0.88104369727E+03  0.90325719527E+03  0.00000000000E+00 0.  1.
         21    1    1    2  502  501  0.56639085530E-01 -0.17238534176E-01  0.32840353160E-01  0.67702598664E-01  0.00000000000E+00 0. -1.
<mgrwt>
<rscale>  1 0.64193803E+03</rscale>
<asrwt>0</asrwt>
<pdfrwt beam="1">  1        1 0.37481233E+00 0.64193803E+03</pdfrwt>
<pdfrwt beam="2">0</pdfrwt>
<totfact> 0.17322269E+00</totfact>
</mgrwt>
</event>
<event>
 6    1  0.3813560E-003  0.6514703E+03  0.7818608E-02  0.9804024E-01
          1   -1    0    0  502    0  0.00000000000E+00  0.00000000000E+00  0.10613108028E+03  0.10613108028E+03  0.00000000000E+00 0.  1.
         13   -1    0    0    0    0 -0.00000000000E+00 -0.00000000000E+00 -0.10000000000E+04  0.10000000000E+04  0.00000000000E+00 0.  1.
    9000005    2    1    2  501    0 -0.26981382810E-02  0.60400155173E-02 -0.89389615978E+03  0.11061030485E+04  0.65147034417E+03 0.  0.
         13    1    3    3    0    0  0.24700168026E+03  0.20337368308E+03 -0.55068924716E+03  0.63689036102E+03  0.00000000000E+00 0.  1.
          3    1    3    3  501    0 -0.24700437840E+03 -0.20336764307E+03 -0.34320691262E+03  0.46921268745E+03  0.00000000000E+00 0.  1.
         21    1    1    2  502  501  0.26981382810E-02 -0.60400155173E-02  0.27240051919E-01  0.28031806331E-01  0.00000000000E+00 0.  1.
<mgrwt>
<rscale>  1 0.65147034E+03</rscale>
<asrwt>0</asrwt>
<pdfrwt beam="1">  1        1 0.38593201E+00 0.65147034E+03</pdfrwt>
<pdfrwt beam="2">0</pdfrwt>
<totfact> 0.15444391E+00</totfact>
</mgrwt>
</event>
<event>
 6    1  0.3813560E-003  0.6478191E+03  0.7818608E-02  0.9810880E-01
          1   -1    0    0  502    0  0.00000000000E+00  0.00000000000E+00  0.10492153924E+03  0.10492153924E+03  0.00000000000E+00 0.  1.
         13   -1    0    0    0    0 -0.00000000000E+00 -0.00000000000E+00 -0.10000000000E+04  0.10000000000E+04  0.00000000000E+00 0.  1.
    9000005    2    1    2  501    0  0.42777508032E-02 -0.60139564584E-03 -0.89508133246E+03  0.11049163520E+04  0.64781907442E+03 0.  0.
         13    1    3    3    0    0 -0.15969561482E+03 -0.27232025616E+03 -0.32388860620E+03  0.45228844838E+03  0.00000000000E+00 0.  1.
          1    1    3    3  501    0  0.15969989257E+03  0.27231965476E+03 -0.57119272626E+03  0.65262790362E+03  0.00000000000E+00 0.  1.
         21    1    1    2  502  501 -0.42777508032E-02  0.60139564583E-03  0.28717008529E-02  0.51872434342E-02  0.00000000000E+00 0. -1.
<mgrwt>
<rscale>  1 0.64781907E+03</rscale>
<asrwt>0</asrwt>
<pdfrwt beam="1">  1        1 0.38153367E+00 0.64781907E+03</pdfrwt>
<pdfrwt beam="2">0</pdfrwt>
<totfact> 0.16162398E+00</totfact>
</mgrwt>
</event>
<event>
 6    1  0.3813560E-003  0.6534014E+03  0.7818608E-02  0.9800418E-01
          1   -1    0    0  502    0  0.00000000000E+00  0.00000000000E+00  0.10673356805E+03  0.10673356805E+03  0.00000000000E+00 0.  1.
         13   -1    0    0    0    0 -0.00000000000E+00 -0.00000000000E+00 -0.10000000000E+04  0.10000000000E+04  0.00000000000E+00 0.  1.
    9000005    2    1    2  501    0 -0.52953126863E-03  0.40569324202E-03 -0.89326568090E+03  0.11067325635E+04  0.65340140076E+03 0.  0.
         13    1    3    3    0    0  0.22380878760E+03  0.18789879273E+03 -0.19921602477E+03  0.35367125165E+03  0.00000000000E+00 0.  1.
          3    1    3    3  501    0 -0.22380931713E+03 -0.18789838704E+03 -0.69404965613E+03  0.75306131189E+03  0.00000000000E+00 0.  1.
         21    1    1    2  502  501  0.52953126863E-03 -0.40569324202E-03 -0.75104472865E-03  0.10045190668E-02  0.00000000000E+00 0. -1.
<mgrwt>
<rscale>  1 0.65340140E+03</rscale>
<asrwt>0</asrwt>
<pdfrwt beam="1">  1        1 0.38812288E+00 0.65340140E+03</pdfrwt>
<pdfrwt beam="2">0</pdfrwt>
<totfact> 0.15097839E+00</totfact>
</mgrwt>
</event>
<event>
 6    1  0.3813560E-003  0.6488774E+03  0.7818608E-02  0.9808888E-01
          1   -1    0    0  502    0  0.00000000000E+00  0.00000000000E+00  0.10860009038E+03  0.10860009038E+03  0.00000000000E+00 0.  1.
         13   -1    0    0    0    0 -0.00000000000E+00 -0.00000000000E+00 -0.10000000000E+04  0.10000000000E+04  0.00000000000E+00 0.  1.
    9000005    2    1    2  501    0  0.86508277904E+00  0.94316252326E+00 -0.89460346490E+03  0.11051503527E+04  0.64887618596E+03 0.  0.
         13    1    3    3    0    0 -0.59764543519E+02  0.24402095704E+03 -0.97304761427E+02  0.26941834520E+03  0.00000000000E+00 0.  1.
          1    1    3    3  501    0  0.60629626298E+02 -0.24307779451E+03 -0.79729870347E+03  0.83573200748E+03  0.00000000000E+00 0.  1.
         21    1    1    2  502  501 -0.86508277904E+00 -0.94316252326E+00  0.32035552736E+01  0.34497376931E+01  0.00000000000E+00 0. -1.
<mgrwt>
<rscale>  1 0.64887745E+03</rscale>
<asrwt>0</asrwt>
<pdfrwt beam="1">  1        1 0.39491025E+00 0.64887745E+03</pdfrwt>
<pdfrwt beam="2">0</pdfrwt>
<totfact> 0.14098150E+00</totfact>
</mgrwt>
</event>
<event>
 6    1  0.3813560E-003  0.6495183E+03  0.7818608E-02  0.9807683E-01
          1   -1    0    0  502    0  0.00000000000E+00  0.00000000000E+00  0.10547130463E+03  0.10547130463E+03  0.00000000000E+00 0.  1.
         13   -1    0    0    0    0 -0.00000000000E+00 -0.00000000000E+00 -0.10000000000E+04  0.10000000000E+04  0.00000000000E+00 0.  1.
    9000005    2    1    2  501    0 -0.43242627439E-02  0.25384259911E-02 -0.89452876112E+03  0.11054662899E+04  0.64951829357E+03 0.  0.
         13    1    3    3    0    0 -0.76980482563E+02  0.22391079669E+03 -0.68954425794E+02  0.24661052777E+03  0.00000000000E+00 0.  1.
          3    1    3    3  501    0  0.76976158300E+02 -0.22390825826E+03 -0.82557433532E+03  0.85885576217E+03  0.00000000000E+00 0.  1.
         21    1    1    2  502  501  0.43242627439E-02 -0.25384259911E-02  0.65746309338E-04  0.50146961391E-02  0.00000000000E+00 0. -1.
<mgrwt>
<rscale>  1 0.64951829E+03</rscale>
<asrwt>0</asrwt>
<pdfrwt beam="1">  1        1 0.38353283E+00 0.64951829E+03</pdfrwt>
<pdfrwt beam="2">0</pdfrwt>
<totfact> 0.15832084E+00</totfact>
</mgrwt>
</event>
<event>
 6    1  0.3813560E-003  0.6460043E+03  0.7818608E-02  0.9814306E-01
          1   -1    0    0  502    0  0.00000000000E+00  0.00000000000E+00  0.11007482248E+03  0.11007482248E+03  0.00000000000E+00 0.  1.
         13   -1    0    0    0    0 -0.00000000000E+00 -0.00000000000E+00 -0.10000000000E+04  0.10000000000E+04  0.00000000000E+00 0.  1.
    9000005    2    1    2  501    0 -0.11014303968E+00 -0.46359214006E-02 -0.89566903471E+03  0.11043299075E+04  0.64600426675E+03 0.  0.
         13    1    3    3    0    0  0.39986574780E+02  0.26197007132E+03 -0.76348625006E+03  0.80816984506E+03  0.00000000000E+00 0.  1.
          3    1    3    3  501    0 -0.40096717820E+02 -0.26197470724E+03 -0.13218278465E+03  0.29616006242E+03  0.00000000000E+00 0.  1.
         21    1    1    2  502  501  0.11014303968E+00  0.46359214006E-02  0.57438571893E+01  0.57449150030E+01  0.00000000000E+00 0.  1.
<mgrwt>
<rscale>  1 0.64600428E+03</rscale>
<asrwt>0</asrwt>
<pdfrwt beam="1">  1        1 0.40027293E+00 0.64600428E+03</pdfrwt>
<pdfrwt beam="2">0</pdfrwt>
<totfact> 0.13351486E+00</totfact>
</mgrwt>
</event>
<event>
 6    1  0.3813560E-003  0.6415984E+03  0.7818608E-02  0.9822673E-01
          1   -1    0    0  502    0  0.00000000000E+00  0.00000000000E+00  0.10291215657E+03  0.10291215657E+03  0.00000000000E+00 0.  1.
         13   -1    0    0    0    0 -0.00000000000E+00 -0.00000000000E+00 -0.10000000000E+04  0.10000000000E+04  0.00000000000E+00 0.  1.
    9000005    2    1    2  501    0  0.69419430275E-05 -0.50530859994E-05 -0.89708787643E+03  0.11029121225E+04  0.64159838830E+03 0.  0.
         13    1    3    3    0    0 -0.11668130798E+03  0.22710375454E+03 -0.11467808562E+03  0.27989588471E+03  0.00000000000E+00 0.  1.
          1    1    3    3  501    0  0.11668131492E+03 -0.22710375959E+03 -0.78240979080E+03  0.82301623776E+03  0.00000000000E+00 0.  1.
         21    1    1    2  502  501 -0.69419430271E-05  0.50530859859E-05  0.32993564130E-04  0.34092514207E-04  0.00000000000E+00 0. -1.
<mgrwt>
<rscale>  1 0.64159839E+03</rscale>
<asrwt>0</asrwt>
<pdfrwt beam="1">  1        1 0.37422681E+00 0.64159839E+03</pdfrwt>
<pdfrwt beam="2">0</pdfrwt>
<totfact> 0.17426434E+00</totfact>
</mgrwt>
</event>
<event>
 6    1  0.3813560E-003  0.6560221E+03  0.7818608E-02  0.9795544E-01
          1   -1    0    0  502    0  0.00000000000E+00  0.00000000000E+00  0.10759209871E+03  0.10759209871E+03  0.00000000000E+00 0.  1.
         13   -1    0    0    0    0 -0.00000000000E+00 -0.00000000000E+00 -0.10000000000E+04  0.10000000000E+04  0.00000000000E+00 0.  1.
    9000005    2    1    2  501    0  0.36665782693E-03  0.62391442327E-04 -0.89240868976E+03  0.11075912269E+04  0.65602214626E+03 0.  0.
         13    1    3    3    0    0  0.15972135352E+03 -0.27427951432E+03 -0.58595143819E+03  0.66639271504E+03  0.00000000000E+00 0.  1.
          3    1    3    3  501    0 -0.15972098686E+03  0.27427957671E+03 -0.30645725157E+03  0.44119851188E+03  0.00000000000E+00 0.  1.
         21    1    1    2  502  501 -0.36665782691E-03 -0.62391442365E-04  0.78846904985E-03  0.87178787367E-03  0.00000000000E+00 0.  1.
<mgrwt>
<rscale>  1 0.65602215E+03</rscale>
<asrwt>0</asrwt>
<pdfrwt beam="1">  1        1 0.39124482E+00 0.65602215E+03</pdfrwt>
<pdfrwt beam="2">0</pdfrwt>
<totfact> 0.14617091E+00</totfact>
</mgrwt>
</event>
<event>
 6    1  0.3813560E-003  0.6413764E+03  0.7818608E-02  0.9823097E-01
          1   -1    0    0  502    0  0.00000000000E+00  0.00000000000E+00  0.10284095425E+03  0.10284095425E+03  0.00000000000E+00 0.  1.
         13   -1    0    0    0    0 -0.00000000000E+00 -0.00000000000E+00 -0.10000000000E+04  0.10000000000E+04  0.00000000000E+00 0.  1.
    9000005    2    1    2  501    0  0.10666769043E-04  0.11949936012E-03 -0.89715890650E+03  0.11028407704E+04  0.64137638049E+03 0.  0.
         13    1    3    3    0    0  0.20194740683E+03  0.18360172728E+03 -0.73809084782E+03  0.78693738570E+03  0.00000000000E+00 0.  1.
          1    1    3    3  501    0 -0.20194739617E+03 -0.18360160778E+03 -0.15906805869E+03  0.31590338474E+03  0.00000000000E+00 0.  1.
         21    1    1    2  502  501 -0.10666769039E-04 -0.11949936015E-03 -0.13924653721E-03  0.18380281598E-03  0.00000000000E+00 0. -1.
<mgrwt>
<rscale>  1 0.64137638E+03</rscale>
<asrwt>0</asrwt>
<pdfrwt beam="1">  1        1 0.37396789E+00 0.64137638E+03</pdfrwt>
<pdfrwt beam="2">0</pdfrwt>
<totfact> 0.17472916E+00</totfact>
</mgrwt>
</event>
<event>
 6    1  0.3813560E-003  0.6459719E+03  0.7818608E-02  0.9814367E-01
          1   -1    0    0  502    0  0.00000000000E+00  0.00000000000E+00  0.10464878421E+03  0.10464878421E+03  0.00000000000E+00 0.  1.
         13   -1    0    0    0    0 -0.00000000000E+00 -0.00000000000E+00 -0.10000000000E+04  0.10000000000E+04  0.00000000000E+00 0.  1.
    9000005    2    1    2  501    0 -0.19301303449E+00 -0.17553000922E+00 -0.89562197422E+03  0.11042727856E+04  0.64597182313E+03 0.  0.
         13    1    3    3    0    0  0.24300267640E+03 -0.21163457197E+03 -0.48487554119E+03  0.58218878659E+03  0.00000000000E+00 0.  1.
          3    1    3    3  501    0 -0.24319568943E+03  0.21145904196E+03 -0.41074643303E+03  0.52208399902E+03  0.00000000000E+00 0.  1.
         21    1    1    2  502  501  0.19301303449E+00  0.17553000922E+00  0.27075842898E+00  0.37599859373E+00  0.00000000000E+00 0. -1.
<mgrwt>
<rscale>  1 0.64597188E+03</rscale>
<asrwt>0</asrwt>
<pdfrwt beam="1">  1        1 0.38054184E+00 0.64597188E+03</pdfrwt>
<pdfrwt beam="2">0</pdfrwt>
<totfact> 0.16331717E+00</totfact>
</mgrwt>
</event>
<event>
 6    1  0.3813560E-003  0.6519641E+03  0.7818608E-02  0.9803101E-01
          1   -1    0    0  502    0  0.00000000000E+00  0.00000000000E+00  0.10900074773E+03  0.10900074773E+03  0.00000000000E+00 0.  1.
         13   -1    0    0    0    0 -0.00000000000E+00 -0.00000000000E+00 -0.10000000000E+04  0.10000000000E+04  0.00000000000E+00 0.  1.
    9000005    2    1    2  501    0  0.40083450186E+00  0.12664870618E+00 -0.89371784336E+03  0.11062498487E+04  0.65196393107E+03 0.  0.
         13    1    3    3    0    0  0.19701598713E+03  0.24958556095E+03 -0.32395301365E+03  0.45393149976E+03  0.00000000000E+00 0.  1.
          3    1    3    3  501    0 -0.19661515263E+03 -0.24945891224E+03 -0.56976482971E+03  0.65231834890E+03  0.00000000000E+00 0.  1.
         21    1    1    2  502  501 -0.40083450186E+00 -0.12664870618E+00  0.27185910900E+01  0.27508990725E+01  0.00000000000E+00 0. -1.
<mgrwt>
<rscale>  1 0.65196407E+03</rscale>
<asrwt>0</asrwt>
<pdfrwt beam="1">  1        1 0.39636719E+00 0.65196407E+03</pdfrwt>
<pdfrwt beam="2">0</pdfrwt>
<totfact> 0.13881309E+00</totfact>
</mgrwt>
</event>
<event>
 6    1  0.3813560E-003  0.6298512E+03  0.7818608E-02  0.9845339E-01
          1   -1    0    0  502    0  0.00000000000E+00  0.00000000000E+00  0.99179001826E+02  0.99179001826E+02  0.00000000000E+00 0.  1.
         13   -1    0    0    0    0 -0.00000000000E+00 -0.00000000000E+00 -0.10000000000E+04  0.10000000000E+04  0.00000000000E+00 0.  1.
    9000005    2    1    2  501    0 -0.93783242964E-03 -0.93475924058E-03 -0.90082127707E+03  0.10991776486E+04  0.62985119676E+03 0.  0.
         13    1    3    3    0    0  0.53364643599E+01  0.28932917256E+03 -0.23357691436E+03  0.37188442138E+03  0.00000000000E+00 0.  1.
          3    1    3    3  501    0 -0.53374021923E+01 -0.28933010732E+03 -0.66724436271E+03  0.72729322727E+03  0.00000000000E+00 0.  1.
         21    1    1    2  502  501  0.93783242964E-03  0.93475924058E-03  0.27889720267E-03  0.13531770592E-02  0.00000000000E+00 0.  1.
<mgrwt>
<rscale>  1 0.62985120E+03</rscale>
<asrwt>0</asrwt>
<pdfrwt beam="1">  1        1 0.36065168E+00 0.62985120E+03</pdfrwt>
<pdfrwt beam="2">0</pdfrwt>
<totfact> 0.20030460E+00</totfact>
</mgrwt>
</event>
<event>
 6    1  0.3813560E-003  0.6478464E+03  0.7818608E-02  0.9810829E-01
          1   -1    0    0  502    0  0.00000000000E+00  0.00000000000E+00  0.10492685670E+03  0.10492685670E+03  0.00000000000E+00 0.  1.
         13   -1    0    0    0    0 -0.00000000000E+00 -0.00000000000E+00 -0.10000000000E+04  0.10000000000E+04  0.00000000000E+00 0.  1.
    9000005    2    1    2  501    0  0.14522839422E-04  0.91520211310E-04 -0.89507375541E+03  0.11049262376E+04  0.64784640382E+03 0.  0.
         13    1    3    3    0    0  0.25855059250E+03 -0.25201437697E+01 -0.78031988970E+03  0.82204251123E+03  0.00000000000E+00 0.  1.
          1    1    3    3  501    0 -0.25855057798E+03  0.25202352899E+01 -0.11475386571E+03  0.28288372639E+03  0.00000000000E+00 0.  1.
         21    1    1    2  502  501 -0.14522839434E-04 -0.91520211310E-04  0.61210887823E-03  0.61908330679E-03  0.00000000000E+00 0. -1.
<mgrwt>
<rscale>  1 0.64784640E+03</rscale>
<asrwt>0</asrwt>
<pdfrwt beam="1">  1        1 0.38155301E+00 0.64784640E+03</pdfrwt>
<pdfrwt beam="2">0</pdfrwt>
<totfact> 0.16159140E+00</totfact>
</mgrwt>
</event>
<event>
 6    1  0.3813560E-003  0.6568666E+03  0.7818608E-02  0.9793979E-01
          1   -1    0    0  502    0  0.00000000000E+00  0.00000000000E+00  0.10800924578E+03  0.10800924578E+03  0.00000000000E+00 0.  1.
         13   -1    0    0    0    0 -0.00000000000E+00 -0.00000000000E+00 -0.10000000000E+04  0.10000000000E+04  0.00000000000E+00 0.  1.
    9000005    2    1    2  501    0 -0.24604337963E+00  0.20826149926E+00 -0.89188514720E+03  0.11076700363E+04  0.65686656918E+03 0.  0.
         13    1    3    3    0    0 -0.62475091541E+02  0.15238685624E+03  0.33267038181E+02  0.16802257839E+03  0.00000000000E+00 0.  1.
          1    1    3    3  501    0  0.62229048162E+02 -0.15217859474E+03 -0.92515218538E+03  0.93964745795E+03  0.00000000000E+00 0.  1.
         21    1    1    2  502  501  0.24604337963E+00 -0.20826149926E+00 -0.10560702785E+00  0.33920943540E+00  0.00000000000E+00 0. -1.
<mgrwt>
<rscale>  1 0.65686665E+03</rscale>
<asrwt>0</asrwt>
<pdfrwt beam="1">  1        1 0.39276172E+00 0.65686665E+03</pdfrwt>
<pdfrwt beam="2">0</pdfrwt>
<totfact> 0.14389924E+00</totfact>
</mgrwt>
</event>
<event>
 6    1  0.3813560E-003  0.6511590E+03  0.7818608E-02  0.9804607E-01
          1   -1    0    0  502    0  0.00000000000E+00  0.00000000000E+00  0.10713600793E+03  0.10713600793E+03  0.00000000000E+00 0.  1.
         13   -1    0    0    0    0 -0.00000000000E+00 -0.00000000000E+00 -0.10000000000E+04  0.10000000000E+04  0.00000000000E+00 0.  1.
    9000005    2    1    2  501    0 -0.21903698897E+01  0.17255044668E+01 -0.89162496902E+03  0.11040847354E+04  0.65115301005E+03 0.  0.
         13    1    3    3    0    0 -0.14533010612E+03 -0.16386068013E+03 -0.37312038645E+02  0.22217864538E+03  0.00000000000E+00 0.  1.
          3    1    3    3  501    0  0.14313973623E+03  0.16558618459E+03 -0.85431293037E+03  0.88190609002E+03  0.00000000000E+00 0.  1.
         21    1    1    2  502  501  0.21903698897E+01 -0.17255044668E+01 -0.12390230525E+01  0.30512725285E+01  0.00000000000E+00 0.  1.
<mgrwt>
<rscale>  1 0.65115898E+03</rscale>
<asrwt>0</asrwt>
<pdfrwt beam="1">  1        1 0.38958630E+00 0.65115898E+03</pdfrwt>
<pdfrwt beam="2">0</pdfrwt>
<totfact> 0.14880238E+00</totfact>
</mgrwt>
</event>
<event>
 6    1  0.3813560E-003  0.6340548E+03  0.7818608E-02  0.9837168E-01
          1   -1    0    0  502    0  0.00000000000E+00  0.00000000000E+00  0.10050658674E+03  0.10050658674E+03  0.00000000000E+00 0.  1.
         13   -1    0    0    0    0 -0.00000000000E+00 -0.00000000000E+00 -0.10000000000E+04  0.10000000000E+04  0.00000000000E+00 0.  1.
    9000005    2    1    2  501    0 -0.43665473584E-05 -0.88214472100E-05 -0.89949361727E+03  0.11005063825E+04  0.63405483233E+03 0.  0.
         13    1    3    3    0    0  0.24262705037E+03  0.18450391140E+03 -0.60102666630E+03  0.67390105542E+03  0.00000000000E+00 0.  1.
          3    1    3    3  501    0 -0.24262705473E+03 -0.18450392022E+03 -0.29846695097E+03  0.42660532707E+03  0.00000000000E+00 0.  1.
         21    1    1    2  502  501  0.43665473656E-05  0.88214472141E-05  0.20401124893E-03  0.20424856023E-03  0.00000000000E+00 0. -1.
<mgrwt>
<rscale>  1 0.63405483E+03</rscale>
<asrwt>0</asrwt>
<pdfrwt beam="1">  1        1 0.36547927E+00 0.63405483E+03</pdfrwt>
<pdfrwt beam="2">0</pdfrwt>
<totfact> 0.19064310E+00</totfact>
</mgrwt>
</event>
<event>
 6    1  0.3813560E-003  0.6479271E+03  0.7818608E-02  0.9810677E-01
          1   -1    0    0  502    0  0.00000000000E+00  0.00000000000E+00  0.10495248361E+03  0.10495248361E+03  0.00000000000E+00 0.  1.
         13   -1    0    0    0    0 -0.00000000000E+00 -0.00000000000E+00 -0.10000000000E+04  0.10000000000E+04  0.00000000000E+00 0.  1.
    9000005    2    1    2  501    0 -0.39702236734E-05 -0.12840090733E-05 -0.89504763427E+03  0.11049523657E+04  0.64792705051E+03 0.  0.
         13    1    3    3    0    0  0.19605081749E+03  0.42856790493E+02 -0.88123594475E+03  0.90379722164E+03  0.00000000000E+00 0.  1.
          3    1    3    3  501    0 -0.19605082146E+03 -0.42856791777E+02 -0.13811689515E+02  0.20115514402E+03  0.00000000000E+00 0.  1.
         21    1    1    2  502  501  0.39702236830E-05  0.12840090756E-05  0.11787615239E-03  0.11794998371E-03  0.00000000000E+00 0.  1.
<mgrwt>
<rscale>  1 0.64792705E+03</rscale>
<asrwt>0</asrwt>
<pdfrwt beam="1">  1        1 0.38164620E+00 0.64792705E+03</pdfrwt>
<pdfrwt beam="2">0</pdfrwt>
<totfact> 0.16143596E+00</totfact>
</mgrwt>
</event>
<event>
 6    1  0.3813560E-003  0.6459860E+03  0.7818608E-02  0.9814340E-01
          1   -1    0    0  502    0  0.00000000000E+00  0.00000000000E+00  0.10432505765E+03  0.10432505765E+03  0.00000000000E+00 0.  1.
         13   -1    0    0    0    0 -0.00000000000E+00 -0.00000000000E+00 -0.10000000000E+04  0.10000000000E+04  0.00000000000E+00 0.  1.
    9000005    2    1    2  501    0  0.62953386028E-04 -0.38289989669E-03 -0.89567544239E+03  0.11043244247E+04  0.64598601912E+03 0.  0.
         13    1    3    3    0    0 -0.53809827335E+02  0.31107598428E+03 -0.33113115901E+03  0.45750585787E+03  0.00000000000E+00 0.  1.
          3    1    3    3  501    0  0.53809890289E+02 -0.31107636718E+03 -0.56454428338E+03  0.64681856684E+03  0.00000000000E+00 0.  1.
         21    1    1    2  502  501 -0.62953386029E-04  0.38289989670E-03  0.50003782351E-03  0.63294019041E-03  0.00000000000E+00 0.  1.
<mgrwt>
<rscale>  1 0.64598602E+03</rscale>
<asrwt>0</asrwt>
<pdfrwt beam="1">  1        1 0.37936465E+00 0.64598602E+03</pdfrwt>
<pdfrwt beam="2">0</pdfrwt>
<totfact> 0.16528162E+00</totfact>
</mgrwt>
</event>
<event>
 6    1  0.3813560E-003  0.6488172E+03  0.7818608E-02  0.9809001E-01
          1   -1    0    0  502    0  0.00000000000E+00  0.00000000000E+00  0.10524096574E+03  0.10524096574E+03  0.00000000000E+00 0.  1.
         13   -1    0    0    0    0 -0.00000000000E+00 -0.00000000000E+00 -0.10000000000E+04  0.10000000000E+04  0.00000000000E+00 0.  1.
    9000005    2    1    2  501    0 -0.16472218363E-05 -0.26088201253E-05 -0.89475904569E+03  0.11052409539E+04  0.64881724417E+03 0.  0.
         13    1    3    3    0    0  0.20773183660E+03  0.24706617246E+03 -0.39226643361E+03  0.50800311461E+03  0.00000000000E+00 0.  1.
          1    1    3    3  501    0 -0.20773183825E+03 -0.24706617507E+03 -0.50249261208E+03  0.59723783929E+03  0.00000000000E+00 0.  1.
         21    1    1    2  502  501  0.16472218327E-05  0.26088201233E-05  0.11428641918E-04  0.11837784349E-04  0.00000000000E+00 0.  1.
<mgrwt>
<rscale>  1 0.64881724E+03</rscale>
<asrwt>0</asrwt>
<pdfrwt beam="1">  1        1 0.38269523E+00 0.64881724E+03</pdfrwt>
<pdfrwt beam="2">0</pdfrwt>
<totfact> 0.15969656E+00</totfact>
</mgrwt>
</event>
<event>
 6    1  0.3813560E-003  0.6492042E+03  0.7818608E-02  0.9808274E-01
          1   -1    0    0  502    0  0.00000000000E+00  0.00000000000E+00  0.10536670647E+03  0.10536670647E+03  0.00000000000E+00 0.  1.
         13   -1    0    0    0    0 -0.00000000000E+00 -0.00000000000E+00 -0.10000000000E+04  0.10000000000E+04  0.00000000000E+00 0.  1.
    9000005    2    1    2  501    0 -0.34911543167E-06  0.49399070576E-05 -0.89463349190E+03  0.11053665080E+04  0.64920415298E+03 0.  0.
         13    1    3    3    0    0  0.63674073054E+02 -0.27687997941E+03 -0.17999768879E+03  0.33632733839E+03  0.00000000000E+00 0.  1.
          3    1    3    3  501    0 -0.63674073403E+02  0.27687998435E+03 -0.71463580311E+03  0.76903916964E+03  0.00000000000E+00 0.  1.
         21    1    1    2  502  501  0.34911543107E-06 -0.49399071099E-05  0.19837290083E-03  0.19843470550E-03  0.00000000000E+00 0.  1.
<mgrwt>
<rscale>  1 0.64920415E+03</rscale>
<asrwt>0</asrwt>
<pdfrwt beam="1">  1        1 0.38315247E+00 0.64920415E+03</pdfrwt>
<pdfrwt beam="2">0</pdfrwt>
<totfact> 0.15894404E+00</totfact>
</mgrwt>
</event>
<event>
 6    1  0.3813560E-003  0.6427744E+03  0.7818608E-02  0.9820433E-01
          1   -1    0    0  502    0  0.00000000000E+00  0.00000000000E+00  0.10350800736E+03  0.10350800736E+03  0.00000000000E+00 0.  1.
         13   -1    0    0    0    0 -0.00000000000E+00 -0.00000000000E+00 -0.10000000000E+04  0.10000000000E+04  0.00000000000E+00 0.  1.
    9000005    2    1    2  501    0  0.84202942987E-02  0.11738779824E-01 -0.89671001020E+03  0.11032895117E+04  0.64277438032E+03 0.  0.
         13    1    3    3    0    0  0.29664740038E+03 -0.12244938840E+03 -0.41876393536E+03  0.52759526763E+03  0.00000000000E+00 0.  1.
          1    1    3    3  501    0 -0.29663898009E+03  0.12246112718E+03 -0.47794607485E+03  0.57569424406E+03  0.00000000000E+00 0.  1.
         21    1    1    2  502  501 -0.84202942987E-02 -0.11738779824E-01  0.21801756134E+00  0.21849566897E+00  0.00000000000E+00 0. -1.
<mgrwt>
<rscale>  1 0.64277438E+03</rscale>
<asrwt>0</asrwt>
<pdfrwt beam="1">  1        1 0.37639355E+00 0.64277438E+03</pdfrwt>
<pdfrwt beam="2">0</pdfrwt>
<totfact> 0.17044184E+00</totfact>
</mgrwt>
</event>
<event>
 6    1  0.3813560E-003  0.6396281E+03  0.7818608E-02  0.9826438E-01
          1   -1    0    0  502    0  0.00000000000E+00  0.00000000000E+00  0.10236974396E+03  0.10236974396E+03  0.00000000000E+00 0.  1.
         13   -1    0    0    0    0 -0.00000000000E+00 -0.00000000000E+00 -0.10000000000E+04  0.10000000000E+04  0.00000000000E+00 0.  1.
    9000005    2    1    2  501    0  0.22975271219E+00  0.52959592315E-01 -0.89749283816E+03  0.11020968434E+04  0.63962801859E+03 0.  0.
         13    1    3    3    0    0  0.15354304512E+03  0.20635105519E+03 -0.77654462450E+03  0.81803287130E+03  0.00000000000E+00 0.  1.
          3    1    3    3  501    0 -0.15331329241E+03 -0.20629809560E+03 -0.12094821366E+03  0.28406397213E+03  0.00000000000E+00 0.  1.
         21    1    1    2  502  501 -0.22975271219E+00 -0.52959592315E-01 -0.13741787236E+00  0.27290052917E+00  0.00000000000E+00 0. -1.
<mgrwt>
<rscale>  1 0.63962806E+03</rscale>
<asrwt>0</asrwt>
<pdfrwt beam="1">  1        1 0.37225440E+00 0.63962806E+03</pdfrwt>
<pdfrwt beam="2">0</pdfrwt>
<totfact> 0.17784433E+00</totfact>
</mgrwt>
</event>
<event>
 6    1  0.3813560E-003  0.6411566E+03  0.7818608E-02  0.9823516E-01
          1   -1    0    0  502    0  0.00000000000E+00  0.00000000000E+00  0.10277967413E+03  0.10277967413E+03  0.00000000000E+00 0.  1.
         13   -1    0    0    0    0 -0.00000000000E+00 -0.00000000000E+00 -0.10000000000E+04  0.10000000000E+04  0.00000000000E+00 0.  1.
    9000005    2    1    2  501    0  0.69492594123E-02  0.27541143196E-03 -0.89722809481E+03  0.11027692470E+04  0.64115657839E+03 0.  0.
         13    1    3    3    0    0 -0.66472038485E+02 -0.42957504237E+02  0.85702638738E+02  0.11665685302E+03  0.00000000000E+00 0.  1.
          3    1    3    3  501    0  0.66478987744E+02  0.42957779648E+02 -0.98293073355E+03  0.98611239400E+03  0.00000000000E+00 0.  1.
         21    1    1    2  502  501 -0.69492594123E-02 -0.27541143196E-03  0.77689392127E-02  0.10427102873E-01  0.00000000000E+00 0.  1.
<mgrwt>
<rscale>  1 0.64115658E+03</rscale>
<asrwt>0</asrwt>
<pdfrwt beam="1">  1        1 0.37374506E+00 0.64115658E+03</pdfrwt>
<pdfrwt beam="2">0</pdfrwt>
<totfact> 0.17513108E+00</totfact>
</mgrwt>
</event>
<event>
 6    1  0.3813560E-003  0.6501930E+03  0.7818608E-02  0.9806417E-01
          1   -1    0    0  502    0  0.00000000000E+00  0.00000000000E+00  0.10570165642E+03  0.10570165642E+03  0.00000000000E+00 0.  1.
         13   -1    0    0    0    0 -0.00000000000E+00 -0.00000000000E+00 -0.10000000000E+04  0.10000000000E+04  0.00000000000E+00 0.  1.
    9000005    2    1    2  501    0 -0.57295293141E-03 -0.50768300696E-04 -0.89431225264E+03  0.11056877355E+04  0.65019301993E+03 0.  0.
         13    1    3    3    0    0 -0.24731237752E+03 -0.17083919443E+03 -0.65776737595E+03  0.72319248012E+03  0.00000000000E+00 0.  1.
          3    1    3    3  501    0  0.24731180457E+03  0.17083914367E+03 -0.23654487668E+03  0.38249525536E+03  0.00000000000E+00 0.  1.
         21    1    1    2  502  501  0.57295293139E-03  0.50768300695E-04  0.13909057226E-01  0.13920945564E-01  0.00000000000E+00 0. -1.
<mgrwt>
<rscale>  1 0.65019302E+03</rscale>
<asrwt>0</asrwt>
<pdfrwt beam="1">  1        1 0.38437047E+00 0.65019302E+03</pdfrwt>
<pdfrwt beam="2">0</pdfrwt>
<totfact> 0.15695707E+00</totfact>
</mgrwt>
</event>
<event>
 6    1  0.3813560E-003  0.6490434E+03  0.7818608E-02  0.9808576E-01
          1   -1    0    0  502    0  0.00000000000E+00  0.00000000000E+00  0.10560188572E+03  0.10560188572E+03  0.00000000000E+00 0.  1.
         13   -1    0    0    0    0 -0.00000000000E+00 -0.00000000000E+00 -0.10000000000E+04  0.10000000000E+04  0.00000000000E+00 0.  1.
    9000005    2    1    2  501    0  0.10646875153E-01  0.38514481452E-02 -0.89468554749E+03  0.11053142296E+04  0.64904338618E+03 0.  0.
         13    1    3    3    0    0  0.26654960866E+03 -0.15634685135E+03 -0.61613720260E+03  0.68928809958E+03  0.00000000000E+00 0.  1.
          1    1    3    3  501    0 -0.26653896178E+03  0.15635070280E+03 -0.27854834490E+03  0.41602613002E+03  0.00000000000E+00 0.  1.
         21    1    1    2  502  501 -0.10646875153E-01 -0.38514481452E-02  0.28743321077E+00  0.28765611459E+00  0.00000000000E+00 0.  1.
<mgrwt>
<rscale>  1 0.64904339E+03</rscale>
<asrwt>0</asrwt>
<pdfrwt beam="1">  1        1 0.38400767E+00 0.64904339E+03</pdfrwt>
<pdfrwt beam="2">0</pdfrwt>
<totfact> 0.15757129E+00</totfact>
</mgrwt>
</event>
<event>
 6    1  0.3813560E-003  0.7000673E+03  0.7818608E-02  0.9717117E-01
          1   -1    0    0  502    0  0.00000000000E+00  0.00000000000E+00  0.12261423515E+03  0.12261423515E+03  0.00000000000E+00 0.  1.
         13   -1    0    0    0    0 -0.00000000000E+00 -0.00000000000E+00 -0.10000000000E+04  0.10000000000E+04  0.00000000000E+00 0.  1.
    9000005    2    1    2  501    0  0.13950138037E-03  0.12971085992E-02 -0.87747644673E+03  0.11225235439E+04  0.70006727678E+03 0.  0.
         13    1    3    3    0    0 -0.31991213868E+03 -0.72731341554E+02 -0.63439700050E+03  0.71420807806E+03  0.00000000000E+00 0.  1.
          3    1    3    3  501    0  0.31991227818E+03  0.72732638663E+02 -0.24307944623E+03  0.40831546583E+03  0.00000000000E+00 0.  1.
         21    1    1    2  502  501 -0.13950138038E-03 -0.12971085992E-02  0.90681877581E-01  0.90691261283E-01  0.00000000000E+00 0.  1.
<mgrwt>
<rscale>  1 0.70006728E+03</rscale>
<asrwt>0</asrwt>
<pdfrwt beam="1">  1        1 0.44587089E+00 0.70006728E+03</pdfrwt>
<pdfrwt beam="2">0</pdfrwt>
<totfact> 0.82168567E-01</totfact>
</mgrwt>
</event>
<event>
 6    1  0.3813560E-003  0.6615943E+03  0.7818608E-02  0.9785263E-01
          1   -1    0    0  502    0  0.00000000000E+00  0.00000000000E+00  0.10943316416E+03  0.10943316416E+03  0.00000000000E+00 0.  1.
         13   -1    0    0    0    0 -0.00000000000E+00 -0.00000000000E+00 -0.10000000000E+04  0.10000000000E+04  0.00000000000E+00 0.  1.
    9000005    2    1    2  501    0  0.18194504691E-01 -0.52054736366E-02 -0.89054750419E+03  0.11094061114E+04  0.66159433379E+03 0.  0.
         13    1    3    3    0    0 -0.21090601091E+03  0.25279504456E+03 -0.49920870947E+03  0.59799332405E+03  0.00000000000E+00 0.  1.
          3    1    3    3  501    0  0.21092420542E+03 -0.25280025004E+03 -0.39133879472E+03  0.51141278738E+03  0.00000000000E+00 0.  1.
         21    1    1    2  502  501 -0.18194504691E-01  0.52054736366E-02 -0.19331659511E-01  0.27052726595E-01  0.00000000000E+00 0. -1.
<mgrwt>
<rscale>  1 0.66159433E+03</rscale>
<asrwt>0</asrwt>
<pdfrwt beam="1">  1        1 0.39793962E+00 0.66159433E+03</pdfrwt>
<pdfrwt beam="2">0</pdfrwt>
<totfact> 0.13634723E+00</totfact>
</mgrwt>
</event>
<event>
 6    1  0.3813560E-003  0.6295566E+03  0.7818608E-02  0.9845915E-01
          1   -1    0    0  502    0  0.00000000000E+00  0.00000000000E+00  0.10070680144E+03  0.10070680144E+03  0.00000000000E+00 0.  1.
         13   -1    0    0    0    0 -0.00000000000E+00 -0.00000000000E+00 -0.10000000000E+04  0.10000000000E+04  0.00000000000E+00 0.  1.
    9000005    2    1    2  501    0 -0.11039129742E-01  0.84226442308E-01 -0.90091340932E+03  0.10990843654E+04  0.62955656130E+03 0.  0.
         13    1    3    3    0    0 -0.10555550414E+03 -0.27988022036E+03 -0.27945874170E+03  0.40935570170E+03  0.00000000000E+00 0.  1.
          1    1    3    3  501    0  0.10554446501E+03  0.27996444680E+03 -0.62145466762E+03  0.68972866366E+03  0.00000000000E+00 0.  1.
         21    1    1    2  502  501  0.11039129742E-01 -0.84226442308E-01  0.16202107533E+01  0.16224360823E+01  0.00000000000E+00 0. -1.
<mgrwt>
<rscale>  1 0.62955657E+03</rscale>
<asrwt>0</asrwt>
<pdfrwt beam="1">  1        1 0.36620732E+00 0.62955657E+03</pdfrwt>
<pdfrwt beam="2">0</pdfrwt>
<totfact> 0.18940235E+00</totfact>
</mgrwt>
</event>
<event>
 6    1  0.3813560E-003  0.6538237E+03  0.7818608E-02  0.9799631E-01
          1   -1    0    0  502    0  0.00000000000E+00  0.00000000000E+00  0.10693214315E+03  0.10693214315E+03  0.00000000000E+00 0.  1.
         13   -1    0    0    0    0 -0.00000000000E+00 -0.00000000000E+00 -0.10000000000E+04  0.10000000000E+04  0.00000000000E+00 0.  1.
    9000005    2    1    2  501    0  0.14369052740E-01 -0.36730994994E-02 -0.89312765343E+03  0.11068705348E+04  0.65382365759E+03 0.  0.
         13    1    3    3    0    0  0.37259779932E+02 -0.18751527308E+03  0.23678517564E+01  0.19119590885E+03  0.00000000000E+00 0.  1.
          3    1    3    3  501    0 -0.37245410879E+02  0.18751159998E+03 -0.89549550518E+03  0.91567462592E+03  0.00000000000E+00 0.  1.
         21    1    1    2  502  501 -0.14369052740E-01  0.36730994994E-02  0.59796579067E-01  0.61608377716E-01  0.00000000000E+00 0.  1.
<mgrwt>
<rscale>  1 0.65382366E+03</rscale>
<asrwt>0</asrwt>
<pdfrwt beam="1">  1        1 0.38884498E+00 0.65382366E+03</pdfrwt>
<pdfrwt beam="2">0</pdfrwt>
<totfact> 0.14985839E+00</totfact>
</mgrwt>
</event>
<event>
 6    1  0.3813560E-003  0.6534937E+03  0.7818608E-02  0.9800246E-01
          1   -1    0    0  502    0  0.00000000000E+00  0.00000000000E+00  0.10690050437E+03  0.10690050437E+03  0.00000000000E+00 0.  1.
         13   -1    0    0    0    0 -0.00000000000E+00 -0.00000000000E+00 -0.10000000000E+04  0.10000000000E+04  0.00000000000E+00 0.  1.
    9000005    2    1    2  501    0  0.97744092380E-03 -0.18350295963E-02 -0.89323649452E+03  0.11067634897E+04  0.65349367784E+03 0.  0.
         13    1    3    3    0    0  0.72877251656E+01 -0.12895835551E+03 -0.95492859999E+03  0.96362440788E+03  0.00000000000E+00 0.  1.
          1    1    3    3  501    0 -0.72867477247E+01  0.12895652048E+03  0.61692105462E+02  0.14313908182E+03  0.00000000000E+00 0.  1.
         21    1    1    2  502  501 -0.97744092380E-03  0.18350295963E-02  0.13699889236E+00  0.13701466795E+00  0.00000000000E+00 0. -1.
<mgrwt>
<rscale>  1 0.65349368E+03</rscale>
<asrwt>0</asrwt>
<pdfrwt beam="1">  1        1 0.38872993E+00 0.65349368E+03</pdfrwt>
<pdfrwt beam="2">0</pdfrwt>
<totfact> 0.15004361E+00</totfact>
</mgrwt>
</event>
<event>
 6    1  0.3813560E-003  0.6735363E+03  0.7818608E-02  0.9763591E-01
          1   -1    0    0  502    0  0.00000000000E+00  0.00000000000E+00  0.11461130190E+03  0.11461130190E+03  0.00000000000E+00 0.  1.
         13   -1    0    0    0    0 -0.00000000000E+00 -0.00000000000E+00 -0.10000000000E+04  0.10000000000E+04  0.00000000000E+00 0.  1.
    9000005    2    1    2  501    0 -0.32564410706E-01 -0.13810727080E-01 -0.88658693787E+03  0.11134125402E+04  0.67353625362E+03 0.  0.
         13    1    3    3    0    0  0.32526464836E+03  0.22194072154E+02 -0.30386110394E+03  0.44566942772E+03  0.00000000000E+00 0.  1.
          3    1    3    3  501    0 -0.32529721277E+03 -0.22207882881E+02 -0.58272583392E+03  0.66774311244E+03  0.00000000000E+00 0.  1.
         21    1    1    2  502  501  0.32564410706E-01  0.13810727080E-01  0.11982397610E+01  0.11987617369E+01  0.00000000000E+00 0.  1.
<mgrwt>
<rscale>  1 0.67353625E+03</rscale>
<asrwt>0</asrwt>
<pdfrwt beam="1">  1        1 0.41676925E+00 0.67353625E+03</pdfrwt>
<pdfrwt beam="2">0</pdfrwt>
<totfact> 0.11203013E+00</totfact>
</mgrwt>
</event>
<event>
 6    1  0.3813560E-003  0.6353319E+03  0.7818608E-02  0.9834699E-01
          1   -1    0    0  502    0  0.00000000000E+00  0.00000000000E+00  0.10091198703E+03  0.10091198703E+03  0.00000000000E+00 0.  1.
         13   -1    0    0    0    0 -0.00000000000E+00 -0.00000000000E+00 -0.10000000000E+04  0.10000000000E+04  0.00000000000E+00 0.  1.
    9000005    2    1    2  501    0 -0.66809909839E-04  0.24861072967E-03 -0.89908828204E+03  0.11009116146E+04  0.63533191668E+03 0.  0.
         13    1    3    3    0    0  0.15887946691E+03  0.86025403645E+02  0.32098727292E+01  0.18070240276E+03  0.00000000000E+00 0.  1.
          1    1    3    3  501    0 -0.15887953372E+03 -0.86025155034E+02 -0.90229815477E+03  0.92020921189E+03  0.00000000000E+00 0.  1.
         21    1    1    2  502  501  0.66809909854E-04 -0.24861072967E-03  0.26907769046E-03  0.37238912774E-03  0.00000000000E+00 0.  1.
<mgrwt>
<rscale>  1 0.63533192E+03</rscale>
<asrwt>0</asrwt>
<pdfrwt beam="1">  1        1 0.36695345E+00 0.63533192E+03</pdfrwt>
<pdfrwt beam="2">0</pdfrwt>
<totfact> 0.18778317E+00</totfact>
</mgrwt>
</event>
<event>
 6    1  0.3813560E-003  0.6517818E+03  0.7818608E-02  0.9803442E-01
          1   -1    0    0  502    0  0.00000000000E+00  0.00000000000E+00  0.10642339859E+03  0.10642339859E+03  0.00000000000E+00 0.  1.
         13   -1    0    0    0    0 -0.00000000000E+00 -0.00000000000E+00 -0.10000000000E+04  0.10000000000E+04  0.00000000000E+00 0.  1.
    9000005    2    1    2  501    0 -0.92897391742E-03 -0.33344761306E-02 -0.89379511169E+03  0.11062048609E+04  0.65178178293E+03 0.  0.
         13    1    3    3    0    0  0.12734636003E+03  0.27973350263E+03 -0.26303357439E+03  0.40454244420E+03  0.00000000000E+00 0.  1.
          1    1    3    3  501    0 -0.12734728900E+03 -0.27973683711E+03 -0.63076153731E+03  0.70166241669E+03  0.00000000000E+00 0.  1.
         21    1    1    2  502  501  0.92897391743E-03  0.33344761306E-02  0.21851028029E+00  0.21853769541E+00  0.00000000000E+00 0.  1.
<mgrwt>
<rscale>  1 0.65178178E+03</rscale>
<asrwt>0</asrwt>
<pdfrwt beam="1">  1        1 0.38699499E+00 0.65178178E+03</pdfrwt>
<pdfrwt beam="2">0</pdfrwt>
<totfact> 0.15277084E+00</totfact>
</mgrwt>
</event>
<event>
 6    1  0.3813560E-003  0.6363595E+03  0.7818608E-02  0.9832717E-01
          1   -1    0    0  502    0  0.00000000000E+00  0.00000000000E+00  0.10123870651E+03  0.10123870651E+03  0.00000000000E+00 0.  1.
         13   -1    0    0    0    0 -0.00000000000E+00 -0.00000000000E+00 -0.10000000000E+04  0.10000000000E+04  0.00000000000E+00 0.  1.
    9000005    2    1    2  501    0  0.72470494388E-05 -0.20251015940E-05 -0.89876164241E+03  0.11012383575E+04  0.63635951332E+03 0.  0.
         13    1    3    3    0    0 -0.18251147286E+03 -0.74199995850E+02 -0.88174389681E+03  0.90348678832E+03  0.00000000000E+00 0.  1.
          1    1    3    3  501    0  0.18251148010E+03  0.74199993825E+02 -0.17017745595E+02  0.19775156919E+03  0.00000000000E+00 0.  1.
         21    1    1    2  502  501 -0.72470494611E-05  0.20251015997E-05  0.34891136378E-03  0.34899249352E-03  0.00000000000E+00 0. -1.
<mgrwt>
<rscale>  1 0.63635951E+03</rscale>
<asrwt>0</asrwt>
<pdfrwt beam="1">  1        1 0.36814153E+00 0.63635951E+03</pdfrwt>
<pdfrwt beam="2">0</pdfrwt>
<totfact> 0.18550829E+00</totfact>
</mgrwt>
</event>
<event>
 6    1  0.3813560E-003  0.6327834E+03  0.7818608E-02  0.9839632E-01
          1   -1    0    0  502    0  0.00000000000E+00  0.00000000000E+00  0.10010696149E+03  0.10010696149E+03  0.00000000000E+00 0.  1.
         13   -1    0    0    0    0 -0.00000000000E+00 -0.00000000000E+00 -0.10000000000E+04  0.10000000000E+04  0.00000000000E+00 0.  1.
    9000005    2    1    2  501    0 -0.23851511060E-05 -0.96303306282E-02 -0.89988475009E+03  0.11000942555E+04  0.63278338120E+03 0.  0.
         13    1    3    3    0    0  0.25734467016E+03 -0.12125984419E+03 -0.69067955722E+03  0.74697287757E+03  0.00000000000E+00 0.  1.
          1    1    3    3  501    0 -0.25734467254E+03  0.12125021386E+03 -0.20920519288E+03  0.35312137796E+03  0.00000000000E+00 0.  1.
         21    1    1    2  502  501  0.23851511259E-05  0.96303306282E-02 -0.82884205733E-02  0.12705950940E-01  0.00000000000E+00 0.  1.
<mgrwt>
<rscale>  1 0.63278338E+03</rscale>
<asrwt>0</asrwt>
<pdfrwt beam="1">  1        1 0.36402608E+00 0.63278338E+03</pdfrwt>
<pdfrwt beam="2">0</pdfrwt>
<totfact> 0.19350355E+00</totfact>
</mgrwt>
</event>
<event>
 6    1  0.3813560E-003  0.6431791E+03  0.7818608E-02  0.9819663E-01
          1   -1    0    0  502    0  0.00000000000E+00  0.00000000000E+00  0.10347708459E+03  0.10347708459E+03  0.00000000000E+00 0.  1.
         13   -1    0    0    0    0 -0.00000000000E+00 -0.00000000000E+00 -0.10000000000E+04  0.10000000000E+04  0.00000000000E+00 0.  1.
    9000005    2    1    2  501    0  0.14446545984E-01  0.33833389113E-01 -0.89657355127E+03  0.11034144955E+04  0.64317914669E+03 0.  0.
         13    1    3    3    0    0 -0.26083800578E+03 -0.80336156123E+02 -0.74003451501E+03  0.78875943522E+03  0.00000000000E+00 0.  1.
          3    1    3    3  501    0  0.26085245233E+03  0.80369989512E+02 -0.15653903626E+03  0.31465506030E+03  0.00000000000E+00 0.  1.
         21    1    1    2  502  501 -0.14446545984E-01 -0.33833389113E-01  0.50635864379E-01  0.62589069902E-01  0.00000000000E+00 0. -1.
<mgrwt>
<rscale>  1 0.64317915E+03</rscale>
<asrwt>0</asrwt>
<pdfrwt beam="1">  1        1 0.37628110E+00 0.64317915E+03</pdfrwt>
<pdfrwt beam="2">0</pdfrwt>
<totfact> 0.17062366E+00</totfact>
</mgrwt>
</event>
<event>
 6    1  0.3813560E-003  0.5575938E+03  0.7818608E-02  0.9997514E-01
          1   -1    0    0  502    0  0.00000000000E+00  0.00000000000E+00  0.77728493505E+02  0.77728493505E+02  0.00000000000E+00 0.  1.
         13   -1    0    0    0    0 -0.00000000000E+00 -0.00000000000E+00 -0.10000000000E+04  0.10000000000E+04  0.00000000000E+00 0.  1.
    9000005    2    1    2  501    0  0.97051829613E-05 -0.60048290891E-04 -0.92227228222E+03  0.10777277154E+04  0.55759381812E+03 0.  0.
         13    1    3    3    0    0  0.10707795382E+03  0.22386986537E+03 -0.21555174663E+03  0.32870345342E+03  0.00000000000E+00 0.  1.
          3    1    3    3  501    0 -0.10707794412E+03 -0.22386992542E+03 -0.70672053558E+03  0.74902426198E+03  0.00000000000E+00 0.  1.
         21    1    1    2  502  501 -0.97051829619E-05  0.60048290915E-04  0.77572075694E-03  0.77810197312E-03  0.00000000000E+00 0. -1.
<mgrwt>
<rscale>  1 0.55759382E+03</rscale>
<asrwt>0</asrwt>
<pdfrwt beam="1">  1        1 0.28264966E+00 0.55759382E+03</pdfrwt>
<pdfrwt beam="2">0</pdfrwt>
<totfact> 0.44167000E+00</totfact>
</mgrwt>
</event>
<event>
 6    1  0.3813560E-003  0.6510447E+03  0.7818608E-02  0.9804821E-01
          1   -1    0    0  502    0  0.00000000000E+00  0.00000000000E+00  0.10604174664E+03  0.10604174664E+03  0.00000000000E+00 0.  1.
         13   -1    0    0    0    0 -0.00000000000E+00 -0.00000000000E+00 -0.10000000000E+04  0.10000000000E+04  0.00000000000E+00 0.  1.
    9000005    2    1    2  501    0 -0.14464741997E-02 -0.12799955832E-03 -0.89403519912E+03  0.11059647872E+04  0.65104467837E+03 0.  0.
         13    1    3    3    0    0 -0.12878402719E+03 -0.58759944443E+02 -0.94497880733E+03  0.95552237181E+03  0.00000000000E+00 0.  1.
          1    1    3    3  501    0  0.12878258072E+03  0.58759816444E+02  0.50943608214E+02  0.15044241537E+03  0.00000000000E+00 0.  1.
         21    1    1    2  502  501  0.14464741997E-02  0.12799955832E-03  0.76945758774E-01  0.76959459878E-01  0.00000000000E+00 0.  1.
<mgrwt>
<rscale>  1 0.65104468E+03</rscale>
<asrwt>0</asrwt>
<pdfrwt beam="1">  1        1 0.38560716E+00 0.65104468E+03</pdfrwt>
<pdfrwt beam="2">0</pdfrwt>
<totfact> 0.15496813E+00</totfact>
</mgrwt>
</event>
<event>
 6    1  0.3813560E-003  0.6603952E+03  0.7818608E-02  0.9787467E-01
          1   -1    0    0  502    0  0.00000000000E+00  0.00000000000E+00  0.12961065077E+03  0.12961065077E+03  0.00000000000E+00 0.  1.
         13   -1    0    0    0    0 -0.00000000000E+00 -0.00000000000E+00 -0.10000000000E+04  0.10000000000E+04  0.00000000000E+00 0.  1.
    9000005    2    1    2  501    0  0.61428513374E+01  0.12167753866E+02 -0.88843528804E+03  0.11069955062E+04  0.66025449702E+03 0.  0.
         13    1    3    3    0    0  0.74088852577E+02 -0.19335536346E+03 -0.15523508810E+02  0.20764497100E+03  0.00000000000E+00 0.  1.
          1    1    3    3  501    0 -0.67946001240E+02  0.20552311732E+03 -0.87291177923E+03  0.89935053520E+03  0.00000000000E+00 0.  1.
         21    1    1    2  502  501 -0.61428513374E+01 -0.12167753866E+02  0.18045938809E+02  0.22615144576E+02  0.00000000000E+00 0.  1.
<mgrwt>
<rscale>  1 0.66039518E+03</rscale>
<asrwt>0</asrwt>
<pdfrwt beam="1">  1        1 0.47131245E+00 0.66039518E+03</pdfrwt>
<pdfrwt beam="2">0</pdfrwt>
<totfact> 0.63116091E-01</totfact>
</mgrwt>
</event>
<event>
 6    1  0.3813560E-003  0.6026941E+03  0.7818608E-02  0.9899832E-01
          1   -1    0    0  502    0  0.00000000000E+00  0.00000000000E+00  0.90938516019E+02  0.90938516019E+02  0.00000000000E+00 0.  1.
         13   -1    0    0    0    0 -0.00000000000E+00 -0.00000000000E+00 -0.10000000000E+04  0.10000000000E+04  0.00000000000E+00 0.  1.
    9000005    2    1    2  501    0 -0.22651534846E+00 -0.33098988939E+00 -0.90867978529E+03  0.10903848398E+04  0.60269394034E+03 0.  0.
         13    1    3    3    0    0  0.24681108521E+03  0.17124506489E+03 -0.41538970221E+03  0.51262967991E+03  0.00000000000E+00 0.  1.
          3    1    3    3  501    0 -0.24703760055E+03 -0.17157605478E+03 -0.49329008308E+03  0.57775515984E+03  0.00000000000E+00 0.  1.
         21    1    1    2  502  501  0.22651534846E+00  0.33098988939E+00 -0.38169869559E+00  0.55367626298E+00  0.00000000000E+00 0. -1.
<mgrwt>
<rscale>  1 0.60269407E+03</rscale>
<asrwt>0</asrwt>
<pdfrwt beam="1">  1        1 0.33068621E+00 0.60269407E+03</pdfrwt>
<pdfrwt beam="2">0</pdfrwt>
<totfact> 0.27176771E+00</totfact>
</mgrwt>
</event>
<event>
 6    1  0.3813560E-003  0.6503906E+03  0.7818608E-02  0.9806047E-01
          1   -1    0    0  502    0  0.00000000000E+00  0.00000000000E+00  0.10575406237E+03  0.10575406237E+03  0.00000000000E+00 0.  1.
         13   -1    0    0    0    0 -0.00000000000E+00 -0.00000000000E+00 -0.10000000000E+04  0.10000000000E+04  0.00000000000E+00 0.  1.
    9000005    2    1    2  501    0  0.23658653782E-03  0.52515803143E-02 -0.89424332746E+03  0.11057481931E+04  0.65039060407E+03 0.  0.
         13    1    3    3    0    0  0.26200824333E+03  0.41825795892E+02 -0.12745023377E+03  0.29434890668E+03  0.00000000000E+00 0.  1.
          3    1    3    3  501    0 -0.26200800674E+03 -0.41820544312E+02 -0.76679309368E+03  0.81139928644E+03  0.00000000000E+00 0.  1.
         21    1    1    2  502  501 -0.23658653783E-03 -0.52515803143E-02 -0.26101730595E-02  0.58692480257E-02  0.00000000000E+00 0.  1.
<mgrwt>
<rscale>  1 0.65039060E+03</rscale>
<asrwt>0</asrwt>
<pdfrwt beam="1">  1        1 0.38456104E+00 0.65039060E+03</pdfrwt>
<pdfrwt beam="2">0</pdfrwt>
<totfact> 0.15664709E+00</totfact>
</mgrwt>
</event>
<event>
 6    1  0.3813560E-003  0.6566552E+03  0.7818608E-02  0.9794371E-01
          1   -1    0    0  502    0  0.00000000000E+00  0.00000000000E+00  0.10782486319E+03  0.10782486319E+03  0.00000000000E+00 0.  1.
         13   -1    0    0    0    0 -0.00000000000E+00 -0.00000000000E+00 -0.10000000000E+04  0.10000000000E+04  0.00000000000E+00 0.  1.
    9000005    2    1    2  501    0  0.14756278308E-02 -0.32250617799E-02 -0.89220085974E+03  0.11077988969E+04  0.65665517729E+03 0.  0.
         13    1    3    3    0    0  0.10569075626E+03 -0.18094672521E+03 -0.87251597897E+03  0.89732735770E+03  0.00000000000E+00 0.  1.
          3    1    3    3  501    0 -0.10568928063E+03  0.18094350015E+03 -0.19684880769E+02  0.21047153921E+03  0.00000000000E+00 0.  1.
         21    1    1    2  502  501 -0.14756278308E-02  0.32250617799E-02  0.25722930687E-01  0.25966279366E-01  0.00000000000E+00 0. -1.
<mgrwt>
<rscale>  1 0.65665518E+03</rscale>
<asrwt>0</asrwt>
<pdfrwt beam="1">  1        1 0.39209124E+00 0.65665518E+03</pdfrwt>
<pdfrwt beam="2">0</pdfrwt>
<totfact> 0.14489482E+00</totfact>
</mgrwt>
</event>
<event>
 6    1  0.3813560E-003  0.6563011E+03  0.7818608E-02  0.9795027E-01
          1   -1    0    0  502    0  0.00000000000E+00  0.00000000000E+00  0.10768282550E+03  0.10768282550E+03  0.00000000000E+00 0.  1.
         13   -1    0    0    0    0 -0.00000000000E+00 -0.00000000000E+00 -0.10000000000E+04  0.10000000000E+04  0.00000000000E+00 0.  1.
    9000005    2    1    2  501    0 -0.50659795647E-05  0.63474431045E-06 -0.89231720397E+03  0.11076827956E+04  0.65630113755E+03 0.  0.
         13    1    3    3    0    0 -0.14037659156E+03 -0.29660361355E+03 -0.44931850559E+03  0.55638692516E+03  0.00000000000E+00 0.  1.
          1    1    3    3  501    0  0.14037658649E+03  0.29660361419E+03 -0.44299869838E+03  0.55129587043E+03  0.00000000000E+00 0.  1.
         21    1    1    2  502  501  0.50659795745E-05 -0.63474428337E-06  0.29469486964E-04  0.29908488950E-04  0.00000000000E+00 0.  1.
<mgrwt>
<rscale>  1 0.65630114E+03</rscale>
<asrwt>0</asrwt>
<pdfrwt beam="1">  1        1 0.39157474E+00 0.65630114E+03</pdfrwt>
<pdfrwt beam="2">0</pdfrwt>
<totfact> 0.14567139E+00</totfact>
</mgrwt>
</event>
<event>
 6    1  0.3813560E-003  0.6534889E+03  0.7818608E-02  0.9800254E-01
          1   -1    0    0  502    0  0.00000000000E+00  0.00000000000E+00  0.10727294334E+03  0.10727294334E+03  0.00000000000E+00 0.  1.
         13   -1    0    0    0    0 -0.00000000000E+00 -0.00000000000E+00 -0.10000000000E+04  0.10000000000E+04  0.00000000000E+00 0.  1.
    9000005    2    1    2  501    0  0.45729013230E-01 -0.53614042941E-01 -0.89323536321E+03  0.11067597756E+04  0.65348893012E+03 0.  0.
         13    1    3    3    0    0  0.13050837340E+03 -0.10604706233E+03  0.27858402596E+02  0.17045382234E+03  0.00000000000E+00 0.  1.
          1    1    3    3  501    0 -0.13046264439E+03  0.10599344828E+03 -0.92109376580E+03  0.93630595323E+03  0.00000000000E+00 0.  1.
         21    1    1    2  502  501 -0.45729013230E-01  0.53614042941E-01  0.50830654516E+00  0.51316776214E+00  0.00000000000E+00 0. -1.
<mgrwt>
<rscale>  1 0.65348893E+03</rscale>
<asrwt>0</asrwt>
<pdfrwt beam="1">  1        1 0.39008425E+00 0.65348893E+03</pdfrwt>
<pdfrwt beam="2">0</pdfrwt>
<totfact> 0.14798367E+00</totfact>
</mgrwt>
</event>
<event>
 6    1  0.3813560E-003  0.6351714E+03  0.7818608E-02  0.9835009E-01
          1   -1    0    0  502    0  0.00000000000E+00  0.00000000000E+00  0.10086072729E+03  0.10086072729E+03  0.00000000000E+00 0.  1.
         13   -1    0    0    0    0 -0.00000000000E+00 -0.00000000000E+00 -0.10000000000E+04  0.10000000000E+04  0.00000000000E+00 0.  1.
    9000005    2    1    2  501    0 -0.42974082191E-04  0.20404719272E-04 -0.89913931283E+03  0.11008606651E+04  0.63517139419E+03 0.  0.
         13    1    3    3    0    0  0.30641923860E+03  0.35869614067E+02 -0.58020616490E+03  0.65712903815E+03  0.00000000000E+00 0.  1.
          1    1    3    3  501    0 -0.30641928157E+03 -0.35869593663E+02 -0.31893314794E+03  0.44373162691E+03  0.00000000000E+00 0.  1.
         21    1    1    2  502  501  0.42974082176E-04 -0.20404719272E-04  0.40126674764E-04  0.62235635572E-04  0.00000000000E+00 0.  1.
<mgrwt>
<rscale>  1 0.63517139E+03</rscale>
<asrwt>0</asrwt>
<pdfrwt beam="1">  1        1 0.36676705E+00 0.63517139E+03</pdfrwt>
<pdfrwt beam="2">0</pdfrwt>
<totfact> 0.18814247E+00</totfact>
</mgrwt>
</event>
<event>
 6    1  0.3813560E-003  0.6379242E+03  0.7818608E-02  0.9829706E-01
          1   -1    0    0  502    0  0.00000000000E+00  0.00000000000E+00  0.10173943176E+03  0.10173943176E+03  0.00000000000E+00 0.  1.
         13   -1    0    0    0    0 -0.00000000000E+00 -0.00000000000E+00 -0.10000000000E+04  0.10000000000E+04  0.00000000000E+00 0.  1.
    9000005    2    1    2  501    0  0.51131283996E-04 -0.33168929625E-03 -0.89826316335E+03  0.11017368150E+04  0.63792421101E+03 0.  0.
         13    1    3    3    0    0 -0.10113236292E+03  0.13434265360E+03  0.18967197183E+02  0.16922014648E+03  0.00000000000E+00 0.  1.
          1    1    3    3  501    0  0.10113241405E+03 -0.13434298529E+03 -0.91723036053E+03  0.93251666856E+03  0.00000000000E+00 0.  1.
         21    1    1    2  502  501 -0.51131283997E-04  0.33168929626E-03  0.25951092196E-02  0.26167200957E-02  0.00000000000E+00 0.  1.
<mgrwt>
<rscale>  1 0.63792421E+03</rscale>
<asrwt>0</asrwt>
<pdfrwt beam="1">  1        1 0.36996235E+00 0.63792421E+03</pdfrwt>
<pdfrwt beam="2">0</pdfrwt>
<totfact> 0.18207328E+00</totfact>
</mgrwt>
</event>
<event>
 6    1  0.3813560E-003  0.5819240E+03  0.7818608E-02  0.9943634E-01
          1   -1    0    0  502    0  0.00000000000E+00  0.00000000000E+00  0.84665785963E+02  0.84665785963E+02  0.00000000000E+00 0.  1.
         13   -1    0    0    0    0 -0.00000000000E+00 -0.00000000000E+00 -0.10000000000E+04  0.10000000000E+04  0.00000000000E+00 0.  1.
    9000005    2    1    2  501    0 -0.13741163271E-03 -0.85413510220E-04 -0.91534111002E+03  0.10846588881E+04  0.58192401206E+03 0.  0.
         13    1    3    3    0    0  0.64822120895E+02  0.18584991837E+03 -0.58266367331E+02  0.20527315723E+03  0.00000000000E+00 0.  1.
          1    1    3    3  501    0 -0.64822258306E+02 -0.18585000379E+03 -0.85707474269E+03  0.87938573085E+03  0.00000000000E+00 0.  1.
         21    1    1    2  502  501  0.13741163271E-03  0.85413510221E-04  0.68959809189E-02  0.68978786781E-02  0.00000000000E+00 0.  1.
<mgrwt>
<rscale>  1 0.58192401E+03</rscale>
<asrwt>0</asrwt>
<pdfrwt beam="1">  1        1 0.30787623E+00 0.58192401E+03</pdfrwt>
<pdfrwt beam="2">0</pdfrwt>
<totfact> 0.34230616E+00</totfact>
</mgrwt>
</event>
<event>
 6    1  0.3813560E-003  0.6488345E+03  0.7818608E-02  0.9808969E-01
          1   -1    0    0  502    0  0.00000000000E+00  0.00000000000E+00  0.10525585371E+03  0.10525585371E+03  0.00000000000E+00 0.  1.
         13   -1    0    0    0    0 -0.00000000000E+00 -0.00000000000E+00 -0.10000000000E+04  0.10000000000E+04  0.00000000000E+00 0.  1.
    9000005    2    1    2  501    0  0.30287369031E-02  0.23790414664E-02 -0.89475302023E+03  0.11052461800E+04  0.64883445598E+03 0.  0.
         13    1    3    3    0    0  0.81538180287E+02  0.14030395286E+03 -0.92589832174E+03  0.94001137027E+03  0.00000000000E+00 0.  1.
          1    1    3    3  501    0 -0.81535151550E+02 -0.14030157382E+03  0.31145301511E+02  0.16523480977E+03  0.00000000000E+00 0.  1.
         21    1    1    2  502  501 -0.30287369031E-02 -0.23790414664E-02  0.88739422356E-02  0.96736723290E-02  0.00000000000E+00 0.  1.
<mgrwt>
<rscale>  1 0.64883446E+03</rscale>
<asrwt>0</asrwt>
<pdfrwt beam="1">  1        1 0.38274937E+00 0.64883446E+03</pdfrwt>
<pdfrwt beam="2">0</pdfrwt>
<totfact> 0.15960813E+00</totfact>
</mgrwt>
</event>
<event>
 6    1  0.3813560E-003  0.6744060E+03  0.7818608E-02  0.9762031E-01
          1   -1    0    0  502    0  0.00000000000E+00  0.00000000000E+00  0.11370599230E+03  0.11370599230E+03  0.00000000000E+00 0.  1.
         13   -1    0    0    0    0 -0.00000000000E+00 -0.00000000000E+00 -0.10000000000E+04  0.10000000000E+04  0.00000000000E+00 0.  1.
    9000005    2    1    2  501    0 -0.21130024493E-04 -0.18183020813E-04 -0.88629414802E+03  0.11137058492E+04  0.67440596217E+03 0.  0.
         13    1    3    3    0    0 -0.27733262480E+03 -0.11972948301E+03 -0.69062025189E+03  0.75379364962E+03  0.00000000000E+00 0.  1.
          1    1    3    3  501    0  0.27733260367E+03  0.11972946483E+03 -0.19567389613E+03  0.35991219962E+03  0.00000000000E+00 0.  1.
         21    1    1    2  502  501  0.21130024475E-04  0.18183020819E-04  0.14031705883E-03  0.14305934845E-03  0.00000000000E+00 0. -1.
<mgrwt>
<rscale>  1 0.67440596E+03</rscale>
<asrwt>0</asrwt>
<pdfrwt beam="1">  1        1 0.41347721E+00 0.67440596E+03</pdfrwt>
<pdfrwt beam="2">0</pdfrwt>
<totfact> 0.11589853E+00</totfact>
</mgrwt>
</event>
<event>
 6    1  0.3813560E-003  0.6508948E+03  0.7818608E-02  0.9805102E-01
          1   -1    0    0  502    0  0.00000000000E+00  0.00000000000E+00  0.10592142667E+03  0.10592142667E+03  0.00000000000E+00 0.  1.
         13   -1    0    0    0    0 -0.00000000000E+00 -0.00000000000E+00 -0.10000000000E+04  0.10000000000E+04  0.00000000000E+00 0.  1.
    9000005    2    1    2  501    0 -0.85049504040E-03 -0.66876845928E-02 -0.89408157694E+03  0.11059140463E+04  0.65089477759E+03 0.  0.
         13    1    3    3    0    0  0.15484565001E+03  0.51112094054E+02 -0.92557964300E+03  0.93983365391E+03  0.00000000000E+00 0.  1.
          1    1    3    3  501    0 -0.15484650051E+03 -0.51118781739E+02  0.31498066057E+02  0.16608039237E+03  0.00000000000E+00 0.  1.
         21    1    1    2  502  501  0.85049504039E-03  0.66876845928E-02  0.30036081274E-02  0.73803881205E-02  0.00000000000E+00 0.  1.
<mgrwt>
<rscale>  1 0.65089478E+03</rscale>
<asrwt>0</asrwt>
<pdfrwt beam="1">  1        1 0.38516964E+00 0.65089478E+03</pdfrwt>
<pdfrwt beam="2">0</pdfrwt>
<totfact> 0.15566469E+00</totfact>
</mgrwt>
</event>
<event>
 6    1  0.3813560E-003  0.6566380E+03  0.7818608E-02  0.9794403E-01
          1   -1    0    0  502    0  0.00000000000E+00  0.00000000000E+00  0.10787533746E+03  0.10787533746E+03  0.00000000000E+00 0.  1.
         13   -1    0    0    0    0 -0.00000000000E+00 -0.00000000000E+00 -0.10000000000E+04  0.10000000000E+04  0.00000000000E+00 0.  1.
    9000005    2    1    2  501    0 -0.15862634189E-02 -0.87621298570E-03 -0.89220663862E+03  0.11077933413E+04  0.65663795285E+03 0.  0.
         13    1    3    3    0    0 -0.13708634641E+03  0.29757797291E+03 -0.41039508795E+03  0.52513754822E+03  0.00000000000E+00 0.  1.
          3    1    3    3  501    0  0.13708476015E+03 -0.29757884912E+03 -0.48181155067E+03  0.58265579313E+03  0.00000000000E+00 0.  1.
         21    1    1    2  502  501  0.15862634189E-02  0.87621298567E-03  0.81976083379E-01  0.81996111048E-01  0.00000000000E+00 0. -1.
<mgrwt>
<rscale>  1 0.65663795E+03</rscale>
<asrwt>0</asrwt>
<pdfrwt beam="1">  1        1 0.39227478E+00 0.65663795E+03</pdfrwt>
<pdfrwt beam="2">0</pdfrwt>
<totfact> 0.14462366E+00</totfact>
</mgrwt>
</event>
<event>
 6    1  0.3813560E-003  0.6770991E+03  0.7818608E-02  0.9757218E-01
          1   -1    0    0  502    0  0.00000000000E+00  0.00000000000E+00  0.11462212142E+03  0.11462212142E+03  0.00000000000E+00 0.  1.
         13   -1    0    0    0    0 -0.00000000000E+00 -0.00000000000E+00 -0.10000000000E+04  0.10000000000E+04  0.00000000000E+00 0.  1.
    9000005    2    1    2  501    0 -0.19041118929E-03 -0.75375414895E-04 -0.88538419298E+03  0.11146158037E+04  0.67709912176E+03 0.  0.
         13    1    3    3    0    0  0.22818070093E+03  0.22188619872E+03 -0.63264973465E+03  0.70819884511E+03  0.00000000000E+00 0.  1.
          3    1    3    3  501    0 -0.22818089134E+03 -0.22188627410E+03 -0.25273445833E+03  0.40641695859E+03  0.00000000000E+00 0.  1.
         21    1    1    2  502  501  0.19041118932E-03  0.75375414909E-04  0.63144004651E-02  0.63177204044E-02  0.00000000000E+00 0. -1.
<mgrwt>
<rscale>  1 0.67709912E+03</rscale>
<asrwt>0</asrwt>
<pdfrwt beam="1">  1        1 0.41680859E+00 0.67709912E+03</pdfrwt>
<pdfrwt beam="2">0</pdfrwt>
<totfact> 0.11190861E+00</totfact>
</mgrwt>
</event>
<event>
 6    1  0.3813560E-003  0.6530146E+03  0.7818608E-02  0.9801139E-01
          1   -1    0    0  502    0  0.00000000000E+00  0.00000000000E+00  0.10660719243E+03  0.10660719243E+03  0.00000000000E+00 0.  1.
         13   -1    0    0    0    0 -0.00000000000E+00 -0.00000000000E+00 -0.10000000000E+04  0.10000000000E+04  0.00000000000E+00 0.  1.
    9000005    2    1    2  501    0  0.48531108519E-05 -0.75233981534E-06 -0.89339297156E+03  0.11066070284E+04  0.65301463506E+03 0.  0.
         13    1    3    3    0    0  0.65620653025E+02  0.28830810889E+03 -0.21201007907E+03  0.36383500296E+03  0.00000000000E+00 0.  1.
          3    1    3    3  501    0 -0.65620648171E+02 -0.28830810964E+03 -0.68138289249E+03  0.74277202541E+03  0.00000000000E+00 0.  1.
         21    1    1    2  502  501 -0.48531108541E-05  0.75233978900E-06  0.16398856103E-03  0.16406208230E-03  0.00000000000E+00 0. -1.
<mgrwt>
<rscale>  1 0.65301464E+03</rscale>
<asrwt>0</asrwt>
<pdfrwt beam="1">  1        1 0.38766334E+00 0.65301464E+03</pdfrwt>
<pdfrwt beam="2">0</pdfrwt>
<totfact> 0.15169862E+00</totfact>
</mgrwt>
</event>
<event>
 6    1  0.3813560E-003  0.6527681E+03  0.7818608E-02  0.9801599E-01
          1   -1    0    0  502    0  0.00000000000E+00  0.00000000000E+00  0.10652892453E+03  0.10652892453E+03  0.00000000000E+00 0.  1.
         13   -1    0    0    0    0 -0.00000000000E+00 -0.00000000000E+00 -0.10000000000E+04  0.10000000000E+04  0.00000000000E+00 0.  1.
    9000005    2    1    2  501    0  0.35164837084E-03  0.54598396798E-03 -0.89347339584E+03  0.11065265150E+04  0.65276812062E+03 0.  0.
         13    1    3    3    0    0 -0.14355692568E+03  0.27798051248E+03 -0.28912723563E+03  0.42600036927E+03  0.00000000000E+00 0.  1.
          1    1    3    3  501    0  0.14355727733E+03 -0.27797996650E+03 -0.60434616021E+03  0.68052614572E+03  0.00000000000E+00 0.  1.
         21    1    1    2  502  501 -0.35164837083E-03 -0.54598396799E-03  0.23203691754E-02  0.24095369223E-02  0.00000000000E+00 0. -1.
<mgrwt>
<rscale>  1 0.65276812E+03</rscale>
<asrwt>0</asrwt>
<pdfrwt beam="1">  1        1 0.38737872E+00 0.65276812E+03</pdfrwt>
<pdfrwt beam="2">0</pdfrwt>
<totfact> 0.15214650E+00</totfact>
</mgrwt>
</event>
<event>
 6    1  0.3813560E-003  0.6514741E+03  0.7818608E-02  0.9804017E-01
          1   -1    0    0  502    0  0.00000000000E+00  0.00000000000E+00  0.10611672538E+03  0.10611672538E+03  0.00000000000E+00 0.  1.
         13   -1    0    0    0    0 -0.00000000000E+00 -0.00000000000E+00 -0.10000000000E+04  0.10000000000E+04  0.00000000000E+00 0.  1.
    9000005    2    1    2  501    0 -0.55376977891E-02 -0.19256465466E-02 -0.89389458344E+03  0.11061039871E+04  0.65147410076E+03 0.  0.
         13    1    3    3    0    0  0.32086067376E+03 -0.50282377545E+02 -0.40456359966E+03  0.51879822246E+03  0.00000000000E+00 0.  1.
          1    1    3    3  501    0 -0.32086621146E+03  0.50280451898E+02 -0.48933098378E+03  0.58730576465E+03  0.00000000000E+00 0.  1.
         21    1    1    2  502  501  0.55376977891E-02  0.19256465466E-02  0.11308812583E-01  0.12738267287E-01  0.00000000000E+00 0. -1.
<mgrwt>
<rscale>  1 0.65147410E+03</rscale>
<asrwt>0</asrwt>
<pdfrwt beam="1">  1        1 0.38587982E+00 0.65147410E+03</pdfrwt>
<pdfrwt beam="2">0</pdfrwt>
<totfact> 0.15452598E+00</totfact>
</mgrwt>
</event>
<event>
 6    1  0.3813560E-003  0.6450907E+03  0.7818608E-02  0.9816035E-01
          1   -1    0    0  502    0  0.00000000000E+00  0.00000000000E+00  0.10403580128E+03  0.10403580128E+03  0.00000000000E+00 0.  1.
         13   -1    0    0    0    0 -0.00000000000E+00 -0.00000000000E+00 -0.10000000000E+04  0.10000000000E+04  0.00000000000E+00 0.  1.
    9000005    2    1    2  501    0  0.85322715790E-05 -0.74780432158E-05 -0.89596448707E+03  0.11040355127E+04  0.64509073099E+03 0.  0.
         13    1    3    3    0    0  0.21097960451E+03  0.97390388656E+02 -0.65145847262E+02  0.24133226625E+03  0.00000000000E+00 0.  1.
          1    1    3    3  501    0 -0.21097959597E+03 -0.97390396134E+02 -0.83081863981E+03  0.86270324645E+03  0.00000000000E+00 0.  1.
         21    1    1    2  502  501 -0.85322715666E-05  0.74780432200E-05  0.28835513222E-03  0.28857824427E-03  0.00000000000E+00 0. -1.
<mgrwt>
<rscale>  1 0.64509073E+03</rscale>
<asrwt>0</asrwt>
<pdfrwt beam="1">  1        1 0.37831280E+00 0.64509073E+03</pdfrwt>
<pdfrwt beam="2">0</pdfrwt>
<totfact> 0.16708380E+00</totfact>
</mgrwt>
</event>
<event>
 6    1  0.3813560E-003  0.6669842E+03  0.7818608E-02  0.9775421E-01
          1   -1    0    0  502    0  0.00000000000E+00  0.00000000000E+00  0.11156975671E+03  0.11156975671E+03  0.00000000000E+00 0.  1.
         13   -1    0    0    0    0 -0.00000000000E+00 -0.00000000000E+00 -0.10000000000E+04  0.10000000000E+04  0.00000000000E+00 0.  1.
    9000005    2    1    2  501    0 -0.23556478501E-01 -0.73794256019E-01 -0.88877829584E+03  0.11112131882E+04  0.66698417114E+03 0.  0.
         13    1    3    3    0    0  0.60913611070E+02  0.57170977350E+02  0.93499277550E+02  0.12538382498E+03  0.00000000000E+00 0.  1.
          1    1    3    3  501    0 -0.60937167549E+02 -0.57244771606E+02 -0.98227757339E+03  0.98582936325E+03  0.00000000000E+00 0.  1.
         21    1    1    2  502  501  0.23556478501E-01  0.73794256019E-01  0.34805254588E+00  0.35656847111E+00  0.00000000000E+00 0. -1.
<mgrwt>
<rscale>  1 0.66698418E+03</rscale>
<asrwt>0</asrwt>
<pdfrwt beam="1">  1        1 0.40570906E+00 0.66698418E+03</pdfrwt>
<pdfrwt beam="2">0</pdfrwt>
<totfact> 0.12575480E+00</totfact>
</mgrwt>
</event>
<event>
 6    1  0.4294369E-003  0.6583654E+03  0.7818608E-02  0.9791207E-01
          1   -1    0    0  502    0  0.00000000000E+00  0.00000000000E+00  0.10836126945E+03  0.10836126945E+03  0.00000000000E+00 0.  1.
         13   -1    0    0    0    0 -0.00000000000E+00 -0.00000000000E+00 -0.10000000000E+04  0.10000000000E+04  0.00000000000E+00 0.  1.
    9000005    2    1    2  501    0  0.89173244078E-06 -0.36536934829E-05 -0.89163873273E+03  0.11083612651E+04  0.65836544888E+03 0.  0.
         13    1    3    3    0    0 -0.21698388663E+03  0.23782928604E+03 -0.56143689913E+03  0.64719098268E+03  0.00000000000E+00 0.  1.
          3    1    3    3  501    0  0.21698388752E+03 -0.23782928970E+03 -0.33020183360E+03  0.46117028242E+03  0.00000000000E+00 0.  1.
         21    1    1    2  502  501 -0.89173245056E-06  0.36536934866E-05  0.21829026564E-05  0.43485315757E-05  0.00000000000E+00 0.  1.
<mgrwt>
<rscale>  1 0.65836545E+03</rscale>
<asrwt>0</asrwt>
<pdfrwt beam="1">  1        1 0.39404181E+00 0.65836545E+03</pdfrwt>
<pdfrwt beam="2">0</pdfrwt>
<totfact> 0.14198750E+00</totfact>
</mgrwt>
</event>
<event>
 6    1  0.3813560E-003  0.6447388E+03  0.7818608E-02  0.9816702E-01
          1   -1    0    0  502    0  0.00000000000E+00  0.00000000000E+00  0.10392211749E+03  0.10392211749E+03  0.00000000000E+00 0.  1.
         13   -1    0    0    0    0 -0.00000000000E+00 -0.00000000000E+00 -0.10000000000E+04  0.10000000000E+04  0.00000000000E+00 0.  1.
    9000005    2    1    2  501    0  0.45357639920E-05 -0.73531063691E-05 -0.89607796111E+03  0.11039220384E+04  0.64473882658E+03 0.  0.
         13    1    3    3    0    0 -0.21886676657E+03  0.47314716266E+02 -0.50968335935E+02  0.22964998400E+03  0.00000000000E+00 0.  1.
          3    1    3    3  501    0  0.21886677110E+03 -0.47314723619E+02 -0.84510962518E+03  0.87427205442E+03  0.00000000000E+00 0.  1.
         21    1    1    2  502  501 -0.45357640055E-05  0.73531063675E-05  0.78601436716E-04  0.79074820152E-04  0.00000000000E+00 0. -1.
<mgrwt>
<rscale>  1 0.64473883E+03</rscale>
<asrwt>0</asrwt>
<pdfrwt beam="1">  1        1 0.37789941E+00 0.64473883E+03</pdfrwt>
<pdfrwt beam="2">0</pdfrwt>
<totfact> 0.16779720E+00</totfact>
</mgrwt>
</event>
<event>
 6    1  0.3813560E-003  0.6220711E+03  0.7818608E-02  0.9860645E-01
          1   -1    0    0  502    0  0.00000000000E+00  0.00000000000E+00  0.96743293376E+02  0.96743293376E+02  0.00000000000E+00 0.  1.
         13   -1    0    0    0    0 -0.00000000000E+00 -0.00000000000E+00 -0.10000000000E+04  0.10000000000E+04  0.00000000000E+00 0.  1.
    9000005    2    1    2  501    0 -0.61897914975E-04 -0.56391695239E-04 -0.90325688671E+03  0.10967430948E+04  0.62207106713E+03 0.  0.
         13    1    3    3    0    0 -0.23814903523E+03 -0.11532002524E+03 -0.16338471370E+03  0.31097947822E+03  0.00000000000E+00 0.  1.
          1    1    3    3  501    0  0.23814897333E+03  0.11531996885E+03 -0.73987217301E+03  0.78576361656E+03  0.00000000000E+00 0.  1.
         21    1    1    2  502  501  0.61897914959E-04  0.56391695232E-04  0.18008197226E-03  0.19859731091E-03  0.00000000000E+00 0. -1.
<mgrwt>
<rscale>  1 0.62207107E+03</rscale>
<asrwt>0</asrwt>
<pdfrwt beam="1">  1        1 0.35179454E+00 0.62207107E+03</pdfrwt>
<pdfrwt beam="2">0</pdfrwt>
<totfact> 0.21927020E+00</totfact>
</mgrwt>
</event>
<event>
 6    1  0.3813560E-003  0.6302514E+03  0.7818608E-02  0.9844558E-01
          1   -1    0    0  502    0  0.00000000000E+00  0.00000000000E+00  0.99304219739E+02  0.99304219739E+02  0.00000000000E+00 0.  1.
         13   -1    0    0    0    0 -0.00000000000E+00 -0.00000000000E+00 -0.10000000000E+04  0.10000000000E+04  0.00000000000E+00 0.  1.
    9000005    2    1    2  501    0  0.17056495381E-05  0.16853432641E-05 -0.90069578963E+03  0.10993042101E+04  0.63025141080E+03 0.  0.
         13    1    3    3    0    0  0.31097684108E+03 -0.28710930612E+02 -0.52379841362E+03  0.60983251089E+03  0.00000000000E+00 0.  1.
          1    1    3    3  501    0 -0.31097683937E+03  0.28710932297E+02 -0.37689737601E+03  0.48947169918E+03  0.00000000000E+00 0.  1.
         21    1    1    2  502  501 -0.17056495315E-05 -0.16853432643E-05  0.93680753489E-05  0.96700805573E-05  0.00000000000E+00 0.  1.
<mgrwt>
<rscale>  1 0.63025141E+03</rscale>
<asrwt>0</asrwt>
<pdfrwt beam="1">  1        1 0.36110702E+00 0.63025141E+03</pdfrwt>
<pdfrwt beam="2">0</pdfrwt>
<totfact> 0.19937350E+00</totfact>
</mgrwt>
</event>
<event>
 6    1  0.3813560E-003  0.6493529E+03  0.7818608E-02  0.9807994E-01
          1   -1    0    0  502    0  0.00000000000E+00  0.00000000000E+00  0.10541709293E+03  0.10541709293E+03  0.00000000000E+00 0.  1.
         13   -1    0    0    0    0 -0.00000000000E+00 -0.00000000000E+00 -0.10000000000E+04  0.10000000000E+04  0.00000000000E+00 0.  1.
    9000005    2    1    2  501    0 -0.47026084791E-02  0.10786140175E-02 -0.89458196853E+03  0.11054121778E+04  0.64935289660E+03 0.  0.
         13    1    3    3    0    0  0.22614694649E+03  0.11244436254E+03 -0.99965176610E+02  0.27162329173E+03  0.00000000000E+00 0.  1.
          1    1    3    3  501    0 -0.22615164910E+03 -0.11244328393E+03 -0.79461679192E+03  0.83378888605E+03  0.00000000000E+00 0.  1.
         21    1    1    2  502  501  0.47026084791E-02 -0.10786140175E-02 -0.93853706794E-03  0.49151588513E-02  0.00000000000E+00 0. -1.
<mgrwt>
<rscale>  1 0.64935290E+03</rscale>
<asrwt>0</asrwt>
<pdfrwt beam="1">  1        1 0.38333569E+00 0.64935290E+03</pdfrwt>
<pdfrwt beam="2">0</pdfrwt>
<totfact> 0.15864362E+00</totfact>
</mgrwt>
</event>
<event>
 6    1  0.3813560E-003  0.6416902E+03  0.7818608E-02  0.9822498E-01
          1   -1    0    0  502    0  0.00000000000E+00  0.00000000000E+00  0.10294763408E+03  0.10294763408E+03  0.00000000000E+00 0.  1.
         13   -1    0    0    0    0 -0.00000000000E+00 -0.00000000000E+00 -0.10000000000E+04  0.10000000000E+04  0.00000000000E+00 0.  1.
    9000005    2    1    2  501    0  0.31688069343E-03  0.46673104521E-04 -0.89705842529E+03  0.11029415663E+04  0.64169017460E+03 0.  0.
         13    1    3    3    0    0 -0.51663208681E+02  0.31430263323E+03 -0.38226399470E+03  0.49757511396E+03  0.00000000000E+00 0.  1.
          1    1    3    3  501    0  0.51663525562E+02 -0.31430258656E+03 -0.51479443059E+03  0.60536645229E+03  0.00000000000E+00 0.  1.
         21    1    1    2  502  501 -0.31688069343E-03 -0.46673104518E-04  0.60593704173E-02  0.60678300575E-02  0.00000000000E+00 0. -1.
<mgrwt>
<rscale>  1 0.64169017E+03</rscale>
<asrwt>0</asrwt>
<pdfrwt beam="1">  1        1 0.37435582E+00 0.64169017E+03</pdfrwt>
<pdfrwt beam="2">0</pdfrwt>
<totfact> 0.17403378E+00</totfact>
</mgrwt>
</event>
<event>
 6    1  0.3813560E-003  0.6554384E+03  0.7818608E-02  0.9796628E-01
          1   -1    0    0  502    0  0.00000000000E+00  0.00000000000E+00  0.10739990952E+03  0.10739990952E+03  0.00000000000E+00 0.  1.
         13   -1    0    0    0    0 -0.00000000000E+00 -0.00000000000E+00 -0.10000000000E+04  0.10000000000E+04  0.00000000000E+00 0.  1.
    9000005    2    1    2  501    0 -0.13955536119E-04 -0.36634981484E-05 -0.89260010723E+03  0.11073998874E+04  0.65543844807E+03 0.  0.
         13    1    3    3    0    0  0.76986311847E+02  0.28863737571E+03 -0.67399214273E+03  0.73722712602E+03  0.00000000000E+00 0.  1.
          1    1    3    3  501    0 -0.76986325802E+02 -0.28863737938E+03 -0.21860796450E+03  0.37017276139E+03  0.00000000000E+00 0.  1.
         21    1    1    2  502  501  0.13955536120E-04  0.36634981253E-05  0.16751090958E-04  0.22108307380E-04  0.00000000000E+00 0. -1.
<mgrwt>
<rscale>  1 0.65543845E+03</rscale>
<asrwt>0</asrwt>
<pdfrwt beam="1">  1        1 0.39054595E+00 0.65543845E+03</pdfrwt>
<pdfrwt beam="2">0</pdfrwt>
<totfact> 0.14723424E+00</totfact>
</mgrwt>
</event>
<event>
 6    1  0.3813560E-003  0.6399404E+03  0.7818608E-02  0.9825841E-01
          1   -1    0    0  502    0  0.00000000000E+00  0.00000000000E+00  0.12552485038E+03  0.12552485038E+03  0.00000000000E+00 0.  1.
         13   -1    0    0    0    0 -0.00000000000E+00 -0.00000000000E+00 -0.10000000000E+04  0.10000000000E+04  0.00000000000E+00 0.  1.
    9000005    2    1    2  501    0  0.67410286508E+00 -0.58920619517E+00 -0.89760951995E+03  0.11023731621E+04  0.63993979144E+03 0.  0.
         13    1    3    3    0    0  0.90961026543E+02  0.14505837643E+02  0.79081926019E+02  0.12140131259E+03  0.00000000000E+00 0.  1.
          3    1    3    3  501    0 -0.90286923678E+02 -0.15095043838E+02 -0.97669144597E+03  0.98097184953E+03  0.00000000000E+00 0.  1.
         21    1    1    2  502  501 -0.67410286508E+00  0.58920619517E+00  0.23134370336E+02  0.23151688263E+02  0.00000000000E+00 0. -1.
<mgrwt>
<rscale>  1 0.63994042E+03</rscale>
<asrwt>0</asrwt>
<pdfrwt beam="1">  1        1 0.45645496E+00 0.63994042E+03</pdfrwt>
<pdfrwt beam="2">0</pdfrwt>
<totfact> 0.74338036E-01</totfact>
</mgrwt>
</event>
<event>
 6    1  0.3813560E-003  0.6464467E+03  0.7818608E-02  0.9813470E-01
          1   -1    0    0  502    0  0.00000000000E+00  0.00000000000E+00  0.10656816392E+03  0.10656816392E+03  0.00000000000E+00 0.  1.
         13   -1    0    0    0    0 -0.00000000000E+00 -0.00000000000E+00 -0.10000000000E+04  0.10000000000E+04  0.00000000000E+00 0.  1.
    9000005    2    1    2  501    0 -0.87987080565E+00  0.23422718438E+00 -0.89541683360E+03  0.11043843026E+04  0.64644609439E+03 0.  0.
         13    1    3    3    0    0  0.13492517623E+03 -0.12351060075E+03  0.73930791775E+01  0.18306919266E+03  0.00000000000E+00 0.  1.
          3    1    3    3  501    0 -0.13580504704E+03  0.12374482793E+03 -0.90280991278E+03  0.92131510997E+03  0.00000000000E+00 0.  1.
         21    1    1    2  502  501  0.87987080565E+00 -0.23422718438E+00  0.19849975238E+01  0.21838613001E+01  0.00000000000E+00 0. -1.
<mgrwt>
<rscale>  1 0.64644674E+03</rscale>
<asrwt>0</asrwt>
<pdfrwt beam="1">  1        1 0.38752141E+00 0.64644674E+03</pdfrwt>
<pdfrwt beam="2">0</pdfrwt>
<totfact> 0.15210380E+00</totfact>
</mgrwt>
</event>
<event>
 6    1  0.3813560E-003  0.6482455E+03  0.7818608E-02  0.9810077E-01
          1   -1    0    0  502    0  0.00000000000E+00  0.00000000000E+00  0.10505590851E+03  0.10505590851E+03  0.00000000000E+00 0.  1.
         13   -1    0    0    0    0 -0.00000000000E+00 -0.00000000000E+00 -0.10000000000E+04  0.10000000000E+04  0.00000000000E+00 0.  1.
    9000005    2    1    2  501    0 -0.24029554893E-03  0.48336605642E-03 -0.89494421312E+03  0.11050553552E+04  0.64824547310E+03 0.  0.
         13    1    3    3    0    0  0.18841681266E+03  0.34782611892E+02 -0.18186072571E+01  0.19160906219E+03  0.00000000000E+00 0.  1.
          3    1    3    3  501    0 -0.18841705295E+03 -0.34782128526E+02 -0.89312560587E+03  0.91344629298E+03  0.00000000000E+00 0.  1.
         21    1    1    2  502  501  0.24029554894E-03 -0.48336605642E-03  0.12163247134E-03  0.55333457638E-03  0.00000000000E+00 0. -1.
<mgrwt>
<rscale>  1 0.64824547E+03</rscale>
<asrwt>0</asrwt>
<pdfrwt beam="1">  1        1 0.38202229E+00 0.64824547E+03</pdfrwt>
<pdfrwt beam="2">0</pdfrwt>
<totfact> 0.16081032E+00</totfact>
</mgrwt>
</event>
<event>
 6    1  0.3813560E-003  0.6534107E+03  0.7818608E-02  0.9800400E-01
          1   -1    0    0  502    0  0.00000000000E+00  0.00000000000E+00  0.11043345816E+03  0.11043345816E+03  0.00000000000E+00 0.  1.
         13   -1    0    0    0    0 -0.00000000000E+00 -0.00000000000E+00 -0.10000000000E+04  0.10000000000E+04  0.00000000000E+00 0.  1.
    9000005    2    1    2  501    0  0.84875528940E+00 -0.18831828671E+01 -0.89294159137E+03  0.11064764741E+04  0.65340740389E+03 0.  0.
         13    1    3    3    0    0 -0.13441605550E+03  0.29092349223E+03 -0.34679002678E+03  0.47219432121E+03  0.00000000000E+00 0.  1.
          1    1    3    3  501    0  0.13526481079E+03 -0.29280667510E+03 -0.54615156459E+03  0.63428215293E+03  0.00000000000E+00 0.  1.
         21    1    1    2  502  501 -0.84875528940E+00  0.18831828671E+01  0.33750495262E+01  0.39569840228E+01  0.00000000000E+00 0.  1.
<mgrwt>
<rscale>  1 0.65341067E+03</rscale>
<asrwt>0</asrwt>
<pdfrwt beam="1">  1        1 0.40157706E+00 0.65341067E+03</pdfrwt>
<pdfrwt beam="2">0</pdfrwt>
<totfact> 0.13155288E+00</totfact>
</mgrwt>
</event>
<event>
 6    1  0.3813560E-003  0.6396355E+03  0.7818608E-02  0.9826424E-01
          1   -1    0    0  502    0  0.00000000000E+00  0.00000000000E+00  0.10228607511E+03  0.10228607511E+03  0.00000000000E+00 0.  1.
         13   -1    0    0    0    0 -0.00000000000E+00 -0.00000000000E+00 -0.10000000000E+04  0.10000000000E+04  0.00000000000E+00 0.  1.
    9000005    2    1    2  501    0  0.55294808313E-03  0.51335819342E-03 -0.89771656334E+03  0.11022833309E+04  0.63963545358E+03 0.  0.
         13    1    3    3    0    0 -0.70030187850E+02 -0.14483910943E+03  0.27473460461E+02  0.16320963777E+03  0.00000000000E+00 0.  1.
          1    1    3    3  501    0  0.70030740799E+02  0.14483962279E+03 -0.92519002380E+03  0.93907369313E+03  0.00000000000E+00 0.  1.
         21    1    1    2  502  501 -0.55294808313E-03 -0.51335819341E-03  0.26384519929E-02  0.27442152132E-02  0.00000000000E+00 0. -1.
<mgrwt>
<rscale>  1 0.63963545E+03</rscale>
<asrwt>0</asrwt>
<pdfrwt beam="1">  1        1 0.37195015E+00 0.63963545E+03</pdfrwt>
<pdfrwt beam="2">0</pdfrwt>
<totfact> 0.17839263E+00</totfact>
</mgrwt>
</event>
<event>
 6    1  0.3813560E-003  0.6461665E+03  0.7818608E-02  0.9813999E-01
          1   -1    0    0  502    0  0.00000000000E+00  0.00000000000E+00  0.10438366072E+03  0.10438366072E+03  0.00000000000E+00 0.  1.
         13   -1    0    0    0    0 -0.00000000000E+00 -0.00000000000E+00 -0.10000000000E+04  0.10000000000E+04  0.00000000000E+00 0.  1.
    9000005    2    1    2  501    0 -0.63581063240E-03  0.12086017512E-02 -0.89561657418E+03  0.11043822750E+04  0.64616651217E+03 0.  0.
         13    1    3    3    0    0  0.53190265743E+02  0.18941012245E+03 -0.97991613961E+01  0.19698076663E+03  0.00000000000E+00 0.  1.
          3    1    3    3  501    0 -0.53190901554E+02 -0.18940891385E+03 -0.88581741278E+03  0.90740150840E+03  0.00000000000E+00 0.  1.
         21    1    1    2  502  501  0.63581063240E-03 -0.12086017512E-02  0.23490011863E-03  0.13856952836E-02  0.00000000000E+00 0. -1.
<mgrwt>
<rscale>  1 0.64616651E+03</rscale>
<asrwt>0</asrwt>
<pdfrwt beam="1">  1        1 0.37957775E+00 0.64616651E+03</pdfrwt>
<pdfrwt beam="2">0</pdfrwt>
<totfact> 0.16491879E+00</totfact>
</mgrwt>
</event>
<event>
 6    1  0.3813560E-003  0.6606540E+03  0.7818608E-02  0.9786991E-01
          1   -1    0    0  502    0  0.00000000000E+00  0.00000000000E+00  0.11170697099E+03  0.11170697099E+03  0.00000000000E+00 0.  1.
         13   -1    0    0    0    0 -0.00000000000E+00 -0.00000000000E+00 -0.10000000000E+04  0.10000000000E+04  0.00000000000E+00 0.  1.
    9000005    2    1    2  501    0 -0.13201995181E-01  0.33361700860E-01 -0.89088395035E+03  0.11091158012E+04  0.66065395351E+03 0.  0.
         13    1    3    3    0    0  0.25668847773E+03 -0.16241508195E+03 -0.66327876659E+03  0.72952474643E+03  0.00000000000E+00 0.  1.
          1    1    3    3  501    0 -0.25670167973E+03  0.16244844365E+03 -0.22760518375E+03  0.37959105481E+03  0.00000000000E+00 0.  1.
         21    1    1    2  502  501  0.13201995181E-01 -0.33361700860E-01  0.25909213377E+01  0.25911697501E+01  0.00000000000E+00 0. -1.
<mgrwt>
<rscale>  1 0.66065395E+03</rscale>
<asrwt>0</asrwt>
<pdfrwt beam="1">  1        1 0.40620802E+00 0.66065395E+03</pdfrwt>
<pdfrwt beam="2">0</pdfrwt>
<totfact> 0.12525979E+00</totfact>
</mgrwt>
</event>
<event>
 6    1  0.3813560E-003  0.6683822E+03  0.7818608E-02  0.9772885E-01
          1   -1    0    0  502    0  0.00000000000E+00  0.00000000000E+00  0.11177161992E+03  0.11177161992E+03  0.00000000000E+00 0.  1.
         13   -1    0    0    0    0 -0.00000000000E+00 -0.00000000000E+00 -0.10000000000E+04  0.10000000000E+04  0.00000000000E+00 0.  1.
    9000005    2    1    2  501    0  0.67455161005E-03 -0.82825708318E-02 -0.88831610304E+03  0.11116835042E+04  0.66838216208E+03 0.  0.
         13    1    3    3    0    0 -0.15183543994E+03 -0.21719157641E+02 -0.93799933523E+03  0.95045698246E+03  0.00000000000E+00 0.  1.
          3    1    3    3  501    0  0.15183611450E+03  0.21710875071E+02  0.49683232182E+02  0.16122652177E+03  0.00000000000E+00 0.  1.
         21    1    1    2  502  501 -0.67455161003E-03  0.82825708318E-02  0.87722967435E-01  0.88115691083E-01  0.00000000000E+00 0. -1.
<mgrwt>
<rscale>  1 0.66838216E+03</rscale>
<asrwt>0</asrwt>
<pdfrwt beam="1">  1        1 0.40644311E+00 0.66838216E+03</pdfrwt>
<pdfrwt beam="2">0</pdfrwt>
<totfact> 0.12477436E+00</totfact>
</mgrwt>
</event>
<event>
 6    1  0.3813560E-003  0.6200766E+03  0.7818608E-02  0.9864607E-01
          1   -1    0    0  502    0  0.00000000000E+00  0.00000000000E+00  0.96135060986E+02  0.96135060986E+02  0.00000000000E+00 0.  1.
         13   -1    0    0    0    0 -0.00000000000E+00 -0.00000000000E+00 -0.10000000000E+04  0.10000000000E+04  0.00000000000E+00 0.  1.
    9000005    2    1    2  501    0  0.36515131732E-02  0.13253024579E-01 -0.90387151565E+03  0.10961198219E+04  0.62007656549E+03 0.  0.
         13    1    3    3    0    0 -0.29236885359E+03  0.10300860206E+03 -0.44167217607E+03  0.53959672883E+03  0.00000000000E+00 0.  1.
          3    1    3    3  501    0  0.29237250511E+03 -0.10299534904E+03 -0.46219933958E+03  0.55652309312E+03  0.00000000000E+00 0.  1.
         21    1    1    2  502  501 -0.36515131732E-02 -0.13253024579E-01  0.65766345215E-02  0.15239039686E-01  0.00000000000E+00 0.  1.
<mgrwt>
<rscale>  1 0.62007657E+03</rscale>
<asrwt>0</asrwt>
<pdfrwt beam="1">  1        1 0.34958278E+00 0.62007657E+03</pdfrwt>
<pdfrwt beam="2">0</pdfrwt>
<totfact> 0.22427163E+00</totfact>
</mgrwt>
</event>
<event>
 6    1  0.3813560E-003  0.6465785E+03  0.7818608E-02  0.9813221E-01
          1   -1    0    0  502    0  0.00000000000E+00  0.00000000000E+00  0.10451842312E+03  0.10451842312E+03  0.00000000000E+00 0.  1.
         13   -1    0    0    0    0 -0.00000000000E+00 -0.00000000000E+00 -0.10000000000E+04  0.10000000000E+04  0.00000000000E+00 0.  1.
    9000005    2    1    2  501    0 -0.59082994113E-04  0.51602166451E-04 -0.89548406832E+03  0.11045159304E+04  0.64657847474E+03 0.  0.
         13    1    3    3    0    0 -0.23573776754E+03 -0.42000536723E+02 -0.76695950901E+02  0.25143311041E+03  0.00000000000E+00 0.  1.
          3    1    3    3  501    0  0.23573770845E+03  0.42000588326E+02 -0.81878811742E+03  0.85308282003E+03  0.00000000000E+00 0.  1.
         21    1    1    2  502  501  0.59082994092E-04 -0.51602166452E-04  0.24914421262E-02  0.24926767644E-02  0.00000000000E+00 0. -1.
<mgrwt>
<rscale>  1 0.64657847E+03</rscale>
<asrwt>0</asrwt>
<pdfrwt beam="1">  1        1 0.38006779E+00 0.64657847E+03</pdfrwt>
<pdfrwt beam="2">0</pdfrwt>
<totfact> 0.16408741E+00</totfact>
</mgrwt>
</event>
<event>
 6    1  0.3813560E-003  0.6225865E+03  0.7818608E-02  0.9859624E-01
          1   -1    0    0  502    0  0.00000000000E+00  0.00000000000E+00  0.96903536982E+02  0.96903536982E+02  0.00000000000E+00 0.  1.
         13   -1    0    0    0    0 -0.00000000000E+00 -0.00000000000E+00 -0.10000000000E+04  0.10000000000E+04  0.00000000000E+00 0.  1.
    9000005    2    1    2  501    0 -0.20168074059E-04  0.58499904867E-05 -0.90309652285E+03  0.10969034736E+04  0.62258646048E+03 0.  0.
         13    1    3    3    0    0  0.66859189322E+02 -0.25644272619E+03 -0.16381907593E+03  0.31156012686E+03  0.00000000000E+00 0.  1.
          1    1    3    3  501    0 -0.66859209490E+02  0.25644273204E+03 -0.73927744692E+03  0.78534334672E+03  0.00000000000E+00 0.  1.
         21    1    1    2  502  501  0.20168074055E-04 -0.58499904893E-05  0.59828017514E-04  0.63406350467E-04  0.00000000000E+00 0.  1.
<mgrwt>
<rscale>  1 0.62258646E+03</rscale>
<asrwt>0</asrwt>
<pdfrwt beam="1">  1        1 0.35237724E+00 0.62258646E+03</pdfrwt>
<pdfrwt beam="2">0</pdfrwt>
<totfact> 0.21797094E+00</totfact>
</mgrwt>
</event>
<event>
 6    1  0.3813560E-003  0.6471063E+03  0.7818608E-02  0.9812224E-01
          1   -1    0    0  502    0  0.00000000000E+00  0.00000000000E+00  0.10499896329E+03  0.10499896329E+03  0.00000000000E+00 0.  1.
         13   -1    0    0    0    0 -0.00000000000E+00 -0.00000000000E+00 -0.10000000000E+04  0.10000000000E+04  0.00000000000E+00 0.  1.
    9000005    2    1    2  501    0  0.57516804665E-03  0.54423532229E-02 -0.89531332218E+03  0.11046866299E+04  0.64710633232E+03 0.  0.
         13    1    3    3    0    0 -0.19903761099E+03 -0.19114819162E+03 -0.73601003444E+03  0.78604349279E+03  0.00000000000E+00 0.  1.
          3    1    3    3  501    0  0.19903818616E+03  0.19115363397E+03 -0.15930328773E+03  0.31864313709E+03  0.00000000000E+00 0.  1.
         21    1    1    2  502  501 -0.57516804665E-03 -0.54423532229E-02  0.31228546514E+00  0.31233341442E+00  0.00000000000E+00 0.  1.
<mgrwt>
<rscale>  1 0.64710633E+03</rscale>
<asrwt>0</asrwt>
<pdfrwt beam="1">  1        1 0.38181522E+00 0.64710633E+03</pdfrwt>
<pdfrwt beam="2">0</pdfrwt>
<totfact> 0.16118312E+00</totfact>
</mgrwt>
</event>
<event>
 6    1  0.3813560E-003  0.6544508E+03  0.7818608E-02  0.9798463E-01
          1   -1    0    0  502    0  0.00000000000E+00  0.00000000000E+00  0.10707670375E+03  0.10707670375E+03  0.00000000000E+00 0.  1.
         13   -1    0    0    0    0 -0.00000000000E+00 -0.00000000000E+00 -0.10000000000E+04  0.10000000000E+04  0.00000000000E+00 0.  1.
    9000005    2    1    2  501    0 -0.42622006106E-03 -0.31897811839E-03 -0.89292311496E+03  0.11070761414E+04  0.65445083355E+03 0.  0.
         13    1    3    3    0    0 -0.11750639388E+03  0.10423262923E+03 -0.93205792117E+03  0.94520059353E+03  0.00000000000E+00 0.  1.
          3    1    3    3  501    0  0.11750596766E+03 -0.10423294821E+03  0.39134806209E+02  0.16187554783E+03  0.00000000000E+00 0.  1.
         21    1    1    2  502  501  0.42622006106E-03  0.31897811838E-03 -0.18129450900E-03  0.56238623689E-03  0.00000000000E+00 0.  1.
<mgrwt>
<rscale>  1 0.65445083E+03</rscale>
<asrwt>0</asrwt>
<pdfrwt beam="1">  1        1 0.38937065E+00 0.65445083E+03</pdfrwt>
<pdfrwt beam="2">0</pdfrwt>
<totfact> 0.14903918E+00</totfact>
</mgrwt>
</event>
<event>
 6    1  0.3813560E-003  0.6518289E+03  0.7818608E-02  0.9803353E-01
          1   -1    0    0  502    0  0.00000000000E+00  0.00000000000E+00  0.10897716045E+03  0.10897716045E+03  0.00000000000E+00 0.  1.
         13   -1    0    0    0    0 -0.00000000000E+00 -0.00000000000E+00 -0.10000000000E+04  0.10000000000E+04  0.00000000000E+00 0.  1.
    9000005    2    1    2  501    0  0.39354712272E-02 -0.62974331157E+00 -0.89373992007E+03  0.11061880533E+04  0.65182863389E+03 0.  0.
         13    1    3    3    0    0  0.12825124130E+03 -0.29116542343E+03 -0.32513568163E+03  0.45490537056E+03  0.00000000000E+00 0.  1.
          3    1    3    3  501    0 -0.12824730583E+03  0.29053568012E+03 -0.56860423844E+03  0.65128268274E+03  0.00000000000E+00 0.  1.
         21    1    1    2  502  501 -0.39354712272E-02  0.62974331157E+00  0.27170805127E+01  0.27891071401E+01  0.00000000000E+00 0.  1.
<mgrwt>
<rscale>  1 0.65182894E+03</rscale>
<asrwt>0</asrwt>
<pdfrwt beam="1">  1        1 0.39628142E+00 0.65182894E+03</pdfrwt>
<pdfrwt beam="2">0</pdfrwt>
<totfact> 0.13893864E+00</totfact>
</mgrwt>
</event>
<event>
 6    1  0.7235569E-003  0.6355159E+03  0.7818608E-02  0.9834344E-01
          1   -1    0    0  502    0  0.00000000000E+00  0.00000000000E+00  0.10097012216E+03  0.10097012216E+03  0.00000000000E+00 0.  1.
         13   -1    0    0    0    0 -0.00000000000E+00 -0.00000000000E+00 -0.10000000000E+04  0.10000000000E+04  0.00000000000E+00 0.  1.
    9000005    2    1    2  501    0 -0.86978045033E-06 -0.11679702538E-05 -0.89902988755E+03  0.11009701123E+04  0.63551589244E+03 0.  0.
         13    1    3    3    0    0 -0.13697938094E+03 -0.26063917010E+03 -0.65649177524E+03  0.71949814368E+03  0.00000000000E+00 0.  1.
          1    1    3    3  501    0  0.13697938007E+03  0.26063916894E+03 -0.24253811231E+03  0.38147196866E+03  0.00000000000E+00 0.  1.
         21    1    1    2  502  501  0.86978045697E-06  0.11679702298E-05  0.97164876201E-05  0.98250091182E-05  0.00000000000E+00 0. -1.
<mgrwt>
<rscale>  1 0.63551589E+03</rscale>
<asrwt>0</asrwt>
<pdfrwt beam="1">  1        1 0.36716485E+00 0.63551589E+03</pdfrwt>
<pdfrwt beam="2">0</pdfrwt>
<totfact> 0.18737640E+00</totfact>
</mgrwt>
</event>
<event>
 6    1  0.3813560E-003  0.6565212E+03  0.7818608E-02  0.9794619E-01
          1   -1    0    0  502    0  0.00000000000E+00  0.00000000000E+00  0.10865024551E+03  0.10865024551E+03  0.00000000000E+00 0.  1.
         13   -1    0    0    0    0 -0.00000000000E+00 -0.00000000000E+00 -0.10000000000E+04  0.10000000000E+04  0.00000000000E+00 0.  1.
    9000005    2    1    2  501    0 -0.52250007939E+00  0.37191771329E+00 -0.89211591095E+03  0.11076510834E+04  0.65652091570E+03 0.  0.
         13    1    3    3    0    0 -0.25587724443E+03  0.19288379910E+03 -0.56911247085E+03  0.65312045493E+03  0.00000000000E+00 0.  1.
          3    1    3    3  501    0  0.25535474435E+03 -0.19251188139E+03 -0.32300344010E+03  0.45453062851E+03  0.00000000000E+00 0.  1.
         21    1    1    2  502  501  0.52250007939E+00 -0.37191771329E+00  0.76615645983E+00  0.99916206862E+00  0.00000000000E+00 0. -1.
<mgrwt>
<rscale>  1 0.65652123E+03</rscale>
<asrwt>0</asrwt>
<pdfrwt beam="1">  1        1 0.39509263E+00 0.65652123E+03</pdfrwt>
<pdfrwt beam="2">0</pdfrwt>
<totfact> 0.14051670E+00</totfact>
</mgrwt>
</event>
<event>
 6    1  0.3813560E-003  0.6471886E+03  0.7818608E-02  0.9812069E-01
          1   -1    0    0  502    0  0.00000000000E+00  0.00000000000E+00  0.10471341363E+03  0.10471341363E+03  0.00000000000E+00 0.  1.
         13   -1    0    0    0    0 -0.00000000000E+00 -0.00000000000E+00 -0.10000000000E+04  0.10000000000E+04  0.00000000000E+00 0.  1.
    9000005    2    1    2  501    0  0.55078065202E-04 -0.97574673742E-04 -0.89528670528E+03  0.11047132502E+04  0.64718859740E+03 0.  0.
         13    1    3    3    0    0  0.32257479725E+03 -0.25116275293E+02 -0.43861703651E+03  0.54504149550E+03  0.00000000000E+00 0.  1.
          1    1    3    3  501    0 -0.32257474218E+03  0.25116177718E+02 -0.45666966878E+03  0.55967175474E+03  0.00000000000E+00 0.  1.
         21    1    1    2  502  501 -0.55078065213E-04  0.97574673741E-04  0.11891144454E-03  0.16338403186E-03  0.00000000000E+00 0.  1.
<mgrwt>
<rscale>  1 0.64718860E+03</rscale>
<asrwt>0</asrwt>
<pdfrwt beam="1">  1        1 0.38077685E+00 0.64718860E+03</pdfrwt>
<pdfrwt beam="2">0</pdfrwt>
<totfact> 0.16289110E+00</totfact>
</mgrwt>
</event>
<event>
 6    1  0.3813560E-003  0.6425345E+03  0.7818608E-02  0.9820889E-01
          1   -1    0    0  502    0  0.00000000000E+00  0.00000000000E+00  0.10321379233E+03  0.10321379233E+03  0.00000000000E+00 0.  1.
         13   -1    0    0    0    0 -0.00000000000E+00 -0.00000000000E+00 -0.10000000000E+04  0.10000000000E+04  0.00000000000E+00 0.  1.
    9000005    2    1    2  501    0  0.12188529042E-02 -0.18340615324E-02 -0.89678602095E+03  0.11032115823E+04  0.64253453444E+03 0.  0.
         13    1    3    3    0    0  0.27008002864E+03 -0.15678563166E+02 -0.15088730217E+03  0.30976768258E+03  0.00000000000E+00 0.  1.
          3    1    3    3  501    0 -0.27007880979E+03  0.15676729105E+02 -0.74589871878E+03  0.79344389972E+03  0.00000000000E+00 0.  1.
         21    1    1    2  502  501 -0.12188529042E-02  0.18340615324E-02 -0.18672053124E-03  0.22100336340E-02  0.00000000000E+00 0. -1.
<mgrwt>
<rscale>  1 0.64253453E+03</rscale>
<asrwt>0</asrwt>
<pdfrwt beam="1">  1        1 0.37532367E+00 0.64253453E+03</pdfrwt>
<pdfrwt beam="2">0</pdfrwt>
<totfact> 0.17230841E+00</totfact>
</mgrwt>
</event>
<event>
 6    1  0.3813560E-003  0.6512549E+03  0.7818608E-02  0.9804427E-01
          1   -1    0    0  502    0  0.00000000000E+00  0.00000000000E+00  0.10604456679E+03  0.10604456679E+03  0.00000000000E+00 0.  1.
         13   -1    0    0    0    0 -0.00000000000E+00 -0.00000000000E+00 -0.10000000000E+04  0.10000000000E+04  0.00000000000E+00 0.  1.
    9000005    2    1    2  501    0 -0.24319911705E-03 -0.26566716653E-03 -0.89396676947E+03  0.11060332248E+04  0.65125487290E+03 0.  0.
         13    1    3    3    0    0 -0.24478215819E+03 -0.19773574555E+03 -0.30473440289E+03  0.43804199153E+03  0.00000000000E+00 0.  1.
          3    1    3    3  501    0  0.24478191499E+03  0.19773547989E+03 -0.58923236658E+03  0.66799123328E+03  0.00000000000E+00 0.  1.
         21    1    1    2  502  501  0.24319911704E-03  0.26566716653E-03  0.11336262273E-01  0.11341982506E-01  0.00000000000E+00 0. -1.
<mgrwt>
<rscale>  1 0.65125487E+03</rscale>
<asrwt>0</asrwt>
<pdfrwt beam="1">  1        1 0.38561742E+00 0.65125487E+03</pdfrwt>
<pdfrwt beam="2">0</pdfrwt>
<totfact> 0.15494593E+00</totfact>
</mgrwt>
</event>
<event>
 6    1  0.4296185E-003  0.6240032E+03  0.7818608E-02  0.9856821E-01
          1   -1    0    0  502    0  0.00000000000E+00  0.00000000000E+00  0.97345016237E+02  0.97345016237E+02  0.00000000000E+00 0.  1.
         13   -1    0    0    0    0 -0.00000000000E+00 -0.00000000000E+00 -0.10000000000E+04  0.10000000000E+04  0.00000000000E+00 0.  1.
    9000005    2    1    2  501    0 -0.24993980787E-05  0.16433703820E-05 -0.90265499150E+03  0.10973450079E+04  0.62400323137E+03 0.  0.
         13    1    3    3    0    0  0.17896244368E+03 -0.18876545495E+03 -0.75431538822E+03  0.79790454200E+03  0.00000000000E+00 0.  1.
          1    1    3    3  501    0 -0.17896244618E+03  0.18876545659E+03 -0.14833960328E+03  0.29944046594E+03  0.00000000000E+00 0.  1.
         21    1    1    2  502  501  0.24993980865E-05 -0.16433703896E-05  0.77395913401E-05  0.82975256037E-05  0.00000000000E+00 0.  1.
<mgrwt>
<rscale>  1 0.62400323E+03</rscale>
<asrwt>0</asrwt>
<pdfrwt beam="1">  1        1 0.35398262E+00 0.62400323E+03</pdfrwt>
<pdfrwt beam="2">0</pdfrwt>
<totfact> 0.21442979E+00</totfact>
</mgrwt>
</event>
<event>
 6    1  0.3813560E-003  0.6418710E+03  0.7818608E-02  0.9822153E-01
          1   -1    0    0  502    0  0.00000000000E+00  0.00000000000E+00  0.10300394544E+03  0.10300394544E+03  0.00000000000E+00 0.  1.
         13   -1    0    0    0    0 -0.00000000000E+00 -0.00000000000E+00 -0.10000000000E+04  0.10000000000E+04  0.00000000000E+00 0.  1.
    9000005    2    1    2  501    0  0.75843655566E-04  0.33144829644E-04 -0.89700041913E+03  0.11029995801E+04  0.64187095413E+03 0.  0.
         13    1    3    3    0    0 -0.27071568699E+03 -0.17142030654E+03 -0.47960531050E+03  0.57679559511E+03  0.00000000000E+00 0.  1.
          1    1    3    3  501    0  0.27071576283E+03  0.17142033968E+03 -0.41739510863E+03  0.52620398498E+03  0.00000000000E+00 0.  1.
         21    1    1    2  502  501 -0.75843655583E-04 -0.33144829629E-04  0.43645622698E-02  0.43653470248E-02  0.00000000000E+00 0.  1.
<mgrwt>
<rscale>  1 0.64187095E+03</rscale>
<asrwt>0</asrwt>
<pdfrwt beam="1">  1        1 0.37456059E+00 0.64187095E+03</pdfrwt>
<pdfrwt beam="2">0</pdfrwt>
<totfact> 0.17366730E+00</totfact>
</mgrwt>
</event>
<event>
 6    1  0.3813560E-003  0.6423603E+03  0.7818608E-02  0.9821221E-01
          1   -1    0    0  502    0  0.00000000000E+00  0.00000000000E+00  0.10315753857E+03  0.10315753857E+03  0.00000000000E+00 0.  1.
         13   -1    0    0    0    0 -0.00000000000E+00 -0.00000000000E+00 -0.10000000000E+04  0.10000000000E+04  0.00000000000E+00 0.  1.
    9000005    2    1    2  501    0  0.12666694396E-03  0.49259050253E-03 -0.89684322430E+03  0.11031566217E+04  0.64236030622E+03 0.  0.
         13    1    3    3    0    0  0.14886802559E+02 -0.11690816076E+03  0.64682232210E+02  0.13443558349E+03  0.00000000000E+00 0.  1.
          3    1    3    3  501    0 -0.14886675892E+02  0.11690865335E+03 -0.96152545651E+03  0.96872103821E+03  0.00000000000E+00 0.  1.
         21    1    1    2  502  501 -0.12666694396E-03 -0.49259050254E-03  0.76286895924E-03  0.91687456441E-03  0.00000000000E+00 0. -1.
<mgrwt>
<rscale>  1 0.64236031E+03</rscale>
<asrwt>0</asrwt>
<pdfrwt beam="1">  1        1 0.37511911E+00 0.64236031E+03</pdfrwt>
<pdfrwt beam="2">0</pdfrwt>
<totfact> 0.17267157E+00</totfact>
</mgrwt>
</event>
<event>
 6    1  0.3813560E-003  0.6349623E+03  0.7818608E-02  0.9835413E-01
          1   -1    0    0  502    0  0.00000000000E+00  0.00000000000E+00  0.10079862398E+03  0.10079862398E+03  0.00000000000E+00 0.  1.
         13   -1    0    0    0    0 -0.00000000000E+00 -0.00000000000E+00 -0.10000000000E+04  0.10000000000E+04  0.00000000000E+00 0.  1.
    9000005    2    1    2  501    0  0.80669827014E-04 -0.30640102651E-04 -0.89920571672E+03  0.11007942824E+04  0.63496230695E+03 0.  0.
         13    1    3    3    0    0 -0.16835554399E+03 -0.85405447107E+02 -0.70782513073E+01  0.18891209922E+03  0.00000000000E+00 0.  1.
          1    1    3    3  501    0  0.16835562466E+03  0.85405416467E+02 -0.89212746541E+03  0.91188218321E+03  0.00000000000E+00 0.  1.
         21    1    1    2  502  501 -0.80669826998E-04  0.30640102654E-04  0.43406967247E-02  0.43415543867E-02  0.00000000000E+00 0. -1.
<mgrwt>
<rscale>  1 0.63496231E+03</rscale>
<asrwt>0</asrwt>
<pdfrwt beam="1">  1        1 0.36654122E+00 0.63496231E+03</pdfrwt>
<pdfrwt beam="2">0</pdfrwt>
<totfact> 0.18857916E+00</totfact>
</mgrwt>
</event>
<event>
 6    1  0.3813560E-003  0.6457342E+03  0.7818608E-02  0.9814817E-01
          1   -1    0    0  502    0  0.00000000000E+00  0.00000000000E+00  0.10424355706E+03  0.10424355706E+03  0.00000000000E+00 0.  1.
         13   -1    0    0    0    0 -0.00000000000E+00 -0.00000000000E+00 -0.10000000000E+04  0.10000000000E+04  0.00000000000E+00 0.  1.
    9000005    2    1    2  501    0 -0.84533520806E-04  0.68204336884E-04 -0.89575683553E+03  0.11042431497E+04  0.64573417543E+03 0.  0.
         13    1    3    3    0    0 -0.26742203824E+03 -0.17929780833E+03 -0.48909461139E+03  0.58555596616E+03  0.00000000000E+00 0.  1.
          3    1    3    3  501    0  0.26742195371E+03  0.17929787654E+03 -0.40666222414E+03  0.51868718357E+03  0.00000000000E+00 0.  1.
         21    1    1    2  502  501  0.84533520804E-04 -0.68204336886E-04  0.39258956424E-03  0.40733808275E-03  0.00000000000E+00 0. -1.
<mgrwt>
<rscale>  1 0.64573418E+03</rscale>
<asrwt>0</asrwt>
<pdfrwt beam="1">  1        1 0.37906828E+00 0.64573418E+03</pdfrwt>
<pdfrwt beam="2">0</pdfrwt>
<totfact> 0.16578751E+00</totfact>
</mgrwt>
</event>
<event>
 6    1  0.3813560E-003  0.6489774E+03  0.7818608E-02  0.9808700E-01
          1   -1    0    0  502    0  0.00000000000E+00  0.00000000000E+00  0.10530215684E+03  0.10530215684E+03  0.00000000000E+00 0.  1.
         13   -1    0    0    0    0 -0.00000000000E+00 -0.00000000000E+00 -0.10000000000E+04  0.10000000000E+04  0.00000000000E+00 0.  1.
    9000005    2    1    2  501    0  0.13111209839E-02 -0.25692220184E-01 -0.89467947121E+03  0.11052705445E+04  0.64897736458E+03 0.  0.
         13    1    3    3    0    0  0.32157761583E+03  0.43307490240E+02 -0.45095589846E+03  0.55556180941E+03  0.00000000000E+00 0.  1.
          1    1    3    3  501    0 -0.32157630471E+03 -0.43333182460E+02 -0.44372357275E+03  0.54970873512E+03  0.00000000000E+00 0.  1.
         21    1    1    2  502  501 -0.13111209839E-02  0.25692220184E-01 -0.18371952392E-01  0.31612305372E-01  0.00000000000E+00 0.  1.
<mgrwt>
<rscale>  1 0.64897737E+03</rscale>
<asrwt>0</asrwt>
<pdfrwt beam="1">  1        1 0.38291774E+00 0.64897737E+03</pdfrwt>
<pdfrwt beam="2">0</pdfrwt>
<totfact> 0.15933075E+00</totfact>
</mgrwt>
</event>
<event>
 6    1  0.3813560E-003  0.6499012E+03  0.7818608E-02  0.9806965E-01
          1   -1    0    0  502    0  0.00000000000E+00  0.00000000000E+00  0.10563907910E+03  0.10563907910E+03  0.00000000000E+00 0.  1.
         13   -1    0    0    0    0 -0.00000000000E+00 -0.00000000000E+00 -0.10000000000E+04  0.10000000000E+04  0.00000000000E+00 0.  1.
    9000005    2    1    2  501    0 -0.65431460578E-01  0.59670017025E-01 -0.89435442663E+03  0.11055502874E+04  0.64990121537E+03 0.  0.
         13    1    3    3    0    0  0.32340577568E+03  0.26835549441E+02 -0.47466502455E+03  0.57499419822E+03  0.00000000000E+00 0.  1.
          3    1    3    3  501    0 -0.32347120714E+03 -0.26775879424E+02 -0.41968940208E+03  0.53055608920E+03  0.00000000000E+00 0.  1.
         21    1    1    2  502  501  0.65431460578E-01 -0.59670017025E-01 -0.64942681159E-02  0.88791680260E-01  0.00000000000E+00 0. -1.
<mgrwt>
<rscale>  1 0.64990122E+03</rscale>
<asrwt>0</asrwt>
<pdfrwt beam="1">  1        1 0.38414292E+00 0.64990122E+03</pdfrwt>
<pdfrwt beam="2">0</pdfrwt>
<totfact> 0.15732959E+00</totfact>
</mgrwt>
</event>
<event>
 6    1  0.3813560E-003  0.6514976E+03  0.7818608E-02  0.9803973E-01
          1   -1    0    0  502    0  0.00000000000E+00  0.00000000000E+00  0.10611231697E+03  0.10611231697E+03  0.00000000000E+00 0.  1.
         13   -1    0    0    0    0 -0.00000000000E+00 -0.00000000000E+00 -0.10000000000E+04  0.10000000000E+04  0.00000000000E+00 0.  1.
    9000005    2    1    2  501    0  0.22353319196E-05  0.46225928045E-05 -0.89388771784E+03  0.11061122818E+04  0.65149760384E+03 0.  0.
         13    1    3    3    0    0  0.31531175856E+03 -0.62755235719E+02 -0.53601860839E+03  0.62504053727E+03  0.00000000000E+00 0.  1.
          3    1    3    3  501    0 -0.31531175632E+03  0.62755240341E+02 -0.35786910945E+03  0.48107174451E+03  0.00000000000E+00 0.  1.
         21    1    1    2  502  501 -0.22353319432E-05 -0.46225928009E-05  0.34810000165E-04  0.35186662027E-04  0.00000000000E+00 0.  1.
<mgrwt>
<rscale>  1 0.65149760E+03</rscale>
<asrwt>0</asrwt>
<pdfrwt beam="1">  1        1 0.38586378E+00 0.65149760E+03</pdfrwt>
<pdfrwt beam="2">0</pdfrwt>
<totfact> 0.15455055E+00</totfact>
</mgrwt>
</event>
<event>
 6    1  0.3813560E-003  0.6330303E+03  0.7818608E-02  0.9839153E-01
          1   -1    0    0  502    0  0.00000000000E+00  0.00000000000E+00  0.14886352080E+03  0.14886352080E+03  0.00000000000E+00 0.  1.
         13   -1    0    0    0    0 -0.00000000000E+00 -0.00000000000E+00 -0.10000000000E+04  0.10000000000E+04  0.00000000000E+00 0.  1.
    9000005    2    1    2  501    0 -0.22517167142E+00  0.13412029842E+01 -0.89980771944E+03  0.11001732841E+04  0.63302880933E+03 0.  0.
         13    1    3    3    0    0 -0.24758792387E+03 -0.14189547202E+03 -0.21249694895E+03  0.35579356141E+03  0.00000000000E+00 0.  1.
          1    1    3    3  501    0  0.24736275220E+03  0.14323667500E+03 -0.68731077050E+03  0.74437972264E+03  0.00000000000E+00 0.  1.
         21    1    1    2  502  501  0.22517167142E+00 -0.13412029842E+01  0.48671240241E+02  0.48690236745E+02  0.00000000000E+00 0.  1.
<mgrwt>
<rscale>  1 0.63303027E+03</rscale>
<asrwt>0</asrwt>
<pdfrwt beam="1">  1        1 0.54132304E+00 0.63303027E+03</pdfrwt>
<pdfrwt beam="2">0</pdfrwt>
<totfact> 0.29086329E-01</totfact>
</mgrwt>
</event>
<event>
 6    1  0.3813560E-003  0.6633353E+03  0.7818608E-02  0.9782073E-01
          1   -1    0    0  502    0  0.00000000000E+00  0.00000000000E+00  0.11000345327E+03  0.11000345327E+03  0.00000000000E+00 0.  1.
         13   -1    0    0    0    0 -0.00000000000E+00 -0.00000000000E+00 -0.10000000000E+04  0.10000000000E+04  0.00000000000E+00 0.  1.
    9000005    2    1    2  501    0 -0.38159791984E-05 -0.58396506120E-05 -0.88999655940E+03  0.11100034388E+04  0.66333532879E+03 0.  0.
         13    1    3    3    0    0 -0.17414712458E+03  0.25529611273E+03 -0.24349742754E+03  0.39343909743E+03  0.00000000000E+00 0.  1.
          3    1    3    3  501    0  0.17414712076E+03 -0.25529611857E+03 -0.64649913186E+03  0.71656434137E+03  0.00000000000E+00 0.  1.
         21    1    1    2  502  501  0.38159792052E-05  0.58396506057E-05  0.12669672859E-04  0.14463188682E-04  0.00000000000E+00 0. -1.
<mgrwt>
<rscale>  1 0.66333533E+03</rscale>
<asrwt>0</asrwt>
<pdfrwt beam="1">  1        1 0.40001340E+00 0.66333533E+03</pdfrwt>
<pdfrwt beam="2">0</pdfrwt>
<totfact> 0.13343283E+00</totfact>
</mgrwt>
</event>
<event>
 6    1  0.3813560E-003  0.6097575E+03  0.7818608E-02  0.9885367E-01
          1   -1    0    0  502    0  0.00000000000E+00  0.00000000000E+00  0.92951169066E+02  0.92951169066E+02  0.00000000000E+00 0.  1.
         13   -1    0    0    0    0 -0.00000000000E+00 -0.00000000000E+00 -0.10000000000E+04  0.10000000000E+04  0.00000000000E+00 0.  1.
    9000005    2    1    2  501    0  0.53652214547E-05 -0.27179399964E-05 -0.90704893563E+03  0.10929510642E+04  0.60975753960E+03 0.  0.
         13    1    3    3    0    0  0.70599484337E+02  0.18346684567E+01  0.78087279902E+02  0.10528663961E+03  0.00000000000E+00 0.  1.
          3    1    3    3  501    0 -0.70599478972E+02 -0.18346711746E+01 -0.98513621553E+03  0.98766442459E+03  0.00000000000E+00 0.  1.
         21    1    1    2  502  501 -0.53652214555E-05  0.27179399966E-05  0.10469689490E-03  0.10486950272E-03  0.00000000000E+00 0. -1.
<mgrwt>
<rscale>  1 0.60975754E+03</rscale>
<asrwt>0</asrwt>
<pdfrwt beam="1">  1        1 0.33800496E+00 0.60975754E+03</pdfrwt>
<pdfrwt beam="2">0</pdfrwt>
<totfact> 0.25230025E+00</totfact>
</mgrwt>
</event>
<event>
 6    1  0.3813560E-003  0.6334147E+03  0.7818608E-02  0.9838408E-01
          1   -1    0    0  502    0  0.00000000000E+00  0.00000000000E+00  0.10030393475E+03  0.10030393475E+03  0.00000000000E+00 0.  1.
         13   -1    0    0    0    0 -0.00000000000E+00 -0.00000000000E+00 -0.10000000000E+04  0.10000000000E+04  0.00000000000E+00 0.  1.
    9000005    2    1    2  501    0 -0.45380375013E-06  0.10085307906E-04 -0.89969646992E+03  0.11003035300E+04  0.63341465097E+03 0.  0.
         13    1    3    3    0    0 -0.14911677887E+03 -0.25020091434E+03 -0.66588639505E+03  0.72680190038E+03  0.00000000000E+00 0.  1.
          3    1    3    3  501    0  0.14911677842E+03  0.25020092443E+03 -0.23381007487E+03  0.37350162958E+03  0.00000000000E+00 0.  1.
         21    1    1    2  502  501  0.45380375572E-06 -0.10085307918E-04  0.40466049402E-03  0.40478640638E-03  0.00000000000E+00 0. -1.
<mgrwt>
<rscale>  1 0.63341465E+03</rscale>
<asrwt>0</asrwt>
<pdfrwt beam="1">  1        1 0.36474235E+00 0.63341465E+03</pdfrwt>
<pdfrwt beam="2">0</pdfrwt>
<totfact> 0.19208838E+00</totfact>
</mgrwt>
</event>
<event>
 6    1  0.3813560E-003  0.6163796E+03  0.7818608E-02  0.9871994E-01
          1   -1    0    0  502    0  0.00000000000E+00  0.00000000000E+00  0.96064055570E+02  0.96064055570E+02  0.00000000000E+00 0.  1.
         13   -1    0    0    0    0 -0.00000000000E+00 -0.00000000000E+00 -0.10000000000E+04  0.10000000000E+04  0.00000000000E+00 0.  1.
    9000005    2    1    2  501    0 -0.16396394104E-01 -0.31474486625E-01 -0.90501872350E+03  0.10949806951E+04  0.61637961631E+03 0.  0.
         13    1    3    3    0    0  0.15937150484E+03  0.15699790667E+03 -0.82902694896E+03  0.85868114067E+03  0.00000000000E+00 0.  1.
          3    1    3    3  501    0 -0.15938790123E+03 -0.15702938115E+03 -0.75991774542E+02  0.23629955438E+03  0.00000000000E+00 0.  1.
         21    1    1    2  502  501  0.16396394104E-01  0.31474486625E-01  0.10827790690E+01  0.10833605113E+01  0.00000000000E+00 0. -1.
<mgrwt>
<rscale>  1 0.61637962E+03</rscale>
<asrwt>0</asrwt>
<pdfrwt beam="1">  1        1 0.34932458E+00 0.61637962E+03</pdfrwt>
<pdfrwt beam="2">0</pdfrwt>
<totfact> 0.22500219E+00</totfact>
</mgrwt>
</event>
<event>
 6    1  0.3989408E-003  0.6427812E+03  0.7818608E-02  0.9820420E-01
          1   -1    0    0  502    0  0.00000000000E+00  0.00000000000E+00  0.10329191701E+03  0.10329191701E+03  0.00000000000E+00 0.  1.
         13   -1    0    0    0    0 -0.00000000000E+00 -0.00000000000E+00 -0.10000000000E+04  0.10000000000E+04  0.00000000000E+00 0.  1.
    9000005    2    1    2  501    0  0.12628296986E-05  0.48097618333E-06 -0.89670809571E+03  0.11032919042E+04  0.64278115794E+03 0.  0.
         13    1    3    3    0    0  0.35994975871E+02  0.23593270817E+03 -0.78893621939E+02  0.25136444589E+03  0.00000000000E+00 0.  1.
          3    1    3    3  501    0 -0.35994974608E+02 -0.23593270769E+03 -0.81781447377E+03  0.85192745833E+03  0.00000000000E+00 0.  1.
         21    1    1    2  502  501 -0.12628297019E-05 -0.48097618213E-06  0.12714160212E-04  0.12785771265E-04  0.00000000000E+00 0. -1.
<mgrwt>
<rscale>  1 0.64278116E+03</rscale>
<asrwt>0</asrwt>
<pdfrwt beam="1">  1        1 0.37560776E+00 0.64278116E+03</pdfrwt>
<pdfrwt beam="2">0</pdfrwt>
<totfact> 0.17180511E+00</totfact>
</mgrwt>
</event>
<event>
 6    1  0.3813560E-003  0.6379266E+03  0.7818608E-02  0.9829702E-01
          1   -1    0    0  502    0  0.00000000000E+00  0.00000000000E+00  0.10173760349E+03  0.10173760349E+03  0.00000000000E+00 0.  1.
         13   -1    0    0    0    0 -0.00000000000E+00 -0.00000000000E+00 -0.10000000000E+04  0.10000000000E+04  0.00000000000E+00 0.  1.
    9000005    2    1    2  501    0 -0.97032140474E-05 -0.31498859414E-05 -0.89826240079E+03  0.11017375924E+04  0.63792662736E+03 0.  0.
         13    1    3    3    0    0  0.34049006504E+02 -0.25550464292E+03 -0.12466612421E+03  0.28632778406E+03  0.00000000000E+00 0.  1.
          3    1    3    3  501    0 -0.34049016207E+02  0.25550463977E+03 -0.77359627658E+03  0.81540980837E+03  0.00000000000E+00 0.  1.
         21    1    1    2  502  501  0.97032140485E-05  0.31498859517E-05  0.42787442230E-05  0.11062630632E-04  0.00000000000E+00 0.  1.
<mgrwt>
<rscale>  1 0.63792663E+03</rscale>
<asrwt>0</asrwt>
<pdfrwt beam="1">  1        1 0.36995570E+00 0.63792663E+03</pdfrwt>
<pdfrwt beam="2">0</pdfrwt>
<totfact> 0.18208544E+00</totfact>
</mgrwt>
</event>
<event>
 6    1  0.3813560E-003  0.6648051E+03  0.7818608E-02  0.9779388E-01
          1   -1    0    0  502    0  0.00000000000E+00  0.00000000000E+00  0.12465774233E+03  0.12465774233E+03  0.00000000000E+00 0.  1.
         13   -1    0    0    0    0 -0.00000000000E+00 -0.00000000000E+00 -0.10000000000E+04  0.10000000000E+04  0.00000000000E+00 0.  1.
    9000005    2    1    2  501    0 -0.27752118099E+01  0.44320553047E+01 -0.88897057913E+03  0.11100606173E+04  0.66478458053E+03 0.  0.
         13    1    3    3    0    0  0.27066550643E+03 -0.16621648360E+03 -0.29111938440E+03  0.43085755391E+03  0.00000000000E+00 0.  1.
          3    1    3    3  501    0 -0.27344071824E+03  0.17064853890E+03 -0.59785119473E+03  0.67920306334E+03  0.00000000000E+00 0.  1.
         21    1    1    2  502  501  0.27752118099E+01 -0.44320553047E+01  0.13628321454E+02  0.14597125075E+02  0.00000000000E+00 0. -1.
<mgrwt>
<rscale>  1 0.66480515E+03</rscale>
<asrwt>0</asrwt>
<pdfrwt beam="1">  1        1 0.45330184E+00 0.66480515E+03</pdfrwt>
<pdfrwt beam="2">0</pdfrwt>
<totfact> 0.76475363E-01</totfact>
</mgrwt>
</event>
<event>
 6    1  0.3813560E-003  0.7134902E+03  0.7818608E-02  0.9694436E-01
          1   -1    0    0  502    0  0.00000000000E+00  0.00000000000E+00  0.14079448178E+03  0.14079448178E+03  0.00000000000E+00 0.  1.
         13   -1    0    0    0    0 -0.00000000000E+00 -0.00000000000E+00 -0.10000000000E+04  0.10000000000E+04  0.00000000000E+00 0.  1.
    9000005    2    1    2  501    0 -0.12319890454E+01 -0.99900659030E+00 -0.87268049944E+03  0.11272264705E+04  0.71348843430E+03 0.  0.
         13    1    3    3    0    0 -0.14273405262E+03 -0.12581001091E+03  0.40692197082E+02  0.19456881437E+03  0.00000000000E+00 0.  1.
          3    1    3    3  501    0  0.14150206357E+03  0.12481100432E+03 -0.91337269652E+03  0.93265765613E+03  0.00000000000E+00 0.  1.
         21    1    1    2  502  501  0.12319890454E+01  0.99900659030E+00  0.13474981222E+02  0.13568011281E+02  0.00000000000E+00 0.  1.
<mgrwt>
<rscale>  1 0.71349020E+03</rscale>
<asrwt>0</asrwt>
<pdfrwt beam="1">  1        1 0.51198101E+00 0.71349020E+03</pdfrwt>
<pdfrwt beam="2">0</pdfrwt>
<totfact> 0.39892554E-01</totfact>
</mgrwt>
</event>
<event>
 6    1  0.3813560E-003  0.6464374E+03  0.7818608E-02  0.9813487E-01
          1   -1    0    0  502    0  0.00000000000E+00  0.00000000000E+00  0.10458379149E+03  0.10458379149E+03  0.00000000000E+00 0.  1.
         13   -1    0    0    0    0 -0.00000000000E+00 -0.00000000000E+00 -0.10000000000E+04  0.10000000000E+04  0.00000000000E+00 0.  1.
    9000005    2    1    2  501    0 -0.11415617026E-01 -0.27754572349E-01 -0.89552746025E+03  0.11044685631E+04  0.64643744780E+03 0.  0.
         13    1    3    3    0    0 -0.13511918067E+03 -0.29158404729E+03 -0.38856088703E+03  0.50424003466E+03  0.00000000000E+00 0.  1.
          1    1    3    3  501    0  0.13510776506E+03  0.29155629272E+03 -0.50696657322E+03  0.60022852844E+03  0.00000000000E+00 0.  1.
         21    1    1    2  502  501  0.11415617026E-01  0.27754572349E-01  0.11125173754E+00  0.11522838931E+00  0.00000000000E+00 0. -1.
<mgrwt>
<rscale>  1 0.64643745E+03</rscale>
<asrwt>0</asrwt>
<pdfrwt beam="1">  1        1 0.38030550E+00 0.64643745E+03</pdfrwt>
<pdfrwt beam="2">0</pdfrwt>
<totfact> 0.16369583E+00</totfact>
</mgrwt>
</event>
<event>
 6    1  0.3813560E-003  0.6452910E+03  0.7818608E-02  0.9815656E-01
          1   -1    0    0  502    0  0.00000000000E+00  0.00000000000E+00  0.10411497891E+03  0.10411497891E+03  0.00000000000E+00 0.  1.
         13   -1    0    0    0    0 -0.00000000000E+00 -0.00000000000E+00 -0.10000000000E+04  0.10000000000E+04  0.00000000000E+00 0.  1.
    9000005    2    1    2  501    0  0.15352851742E-01  0.71978122378E-02 -0.89589433288E+03  0.11040956339E+04  0.64529102963E+03 0.  0.
         13    1    3    3    0    0 -0.53006815637E+02  0.29798460879E+03 -0.25667759836E+03  0.39684750104E+03  0.00000000000E+00 0.  1.
          1    1    3    3  501    0  0.53022168489E+02 -0.29797741098E+03 -0.63921673451E+03  0.70724813290E+03  0.00000000000E+00 0.  1.
         21    1    1    2  502  501 -0.15352851742E-01 -0.71978122378E-02  0.93117856931E-02  0.19344971192E-01  0.00000000000E+00 0. -1.
<mgrwt>
<rscale>  1 0.64529103E+03</rscale>
<asrwt>0</asrwt>
<pdfrwt beam="1">  1        1 0.37860072E+00 0.64529103E+03</pdfrwt>
<pdfrwt beam="2">0</pdfrwt>
<totfact> 0.16659001E+00</totfact>
</mgrwt>
</event>
<event>
 6    1  0.3813560E-003  0.6091074E+03  0.7818608E-02  0.9886689E-01
          1   -1    0    0  502    0  0.00000000000E+00  0.00000000000E+00  0.92813913711E+02  0.92813913711E+02  0.00000000000E+00 0.  1.
         13   -1    0    0    0    0 -0.00000000000E+00 -0.00000000000E+00 -0.10000000000E+04  0.10000000000E+04  0.00000000000E+00 0.  1.
    9000005    2    1    2  501    0  0.75171924893E-01  0.47468285926E-01 -0.90720969216E+03  0.10927219284E+04  0.60910736278E+03 0.  0.
         13    1    3    3    0    0  0.15921017744E+03 -0.23751410184E+03 -0.26551462343E+03  0.39020359356E+03  0.00000000000E+00 0.  1.
          1    1    3    3  501    0 -0.15913500551E+03  0.23756157013E+03 -0.64169506873E+03  0.70251833486E+03  0.00000000000E+00 0.  1.
         21    1    1    2  502  501 -0.75171924893E-01 -0.47468285926E-01  0.23605872305E-01  0.91985290498E-01  0.00000000000E+00 0. -1.
<mgrwt>
<rscale>  1 0.60910737E+03</rscale>
<asrwt>0</asrwt>
<pdfrwt beam="1">  1        1 0.33750585E+00 0.60910737E+03</pdfrwt>
<pdfrwt beam="2">0</pdfrwt>
<totfact> 0.25359116E+00</totfact>
</mgrwt>
</event>
<event>
 6    1  0.3813560E-003  0.6466445E+03  0.7818608E-02  0.9813096E-01
          3   -1    0    0  502    0  0.00000000000E+00  0.00000000000E+00  0.10501522769E+03  0.10501522769E+03  0.00000000000E+00 0.  1.
         13   -1    0    0    0    0 -0.00000000000E+00 -0.00000000000E+00 -0.10000000000E+04  0.10000000000E+04  0.00000000000E+00 0.  1.
    9000005    2    1    2  501    0  0.41721271627E-01  0.56425839586E+00 -0.89527045909E+03  0.11043813940E+04  0.64664422086E+03 0.  0.
         13    1    3    3    0    0  0.31607539680E+03  0.13958480646E+02 -0.33362739326E+03  0.45978879193E+03  0.00000000000E+00 0.  1.
          1    1    3    3  501    0 -0.31603367553E+03 -0.13394222250E+02 -0.56164306583E+03  0.64459260208E+03  0.00000000000E+00 0.  1.
         21    1    1    2  502  501 -0.41721271627E-01 -0.56425839586E+00  0.28568678347E+00  0.63383368486E+00  0.00000000000E+00 0. -1.
<mgrwt>
<rscale>  1 0.64664447E+03</rscale>
<asrwt>0</asrwt>
<pdfrwt beam="1">  1        3 0.38187436E+00 0.64664447E+03</pdfrwt>
<pdfrwt beam="2">0</pdfrwt>
<totfact> 0.73819507E-02</totfact>
</mgrwt>
</event>
<event>
 6    1  0.3813560E-003  0.6538586E+03  0.7818608E-02  0.9799566E-01
          1   -1    0    0  502    0  0.00000000000E+00  0.00000000000E+00  0.10688892523E+03  0.10688892523E+03  0.00000000000E+00 0.  1.
         13   -1    0    0    0    0 -0.00000000000E+00 -0.00000000000E+00 -0.10000000000E+04  0.10000000000E+04  0.00000000000E+00 0.  1.
    9000005    2    1    2  501    0 -0.84708980651E-03 -0.62949710782E-02 -0.89311535411E+03  0.11068812664E+04  0.65385862556E+03 0.  0.
         13    1    3    3    0    0 -0.15017163581E+03 -0.25012451517E+03 -0.19678378800E+03  0.35190574378E+03  0.00000000000E+00 0.  1.
          3    1    3    3  501    0  0.15017078872E+03  0.25011822020E+03 -0.69633156611E+03  0.75497552266E+03  0.00000000000E+00 0.  1.
         21    1    1    2  502  501  0.84708980649E-03  0.62949710782E-02  0.42793400592E-02  0.76587840652E-02  0.00000000000E+00 0.  1.
<mgrwt>
<rscale>  1 0.65385863E+03</rscale>
<asrwt>0</asrwt>
<pdfrwt beam="1">  1        1 0.38868782E+00 0.65385863E+03</pdfrwt>
<pdfrwt beam="2">0</pdfrwt>
<totfact> 0.15009795E+00</totfact>
</mgrwt>
</event>
<event>
 6    1  0.3813560E-003  0.4846136E+03  0.7818608E-02  0.1017875E+00
          1   -1    0    0  502    0  0.00000000000E+00  0.00000000000E+00  0.72529809692E+02  0.72529809692E+02  0.00000000000E+00 0.  1.
         13   -1    0    0    0    0 -0.00000000000E+00 -0.00000000000E+00 -0.10000000000E+04  0.10000000000E+04  0.00000000000E+00 0.  1.
    9000005    2    1    2  501    0  0.70792237843E+01  0.40787470491E+01 -0.94000202742E+03  0.10575699124E+04  0.48454468978E+03 0.  0.
         13    1    3    3    0    0  0.14607488494E+03 -0.10549600193E+01 -0.90148655908E+03  0.91324531269E+03  0.00000000000E+00 0.  1.
          1    1    3    3  501    0 -0.13899566116E+03  0.51337070684E+01 -0.38515468338E+02  0.14432459967E+03  0.00000000000E+00 0.  1.
         21    1    1    2  502  501 -0.70792237843E+01 -0.40787470491E+01  0.12531837109E+02  0.14959897333E+02  0.00000000000E+00 0. -1.
<mgrwt>
<rscale>  1 0.48461357E+03</rscale>
<asrwt>0</asrwt>
<pdfrwt beam="1">  1        1 0.26374532E+00 0.48461357E+03</pdfrwt>
<pdfrwt beam="2">0</pdfrwt>
<totfact> 0.53997772E+00</totfact>
</mgrwt>
</event>
<event>
 6    1  0.3813560E-003  0.6433858E+03  0.7818608E-02  0.9819270E-01
          1   -1    0    0  502    0  0.00000000000E+00  0.00000000000E+00  0.10354222678E+03  0.10354222678E+03  0.00000000000E+00 0.  1.
         13   -1    0    0    0    0 -0.00000000000E+00 -0.00000000000E+00 -0.10000000000E+04  0.10000000000E+04  0.00000000000E+00 0.  1.
    9000005    2    1    2  501    0 -0.37764033931E-02  0.57544838748E-03 -0.89651359242E+03  0.11034862770E+04  0.64338584236E+03 0.  0.
         13    1    3    3    0    0 -0.17974630125E+03 -0.13467702378E+03 -0.53256879449E+02  0.23083095276E+03  0.00000000000E+00 0.  1.
          3    1    3    3  501    0  0.17974252484E+03  0.13467759923E+03 -0.84325671298E+03  0.87265532425E+03  0.00000000000E+00 0.  1.
         21    1    1    2  502  501  0.37764033931E-02 -0.57544838746E-03  0.55819200629E-01  0.55949758911E-01  0.00000000000E+00 0.  1.
<mgrwt>
<rscale>  1 0.64338584E+03</rscale>
<asrwt>0</asrwt>
<pdfrwt beam="1">  1        1 0.37651798E+00 0.64338584E+03</pdfrwt>
<pdfrwt beam="2">0</pdfrwt>
<totfact> 0.17020779E+00</totfact>
</mgrwt>
</event>
<event>
 6    1  0.3813560E-003  0.6527806E+03  0.7818608E-02  0.9801576E-01
          1   -1    0    0  502    0  0.00000000000E+00  0.00000000000E+00  0.10653063525E+03  0.10653063525E+03  0.00000000000E+00 0.  1.
         13   -1    0    0    0    0 -0.00000000000E+00 -0.00000000000E+00 -0.10000000000E+04  0.10000000000E+04  0.00000000000E+00 0.  1.
    9000005    2    1    2  501    0 -0.19008696484E-05 -0.82176669025E-06 -0.89346936695E+03  0.11065306322E+04  0.65278061427E+03 0.  0.
         13    1    3    3    0    0  0.94295920553E+02  0.97423223537E+02 -0.95000521922E+03  0.95963165937E+03  0.00000000000E+00 0.  1.
          1    1    3    3  501    0 -0.94295922454E+02 -0.97423224359E+02  0.56535852264E+02  0.14689897286E+03  0.00000000000E+00 0.  1.
         21    1    1    2  502  501  0.19008696415E-05  0.82176669772E-06  0.22074726020E-05  0.30268037908E-05  0.00000000000E+00 0. -1.
<mgrwt>
<rscale>  1 0.65278061E+03</rscale>
<asrwt>0</asrwt>
<pdfrwt beam="1">  1        1 0.38738495E+00 0.65278061E+03</pdfrwt>
<pdfrwt beam="2">0</pdfrwt>
<totfact> 0.15213650E+00</totfact>
</mgrwt>
</event>
<event>
 6    1  0.3813560E-003  0.6417012E+03  0.7818608E-02  0.9822477E-01
          1   -1    0    0  502    0  0.00000000000E+00  0.00000000000E+00  0.10294565711E+03  0.10294565711E+03  0.00000000000E+00 0.  1.
         13   -1    0    0    0    0 -0.00000000000E+00 -0.00000000000E+00 -0.10000000000E+04  0.10000000000E+04  0.00000000000E+00 0.  1.
    9000005    2    1    2  501    0  0.11735844092E-02 -0.47237471898E-03 -0.89705388700E+03  0.11029443124E+04  0.64170123893E+03 0.  0.
         13    1    3    3    0    0 -0.12951115648E+02  0.28087946255E+03 -0.18289856140E+03  0.33542940783E+03  0.00000000000E+00 0.  1.
          3    1    3    3  501    0  0.12952289233E+02 -0.28087993492E+03 -0.71415532560E+03  0.76751490455E+03  0.00000000000E+00 0.  1.
         21    1    1    2  502  501 -0.11735844092E-02  0.47237471900E-03 -0.45589025225E-03  0.13447208494E-02  0.00000000000E+00 0.  1.
<mgrwt>
<rscale>  1 0.64170124E+03</rscale>
<asrwt>0</asrwt>
<pdfrwt beam="1">  1        1 0.37434863E+00 0.64170124E+03</pdfrwt>
<pdfrwt beam="2">0</pdfrwt>
<totfact> 0.17404610E+00</totfact>
</mgrwt>
</event>
<event>
 6    1  0.3813560E-003  0.6412790E+03  0.7818608E-02  0.9823283E-01
          1   -1    0    0  502    0  0.00000000000E+00  0.00000000000E+00  0.10281007207E+03  0.10281007207E+03  0.00000000000E+00 0.  1.
         13   -1    0    0    0    0 -0.00000000000E+00 -0.00000000000E+00 -0.10000000000E+04  0.10000000000E+04  0.00000000000E+00 0.  1.
    9000005    2    1    2  501    0 -0.40907567313E-03 -0.92866323087E-04 -0.89719017818E+03  0.11028095836E+04  0.64127900470E+03 0.  0.
         13    1    3    3    0    0  0.22841548660E+03  0.19202614938E+03 -0.65033518727E+03  0.71553024560E+03  0.00000000000E+00 0.  1.
          1    1    3    3  501    0 -0.22841589568E+03 -0.19202624225E+03 -0.24685499091E+03  0.38727933801E+03  0.00000000000E+00 0.  1.
         21    1    1    2  502  501  0.40907567313E-03  0.92866323077E-04  0.25024980333E-03  0.48845882567E-03  0.00000000000E+00 0.  1.
<mgrwt>
<rscale>  1 0.64127900E+03</rscale>
<asrwt>0</asrwt>
<pdfrwt beam="1">  1        1 0.37385560E+00 0.64127900E+03</pdfrwt>
<pdfrwt beam="2">0</pdfrwt>
<totfact> 0.17493117E+00</totfact>
</mgrwt>
</event>
<event>
 6    1  0.3813560E-003  0.6062077E+03  0.7818608E-02  0.9892610E-01
          1   -1    0    0  502    0  0.00000000000E+00  0.00000000000E+00  0.91934059657E+02  0.91934059657E+02  0.00000000000E+00 0.  1.
         13   -1    0    0    0    0 -0.00000000000E+00 -0.00000000000E+00 -0.10000000000E+04  0.10000000000E+04  0.00000000000E+00 0.  1.
    9000005    2    1    2  501    0 -0.13103192912E-01 -0.24394531360E-02 -0.90812728574E+03  0.10918712831E+04  0.60620766366E+03 0.  0.
         13    1    3    3    0    0 -0.26064601799E+03  0.15069580538E+03 -0.39091758268E+03  0.49341881693E+03  0.00000000000E+00 0.  1.
          1    1    3    3  501    0  0.26063291480E+03 -0.15069824483E+03 -0.51720970306E+03  0.59845246613E+03  0.00000000000E+00 0.  1.
         21    1    1    2  502  501  0.13103192912E-01  0.24394531360E-02  0.61345394772E-01  0.62776604367E-01  0.00000000000E+00 0.  1.
<mgrwt>
<rscale>  1 0.60620766E+03</rscale>
<asrwt>0</asrwt>
<pdfrwt beam="1">  1        1 0.33430638E+00 0.60620766E+03</pdfrwt>
<pdfrwt beam="2">0</pdfrwt>
<totfact> 0.26196143E+00</totfact>
</mgrwt>
</event>
<event>
 6    1  0.3813560E-003  0.6268730E+03  0.7818608E-02  0.9851170E-01
          1   -1    0    0  502    0  0.00000000000E+00  0.00000000000E+00  0.98244597346E+02  0.98244597346E+02  0.00000000000E+00 0.  1.
         13   -1    0    0    0    0 -0.00000000000E+00 -0.00000000000E+00 -0.10000000000E+04  0.10000000000E+04  0.00000000000E+00 0.  1.
    9000005    2    1    2  501    0 -0.33640701417E-04  0.19245949261E-05 -0.90175756254E+03  0.10982424372E+04  0.62687299293E+03 0.  0.
         13    1    3    3    0    0  0.30169736562E+03  0.77872162426E+02 -0.39128574746E+03  0.50018987422E+03  0.00000000000E+00 0.  1.
          3    1    3    3  501    0 -0.30169739926E+03 -0.77872160502E+02 -0.51047181507E+03  0.59805256298E+03  0.00000000000E+00 0.  1.
         21    1    1    2  502  501  0.33640701463E-04 -0.19245949336E-05  0.21598841891E-02  0.21601470115E-02  0.00000000000E+00 0.  1.
<mgrwt>
<rscale>  1 0.62687299E+03</rscale>
<asrwt>0</asrwt>
<pdfrwt beam="1">  1        1 0.35725383E+00 0.62687299E+03</pdfrwt>
<pdfrwt beam="2">0</pdfrwt>
<totfact> 0.20738546E+00</totfact>
</mgrwt>
</event>
<event>
 6    1  0.3813560E-003  0.6779899E+03  0.7818608E-02  0.9755631E-01
          1   -1    0    0  502    0  0.00000000000E+00  0.00000000000E+00  0.11752051473E+03  0.11752051473E+03  0.00000000000E+00 0.  1.
         13   -1    0    0    0    0 -0.00000000000E+00 -0.00000000000E+00 -0.10000000000E+04  0.10000000000E+04  0.00000000000E+00 0.  1.
    9000005    2    1    2  501    0 -0.22233919153E+00 -0.64669394238E-02 -0.88507712254E+03  0.11149133715E+04  0.67798986981E+03 0.  0.
         13    1    3    3    0    0 -0.42587891852E+02 -0.33631598821E+03 -0.44691955137E+03  0.56094496866E+03  0.00000000000E+00 0.  1.
          3    1    3    3  501    0  0.42365552660E+02  0.33630952127E+03 -0.43815757117E+03  0.55396840282E+03  0.00000000000E+00 0.  1.
         21    1    1    2  502  501  0.22233919153E+00  0.64669394238E-02  0.25976372765E+01  0.26071432560E+01  0.00000000000E+00 0.  1.
<mgrwt>
<rscale>  1 0.67798991E+03</rscale>
<asrwt>0</asrwt>
<pdfrwt beam="1">  1        1 0.42734823E+00 0.67798991E+03</pdfrwt>
<pdfrwt beam="2">0</pdfrwt>
<totfact> 0.10026440E+00</totfact>
</mgrwt>
</event>
<event>
 6    1  0.3813560E-003  0.6567980E+03  0.7818608E-02  0.9794106E-01
          1   -1    0    0  502    0  0.00000000000E+00  0.00000000000E+00  0.10791218062E+03  0.10791218062E+03  0.00000000000E+00 0.  1.
         13   -1    0    0    0    0 -0.00000000000E+00 -0.00000000000E+00 -0.10000000000E+04  0.10000000000E+04  0.00000000000E+00 0.  1.
    9000005    2    1    2  501    0  0.65444752761E-01 -0.89972759416E-02 -0.89213533160E+03  0.11078308088E+04  0.65679802573E+03 0.  0.
         13    1    3    3    0    0 -0.65255416773E+02 -0.64187049076E+02 -0.97801453256E+03  0.98228848746E+03  0.00000000000E+00 0.  1.
          3    1    3    3  501    0  0.65320861525E+02  0.64178051800E+02  0.85879200962E+02  0.12554232131E+03  0.00000000000E+00 0.  1.
         21    1    1    2  502  501 -0.65444752761E-01  0.89972759416E-02  0.47512217533E-01  0.81371846809E-01  0.00000000000E+00 0.  1.
<mgrwt>
<rscale>  1 0.65679803E+03</rscale>
<asrwt>0</asrwt>
<pdfrwt beam="1">  1        1 0.39240876E+00 0.65679803E+03</pdfrwt>
<pdfrwt beam="2">0</pdfrwt>
<totfact> 0.14442139E+00</totfact>
</mgrwt>
</event>
<event>
 6    1  0.3813560E-003  0.6559968E+03  0.7818608E-02  0.9795591E-01
          1   -1    0    0  502    0  0.00000000000E+00  0.00000000000E+00  0.11864575059E+03  0.11864575059E+03  0.00000000000E+00 0.  1.
         13   -1    0    0    0    0 -0.00000000000E+00 -0.00000000000E+00 -0.10000000000E+04  0.10000000000E+04  0.00000000000E+00 0.  1.
    9000005    2    1    2  501    0  0.77446009845E+00 -0.38349695290E+00 -0.89239834849E+03  0.11075678906E+04  0.65599624461E+03 0.  0.
         13    1    3    3    0    0  0.27516712665E+03  0.21253088450E+02 -0.14640133582E+03  0.31241317592E+03  0.00000000000E+00 0.  1.
          1    1    3    3  501    0 -0.27439266655E+03 -0.21636585403E+02 -0.74599701268E+03  0.79515471464E+03  0.00000000000E+00 0.  1.
         21    1    1    2  502  501 -0.77446009845E+00  0.38349695290E+00  0.11044099082E+02  0.11077860032E+02  0.00000000000E+00 0.  1.
<mgrwt>
<rscale>  1 0.65599681E+03</rscale>
<asrwt>0</asrwt>
<pdfrwt beam="1">  1        1 0.43144000E+00 0.65599681E+03</pdfrwt>
<pdfrwt beam="2">0</pdfrwt>
<totfact> 0.96482256E-01</totfact>
</mgrwt>
</event>
<event>
 6    1  0.3813560E-003  0.6689755E+03  0.7818608E-02  0.9771810E-01
          1   -1    0    0  502    0  0.00000000000E+00  0.00000000000E+00  0.11188250920E+03  0.11188250920E+03  0.00000000000E+00 0.  1.
         13   -1    0    0    0    0 -0.00000000000E+00 -0.00000000000E+00 -0.10000000000E+04  0.10000000000E+04  0.00000000000E+00 0.  1.
    9000005    2    1    2  501    0  0.28177657327E-04  0.15153434973E-03 -0.88811792359E+03  0.11118820498E+04  0.66897552004E+03 0.  0.
         13    1    3    3    0    0  0.18122366982E+03 -0.17801681339E+03 -0.80572572136E+03  0.84482302432E+03  0.00000000000E+00 0.  1.
          3    1    3    3  501    0 -0.18122364164E+03  0.17801696493E+03 -0.82392202233E+02  0.26705902546E+03  0.00000000000E+00 0.  1.
         21    1    1    2  502  501 -0.28177657314E-04 -0.15153434972E-03  0.43279812252E-03  0.45942448169E-03  0.00000000000E+00 0. -1.
<mgrwt>
<rscale>  1 0.66897552E+03</rscale>
<asrwt>0</asrwt>
<pdfrwt beam="1">  1        1 0.40684635E+00 0.66897552E+03</pdfrwt>
<pdfrwt beam="2">0</pdfrwt>
<totfact> 0.12424294E+00</totfact>
</mgrwt>
</event>
<event>
 6    1  0.3813560E-003  0.6532724E+03  0.7818608E-02  0.9800658E-01
          1   -1    0    0  502    0  0.00000000000E+00  0.00000000000E+00  0.10669306142E+03  0.10669306142E+03  0.00000000000E+00 0.  1.
         13   -1    0    0    0    0 -0.00000000000E+00 -0.00000000000E+00 -0.10000000000E+04  0.10000000000E+04  0.00000000000E+00 0.  1.
    9000005    2    1    2  501    0 -0.20625524451E-03 -0.31566654434E-03 -0.89330875802E+03  0.11066912033E+04  0.65327244113E+03 0.  0.
         13    1    3    3    0    0  0.29663540801E+03 -0.81882421675E+02 -0.63218344565E+03  0.70310255668E+03  0.00000000000E+00 0.  1.
          3    1    3    3  501    0 -0.29663561426E+03  0.81882106008E+02 -0.26112531237E+03  0.40358864664E+03  0.00000000000E+00 0.  1.
         21    1    1    2  502  501  0.20625524450E-03  0.31566654435E-03  0.18194409095E-02  0.18581043610E-02  0.00000000000E+00 0.  1.
<mgrwt>
<rscale>  1 0.65327244E+03</rscale>
<asrwt>0</asrwt>
<pdfrwt beam="1">  1        1 0.38797559E+00 0.65327244E+03</pdfrwt>
<pdfrwt beam="2">0</pdfrwt>
<totfact> 0.15120903E+00</totfact>
</mgrwt>
</event>
<event>
 6    1  0.3813560E-003  0.6329304E+03  0.7818608E-02  0.9839347E-01
          1   -1    0    0  502    0  0.00000000000E+00  0.00000000000E+00  0.10015642809E+03  0.10015642809E+03  0.00000000000E+00 0.  1.
         13   -1    0    0    0    0 -0.00000000000E+00 -0.00000000000E+00 -0.10000000000E+04  0.10000000000E+04  0.00000000000E+00 0.  1.
    9000005    2    1    2  501    0  0.45683064974E-03 -0.17062667249E-03 -0.89984975401E+03  0.11001502268E+04  0.63293043987E+03 0.  0.
         13    1    3    3    0    0  0.22947758805E+03 -0.19813161148E+03 -0.60765315269E+03  0.67908648408E+03  0.00000000000E+00 0.  1.
          3    1    3    3  501    0 -0.22947713122E+03  0.19813144085E+03 -0.29219660131E+03  0.42106374271E+03  0.00000000000E+00 0.  1.
         21    1    1    2  502  501 -0.45683064972E-03  0.17062667250E-03  0.61820952879E-02  0.62012990456E-02  0.00000000000E+00 0.  1.
<mgrwt>
<rscale>  1 0.63293044E+03</rscale>
<asrwt>0</asrwt>
<pdfrwt beam="1">  1        1 0.36420596E+00 0.63293044E+03</pdfrwt>
<pdfrwt beam="2">0</pdfrwt>
<totfact> 0.19314762E+00</totfact>
</mgrwt>
</event>
<event>
 6    1  0.3813560E-003  0.5108864E+03  0.7818608E-02  0.1010976E+00
          1   -1    0    0  502    0  0.00000000000E+00  0.00000000000E+00  0.65929961838E+02  0.65929961838E+02  0.00000000000E+00 0.  1.
         13   -1    0    0    0    0 -0.00000000000E+00 -0.00000000000E+00 -0.10000000000E+04  0.10000000000E+04  0.00000000000E+00 0.  1.
    9000005    2    1    2  501    0  0.49705091306E+00  0.11159408381E+00 -0.93464600754E+03  0.10651610317E+04  0.51088609737E+03 0.  0.
         13    1    3    3    0    0  0.12956437242E+03 -0.83741848784E+02 -0.89228513162E+03  0.90552326306E+03  0.00000000000E+00 0.  1.
          3    1    3    3  501    0 -0.12906732151E+03  0.83853442868E+02 -0.42360875928E+02  0.15963776863E+03  0.00000000000E+00 0.  1.
         21    1    1    2  502  501 -0.49705091306E+00 -0.11159408381E+00  0.57596938260E+00  0.76893015249E+00  0.00000000000E+00 0.  1.
<mgrwt>
<rscale>  1 0.51088635E+03</rscale>
<asrwt>0</asrwt>
<pdfrwt beam="1">  1        1 0.23974582E+00 0.51088635E+03</pdfrwt>
<pdfrwt beam="2">0</pdfrwt>
<totfact> 0.68332141E+00</totfact>
</mgrwt>
</event>
